G2.5Ocore-PETIM in water
136588
    1aaa     O1    1   4.265   4.404   0.913 -0.1582  0.3525 -0.4269
    1aaa     C1    2   4.146   4.354   0.983 -0.6202  0.3001  0.3334
    1aaa     H1    3   4.106   4.278   0.915 -1.2069  2.0792 -1.4287
    1aaa     H2    4   4.075   4.437   0.982  0.0107  0.8627  0.9294
    1aaa     C2    5   4.249   4.443   0.776  0.3215  0.2214 -0.6216
    1aaa     H3    6   4.215   4.547   0.780 -1.2445 -0.2690  2.6561
    1aaa     H4    7   4.176   4.380   0.723 -0.4787 -0.2734  1.0083
    1aaa     C3    8   4.178   4.301   1.127 -0.1994 -0.4892 -0.2748
    1aaa     H5    9   4.262   4.230   1.129 -1.3876 -2.0062 -1.4116
    1aaa     H6   10   4.092   4.247   1.167  0.1384 -1.2029 -0.4998
    1aaa     C4   11   4.388   4.421   0.725 -1.0212  0.1115 -0.5044
    1aaa     H7   12   4.410   4.316   0.749 -1.2991 -0.1645 -1.4076
    1aaa     H8   13   4.460   4.480   0.782 -0.0072 -0.8924 -0.7137
    1aaa     C5   14   4.228   4.416   1.221 -0.0034  0.2671  0.3397
    1aaa     H9   15   4.337   4.429   1.215  0.2330 -0.6097  1.9543
    1aaa    H10   16   4.180   4.507   1.185 -0.9516  0.2914  1.5924
    1aaa     C6   17   4.407   4.430   0.570  0.0840  0.0491  0.1698
    1aaa    H11   18   4.371   4.522   0.525 -1.1036 -0.4354  0.1046
    1aaa    H12   19   4.348   4.347   0.531  0.1191  0.7781 -1.5399
    1aaa     N1   20   4.194   4.399   1.370  0.4582  0.6479  0.1675
    1aaa     N2   21   4.555   4.414   0.529  0.0392  0.1501  0.5567
    1aaa     C7   22   4.628   4.547   0.562 -0.6771  0.0674 -0.2523
    1aaa    H13   23   4.620   4.612   0.475  0.4580  0.6255  0.0548
    1aaa    H14   24   4.577   4.597   0.644 -1.2855  1.7440 -1.5859
    1aaa     C8   25   4.554   4.399   0.377 -1.2846  0.1592 -0.3612
    1aaa    H15   26   4.474   4.328   0.355 -0.6838 -0.4242 -0.7028
    1aaa    H16   27   4.526   4.495   0.335  1.3195  0.3052 -1.9950
    1aaa     C9   28   4.274   4.274   1.416 -0.0666  0.2975 -0.2116
    1aaa    H17   29   4.266   4.202   1.335  0.5210 -0.1558  0.1279
    1aaa    H18   30   4.379   4.297   1.435  0.2530 -1.3478  0.1663
    1aaa    C10   31   4.233   4.514   1.455 -0.2088 -0.1839 -0.0050
    1aaa    H19   32   4.243   4.473   1.556 -0.9922 -2.6204 -0.8373
    1aaa    H20   33   4.327   4.564   1.428  1.0314 -1.2566  1.9863
    1aaa    C11   34   4.776   4.532   0.601  0.6888 -0.0890  0.2448
    1aaa    H21   35   4.779   4.479   0.696 -1.3226  1.5475  1.3013
    1aaa    H22   36   4.834   4.473   0.529  0.7636 -0.8582  0.9318
    1aaa    C12   37   4.680   4.347   0.315  0.4934 -0.1506 -0.2454
    1aaa    H23   38   4.770   4.403   0.345 -0.7378  1.2239  1.0808
    1aaa    H24   39   4.703   4.251   0.362  0.5252  1.0735  2.4734
    1aaa    C13   40   4.224   4.211   1.551  1.0998  0.1308 -0.5873
    1aaa    H25   41   4.252   4.287   1.625 -0.4663  1.5502 -1.3589
    1aaa    H26   42   4.115   4.204   1.543  0.7822  0.4731  2.3301
    1aaa    C14   43   4.117   4.620   1.463 -0.1781  0.3620  0.1530
    1aaa    H27   44   4.105   4.667   1.365 -0.3585 -1.0594 -0.5311
    1aaa    H28   45   4.029   4.560   1.491  0.3999 -0.1475  0.9406
    1aaa    C15   46   4.139   4.727   1.568  0.1003  0.7282  0.6896
    1aaa    H29   47   4.139   4.669   1.661  0.8576 -2.0155 -0.8689
    1aaa    H30   48   4.240   4.769   1.569  1.2731 -1.8615  0.4366
    1aaa    C16   49   4.277   4.071   1.579 -0.0385 -0.0456 -0.0815
    1aaa    H31   50   4.303   4.021   1.485  0.3620  0.1325 -0.0673
    1aaa    H32   51   4.375   4.073   1.629  0.9865 -2.9848 -1.7125
    1aaa    C17   52   4.670   4.329   0.164  0.5395 -0.0292  0.2291
    1aaa    H33   53   4.664   4.431   0.123 -0.8591 -0.2597 -0.1963
    1aaa    H34   54   4.763   4.285   0.126  1.8006  1.5226  1.3763
    1aaa    C18   55   4.829   4.684   0.613  0.0240  0.0411 -0.4712
    1aaa    H35   56   4.807   4.738   0.520 -0.8472 -1.0307 -0.9164
    1aaa    H36   57   4.770   4.732   0.692  2.0967  0.4887  0.8653
    1aaa    H38   58   4.093   4.385   1.382  0.1339 -2.0383 -3.7016
    1aaa    H37   59   4.599   4.332   0.572 -2.8389 -1.4504  0.7360
    2bbb     N1   60   3.707   5.056   1.755  0.1654 -0.0727  0.1741
    2bbb     C1   61   3.580   5.006   1.680  0.2351  0.4105  0.2478
    2bbb     H1   62   3.549   4.908   1.719  0.1675 -0.9925 -3.0151
    2bbb     H2   63   3.607   4.998   1.575 -1.2371  1.6880 -0.2598
    2bbb     C2   64   3.677   5.059   1.903  0.2319 -0.2185  0.6339
    2bbb     H3   65   3.611   5.145   1.917 -1.6095 -1.4017 -0.2901
    2bbb     H4   66   3.774   5.075   1.949  0.4736  2.3196 -0.5376
    2bbb     C3   67   3.818   4.956   1.730 -0.6300  1.2302  0.0419
    2bbb     H5   68   3.778   4.887   1.655 -0.9789  2.6596 -1.1237
    2bbb     H6   69   3.845   4.895   1.816 -1.5229 -1.2735 -1.3529
    2bbb     C4   70   3.944   5.024   1.665  0.8461  0.8070 -0.2100
    2bbb     H7   71   3.966   5.119   1.714 -2.0405  0.8692  1.2096
    2bbb     H8   72   3.908   5.041   1.563  1.3057 -1.0079 -0.7037
    2bbb     C5   73   3.472   5.119   1.685  0.0262  0.3484  0.2153
    2bbb     H9   74   3.522   5.195   1.624  3.3820 -0.4213  1.7538
    2bbb    H10   75   3.459   5.162   1.785 -0.7075  0.3777  0.1137
    2bbb     C6   76   3.603   4.935   1.959 -0.0629 -1.0179  0.2639
    2bbb    H11   77   3.646   4.837   1.934 -0.4162 -1.9881  3.0829
    2bbb    H12   78   3.506   4.926   1.908  0.1655 -0.5092 -0.2761
    2bbb     C7   79   4.066   4.934   1.663 -0.2781 -0.8349 -0.0114
    2bbb    H13   80   4.097   4.912   1.765  0.0413 -1.2997 -0.2060
    2bbb    H14   81   4.153   4.980   1.613  0.0808 -0.5130  0.8875
    2bbb     C8   82   3.600   4.953   2.110 -0.6190 -0.9381  0.5259
    2bbb    H15   83   3.539   4.871   2.150 -1.1039 -0.8964 -0.1113
    2bbb    H16   84   3.698   4.946   2.158 -2.0519  1.0949  4.1725
    2bbb     C9   85   3.339   5.083   1.647  0.3155 -0.2563  0.0771
    2bbb    H17   86   3.276   5.171   1.667  2.4168  1.5420 -0.7915
    2bbb    H18   87   3.312   5.006   1.719  1.6857  2.2225  3.5009
    2bbb     O1   88   4.030   4.818   1.578 -0.2727 -0.4735  0.2107
    2bbb    H19   89   3.732   5.149   1.719  1.3100 -1.2965 -2.4536
    3bbb     N1   90   4.361   4.029   2.139  0.7003 -0.1727 -0.9433
    3bbb     C1   91   4.290   4.073   2.263 -0.0065  0.0216 -0.6617
    3bbb     H1   92   4.268   3.981   2.318 -1.4741  0.6260 -0.1908
    3bbb     H2   93   4.193   4.114   2.234  0.6903  1.1595 -1.4629
    3bbb     C2   94   4.430   3.894   2.153  0.1365 -0.2373  0.1378
    3bbb     H3   95   4.500   3.900   2.237 -0.1489 -1.9850  0.5389
    3bbb     H4   96   4.481   3.875   2.059 -1.5063  0.0080 -0.8342
    3bbb     C3   97   4.246   4.016   2.039 -0.3543 -0.2199  0.3045
    3bbb     H5   98   4.183   4.105   2.050 -0.9038 -0.6833  1.0234
    3bbb     H6   99   4.180   3.932   2.060 -0.7419  0.3645  1.5423
    3bbb     C4  100   4.284   4.013   1.893  0.3886  0.1004 -0.8157
    3bbb     H7  101   4.355   3.934   1.865  1.3976  0.6704  0.0747
    3bbb     H8  102   4.339   4.106   1.880  1.0568 -0.5236 -2.7472
    3bbb     C5  103   4.367   4.161   2.362  0.1762 -0.1089 -0.5649
    3bbb     H9  104   4.307   4.180   2.452 -0.4223 -0.7264 -0.8227
    3bbb    H10  105   4.373   4.261   2.318 -2.8282 -0.0618 -1.0370
    3bbb     C6  106   4.346   3.769   2.177  0.0970 -0.3237 -0.1457
    3bbb    H11  107   4.327   3.719   2.081  1.4180 -2.2564  0.5362
    3bbb    H12  108   4.261   3.795   2.240  1.3213  1.0856  1.0155
    3bbb     C7  109   4.156   4.027   1.797  0.6516 -0.1428 -0.1244
    3bbb    H13  110   4.116   4.129   1.793 -1.6263 -1.0195 -1.0754
    3bbb    H14  111   4.077   3.963   1.837  0.8263  0.4796  1.2956
    3bbb     C8  112   4.440   3.669   2.249 -0.1837  0.0660 -0.0439
    3bbb    H15  113   4.525   3.655   2.181 -1.4259  1.8308 -2.1237
    3bbb    H16  114   4.483   3.715   2.339  0.0486  1.5322 -0.8771
    3bbb     C9  115   4.509   4.112   2.384  0.0461  0.1895  0.0417
    3bbb    H17  116   4.559   4.184   2.450  1.2832 -0.5180 -0.0911
    3bbb    H18  117   4.568   4.112   2.291  1.3152 -1.1738  0.8078
    3bbb     O1  118   4.194   3.983   1.659 -0.0482  0.4418 -0.5221
    3bbb    H19  119   4.427   4.104   2.114  0.6864  0.3405  0.4942
    4bbb     N1  120   4.282   3.948  -0.002 -0.4860  0.0525  0.2950
    4bbb     C1  121   4.292   3.877   0.130 -0.2172  0.1256  0.5104
    4bbb     H1  122   4.392   3.888   0.173 -0.5865 -0.2145  1.4783
    4bbb     H2  123   4.260   3.775   0.107  0.0980  0.0051  0.6051
    4bbb     C2  124   4.139   3.952  -0.051 -0.1775  0.3128  0.2506
    4bbb     H3  125   4.077   4.003   0.022 -2.2001 -1.9793  0.2793
    4bbb     H4  126   4.106   3.848  -0.040 -0.3788 -0.2040 -3.7112
    4bbb     C3  127   4.344   4.091   0.000  0.5560 -0.0219  0.0917
    4bbb     H5  128   4.350   4.130   0.102  0.7331  1.8474 -0.5851
    4bbb     H6  129   4.280   4.162  -0.052  0.2817 -1.2573 -1.2948
    4bbb     C4  130   4.489   4.092  -0.049  0.4292  0.1941  0.3026
    4bbb     H7  131   4.475   4.082  -0.157 -1.6028  0.2440  0.5297
    4bbb     H8  132   4.542   4.007  -0.005  1.8573  0.7481 -0.2629
    4bbb     C5  133   4.199   3.934   0.237  0.2518  0.4435 -0.2735
    4bbb     H9  134   4.097   3.938   0.197  0.4353  2.5401 -0.6371
    4bbb    H10  135   4.222   4.036   0.272  1.2994 -0.5210  2.0437
    4bbb     C6  136   4.119   4.005  -0.200  0.8042  0.4257 -0.4478
    4bbb    H11  137   4.143   4.112  -0.208  0.9584  0.3981 -0.3560
    4bbb    H12  138   4.012   4.002  -0.224  0.2079  0.9086  1.8924
    4bbb     C7  139   4.551   4.229  -0.022 -0.5726  0.2793 -0.4182
    4bbb    H13  140   4.491   4.305  -0.073 -1.2863 -0.9567 -1.4904
    4bbb    H14  141   4.650   4.237  -0.068 -0.3554  2.6527  0.3333
    4bbb     C8  142   4.201   3.929  -0.301  0.1745 -0.1394 -0.2248
    4bbb    H15  143   4.305   3.919  -0.267  0.5243  0.6996 -0.9957
    4bbb    H16  144   4.162   3.829  -0.319 -0.4977 -0.3941  2.2267
    4bbb     C9  145   4.200   3.831   0.355 -0.5088  0.4154  0.3789
    4bbb    H17  146   4.117   3.838   0.427 -0.4834  1.2283  0.3347
    4bbb    H18  147   4.295   3.849   0.405 -0.6833 -1.0564  1.3064
    4bbb     O1  148   4.555   4.254   0.124 -0.0997  0.0750 -0.6500
    4bbb    H19  149   4.339   3.888  -0.063 -2.5467 -1.4038 -0.2946
    5bbb     N1  150   5.402   4.807   0.549 -0.1162 -0.2151  0.9644
    5bbb     C1  151   5.445   4.741   0.418 -0.0770  0.6322 -0.1585
    5bbb     H1  152   5.554   4.744   0.407 -0.3382  0.9757 -3.5954
    5bbb     H2  153   5.406   4.794   0.331  2.9762  1.0765 -1.3835
    5bbb     C2  154   5.469   4.939   0.571  0.1271  0.4074  0.9026
    5bbb     H3  155   5.414   4.983   0.655  0.1417  0.0246  1.1141
    5bbb     H4  156   5.444   5.007   0.490 -3.4250 -0.5588  1.0154
    5bbb     C3  157   5.255   4.826   0.545 -0.2270  0.2025  0.4514
    5bbb     H5  158   5.198   4.747   0.496 -1.8191  3.5109 -3.5951
    5bbb     H6  159   5.235   4.917   0.488  0.4222  0.4296  0.5834
    5bbb     C4  160   5.183   4.821   0.682  0.5595  0.0437  0.5375
    5bbb     H7  161   5.210   4.912   0.737 -1.9720  2.2810 -1.5866
    5bbb     H8  162   5.211   4.730   0.737 -0.0740 -0.1416  0.5660
    5bbb     C5  163   5.408   4.596   0.390 -0.0615 -0.1171 -0.2997
    5bbb     H9  164   5.300   4.609   0.377  0.0097  3.1240  1.2669
    5bbb    H10  165   5.419   4.535   0.481 -1.7653 -0.0771 -0.0363
    5bbb     C6  166   5.619   4.923   0.600 -0.3646  1.3145 -0.3022
    5bbb    H11  167   5.673   4.888   0.512  1.6670  0.9583  1.0332
    5bbb    H12  168   5.630   4.848   0.679 -1.2527  0.2229 -1.1987
    5bbb     C7  169   5.026   4.817   0.665 -0.4178 -0.4652 -0.1692
    5bbb    H13  170   5.003   4.895   0.591  1.6567  0.7706  0.4171
    5bbb    H14  171   4.987   4.847   0.763  0.5149  0.1787  0.0184
    5bbb     C8  172   5.677   5.057   0.649  0.7248  0.2982 -0.3241
    5bbb    H15  173   5.622   5.081   0.740  2.1868  0.8878  0.4368
    5bbb    H16  174   5.780   5.059   0.685  1.0067  0.1979 -1.1000
    5bbb     C9  175   5.467   4.535   0.268  0.4154 -0.4589  0.0709
    5bbb    H17  176   5.453   4.614   0.192  1.2671 -1.6204 -1.3674
    5bbb    H18  177   5.409   4.451   0.229 -1.7032  1.6630 -1.6559
    5bbb     O1  178   4.977   4.686   0.633 -0.7012 -0.0057 -0.2142
    5bbb    H19  179   5.417   4.743   0.628  0.4568  0.1542  1.1590
    6bbb     N1  180   3.421   5.357   2.546 -0.3128  0.3659 -0.2852
    6bbb     C1  181   3.392   5.342   2.694 -0.2508  0.1772 -0.1419
    6bbb     H1  182   3.313   5.415   2.709  0.0667  0.6336 -0.6650
    6bbb     H2  183   3.487   5.367   2.741  0.7558 -1.8926 -0.9563
    6bbb     C2  184   3.496   5.487   2.517  0.0441 -0.3913 -0.2696
    6bbb     H3  185   3.554   5.490   2.425  0.6244 -0.6073  0.0809
    6bbb     H4  186   3.570   5.499   2.596 -0.8860  2.5582  0.2802
    6bbb     C3  187   3.493   5.234   2.488  0.0058  0.3168 -0.2189
    6bbb     H5  188   3.453   5.147   2.541 -0.2640  1.4639  1.5352
    6bbb     H6  189   3.601   5.232   2.502 -0.0757  0.5616  0.4765
    6bbb     C4  190   3.486   5.223   2.337 -0.3693 -0.5224  0.2758
    6bbb     H7  191   3.560   5.294   2.298 -1.6351  0.3513 -0.6681
    6bbb     H8  192   3.390   5.247   2.288 -0.0387 -1.0268 -0.6547
    6bbb     C5  193   3.346   5.211   2.756  0.3727 -0.1550  0.5786
    6bbb     H9  194   3.417   5.134   2.721  0.8100  0.3079  0.4368
    6bbb    H10  195   3.246   5.179   2.726 -1.0800  2.2335  2.5730
    6bbb     C6  196   3.395   5.609   2.530 -0.2073 -0.1763 -0.0242
    6bbb    H11  197   3.322   5.588   2.609  0.2225  1.1021  0.7488
    6bbb    H12  198   3.345   5.624   2.434 -1.0393 -1.9353  0.1015
    6bbb     C7  199   3.529   5.083   2.290  0.1443  0.2787 -0.0380
    6bbb    H13  200   3.448   5.015   2.318 -1.8333  1.3056 -2.8226
    6bbb    H14  201   3.625   5.057   2.337  1.3950  1.2014 -1.9327
    6bbb     C8  202   3.477   5.742   2.566  0.3197  0.0391  0.6889
    6bbb    H15  203   3.544   5.710   2.646  1.2511 -2.1154 -0.8879
    6bbb    H16  204   3.546   5.776   2.489 -0.5979  0.2644 -0.0529
    6bbb     C9  205   3.336   5.219   2.912 -0.8474 -0.1387  0.4320
    6bbb    H17  206   3.438   5.227   2.952 -1.0564 -0.9282  1.1434
    6bbb    H18  207   3.286   5.129   2.950  1.5513 -0.5290  2.9475
    6bbb     O1  208   3.540   5.085   2.144  0.0817  1.0044  0.4004
    6bbb    H19  209   3.330   5.358   2.499 -2.1037  1.3294  2.9393
    7bbb     N1  210   3.040   5.245   1.247 -0.2601 -0.3718 -1.0473
    7bbb     C1  211   2.927   5.190   1.163  0.0503  0.1742  0.3615
    7bbb     H1  212   2.968   5.123   1.087 -0.8445 -1.2895  1.1171
    7bbb     H2  213   2.881   5.277   1.117 -1.5766 -1.2453 -0.8470
    7bbb     C2  214   2.978   5.330   1.362  0.0803  0.0662  0.8788
    7bbb     H3  215   2.938   5.259   1.435  0.3323  0.0347  0.9846
    7bbb     H4  216   2.899   5.395   1.326 -2.2704 -1.8013  2.2819
    7bbb     C3  217   3.132   5.132   1.296 -0.4201 -0.0652 -0.0170
    7bbb     H5  218   3.218   5.187   1.335 -1.5241  2.0871 -0.4295
    7bbb     H6  219   3.175   5.070   1.218 -0.8012  1.3020 -1.3679
    7bbb     C4  220   3.096   5.045   1.424 -0.0548  1.0019 -0.9403
    7bbb     H7  221   3.003   4.987   1.421 -0.4703  1.4687  1.0972
    7bbb     H8  222   3.078   5.121   1.502 -1.1905 -0.1685 -0.0093
    7bbb     C5  223   2.817   5.112   1.227  0.2080  0.5428  0.9174
    7bbb     H9  224   2.781   5.166   1.315 -2.0208  1.4099 -0.4338
    7bbb    H10  225   2.837   5.008   1.257 -4.4130 -1.0054 -0.5789
    7bbb     C6  226   3.074   5.420   1.430  0.7243  0.3818 -0.8378
    7bbb    H11  227   3.138   5.477   1.361 -0.6658  1.8291 -0.9756
    7bbb    H12  228   3.144   5.363   1.493 -2.3594  0.0013  2.6074
    7bbb     C7  229   3.215   4.953   1.475  0.1840 -0.6812 -0.0163
    7bbb    H13  230   3.233   4.885   1.392  0.4872  0.6689 -1.0892
    7bbb    H14  231   3.181   4.901   1.566  1.5951 -0.2365  0.8032
    7bbb     C8  232   3.011   5.520   1.526 -0.1131 -0.2754  0.2091
    7bbb    H15  233   2.959   5.472   1.610 -0.5138 -0.2199 -0.0050
    7bbb    H16  234   3.096   5.583   1.555  1.2304 -2.0121  0.2196
    7bbb     C9  235   2.697   5.094   1.133 -0.2182 -0.3574 -0.2480
    7bbb    H17  236   2.670   5.194   1.096  0.7566 -0.4554 -1.2735
    7bbb    H18  237   2.605   5.051   1.173 -1.5265  0.8808 -1.7636
    7bbb     O1  238   3.331   5.034   1.516  0.0910  0.4401 -0.2641
    7bbb    H19  239   3.093   5.309   1.186  0.4727 -2.2414 -2.4650
    8bbb     N1  240   4.188   3.258   2.579  0.1665 -0.7114 -0.1375
    8bbb     C1  241   4.261   3.171   2.688  0.7100 -0.3704  0.4818
    8bbb     H1  242   4.292   3.235   2.771 -0.0514  0.0316  0.4628
    8bbb     H2  243   4.359   3.145   2.648  1.3009 -0.7273  2.1079
    8bbb     C2  244   4.067   3.327   2.633 -0.1681  0.3669  0.2754
    8bbb     H3  245   3.990   3.253   2.653  0.1600 -0.3690 -1.0843
    8bbb     H4  246   4.029   3.382   2.547  0.5999 -1.5817 -1.3644
    8bbb     C3  247   4.288   3.365   2.538 -0.3576 -0.7807 -0.8208
    8bbb     H5  248   4.348   3.380   2.628 -1.5514 -0.6346 -0.0167
    8bbb     H6  249   4.224   3.451   2.519 -0.9091 -0.8201  0.7315
    8bbb     C4  250   4.371   3.334   2.413 -0.4123  0.4624 -0.4249
    8bbb     H7  251   4.296   3.291   2.344 -2.1270  0.6359  1.2602
    8bbb     H8  252   4.438   3.250   2.431  1.8934  2.0599 -1.1459
    8bbb     C5  253   4.180   3.048   2.739 -0.1357 -0.7203 -0.1764
    8bbb     H9  254   4.163   2.977   2.657  0.1376 -2.2485  1.0562
    8bbb    H10  255   4.079   3.078   2.769  0.0594 -0.0021 -0.2087
    8bbb     C6  256   4.076   3.421   2.752 -1.0447 -0.0457  0.0378
    8bbb    H11  257   4.161   3.488   2.735  1.6003 -3.0254  0.6692
    8bbb    H12  258   4.110   3.372   2.844  1.2601  0.5677 -0.4273
    8bbb     C7  259   4.453   3.448   2.341 -0.0100  0.3965 -0.0964
    8bbb    H13  260   4.507   3.403   2.257 -1.6427 -2.4401  0.2431
    8bbb    H14  261   4.523   3.498   2.409 -0.3347 -0.7423  1.1113
    8bbb     C8  262   3.947   3.508   2.764  0.0173  0.7758  0.4472
    8bbb    H15  263   3.959   3.584   2.842 -0.2355  0.7834  0.4778
    8bbb    H16  264   3.929   3.548   2.663  0.7851 -1.7137 -0.7624
    8bbb     C9  265   4.258   2.983   2.854 -0.3381 -0.8254 -0.5781
    8bbb    H17  266   4.219   2.885   2.886 -0.2706 -1.2646 -1.7950
    8bbb    H18  267   4.276   3.049   2.939  0.5883  0.3621 -1.6606
    8bbb     O1  268   4.365   3.551   2.292  0.7831 -0.5172 -0.0584
    8bbb    H19  269   4.164   3.201   2.497 -0.5539 -0.4094 -0.1448
    9bbb     N1  270   4.689   3.953   2.849  0.4390 -0.6598  0.0537
    9bbb     C1  271   4.615   4.006   2.965  0.0197 -0.3500 -1.9774
    9bbb     H1  272   4.684   4.026   3.047 -0.3260 -0.7327 -1.5889
    9bbb     H2  273   4.556   3.920   2.997  1.9245 -0.8981  0.3585
    9bbb     C2  274   4.801   3.857   2.885 -0.7351  0.0364 -0.0538
    9bbb     H3  275   4.850   3.914   2.963 -5.3610  2.0637  1.7268
    9bbb     H4  276   4.871   3.851   2.801 -0.1991 -0.3908  0.4151
    9bbb     C3  277   4.583   3.885   2.759  0.5134  0.6871 -0.0086
    9bbb     H5  278   4.504   3.955   2.733 -0.5458 -0.5355 -0.1412
    9bbb     H6  279   4.542   3.804   2.818  0.8227  0.6374  0.1415
    9bbb     C4  280   4.624   3.836   2.616 -0.1946 -0.6144  0.0163
    9bbb     H7  281   4.551   3.758   2.587 -1.7370  0.6378  0.3987
    9bbb     H8  282   4.721   3.786   2.623 -0.2911 -0.5093  3.3876
    9bbb     C5  283   4.526   4.134   2.937  0.0927  0.1966 -0.6721
    9bbb     H9  284   4.449   4.114   2.861  0.0479 -3.1238  0.0794
    9bbb    H10  285   4.589   4.216   2.902 -0.0230 -0.6950 -3.1627
    9bbb     C6  286   4.751   3.725   2.948 -0.0133  0.1122 -0.3736
    9bbb    H11  287   4.710   3.665   2.866  0.5018  0.5055 -0.9247
    9bbb    H12  288   4.680   3.757   3.025  2.2163  3.4297  0.5394
    9bbb     C7  289   4.635   3.947   2.519  0.0178 -0.0935  0.3110
    9bbb    H13  290   4.696   3.917   2.433  0.6673  1.9206  0.0028
    9bbb    H14  291   4.689   4.033   2.561  0.0572 -0.3419  0.7642
    9bbb     C8  292   4.873   3.643   2.997  0.0078 -0.4391 -0.4175
    9bbb    H15  293   4.844   3.541   3.024 -0.3352  0.3456  2.4711
    9bbb    H16  294   4.942   3.635   2.912  0.8037  2.7717 -0.1952
    9bbb     C9  295   4.442   4.181   3.064  0.5060 -0.0033  0.0577
    9bbb    H17  296   4.356   4.118   3.087 -0.4541  1.4144  0.4731
    9bbb    H18  297   4.398   4.281   3.057  0.1324 -0.2218 -0.8543
    9bbb     O1  298   4.506   3.985   2.456 -0.3438 -0.0625 -0.0423
    9bbb    H19  299   4.727   4.033   2.798  0.3017 -1.1555 -0.8543
   10bbb     N1  300   4.093   4.154  -0.821  0.1788  0.1720 -0.3969
   10bbb     C1  301   3.949   4.188  -0.828  0.4045  1.0173  0.6512
   10bbb     H1  302   3.940   4.257  -0.744  2.0441 -0.3067  1.9999
   10bbb     H2  303   3.894   4.096  -0.804  0.6846  1.2881  2.4556
   10bbb     C2  304   4.180   4.270  -0.806  0.6849  0.6426 -0.4122
   10bbb     H3  305   4.221   4.260  -0.705 -3.7090 -1.0219  1.4797
   10bbb     H4  306   4.107   4.351  -0.807 -1.6315 -1.3129 -1.4949
   10bbb     C3  307   4.102   4.075  -0.690 -0.5881 -0.0820  0.2058
   10bbb     H5  308   4.021   4.003  -0.702  0.6962 -1.3166 -1.7358
   10bbb     H6  309   4.085   4.151  -0.614  1.7752  0.3012  0.4438
   10bbb     C4  310   4.241   4.007  -0.663 -0.1548  0.2455  0.4008
   10bbb     H7  311   4.331   4.069  -0.666 -0.2541  0.6188  3.2838
   10bbb     H8  312   4.264   3.940  -0.748 -1.1514  0.5525 -0.1327
   10bbb     C5  313   3.898   4.252  -0.955 -0.2278  0.0505  0.2246
   10bbb     H9  314   3.916   4.188  -1.043  0.1168 -1.2417  1.2119
   10bbb    H10  315   3.948   4.349  -0.968 -3.5993  2.1608  1.6419
   10bbb     C6  316   4.290   4.285  -0.918 -0.1731  0.3306 -0.6316
   10bbb    H11  317   4.378   4.225  -0.890  1.4936  2.8274 -0.1604
   10bbb    H12  318   4.315   4.391  -0.933  1.6016  0.0680  0.1684
   10bbb     C7  319   4.243   3.928  -0.526 -0.1543 -0.5327 -0.4857
   10bbb    H13  320   4.345   3.900  -0.498 -0.1567 -1.5126 -1.3620
   10bbb    H14  321   4.181   3.838  -0.535  1.7167 -1.7974 -1.3894
   10bbb     C8  322   4.242   4.227  -1.051 -0.1659 -0.3686  0.3073
   10bbb    H15  323   4.150   4.278  -1.081 -0.3661  0.9507  2.8822
   10bbb    H16  324   4.311   4.270  -1.124  0.3946  0.2831  1.1892
   10bbb     C9  325   3.746   4.271  -0.954  0.0073 -1.1171  0.0016
   10bbb    H17  326   3.729   4.364  -0.897  0.1827 -1.1354  0.0825
   10bbb    H18  327   3.680   4.196  -0.908 -2.5719  0.2443 -1.2124
   10bbb     O1  328   4.189   4.001  -0.425  0.2909  0.2496  0.1011
   10bbb    H19  329   4.121   4.095  -0.900  1.5640  0.9661 -0.5380
   11bbb     N1  330   4.201   3.215   0.260 -0.8454  0.2344 -0.7303
   11bbb     C1  331   4.099   3.216   0.146 -0.3379 -0.1221 -0.6135
   11bbb     H1  332   4.026   3.287   0.186 -0.7104 -1.4225  1.1176
   11bbb     H2  333   4.050   3.119   0.139  0.3813 -0.5784  0.4478
   11bbb     C2  334   4.325   3.137   0.227 -0.2620  0.2905 -0.7204
   11bbb     H3  335   4.380   3.192   0.150 -1.4501  1.4539 -0.7896
   11bbb     H4  336   4.283   3.045   0.186 -0.9259 -1.4760  3.4223
   11bbb     C3  337   4.240   3.363   0.289  0.1752 -0.0548  0.5995
   11bbb     H5  338   4.289   3.408   0.202 -0.4184  0.8872  0.7422
   11bbb     H6  339   4.315   3.352   0.367 -1.9504  1.3387  2.9543
   11bbb     C4  340   4.122   3.450   0.331 -0.1249  0.6524  0.1896
   11bbb     H7  341   4.063   3.389   0.401 -0.1440  0.1550 -0.2538
   11bbb     H8  342   4.051   3.465   0.249 -0.5123 -0.7433  0.2519
   11bbb     C5  343   4.132   3.247   0.003  0.1010  0.3778 -0.6037
   11bbb     H9  344   4.193   3.164  -0.034  1.1356  1.0848 -0.5238
   11bbb    H10  345   4.186   3.342   0.009 -1.6135  1.3426  1.0979
   11bbb     C6  346   4.429   3.104   0.340  0.3614 -0.9034  0.3594
   11bbb    H11  347   4.388   3.055   0.429  0.4375  0.3678  1.1147
   11bbb    H12  348   4.462   3.204   0.368 -1.5903  0.7916 -2.7978
   11bbb     C7  349   4.159   3.585   0.396 -0.4786 -0.3829  0.0312
   11bbb    H13  350   4.235   3.572   0.474 -0.8497  2.1581  0.9342
   11bbb    H14  351   4.070   3.633   0.440 -0.6188  3.0808 -3.4455
   11bbb     C8  352   4.537   3.010   0.283 -0.8215 -0.0579  0.1314
   11bbb    H15  353   4.559   3.045   0.181  2.4410 -0.4673  0.5732
   11bbb    H16  354   4.632   3.026   0.336 -0.6212 -0.6440 -0.0474
   11bbb     C9  355   4.010   3.264  -0.092 -0.2390  0.3971  0.0341
   11bbb    H17  356   4.053   3.299  -0.186  3.8193 -3.5914  0.0753
   11bbb    H18  357   3.936   3.333  -0.048  0.9630  2.0537 -0.4553
   11bbb     O1  358   4.203   3.691   0.302  0.3732 -0.7571 -0.3982
   11bbb    H19  359   4.150   3.177   0.341  0.3956  1.7409  0.8168
   12bbb     N1  360   5.767   5.564   0.481  0.4400 -0.1713 -0.8608
   12bbb     C1  361   5.628   5.607   0.425  0.2187 -0.1206  0.4203
   12bbb     H1  362   5.626   5.566   0.324  2.9321  1.3481 -0.3102
   12bbb     H2  363   5.644   5.711   0.398 -0.1061 -0.3294 -0.6017
   12bbb     C2  364   5.813   5.640   0.602  0.2313  0.0079  0.4705
   12bbb     H3  365   5.911   5.603   0.633  0.3920 -0.4925 -0.6114
   12bbb     H4  366   5.733   5.609   0.670 -1.9050  1.4917 -1.2158
   12bbb     C3  367   5.763   5.418   0.518  0.8124  0.4729 -0.3844
   12bbb     H5  368   5.674   5.403   0.579  1.6864  0.6718  0.9908
   12bbb     H6  369   5.855   5.402   0.574 -0.2294  0.8116  1.5397
   12bbb     C4  370   5.767   5.325   0.397  0.3863  0.6520 -0.2351
   12bbb     H7  371   5.863   5.324   0.345  0.9450  0.1731  0.7780
   12bbb     H8  372   5.693   5.361   0.325  0.1248  0.8137  0.1117
   12bbb     C5  373   5.498   5.597   0.515 -0.3192 -0.3133  0.1074
   12bbb     H9  374   5.521   5.639   0.614  1.9532 -0.5649 -0.2639
   12bbb    H10  375   5.483   5.491   0.541  1.6435 -0.5182  0.5364
   12bbb     C6  376   5.816   5.801   0.585 -0.4731  0.6209 -0.0483
   12bbb    H11  377   5.723   5.826   0.534 -0.5966 -0.9779 -0.6390
   12bbb    H12  378   5.897   5.819   0.514  0.3981 -0.1451  0.7199
   12bbb     C7  379   5.737   5.168   0.435  0.3371  0.2051  0.7430
   12bbb    H13  380   5.836   5.123   0.446  0.2537  0.2755  1.8098
   12bbb    H14  381   5.698   5.112   0.349  1.2894  1.1565 -0.3527
   12bbb     C8  382   5.830   5.874   0.721  0.6239  0.0071  0.1452
   12bbb    H15  383   5.833   5.982   0.701  0.5853  0.4348  2.1884
   12bbb    H16  384   5.741   5.861   0.784 -0.4974  2.2319 -0.8799
   12bbb     C9  385   5.382   5.665   0.448 -0.0286 -0.3776  0.0942
   12bbb    H17  386   5.402   5.773   0.454 -0.3137 -0.3500  0.5895
   12bbb    H18  387   5.289   5.646   0.503  0.0694  1.1317  0.8327
   12bbb     O1  388   5.655   5.162   0.553  0.2249 -0.0956 -0.4037
   12bbb    H19  389   5.847   5.566   0.416 -0.4589 -2.4856 -2.1492
   13bbb     N1  390   6.005   4.325   0.336  0.0588  0.6865  0.1150
   13bbb     C1  391   6.037   4.175   0.333 -0.5060 -0.0001  0.2903
   13bbb     H1  392   6.144   4.163   0.317 -0.4670  1.2188 -0.4923
   13bbb     H2  393   5.981   4.131   0.251 -0.8264  2.2993 -0.8136
   13bbb     C2  394   6.103   4.391   0.243 -0.2940  0.6026  0.4666
   13bbb     H3  395   6.052   4.485   0.224 -1.5887  0.4928  2.9349
   13bbb     H4  396   6.108   4.327   0.155  1.2935 -1.3162  1.8550
   13bbb     C3  397   5.862   4.350   0.289  0.2895  0.3177  0.2153
   13bbb     H5  398   5.789   4.327   0.366 -0.2858 -0.2874 -0.4973
   13bbb     H6  399   5.835   4.270   0.219  0.5887  0.6313 -0.2672
   13bbb     C4  400   5.819   4.480   0.215  0.3446 -0.1144  0.5719
   13bbb     H7  401   5.867   4.496   0.118 -3.4837 -0.1242 -1.5065
   13bbb     H8  402   5.843   4.569   0.276  0.2518 -0.5638  1.2810
   13bbb     C5  403   5.998   4.090   0.460 -0.2437 -0.3498  1.5024
   13bbb     H9  404   6.005   3.983   0.439 -2.6770 -0.1228 -1.0398
   13bbb    H10  405   5.894   4.117   0.482  0.3380  1.4225  2.2214
   13bbb     C6  406   6.236   4.423   0.313 -0.3400  0.1486  0.5207
   13bbb    H11  407   6.274   4.343   0.377 -0.0806  0.4382  0.7353
   13bbb    H12  408   6.220   4.506   0.383 -1.2229  0.8072 -0.4318
   13bbb     C7  409   5.668   4.464   0.185 -0.2133  0.1060  0.8435
   13bbb    H13  410   5.641   4.360   0.160  0.6464  0.1508 -0.3919
   13bbb    H14  411   5.643   4.523   0.095 -0.1252  0.6956  1.2048
   13bbb     C8  412   6.344   4.473   0.210  0.2052 -0.3840 -0.1376
   13bbb    H15  413   6.312   4.502   0.109  0.4516 -2.2970 -0.8005
   13bbb    H16  414   6.400   4.559   0.250  2.4278 -0.9073 -1.9310
   13bbb     C9  415   6.094   4.127   0.575  0.2681  0.0773 -0.1867
   13bbb    H17  416   6.049   4.080   0.663 -1.1196  1.0995 -0.3371
   13bbb    H18  417   6.093   4.234   0.597 -1.7430  0.5390 -2.1707
   13bbb     O1  418   5.599   4.496   0.301  0.4238 -0.2443 -0.0193
   13bbb    H19  419   6.015   4.362   0.432  1.0458 -2.5279  1.4003
   14bbb     N1  420   3.102   6.155   2.741 -0.0177 -0.3746  0.3324
   14bbb     C1  421   3.170   6.289   2.703 -0.4147  0.1887 -0.2649
   14bbb     H1  422   3.119   6.374   2.750 -0.3850  0.5613 -0.9009
   14bbb     H2  423   3.179   6.298   2.595  4.2533  0.6970 -0.0135
   14bbb     C2  424   2.959   6.158   2.697  1.0162  0.0572  0.9569
   14bbb     H3  425   2.937   6.055   2.669 -0.7860  1.0013 -1.4668
   14bbb     H4  426   2.951   6.218   2.606  0.8528 -0.5295  0.5784
   14bbb     C3  427   3.181   6.041   2.687 -0.1797 -0.2664 -0.3589
   14bbb     H5  428   3.124   5.949   2.701 -0.0472 -0.2882  0.0423
   14bbb     H6  429   3.268   6.026   2.751 -0.6628  0.9182  0.6135
   14bbb     C4  430   3.242   6.040   2.547 -0.1348  0.1788  0.1345
   14bbb     H7  431   3.324   6.113   2.539 -1.1653  1.6015  1.8013
   14bbb     H8  432   3.162   6.071   2.479  0.4878  1.4232 -0.0664
   14bbb     C5  433   3.311   6.299   2.770 -0.0089 -0.2227 -0.5825
   14bbb     H9  434   3.388   6.234   2.725  0.0791  0.9306 -2.1648
   14bbb    H10  435   3.312   6.270   2.876  1.2314  0.7195 -0.3145
   14bbb     C6  436   2.861   6.214   2.810  0.8038  0.0584  0.4309
   14bbb    H11  437   2.900   6.210   2.912  0.4649 -3.2389  0.5611
   14bbb    H12  438   2.770   6.151   2.810  0.1912  0.9332  0.8933
   14bbb     C7  439   3.303   5.900   2.508 -0.2696  0.0670 -0.1726
   14bbb    H13  440   3.360   5.916   2.416 -0.1244  1.3419  0.1092
   14bbb    H14  441   3.215   5.837   2.493 -0.2200 -0.2005  0.6047
   14bbb     C8  442   2.802   6.354   2.776  0.4264 -0.3363 -0.0832
   14bbb    H15  443   2.878   6.432   2.777 -0.0976  0.1993 -0.9188
   14bbb    H16  444   2.752   6.337   2.680 -0.0168  0.1625  0.0561
   14bbb     C9  445   3.350   6.445   2.782  0.3067 -0.0106  0.3167
   14bbb    H17  446   3.450   6.449   2.828  0.3238 -0.2892  0.3063
   14bbb    H18  447   3.275   6.498   2.842  1.9666  2.0986  0.6765
   14bbb     O1  448   3.386   5.849   2.616 -0.7843 -0.0079  0.2146
   14bbb    H19  449   3.099   6.143   2.843  1.2242 -2.5678  0.1843
   15bbb     N1  450   3.060   5.558   3.364  0.5150 -0.3328 -0.4628
   15bbb     C1  451   3.020   5.490   3.497 -0.2638  0.7340  1.0837
   15bbb     H1  452   3.022   5.579   3.560 -0.2017  1.0808  0.5951
   15bbb     H2  453   3.099   5.425   3.535  1.2355  0.7617 -1.7676
   15bbb     C2  454   3.180   5.647   3.400 -0.0700  0.2112  0.6087
   15bbb     H3  455   3.269   5.599   3.360 -0.2152  0.5445 -0.1381
   15bbb     H4  456   3.178   5.655   3.508  0.9347 -0.5413  0.6938
   15bbb     C3  457   3.102   5.435   3.277 -0.1273 -0.1555 -0.4904
   15bbb     H5  458   3.010   5.376   3.270  0.4596 -1.0644 -0.7739
   15bbb     H6  459   3.171   5.378   3.341 -0.0017  0.6370  0.0947
   15bbb     C4  460   3.165   5.455   3.142 -0.1248  0.1889  0.0708
   15bbb     H7  461   3.236   5.538   3.150 -0.7683  0.6543  1.2259
   15bbb     H8  462   3.089   5.474   3.065  0.8377 -1.1110 -1.2676
   15bbb     C5  463   2.882   5.424   3.503 -0.6958 -0.6653  0.2967
   15bbb     H9  464   2.878   5.370   3.598 -3.1891 -1.8230 -0.3849
   15bbb    H10  465   2.865   5.353   3.421 -1.5516  0.5552 -0.6260
   15bbb     C6  466   3.167   5.790   3.335 -0.3492 -0.4383  0.2745
   15bbb    H11  467   3.078   5.848   3.360 -1.0308 -1.7124  0.8719
   15bbb    H12  468   3.147   5.784   3.227 -2.3749 -0.1256  0.6006
   15bbb     C7  469   3.229   5.318   3.099  0.3852 -0.0165 -0.2544
   15bbb    H13  470   3.150   5.243   3.106  0.6997 -0.2010  3.8006
   15bbb    H14  471   3.309   5.296   3.170 -2.0400 -1.8378  2.1094
   15bbb     C8  472   3.302   5.867   3.344  0.2367 -0.3041 -0.5535
   15bbb    H15  473   3.366   5.820   3.268 -2.7289 -2.5730 -1.8782
   15bbb    H16  474   3.344   5.850   3.444 -0.0096 -3.0607 -0.8407
   15bbb     C9  475   2.764   5.530   3.518 -0.5653  0.0370 -0.0206
   15bbb    H17  476   2.776   5.592   3.428  3.4005 -0.7125 -0.2234
   15bbb    H18  477   2.664   5.486   3.512  0.4155 -2.1202 -2.2605
   15bbb     O1  478   3.271   5.335   2.962  0.2294  0.1805  0.2854
   15bbb    H19  479   2.987   5.615   3.320  0.0014  2.1214  3.1535
   16bbb     N1  480   2.701   5.937   1.252 -0.0536  0.0314 -0.4248
   16bbb     C1  481   2.685   6.072   1.322 -0.3439 -0.2684 -0.1274
   16bbb     H1  482   2.680   6.146   1.243 -0.6851 -0.5831 -0.4049
   16bbb     H2  483   2.770   6.086   1.389 -0.5765 -1.7525  0.5169
   16bbb     C2  484   2.824   5.954   1.167  0.1747 -0.2745  0.7353
   16bbb     H3  485   2.891   5.869   1.182 -1.2770 -1.4231  0.9044
   16bbb     H4  486   2.874   6.043   1.207 -0.0958  0.2691 -0.1082
   16bbb     C3  487   2.712   5.814   1.354  0.2365 -0.2801  0.2559
   16bbb     H5  488   2.735   5.720   1.305 -1.0324  0.1012 -1.1743
   16bbb     H6  489   2.614   5.802   1.400  1.2134  1.1734  2.9239
   16bbb     C4  490   2.820   5.819   1.464  0.0512  0.1668  0.4791
   16bbb     H7  491   2.802   5.900   1.535  1.0475 -1.0979  2.2512
   16bbb     H8  492   2.913   5.847   1.413  0.8610 -0.8645  1.3344
   16bbb     C5  493   2.554   6.074   1.404  0.0492 -0.1480  0.5747
   16bbb     H9  494   2.555   6.170   1.457  2.2184  0.1208  0.1729
   16bbb    H10  495   2.570   5.993   1.476  1.4530 -0.6622 -0.2605
   16bbb     C6  496   2.795   5.987   1.016 -0.5673 -0.1971 -0.2117
   16bbb    H11  497   2.749   5.898   0.970  0.0490 -0.5635 -0.1380
   16bbb    H12  498   2.885   6.003   0.956  0.4962 -2.1064  0.7803
   16bbb     C7  499   2.847   5.688   1.538 -0.0288 -0.4521  0.2839
   16bbb    H13  500   2.759   5.635   1.578  1.1807 -4.2881 -1.6313
   16bbb    H14  501   2.906   5.715   1.626 -0.1454  1.1820 -0.0995
   16bbb     C8  502   2.693   6.101   1.002 -0.6333  0.2331  0.5587
   16bbb    H15  503   2.672   6.117   0.896  1.8448 -0.1078 -0.0413
   16bbb    H16  504   2.599   6.059   1.041  0.3062 -0.0339  2.6929
   16bbb     C9  505   2.429   6.046   1.316 -0.5129 -0.1676  0.4868
   16bbb    H17  506   2.429   5.938   1.294  0.9499 -0.2466  0.7947
   16bbb    H18  507   2.442   6.100   1.221  0.4841  0.4462  0.9715
   16bbb     O1  508   2.923   5.604   1.449 -0.7514  0.3050 -0.5194
   16bbb    H19  509   2.618   5.919   1.194 -0.4056 -0.4085  0.2030
   17bbb     N1  510   2.676   4.765   0.587  0.3122  0.6202  0.0301
   17bbb     C1  511   2.551   4.734   0.500  0.6248 -0.0019  0.2609
   17bbb     H1  512   2.576   4.674   0.412 -1.2082  0.1336 -0.3877
   17bbb     H2  513   2.514   4.829   0.462  2.0087  0.4008 -0.1512
   17bbb     C2  514   2.778   4.826   0.496  0.2737  0.3758  0.0055
   17bbb     H3  515   2.860   4.875   0.549  0.1656  1.4588 -0.7868
   17bbb     H4  516   2.727   4.897   0.431  0.4088 -1.0251 -1.7439
   17bbb     C3  517   2.647   4.869   0.693  0.3714 -1.2809  0.4088
   17bbb     H5  518   2.541   4.891   0.709  1.2076  2.7826  1.2760
   17bbb     H6  519   2.680   4.966   0.656  1.1758 -1.4676  0.6274
   17bbb     C4  520   2.697   4.853   0.837  0.8678 -0.2382 -0.2184
   17bbb     H7  521   2.806   4.860   0.845  0.8716 -0.3793 -0.1399
   17bbb     H8  522   2.667   4.752   0.870 -3.9938  1.0157 -0.0019
   17bbb     C5  523   2.441   4.655   0.574  0.0153  0.1323  0.3522
   17bbb     H9  524   2.414   4.707   0.667 -0.4170 -0.0361  0.3214
   17bbb    H10  525   2.475   4.557   0.609 -1.6325  0.0512  1.8603
   17bbb     C6  526   2.837   4.732   0.386 -0.0534  0.2846 -1.2594
   17bbb    H11  527   2.756   4.670   0.345 -0.3531 -2.2168  2.6013
   17bbb    H12  528   2.904   4.654   0.424 -2.1526 -1.2752 -0.5439
   17bbb     C7  529   2.636   4.963   0.933 -0.5619  0.7675 -0.1895
   17bbb    H13  530   2.557   4.914   0.993  1.9127 -1.6959  1.3253
   17bbb    H14  531   2.600   5.041   0.865 -1.8796 -0.4134 -0.9114
   17bbb     C8  532   2.921   4.806   0.277 -0.4601 -0.1287  0.0423
   17bbb    H15  533   2.960   4.727   0.211  2.1229  0.8584  0.2471
   17bbb    H16  534   2.862   4.871   0.213 -1.5128 -2.4422 -1.4758
   17bbb     C9  535   2.326   4.639   0.473 -0.2093 -0.3608  0.5324
   17bbb    H17  536   2.252   4.575   0.522  0.4710 -1.5318  0.0790
   17bbb    H18  537   2.353   4.581   0.383 -0.1548  0.1794  0.1943
   17bbb     O1  538   2.739   5.018   1.022 -0.4141  0.3762 -0.4194
   17bbb    H19  539   2.720   4.682   0.630  0.2959  0.9123  0.6268
   18bbb     N1  540   3.461   3.193   2.853 -0.5082  0.0820 -0.0777
   18bbb     C1  541   3.350   3.238   2.769 -0.1575 -0.4106 -0.2982
   18bbb     H1  542   3.290   3.149   2.748  1.1613 -0.6136 -3.9954
   18bbb     H2  543   3.385   3.284   2.676 -2.5931  2.5043  0.0389
   18bbb     C2  544   3.502   3.052   2.805 -0.0369  0.3714 -0.5321
   18bbb     H3  545   3.586   3.014   2.863 -1.2361  1.9486  2.4892
   18bbb     H4  546   3.529   3.060   2.700 -1.3067 -1.5041 -1.0591
   18bbb     C3  547   3.585   3.288   2.834 -0.1384 -0.2361  0.4525
   18bbb     H5  548   3.529   3.378   2.858 -2.7857 -1.3686 -1.0962
   18bbb     H6  549   3.633   3.281   2.736  0.4973 -1.4066  0.8289
   18bbb     C4  550   3.697   3.271   2.937  0.7125 -0.1260  0.1419
   18bbb     H7  551   3.741   3.172   2.920  0.8704 -0.1191  0.5215
   18bbb     H8  552   3.650   3.270   3.036 -0.3483  1.1221 -0.3141
   18bbb     C5  553   3.254   3.321   2.841  0.2400 -0.3018  0.6721
   18bbb     H9  554   3.288   3.423   2.860 -0.9744  0.1743  0.3495
   18bbb    H10  555   3.234   3.278   2.940 -1.1731  0.2151  0.6308
   18bbb     C6  556   3.393   2.939   2.815  0.1241 -0.3864 -0.5473
   18bbb    H11  557   3.306   2.975   2.872  2.0661 -0.4238  2.7206
   18bbb    H12  558   3.433   2.865   2.886 -0.1823 -1.1423 -1.1507
   18bbb     C7  559   3.805   3.383   2.928  0.0984  0.0759 -0.0416
   18bbb    H13  560   3.896   3.349   2.979 -1.1037 -2.7161  0.4014
   18bbb    H14  561   3.762   3.474   2.973  1.5042  0.4844  0.5239
   18bbb     C8  562   3.359   2.883   2.678 -0.4110  0.0155  0.1615
   18bbb    H15  563   3.312   2.958   2.613 -1.5086 -0.2702  0.5895
   18bbb    H16  564   3.452   2.846   2.634  1.3448  1.4374  2.4750
   18bbb     C9  565   3.118   3.332   2.775  0.7946 -0.5544  0.5501
   18bbb    H17  566   3.060   3.400   2.839  0.7361 -0.6698  0.6198
   18bbb    H18  567   3.077   3.231   2.783 -2.3139  0.4223 -1.2144
   18bbb     O1  568   3.839   3.414   2.793 -0.3773 -0.3903  0.9119
   18bbb    H19  569   3.434   3.193   2.952  0.8777  2.3555  0.3502
   19bbb     N1  570   4.457   2.584   2.983 -0.1290 -1.0005  0.1065
   19bbb     C1  571   4.577   2.656   3.037  0.1098 -0.3047 -0.9309
   19bbb     H1  572   4.646   2.683   2.957  1.1211  0.9061  0.2793
   19bbb     H2  573   4.630   2.586   3.103  0.5269  0.8425 -0.0090
   19bbb     C2  574   4.355   2.539   3.082 -0.2332  0.5521 -1.0289
   19bbb     H3  575   4.264   2.528   3.022 -0.0786 -0.0244 -1.1640
   19bbb     H4  576   4.330   2.611   3.160 -1.9505 -2.1675  1.1594
   19bbb     C3  577   4.384   2.676   2.893  0.0725 -0.2401  0.0562
   19bbb     H5  578   4.346   2.758   2.955 -0.9292 -1.1721  0.7071
   19bbb     H6  579   4.292   2.628   2.862 -0.5767  1.2098 -0.3799
   19bbb     C4  580   4.467   2.725   2.762 -0.0785  0.2249  0.9343
   19bbb     H7  581   4.492   2.641   2.696 -0.1767  0.6582  0.3296
   19bbb     H8  582   4.567   2.767   2.779 -0.0365  1.3711 -1.5756
   19bbb     C5  583   4.556   2.772   3.128  0.1634 -0.5574 -0.2148
   19bbb     H9  584   4.459   2.820   3.110  0.9518  2.3198  2.4611
   19bbb    H10  585   4.634   2.837   3.088 -0.8963  0.7469 -0.2320
   19bbb     C6  586   4.384   2.403   3.150 -0.4186 -0.3281 -0.4358
   19bbb    H11  587   4.293   2.361   3.193  0.3329 -1.8673 -0.2825
   19bbb    H12  588   4.443   2.425   3.240 -2.1141 -0.4712  0.7596
   19bbb     C7  589   4.397   2.847   2.696  0.2729 -0.7606 -0.0057
   19bbb    H13  590   4.300   2.809   2.662  0.4301 -2.2894  1.1111
   19bbb    H14  591   4.450   2.873   2.604  3.2466 -0.5166  1.6488
   19bbb     C8  592   4.460   2.296   3.058 -0.3028  0.1271  0.3897
   19bbb    H15  593   4.570   2.305   3.062 -0.1864 -1.0111  0.2464
   19bbb    H16  594   4.427   2.196   3.088 -2.4970  0.8478  0.5061
   19bbb     C9  595   4.578   2.748   3.282 -0.2364 -0.0918  0.3592
   19bbb    H17  596   4.497   2.682   3.315 -1.1397  0.5275 -0.5370
   19bbb    H18  597   4.564   2.837   3.344 -1.6107 -1.6565  2.4238
   19bbb     O1  598   4.395   2.959   2.793 -0.6013  0.1986  0.0005
   19bbb    H19  599   4.496   2.502   2.935  1.2787 -0.0576 -0.4224
   20bbb     N1  600   5.338   3.787   3.408 -0.5351  0.8737  0.0190
   20bbb     C1  601   5.485   3.795   3.394 -0.6821  0.2053  0.0459
   20bbb     H1  602   5.512   3.843   3.488 -0.9877  1.7568 -0.6349
   20bbb     H2  603   5.498   3.866   3.312  0.1010 -0.2191 -0.2126
   20bbb     C2  604   5.288   3.926   3.431 -0.3417 -0.1145 -0.1836
   20bbb     H3  605   5.180   3.909   3.435  0.0346 -2.9772  0.2605
   20bbb     H4  606   5.327   3.988   3.350  0.4597 -1.8597 -1.1967
   20bbb     C3  607   5.281   3.746   3.268  0.6427  0.5197 -0.4299
   20bbb     H5  608   5.326   3.649   3.242  0.6611 -0.0400  1.5370
   20bbb     H6  609   5.321   3.816   3.194 -0.1648  0.4778 -0.9130
   20bbb     C4  610   5.131   3.743   3.257  0.3950 -0.1486 -0.0441
   20bbb     H7  611   5.084   3.839   3.283 -0.4069 -0.4413 -0.3985
   20bbb     H8  612   5.097   3.669   3.330  0.5010 -0.6325 -0.4846
   20bbb     C5  613   5.568   3.666   3.381 -0.2009 -0.2592  0.1781
   20bbb     H9  614   5.587   3.646   3.274  4.1689  0.5717  0.6294
   20bbb    H10  615   5.513   3.583   3.426  0.9314 -0.9155  0.3951
   20bbb     C6  616   5.327   3.990   3.565  0.2132 -0.3393 -0.1838
   20bbb    H11  617   5.286   4.092   3.569  0.8538 -0.1153  1.3712
   20bbb    H12  618   5.434   4.007   3.579 -0.0948 -0.7079  3.8415
   20bbb     C7  619   5.079   3.696   3.119 -0.2687  0.1135 -0.1866
   20bbb    H13  620   5.112   3.592   3.109 -1.1928 -0.2747  0.6085
   20bbb    H14  621   5.137   3.752   3.044  1.0294  1.7782  1.9384
   20bbb     C8  622   5.273   3.923   3.689 -0.4708  0.1979  0.1542
   20bbb    H15  623   5.271   3.997   3.769 -0.1547 -1.0268  1.3196
   20bbb    H16  624   5.172   3.883   3.673 -0.1423 -0.8555  0.5916
   20bbb     C9  625   5.699   3.686   3.454  0.1089  0.1559 -0.2626
   20bbb    H17  626   5.680   3.689   3.562 -0.3723  0.7291 -0.3563
   20bbb    H18  627   5.744   3.780   3.420 -1.9828  1.5085  0.5365
   20bbb     O1  628   4.931   3.715   3.111  0.1634  0.3099  0.1721
   20bbb    H19  629   5.306   3.723   3.482  2.3083 -2.0616 -1.0423
   21bbb     N1  630   4.556   4.443   3.453 -0.6467  0.5803 -0.5398
   21bbb     C1  631   4.436   4.425   3.374  0.4683 -0.0006 -0.0950
   21bbb     H1  632   4.368   4.358   3.427  1.0356 -0.5851 -0.0924
   21bbb     H2  633   4.458   4.375   3.280 -1.9150  1.7060 -1.6841
   21bbb     C2  634   4.534   4.448   3.600 -0.7532 -0.3767  0.3962
   21bbb     H3  635   4.526   4.349   3.646  1.4627 -0.4803  0.6644
   21bbb     H4  636   4.436   4.494   3.619 -0.8983  0.0682 -1.2864
   21bbb     C3  637   4.643   4.313   3.428 -0.2918  0.3382 -0.1495
   21bbb     H5  638   4.575   4.229   3.441  1.6787 -0.9778  2.6505
   21bbb     H6  639   4.706   4.306   3.517  0.0877  1.0040 -0.3624
   21bbb     C4  640   4.730   4.284   3.308  0.1171 -0.5105  0.4804
   21bbb     H7  641   4.783   4.190   3.321  2.0727  0.5308  0.3941
   21bbb     H8  642   4.812   4.357   3.306  1.8889 -2.4406  0.6432
   21bbb     C5  643   4.354   4.550   3.343  0.1041  0.3043  0.0847
   21bbb     H9  644   4.311   4.592   3.435 -1.2756  1.0308 -0.8561
   21bbb    H10  645   4.271   4.510   3.283  0.1385 -3.0787  2.0039
   21bbb     C6  646   4.630   4.532   3.693 -0.7738 -0.1952  0.7036
   21bbb    H11  647   4.735   4.502   3.686 -0.6785  0.5414 -3.3454
   21bbb    H12  648   4.601   4.511   3.797 -0.5039 -0.9622  0.6237
   21bbb     C7  649   4.648   4.279   3.175 -0.7440 -0.2968 -0.1665
   21bbb    H13  650   4.708   4.251   3.088  0.9423  3.7883 -0.5002
   21bbb    H14  651   4.611   4.380   3.157 -0.5726 -0.0332  0.9001
   21bbb     C8  652   4.616   4.684   3.668  0.4932  0.1297  0.5352
   21bbb    H15  653   4.670   4.743   3.743 -0.9385 -0.0671  1.7962
   21bbb    H16  654   4.660   4.715   3.573 -1.0240 -1.1344 -0.6286
   21bbb     C9  655   4.429   4.650   3.257  0.0521 -0.1636 -0.7044
   21bbb    H17  656   4.368   4.741   3.246  0.5149  0.2969  0.4117
   21bbb    H18  657   4.441   4.604   3.158  0.7930 -0.3511 -0.5338
   21bbb     O1  658   4.534   4.192   3.183  0.6145  0.7071 -0.2123
   21bbb    H19  659   4.597   4.530   3.417 -3.0821  2.4128  0.8753
   22bbb     N1  660   4.468   3.926  -1.224 -0.2331 -0.4170  0.6901
   22bbb     C1  661   4.506   3.898  -1.083  0.5770  0.5964 -0.7046
   22bbb     H1  662   4.511   3.790  -1.076  2.5744  0.7086  0.4300
   22bbb     H2  663   4.417   3.924  -1.026  0.1145 -0.5600 -0.8808
   22bbb     C2  664   4.577   3.882  -1.319 -0.1243 -0.4255  0.1044
   22bbb     H3  665   4.571   3.775  -1.339  1.1356 -0.2223 -1.6060
   22bbb     H4  666   4.669   3.912  -1.268  0.5877 -1.2012 -0.6798
   22bbb     C3  667   4.347   3.851  -1.272  0.3982 -0.2584 -0.4122
   22bbb     H5  668   4.375   3.745  -1.267  0.0498 -0.3335  0.0295
   22bbb     H6  669   4.329   3.859  -1.379 -1.6268  0.2258 -0.0878
   22bbb     C4  670   4.212   3.877  -1.188 -0.6904 -0.1332 -0.0265
   22bbb     H7  671   4.219   3.842  -1.084  2.4833 -1.4067 -0.5722
   22bbb     H8  672   4.121   3.826  -1.222  1.5394 -4.2619 -0.4250
   22bbb     C5  673   4.627   3.976  -1.029 -0.3662  0.7820  0.3815
   22bbb     H9  674   4.594   4.080  -1.029 -1.4634  0.6242  4.5350
   22bbb    H10  675   4.715   3.962  -1.093  0.4624  2.1375  1.1801
   22bbb     C6  676   4.584   3.952  -1.457 -0.1131  1.0140 -0.5719
   22bbb    H11  677   4.601   4.060  -1.448  2.4280  0.5579  1.5151
   22bbb    H12  678   4.490   3.938  -1.512 -2.4154 -0.1853  3.2820
   22bbb     C7  679   4.185   4.028  -1.178 -0.0454  0.2005  0.1728
   22bbb    H13  680   4.076   4.037  -1.177 -0.0580  0.3312 -1.1863
   22bbb    H14  681   4.224   4.083  -1.264  1.6766 -1.0597  0.1077
   22bbb     C8  682   4.707   3.892  -1.530 -0.7460  0.1776  0.1615
   22bbb    H15  683   4.705   3.932  -1.632 -4.4029 -1.5915 -0.6217
   22bbb    H16  684   4.798   3.937  -1.490  1.1953 -1.8654 -1.6960
   22bbb     C9  685   4.667   3.941  -0.890  0.4208  0.5215  0.6407
   22bbb    H17  686   4.702   3.837  -0.893  1.2262  0.7783  0.9395
   22bbb    H18  687   4.580   3.954  -0.824  0.7073  2.3359  0.6951
   22bbb     O1  688   4.236   4.080  -1.054  0.2736  0.1386 -0.3221
   22bbb    H19  689   4.466   4.029  -1.229  0.6665 -0.4083  0.3453
   23bbb     N1  690   3.463   4.233  -1.457 -0.0851 -0.7560 -0.0742
   23bbb     C1  691   3.470   4.095  -1.510  0.4144 -0.3983 -0.0063
   23bbb     H1  692   3.392   4.091  -1.587 -0.7816 -0.8150  1.1944
   23bbb     H2  693   3.427   4.029  -1.435 -0.5466  0.5162  0.2744
   23bbb     C2  694   3.319   4.270  -1.433  0.7814 -0.0106 -0.0544
   23bbb     H3  695   3.313   4.351  -1.360 -1.3204  0.0824 -0.2781
   23bbb     H4  696   3.274   4.183  -1.385  1.7245  0.4299  1.7151
   23bbb     C3  697   3.533   4.220  -1.323 -0.0598 -0.5227 -0.2665
   23bbb     H5  698   3.627   4.166  -1.331 -0.0989 -1.0133  1.9655
   23bbb     H6  699   3.473   4.158  -1.256 -1.1772  1.1235  0.3549
   23bbb     C4  700   3.553   4.358  -1.254  0.1436  0.1873  0.1237
   23bbb     H7  701   3.464   4.420  -1.269  0.3445  0.7744  1.2383
   23bbb     H8  702   3.631   4.410  -1.311 -1.6689  0.0387 -2.7184
   23bbb     C5  703   3.606   4.045  -1.576 -0.2067 -0.5605  0.3408
   23bbb     H9  704   3.689   4.028  -1.505  0.5303  0.0496 -0.3537
   23bbb    H10  705   3.641   4.118  -1.650  1.0532 -1.7909 -0.3224
   23bbb     C6  706   3.234   4.318  -1.558  0.3935  0.1228 -0.4603
   23bbb    H11  707   3.128   4.331  -1.536 -0.0723 -2.2417 -0.9478
   23bbb    H12  708   3.232   4.243  -1.639  2.4032  1.2625 -1.6472
   23bbb     C7  709   3.591   4.353  -1.107 -0.1072 -0.0670  0.0263
   23bbb    H13  710   3.517   4.308  -1.040  0.4222  0.8503  1.2804
   23bbb    H14  711   3.619   4.455  -1.078  0.5393 -0.9346  2.7849
   23bbb     C8  712   3.300   4.436  -1.627 -0.4088 -0.0586 -1.4390
   23bbb    H15  713   3.396   4.404  -1.668 -0.3352  0.4627 -1.6860
   23bbb    H16  714   3.238   4.477  -1.708  1.7268  1.1984 -2.5211
   23bbb     C9  715   3.602   3.912  -1.646 -0.1011 -0.2458  0.3400
   23bbb    H17  716   3.576   3.834  -1.573 -2.5450  0.0370 -0.1279
   23bbb    H18  717   3.702   3.892  -1.685 -0.9324 -3.3700 -0.4463
   23bbb     O1  718   3.706   4.276  -1.097 -0.6237 -0.3717  0.3439
   23bbb    H19  719   3.506   4.306  -1.516 -0.4033  0.6697  1.3696
   24bbb     N1  720   4.508   2.487   0.486 -0.0881  0.2618  0.2333
   24bbb     C1  721   4.506   2.485   0.645  0.4525 -0.7724  0.1122
   24bbb     H1  722   4.494   2.384   0.684  2.4497 -0.8233  0.7095
   24bbb     H2  723   4.419   2.545   0.674 -0.0755 -0.9266 -1.1004
   24bbb     C2  724   4.387   2.415   0.433 -0.2106  0.3129  0.3832
   24bbb     H3  725   4.345   2.476   0.353 -0.5969 -1.5138 -0.8731
   24bbb     H4  726   4.320   2.395   0.517  2.2074 -0.5816  2.2234
   24bbb     C3  727   4.520   2.633   0.439  0.4642  0.2047  0.2675
   24bbb     H5  728   4.601   2.683   0.492  0.2935 -0.0943  0.8156
   24bbb     H6  729   4.434   2.697   0.458 -0.9432 -0.5983 -2.6758
   24bbb     C4  730   4.561   2.645   0.290 -0.5169 -0.4230 -0.6684
   24bbb     H7  731   4.472   2.618   0.232 -1.0998 -0.9131  0.4123
   24bbb     H8  732   4.637   2.573   0.259 -1.1947 -0.5646 -2.0472
   24bbb     C5  733   4.641   2.526   0.705  0.3183  0.3121 -0.3812
   24bbb     H9  734   4.656   2.633   0.683 -2.3467  0.8214 -0.0645
   24bbb    H10  735   4.728   2.470   0.669 -0.8532 -1.2203 -0.9527
   24bbb     C6  736   4.419   2.283   0.355  0.2018 -0.4570 -0.0735
   24bbb    H11  737   4.457   2.207   0.425 -0.6411  0.7990  1.7986
   24bbb    H12  738   4.501   2.309   0.287  1.2400 -0.2680  1.2154
   24bbb     C7  739   4.605   2.788   0.264  0.1434 -0.1025  0.4995
   24bbb    H13  740   4.649   2.799   0.164 -0.8889 -0.0550  0.0381
   24bbb    H14  741   4.688   2.814   0.331 -0.3165  1.3405  0.5344
   24bbb     C8  742   4.299   2.227   0.269  0.7277 -0.6559 -0.3984
   24bbb    H15  743   4.262   2.311   0.208  0.4690 -0.5966 -0.1597
   24bbb    H16  744   4.326   2.142   0.206 -0.2513 -0.7156 -0.7527
   24bbb     C9  745   4.644   2.499   0.856 -0.0014  0.3073  1.0230
   24bbb    H17  746   4.557   2.544   0.906 -2.1951 -1.3926 -1.0594
   24bbb    H18  747   4.733   2.553   0.892  2.4900 -1.3226 -2.1196
   24bbb     O1  748   4.496   2.876   0.277 -0.4528 -0.9284 -0.0212
   24bbb    H19  749   4.590   2.429   0.462 -0.6657 -0.7537  0.6160
   25bbb     N1  750   3.837   2.756  -0.302  0.5130  0.1386  0.1796
   25bbb     C1  751   3.898   2.695  -0.431  0.2419  0.4127  0.8020
   25bbb     H1  752   3.923   2.595  -0.396  0.2313  0.1133 -0.0205
   25bbb     H2  753   3.988   2.751  -0.461  1.2348 -1.3141  0.4230
   25bbb     C2  754   3.905   2.703  -0.184 -0.5474 -0.1315 -0.2454
   25bbb     H3  755   3.858   2.736  -0.091  2.1601 -0.7186  1.4498
   25bbb     H4  756   4.008   2.739  -0.188 -0.4699  0.4557  3.3929
   25bbb     C3  757   3.847   2.909  -0.304  0.1473  0.1304  0.2363
   25bbb     H5  758   3.806   2.950  -0.396  1.3809  1.6223  0.3012
   25bbb     H6  759   3.953   2.934  -0.302  0.3837 -0.6675 -1.1444
   25bbb     C4  760   3.772   2.982  -0.187 -0.6285 -0.2188  0.4639
   25bbb     H7  761   3.786   2.938  -0.087 -0.9075  0.6912  0.9174
   25bbb     H8  762   3.663   2.977  -0.196 -0.4427 -2.1462 -1.6000
   25bbb     C5  763   3.810   2.681  -0.559 -1.1230 -0.7909 -0.1673
   25bbb     H9  764   3.800   2.781  -0.601 -1.3534 -0.8621 -0.2878
   25bbb    H10  765   3.705   2.659  -0.536 -1.1845  1.8951  2.7294
   25bbb     C6  766   3.902   2.557  -0.167  0.0494 -0.1462 -0.5633
   25bbb    H11  767   3.935   2.542  -0.064  1.3213  1.6768 -0.6609
   25bbb    H12  768   3.977   2.493  -0.214  0.1835 -0.9643  0.7167
   25bbb     C7  769   3.820   3.131  -0.170 -0.4375  0.4235 -0.4238
   25bbb    H13  770   3.756   3.177  -0.094 -0.9717  0.6368 -0.9990
   25bbb    H14  771   3.829   3.191  -0.261  2.0459 -0.6803 -1.0060
   25bbb     C8  772   3.769   2.479  -0.184  0.7267 -0.2714  0.8094
   25bbb    H15  773   3.781   2.416  -0.273 -2.2562  1.4781 -1.0230
   25bbb    H16  774   3.749   2.413  -0.099 -0.8823 -1.1404 -0.1975
   25bbb     C9  775   3.881   2.590  -0.664  0.4567  0.3619  0.1493
   25bbb    H17  776   3.991   2.597  -0.672  0.5348 -1.1425 -0.3427
   25bbb    H18  777   3.844   2.614  -0.764  0.8357 -1.4277 -0.4667
   25bbb     O1  778   3.950   3.138  -0.106  0.2283  0.2828  0.1005
   25bbb    H19  779   3.740   2.722  -0.292  0.5268 -0.3346 -1.0519
   26bbb     N1  780   6.182   6.272   0.876  0.1825 -0.0437 -0.0784
   26bbb     C1  781   6.216   6.278   1.025 -0.2561  0.1506  0.4529
   26bbb     H1  782   6.269   6.372   1.041  0.4194 -0.4166  1.7526
   26bbb     H2  783   6.293   6.201   1.037  0.7354  0.3107 -3.5671
   26bbb     C2  784   6.284   6.355   0.798  0.4703  0.6463  0.6856
   26bbb     H3  785   6.266   6.460   0.824 -1.9788  0.7655 -1.1816
   26bbb     H4  786   6.250   6.338   0.696 -1.0606 -0.4646  1.3431
   26bbb     C3  787   6.186   6.127   0.827 -0.4460 -0.2492 -0.7548
   26bbb     H5  788   6.249   6.072   0.896 -0.3693  1.7772  0.8960
   26bbb     H6  789   6.227   6.141   0.727 -0.2046  2.9210 -0.3164
   26bbb     C4  790   6.058   6.051   0.798  0.1104 -0.3465  0.1483
   26bbb     H7  791   5.989   6.118   0.745 -0.1030 -1.5654 -1.1394
   26bbb     H8  792   6.001   6.041   0.892 -0.9696  2.1878 -0.1522
   26bbb     C5  793   6.100   6.267   1.126 -0.6786 -0.1668  0.3160
   26bbb     H9  794   6.025   6.195   1.092 -0.6834  1.2030 -2.9105
   26bbb    H10  795   6.037   6.356   1.126 -0.5304 -0.0546 -0.4775
   26bbb     C6  796   6.434   6.318   0.812  0.1148 -0.6579  0.2684
   26bbb    H11  797   6.460   6.216   0.779 -0.2585 -0.1729 -1.6196
   26bbb    H12  798   6.458   6.322   0.919  4.4620  0.1592 -0.5467
   26bbb     C7  799   6.060   5.920   0.721 -0.0373 -0.1498  0.0512
   26bbb    H13  800   6.158   5.877   0.748  0.3742  1.0341  0.5264
   26bbb    H14  801   6.051   5.936   0.613  0.7017  0.5532  0.0810
   26bbb     C8  802   6.529   6.425   0.750 -0.5227 -0.4932 -0.7342
   26bbb    H15  803   6.629   6.396   0.784  0.6559  0.6669 -2.9891
   26bbb    H16  804   6.530   6.417   0.641 -0.2975 -1.1169 -0.6862
   26bbb     C9  805   6.145   6.235   1.272  0.4623  0.0505 -0.2026
   26bbb    H17  806   6.207   6.144   1.267  0.4785  0.0106  0.5384
   26bbb    H18  807   6.062   6.213   1.341  0.6818 -0.1514  0.0007
   26bbb     O1  808   5.959   5.835   0.772  0.3256  1.3281 -0.8358
   26bbb    H19  809   6.086   6.304   0.859 -0.0706 -0.1834  0.9996
   27bbb     N1  810   5.247   5.769   0.107 -0.5903 -0.1643 -0.2398
   27bbb     C1  811   5.298   5.825  -0.024  0.1998  0.3636 -0.8341
   27bbb     H1  812   5.324   5.929  -0.007  1.9771  0.1011 -1.7208
   27bbb     H2  813   5.212   5.825  -0.092 -0.4294  2.6731 -0.1146
   27bbb     C2  814   5.148   5.869   0.151  0.3223 -0.0272 -0.7244
   27bbb     H3  815   5.067   5.864   0.078 -0.6877  0.0933  0.3552
   27bbb     H4  816   5.196   5.965   0.134  0.7659 -0.2679 -0.8620
   27bbb     C3  817   5.174   5.640   0.088 -0.5840 -0.4847 -0.1071
   27bbb     H5  818   5.148   5.642  -0.018 -2.1047 -0.8025  0.2488
   27bbb     H6  819   5.082   5.652   0.144 -0.0897  1.5711  0.3546
   27bbb     C4  820   5.251   5.512   0.128 -0.5075 -0.8930  0.4940
   27bbb     H7  821   5.341   5.494   0.068 -0.9510 -0.0951 -0.4360
   27bbb     H8  822   5.177   5.433   0.115 -2.6833  1.0427  0.5167
   27bbb     C5  823   5.414   5.754  -0.089  0.1776 -0.5370 -0.3092
   27bbb     H9  824   5.396   5.649  -0.113  0.7153 -1.0354  1.3621
   27bbb    H10  825   5.495   5.755  -0.015  1.2542  0.1861 -1.4467
   27bbb     C6  826   5.079   5.862   0.287  0.4168  0.3740 -0.2225
   27bbb    H11  827   5.159   5.852   0.361  2.2579  1.7846 -1.9118
   27bbb    H12  828   5.007   5.781   0.304  0.3683  0.5223  0.3153
   27bbb     C7  829   5.305   5.506   0.272 -0.8786 -0.2001 -1.2286
   27bbb    H13  830   5.368   5.417   0.280 -0.6034  0.0873 -0.0538
   27bbb    H14  831   5.220   5.486   0.339  0.2312  0.1776  0.3460
   27bbb     C8  832   5.010   5.997   0.331  0.3404  0.3059 -0.2916
   27bbb    H15  833   5.077   6.083   0.345  1.3732 -0.6288  0.6599
   27bbb    H16  834   4.965   5.981   0.430 -2.3390  0.6910 -1.3774
   27bbb     C9  835   5.466   5.843  -0.210 -0.3925 -0.0315  0.2231
   27bbb    H17  836   5.551   5.795  -0.261 -1.3044 -0.2871 -1.1022
   27bbb    H18  837   5.374   5.852  -0.269 -1.0958 -1.4649  1.0435
   27bbb     O1  838   5.374   5.629   0.316  0.2718 -0.0067  0.6185
   27bbb    H19  839   5.310   5.764   0.189 -1.2655 -0.0570  0.2928
   28bbb     N1  840   6.744   4.049   0.118  0.4937 -0.3059 -0.2109
   28bbb     C1  841   6.791   3.967   0.238  0.3707  0.5546 -0.6205
   28bbb     H1  842   6.802   3.862   0.210 -0.8830  0.5953 -1.3394
   28bbb     H2  843   6.718   3.982   0.317 -0.2941  1.7039 -1.4344
   28bbb     C2  844   6.679   3.949   0.015 -0.1637 -0.7744 -1.3305
   28bbb     H3  845   6.632   4.005  -0.066 -0.5166  1.0986  0.0898
   28bbb     H4  846   6.595   3.890   0.052 -0.1947  0.5833  1.0161
   28bbb     C3  847   6.647   4.160   0.164 -0.3794 -0.2218  0.4154
   28bbb     H5  848   6.680   4.196   0.262 -0.1799  1.6739 -0.3147
   28bbb     H6  849   6.552   4.106   0.176  1.2982 -3.5275 -0.0610
   28bbb     C4  850   6.643   4.281   0.070  0.3154  0.0172  1.3708
   28bbb     H7  851   6.592   4.248  -0.021  1.5736  0.9148  0.2942
   28bbb     H8  852   6.744   4.318   0.046 -0.1341  0.8946  0.7728
   28bbb     C5  853   6.933   4.016   0.297  0.5590 -0.1624  0.0841
   28bbb     H9  854   6.976   3.929   0.348  0.5399  0.0117  0.3961
   28bbb    H10  855   6.930   4.100   0.367 -0.4443  0.4266 -0.6347
   28bbb     C6  856   6.776   3.853  -0.052  0.0659  0.1466 -0.2178
   28bbb    H11  857   6.817   3.784   0.023 -2.0039 -0.8489  0.0576
   28bbb    H12  858   6.855   3.918  -0.092 -1.6460  2.8851  0.5750
   28bbb     C7  859   6.565   4.397   0.119 -0.3141 -0.1748  0.3287
   28bbb    H13  860   6.550   4.466   0.034  0.1180  2.2471  2.0904
   28bbb    H14  861   6.636   4.441   0.191  0.8858 -1.8898  0.2430
   28bbb     C8  862   6.700   3.777  -0.160 -0.6638 -0.4047 -0.0031
   28bbb    H15  863   6.767   3.699  -0.198 -0.3360  0.6423 -1.7010
   28bbb    H16  864   6.622   3.726  -0.102 -0.9418  2.4763  2.4342
   28bbb     C9  865   7.025   4.043   0.181  0.3844 -0.2306  0.0807
   28bbb    H17  866   7.020   3.976   0.094 -0.1753 -0.0697 -0.0174
   28bbb    H18  867   7.126   4.043   0.223 -0.4427 -1.9155  2.3308
   28bbb     O1  868   6.441   4.368   0.196  0.0536  0.1221  0.5690
   28bbb    H19  869   6.822   4.101   0.076  1.8449 -0.1024  2.3530
   29bbb     N1  870   6.635   3.929   0.823 -0.5688  0.1218 -0.4820
   29bbb     C1  871   6.766   3.991   0.884  0.5490 -0.5218  0.3571
   29bbb     H1  872   6.804   3.920   0.957 -1.0256 -1.6847  0.1014
   29bbb     H2  873   6.727   4.084   0.924 -2.6741 -0.4756 -2.3939
   29bbb     C2  874   6.561   3.828   0.915  0.3782 -0.4233  0.5257
   29bbb     H3  875   6.473   3.788   0.864 -0.0456 -0.2106  1.0843
   29bbb     H4  876   6.537   3.888   1.002 -1.1815 -0.9462  0.4905
   29bbb     C3  877   6.545   4.040   0.776  0.2719  0.1236 -0.4110
   29bbb     H5  878   6.602   4.129   0.746  1.3948 -0.9456 -1.5660
   29bbb     H6  879   6.483   4.070   0.861  0.3701 -2.1401  0.5282
   29bbb     C4  880   6.446   4.002   0.664  0.0044 -0.4810  0.1219
   29bbb     H7  881   6.394   3.910   0.691 -0.8181 -0.1432 -0.2743
   29bbb     H8  882   6.496   3.987   0.568 -0.1160  1.6004 -0.3044
   29bbb     C5  883   6.879   4.017   0.784 -0.0660 -0.7406 -0.0926
   29bbb     H9  884   6.957   4.073   0.837 -0.9780 -0.2973  0.8168
   29bbb    H10  885   6.841   4.077   0.701  3.5754  0.4472 -1.0962
   29bbb     C6  886   6.643   3.709   0.958 -0.4468 -0.3414 -0.5168
   29bbb    H11  887   6.743   3.731   0.998 -0.9138  1.5688 -0.3064
   29bbb    H12  888   6.661   3.651   0.867 -1.5822  0.7942 -1.5034
   29bbb     C7  889   6.327   4.114   0.660  0.0789 -0.5238 -0.0914
   29bbb    H13  890   6.375   4.210   0.637  0.0858 -0.5324 -0.1110
   29bbb    H14  891   6.278   4.128   0.757 -0.5155 -0.3347 -0.4141
   29bbb     C8  892   6.568   3.625   1.058  0.2469 -0.0587  0.1413
   29bbb    H15  893   6.466   3.608   1.021  0.3624  0.1562 -0.2718
   29bbb    H16  894   6.626   3.533   1.072  1.7704  0.8223 -0.2115
   29bbb     C9  895   6.950   3.879   0.743  0.4331  0.2359 -0.2618
   29bbb    H17  896   7.039   3.897   0.682  0.6383 -1.1510 -0.4091
   29bbb    H18  897   6.890   3.812   0.679  1.1675 -1.9550  1.1970
   29bbb     O1  898   6.230   4.085   0.548  0.2789 -0.4071 -0.2087
   29bbb    H19  899   6.661   3.873   0.740 -1.7772  0.0089 -0.8057
   30bbb     N1  900   2.278   6.522   2.984  0.1201  0.0182  0.0875
   30bbb     C1  901   2.177   6.405   2.987  0.2804  0.6562 -0.1455
   30bbb     H1  902   2.095   6.429   3.056 -0.4516 -0.7644 -0.4862
   30bbb     H2  903   2.233   6.321   3.028 -0.3617  0.1446 -0.2961
   30bbb     C2  904   2.312   6.577   3.125  0.5253  0.5437  0.8195
   30bbb     H3  905   2.388   6.653   3.108 -1.2325  2.2379  0.0979
   30bbb     H4  906   2.342   6.490   3.183 -0.0740 -0.6753 -0.6236
   30bbb     C3  907   2.406   6.462   2.930 -0.5253 -0.1817 -0.1712
   30bbb     H5  908   2.395   6.412   2.834  0.7739  1.7088 -1.3584
   30bbb     H6  909   2.434   6.383   3.001  0.7962  1.6636  1.4539
   30bbb     C4  910   2.524   6.557   2.919  0.3233  0.1162  0.0529
   30bbb     H7  911   2.572   6.568   3.016 -0.2488 -1.5329  0.5439
   30bbb     H8  912   2.483   6.656   2.896 -0.6704 -0.3187 -0.1039
   30bbb     C5  913   2.110   6.368   2.859  0.1496  0.4672 -0.2130
   30bbb     H9  914   2.184   6.314   2.799  0.1978  1.8051 -1.4202
   30bbb    H10  915   2.062   6.451   2.806 -2.1905 -1.2774 -0.9988
   30bbb     C6  916   2.202   6.643   3.206  0.1048  0.6715 -0.1855
   30bbb    H11  917   2.120   6.575   3.230 -0.0202  1.4334  1.7555
   30bbb    H12  918   2.161   6.727   3.148  2.4221  2.8074  1.0552
   30bbb     C7  919   2.623   6.506   2.814 -0.9779  0.7086 -0.1353
   30bbb    H13  920   2.694   6.589   2.804  1.2420 -1.2682 -1.6500
   30bbb    H14  921   2.582   6.482   2.716  0.3356 -0.9456 -0.3275
   30bbb     C8  922   2.251   6.689   3.346  0.0961  0.3680 -0.3741
   30bbb    H15  923   2.335   6.757   3.334 -0.0701  0.7084  0.3167
   30bbb    H16  924   2.167   6.742   3.393 -1.1590  0.2209 -2.3379
   30bbb     C9  925   1.991   6.268   2.882 -0.2075  0.2319  0.4098
   30bbb    H17  926   1.951   6.239   2.784  0.4219  1.1857 -0.1421
   30bbb    H18  927   1.907   6.316   2.934 -0.0515  0.2608  0.6383
   30bbb     O1  928   2.694   6.391   2.867  0.8526 -0.4370  0.6256
   30bbb    H19  929   2.237   6.598   2.927 -1.7508 -1.1344 -0.1920
   31bbb     N1  930   3.482   6.827   2.318 -0.5846 -0.3012 -0.0039
   31bbb     C1  931   3.623   6.799   2.261 -0.1549  0.1667  0.2022
   31bbb     H1  932   3.615   6.731   2.176 -0.8768  2.3360 -1.5546
   31bbb     H2  933   3.687   6.749   2.334  0.3231 -0.7960 -0.8489
   31bbb     C2  934   3.375   6.800   2.224  0.6878  0.3326  0.7891
   31bbb     H3  935   3.276   6.816   2.266  0.8814  1.4608  0.8689
   31bbb     H4  936   3.391   6.699   2.187 -3.5954 -0.3169  0.3148
   31bbb     C3  937   3.476   6.727   2.438 -0.5236  0.0248 -0.1714
   31bbb     H5  938   3.564   6.740   2.500 -0.0752 -0.3280 -0.7281
   31bbb     H6  939   3.488   6.626   2.397 -0.1370 -1.2388  2.7827
   31bbb     C4  940   3.349   6.724   2.522 -0.1376  0.6342  0.8810
   31bbb     H7  941   3.270   6.670   2.467  0.8836 -0.6393  0.6073
   31bbb     H8  942   3.311   6.827   2.523  0.4907  0.9266 -1.2256
   31bbb     C5  943   3.693   6.930   2.218  0.6853 -1.2783 -0.3153
   31bbb     H9  944   3.742   6.967   2.309  1.0290 -0.2171 -0.9207
   31bbb    H10  945   3.619   7.002   2.183  1.2008 -0.8570 -0.5581
   31bbb     C6  946   3.369   6.891   2.103 -0.2070  0.2191 -0.0844
   31bbb    H11  947   3.455   6.870   2.038  1.8465  2.4110  1.7451
   31bbb    H12  948   3.373   6.995   2.138  0.1095 -0.4600  2.0550
   31bbb     C7  949   3.358   6.664   2.665  0.9412  0.4368  0.5040
   31bbb    H13  950   3.275   6.694   2.729 -0.0305 -0.3040 -0.3795
   31bbb    H14  951   3.452   6.696   2.711  1.0365  1.3402 -0.2933
   31bbb     C8  952   3.241   6.865   2.022  0.0424 -0.6647  0.6808
   31bbb    H15  953   3.257   6.919   1.927  2.4173 -2.0929  0.2051
   31bbb    H16  954   3.213   6.760   2.009 -2.4766 -0.1754  1.5043
   31bbb     C9  955   3.805   6.913   2.113  0.3500 -0.2440  0.2858
   31bbb    H17  956   3.879   6.990   2.137 -1.0335  1.4168 -0.5269
   31bbb    H18  957   3.769   6.943   2.013  3.1092  1.7384 -0.2117
   31bbb     O1  958   3.356   6.514   2.656  0.0958 -0.1142  0.3342
   31bbb    H19  959   3.474   6.922   2.358  1.8429 -0.6605  1.5660
   32bbb     N1  960   3.634   6.252   3.594 -0.3281  0.2177  0.2584
   32bbb     C1  961   3.776   6.314   3.586  0.8249  0.4568 -0.3794
   32bbb     H1  962   3.764   6.417   3.621 -1.4051  0.0652  0.1215
   32bbb     H2  963   3.812   6.329   3.484 -2.6438  5.1005 -1.2826
   32bbb     C2  964   3.545   6.353   3.666  0.2120  0.3086 -0.0916
   32bbb     H3  965   3.603   6.375   3.755  0.5992  2.6118 -0.8435
   32bbb     H4  966   3.459   6.290   3.690  0.4392 -0.3487 -0.9531
   32bbb     C3  967   3.566   6.215   3.454 -0.0994 -0.5292  0.4838
   32bbb     H5  968   3.648   6.174   3.394 -0.3583 -0.6220  0.1886
   32bbb     H6  969   3.538   6.311   3.410  0.4719 -0.5006  0.1671
   32bbb     C4  970   3.450   6.117   3.449 -0.7614  0.9982 -0.0733
   32bbb     H7  971   3.380   6.148   3.528  0.1664  3.0792  0.0073
   32bbb     H8  972   3.481   6.017   3.479 -0.6350  0.6860 -1.1927
   32bbb     C5  973   3.887   6.254   3.676  0.4856 -0.4655 -0.1243
   32bbb     H9  974   3.915   6.155   3.637 -0.9582 -0.6514 -0.7659
   32bbb    H10  975   3.845   6.241   3.776  0.0701 -1.0387 -0.3647
   32bbb     C6  976   3.511   6.484   3.586  0.0236 -0.1183 -0.0322
   32bbb    H11  977   3.424   6.458   3.525  0.6558 -1.1232 -0.5358
   32bbb    H12  978   3.586   6.526   3.518 -0.4059  1.7204  0.5642
   32bbb     C7  979   3.380   6.099   3.311 -0.0724  0.3354 -0.3731
   32bbb    H13  980   3.444   6.055   3.234 -2.5887 -0.9212 -1.8804
   32bbb    H14  981   3.348   6.197   3.275  0.0888  0.5140 -0.0439
   32bbb     C8  982   3.479   6.591   3.684 -0.0552  0.2885  0.3373
   32bbb    H15  983   3.580   6.615   3.721  0.5626 -0.7036 -0.6653
   32bbb    H16  984   3.450   6.683   3.631 -0.6959 -0.5902 -0.8759
   32bbb     C9  985   4.012   6.348   3.685  0.5007 -0.9363  0.5519
   32bbb    H17  986   4.074   6.318   3.770  3.1259  2.4691  0.0186
   32bbb    H18  987   3.976   6.451   3.697  1.6239 -0.5694  0.8938
   32bbb     O1  988   3.268   6.001   3.307 -0.6646 -0.9395 -0.1327
   32bbb    H19  989   3.642   6.160   3.640 -0.7177 -0.0348 -0.1683
   33bbb     N1  990   2.444   5.449   3.865  0.2431 -0.3538  0.1521
   33bbb     C1  991   2.312   5.519   3.867  0.0477  0.4346 -0.4530
   33bbb     H1  992   2.252   5.476   3.787 -0.4884 -0.8772  0.6229
   33bbb     H2  993   2.327   5.627   3.860 -0.1653  0.5704  0.8888
   33bbb     C2  994   2.416   5.303   3.839  0.1310 -0.2469 -0.0325
   33bbb     H3  995   2.387   5.293   3.734 -1.4739 -0.1526  0.3719
   33bbb     H4  996   2.329   5.267   3.894 -0.4691 -0.5618 -1.1430
   33bbb     C3  997   2.535   5.494   3.756 -0.4660  0.2728 -0.6046
   33bbb     H5  998   2.476   5.514   3.666  1.1495 -1.1735 -2.0802
   33bbb     H6  999   2.608   5.414   3.736  1.7194  1.8209  0.7406
   33bbb     C4 1000   2.615   5.611   3.798  0.1963 -0.2217 -0.1037
   33bbb     H7 1001   2.686   5.575   3.873 -0.3164 -2.2962 -0.5499
   33bbb     H8 1002   2.553   5.673   3.864 -2.0294 -3.8186  1.4531
   33bbb     C5 1003   2.227   5.499   3.993 -0.1591  0.0175  0.2039
   33bbb     H9 1004   2.290   5.483   4.081  0.0974  1.0237  0.2170
   33bbb    H10 1005   2.164   5.409   3.983  1.0156 -1.0746  2.0841
   33bbb     C6 1006   2.533   5.200   3.856  0.2099 -0.2676  0.0068
   33bbb    H11 1007   2.594   5.221   3.944 -0.9862  0.2362  0.7387
   33bbb    H12 1008   2.595   5.200   3.765 -1.8421 -1.3827 -1.4827
   33bbb     C7 1009   2.682   5.696   3.683  0.5886  0.2215  0.0191
   33bbb    H13 1010   2.720   5.791   3.721  0.3701  0.6421 -0.7852
   33bbb    H14 1011   2.598   5.716   3.615  0.0350  2.6921  1.3336
   33bbb     C8 1012   2.469   5.066   3.881 -0.1042 -0.2143 -0.0887
   33bbb    H15 1013   2.399   5.038   3.802  0.5769  0.1371 -0.8200
   33bbb    H16 1014   2.550   4.993   3.888 -0.4369 -0.8161 -2.0397
   33bbb     C9 1015   2.130   5.617   4.025  0.1703 -0.0894 -0.0431
   33bbb    H17 1016   2.069   5.593   4.113  1.1011  0.6473  0.8217
   33bbb    H18 1017   2.059   5.649   3.948  0.5683  4.0742  1.1010
   33bbb     O1 1018   2.792   5.613   3.632  0.0098 -0.0710 -0.5508
   33bbb    H19 1019   2.495   5.462   3.954  1.2437  0.3580 -0.4974
   34bbb     N1 1020   2.849   6.516   0.921  0.5280 -0.0390 -0.1090
   34bbb     C1 1021   2.812   6.663   0.895 -0.2580  0.4071  0.0543
   34bbb     H1 1022   2.888   6.721   0.947 -1.2652  2.6813 -0.8380
   34bbb     H2 1023   2.713   6.682   0.939 -0.0666 -0.5599  0.9223
   34bbb     C2 1024   3.001   6.505   0.899 -0.5203 -0.0437 -0.2237
   34bbb     H3 1025   3.046   6.548   0.989 -2.2817 -0.6399  0.9922
   34bbb     H4 1026   3.040   6.566   0.817  1.6530  0.2209  0.9350
   34bbb     C3 1027   2.823   6.489   1.075  0.5464  0.1170  0.1704
   34bbb     H5 1028   2.852   6.572   1.139  1.2364 -1.8832  2.5827
   34bbb     H6 1029   2.882   6.398   1.085 -0.3849 -0.5655 -0.3757
   34bbb     C4 1030   2.678   6.451   1.117 -0.1202  0.1522  0.1895
   34bbb     H7 1031   2.600   6.526   1.101  0.1464  0.5594  0.7757
   34bbb     H8 1032   2.679   6.435   1.225  3.3243  1.7208  0.5284
   34bbb     C5 1033   2.814   6.697   0.737  0.1702 -0.2194 -0.1993
   34bbb     H9 1034   2.738   6.653   0.671 -0.6875 -0.6417  1.0352
   34bbb    H10 1035   2.918   6.672   0.713  1.3856  1.5153  2.8431
   34bbb     C6 1036   3.049   6.364   0.876  0.1792 -0.8356  0.6950
   34bbb    H11 1037   2.981   6.309   0.809 -2.7107 -0.0725  2.7827
   34bbb    H12 1038   3.046   6.317   0.975 -0.4480  0.2073  1.1843
   34bbb     C7 1039   2.628   6.320   1.038  0.6011 -0.6215  0.1398
   34bbb    H13 1040   2.600   6.345   0.935 -1.3019  1.2349  1.0352
   34bbb    H14 1041   2.534   6.279   1.075  0.8300 -0.2322  1.1701
   34bbb     C8 1042   3.196   6.337   0.819  0.0389  0.3019 -0.3629
   34bbb    H15 1043   3.259   6.400   0.883 -1.9604 -0.9125  3.0347
   34bbb    H16 1044   3.232   6.234   0.825  1.4199  0.7864 -0.0040
   34bbb     C9 1045   2.811   6.855   0.724  0.2663  0.1797  0.0440
   34bbb    H17 1046   2.727   6.898   0.781 -1.2993 -0.6223 -1.5826
   34bbb    H18 1047   2.797   6.872   0.617  0.7385 -1.5678 -0.3263
   34bbb     O1 1048   2.733   6.224   1.056 -0.2898  0.1130  0.0819
   34bbb    H19 1049   2.805   6.457   0.849  3.2586  2.3131 -4.1403
   35bbb     N1 1050   1.975   6.316   1.543  0.2572  0.1419 -0.6536
   35bbb     C1 1051   1.833   6.311   1.485  0.4614 -0.2734  0.2701
   35bbb     H1 1052   1.773   6.376   1.549  0.7915 -0.4429  0.7569
   35bbb     H2 1053   1.790   6.211   1.496 -1.2112  0.3665 -0.0549
   35bbb     C2 1054   1.972   6.235   1.681  0.4951  0.1816  0.3351
   35bbb     H3 1055   1.920   6.142   1.657 -0.6379  1.2895 -1.8643
   35bbb     H4 1056   1.921   6.284   1.764  1.1812 -0.4009  1.1177
   35bbb     C3 1057   2.073   6.252   1.446 -0.0505 -0.4988 -0.2572
   35bbb     H5 1058   2.167   6.273   1.497 -1.1825  3.0616  0.7065
   35bbb     H6 1059   2.072   6.311   1.354  0.8931 -1.7866 -1.1137
   35bbb     C4 1060   2.062   6.104   1.416  0.2140  0.0833 -0.9050
   35bbb     H7 1061   1.967   6.082   1.366  0.3179  1.1035 -1.5872
   35bbb     H8 1062   2.060   6.050   1.511  1.5448 -1.7304 -1.8316
   35bbb     C5 1063   1.817   6.379   1.346  0.4322  0.5397 -0.0989
   35bbb     H9 1064   1.867   6.324   1.265  1.1146 -0.2657  0.8441
   35bbb    H10 1065   1.874   6.472   1.352  1.6109 -0.1674  0.0724
   35bbb     C6 1066   2.110   6.207   1.745  0.1815  0.4344  0.8251
   35bbb    H11 1067   2.166   6.301   1.742 -0.9751  1.1314  0.4751
   35bbb    H12 1068   2.156   6.120   1.696 -0.3054 -0.0376  1.1919
   35bbb     C7 1069   2.181   6.059   1.331  0.0039 -0.1302 -0.0210
   35bbb    H13 1070   2.181   6.115   1.237  1.7526 -2.6053 -1.6044
   35bbb    H14 1071   2.171   5.952   1.307  1.2685 -0.4523  0.7655
   35bbb     C8 1072   2.076   6.174   1.887 -0.1330  0.1208 -0.5601
   35bbb    H15 1073   2.027   6.264   1.925 -0.1538 -0.4654  0.8732
   35bbb    H16 1074   2.013   6.084   1.880  0.3979 -0.1879 -1.7358
   35bbb     C9 1075   1.669   6.412   1.326 -0.7251 -0.3632 -0.1050
   35bbb    H17 1076   1.652   6.467   1.233  1.5110 -0.3447 -0.5603
   35bbb    H18 1077   1.638   6.478   1.408 -1.2832 -0.0509 -0.5591
   35bbb     O1 1078   2.313   6.085   1.392  0.5203  0.4466  0.0331
   35bbb    H19 1079   2.007   6.412   1.562 -0.5787  0.3328 -0.1256
   36bbb     N1 1080   3.466   4.903   0.437  0.7646 -0.1567 -0.2292
   36bbb     C1 1081   3.438   4.999   0.553 -0.1441 -0.1207  0.7397
   36bbb     H1 1082   3.425   4.934   0.639 -0.1283  0.1398  0.9403
   36bbb     H2 1083   3.346   5.049   0.524 -0.5210 -2.3414 -2.5026
   36bbb     C2 1084   3.553   4.788   0.491 -0.1613 -0.6674 -0.0857
   36bbb     H3 1085   3.499   4.701   0.528 -1.3469  1.0985  2.7050
   36bbb     H4 1086   3.610   4.813   0.581  3.2006 -2.2382 -1.6035
   36bbb     C3 1087   3.335   4.855   0.368  0.0844 -0.0810 -1.1824
   36bbb     H5 1088   3.274   4.787   0.429 -0.0757 -1.9482 -3.2866
   36bbb     H6 1089   3.375   4.799   0.284  2.6352  1.9308 -1.4270
   36bbb     C4 1090   3.251   4.965   0.290 -0.3759  0.1717 -0.3795
   36bbb     H7 1091   3.312   4.998   0.205 -0.5289 -2.7546 -1.7505
   36bbb     H8 1092   3.246   5.056   0.352 -1.0613 -0.7218  0.9222
   36bbb     C5 1093   3.544   5.098   0.596 -0.0740  0.0061  0.6514
   36bbb     H9 1094   3.580   5.158   0.512 -0.2699  0.1389  0.6606
   36bbb    H10 1095   3.625   5.038   0.638  2.0506  1.9967 -0.3985
   36bbb     C6 1096   3.661   4.738   0.389  0.1822 -0.2318 -0.0514
   36bbb    H11 1097   3.615   4.731   0.290  0.4761  2.8797 -0.4958
   36bbb    H12 1098   3.694   4.637   0.416 -0.1367 -0.7448 -1.4702
   36bbb     C7 1099   3.122   4.910   0.228 -0.3689 -0.6037  0.2055
   36bbb    H13 1100   3.154   4.829   0.162 -1.0990 -0.3297 -0.4887
   36bbb    H14 1101   3.071   4.985   0.168 -0.5808  0.0379  1.1584
   36bbb     C8 1102   3.783   4.837   0.366 -0.8141  0.0034 -0.1420
   36bbb    H15 1103   3.864   4.776   0.325 -1.0052 -1.0798  1.0097
   36bbb    H16 1104   3.750   4.914   0.295 -0.6313 -0.8603 -1.1960
   36bbb     C9 1105   3.498   5.182   0.706  0.5537  0.2702  0.2471
   36bbb    H17 1106   3.585   5.243   0.732  2.4829 -2.0568 -0.3735
   36bbb    H18 1107   3.468   5.128   0.797  0.5159  0.5078  0.3753
   36bbb     O1 1108   3.037   4.857   0.334  0.2039  0.3593  0.0334
   36bbb    H19 1109   3.515   4.960   0.367 -0.9705 -1.9524 -3.1572
   37bbb     N1 1110   1.844   4.613   0.402  0.4285  0.0331 -0.3089
   37bbb     C1 1111   1.794   4.594   0.263  0.0438  0.1403 -0.5753
   37bbb     H1 1112   1.862   4.524   0.212  0.4339  1.2177 -1.5666
   37bbb     H2 1113   1.817   4.684   0.206 -0.0132  1.0528  0.8143
   37bbb     C2 1114   1.801   4.495   0.481 -0.1566  0.5785  0.4596
   37bbb     H3 1115   1.806   4.412   0.411  1.6256 -1.1478  2.5033
   37bbb     H4 1116   1.699   4.518   0.512 -0.1098 -0.9317  1.8547
   37bbb     C3 1117   1.996   4.636   0.389 -0.8036 -0.2232 -0.3422
   37bbb     H5 1118   2.035   4.556   0.326 -2.2286  0.6825 -2.4496
   37bbb     H6 1119   2.040   4.614   0.487 -0.6998 -1.2512 -0.6064
   37bbb     C4 1120   2.061   4.777   0.343  0.9839  0.1071 -0.3679
   37bbb     H7 1121   2.026   4.853   0.414 -2.6883  0.2113 -2.0871
   37bbb     H8 1122   2.012   4.809   0.251  0.2475  0.6226  0.1963
   37bbb     C5 1123   1.645   4.557   0.247  0.1570  0.0074  1.0873
   37bbb     H9 1124   1.571   4.623   0.295 -3.3138 -3.8312  1.5470
   37bbb    H10 1125   1.630   4.460   0.295 -0.6538  0.4813  1.8400
   37bbb     C6 1126   1.886   4.457   0.607  0.0858  0.4413 -0.1244
   37bbb    H11 1127   1.937   4.543   0.652  0.1000  0.7503 -0.7194
   37bbb    H12 1128   1.968   4.397   0.566  0.8251  1.1462  0.2890
   37bbb     C7 1129   2.213   4.785   0.321  0.3029  0.0461 -0.1375
   37bbb    H13 1130   2.240   4.887   0.293 -0.5087  0.3645  0.1977
   37bbb    H14 1131   2.254   4.703   0.260  2.9834 -0.8863  2.6813
   37bbb     C8 1132   1.798   4.383   0.712 -0.0879  0.3461  0.2287
   37bbb    H15 1133   1.735   4.306   0.666 -0.4782  1.9988 -2.1674
   37bbb    H16 1134   1.862   4.343   0.792 -0.4127 -1.1428 -0.2402
   37bbb     C9 1135   1.596   4.556   0.104  0.1017  0.6357 -0.3567
   37bbb    H17 1136   1.660   4.481   0.055  2.7875  1.0743  2.1825
   37bbb    H18 1137   1.592   4.653   0.053 -0.3326 -0.5338 -2.6957
   37bbb     O1 1138   2.275   4.770   0.448 -0.3781 -0.0696  0.3326
   37bbb    H19 1139   1.803   4.689   0.458  2.0843 -0.7505  2.1363
   38bbb     N1 1140   2.929   2.478   2.692 -0.3374  0.0737 -0.4857
   38bbb     C1 1141   2.826   2.497   2.806  0.3297  0.1415  0.3944
   38bbb     H1 1142   2.741   2.431   2.788  1.5162 -1.6851  1.2106
   38bbb     H2 1143   2.793   2.600   2.794  0.6686  0.3183  0.9167
   38bbb     C2 1144   2.858   2.457   2.553  0.0719 -0.4888 -0.7304
   38bbb     H3 1145   2.928   2.427   2.475  0.3697 -0.4789 -0.4697
   38bbb     H4 1146   2.817   2.554   2.526 -0.1058  0.2932  2.0256
   38bbb     C3 1147   3.023   2.597   2.678  0.1154 -0.0570  0.3398
   38bbb     H5 1148   3.067   2.611   2.777  0.2817  1.1574  0.1151
   38bbb     H6 1149   2.968   2.688   2.654  3.3197  1.7609 -0.8328
   38bbb     C4 1150   3.143   2.592   2.579  0.4611 -0.0786 -0.0814
   38bbb     H7 1151   3.104   2.579   2.477 -0.0228 -0.1112  0.1098
   38bbb     H8 1152   3.201   2.502   2.602 -1.3872 -1.2617  0.1484
   38bbb     C5 1153   2.867   2.480   2.950  0.2989  0.6107 -0.7022
   38bbb     H9 1154   2.962   2.535   2.959  0.5947 -0.0048  0.0176
   38bbb    H10 1155   2.875   2.372   2.966  0.4953  0.4687 -1.6922
   38bbb     C6 1156   2.752   2.340   2.544  0.0270  0.1134 -0.0592
   38bbb    H11 1157   2.724   2.322   2.440  0.1997 -0.5686  0.0070
   38bbb    H12 1158   2.666   2.369   2.606 -0.1732  1.6542 -1.0171
   38bbb     C7 1159   3.232   2.714   2.564 -0.3486 -0.5020 -0.5827
   38bbb    H13 1160   3.191   2.774   2.482  1.1284 -0.5034 -1.3491
   38bbb    H14 1161   3.333   2.692   2.529  0.3628  0.4537  0.8099
   38bbb     C8 1162   2.796   2.198   2.599  0.2686  0.6288  0.2111
   38bbb    H15 1163   2.746   2.121   2.539  0.8163  0.0316  0.5120
   38bbb    H16 1164   2.905   2.190   2.596  0.3156  1.3376 -0.1980
   38bbb     C9 1165   2.752   2.553   3.028  0.1257  0.1055  0.0713
   38bbb    H17 1166   2.734   2.655   2.992 -1.1512 -0.2511 -0.3502
   38bbb    H18 1167   2.774   2.563   3.135  0.9690  0.9216 -0.1675
   38bbb     O1 1168   3.255   2.787   2.688  0.4454 -0.2020 -0.2821
   38bbb    H19 1169   2.982   2.392   2.711 -1.4185 -0.7123 -0.9507
   39bbb     N1 1170   3.180   3.649   2.599 -0.5054 -0.4759  0.4625
   39bbb     C1 1171   3.289   3.698   2.508  0.3423 -0.6097 -0.6928
   39bbb     H1 1172   3.293   3.806   2.525  0.5392 -0.6217 -0.6686
   39bbb     H2 1173   3.269   3.671   2.404  3.0048 -0.2425 -1.3785
   39bbb     C2 1174   3.148   3.742   2.712  0.1143  1.1254 -0.5708
   39bbb     H3 1175   3.047   3.716   2.744  0.4440 -0.9661 -1.1114
   39bbb     H4 1176   3.156   3.844   2.675  0.2525  1.3680  0.1226
   39bbb     C3 1177   3.066   3.632   2.505  0.1822  1.4174  0.5557
   39bbb     H5 1178   3.082   3.704   2.425  1.7004 -0.3951 -0.8965
   39bbb     H6 1179   2.976   3.656   2.561 -0.9298 -0.2160 -0.4351
   39bbb     C4 1180   3.034   3.487   2.458  0.7193  0.7134  0.0315
   39bbb     H7 1181   3.122   3.448   2.404 -0.1973  0.4492 -1.3165
   39bbb     H8 1182   2.949   3.486   2.389 -1.4343  0.0046  2.5882
   39bbb     C5 1183   3.428   3.635   2.540 -0.0957  0.1547 -0.3293
   39bbb     H9 1184   3.402   3.531   2.563 -2.7241  0.3860 -1.7866
   39bbb    H10 1185   3.475   3.666   2.634  0.1658 -3.2526  0.7916
   39bbb     C6 1186   3.230   3.725   2.841 -0.0192 -0.4106 -0.6300
   39bbb    H11 1187   3.335   3.697   2.824  0.7891  2.0484 -0.0826
   39bbb    H12 1188   3.178   3.643   2.893 -0.9536  0.5491 -0.0046
   39bbb     C7 1189   3.006   3.388   2.575  0.3752 -0.3570  0.5895
   39bbb    H13 1190   2.965   3.291   2.542 -0.3206 -0.5569  1.9854
   39bbb    H14 1191   2.935   3.439   2.641 -0.2640  1.1888 -1.1752
   39bbb     C8 1192   3.229   3.846   2.943  0.1157  0.5139  0.2362
   39bbb    H15 1193   3.127   3.874   2.973 -0.0704 -0.6965  0.8140
   39bbb    H16 1194   3.287   3.815   3.031  1.2908  4.0101  0.8490
   39bbb     C9 1195   3.524   3.654   2.418  0.8457  0.1879 -0.3518
   39bbb    H17 1196   3.471   3.613   2.331 -1.7520 -1.5110  1.8441
   39bbb    H18 1197   3.618   3.605   2.445  1.5406  1.8388  0.3759
   39bbb     O1 1198   3.133   3.376   2.643 -0.1655 -0.0945 -0.4034
   39bbb    H19 1199   3.199   3.555   2.638 -0.2259 -0.3760  0.5689
   40bbb     N1 1200   4.472   2.018   2.563 -0.5937  0.0129 -0.1652
   40bbb     C1 1201   4.329   1.984   2.541 -0.1665  0.3464 -0.4429
   40bbb     H1 1202   4.315   2.004   2.435 -0.1914  1.9670 -0.1628
   40bbb     H2 1203   4.274   2.060   2.598 -0.0126  0.1672 -0.0497
   40bbb     C2 1204   4.573   1.970   2.463  0.2128 -0.2394 -0.3703
   40bbb     H3 1205   4.579   1.862   2.469 -0.5714 -0.2652  0.1787
   40bbb     H4 1206   4.670   2.004   2.498  0.3719 -0.5328 -0.5207
   40bbb     C3 1207   4.481   2.171   2.569  0.2380  0.9131 -0.5789
   40bbb     H5 1208   4.436   2.211   2.479 -0.6603  0.9478 -0.1280
   40bbb     H6 1209   4.587   2.197   2.573  0.7023 -0.8072 -0.5641
   40bbb     C4 1210   4.421   2.245   2.690 -0.1066  0.2831  0.3742
   40bbb     H7 1211   4.318   2.210   2.700 -0.1371  0.2722  0.0423
   40bbb     H8 1212   4.420   2.352   2.665  0.0157  0.3804  0.7890
   40bbb     C5 1213   4.300   1.839   2.573 -0.0367  0.7805  0.4925
   40bbb     H9 1214   4.383   1.778   2.534  0.2841  1.8916 -0.6068
   40bbb    H10 1215   4.213   1.820   2.510  0.4750  3.9647 -1.3617
   40bbb     C6 1216   4.554   2.012   2.318  0.4628  0.1081 -0.5329
   40bbb    H11 1217   4.560   2.121   2.307 -0.2777  0.1785 -0.3062
   40bbb    H12 1218   4.456   1.983   2.277  0.3636 -0.1946 -0.1010
   40bbb     C7 1219   4.490   2.222   2.827  0.1279  0.0755 -0.0414
   40bbb    H13 1220   4.597   2.243   2.829  0.2962 -0.6293 -0.7770
   40bbb    H14 1221   4.468   2.122   2.867 -0.0393  0.6230  1.2856
   40bbb     C8 1222   4.663   1.957   2.216  0.1324  0.1072  0.0466
   40bbb    H15 1223   4.619   1.941   2.117 -2.1355 -0.4146  1.0824
   40bbb    H16 1224   4.743   2.032   2.220 -0.5058  0.8936 -1.4814
   40bbb     C9 1225   4.274   1.824   2.719 -0.9144  0.2354  0.4632
   40bbb    H17 1226   4.347   1.881   2.778  0.5304  2.3620 -3.0690
   40bbb    H18 1227   4.280   1.718   2.745  1.0170  0.0192 -0.6793
   40bbb     O1 1228   4.422   2.309   2.920  0.1695 -0.4482  0.5414
   40bbb    H19 1229   4.498   1.975   2.653 -0.9874 -1.5482 -0.7643
   41bbb     N1 1230   5.122   2.570   3.444  0.2570  0.1635 -0.7191
   41bbb     C1 1231   5.121   2.422   3.491  0.2458  0.3563  0.0652
   41bbb     H1 1232   5.119   2.351   3.409 -0.8258  1.3865 -0.8434
   41bbb     H2 1233   5.031   2.416   3.553  0.0500  1.0864 -0.1268
   41bbb     C2 1234   5.246   2.605   3.369  0.0970  0.3082 -0.3794
   41bbb     H3 1235   5.332   2.578   3.431 -0.1467 -0.7057 -0.4602
   41bbb     H4 1236   5.250   2.713   3.359  0.6197  0.2021 -1.5232
   41bbb     C3 1237   4.993   2.591   3.361  0.0777 -0.4197 -0.1226
   41bbb     H5 1238   4.907   2.539   3.402 -0.8591  1.3647  0.2779
   41bbb     H6 1239   5.015   2.547   3.264 -0.7541  0.6035 -0.7976
   41bbb     C4 1240   4.959   2.744   3.338 -0.1295 -0.2389  0.0153
   41bbb     H7 1241   5.035   2.803   3.287 -1.3335  1.7353  0.3996
   41bbb     H8 1242   4.939   2.797   3.432 -1.7948 -2.0330  0.7505
   41bbb     C5 1243   5.236   2.388   3.599  0.0878 -0.2466  0.3489
   41bbb     H9 1244   5.197   2.431   3.692 -2.5650  0.7307 -1.0880
   41bbb    H10 1245   5.329   2.434   3.563  0.1859  1.3331  2.4550
   41bbb     C6 1246   5.263   2.542   3.232  0.6147 -0.1572 -0.2152
   41bbb    H11 1247   5.221   2.614   3.159  1.0660 -1.0057 -1.3471
   41bbb    H12 1248   5.211   2.446   3.230  0.9301 -0.3376  0.2288
   41bbb     C7 1249   4.828   2.766   3.250  0.2281  0.3143 -0.8539
   41bbb    H13 1250   4.852   2.739   3.146  0.2484 -1.2954 -0.4680
   41bbb    H14 1251   4.817   2.875   3.252  0.1267  0.2948 -0.2287
   41bbb     C8 1252   5.410   2.523   3.193 -0.7196 -0.1519 -0.6941
   41bbb    H15 1253   5.413   2.463   3.101  1.5590 -0.3796 -0.5368
   41bbb    H16 1254   5.459   2.621   3.181 -0.6591  0.2198  2.0969
   41bbb     C9 1255   5.245   2.236   3.625 -0.2244 -0.3566  0.5556
   41bbb    H17 1256   5.142   2.210   3.653 -0.4272 -2.0962 -1.5551
   41bbb    H18 1257   5.303   2.200   3.711 -0.4091 -1.0736  0.3872
   41bbb     O1 1258   4.709   2.695   3.307  0.7282  0.1155  0.4018
   41bbb    H19 1259   5.126   2.624   3.531  2.0396  0.9475 -1.2385
   42bbb     N1 1260   5.355   3.830   4.220  0.1790 -0.4612  0.1254
   42bbb     C1 1261   5.250   3.939   4.241  0.1798  0.2539 -0.1380
   42bbb     H1 1262   5.160   3.883   4.270 -0.9510  2.0614  0.0065
   42bbb     H2 1263   5.221   3.981   4.145 -0.5907 -0.3408 -0.1735
   42bbb     C2 1264   5.381   3.754   4.360  0.7116 -0.1716  0.6063
   42bbb     H3 1265   5.296   3.687   4.375  0.1085 -0.1982 -2.2165
   42bbb     H4 1266   5.399   3.825   4.440 -1.0641  1.0334  0.0026
   42bbb     C3 1267   5.312   3.744   4.103 -0.5182  0.5816  0.0401
   42bbb     H5 1268   5.209   3.709   4.112 -0.9013  1.8031  0.6013
   42bbb     H6 1269   5.368   3.651   4.100 -0.4541  0.6267 -0.1804
   42bbb     C4 1270   5.329   3.817   3.969 -0.0898 -0.3779  0.4315
   42bbb     H7 1271   5.433   3.853   3.968 -0.6860  1.5117  1.6619
   42bbb     H8 1272   5.257   3.900   3.972 -0.1499 -0.3480  4.9806
   42bbb     C5 1273   5.287   4.060   4.330  0.5964 -0.2054 -0.1253
   42bbb     H9 1274   5.385   4.099   4.303 -0.0649  0.2756 -2.0114
   42bbb    H10 1275   5.285   4.029   4.435 -0.2973 -0.2138 -0.1364
   42bbb     C6 1276   5.509   3.675   4.351 -0.1461 -0.3477  0.2671
   42bbb    H11 1277   5.577   3.730   4.286  2.6284 -3.5057  0.2326
   42bbb    H12 1278   5.495   3.571   4.317 -0.8640 -0.5107  1.0382
   42bbb     C7 1279   5.305   3.735   3.842  0.2516 -0.8862  0.1102
   42bbb    H13 1280   5.198   3.723   3.823  0.4809  0.9770 -3.2750
   42bbb    H14 1281   5.359   3.640   3.835  0.8770 -0.5928  0.8834
   42bbb     C8 1282   5.588   3.666   4.484 -0.6706  1.2522 -0.0148
   42bbb    H15 1283   5.623   3.766   4.513  3.4861 -0.5775  2.3734
   42bbb    H16 1284   5.523   3.627   4.563  1.1525  0.6119  1.2480
   42bbb     C9 1285   5.179   4.176   4.332  0.0307 -0.4871 -0.0178
   42bbb    H17 1286   5.141   4.194   4.231  1.8122 -0.9012 -0.8041
   42bbb    H18 1287   5.226   4.269   4.369 -0.0751 -0.7360  0.7594
   42bbb     O1 1288   5.355   3.816   3.726 -0.4995 -0.6695 -0.6457
   42bbb    H19 1289   5.443   3.882   4.203 -0.7925  1.4518  0.6644
   43bbb     N1 1290   6.055   3.542   3.425  0.0754 -0.1122 -0.0392
   43bbb     C1 1291   6.152   3.648   3.483  0.3521 -0.5712 -0.1060
   43bbb     H1 1292   6.202   3.699   3.400 -1.4206 -0.7155 -1.3119
   43bbb     H2 1293   6.229   3.589   3.533  0.7420 -1.7577 -2.0084
   43bbb     C2 1294   6.130   3.457   3.326  0.0891  0.1362  0.2440
   43bbb     H3 1295   6.055   3.392   3.281  0.1199  0.5608 -0.4337
   43bbb     H4 1296   6.202   3.412   3.394 -0.6151  0.8829  1.5151
   43bbb     C3 1297   6.015   3.449   3.543  0.2636 -0.2885 -0.8142
   43bbb     H5 1298   5.982   3.519   3.621  1.5126  0.1225 -0.6303
   43bbb     H6 1299   6.099   3.384   3.568  1.8805  1.7970 -0.5028
   43bbb     C4 1300   5.884   3.368   3.516 -0.5326  0.4921 -0.1926
   43bbb     H7 1301   5.881   3.281   3.583  0.7922  0.3504 -0.2749
   43bbb     H8 1302   5.872   3.323   3.416 -0.0605 -1.6764  0.6726
   43bbb     C5 1303   6.088   3.750   3.580 -0.2672  0.2692  0.8502
   43bbb     H9 1304   6.035   3.705   3.665  1.7368  0.5277  2.3226
   43bbb    H10 1305   6.021   3.815   3.522  1.2133 -0.5615 -1.9693
   43bbb     C6 1306   6.214   3.537   3.221 -0.7272  0.6793  0.1863
   43bbb    H11 1307   6.310   3.553   3.272 -1.2995 -1.1642  1.9957
   43bbb    H12 1308   6.164   3.632   3.200 -0.9993  1.2828  3.0681
   43bbb     C7 1309   5.763   3.458   3.535 -0.4127  0.2554 -0.2795
   43bbb    H13 1310   5.755   3.502   3.635 -1.4630 -1.4872  0.4484
   43bbb    H14 1311   5.666   3.410   3.519  0.0359 -1.4456  1.6933
   43bbb     C8 1312   6.239   3.450   3.088 -0.2502  0.2358 -0.1932
   43bbb    H15 1313   6.330   3.481   3.036 -0.0806 -1.9252 -1.3258
   43bbb    H16 1314   6.260   3.345   3.113  1.5436  0.4793 -0.5725
   43bbb     C9 1315   6.205   3.834   3.630 -0.1450  0.3050 -0.4435
   43bbb    H17 1316   6.162   3.902   3.705 -1.1736 -2.8127  2.0534
   43bbb    H18 1317   6.258   3.883   3.548 -1.7643 -1.7516 -2.8772
   43bbb     O1 1318   5.772   3.564   3.434 -0.2632 -0.3362 -0.2746
   43bbb    H19 1319   5.977   3.598   3.388  1.5494  2.3582  0.3806
   44bbb     N1 1320   4.268   5.057   3.880  0.2374  0.4191  0.0985
   44bbb     C1 1321   4.157   4.963   3.923 -0.1753 -0.2079 -0.1957
   44bbb     H1 1322   4.218   4.893   3.981 -0.4045 -0.1116  0.1653
   44bbb     H2 1323   4.115   4.914   3.835 -2.3536 -0.3253  0.8363
   44bbb     C2 1324   4.328   5.116   4.005 -0.7464 -0.3270 -0.2372
   44bbb     H3 1325   4.358   5.032   4.068  2.8329  1.9819  1.4469
   44bbb     H4 1326   4.253   5.174   4.058 -0.5683 -0.0865 -0.2463
   44bbb     C3 1327   4.368   4.968   3.808  0.2764 -0.1988 -0.1985
   44bbb     H5 1328   4.397   4.886   3.874 -0.7243 -0.2898  0.1441
   44bbb     H6 1329   4.451   5.031   3.775 -0.2191  0.9898  0.7663
   44bbb     C4 1330   4.312   4.896   3.680  0.8906 -0.0235  0.4608
   44bbb     H7 1331   4.259   4.963   3.612  2.1018 -1.1722 -1.7058
   44bbb     H8 1332   4.235   4.820   3.699  0.2216  0.1379 -1.4071
   44bbb     C5 1333   4.040   5.023   4.012  0.3894 -0.1467 -1.0135
   44bbb     H9 1334   4.071   5.047   4.115 -1.8772  0.3725 -0.4055
   44bbb    H10 1335   3.963   4.955   4.050  0.9847 -0.9947 -1.2849
   44bbb     C6 1336   4.461   5.195   3.995 -0.4540 -0.3884  0.2389
   44bbb    H11 1337   4.452   5.282   3.929  2.7348 -0.8721 -1.0225
   44bbb    H12 1338   4.535   5.136   3.939 -0.1366  1.8680 -1.8661
   44bbb     C7 1339   4.432   4.834   3.606  0.0769 -0.6361 -0.7182
   44bbb    H13 1340   4.513   4.907   3.595 -1.1739  1.0831  0.8702
   44bbb    H14 1341   4.395   4.805   3.507 -0.0446 -1.8257 -0.3357
   44bbb     C8 1342   4.525   5.226   4.131  0.0020 -0.0492  0.5224
   44bbb    H15 1343   4.549   5.134   4.186  0.9078 -0.4049 -0.4241
   44bbb    H16 1344   4.613   5.289   4.115 -1.4841  1.7232 -1.1581
   44bbb     C9 1345   3.966   5.135   3.945  1.0285  1.1528  0.2361
   44bbb    H17 1346   3.865   5.149   3.984 -0.4867  0.9665 -3.2914
   44bbb    H18 1347   3.951   5.109   3.839  0.6946  2.2031  0.0140
   44bbb     O1 1348   4.475   4.714   3.666  0.5292 -0.2646  0.0855
   44bbb    H19 1349   4.229   5.129   3.817  1.5364  0.8421 -0.2743
   45bbb     N1 1350   4.739   5.043   3.096 -0.7835 -0.1558 -0.3077
   45bbb     C1 1351   4.859   5.124   3.069  0.0242 -0.0192 -0.6080
   45bbb     H1 1352   4.948   5.076   3.109 -0.4392 -2.1599 -2.0215
   45bbb     H2 1353   4.841   5.221   3.115  0.0144 -0.1750 -0.2829
   45bbb     C2 1354   4.619   5.072   3.009 -0.3034 -0.8632  1.5710
   45bbb     H3 1355   4.545   4.992   3.016 -1.7327  0.3851  1.1661
   45bbb     H4 1356   4.652   5.076   2.905  1.0489 -2.3709  1.9053
   45bbb     C3 1357   4.786   4.898   3.096  0.3885 -0.1432 -0.2784
   45bbb     H5 1358   4.869   4.887   3.166  0.7546 -2.7749 -1.0402
   45bbb     H6 1359   4.817   4.880   2.994 -0.2169 -0.6179 -0.3841
   45bbb     C4 1360   4.678   4.787   3.133 -0.0404  0.2706  0.6664
   45bbb     H7 1361   4.726   4.691   3.109 -0.6096  0.0576  0.3469
   45bbb     H8 1362   4.587   4.797   3.073  1.0138 -0.2329 -1.0983
   45bbb     C5 1363   4.887   5.157   2.918 -0.2669 -0.0278 -0.3070
   45bbb     H9 1364   4.822   5.238   2.882 -2.6540 -1.0073  1.5008
   45bbb    H10 1365   4.881   5.063   2.861  1.8198 -0.6697  0.4498
   45bbb     C6 1366   4.548   5.204   3.050  0.6149 -0.1950 -0.1282
   45bbb    H11 1367   4.626   5.277   3.075  0.9219 -1.0107  1.4169
   45bbb    H12 1368   4.506   5.183   3.149  0.9150 -0.8854 -0.1472
   45bbb     C7 1369   4.636   4.794   3.282 -0.0513 -0.0909 -0.2867
   45bbb    H13 1370   4.584   4.890   3.294 -0.1119 -0.3003  1.2343
   45bbb    H14 1371   4.724   4.800   3.347  0.6629  1.3171 -1.3381
   45bbb     C8 1372   4.444   5.259   2.953 -0.0759 -0.0246  0.2012
   45bbb    H15 1373   4.368   5.319   3.004  0.3841 -0.3102  1.2553
   45bbb    H16 1374   4.496   5.325   2.883  0.1361  0.1488  0.5228
   45bbb     C9 1375   5.033   5.199   2.900 -0.6549  0.6037 -0.0545
   45bbb    H17 1376   5.044   5.202   2.791 -0.1452 -2.3966 -0.1815
   45bbb    H18 1377   5.106   5.124   2.934 -2.2896 -0.7869  0.5550
   45bbb     O1 1378   4.551   4.678   3.324 -0.0800  0.2216 -0.4882
   45bbb    H19 1379   4.721   5.070   3.193  0.3670  1.4643 -0.5068
   46bbb     N1 1380   4.763   3.327  -1.382  0.0522  0.2824 -0.6139
   46bbb     C1 1381   4.706   3.286  -1.243 -0.3025 -0.0906 -0.0563
   46bbb     H1 1382   4.697   3.177  -1.244 -1.0463 -0.0598 -2.4641
   46bbb     H2 1383   4.609   3.336  -1.234 -0.9133 -0.8164 -2.1279
   46bbb     C2 1384   4.677   3.255  -1.478 -0.4131  0.1302  0.3049
   46bbb     H3 1385   4.692   3.148  -1.464  0.8338  0.0410 -1.4277
   46bbb     H4 1386   4.727   3.266  -1.574 -0.4679 -1.6502  0.0339
   46bbb     C3 1387   4.773   3.481  -1.405  0.0117 -0.1831  0.2212
   46bbb     H5 1388   4.837   3.512  -1.323 -1.2139 -1.0411  1.5618
   46bbb     H6 1389   4.676   3.528  -1.390 -0.1092 -0.2877 -0.2088
   46bbb     C4 1390   4.822   3.535  -1.539  0.3129 -0.5092 -1.2069
   46bbb     H7 1391   4.749   3.505  -1.616  1.5477 -1.5793 -1.9961
   46bbb     H8 1392   4.920   3.491  -1.561 -0.0551 -1.0310 -1.8615
   46bbb     C5 1393   4.800   3.322  -1.123 -0.2653 -0.2506 -0.0392
   46bbb     H9 1394   4.741   3.340  -1.033 -0.5415 -1.7593  0.1217
   46bbb    H10 1395   4.858   3.413  -1.137  2.2692 -1.7738  0.0004
   46bbb     C6 1396   4.527   3.285  -1.477 -0.1369  0.5033 -0.2372
   46bbb    H11 1397   4.512   3.389  -1.506  0.1413  0.5884 -0.0686
   46bbb    H12 1398   4.479   3.265  -1.380 -0.4437  2.3592  0.0174
   46bbb     C7 1399   4.837   3.685  -1.552  0.3044 -0.2078 -0.3414
   46bbb    H13 1400   4.866   3.715  -1.653 -1.7026  1.2409 -0.5460
   46bbb    H14 1401   4.911   3.715  -1.476  0.4109 -1.5217  0.0871
   46bbb     C8 1402   4.461   3.193  -1.590 -0.1330 -1.1891  0.2709
   46bbb    H15 1403   4.500   3.093  -1.568 -1.8687 -1.9622 -0.0194
   46bbb    H16 1404   4.352   3.199  -1.580 -0.0789 -1.2604  0.9256
   46bbb     C9 1405   4.898   3.207  -1.100 -0.5681  0.9308 -0.0983
   46bbb    H17 1406   4.965   3.238  -1.019 -0.7372 -0.0678  0.4387
   46bbb    H18 1407   4.957   3.180  -1.188  2.3812 -5.4419  3.1621
   46bbb     O1 1408   4.706   3.750  -1.521  0.3088 -0.2499  0.1845
   46bbb    H19 1409   4.853   3.278  -1.394 -1.2609 -2.0915 -1.4691
   47bbb     N1 1410   4.827   4.309  -0.830 -0.2211  0.3011  0.3526
   47bbb     C1 1411   4.753   4.440  -0.831  0.5133  0.4726  0.0173
   47bbb     H1 1412   4.730   4.464  -0.935 -1.2667  2.6431  0.8422
   47bbb     H2 1413   4.824   4.513  -0.793  1.5673  0.3947 -1.6677
   47bbb     C2 1414   4.931   4.311  -0.936 -0.8002  0.4035 -0.0935
   47bbb     H3 1415   4.892   4.324  -1.038  1.7174 -0.2903 -1.2258
   47bbb     H4 1416   4.966   4.208  -0.946  0.5424  0.8255  0.0517
   47bbb     C3 1417   4.885   4.268  -0.691 -0.3140 -0.4455  0.3913
   47bbb     H5 1418   4.810   4.268  -0.612  0.4495 -4.6075  1.3513
   47bbb     H6 1419   4.952   4.352  -0.670 -1.4303  0.7100 -0.4776
   47bbb     C4 1420   4.948   4.128  -0.693  0.0332 -0.1089 -0.2181
   47bbb     H7 1421   5.003   4.112  -0.599 -2.1491 -1.2279  0.9303
   47bbb     H8 1422   5.024   4.122  -0.773 -0.1574 -1.8539 -0.3157
   47bbb     C5 1423   4.616   4.446  -0.761 -0.7118  0.0766 -0.7175
   47bbb     H9 1424   4.636   4.465  -0.655  2.0368  0.7739 -1.3009
   47bbb    H10 1425   4.559   4.353  -0.774 -0.1741 -0.3322 -0.1900
   47bbb     C6 1426   5.062   4.388  -0.917 -0.3176 -0.2837  0.2440
   47bbb    H11 1427   5.124   4.354  -0.834 -0.7268  0.5044  0.8821
   47bbb    H12 1428   5.053   4.495  -0.894  0.7545  0.1404 -1.1176
   47bbb     C7 1429   4.850   4.011  -0.731 -1.1131  0.1510  0.7043
   47bbb    H13 1430   4.771   4.005  -0.655  0.0950 -1.1173  1.9091
   47bbb    H14 1431   4.906   3.919  -0.711  1.0419  0.9769 -1.1266
   47bbb     C8 1432   5.150   4.371  -1.043  0.1046 -0.4314  0.3893
   47bbb    H15 1433   5.253   4.407  -1.028 -0.5251  1.6428  0.0045
   47bbb    H16 1434   5.151   4.264  -1.066 -0.7484 -0.7442  1.7337
   47bbb     C9 1435   4.535   4.567  -0.812  0.5097 -0.6128  0.6210
   47bbb    H17 1436   4.434   4.559  -0.770  0.5992  1.8267  1.4332
   47bbb    H18 1437   4.523   4.551  -0.920 -0.9164 -3.1474  1.0583
   47bbb     O1 1438   4.787   4.021  -0.856  0.1701 -0.5561 -0.1583
   47bbb    H19 1439   4.767   4.228  -0.852  1.6989 -1.3246  0.8205
   48bbb     N1 1440   3.089   4.789  -1.761 -0.9380 -0.4020  0.1745
   48bbb     C1 1441   2.952   4.818  -1.703  0.2008  0.1066 -0.6603
   48bbb     H1 1442   2.965   4.901  -1.632  0.5273 -2.0403  1.9692
   48bbb     H2 1443   2.923   4.731  -1.644 -0.7080  1.2922  0.7136
   48bbb     C2 1444   3.139   4.916  -1.835  0.5561  0.1033  0.0238
   48bbb     H3 1445   3.083   4.923  -1.929  0.3180 -1.8817 -0.0161
   48bbb     H4 1446   3.236   4.886  -1.875  0.9525 -0.5746  1.4417
   48bbb     C3 1447   3.186   4.762  -1.648  0.5492  0.8062  1.0466
   48bbb     H5 1448   3.146   4.678  -1.590  0.4805 -0.6683 -1.0200
   48bbb     H6 1449   3.171   4.849  -1.585 -0.4840  0.4711  1.2838
   48bbb     C4 1450   3.333   4.727  -1.686 -0.2719  0.4445  0.9130
   48bbb     H7 1451   3.396   4.815  -1.707 -1.0539  1.2647  1.9408
   48bbb     H8 1452   3.339   4.663  -1.775  3.2480 -0.0136  1.3371
   48bbb     C5 1453   2.832   4.852  -1.799  0.0404  0.3049 -0.2814
   48bbb     H9 1454   2.815   4.786  -1.886 -1.3572  0.8415 -0.4549
   48bbb    H10 1455   2.844   4.949  -1.848 -0.2924  1.6220  2.1129
   48bbb     C6 1456   3.168   5.050  -1.768 -0.1559  0.3365 -0.3704
   48bbb    H11 1457   3.252   5.051  -1.697 -0.5115 -1.7748  0.1436
   48bbb    H12 1458   3.090   5.062  -1.692  0.1239 -2.3449  0.4345
   48bbb     C7 1459   3.398   4.653  -1.565 -0.9894  0.3246 -0.2091
   48bbb    H13 1460   3.422   4.723  -1.484  2.9902  1.3559 -2.0191
   48bbb    H14 1461   3.499   4.614  -1.582 -1.4642 -1.3978  0.6268
   48bbb     C8 1462   3.163   5.171  -1.875  0.3039 -0.3395  0.1106
   48bbb    H15 1463   3.064   5.178  -1.921  0.8700  1.4365 -0.9429
   48bbb    H16 1464   3.181   5.270  -1.830  0.5194 -0.5398  0.4749
   48bbb     C9 1465   2.706   4.855  -1.711  0.3922 -0.4881  0.4034
   48bbb    H17 1466   2.622   4.894  -1.771  0.9527  0.8187  0.4287
   48bbb    H18 1467   2.727   4.922  -1.626  2.0215  0.7081 -0.8650
   48bbb     O1 1468   3.316   4.537  -1.520 -0.4468 -0.2445 -0.2393
   48bbb    H19 1469   3.090   4.710  -1.827 -0.7236 -1.3064  1.2367
   49bbb     N1 1470   3.591   3.918  -2.192 -0.3724  0.4003  0.2837
   49bbb     C1 1471   3.705   4.013  -2.212  0.2721  0.3607  0.2340
   49bbb     H1 1472   3.728   4.005  -2.319  3.3907 -1.7642  0.9234
   49bbb     H2 1473   3.792   3.968  -2.165  0.1699 -1.7851 -1.4685
   49bbb     C2 1474   3.613   3.782  -2.264  0.1965 -0.3445  0.1317
   49bbb     H3 1475   3.549   3.713  -2.208 -1.9145 -0.5640 -2.3542
   49bbb     H4 1476   3.715   3.746  -2.250  0.2020 -0.8651 -1.1501
   49bbb     C3 1477   3.590   3.893  -2.037 -0.1728  0.2232  0.6702
   49bbb     H5 1478   3.584   3.992  -1.991 -3.2708  1.0015 -1.1293
   49bbb     H6 1479   3.689   3.853  -2.013 -0.0179 -0.0094 -0.3124
   49bbb     C4 1480   3.475   3.807  -1.981  0.3553  0.1731 -0.1736
   49bbb     H7 1481   3.480   3.704  -2.019 -0.0692  0.6733 -1.6524
   49bbb     H8 1482   3.376   3.848  -2.005  0.9204  1.4509 -0.4087
   49bbb     C5 1483   3.675   4.162  -2.175  0.3545  0.0718  0.9784
   49bbb     H9 1484   3.602   4.180  -2.095 -1.3468  2.5685 -0.9625
   49bbb    H10 1485   3.621   4.201  -2.262 -2.1510  0.8252  2.7392
   49bbb     C6 1486   3.571   3.792  -2.412 -0.3133 -0.2779  1.0201
   49bbb    H11 1487   3.485   3.860  -2.408  0.0288  0.2354  0.0007
   49bbb    H12 1488   3.539   3.692  -2.444 -0.0718  0.3057 -1.1637
   49bbb     C7 1489   3.484   3.786  -1.826 -1.0633 -0.4401  0.3832
   49bbb    H13 1490   3.567   3.716  -1.813  1.1163  2.0757  1.0466
   49bbb    H14 1491   3.389   3.746  -1.788 -1.0153 -1.8751 -0.9022
   49bbb     C8 1492   3.680   3.860  -2.504 -0.0383 -0.0615 -0.1159
   49bbb    H15 1493   3.777   3.842  -2.457 -0.8563 -0.7569  1.3836
   49bbb    H16 1494   3.685   3.798  -2.594  0.6112 -0.4060  0.1494
   49bbb     C9 1495   3.803   4.245  -2.167  0.2798 -0.5342 -0.2721
   49bbb    H17 1496   3.867   4.197  -2.092 -0.0544  0.2583  0.5402
   49bbb    H18 1497   3.777   4.344  -2.126  0.7139 -0.1430 -0.9260
   49bbb     O1 1498   3.503   3.920  -1.757 -0.2262  0.4864  0.6045
   49bbb    H19 1499   3.508   3.966  -2.230  1.5477  3.0957 -0.8558
   50bbb     N1 1500   3.901   1.905   0.514 -0.4421  0.8751  0.2785
   50bbb     C1 1501   3.761   1.933   0.472 -0.3147 -0.2189 -0.6838
   50bbb     H1 1502   3.741   2.032   0.513 -0.0945 -0.5381  0.2155
   50bbb     H2 1503   3.691   1.875   0.531 -2.2034  1.6474 -0.9521
   50bbb     C2 1504   3.928   1.753   0.482  0.5299 -0.7694 -0.5874
   50bbb     H3 1505   4.020   1.752   0.423  0.6208  2.6313 -0.7368
   50bbb     H4 1506   3.856   1.720   0.407 -0.9494 -3.7253  1.9560
   50bbb     C3 1507   4.005   1.984   0.438 -1.1335 -0.3104 -0.0346
   50bbb     H5 1508   3.973   2.088   0.435  0.4293  0.1691 -1.6325
   50bbb     H6 1509   4.006   1.946   0.335  2.5088  1.1863 -0.7051
   50bbb     C4 1510   4.148   1.975   0.498  0.4864 -0.2591 -0.2563
   50bbb     H7 1511   4.173   1.870   0.520 -0.0014 -0.4926 -0.7834
   50bbb     H8 1512   4.145   2.037   0.588 -0.8476 -0.9406  0.1936
   50bbb     C5 1513   3.725   1.935   0.324 -0.7617 -0.3225 -0.2838
   50bbb     H9 1514   3.790   1.870   0.264 -1.2454  0.9644 -2.2938
   50bbb    H10 1515   3.734   2.036   0.284 -0.3926  0.1172  0.8599
   50bbb     C6 1516   3.927   1.653   0.593  0.3308  0.1240 -0.3617
   50bbb    H11 1517   4.021   1.655   0.650 -0.1329  0.2079  0.4167
   50bbb    H12 1518   3.912   1.554   0.548 -2.0826 -0.1831  0.9490
   50bbb     C7 1519   4.247   2.039   0.406 -0.1505  0.1227  0.5880
   50bbb    H13 1520   4.274   1.969   0.327 -1.4270  0.2713  0.0098
   50bbb    H14 1521   4.337   2.056   0.467  0.4229  0.7654 -0.4153
   50bbb     C8 1522   3.810   1.676   0.690  0.3913  0.3255 -0.0450
   50bbb    H15 1523   3.812   1.605   0.774 -0.4766  1.6870  1.1936
   50bbb    H16 1524   3.826   1.773   0.740 -1.7023 -0.0092  1.4347
   50bbb     C9 1525   3.586   1.881   0.319 -0.4049  0.5030 -0.4155
   50bbb    H17 1526   3.517   1.958   0.356  0.6026  1.9280 -1.3697
   50bbb    H18 1527   3.581   1.793   0.384 -1.3927 -0.3618 -1.6078
   50bbb     O1 1528   4.201   2.174   0.357 -0.7576  0.7105  0.5500
   50bbb    H19 1529   3.919   1.921   0.614  2.2462 -2.6219  0.5480
   51bbb     N1 1530   4.903   1.980   1.074 -0.0782  0.1065 -0.6675
   51bbb     C1 1531   5.029   1.952   1.155 -0.6956  0.7359  0.1010
   51bbb     H1 1532   5.046   1.846   1.133  1.4339  0.6313  1.8908
   51bbb     H2 1533   5.005   1.967   1.260  0.1873 -0.0670  0.4350
   51bbb     C2 1534   4.784   1.900   1.137 -0.5020  0.0005  0.1827
   51bbb     H3 1535   4.690   1.940   1.099 -0.2007  1.8051  1.2301
   51bbb     H4 1536   4.780   1.918   1.244 -0.5799 -1.9561  0.5430
   51bbb     C3 1537   4.867   2.127   1.081  0.3749  0.2242 -0.3270
   51bbb     H5 1538   4.952   2.173   1.030  0.8334 -0.5966 -0.3243
   51bbb     H6 1539   4.859   2.156   1.185 -0.3903 -2.7213  0.5230
   51bbb     C4 1540   4.742   2.173   1.006  0.3821 -0.2063  0.5733
   51bbb     H7 1541   4.654   2.147   1.067  1.1298 -0.4368  1.5715
   51bbb     H8 1542   4.735   2.115   0.914  1.0703  0.8717 -0.1837
   51bbb     C5 1543   5.160   2.023   1.113  0.0037 -0.7160 -0.3053
   51bbb     H9 1544   5.148   2.127   1.145  1.2684 -0.6710  0.0769
   51bbb    H10 1545   5.180   2.035   1.005  1.2964 -0.4961 -0.0683
   51bbb     C6 1546   4.782   1.742   1.118 -0.0644 -0.2663 -0.0748
   51bbb    H11 1547   4.846   1.694   1.193  1.4480  1.4206 -0.2133
   51bbb    H12 1548   4.824   1.723   1.018 -2.2511 -0.0427 -1.0899
   51bbb     C7 1549   4.750   2.323   0.977 -0.2025 -0.0485 -0.1596
   51bbb    H13 1550   4.851   2.357   0.954 -0.6514  0.7841 -0.9958
   51bbb    H14 1551   4.738   2.371   1.075 -0.6529  0.2094 -0.3361
   51bbb     C8 1552   4.635   1.698   1.124  0.2511 -0.2173 -0.4028
   51bbb    H15 1553   4.575   1.766   1.062  1.7859  2.3292  0.7340
   51bbb    H16 1554   4.649   1.594   1.092  3.8423  0.0227 -0.0968
   51bbb     C9 1555   5.283   1.963   1.179 -0.8287  0.3387  0.5196
   51bbb    H17 1556   5.254   1.941   1.282  0.3997 -2.0494  0.4326
   51bbb    H18 1557   5.368   2.032   1.179 -1.0283  0.6205  2.3101
   51bbb     O1 1558   4.650   2.361   0.873 -1.0850 -0.1643  0.6174
   51bbb    H19 1559   4.923   1.949   0.977  1.9711 -1.0244  0.0603
   52bbb     N1 1560   3.369   2.866  -0.074  0.0464 -0.6028 -0.1712
   52bbb     C1 1561   3.438   2.885   0.062  0.1698 -0.3508  0.8039
   52bbb     H1 1562   3.536   2.932   0.048 -0.3311  0.2358 -0.8698
   52bbb     H2 1563   3.461   2.783   0.094 -0.2637 -0.2407  1.4912
   52bbb     C2 1564   3.348   2.998  -0.149  0.2804 -0.1022  0.7899
   52bbb     H3 1565   3.436   3.032  -0.203 -1.8840  1.8063 -1.8051
   52bbb     H4 1566   3.342   3.076  -0.073  1.3483  1.5895 -0.7866
   52bbb     C3 1567   3.453   2.775  -0.154 -0.2083  1.0012  0.1299
   52bbb     H5 1568   3.560   2.796  -0.143  0.0995  2.2437 -3.5868
   52bbb     H6 1569   3.441   2.796  -0.261  0.0855 -1.8311 -0.5349
   52bbb     C4 1570   3.431   2.623  -0.128  0.0750 -0.7653  0.5849
   52bbb     H7 1571   3.326   2.605  -0.156 -0.7729  1.1608  2.3426
   52bbb     H8 1572   3.447   2.610  -0.021  2.3558  0.4487  0.4466
   52bbb     C5 1573   3.361   2.947   0.178  0.0344  0.2898 -0.6175
   52bbb     H9 1574   3.273   2.883   0.188  0.2072 -0.1979 -2.0003
   52bbb    H10 1575   3.329   3.049   0.152 -0.4238 -0.1150 -1.7104
   52bbb     C6 1576   3.230   2.989  -0.242  0.3970  0.1703 -0.0538
   52bbb    H11 1577   3.248   2.895  -0.296  2.4288 -0.3687  1.4576
   52bbb    H12 1578   3.240   3.074  -0.312  0.5246  1.2094  1.1889
   52bbb     C7 1579   3.523   2.526  -0.214 -0.5391 -0.3203  0.5508
   52bbb    H13 1580   3.485   2.524  -0.317 -1.9053  0.1848  1.0219
   52bbb    H14 1581   3.512   2.422  -0.179  2.6792 -1.1799 -0.6258
   52bbb     C8 1582   3.084   2.996  -0.177  0.4331  0.4362  0.8338
   52bbb    H15 1583   3.069   3.092  -0.125 -0.9486  1.8576 -1.9636
   52bbb    H16 1584   3.011   2.992  -0.259 -0.2357  0.7459  1.3998
   52bbb     C9 1585   3.448   2.961   0.306  0.1312 -0.2872 -0.4437
   52bbb    H17 1586   3.390   3.016   0.381 -2.8391  0.0851 -2.8222
   52bbb    H18 1587   3.533   3.026   0.286  0.1420 -0.5429 -1.2847
   52bbb     O1 1588   3.660   2.576  -0.215  0.0894  0.0884 -0.0328
   52bbb    H19 1589   3.273   2.832  -0.061 -0.3632  0.8388  0.7219
   53bbb     N1 1590   3.781   2.005  -0.841 -0.8580 -0.4367  0.3278
   53bbb     C1 1591   3.632   1.978  -0.815 -0.6303 -0.1364  0.2571
   53bbb     H1 1592   3.584   1.938  -0.905 -0.3879  1.0387 -0.4159
   53bbb     H2 1593   3.582   2.073  -0.793 -0.2403  0.2002 -0.2814
   53bbb     C2 1594   3.842   1.902  -0.931 -0.0461  0.1491 -0.1313
   53bbb     H3 1595   3.826   1.803  -0.888 -0.2709 -0.6634 -1.9956
   53bbb     H4 1596   3.946   1.932  -0.932 -0.0777  0.4256 -3.2664
   53bbb     C3 1597   3.815   2.152  -0.872 -0.4747  0.0025  0.1414
   53bbb     H5 1598   3.755   2.185  -0.957 -0.6105 -1.5671 -0.4042
   53bbb     H6 1599   3.922   2.155  -0.895 -0.1068 -0.0213  1.7706
   53bbb     C4 1600   3.784   2.238  -0.750 -0.2705 -0.2936  0.2856
   53bbb     H7 1601   3.792   2.178  -0.659  0.8689 -0.9182 -0.2017
   53bbb     H8 1602   3.682   2.277  -0.762  0.2581  1.1139  0.1677
   53bbb     C5 1603   3.603   1.887  -0.696  0.3261  0.1097  0.0755
   53bbb     H9 1604   3.637   1.947  -0.611 -1.3515  0.7095  0.3545
   53bbb    H10 1605   3.659   1.793  -0.704 -1.7328 -1.0958 -1.1968
   53bbb     C6 1606   3.807   1.896  -1.079 -0.3920 -0.7642  0.4677
   53bbb    H11 1607   3.823   1.990  -1.133 -0.0797 -1.0933 -0.0192
   53bbb    H12 1608   3.699   1.881  -1.086 -0.1913 -1.9771 -0.3148
   53bbb     C7 1609   3.872   2.363  -0.750  0.5566  0.3313  0.1661
   53bbb    H13 1610   3.869   2.411  -0.848 -0.0301 -0.8676 -0.4182
   53bbb    H14 1611   3.976   2.337  -0.726  0.2672 -3.4959 -2.0091
   53bbb     C8 1612   3.868   1.771  -1.153  0.1213  0.1324  0.2898
   53bbb    H15 1613   3.815   1.746  -1.247 -0.6666 -1.1933  1.0519
   53bbb    H16 1614   3.974   1.781  -1.179 -0.4353 -0.0489 -2.3861
   53bbb     C9 1615   3.453   1.852  -0.683  0.2023  0.1055 -0.1316
   53bbb    H17 1616   3.447   1.778  -0.601  0.3380  0.2316 -0.0081
   53bbb    H18 1617   3.430   1.801  -0.777  1.1780 -0.2860 -0.1703
   53bbb     O1 1618   3.841   2.456  -0.644 -0.0116 -0.1369 -0.1751
   53bbb    H19 1619   3.827   1.982  -0.752 -3.3428 -2.3753  1.2294
   54bbb     N1 1620   6.548   7.004   0.938  0.4643  0.2100 -0.0955
   54bbb     C1 1621   6.475   7.050   1.062 -0.8872  0.1217  0.3852
   54bbb     H1 1622   6.502   7.155   1.071  1.7044 -0.1025 -2.7755
   54bbb     H2 1623   6.518   7.002   1.150  0.1459  2.1087  1.0085
   54bbb     C2 1624   6.689   7.049   0.939  0.5535 -0.0759  0.3026
   54bbb     H3 1625   6.749   6.958   0.945 -1.3765 -1.3116  2.0784
   54bbb     H4 1626   6.710   7.092   1.036  1.6477 -0.9249  0.4615
   54bbb     C3 1627   6.554   6.852   0.920  0.0214 -0.5189 -0.2863
   54bbb     H5 1628   6.463   6.813   0.965  0.0874 -3.0723 -2.2138
   54bbb     H6 1629   6.642   6.827   0.981 -0.3403  2.8308  1.9421
   54bbb     C4 1630   6.574   6.798   0.768 -0.6255 -0.6871 -0.6471
   54bbb     H7 1631   6.658   6.856   0.727  0.0866 -0.0003  1.6178
   54bbb     H8 1632   6.487   6.824   0.707 -0.0381  1.4641 -0.6403
   54bbb     C5 1633   6.324   7.020   1.049 -0.2683  0.0399 -0.2106
   54bbb     H9 1634   6.301   6.915   1.027  0.6652  0.1090 -1.5742
   54bbb    H10 1635   6.278   7.076   0.967 -1.2784  0.2822  0.4943
   54bbb     C6 1636   6.723   7.160   0.842 -0.8880 -0.1119  0.1510
   54bbb    H11 1637   6.629   7.216   0.828 -2.1945 -2.0243  0.7668
   54bbb    H12 1638   6.750   7.124   0.742  0.1785  2.4677 -0.5867
   54bbb     C7 1639   6.612   6.653   0.757 -0.0956 -0.0175 -0.0303
   54bbb    H13 1640   6.701   6.633   0.818  1.2725  0.2410 -1.8501
   54bbb    H14 1641   6.648   6.630   0.656  0.2587 -0.3558  0.1699
   54bbb     C8 1642   6.852   7.231   0.897 -0.2247  0.0743  0.4023
   54bbb    H15 1643   6.932   7.238   0.822 -1.6398  1.5262 -1.0555
   54bbb    H16 1644   6.806   7.327   0.921 -2.8715 -0.9618 -0.1606
   54bbb     C9 1645   6.250   7.070   1.170  0.2405 -0.1698  0.8250
   54bbb    H17 1646   6.303   7.026   1.256  2.1050 -1.7860 -1.0402
   54bbb    H18 1647   6.145   7.046   1.151  0.1150  1.6985 -1.2057
   54bbb     O1 1648   6.508   6.564   0.791  0.0511 -0.5736  0.0418
   54bbb    H19 1649   6.495   7.039   0.857 -1.0934 -0.1314  0.7459
   55bbb     N1 1650   6.489   6.523   1.718 -0.2781 -0.2383 -0.2903
   55bbb     C1 1651   6.393   6.534   1.836 -0.3612 -0.4850  0.1652
   55bbb     H1 1652   6.456   6.590   1.906  0.8188  1.8544 -2.5666
   55bbb     H2 1653   6.378   6.438   1.886 -0.0570 -0.5518  0.1332
   55bbb     C2 1654   6.621   6.480   1.790  0.3154  0.3096 -0.0229
   55bbb     H3 1655   6.627   6.548   1.875 -0.9662  1.6727 -0.9705
   55bbb     H4 1656   6.704   6.499   1.721  0.8240  1.0420  0.7653
   55bbb     C3 1657   6.443   6.411   1.624  0.0618  0.8197 -0.0634
   55bbb     H5 1658   6.426   6.320   1.681 -0.9437 -0.1773 -1.8890
   55bbb     H6 1659   6.529   6.380   1.564  0.3586 -0.6723  1.0639
   55bbb     C4 1660   6.321   6.432   1.529  0.0402  0.6611  0.7124
   55bbb     H7 1661   6.339   6.515   1.460 -0.3536 -1.2447 -1.8484
   55bbb     H8 1662   6.231   6.462   1.583  0.9194  3.0631  0.9776
   55bbb     C5 1663   6.267   6.615   1.817 -0.2450  0.0020 -0.4293
   55bbb     H9 1664   6.188   6.561   1.762  0.9830 -1.3821 -0.9052
   55bbb    H10 1665   6.292   6.700   1.752  0.1988 -0.1797 -0.5029
   55bbb     C6 1666   6.633   6.344   1.863  0.1334  0.5323 -0.1067
   55bbb    H11 1667   6.626   6.268   1.784  1.2744 -0.6582  0.8838
   55bbb    H12 1668   6.569   6.319   1.948  2.2056  1.5547  1.8572
   55bbb     C7 1669   6.300   6.305   1.444  0.0139 -0.1633 -0.0597
   55bbb    H13 1670   6.241   6.236   1.505 -0.7468  0.4995 -0.0205
   55bbb    H14 1671   6.391   6.253   1.413 -1.4106 -0.9430 -3.4191
   55bbb     C8 1672   6.781   6.334   1.908  0.1589  0.3079 -0.4581
   55bbb    H15 1673   6.796   6.229   1.933 -0.5122  0.1856 -0.5511
   55bbb    H16 1674   6.846   6.353   1.821  0.3980  0.3527 -0.2722
   55bbb     C9 1675   6.216   6.665   1.952  0.6334 -0.0109 -0.9779
   55bbb    H17 1676   6.181   6.582   2.015 -1.2525  2.3062  1.2827
   55bbb    H18 1677   6.129   6.726   1.924  0.2066 -1.2662 -2.5286
   55bbb     O1 1678   6.226   6.341   1.322  0.0653  0.1717 -0.1930
   55bbb    H19 1679   6.501   6.614   1.671 -2.1459 -0.2912 -0.9430
   56bbb     N1 1680   4.587   6.362   0.045 -0.8269  0.0455  0.1975
   56bbb     C1 1681   4.664   6.374  -0.077 -0.5548 -0.4277  0.1409
   56bbb     H1 1682   4.692   6.274  -0.109  1.3432 -0.2753  1.1917
   56bbb     H2 1683   4.755   6.431  -0.057 -0.8826  0.9292 -1.9141
   56bbb     C2 1684   4.470   6.267   0.019  0.5590  0.0323  0.7530
   56bbb     H3 1685   4.514   6.169  -0.000  2.0874  0.6942  0.7421
   56bbb     H4 1686   4.414   6.301  -0.068 -1.7814 -2.7308  1.0180
   56bbb     C3 1687   4.675   6.314   0.165  0.4816 -0.9983  0.1446
   56bbb     H5 1688   4.605   6.298   0.247  0.5062 -0.0038  0.3706
   56bbb     H6 1689   4.734   6.403   0.185 -2.5921  1.5432 -1.1455
   56bbb     C4 1690   4.751   6.184   0.148 -0.3092 -0.1799  0.0172
   56bbb     H7 1691   4.816   6.195   0.060 -0.8757  0.5728 -0.3176
   56bbb     H8 1692   4.680   6.103   0.129 -0.1793  0.0908 -1.8167
   56bbb     C5 1693   4.602   6.445  -0.197 -0.6832 -0.3509 -0.3893
   56bbb     H9 1694   4.573   6.549  -0.176 -1.4838 -0.3521 -1.4025
   56bbb    H10 1695   4.502   6.409  -0.224 -0.9124  1.0528 -1.5321
   56bbb     C6 1696   4.374   6.248   0.136  0.6332 -0.4243  0.3161
   56bbb    H11 1697   4.429   6.209   0.223  3.4753  1.4517 -0.4895
   56bbb    H12 1698   4.289   6.181   0.118  1.8291 -1.7756 -0.5863
   56bbb     C7 1699   4.836   6.149   0.268 -0.0067  0.3282  0.3981
   56bbb    H13 1700   4.773   6.137   0.357 -2.5733  1.2340 -1.1514
   56bbb    H14 1701   4.899   6.238   0.277  0.0649  0.2937  0.2418
   56bbb     C8 1702   4.317   6.379   0.187 -0.6119 -0.4556  0.0912
   56bbb    H15 1703   4.232   6.379   0.256  1.3118  0.3705  2.5864
   56bbb    H16 1704   4.396   6.431   0.243 -1.3037 -0.4461  1.0664
   56bbb     C9 1705   4.704   6.451  -0.320  0.5548  0.7249  0.2164
   56bbb    H17 1706   4.798   6.489  -0.279  0.3098 -0.4998  2.0050
   56bbb    H18 1707   4.654   6.510  -0.399  0.8961 -1.2801 -1.5776
   56bbb     O1 1708   4.903   6.025   0.236  0.2183 -0.1495  0.6312
   56bbb    H19 1709   4.553   6.456   0.069  0.9710  0.4204  1.5139
   57bbb     N1 1710   5.590   6.375  -0.033  0.2406 -0.4023  0.9703
   57bbb     C1 1711   5.561   6.379   0.108  0.2165 -0.1300  0.1594
   57bbb     H1 1712   5.578   6.484   0.132 -2.4601  1.1145 -2.7031
   57bbb     H2 1713   5.627   6.304   0.153  0.5321  0.1495  0.1647
   57bbb     C2 1714   5.727   6.429  -0.058 -0.1646  0.0441 -0.1627
   57bbb     H3 1715   5.733   6.426  -0.167 -0.2251  0.2330 -0.1730
   57bbb     H4 1716   5.803   6.360  -0.022  2.5694  1.8949 -1.9271
   57bbb     C3 1717   5.579   6.236  -0.081  0.8575  0.6842  0.3569
   57bbb     H5 1718   5.489   6.193  -0.037  0.3516 -0.2747 -1.5212
   57bbb     H6 1719   5.660   6.173  -0.043 -0.6340 -0.5081  1.7110
   57bbb     C4 1720   5.570   6.208  -0.233 -0.3719 -0.2191  0.2101
   57bbb     H7 1721   5.663   6.239  -0.282 -0.5778  1.3891  0.7501
   57bbb     H8 1722   5.490   6.266  -0.280  0.3182 -0.8206 -1.7940
   57bbb     C5 1723   5.419   6.337   0.149  0.0526  0.1458 -0.1293
   57bbb     H9 1724   5.391   6.350   0.254 -2.2726  0.3415 -0.7139
   57bbb    H10 1725   5.400   6.232   0.123 -0.0487 -0.3423  1.7919
   57bbb     C6 1726   5.769   6.567  -0.004 -0.0383 -0.5539  0.2974
   57bbb    H11 1727   5.813   6.557   0.096 -1.6800 -2.2406  0.8978
   57bbb    H12 1728   5.684   6.636  -0.006  0.7067  0.3870  0.1706
   57bbb     C7 1729   5.548   6.059  -0.274  0.1860  0.1114 -0.2294
   57bbb    H13 1730   5.642   6.030  -0.324  1.1916  1.3753  0.8761
   57bbb    H14 1731   5.470   6.064  -0.351  0.5429 -3.0798 -0.9217
   57bbb     C8 1732   5.888   6.633  -0.085  0.6385 -0.2432  0.5283
   57bbb    H15 1733   5.921   6.729  -0.045 -0.0711 -0.7321  2.4426
   57bbb    H16 1734   5.966   6.556  -0.082 -0.4846 -1.6597 -2.6577
   57bbb     C9 1735   5.311   6.415   0.069 -0.3604  0.8526  0.2392
   57bbb    H17 1736   5.207   6.385   0.088 -0.0950  0.0643  0.4696
   57bbb    H18 1737   5.330   6.388  -0.036  1.5034 -1.6183  1.1273
   57bbb     O1 1738   5.501   5.968  -0.166 -0.2295 -0.6074 -0.1180
   57bbb    H19 1739   5.519   6.425  -0.087 -0.1479  1.1675  2.8578
   58bbb     N1 1740   6.646   3.927  -0.775  0.7765  0.0327 -0.1502
   58bbb     C1 1741   6.789   3.953  -0.808  0.3465 -0.0748 -0.3032
   58bbb     H1 1742   6.788   3.972  -0.915 -1.3246 -3.5725 -1.0558
   58bbb     H2 1743   6.853   3.874  -0.768  0.4219 -1.0983 -2.3352
   58bbb     C2 1744   6.580   3.856  -0.893  0.4117  0.1532  0.0457
   58bbb     H3 1745   6.488   3.806  -0.862  0.4544  0.0997  0.0866
   58bbb     H4 1746   6.647   3.774  -0.920  0.3131 -0.1571  0.7324
   58bbb     C3 1747   6.635   3.839  -0.651 -0.5627 -0.4910  0.1036
   58bbb     H5 1748   6.728   3.783  -0.646 -0.8900 -1.3080 -1.9049
   58bbb     H6 1749   6.552   3.771  -0.668 -2.0839  1.2973  0.0373
   58bbb     C4 1750   6.623   3.919  -0.518 -0.2279  0.0524 -0.0024
   58bbb     H7 1751   6.533   3.981  -0.526 -1.0767 -1.3839 -2.7519
   58bbb     H8 1752   6.713   3.980  -0.517 -0.2991  0.1982 -1.1910
   58bbb     C5 1753   6.842   4.082  -0.746  0.6873  0.0672 -0.6990
   58bbb     H9 1754   6.862   4.055  -0.642  0.4911  1.2095 -0.3514
   58bbb    H10 1755   6.773   4.166  -0.736  0.6512 -0.0092 -0.3069
   58bbb     C6 1756   6.552   3.947  -1.017  0.2150  0.3855  0.2971
   58bbb    H11 1757   6.631   4.008  -1.063 -0.6614  0.1825 -1.5704
   58bbb    H12 1758   6.477   4.025  -1.000  0.0779  0.7516 -1.7086
   58bbb     C7 1759   6.623   3.819  -0.397 -0.5639  0.0824  0.0407
   58bbb    H13 1760   6.682   3.734  -0.433 -1.6042  0.1985 -2.1574
   58bbb    H14 1761   6.521   3.778  -0.387 -0.5666 -0.0272 -0.4286
   58bbb     C8 1762   6.507   3.853  -1.126 -0.4977 -0.4845  0.3550
   58bbb    H15 1763   6.513   3.896  -1.227 -2.2077  0.7415  0.7336
   58bbb    H16 1764   6.575   3.767  -1.132 -0.0080 -0.0370 -0.7186
   58bbb     C9 1765   6.980   4.126  -0.797  0.5570 -0.3107 -0.8252
   58bbb    H17 1766   7.018   4.204  -0.729 -0.5713  0.0979 -0.6532
   58bbb    H18 1767   6.961   4.164  -0.898 -1.2483 -0.9168 -0.7490
   58bbb     O1 1768   6.668   3.869  -0.267  0.3242  0.4784  0.3859
   58bbb    H19 1769   6.594   4.016  -0.766 -0.6420 -0.8569  1.0389
   59bbb     N1 1770   7.391   4.362   0.191 -0.0793  0.0912  0.2080
   59bbb     C1 1771   7.421   4.510   0.194 -0.2028 -0.5094 -0.0567
   59bbb     H1 1772   7.360   4.551   0.114  2.2890  2.4483 -0.6410
   59bbb     H2 1773   7.523   4.532   0.162 -0.1301 -0.9731 -0.1479
   59bbb     C2 1774   7.447   4.297   0.321  0.6291 -0.2730 -0.0068
   59bbb     H3 1775   7.377   4.324   0.401  0.8491  0.7943 -0.1544
   59bbb     H4 1776   7.545   4.340   0.340  1.0745 -1.9344  1.8257
   59bbb     C3 1777   7.247   4.337   0.165 -0.0542 -0.3513 -0.3086
   59bbb     H5 1778   7.200   4.433   0.145 -1.4270 -0.3416  2.4593
   59bbb     H6 1779   7.212   4.295   0.259  0.8152  0.1286  0.2397
   59bbb     C4 1780   7.222   4.234   0.052 -0.5127 -0.4786  0.1168
   59bbb     H7 1781   7.277   4.139   0.059  0.5865  0.2113  1.2583
   59bbb     H8 1782   7.265   4.280  -0.038  2.4605 -0.1530  1.5592
   59bbb     C5 1783   7.385   4.580   0.336  0.3161  0.7445 -0.2447
   59bbb     H9 1784   7.454   4.537   0.409  1.8475  1.1011 -1.4147
   59bbb    H10 1785   7.283   4.547   0.356  0.1870  0.8208 -0.7491
   59bbb     C6 1786   7.468   4.144   0.319 -0.0735 -0.7014 -0.2837
   59bbb    H11 1787   7.515   4.117   0.224 -1.9243  0.8081 -1.6995
   59bbb    H12 1788   7.369   4.097   0.310 -0.4079  0.0815 -0.7782
   59bbb     C7 1789   7.073   4.212   0.015 -0.5800 -0.2612  0.6212
   59bbb    H13 1790   7.075   4.142  -0.069  2.1108  0.6627 -0.2222
   59bbb    H14 1791   7.034   4.301  -0.035 -0.9546 -0.9821 -0.3962
   59bbb     C8 1792   7.554   4.109   0.446 -0.2093 -0.4751 -0.1195
   59bbb    H15 1793   7.509   4.156   0.534  0.4076  0.3411 -0.2180
   59bbb    H16 1794   7.550   4.000   0.449  0.2850 -0.5213 -0.8298
   59bbb     C9 1795   7.406   4.730   0.337  0.0280  0.6127 -0.0536
   59bbb    H17 1796   7.402   4.770   0.439  1.1336  1.8780 -0.4808
   59bbb    H18 1797   7.322   4.771   0.281  1.9214  1.4013 -2.4786
   59bbb     O1 1798   6.986   4.170   0.125  0.1494 -0.3338 -1.1733
   59bbb    H19 1799   7.444   4.321   0.112 -1.4068  0.0125 -0.6749
   60bbb     N1 1800   6.610   3.813   1.611  0.5029  0.3427 -0.5819
   60bbb     C1 1801   6.583   3.709   1.718  0.8955 -0.2161  0.3605
   60bbb     H1 1802   6.478   3.683   1.701 -0.1255  4.4706 -2.4123
   60bbb     H2 1803   6.585   3.750   1.819  1.0517 -2.8545  1.4988
   60bbb     C2 1804   6.735   3.901   1.646 -0.0478  0.2868 -0.1080
   60bbb     H3 1805   6.766   3.933   1.546 -0.0277 -1.3214 -0.6463
   60bbb     H4 1806   6.819   3.837   1.676  0.7976  1.0452 -0.7785
   60bbb     C3 1807   6.611   3.744   1.476 -0.3721  0.1295 -0.2175
   60bbb     H5 1808   6.694   3.673   1.477  0.3146  0.8915 -0.9801
   60bbb     H6 1809   6.650   3.817   1.405  1.2090 -1.9464 -1.5839
   60bbb     C4 1810   6.481   3.684   1.422 -0.2700 -0.1688  0.6217
   60bbb     H7 1811   6.410   3.762   1.395  0.3572 -0.4496 -2.0868
   60bbb     H8 1812   6.430   3.616   1.492 -2.9531 -1.5863 -2.4978
   60bbb     C5 1813   6.660   3.574   1.728  0.1791 -0.2295  0.2216
   60bbb     H9 1814   6.770   3.577   1.735  0.2486  0.2009 -0.7827
   60bbb    H10 1815   6.653   3.507   1.641  0.0602 -0.9042  0.7451
   60bbb     C6 1816   6.712   4.023   1.738  0.1063 -0.8538  0.6324
   60bbb    H11 1817   6.811   4.046   1.781  1.1938 -0.2619 -1.9728
   60bbb    H12 1818   6.637   4.003   1.815  0.3806 -0.0565  1.1223
   60bbb     C7 1819   6.499   3.614   1.285 -0.4794 -0.1783 -0.2392
   60bbb    H13 1820   6.402   3.581   1.244 -0.6754 -0.2511  0.2697
   60bbb    H14 1821   6.557   3.523   1.302 -0.6877 -1.1590 -4.0362
   60bbb     C8 1822   6.657   4.140   1.649 -0.2314 -0.0772 -0.3706
   60bbb    H15 1823   6.635   4.222   1.719  4.4265 -0.8217  2.4510
   60bbb    H16 1824   6.744   4.179   1.594  2.1036 -2.4912  1.3288
   60bbb     C9 1825   6.623   3.495   1.852  0.6196 -0.0340 -0.1285
   60bbb    H17 1826   6.532   3.438   1.834 -1.2799  2.3743  1.2101
   60bbb    H18 1827   6.610   3.561   1.939 -2.2607  0.3000 -0.7201
   60bbb     O1 1828   6.562   3.694   1.185 -0.4094  0.2573 -0.0394
   60bbb    H19 1829   6.531   3.878   1.620  0.3073 -0.0144  0.4162
   61bbb     N1 1830   7.166   3.346   0.953 -0.3843  0.1715 -0.2019
   61bbb     C1 1831   7.248   3.384   1.077 -0.3711 -0.9671  0.1707
   61bbb     H1 1832   7.305   3.475   1.058  0.0992 -1.4836 -1.0262
   61bbb     H2 1833   7.321   3.304   1.090  1.7585  0.3663 -2.4254
   61bbb     C2 1834   7.105   3.206   0.956  0.3862  0.0828 -0.6219
   61bbb     H3 1835   7.024   3.214   0.884  0.6849  1.3371 -0.8491
   61bbb     H4 1836   7.069   3.186   1.057  2.1904 -1.2801 -0.1887
   61bbb     C3 1837   7.047   3.434   0.914  0.1344  0.3222 -0.4397
   61bbb     H5 1838   6.952   3.411   0.961 -1.2782  0.2763 -3.1315
   61bbb     H6 1839   7.037   3.408   0.809 -1.1574  1.9885 -0.7609
   61bbb     C4 1840   7.060   3.585   0.948 -0.4863 -0.7963  0.4076
   61bbb     H7 1841   7.166   3.614   0.951 -0.6920 -0.0344  0.4831
   61bbb     H8 1842   7.013   3.607   1.044  0.4392 -1.2778  0.9901
   61bbb     C5 1843   7.161   3.394   1.206 -0.9106 -0.5638  0.8376
   61bbb     H9 1844   7.138   3.290   1.233  2.0296 -1.5040  0.0797
   61bbb    H10 1845   7.067   3.448   1.193  0.2323  1.9099  2.1369
   61bbb     C6 1846   7.210   3.100   0.916  0.3388  0.9224  0.1203
   61bbb    H11 1847   7.168   2.998   0.916  0.7079  0.7674 -0.1955
   61bbb    H12 1848   7.292   3.102   0.989  1.6820  0.4216 -1.3286
   61bbb     C7 1849   6.982   3.660   0.840  0.0001  0.0951 -0.1184
   61bbb    H13 1850   6.881   3.622   0.826 -0.0430  0.3692 -0.5825
   61bbb    H14 1851   7.034   3.642   0.745 -0.1207  1.1565 -0.3988
   61bbb     C8 1852   7.280   3.123   0.780  0.0691  0.1806 -0.4797
   61bbb    H15 1853   7.332   3.027   0.768  1.5613  0.6745  1.5408
   61bbb    H16 1854   7.215   3.146   0.695 -0.0512 -1.3084 -0.8278
   61bbb     C9 1855   7.246   3.446   1.323  0.1018 -0.1801  0.1221
   61bbb    H17 1856   7.328   3.380   1.351 -1.6474 -1.9844  1.1897
   61bbb    H18 1857   7.173   3.450   1.405 -1.8569 -0.2891 -1.5388
   61bbb     O1 1858   6.982   3.802   0.862  0.6250  0.1778  0.4754
   61bbb    H19 1859   7.227   3.350   0.871 -0.4339  2.6872 -0.2085
   62ccc     C1 1860   2.364   6.609   3.540  0.9420 -0.0175  0.8277
   62ccc     H1 1861   2.427   6.697   3.524  0.6601 -0.2176 -1.8185
   62ccc     H2 1862   2.282   6.630   3.610  1.1851  1.8316  0.6186
   62ccc     C2 1863   2.449   6.487   3.590 -0.1993 -0.1269  0.1384
   62ccc     H3 1864   2.460   6.498   3.698 -1.7809  0.8244  0.2351
   62ccc     H4 1865   2.544   6.502   3.536 -0.4292  3.7555  0.5136
   62ccc     C3 1866   2.393   6.352   3.553  0.0186  0.4783  0.6498
   62ccc     H5 1867   2.366   6.363   3.448 -0.3749  1.6461  0.8602
   62ccc     H6 1868   2.303   6.330   3.610  0.4097  1.1032  1.5243
   62ccc     N1 1869   2.507   6.242   3.560  0.0778 -0.3508 -0.7958
   62ccc     C4 1870   2.538   6.201   3.708  0.5750 -0.1622 -0.0573
   62ccc     H7 1871   2.577   6.289   3.760  3.1828 -1.3781  0.2150
   62ccc     H8 1872   2.620   6.130   3.702 -1.4857 -2.7458  0.6200
   62ccc     C5 1873   2.422   6.142   3.788 -0.4574  0.0888 -0.6132
   62ccc     H9 1874   2.363   6.222   3.833 -0.4493  0.1032 -0.6286
   62ccc    H10 1875   2.362   6.069   3.732 -0.5440 -0.2506 -0.0888
   62ccc     C6 1876   2.480   6.065   3.906  0.1215  0.0828  0.2184
   62ccc     O1 1877   2.513   6.120   4.005 -0.0303  0.6480 -0.1283
   62ccc     O2 1878   2.502   5.936   3.871  0.5851 -0.0554 -0.4560
   62ccc    H11 1879   2.575   5.909   3.931 -0.1754 -0.7606  0.1818
   62ccc     C7 1880   2.470   6.117   3.483 -0.0388 -0.5331 -0.2658
   62ccc    H12 1881   2.379   6.075   3.528  0.6801  0.0815  1.8668
   62ccc    H13 1882   2.444   6.150   3.382 -0.8371 -0.8971 -0.1930
   62ccc     C8 1883   2.581   6.007   3.464  0.2027  0.7161  0.4434
   62ccc    H14 1884   2.678   6.056   3.447  0.6210 -0.4811 -0.8225
   62ccc    H15 1885   2.587   5.951   3.558  1.0807  2.0985  1.2433
   62ccc     C9 1886   2.560   5.912   3.352  0.0896 -0.3309  0.2628
   62ccc     O3 1887   2.510   5.949   3.246  0.4602 -0.2026 -0.2882
   62ccc     O4 1888   2.621   5.797   3.365 -0.4375 -0.1828 -1.0810
   62ccc    H16 1889   2.599   5.763   3.277 -0.8082  1.8681 -1.8471
   62ccc     O5 1890   2.295   6.574   3.419 -0.1876  0.1316  0.2013
   62ccc    H17 1891   2.592   6.276   3.513  0.6679 -1.9285 -0.9456
   63ccc     C1 1892   1.936   6.063   2.976 -0.5314 -0.2935 -0.2791
   63ccc     H1 1893   1.858   6.090   3.049  0.3183 -0.7662  0.8444
   63ccc     H2 1894   1.882   6.033   2.886  0.2908 -2.6987 -0.0524
   63ccc     C2 1895   2.002   5.933   3.026 -0.3602 -0.4158 -0.2406
   63ccc     H3 1896   2.058   5.886   2.944  0.1057  0.6496 -0.5504
   63ccc     H4 1897   1.924   5.861   3.050 -1.4058 -0.0806 -2.3569
   63ccc     C3 1898   2.101   5.950   3.142  0.4370  0.4900  0.2388
   63ccc     H5 1899   2.159   6.041   3.128  1.4477  0.1741  2.0476
   63ccc     H6 1900   2.174   5.870   3.130  1.7097  1.1897  2.5941
   63ccc     N1 1901   2.033   5.940   3.280 -0.1227  0.4051 -0.7172
   63ccc     C4 1902   2.132   5.918   3.390 -0.2038  0.4821 -0.5013
   63ccc     H7 1903   2.084   5.923   3.488 -0.6910 -0.1553 -0.6969
   63ccc     H8 1904   2.202   6.001   3.391 -0.9697  1.1382 -0.4227
   63ccc     C5 1905   2.187   5.772   3.389 -0.1159  0.0183 -0.4658
   63ccc     H9 1906   2.103   5.704   3.408 -1.4170  1.6663 -0.0661
   63ccc    H10 1907   2.228   5.756   3.288  2.6207  1.3166  0.3271
   63ccc     C6 1908   2.298   5.767   3.498 -0.1271  0.3805 -0.4130
   63ccc     O1 1909   2.339   5.856   3.568 -0.4103 -0.2635 -0.0133
   63ccc     O2 1910   2.368   5.650   3.504 -0.6984 -0.2137 -0.1912
   63ccc    H11 1911   2.344   5.591   3.430  1.4077 -0.1120 -1.0312
   63ccc     C7 1912   1.945   6.061   3.312  0.5354  0.3242  0.6454
   63ccc    H12 1913   1.868   6.064   3.235 -2.1954 -2.2340  3.0021
   63ccc    H13 1914   1.890   6.049   3.406  2.0438  0.8597  1.6302
   63ccc     C8 1915   2.023   6.194   3.320 -0.6039 -0.2133 -0.0235
   63ccc    H14 1916   2.115   6.184   3.378  0.5714  0.4786 -1.6681
   63ccc    H15 1917   2.055   6.230   3.221  1.4034  0.6394  0.8721
   63ccc     C9 1918   1.944   6.297   3.389 -0.2793  0.1498 -0.0342
   63ccc     O3 1919   1.827   6.277   3.421  0.0711 -0.4741 -0.5732
   63ccc     O4 1920   2.021   6.394   3.442  0.3884  0.1053 -0.5497
   63ccc    H16 1921   1.961   6.463   3.476  0.6200 -0.5312  1.2719
   63ccc     O5 1922   2.042   6.161   2.959 -0.5072  0.6960 -0.5209
   63ccc    H17 1923   1.973   5.855   3.282  1.2750 -0.6237 -1.1271
   64ccc     C1 1924   3.024   6.971   2.024 -0.6037 -0.1999  0.4306
   64ccc     H1 1925   3.051   7.049   1.951 -0.8139  0.6652  1.2482
   64ccc     H2 1926   2.987   6.885   1.967 -0.5188  0.5670 -0.8263
   64ccc     C2 1927   2.901   6.999   2.118 -1.2060 -0.3982  0.0739
   64ccc     H3 1928   2.811   6.977   2.059 -0.3379 -2.4135 -0.6082
   64ccc     H4 1929   2.891   7.102   2.151  0.7250 -0.0281 -0.3725
   64ccc     C3 1930   2.898   6.897   2.233 -0.9830  0.1378 -0.2175
   64ccc     H5 1931   2.983   6.922   2.298 -0.4595  0.2626 -0.9448
   64ccc     H6 1932   2.903   6.795   2.195  1.9128 -0.3094  1.0843
   64ccc     N1 1933   2.769   6.918   2.318  0.6384  0.0144 -0.7024
   64ccc     C4 1934   2.643   6.873   2.248 -0.9700  1.3375  0.3948
   64ccc     H7 1935   2.613   6.943   2.170  0.9575  3.4041  1.4038
   64ccc     H8 1936   2.566   6.860   2.324  0.3486  1.8819  1.8670
   64ccc     C5 1937   2.650   6.736   2.183  0.1970 -0.4231  0.3532
   64ccc     H9 1938   2.726   6.740   2.104 -0.2753 -1.4163 -0.1807
   64ccc    H10 1939   2.679   6.656   2.251  1.1076 -1.3977 -1.1142
   64ccc     C6 1940   2.514   6.696   2.122  0.0288 -0.1185  0.5301
   64ccc     O1 1941   2.421   6.662   2.188  0.5702  0.2169 -0.3741
   64ccc     O2 1942   2.515   6.663   1.989  0.3621  0.0859  0.3266
   64ccc    H11 1943   2.600   6.685   1.947 -0.3535 -2.3424 -2.7913
   64ccc     C7 1944   2.782   6.837   2.450  0.0478  0.0633  0.0701
   64ccc    H12 1945   2.694   6.857   2.512  1.0437  1.0185  1.2199
   64ccc    H13 1946   2.776   6.730   2.428 -1.4815 -0.4241  2.4592
   64ccc     C8 1947   2.906   6.871   2.538 -0.1731 -0.0507  1.1569
   64ccc    H14 1948   3.003   6.857   2.489  1.0008 -0.4703  3.4181
   64ccc    H15 1949   2.890   6.974   2.572  1.2395  0.0846  1.4935
   64ccc     C9 1950   2.913   6.786   2.662  0.4136 -0.4328 -0.3868
   64ccc     O3 1951   2.826   6.793   2.749  0.5256 -0.6360  0.5178
   64ccc     O4 1952   3.023   6.705   2.668  0.3061 -0.7141  0.0451
   64ccc    H16 1953   3.009   6.662   2.754  2.4256  0.5483  1.0862
   64ccc     O5 1954   3.135   6.922   2.103 -0.3337 -0.6809  0.8731
   64ccc    H17 1955   2.759   7.017   2.342  2.5446  0.3087 -0.9775
   65ccc     C1 1956   3.948   6.750   2.004  0.3888 -1.2085 -0.6432
   65ccc     H1 1957   3.885   6.742   1.915 -1.4015 -2.5429  0.6776
   65ccc     H2 1958   4.020   6.831   1.991  0.8697 -1.5792 -0.3523
   65ccc     C2 1959   4.027   6.625   2.035  0.1665 -0.4259  0.2033
   65ccc     H3 1960   4.102   6.649   2.112  2.6352 -1.8740 -1.5886
   65ccc     H4 1961   4.085   6.606   1.943  0.9972  0.0289  0.6238
   65ccc     C3 1962   3.944   6.514   2.106 -0.1659  0.0567  0.1248
   65ccc     H5 1963   3.866   6.477   2.038 -0.0728 -0.8952  0.5273
   65ccc     H6 1964   3.902   6.555   2.198  1.5994  0.1338  0.9372
   65ccc     N1 1965   4.030   6.392   2.154  0.1617 -0.1536  0.1957
   65ccc     C4 1966   4.131   6.350   2.044  0.0428  0.2117 -0.5288
   65ccc     H7 1967   4.217   6.302   2.092 -0.4926 -0.3462 -0.1166
   65ccc     H8 1968   4.172   6.436   1.990 -0.4690  1.8748  1.6097
   65ccc     C5 1969   4.062   6.264   1.939  0.3111  0.3559 -0.1422
   65ccc     H9 1970   4.040   6.159   1.965 -1.2738  0.2866 -1.5408
   65ccc    H10 1971   3.969   6.317   1.916  1.0869  1.3845 -1.0031
   65ccc     C6 1972   4.147   6.254   1.813  0.0503  0.0044 -0.7180
   65ccc     O1 1973   4.237   6.174   1.802 -0.1643 -0.1409  0.1866
   65ccc     O2 1974   4.150   6.359   1.740  0.7029  0.7569 -0.1536
   65ccc    H11 1975   4.205   6.326   1.668 -0.2263  0.2273 -0.6439
   65ccc     C7 1976   4.101   6.422   2.278 -0.1786 -0.4443 -0.7941
   65ccc    H12 1977   4.158   6.335   2.311  0.6294  1.2065  2.5014
   65ccc    H13 1978   4.162   6.509   2.254  0.7917 -0.4157  1.5272
   65ccc     C8 1979   4.014   6.467   2.397 -0.2354  0.7516 -0.1820
   65ccc    H14 1980   3.956   6.558   2.377 -1.4180 -0.6469 -3.9835
   65ccc    H15 1981   3.930   6.398   2.414 -1.7398  1.4558 -3.8920
   65ccc     C9 1982   4.095   6.470   2.527  0.3245  0.4760 -0.1753
   65ccc     O3 1983   4.215   6.476   2.530 -0.0826 -0.1707  0.3370
   65ccc     O4 1984   4.015   6.503   2.632  0.3863  0.1055 -1.0269
   65ccc    H16 1985   4.077   6.523   2.704 -1.0001  0.2331  0.1797
   65ccc     O5 1986   3.865   6.783   2.115  0.0600  0.0354 -0.3166
   65ccc    H17 1987   3.962   6.315   2.170  0.8277 -0.7713  0.0886
   66ccc     C1 1988   3.394   6.585   3.912 -0.4706  0.0859  0.3496
   66ccc     H1 1989   3.487   6.538   3.946 -0.5875  0.5788  1.4049
   66ccc     H2 1990   3.408   6.694   3.909  1.2294 -0.1414 -0.8900
   66ccc     C2 1991   3.284   6.527   4.006  0.3043  0.3516 -0.3284
   66ccc     H3 1992   3.188   6.567   3.969 -1.4906 -3.4561 -0.2342
   66ccc     H4 1993   3.297   6.571   4.106 -1.7433  0.2339  0.0470
   66ccc     C3 1994   3.269   6.377   4.011  0.2179 -0.4210 -0.6037
   66ccc     H5 1995   3.364   6.326   4.026  0.4486 -0.1233 -1.0336
   66ccc     H6 1996   3.231   6.345   3.914  0.2541  0.9787 -1.1026
   66ccc     N1 1997   3.178   6.327   4.119 -0.0856 -0.6968 -0.3676
   66ccc     C4 1998   3.099   6.199   4.083 -0.4028  0.1482  0.1585
   66ccc     H7 1999   3.045   6.154   4.167 -0.5124  0.5890  0.3316
   66ccc     H8 2000   3.164   6.119   4.049 -1.1018  0.2025 -1.3966
   66ccc     C5 2001   2.986   6.232   3.982  0.0590 -0.1856 -0.3482
   66ccc     H9 2002   2.911   6.297   4.028  1.1464  1.2823 -0.5561
   66ccc    H10 2003   3.024   6.272   3.887  1.6313 -1.1396 -0.1591
   66ccc     C6 2004   2.908   6.110   3.940 -0.1511 -0.1110  0.4210
   66ccc     O1 2005   2.944   5.995   3.963 -0.4485  0.8677  0.2348
   66ccc     O2 2006   2.803   6.128   3.857 -0.1189 -0.2362  0.2621
   66ccc    H11 2007   2.822   6.217   3.822 -0.4549 -0.6197 -0.9400
   66ccc     C7 2008   3.273   6.308   4.238  0.2151  0.1434 -0.0557
   66ccc    H12 2009   3.342   6.224   4.231 -0.0528 -0.1627  0.8523
   66ccc    H13 2010   3.342   6.391   4.254 -1.8290  1.8051  0.7127
   66ccc     C8 2011   3.192   6.287   4.369  0.0173 -0.2847  0.1434
   66ccc    H14 2012   3.156   6.391   4.372  2.1068  0.5039 -0.3724
   66ccc    H15 2013   3.109   6.216   4.361  0.6427 -0.9229 -0.8049
   66ccc     C9 2014   3.283   6.263   4.485 -0.3001 -0.1006 -0.3744
   66ccc     O3 2015   3.406   6.270   4.487  0.2009 -0.3172 -0.1183
   66ccc     O4 2016   3.217   6.234   4.604  0.6774  0.9851  0.2918
   66ccc    H16 2017   3.290   6.204   4.660  2.2387 -0.3493 -2.2632
   66ccc     O5 2018   3.379   6.534   3.777 -0.0977  0.5000 -0.0112
   66ccc    H17 2019   3.106   6.396   4.147  0.4298  0.1311 -1.0530
   67ccc     C1 2020   4.222   6.390   3.555 -0.1050  0.4402 -0.2089
   67ccc     H1 2021   4.212   6.487   3.606 -0.4034 -0.4054  1.3886
   67ccc     H2 2022   4.291   6.324   3.608  1.2797 -0.2034 -2.6233
   67ccc     C2 2023   4.270   6.397   3.408 -0.6921 -0.4837  0.3056
   67ccc     H3 2024   4.349   6.473   3.411 -0.7566 -0.2266 -2.2801
   67ccc     H4 2025   4.202   6.433   3.330  0.7308  0.8328 -0.3873
   67ccc     C3 2026   4.336   6.260   3.359  0.2513  0.0374  0.1482
   67ccc     H5 2027   4.354   6.197   3.445 -0.4790  2.2434  2.0196
   67ccc     H6 2028   4.435   6.273   3.313 -0.5329 -2.2989 -2.4864
   67ccc     N1 2029   4.251   6.178   3.262  0.2316  0.4175 -0.0123
   67ccc     C4 2030   4.306   6.039   3.260 -0.2151  0.4799 -0.5487
   67ccc     H7 2031   4.227   5.974   3.222 -1.8460  3.5506 -2.7853
   67ccc     H8 2032   4.329   6.017   3.365  0.5902  3.7153  0.0660
   67ccc     C5 2033   4.432   6.020   3.173  0.1787 -0.3240  0.0320
   67ccc     H9 2034   4.414   6.065   3.075  1.8579  1.6378  0.5428
   67ccc    H10 2035   4.513   6.085   3.210  0.5758 -0.4952 -0.5239
   67ccc     C6 2036   4.472   5.872   3.165 -0.3296 -0.2348  0.3517
   67ccc     O1 2037   4.423   5.776   3.222 -0.1583 -0.2751 -0.7962
   67ccc     O2 2038   4.586   5.852   3.101 -0.4456 -0.0362  0.1758
   67ccc    H11 2039   4.607   5.931   3.050  0.9917  0.1364  0.9560
   67ccc     C7 2040   4.109   6.163   3.312 -0.8461  0.8998  0.0749
   67ccc    H12 2041   4.113   6.092   3.396 -0.1315 -0.3330 -0.9671
   67ccc    H13 2042   4.080   6.252   3.368  0.2884  0.7854  0.8778
   67ccc     C8 2043   3.999   6.119   3.217  0.3622  0.3901  0.5467
   67ccc    H14 2044   3.979   6.198   3.144  3.0978  0.6600 -0.0206
   67ccc    H15 2045   4.033   6.031   3.162  1.5934 -0.0938  2.0109
   67ccc     C9 2046   3.874   6.079   3.303 -0.0392  0.1043 -0.1625
   67ccc     O3 2047   3.882   6.069   3.423 -0.3666  0.2102  0.8851
   67ccc     O4 2048   3.777   6.019   3.237  0.3559  0.3083 -0.0242
   67ccc    H16 2049   3.788   6.037   3.142  0.1459  0.6709  0.0194
   67ccc     O5 2050   4.083   6.339   3.561 -0.3707 -0.2619 -0.2774
   67ccc    H17 2051   4.241   6.213   3.165 -3.0551 -0.4694 -0.1425
   68ccc     C1 2052   2.296   4.970   4.020 -1.0338  0.0743 -0.0011
   68ccc     H1 2053   2.220   4.992   3.944 -0.5947  0.7823 -0.2439
   68ccc     H2 2054   2.346   4.874   4.004 -0.2397 -0.0696  2.9060
   68ccc     C2 2055   2.244   4.977   4.162 -0.1521 -0.2048  0.1806
   68ccc     H3 2056   2.195   5.074   4.177  0.0193  0.4418 -2.8580
   68ccc     H4 2057   2.323   4.978   4.239 -0.2312  2.5648  0.3220
   68ccc     C3 2058   2.136   4.873   4.191  0.9465  0.3924 -0.0814
   68ccc     H5 2059   2.182   4.774   4.191 -0.2509 -0.2976  3.4703
   68ccc     H6 2060   2.053   4.877   4.120 -0.9162 -1.2933  1.8433
   68ccc     N1 2061   2.065   4.881   4.323  0.2193 -0.3186  0.6772
   68ccc     C4 2062   1.938   4.794   4.322 -0.5366 -0.7159 -0.1317
   68ccc     H7 2063   1.897   4.805   4.422  0.6808 -0.9918  0.4192
   68ccc     H8 2064   1.967   4.689   4.310  3.7519  0.5047 -2.3445
   68ccc     C5 2065   1.820   4.832   4.219  0.3212 -0.5403 -0.0299
   68ccc     H9 2066   1.789   4.931   4.255  2.7659 -0.0416  0.8641
   68ccc    H10 2067   1.857   4.850   4.117  1.7867  1.4608  0.7941
   68ccc     C6 2068   1.695   4.748   4.218  0.0965 -0.0056 -0.7993
   68ccc     O1 2069   1.684   4.657   4.297  0.3786  0.9124 -0.4844
   68ccc     O2 2070   1.589   4.794   4.151 -0.1254  0.0848  0.3242
   68ccc    H11 2071   1.620   4.863   4.089 -0.2077 -0.7275 -0.6368
   68ccc     C7 2072   2.161   4.838   4.436  0.0304  0.3431 -0.2399
   68ccc    H12 2073   2.171   4.731   4.452 -1.0359  0.2697 -0.0004
   68ccc    H13 2074   2.255   4.890   4.417  1.0737 -1.6438 -0.8505
   68ccc     C8 2075   2.102   4.892   4.577 -0.0503  1.1164 -0.7598
   68ccc    H14 2076   2.089   5.000   4.565 -2.3729  0.8267 -1.2610
   68ccc    H15 2077   2.010   4.837   4.600  0.9029 -0.1528  0.2497
   68ccc     C9 2078   2.203   4.837   4.690  0.1642 -0.0632  0.8385
   68ccc     O3 2079   2.310   4.794   4.664  0.0070 -0.0500  0.7331
   68ccc     O4 2080   2.158   4.858   4.812  0.4374  0.4058 -0.0052
   68ccc    H16 2081   2.215   4.807   4.871  0.4226  2.2800  1.7559
   68ccc     O5 2082   2.395   5.071   4.009  0.4486  0.0358  0.6443
   68ccc    H17 2083   2.042   4.981   4.337  0.7834 -0.1272  0.2831
   69ccc     C1 2084   2.244   5.760   4.186 -0.6039  0.0659 -0.0844
   69ccc     H1 2085   2.164   5.762   4.261  0.8940  1.4123  1.5546
   69ccc     H2 2086   2.318   5.689   4.225 -0.1636  0.7419  0.3328
   69ccc     C2 2087   2.296   5.903   4.190  0.0721  0.4278  0.7430
   69ccc     H3 2088   2.219   5.971   4.152  1.0820  1.1654 -0.0332
   69ccc     H4 2089   2.386   5.910   4.127 -0.4683  1.1452  0.0230
   69ccc     C3 2090   2.327   5.945   4.333  0.3786  0.0198  0.2222
   69ccc     H5 2091   2.403   5.874   4.365 -0.9182 -0.9770  1.1613
   69ccc     H6 2092   2.241   5.934   4.400  0.8545  0.7062  0.9666
   69ccc     N1 2093   2.385   6.091   4.347  0.0820 -0.5593 -0.3218
   69ccc     C4 2094   2.362   6.143   4.485 -0.2902  0.4967 -0.7448
   69ccc     H7 2095   2.439   6.217   4.505  0.9298 -0.7769 -0.5618
   69ccc     H8 2096   2.383   6.061   4.554 -2.0124 -0.1882 -0.9634
   69ccc     C5 2097   2.219   6.185   4.524 -0.4939  0.0413 -0.2826
   69ccc     H9 2098   2.189   6.264   4.453  2.7059  0.7715 -0.9597
   69ccc    H10 2099   2.159   6.093   4.532  2.1313 -1.8354 -0.7971
   69ccc     C6 2100   2.232   6.242   4.666  0.2424  0.4252  0.0378
   69ccc     O1 2101   2.330   6.302   4.706  0.0727  0.0348  0.2312
   69ccc     O2 2102   2.118   6.270   4.729 -0.1560 -0.2116 -0.1610
   69ccc    H11 2103   2.153   6.309   4.812 -0.5895  0.8182 -0.4370
   69ccc     C7 2104   2.533   6.085   4.314 -0.0668 -0.2175 -0.1564
   69ccc    H12 2105   2.576   6.026   4.395  0.7755  2.7008  1.6909
   69ccc    H13 2106   2.541   6.042   4.214 -0.1964 -1.3860  0.3131
   69ccc     C8 2107   2.603   6.221   4.313  0.3931 -0.7076 -0.1631
   69ccc    H14 2108   2.560   6.299   4.250 -0.3408 -0.5711  0.4855
   69ccc    H15 2109   2.615   6.257   4.416  0.3840 -0.5719 -0.2095
   69ccc     C9 2110   2.748   6.208   4.257 -0.0893  0.1798  0.0605
   69ccc     O3 2111   2.797   6.108   4.218  0.6066 -0.0166  0.7322
   69ccc     O4 2112   2.821   6.320   4.277  0.2840  0.1268 -0.0362
   69ccc    H16 2113   2.762   6.390   4.311  1.0371 -0.0754  1.8142
   69ccc     O5 2114   2.214   5.733   4.053  0.5813  0.5271  0.1741
   69ccc    H17 2115   2.337   6.156   4.284  0.9235  0.4197  0.0297
   70ccc     C1 2116   3.331   6.352   0.627  0.6164  0.5202  0.1809
   70ccc     H1 2117   3.406   6.420   0.670  0.7528  0.7889 -0.4750
   70ccc     H2 2118   3.361   6.250   0.651 -0.0323  0.4007  0.5110
   70ccc     C2 2119   3.316   6.366   0.476 -0.3415  0.0878  0.2922
   70ccc     H3 2120   3.247   6.294   0.429  1.1519 -0.8460 -0.5575
   70ccc     H4 2121   3.411   6.335   0.431  0.0056 -0.9865  1.7177
   70ccc     C3 2122   3.282   6.505   0.432  0.2492 -0.3404  0.7018
   70ccc     H5 2123   3.352   6.579   0.471 -2.4883  1.0703  3.3761
   70ccc     H6 2124   3.183   6.524   0.473  0.3959 -0.9882  1.3730
   70ccc     N1 2125   3.268   6.527   0.282  0.0003  1.0336 -0.1013
   70ccc     C4 2126   3.194   6.658   0.262 -0.6283  0.3719 -0.2385
   70ccc     H7 2127   3.169   6.660   0.156  0.0410  1.4643 -0.3928
   70ccc     H8 2128   3.255   6.742   0.296 -0.0951  0.3798 -1.1776
   70ccc     C5 2129   3.060   6.676   0.335  0.4962 -0.0703 -0.3679
   70ccc     H9 2130   2.989   6.600   0.300  0.9439  0.0393 -1.5628
   70ccc    H10 2131   3.062   6.667   0.444  2.4163  0.4119 -0.3298
   70ccc     C6 2132   2.990   6.813   0.318 -1.0218  0.1343 -0.8451
   70ccc     O1 2133   2.998   6.865   0.206  0.1126 -0.3161 -0.1585
   70ccc     O2 2134   3.000   6.890   0.428  0.8071  0.0340  0.1795
   70ccc    H11 2135   2.951   6.970   0.400  0.0563 -0.4735  0.0217
   70ccc     C7 2136   3.408   6.538   0.220 -0.6602  0.1748  0.2885
   70ccc    H12 2137   3.396   6.585   0.123  1.8991  0.1414 -0.1295
   70ccc    H13 2138   3.465   6.613   0.276  0.7429 -0.3179 -0.4352
   70ccc     C8 2139   3.504   6.410   0.192  0.4445 -0.2431 -0.0192
   70ccc    H14 2140   3.541   6.366   0.285  0.0809  0.5907  0.5273
   70ccc    H15 2141   3.442   6.335   0.142  0.1376 -0.0927  0.1286
   70ccc     C9 2142   3.622   6.449   0.112  0.0037 -0.0689  0.0560
   70ccc     O3 2143   3.661   6.565   0.108 -0.1930 -0.0259 -0.5462
   70ccc     O4 2144   3.703   6.347   0.106  0.6423  0.0010 -0.3775
   70ccc    H16 2145   3.644   6.273   0.127 -0.5756  1.0876  0.1053
   70ccc     O5 2146   3.206   6.386   0.682 -0.7842  0.0022 -0.2424
   70ccc    H17 2147   3.215   6.451   0.238  0.5459  0.3789  0.3453
   71ccc     C1 2148   2.943   7.055   0.775 -0.7967  0.3584 -0.1125
   71ccc     H1 2149   2.923   7.112   0.683  2.2040  1.6538 -0.0577
   71ccc     H2 2150   2.877   7.086   0.857  0.3078  1.8860  0.2243
   71ccc     C2 2151   3.088   7.092   0.814 -0.0299  0.2620 -0.1610
   71ccc     H3 2152   3.108   7.060   0.917 -1.3341 -1.7219 -0.4556
   71ccc     H4 2153   3.094   7.201   0.815 -0.3646  0.2900 -0.7255
   71ccc     C3 2154   3.194   7.044   0.715  0.1614  0.4129  0.5000
   71ccc     H5 2155   3.145   6.960   0.666  0.5364  0.8126 -0.5829
   71ccc     H6 2156   3.275   7.025   0.786 -0.3513  2.8601  1.8637
   71ccc     N1 2157   3.239   7.144   0.610 -0.1051 -0.0166  0.0044
   71ccc     C4 2158   3.355   7.222   0.668  0.3669 -0.6524 -0.0957
   71ccc     H7 2159   3.394   7.283   0.587 -1.4270  0.7883  0.0530
   71ccc     H8 2160   3.435   7.155   0.698 -0.5186 -1.8125 -0.2524
   71ccc     C5 2161   3.336   7.323   0.780 -0.2057  0.9799  0.3168
   71ccc     H9 2162   3.238   7.373   0.776  0.2372  1.7522 -1.9095
   71ccc    H10 2163   3.344   7.273   0.878  0.4389  2.1937  0.9056
   71ccc     C6 2164   3.443   7.434   0.772  0.1981 -0.0472 -0.0387
   71ccc     O1 2165   3.525   7.444   0.691 -0.4100  0.4526  0.3547
   71ccc     O2 2166   3.458   7.514   0.878  0.1790 -0.5850 -0.1764
   71ccc    H11 2167   3.382   7.502   0.937  0.9684 -0.2143  0.9429
   71ccc     C7 2168   3.281   7.065   0.491  0.5726  0.2834  0.4189
   71ccc    H12 2169   3.387   7.041   0.496  0.7469  0.6247 -1.1667
   71ccc    H13 2170   3.223   6.972   0.485  0.9512  0.0105  0.9307
   71ccc     C8 2171   3.274   7.142   0.351 -0.2468  0.3916  0.6953
   71ccc    H14 2172   3.177   7.195   0.344 -0.1756  0.4339 -0.0945
   71ccc    H15 2173   3.361   7.209   0.355  0.4914 -0.5333  0.3725
   71ccc     C9 2174   3.273   7.049   0.227  0.4696  0.4848 -0.0737
   71ccc     O3 2175   3.306   6.937   0.235  0.2199 -0.3196 -0.5463
   71ccc     O4 2176   3.175   7.085   0.142  0.2148  0.1260 -0.0540
   71ccc    H16 2177   3.166   7.007   0.085  0.0540  1.1952 -1.5306
   71ccc     O5 2178   2.935   6.913   0.767 -0.7631  0.4691 -0.1969
   71ccc    H17 2179   3.167   7.213   0.582  0.7187  0.5552 -0.7797
   72ccc     C1 2180   2.208   6.098   2.091  0.2091 -0.2341  0.4810
   72ccc     H1 2181   2.312   6.099   2.125  0.3184 -2.5758  0.3872
   72ccc     H2 2182   2.146   6.153   2.162 -0.6855 -1.2391  0.5072
   72ccc     C2 2183   2.168   5.953   2.082 -0.0269  0.4974  0.0627
   72ccc     H3 2184   2.058   5.958   2.074  0.0672  1.4114 -1.0112
   72ccc     H4 2185   2.193   5.910   2.179 -2.5518  2.0925  1.5384
   72ccc     C3 2186   2.234   5.883   1.962  0.2902  0.5173  0.2444
   72ccc     H5 2187   2.334   5.924   1.959 -0.3061  2.0633  0.5792
   72ccc     H6 2188   2.180   5.918   1.874 -0.0214  0.4282  0.3976
   72ccc     N1 2189   2.227   5.731   1.970 -0.5049 -0.0631 -0.4968
   72ccc     C4 2190   2.251   5.671   1.831 -0.2884 -0.3398  0.0431
   72ccc     H7 2191   2.193   5.718   1.751  0.7730  3.3160  1.2317
   72ccc     H8 2192   2.233   5.564   1.835  2.9813 -0.9496  0.8624
   72ccc     C5 2193   2.394   5.670   1.787  0.1195  0.0354  0.3830
   72ccc     H9 2194   2.444   5.767   1.796  1.0281 -0.4599  0.8510
   72ccc    H10 2195   2.449   5.601   1.852 -0.2174 -0.8170 -0.2213
   72ccc     C6 2196   2.415   5.603   1.652 -0.2216  0.5241 -0.2821
   72ccc     O1 2197   2.346   5.514   1.612  0.0974 -0.1969 -0.7992
   72ccc     O2 2198   2.492   5.674   1.570 -0.0081 -0.0550  0.7488
   72ccc    H11 2199   2.483   5.606   1.500 -0.0607  0.6170  0.0872
   72ccc     C7 2200   2.315   5.681   2.085  0.2102  1.1758 -0.7746
   72ccc    H12 2201   2.415   5.713   2.057 -0.1649  1.2865 -2.0384
   72ccc    H13 2202   2.292   5.734   2.177 -0.7806  0.6113 -0.6846
   72ccc     C8 2203   2.294   5.527   2.112 -0.0215  0.4058 -0.6706
   72ccc    H14 2204   2.194   5.514   2.153  0.6019 -1.4493  0.3873
   72ccc    H15 2205   2.297   5.467   2.019 -0.0393 -2.9367  1.3068
   72ccc     C9 2206   2.398   5.469   2.207 -0.1570  0.3167 -0.0011
   72ccc     O3 2207   2.504   5.515   2.246  0.0815 -0.6638  0.2219
   72ccc     O4 2208   2.371   5.340   2.247 -0.2598 -0.0186 -0.4786
   72ccc    H16 2209   2.302   5.298   2.194  0.5265 -2.2762  0.1887
   72ccc     O5 2210   2.200   6.159   1.958 -0.1376 -0.1067  0.0567
   72ccc    H17 2211   2.129   5.710   1.990 -0.6105 -0.0485 -0.9749
   73ccc     C1 2212   1.444   6.330   1.327  0.0824  0.7727  0.1970
   73ccc     H1 2213   1.420   6.410   1.398 -0.1908  0.4697  0.4499
   73ccc     H2 2214   1.422   6.367   1.226  0.6759  0.4894 -0.0415
   73ccc     C2 2215   1.371   6.201   1.363 -0.1816 -0.2926 -1.3780
   73ccc     H3 2216   1.414   6.122   1.299  0.8589  0.1422 -1.2399
   73ccc     H4 2217   1.267   6.214   1.329 -1.0301 -1.5640  0.5554
   73ccc     C3 2218   1.364   6.183   1.515  0.3819 -0.3397 -0.1366
   73ccc     H5 2219   1.282   6.244   1.554 -0.3148  0.4099 -2.6043
   73ccc     H6 2220   1.463   6.202   1.555  1.3387 -1.0922 -2.0420
   73ccc     N1 2221   1.330   6.038   1.555  0.1809  0.1806  0.3903
   73ccc     C4 2222   1.429   5.941   1.487  0.7538  0.0506 -0.0223
   73ccc     H7 2223   1.420   5.948   1.379  0.7893  1.3686  0.0451
   73ccc     H8 2224   1.406   5.844   1.531  0.3459  0.1854  0.0578
   73ccc     C5 2225   1.578   5.963   1.519 -0.2087  0.2986 -0.1056
   73ccc     H9 2226   1.605   6.068   1.502 -0.9064  0.2734 -1.4421
   73ccc    H10 2227   1.601   5.936   1.623 -0.9108  1.3804  0.3468
   73ccc     C6 2228   1.671   5.876   1.442  0.5549 -0.4514 -0.1579
   73ccc     O1 2229   1.631   5.782   1.377  0.1142  0.5641 -0.0166
   73ccc     O2 2230   1.796   5.884   1.484 -0.3991  0.3459  0.0581
   73ccc    H11 2231   1.820   5.799   1.445 -0.5873  0.1241  0.4198
   73ccc     C7 2232   1.326   6.017   1.706 -0.5937 -0.5732  0.5188
   73ccc    H12 2233   1.300   5.913   1.727 -0.6826 -0.6845 -0.1341
   73ccc    H13 2234   1.424   6.041   1.747 -0.3942 -0.2975 -0.1183
   73ccc     C8 2235   1.211   6.088   1.778 -1.0187 -0.0595 -0.2870
   73ccc    H14 2236   1.219   6.197   1.767  0.3501 -0.0887  0.2174
   73ccc    H15 2237   1.114   6.055   1.737 -2.2341  0.3320  2.0847
   73ccc     C9 2238   1.199   6.062   1.924  0.2818  0.3271 -0.1401
   73ccc     O3 2239   1.275   5.992   1.984  0.2163 -0.8118  0.1561
   73ccc     O4 2240   1.127   6.152   1.994 -0.4963 -0.2048 -0.2702
   73ccc    H16 2241   1.153   6.137   2.086 -2.1623  2.3736  0.7444
   73ccc     O5 2242   1.586   6.294   1.333  0.8865  0.2123 -0.6149
   73ccc    H17 2243   1.241   6.023   1.506  0.6908 -1.6602 -0.0527
   74ccc     C1 2244   3.890   5.006   0.496  0.3030 -0.8057  0.0149
   74ccc     H1 2245   3.971   4.999   0.423  0.7706  3.0755 -0.0678
   74ccc     H2 2246   3.819   5.084   0.464 -0.0946 -1.7597 -1.5243
   74ccc     C2 2247   3.953   5.041   0.633  0.2446 -0.4222  0.2270
   74ccc     H3 2248   3.879   5.038   0.714  1.2922 -1.4097  1.1773
   74ccc     H4 2249   3.995   5.143   0.632 -0.3215 -0.1676  1.1002
   74ccc     C3 2250   4.058   4.939   0.672  0.0662 -0.2043 -0.2187
   74ccc     H5 2251   4.129   4.939   0.589  1.0608  0.3609  0.6179
   74ccc     H6 2252   4.009   4.841   0.679  0.5205 -0.4486 -0.4124
   74ccc     N1 2253   4.136   4.980   0.804 -0.1243 -0.4214 -0.0549
   74ccc     C4 2254   4.219   4.865   0.847 -0.6312 -0.6002  0.3710
   74ccc     H7 2255   4.289   4.906   0.919  0.8650 -3.5425  0.7150
   74ccc     H8 2256   4.272   4.824   0.761 -1.3133 -1.3864  0.3092
   74ccc     C5 2257   4.141   4.757   0.922  0.2488  0.2931  0.7716
   74ccc     H9 2258   4.071   4.709   0.852  0.7307 -0.1860  0.6186
   74ccc    H10 2259   4.214   4.679   0.944  0.5534 -0.1976 -1.6767
   74ccc     C6 2260   4.078   4.795   1.051 -0.2679 -0.0418 -0.5038
   74ccc     O1 2261   4.127   4.868   1.136 -0.0699  0.6408 -0.2689
   74ccc     O2 2262   3.983   4.718   1.093  0.4916  0.4716  0.0350
   74ccc    H11 2263   3.955   4.746   1.182  1.3309  0.0954  0.4208
   74ccc     C7 2264   4.220   5.115   0.790  0.9114  0.2622 -0.1847
   74ccc    H12 2265   4.149   5.190   0.753  0.6147 -0.2403 -0.6618
   74ccc    H13 2266   4.268   5.151   0.881  0.4850 -0.9440  0.5440
   74ccc     C8 2267   4.327   5.119   0.684 -0.2936 -0.5721 -0.0435
   74ccc    H14 2268   4.298   5.057   0.598  0.4152  0.7356 -1.2559
   74ccc    H15 2269   4.347   5.222   0.655  4.1210 -0.3470  2.8799
   74ccc     C9 2270   4.460   5.063   0.731 -0.1012  0.4774 -0.5262
   74ccc     O3 2271   4.487   5.019   0.845  1.1401 -0.2359 -0.4789
   74ccc     O4 2272   4.566   5.077   0.653  0.0797  0.1053  0.5972
   74ccc    H16 2273   4.540   5.120   0.570  0.0022 -1.2773 -0.1345
   74ccc     O5 2274   3.821   4.881   0.500 -0.4366  0.9461  0.4424
   74ccc    H17 2275   4.064   5.003   0.874 -0.1744  0.4931 -0.3938
   75ccc     C1 2276   3.306   5.320   0.763  0.1250  0.0059  0.5134
   75ccc     H1 2277   3.257   5.248   0.829 -1.8324  0.6249 -0.2043
   75ccc     H2 2278   3.373   5.384   0.821  1.3479  0.2385 -1.0689
   75ccc     C2 2279   3.194   5.410   0.703 -0.0035 -0.6098 -0.1356
   75ccc     H3 2280   3.145   5.466   0.783  1.6243  0.0002  0.4700
   75ccc     H4 2281   3.121   5.342   0.659  1.3673 -1.9158 -0.4993
   75ccc     C3 2282   3.250   5.502   0.596  0.2085  0.8733 -0.3060
   75ccc     H5 2283   3.330   5.455   0.539 -0.3172 -0.3592 -0.0569
   75ccc     H6 2284   3.292   5.594   0.637  2.3889 -0.3966  0.4840
   75ccc     N1 2285   3.151   5.545   0.496 -0.2912  0.0319  0.1028
   75ccc     C4 2286   3.036   5.631   0.557  0.0687  0.8313 -0.4140
   75ccc     H7 2287   3.061   5.727   0.602  1.8448 -0.1079  0.7448
   75ccc     H8 2288   2.989   5.575   0.638  1.3628  0.7192  0.2956
   75ccc     C5 2289   2.922   5.642   0.459  0.5565  0.2332  0.1496
   75ccc     H9 2290   2.945   5.711   0.377  2.8480 -0.5684  0.0470
   75ccc    H10 2291   2.893   5.543   0.421 -1.6970  0.7697  0.2954
   75ccc     C6 2292   2.793   5.706   0.522 -0.0427 -0.1830  0.9056
   75ccc     O1 2293   2.796   5.744   0.637 -0.0068  0.2507  0.3487
   75ccc     O2 2294   2.690   5.710   0.441  0.5670  0.1846 -0.0945
   75ccc    H11 2295   2.715   5.668   0.357 -0.4425  0.2148 -0.4341
   75ccc     C7 2296   3.220   5.626   0.392 -0.3016  0.3026 -0.3397
   75ccc    H12 2297   3.146   5.684   0.337  0.6920  1.4557 -0.4917
   75ccc    H13 2298   3.277   5.706   0.440 -0.2389  0.0818 -0.0426
   75ccc     C8 2299   3.299   5.561   0.287 -0.6045  0.2996 -0.8129
   75ccc    H14 2300   3.368   5.491   0.336 -0.2536  0.4243 -1.1267
   75ccc    H15 2301   3.235   5.497   0.226  0.4331  0.2068 -1.8417
   75ccc     C9 2302   3.374   5.656   0.195  0.1440 -0.8976  0.2437
   75ccc     O3 2303   3.352   5.779   0.189  0.1755  0.0009  0.3473
   75ccc     O4 2304   3.423   5.604   0.090 -0.0645  0.0913 -0.2709
   75ccc    H16 2305   3.456   5.682   0.042 -2.5313  0.3987 -1.6231
   75ccc     O5 2306   3.382   5.253   0.658 -0.2839 -0.2004 -0.1333
   75ccc    H17 2307   3.116   5.464   0.444 -2.5570  0.7570  0.4100
   76ccc     C1 2308   1.658   4.440   0.905  0.0317  0.1861  0.2400
   76ccc     H1 2309   1.612   4.341   0.905  1.1140 -0.3399  0.1347
   76ccc     H2 2310   1.745   4.437   0.973  1.8523  0.9712 -1.9089
   76ccc     C2 2311   1.546   4.538   0.948 -0.0602  0.0865 -0.1726
   76ccc     H3 2312   1.589   4.639   0.936 -2.0128  1.0905  0.8097
   76ccc     H4 2313   1.511   4.522   1.050 -3.1465 -0.6551 -1.2668
   76ccc     C3 2314   1.415   4.545   0.864 -0.3745 -0.0101  0.4311
   76ccc     H5 2315   1.369   4.449   0.888 -0.4092 -0.0656  0.1484
   76ccc     H6 2316   1.440   4.537   0.758 -1.0032  0.2005  0.2620
   76ccc     N1 2317   1.322   4.669   0.867  0.6683  0.1467 -0.0327
   76ccc     C4 2318   1.276   4.684   1.009 -0.4734  0.4897 -0.2799
   76ccc     H7 2319   1.368   4.687   1.067 -0.5161  2.4101 -0.2562
   76ccc     H8 2320   1.221   4.594   1.035 -1.2172  1.2118  0.6888
   76ccc     C5 2321   1.188   4.808   1.039 -0.3470 -0.5698  0.0396
   76ccc     H9 2322   1.254   4.894   1.022  0.9831 -1.7258 -0.8863
   76ccc    H10 2323   1.100   4.805   0.973 -1.5346  2.6784  1.2605
   76ccc     C6 2324   1.135   4.813   1.183  0.2671  0.0538  0.4115
   76ccc     O1 2325   1.152   4.728   1.271 -0.3812 -0.3126  0.0103
   76ccc     O2 2326   1.059   4.917   1.203 -0.1203 -0.1505  0.0546
   76ccc    H11 2327   1.033   4.898   1.295  0.4719  1.4679  0.5968
   76ccc     C7 2328   1.387   4.790   0.803 -0.3264 -0.1726 -0.4854
   76ccc    H12 2329   1.322   4.877   0.814 -0.0362 -0.0276  0.1355
   76ccc    H13 2330   1.478   4.808   0.860  0.7051  0.0345 -2.1143
   76ccc     C8 2331   1.416   4.765   0.660 -0.8073 -0.5983  0.2757
   76ccc    H14 2332   1.500   4.696   0.649  0.1600  0.3157  1.6845
   76ccc    H15 2333   1.327   4.728   0.607 -0.1614 -1.2253 -0.3919
   76ccc     C9 2334   1.462   4.895   0.595  0.5556 -0.6098 -0.9112
   76ccc     O3 2335   1.492   4.995   0.653 -0.0369  0.1721  0.5650
   76ccc     O4 2336   1.476   4.886   0.469  0.2186 -0.0645  0.2892
   76ccc    H16 2337   1.516   4.972   0.449 -0.6978 -0.0644 -1.7960
   76ccc     O5 2338   1.707   4.478   0.776  0.3133 -0.2258  0.1600
   76ccc    H17 2339   1.232   4.642   0.824 -0.5817 -0.4760  2.7096
   77ccc     C1 2340   1.406   4.450  -0.021  0.7866  0.2473 -0.5047
   77ccc     H1 2341   1.382   4.537  -0.083 -1.2044  1.6418  1.9953
   77ccc     H2 2342   1.474   4.380  -0.070  1.5636  0.5016  0.1896
   77ccc     C2 2343   1.278   4.368   0.014  0.8335 -0.6390  0.3747
   77ccc     H3 2344   1.296   4.269   0.057  0.3291 -1.1491 -0.5415
   77ccc     H4 2345   1.215   4.350  -0.075  1.5445  1.6262 -0.6726
   77ccc     C3 2346   1.175   4.453   0.097 -0.0163 -0.2071 -0.0894
   77ccc     H5 2347   1.083   4.399   0.122  0.6051 -0.9297  0.6988
   77ccc     H6 2348   1.150   4.544   0.043 -0.1222 -0.4380 -0.4365
   77ccc     N1 2349   1.225   4.483   0.240 -0.1235  0.5924  0.3194
   77ccc     C4 2350   1.162   4.608   0.295 -0.0111 -0.2146  0.1474
   77ccc     H7 2351   1.168   4.605   0.404 -0.2845 -1.2051  0.1413
   77ccc     H8 2352   1.056   4.601   0.269 -0.0652  1.4640 -0.2004
   77ccc     C5 2353   1.226   4.740   0.238  0.5343 -0.0570  0.3382
   77ccc     H9 2354   1.334   4.734   0.255  0.6544  0.5231 -0.1771
   77ccc    H10 2355   1.213   4.750   0.129 -0.6477 -0.5096  0.4289
   77ccc     C6 2356   1.180   4.866   0.318  0.1347 -0.0479 -0.1854
   77ccc     O1 2357   1.094   4.858   0.402  0.7325  0.2761 -0.5743
   77ccc     O2 2358   1.259   4.972   0.301  0.4493  0.3614  0.2841
   77ccc    H11 2359   1.322   4.951   0.230  0.0238 -0.1168  0.0444
   77ccc     C7 2360   1.207   4.357   0.331  0.0635 -0.0868 -0.2735
   77ccc    H12 2361   1.181   4.399   0.429 -0.4772 -1.1993  0.0788
   77ccc    H13 2362   1.130   4.287   0.300  0.9368 -1.5049  0.6248
   77ccc     C8 2363   1.339   4.277   0.354 -0.3194 -0.4786 -0.1547
   77ccc    H14 2364   1.318   4.188   0.414  0.5316 -1.5560 -1.3852
   77ccc    H15 2365   1.385   4.237   0.263 -0.9031 -1.6982  0.0610
   77ccc     C9 2366   1.434   4.372   0.439  1.1308  0.5392 -0.2097
   77ccc     O3 2367   1.398   4.486   0.471 -0.7341 -0.3785  0.1940
   77ccc     O4 2368   1.555   4.313   0.471  0.0825 -0.0925 -0.2054
   77ccc    H16 2369   1.548   4.218   0.447 -1.5372  0.3809 -1.8538
   77ccc     O5 2370   1.465   4.494   0.106  0.2793 -0.0294  0.0455
   77ccc    H17 2371   1.325   4.506   0.231 -0.0668  0.1895 -0.0954
   78ccc     C1 2372   2.771   2.073   2.811  0.3990  0.2292  1.0771
   78ccc     H1 2373   2.750   1.981   2.756  0.1264  1.2428 -0.5633
   78ccc     H2 2374   2.880   2.073   2.825  0.2719  0.2830  2.1636
   78ccc     C2 2375   2.698   2.076   2.942 -0.0474 -0.2301  0.0862
   78ccc     H3 2376   2.595   2.056   2.911  0.6537 -1.7189 -1.4321
   78ccc     H4 2377   2.716   2.176   2.985 -2.4158  0.2489  0.1083
   78ccc     C3 2378   2.750   1.967   3.034  0.5062 -0.4821  0.4040
   78ccc     H5 2379   2.841   2.004   3.082 -0.7891  1.7327  1.2839
   78ccc     H6 2380   2.784   1.885   2.971  1.2299 -0.1123  0.2971
   78ccc     N1 2381   2.663   1.915   3.140  0.1051  0.1138  0.4382
   78ccc     C4 2382   2.737   1.806   3.216 -0.5965  0.6273 -0.2348
   78ccc     H7 2383   2.709   1.810   3.321  0.2859  0.6688  0.0138
   78ccc     H8 2384   2.844   1.830   3.212  1.2711 -5.8718  0.3240
   78ccc     C5 2385   2.730   1.662   3.159 -1.0242  0.4429 -0.1500
   78ccc     H9 2386   2.633   1.612   3.163 -1.5297  1.2765 -1.2955
   78ccc    H10 2387   2.761   1.671   3.055 -1.2194 -1.3859 -0.3946
   78ccc     C6 2388   2.833   1.562   3.225  0.9049 -0.1509  0.4434
   78ccc     O1 2389   2.866   1.575   3.343 -0.0937 -0.0001  0.3146
   78ccc     O2 2390   2.878   1.459   3.157  0.3236 -0.6755 -0.5658
   78ccc    H11 2391   2.813   1.460   3.085  1.4488  0.6021 -1.6105
   78ccc     C7 2392   2.617   2.024   3.236 -0.2295  0.0233 -0.6681
   78ccc    H12 2393   2.555   2.089   3.174  1.1217 -0.5257 -2.7260
   78ccc    H13 2394   2.569   1.978   3.322  0.4575 -1.6635 -1.1459
   78ccc     C8 2395   2.741   2.106   3.285 -0.7121 -0.6602  0.2274
   78ccc    H14 2396   2.813   2.044   3.341  0.1812  0.6938  0.6103
   78ccc    H15 2397   2.795   2.151   3.201 -1.8280 -0.2700 -0.3048
   78ccc     C9 2398   2.703   2.222   3.378 -0.7829  0.1400  0.4107
   78ccc     O3 2399   2.598   2.231   3.429 -0.4676 -1.0530 -0.0199
   78ccc     O4 2400   2.788   2.327   3.372  0.4350 -0.2870  0.2335
   78ccc    H16 2401   2.758   2.389   3.441  1.5858  0.0537  0.4426
   78ccc     O5 2402   2.753   2.192   2.736  0.4077 -0.6072  0.1423
   78ccc    H17 2403   2.576   1.874   3.102  0.2716  0.7382 -0.6687
   79ccc     C1 2404   2.534   2.467   3.107  0.0943 -0.4366  0.6862
   79ccc     H1 2405   2.566   2.419   3.201  1.3761 -2.2568 -0.6021
   79ccc     H2 2406   2.507   2.571   3.125  2.4714  0.2833  0.4942
   79ccc     C2 2407   2.423   2.380   3.054 -0.6138 -0.0498  0.4522
   79ccc     H3 2408   2.362   2.353   3.141 -0.4319  3.1494  1.7265
   79ccc     H4 2409   2.470   2.295   3.003 -1.5268  0.3469 -1.0946
   79ccc     C3 2410   2.345   2.453   2.947  0.3073 -0.0738  0.0397
   79ccc     H5 2411   2.416   2.480   2.869 -0.3598 -0.8638 -0.8709
   79ccc     H6 2412   2.301   2.545   2.985  0.5065  0.0230  0.0344
   79ccc     N1 2413   2.234   2.372   2.880  0.4878  0.6863  0.8004
   79ccc     C4 2414   2.153   2.437   2.774 -0.2367  0.6965  0.8243
   79ccc     H7 2415   2.074   2.370   2.739 -0.6347  1.2112  0.7327
   79ccc     H8 2416   2.224   2.457   2.693 -0.9067  2.0814  0.5541
   79ccc     C5 2417   2.075   2.561   2.815  0.6598  0.2566 -0.3664
   79ccc     H9 2418   1.997   2.521   2.881  0.2897 -0.5685 -1.2777
   79ccc    H10 2419   2.139   2.626   2.875  1.7234  0.2111 -1.4208
   79ccc     C6 2420   1.989   2.622   2.709 -1.0618 -0.6927  0.0670
   79ccc     O1 2421   1.982   2.740   2.679  0.8903  0.7055 -0.5225
   79ccc     O2 2422   1.906   2.539   2.651  0.1882 -0.0653  0.1712
   79ccc    H11 2423   1.862   2.586   2.578  0.2007  0.4768  0.5123
   79ccc     C7 2424   2.281   2.237   2.832  0.1345  0.4273  0.0139
   79ccc    H12 2425   2.313   2.172   2.914 -0.6685  0.0299  0.0168
   79ccc    H13 2426   2.186   2.196   2.798 -0.5000  1.3115  0.6485
   79ccc     C8 2427   2.380   2.245   2.717 -1.2344  0.6695 -0.2641
   79ccc    H14 2428   2.353   2.295   2.623  0.1041  2.0606  0.0422
   79ccc    H15 2429   2.474   2.290   2.752 -0.7884 -1.4376  1.4224
   79ccc     C9 2430   2.408   2.097   2.671 -0.4115 -0.0852  0.3433
   79ccc     O3 2431   2.378   2.003   2.745  0.2226  0.5417 -0.5840
   79ccc     O4 2432   2.487   2.087   2.561 -0.3768 -0.8627 -0.3581
   79ccc    H16 2433   2.463   2.157   2.497  2.7349  1.4963  0.8199
   79ccc     O5 2434   2.638   2.460   3.010  0.2536  0.4168  0.4667
   79ccc    H17 2435   2.160   2.356   2.950 -0.6103  0.3303 -0.4085
   80ccc     C1 2436   3.328   4.061   2.958  0.8676  0.1356 -0.0535
   80ccc     H1 2437   3.233   4.087   3.006  0.2471 -0.8740 -0.6862
   80ccc     H2 2438   3.413   4.046   3.026  1.7850  3.3133 -0.3498
   80ccc     C2 2439   3.384   4.176   2.866 -0.0144 -0.1812  0.5574
   80ccc     H3 2440   3.447   4.133   2.787 -0.2980  0.5433 -0.0832
   80ccc     H4 2441   3.458   4.237   2.919  1.6870 -0.5599 -1.2881
   80ccc     C3 2442   3.266   4.249   2.793 -0.9332 -0.5782  0.3718
   80ccc     H5 2443   3.193   4.275   2.870 -0.5202  0.6621  0.3660
   80ccc     H6 2444   3.223   4.177   2.723  1.7183  0.8044 -2.9930
   80ccc     N1 2445   3.320   4.366   2.706  0.3610  0.4247  0.0735
   80ccc     C4 2446   3.392   4.299   2.584 -0.1452  0.5594 -0.5312
   80ccc     H7 2447   3.478   4.242   2.619  1.1700  1.2964 -2.3822
   80ccc     H8 2448   3.432   4.377   2.518  0.0120  0.1242 -0.9594
   80ccc     C5 2449   3.309   4.192   2.505 -0.6951 -0.4592  0.8251
   80ccc     H9 2450   3.304   4.093   2.552 -0.3085 -1.0017 -0.2624
   80ccc    H10 2451   3.202   4.218   2.501 -0.3260  1.1050  0.2767
   80ccc     C6 2452   3.357   4.158   2.362 -0.3250  0.1628  0.1939
   80ccc     O1 2453   3.441   4.221   2.300  0.8108  0.0213 -0.0730
   80ccc     O2 2454   3.302   4.047   2.310 -0.3235  0.3128 -0.3108
   80ccc    H11 2455   3.227   4.016   2.364  1.8111 -3.3131  0.9534
   80ccc     C7 2456   3.208   4.452   2.661  0.5539 -0.6627 -0.1181
   80ccc    H12 2457   3.245   4.517   2.582  0.8353 -0.4952  0.1511
   80ccc    H13 2458   3.141   4.382   2.611  1.4489 -2.8718  1.6058
   80ccc     C8 2459   3.130   4.530   2.764  0.2363  0.0986 -0.0668
   80ccc    H14 2460   3.109   4.465   2.850  2.2207 -0.0138  0.3751
   80ccc    H15 2461   3.186   4.617   2.800  1.1888 -0.7301  0.5346
   80ccc     C9 2462   2.999   4.573   2.704  0.0105 -0.3416 -0.1689
   80ccc     O3 2463   2.976   4.675   2.643  0.6501  0.2719 -0.1108
   80ccc     O4 2464   2.910   4.483   2.696  0.1805  0.3791  0.4559
   80ccc    H16 2465   2.942   4.408   2.750 -1.0055  0.4156  1.2489
   80ccc     O5 2466   3.300   3.949   2.873  0.5387 -0.2004 -0.2671
   80ccc    H17 2467   3.389   4.413   2.768 -0.5161 -0.4172  1.7644
   81ccc     C1 2468   3.685   3.825   2.347  0.0917 -0.1633 -0.7068
   81ccc     H1 2469   3.709   3.931   2.360 -0.4516 -0.0688 -0.4406
   81ccc     H2 2470   3.765   3.771   2.398  0.6176  1.4231  0.2238
   81ccc     C2 2471   3.677   3.796   2.200 -0.1909  0.2347  0.4165
   81ccc     H3 2472   3.689   3.690   2.174 -2.1057 -1.0594  4.0114
   81ccc     H4 2473   3.759   3.842   2.145 -0.3110 -0.5668 -0.4570
   81ccc     C3 2474   3.546   3.862   2.145  0.3222  0.5586  0.4102
   81ccc     H5 2475   3.519   3.956   2.194 -0.7038  0.8971 -0.7530
   81ccc     H6 2476   3.468   3.792   2.175  2.1003 -1.5914  0.2820
   81ccc     N1 2477   3.536   3.875   1.990  0.1584  0.4640 -0.3755
   81ccc     C4 2478   3.611   3.993   1.939  0.4061 -0.3100  0.5280
   81ccc     H7 2479   3.627   3.981   1.832 -1.4732  0.7941  0.0756
   81ccc     H8 2480   3.701   4.010   1.998 -0.3873  1.0374  1.3944
   81ccc     C5 2481   3.526   4.117   1.958 -0.1456  0.0997 -0.4684
   81ccc     H9 2482   3.436   4.109   1.895 -1.2641 -0.2810  1.1297
   81ccc    H10 2483   3.487   4.130   2.060 -0.4849 -1.5897 -0.3505
   81ccc     C6 2484   3.608   4.240   1.911 -0.1810  0.5979 -0.4627
   81ccc     O1 2485   3.719   4.235   1.870  0.1824  0.0415  0.6937
   81ccc     O2 2486   3.550   4.362   1.922 -0.5809 -0.1937  0.1857
   81ccc    H11 2487   3.467   4.350   1.972 -1.4083 -0.4403 -1.1811
   81ccc     C7 2488   3.572   3.746   1.913  0.2795 -0.4696 -0.4395
   81ccc    H12 2489   3.592   3.764   1.807 -0.2015 -0.4883 -0.5353
   81ccc    H13 2490   3.665   3.705   1.954 -0.5324 -0.0342  1.9395
   81ccc     C8 2491   3.462   3.639   1.917  0.5351 -0.1959 -0.0037
   81ccc    H14 2492   3.455   3.608   2.022 -0.8405 -1.9429 -0.5809
   81ccc    H15 2493   3.369   3.679   1.876  1.0660  1.0045 -0.0867
   81ccc     C9 2494   3.502   3.522   1.831  0.3640  0.1133 -0.5708
   81ccc     O3 2495   3.565   3.531   1.732  0.0105  0.5258 -0.1022
   81ccc     O4 2496   3.454   3.408   1.877 -0.0819 -0.5624 -0.0646
   81ccc    H16 2497   3.417   3.421   1.966 -1.6790 -1.7421 -0.5069
   81ccc     O5 2498   3.554   3.794   2.407  0.1304  1.0885 -0.0550
   81ccc    H17 2499   3.437   3.892   1.966  0.7242  0.9656 -2.5193
   82ccc     C1 2500   4.802   1.761   2.174 -0.3540  0.3502  0.0022
   82ccc     H1 2501   4.746   1.735   2.083  2.5471 -3.0118 -1.0631
   82ccc     H2 2502   4.894   1.809   2.140 -0.0815  0.7062  1.1936
   82ccc     C2 2503   4.856   1.635   2.231  0.1928  0.6124 -0.4458
   82ccc     H3 2504   4.919   1.673   2.313  0.1749  0.2999 -0.2887
   82ccc     H4 2505   4.914   1.588   2.151 -1.1309 -1.1501 -0.4302
   82ccc     C3 2506   4.749   1.541   2.279  0.3027 -0.0367 -0.3060
   82ccc     H5 2507   4.688   1.582   2.360  2.3814 -1.1417  1.9214
   82ccc     H6 2508   4.804   1.455   2.317  1.8883  1.3450  0.6410
   82ccc     N1 2509   4.654   1.495   2.170  0.7222 -0.4662  0.2330
   82ccc     C4 2510   4.534   1.596   2.166  0.5876  1.1218 -0.0076
   82ccc     H7 2511   4.484   1.587   2.070  4.1877 -1.3617 -1.8754
   82ccc     H8 2512   4.569   1.699   2.162  0.7798  1.0469 -0.2844
   82ccc     C5 2513   4.431   1.573   2.281 -0.3573  1.0297  0.0823
   82ccc     H9 2514   4.397   1.469   2.272  0.5239  0.7083  0.3536
   82ccc    H10 2515   4.480   1.584   2.378  1.1936  3.9798 -0.9259
   82ccc     C6 2516   4.311   1.663   2.274  0.0819 -0.0054 -0.5530
   82ccc     O1 2517   4.309   1.766   2.205 -0.3237 -0.3875 -0.2877
   82ccc     O2 2518   4.216   1.635   2.360 -0.0624 -0.3202  0.3270
   82ccc    H11 2519   4.231   1.548   2.401  0.3041 -1.6030 -2.2972
   82ccc     C7 2520   4.724   1.480   2.031 -0.4206  0.3752  0.0912
   82ccc    H12 2521   4.758   1.573   1.984  2.4674 -1.3915 -1.6670
   82ccc    H13 2522   4.816   1.428   2.058 -0.5724 -0.5862 -1.1379
   82ccc     C8 2523   4.653   1.395   1.925  0.4994  0.1404  0.2782
   82ccc    H14 2524   4.677   1.290   1.947 -0.6965 -0.4242 -0.9944
   82ccc    H15 2525   4.550   1.430   1.911  0.6329  1.4768  2.2376
   82ccc     C9 2526   4.721   1.408   1.788 -0.1451  0.6127 -0.5659
   82ccc     O3 2527   4.840   1.432   1.768 -0.1164  0.5349  0.4639
   82ccc     O4 2528   4.638   1.385   1.684 -0.1827 -0.2197 -0.3963
   82ccc    H16 2529   4.694   1.424   1.614  0.9332  0.4874  0.8541
   82ccc     O5 2530   4.719   1.836   2.273  0.0396 -0.2333 -0.2505
   82ccc    H17 2531   4.617   1.402   2.196  2.0905 -1.1973 -0.3632
   83ccc     C1 2532   4.111   1.862   2.887  0.6130  0.6240  0.2226
   83ccc     H1 2533   4.155   1.765   2.911 -0.9219 -0.3077 -0.5438
   83ccc     H2 2534   4.149   1.943   2.950 -1.1637  2.0686 -0.4702
   83ccc     C2 2535   3.961   1.860   2.890 -0.2648  0.4558 -0.0454
   83ccc     H3 2536   3.922   1.791   2.815 -2.4316  0.5931  0.8876
   83ccc     H4 2537   3.926   1.961   2.864 -0.4537  0.7635  1.3284
   83ccc     C3 2538   3.913   1.803   3.025 -0.4614  0.3867 -0.5118
   83ccc     H5 2539   3.960   1.857   3.107  3.2417  1.9300 -3.3773
   83ccc     H6 2540   3.964   1.707   3.027  0.1035  0.6941  0.1580
   83ccc     N1 2541   3.763   1.780   3.048  0.4927  0.6424  0.0227
   83ccc     C4 2542   3.754   1.683   3.167 -0.1657 -0.0104  0.2221
   83ccc     H7 2543   3.654   1.693   3.209  0.6520  2.1887  1.8029
   83ccc     H8 2544   3.817   1.716   3.249  2.2099  2.1361 -2.2650
   83ccc     C5 2545   3.791   1.537   3.141 -0.0403 -0.1127  0.4334
   83ccc     H9 2546   3.751   1.514   3.042  0.2323  0.0049  0.2932
   83ccc    H10 2547   3.899   1.522   3.127 -0.5149 -3.6516 -0.4432
   83ccc     C6 2548   3.751   1.441   3.251  0.7843  0.3284 -0.1612
   83ccc     O1 2549   3.738   1.476   3.361 -0.4102 -0.3886 -0.3333
   83ccc     O2 2550   3.793   1.320   3.232 -0.7949 -0.4220 -0.2955
   83ccc    H11 2551   3.810   1.302   3.138 -1.6912 -1.1994 -0.3237
   83ccc     C7 2552   3.689   1.915   3.070 -0.2218 -0.6789  0.6494
   83ccc    H12 2553   3.737   1.962   3.155 -0.7388  1.7344 -0.3221
   83ccc    H13 2554   3.715   1.982   2.987  1.4035  1.4693  2.7775
   83ccc     C8 2555   3.539   1.894   3.104 -0.3628 -0.1012 -0.2177
   83ccc    H14 2556   3.494   1.844   3.017 -0.1997  1.4219 -1.2279
   83ccc    H15 2557   3.526   1.826   3.189 -2.0207 -3.1577 -2.6928
   83ccc     C9 2558   3.470   2.020   3.131  0.2384  0.1573 -0.1089
   83ccc     O3 2559   3.442   2.057   3.246  0.3459  0.5961  0.7333
   83ccc     O4 2560   3.457   2.103   3.026 -0.0948 -0.1919 -0.4189
   83ccc    H16 2561   3.408   2.179   3.062  0.4985  0.2804 -0.5922
   83ccc     O5 2562   4.143   1.884   2.750 -0.1285 -0.2851 -0.2951
   83ccc    H17 2563   3.728   1.730   2.966 -0.1847 -0.0890  0.7359
   84ccc     C1 2564   5.603   2.398   3.258  0.2265  0.3068  0.2688
   84ccc     H1 2565   5.594   2.296   3.217  0.1755  0.7869 -0.9707
   84ccc     H2 2566   5.655   2.459   3.182  1.4571 -0.0262  0.8209
   84ccc     C2 2567   5.693   2.402   3.380 -0.1783 -0.0006 -0.0681
   84ccc     H3 2568   5.725   2.505   3.401  1.7294 -0.2750 -1.4134
   84ccc     H4 2569   5.787   2.348   3.366  0.4809  0.5876  1.7493
   84ccc     C3 2570   5.623   2.356   3.510 -0.2482 -0.1345  0.2378
   84ccc     H5 2571   5.579   2.259   3.488 -0.2152  0.0156 -0.5146
   84ccc     H6 2572   5.547   2.421   3.553  0.5207  0.0377  1.3813
   84ccc     N1 2573   5.720   2.333   3.628 -0.9614 -0.5021  0.5175
   84ccc     C4 2574   5.642   2.277   3.746 -0.5272  0.3394  0.4291
   84ccc     H7 2575   5.636   2.169   3.735 -1.4678  0.5039 -1.0587
   84ccc     H8 2576   5.539   2.312   3.746 -0.9718 -0.8584  1.7680
   84ccc     C5 2577   5.714   2.306   3.882 -0.2796  0.0681 -0.1430
   84ccc     H9 2578   5.824   2.310   3.878 -0.1606 -0.9764  1.1668
   84ccc    H10 2579   5.681   2.397   3.933 -0.6496 -0.7845  1.2217
   84ccc     C6 2580   5.684   2.197   3.980  0.1351  0.7854 -0.0585
   84ccc     O1 2581   5.705   2.082   3.953 -0.1885 -0.1872  0.3454
   84ccc     O2 2582   5.665   2.243   4.108 -0.5760 -0.0286 -0.4137
   84ccc    H11 2583   5.644   2.159   4.152 -0.7552 -0.0680 -0.5716
   84ccc     C7 2584   5.835   2.240   3.590 -0.0896 -0.2961  0.7019
   84ccc    H12 2585   5.889   2.294   3.511 -1.4477  0.3619  0.1726
   84ccc    H13 2586   5.893   2.219   3.679  2.2205  0.1362 -0.6309
   84ccc     C8 2587   5.799   2.101   3.530  0.3622  0.0014 -0.3482
   84ccc    H14 2588   5.749   2.041   3.607  0.3773  1.6588  1.0162
   84ccc    H15 2589   5.717   2.111   3.457  1.1476  1.5920 -1.0554
   84ccc     C9 2590   5.920   2.035   3.471 -0.4337  0.5153  0.7083
   84ccc     O3 2591   6.025   2.092   3.458  0.2140 -0.1778 -0.0276
   84ccc     O4 2592   5.894   1.913   3.418 -0.0188 -0.1782  0.3150
   84ccc    H16 2593   5.803   1.881   3.430  0.1192 -0.9482 -0.5309
   84ccc     O5 2594   5.477   2.446   3.298  0.1516 -0.1828 -0.0700
   84ccc    H17 2595   5.763   2.422   3.655 -0.9862 -0.9648  2.1963
   85ccc     C1 2596   5.268   2.032   3.503 -0.1309  0.0055  0.5653
   85ccc     H1 2597   5.337   1.973   3.564  1.1437  0.3558 -0.4829
   85ccc     H2 2598   5.165   2.010   3.535  0.3931 -1.2565  1.4408
   85ccc     C2 2599   5.291   1.981   3.360 -0.7160  0.1590  0.1655
   85ccc     H3 2600   5.291   1.872   3.355  2.7510  0.0551  0.3685
   85ccc     H4 2601   5.391   2.011   3.326 -0.3997 -0.5083  0.4972
   85ccc     C3 2602   5.189   2.032   3.263  0.7728  0.5274  0.3290
   85ccc     H5 2603   5.182   2.139   3.283 -1.4460 -0.2264  4.8399
   85ccc     H6 2604   5.092   1.985   3.280  1.2411 -1.1263 -1.2249
   85ccc     N1 2605   5.229   2.016   3.117 -0.3452 -0.8184  0.0813
   85ccc     C4 2606   5.106   2.045   3.028 -0.0375  0.1958 -0.0013
   85ccc     H7 2607   5.128   2.134   2.970 -1.4529  1.4719  1.3544
   85ccc     H8 2608   5.019   2.066   3.090  0.6671 -0.4110  1.2590
   85ccc     C5 2609   5.050   1.928   2.940  0.2011 -0.2261  0.2486
   85ccc     H9 2610   5.117   1.902   2.857  0.1776  0.7214 -0.0743
   85ccc    H10 2611   5.027   1.833   2.991  3.0998 -1.3270 -0.2697
   85ccc     C6 2612   4.919   1.965   2.864 -0.8414  0.6251 -0.2548
   85ccc     O1 2613   4.851   2.062   2.893 -0.1265 -0.6614  0.1825
   85ccc     O2 2614   4.900   1.890   2.753  0.2636  0.3969 -0.5694
   85ccc    H11 2615   4.962   1.816   2.747 -1.6434 -1.5343  1.7405
   85ccc     C7 2616   5.340   2.115   3.071 -0.4936  0.0170  0.2663
   85ccc    H12 2617   5.286   2.209   3.053  0.4400  0.5543  0.2262
   85ccc    H13 2618   5.410   2.124   3.154  0.7214 -1.4230 -0.5561
   85ccc     C8 2619   5.421   2.086   2.940 -0.1629  0.6790 -0.2753
   85ccc    H14 2620   5.478   1.993   2.957 -1.3630  0.0020  0.2023
   85ccc    H15 2621   5.359   2.059   2.853  1.7578 -2.4620 -0.8365
   85ccc     C9 2622   5.513   2.203   2.902 -0.9477 -0.3055  0.1246
   85ccc     O3 2623   5.532   2.291   2.979  0.0718 -0.0638 -0.3964
   85ccc     O4 2624   5.600   2.185   2.797  0.2206 -0.2165 -0.2371
   85ccc    H16 2625   5.579   2.109   2.739 -2.5504  0.4684 -0.2350
   85ccc     O5 2626   5.296   2.175   3.507  0.1031  0.1985 -0.1549
   85ccc    H17 2627   5.275   1.926   3.100  2.2135  0.1456  1.3216
   86ccc     C1 2628   5.797   3.560   4.549  0.3076 -0.4723  1.3534
   86ccc     H1 2629   5.842   3.658   4.571 -0.9235  0.3763  0.2634
   86ccc     H2 2630   5.755   3.521   4.642 -0.5431 -1.0769  0.7298
   86ccc     C2 2631   5.884   3.452   4.492 -0.4753 -0.4868 -0.3272
   86ccc     H3 2632   5.824   3.375   4.442  0.0929 -2.8224  2.3852
   86ccc     H4 2633   5.945   3.409   4.572 -0.6023 -2.1286 -1.0763
   86ccc     C3 2634   5.996   3.503   4.405  0.0759  0.2600 -0.2134
   86ccc     H5 2635   6.060   3.420   4.374  0.6925 -0.0474  1.7075
   86ccc     H6 2636   6.061   3.570   4.463  1.4451 -0.0144 -1.3730
   86ccc     N1 2637   5.964   3.573   4.272  0.4193  0.1864  0.0926
   86ccc     C4 2638   6.089   3.603   4.191 -0.6707  1.4628 -0.1105
   86ccc     H7 2639   6.056   3.633   4.092 -0.3738  0.2731 -0.5898
   86ccc     H8 2640   6.148   3.513   4.171 -0.0255  1.4353  1.7139
   86ccc     C5 2641   6.188   3.713   4.255 -0.4391 -0.1561 -0.1544
   86ccc     H9 2642   6.129   3.802   4.280  0.3866  0.3368  0.0554
   86ccc    H10 2643   6.225   3.672   4.350 -2.0335 -0.7150  0.2531
   86ccc     C6 2644   6.311   3.741   4.170  0.3005 -0.5778 -0.0581
   86ccc     O1 2645   6.377   3.651   4.127 -0.4209 -0.0741  0.2212
   86ccc     O2 2646   6.374   3.856   4.198  0.7370  0.1883 -0.7320
   86ccc    H11 2647   6.325   3.917   4.255  1.3310  0.4990 -0.5380
   86ccc     C7 2648   5.866   3.488   4.181 -0.8408  0.5384  0.0262
   86ccc    H12 2649   5.911   3.393   4.155 -1.0062  0.8462 -1.4325
   86ccc    H13 2650   5.778   3.474   4.244  0.0246  1.1400  1.4498
   86ccc     C8 2651   5.826   3.558   4.050 -0.0323 -0.1576 -0.0061
   86ccc    H14 2652   5.783   3.658   4.067 -0.0721 -0.1815  0.0319
   86ccc    H15 2653   5.908   3.576   3.979 -0.2450  1.0711  0.0234
   86ccc     C9 2654   5.716   3.488   3.971  0.6387 -0.5443 -0.2309
   86ccc     O3 2655   5.732   3.375   3.926  0.0691  0.0721 -0.3749
   86ccc     O4 2656   5.589   3.535   3.991 -0.0269 -0.4333  0.1598
   86ccc    H16 2657   5.542   3.481   3.925  2.5396 -3.1113  0.3202
   86ccc     O5 2658   5.694   3.576   4.455  0.8906  0.4604  0.2851
   86ccc    H17 2659   5.919   3.663   4.292  1.1652  0.3094  1.3281
   87ccc     C1 2660   5.096   4.207   4.549 -0.5142 -0.7319 -0.0127
   87ccc     H1 2661   5.197   4.196   4.590 -1.0292  1.6748  2.1888
   87ccc     H2 2662   5.079   4.315   4.549 -1.6985 -0.8881  1.5626
   87ccc     C2 2663   5.008   4.138   4.652 -0.1501  0.2986  0.0624
   87ccc     H3 2664   5.035   4.180   4.750 -0.3690  0.4841  0.0445
   87ccc     H4 2665   5.048   4.036   4.644 -1.7215 -0.3467  0.1353
   87ccc     C3 2666   4.856   4.125   4.625 -0.1441 -0.0126  0.3585
   87ccc     H5 2667   4.846   4.090   4.522  2.6326  2.4853 -0.8791
   87ccc     H6 2668   4.815   4.226   4.619 -0.7773 -0.2712  0.1851
   87ccc     N1 2669   4.780   4.052   4.722 -0.5213 -0.0868 -0.3878
   87ccc     C4 2670   4.633   4.088   4.698  0.1012 -0.0530  0.1578
   87ccc     H7 2671   4.593   4.025   4.618  1.0949 -2.0950  1.1874
   87ccc     H8 2672   4.621   4.190   4.663  2.2902  0.4508  0.7499
   87ccc     C5 2673   4.536   4.057   4.814  0.6593 -0.0454  0.1056
   87ccc     H9 2674   4.537   3.953   4.847  1.9940 -0.3914 -0.9168
   87ccc    H10 2675   4.570   4.109   4.905  2.9016 -1.2808  0.0532
   87ccc     C6 2676   4.390   4.101   4.793  0.6616  0.3126  0.2395
   87ccc     O1 2677   4.359   4.189   4.712 -0.1967  0.1407 -0.0346
   87ccc     O2 2678   4.297   4.011   4.835 -0.5733  0.2662  0.2689
   87ccc    H11 2679   4.347   3.944   4.885  0.4835  0.7533 -0.1174
   87ccc     C7 2680   4.814   3.903   4.706 -0.1236  0.4979 -0.0253
   87ccc    H12 2681   4.723   3.849   4.678  0.6646 -0.8677 -0.0738
   87ccc    H13 2682   4.886   3.883   4.626 -0.1873 -2.9707  0.6011
   87ccc     C8 2683   4.868   3.833   4.837  0.2360  0.0547  0.1959
   87ccc    H14 2684   4.965   3.878   4.861  1.4987 -2.8993  1.0055
   87ccc    H15 2685   4.799   3.851   4.919 -1.7830  1.3346 -1.6647
   87ccc     C9 2686   4.896   3.682   4.812 -0.3172  0.2870 -0.3900
   87ccc     O3 2687   4.864   3.621   4.713  0.3223  0.6807 -0.4432
   87ccc     O4 2688   4.961   3.612   4.913  0.3177 -0.4908 -0.0128
   87ccc    H16 2689   5.017   3.671   4.966  0.7023 -0.7057 -0.1789
   87ccc     O5 2690   5.077   4.141   4.418  0.1177 -0.2855  0.3123
   87ccc    H17 2691   4.816   4.088   4.811 -1.1513  1.7758 -0.8434
   88ccc     C1 2692   6.118   3.366   2.887  0.6811 -0.4067 -0.0931
   88ccc     H1 2693   6.186   3.390   2.804 -1.6713  0.6548 -1.8611
   88ccc     H2 2694   6.139   3.264   2.919 -1.2342 -1.2465 -1.3402
   88ccc     C2 2695   5.972   3.363   2.826  0.0086  0.1194 -0.4318
   88ccc     H3 2696   5.950   3.465   2.792  2.4295  0.9914  0.4116
   88ccc     H4 2697   5.897   3.329   2.898 -0.1857  0.9417 -0.2362
   88ccc     C3 2698   5.980   3.268   2.712  0.0619  1.0445 -0.1903
   88ccc     H5 2699   5.981   3.166   2.751  1.7691  0.6136 -1.2738
   88ccc     H6 2700   6.069   3.297   2.657  0.7311  0.1594  0.3984
   88ccc     N1 2701   5.856   3.266   2.618  0.1782 -0.4679  0.1887
   88ccc     C4 2702   5.893   3.175   2.500  0.2983 -0.5519 -0.3273
   88ccc     H7 2703   5.809   3.192   2.433  0.8990  1.3247 -0.6756
   88ccc     H8 2704   5.911   3.073   2.535 -0.1459 -0.0246  1.5258
   88ccc     C5 2705   6.016   3.228   2.418  0.0666  0.2170 -0.6372
   88ccc     H9 2706   6.004   3.334   2.393 -2.1627 -0.1915 -1.5703
   88ccc    H10 2707   6.108   3.216   2.476  0.0587  0.7545 -0.5127
   88ccc     C6 2708   6.035   3.133   2.295  0.3086  0.2960 -0.4583
   88ccc     O1 2709   5.949   3.054   2.258  0.2959 -0.2152  0.3166
   88ccc     O2 2710   6.136   3.160   2.221  0.2529 -0.3414  0.7937
   88ccc    H11 2711   6.112   3.100   2.149 -0.3107 -0.4889  1.0960
   88ccc     C7 2712   5.739   3.214   2.690  0.0594  0.8719 -0.1193
   88ccc    H12 2713   5.757   3.107   2.697 -2.9900  0.2085 -0.9337
   88ccc    H13 2714   5.735   3.265   2.787  0.4204 -0.2669  0.5058
   88ccc     C8 2715   5.602   3.220   2.624  0.0450  0.3399  0.0602
   88ccc    H14 2716   5.596   3.315   2.571 -0.4373 -0.9819 -2.4165
   88ccc    H15 2717   5.594   3.150   2.540 -0.9397  0.6983 -0.1592
   88ccc     C9 2718   5.490   3.190   2.717  0.0322  0.2983 -0.1855
   88ccc     O3 2719   5.471   3.089   2.785  0.1222 -0.6091  0.5221
   88ccc     O4 2720   5.399   3.287   2.722 -0.4217 -0.3292  0.2473
   88ccc    H16 2721   5.438   3.358   2.667 -2.3671  0.0270 -0.7574
   88ccc     O5 2722   6.121   3.459   2.999  0.1669  0.2797 -0.3909
   88ccc    H17 2723   5.831   3.363   2.592 -0.1288 -0.9586 -1.4827
   89ccc     C1 2724   6.419   3.762   3.716 -0.9289 -0.3890 -0.0997
   89ccc     H1 2725   6.457   3.780   3.615 -0.8623 -2.5027 -0.4899
   89ccc     H2 2726   6.430   3.844   3.789 -1.4677  1.4566 -1.9787
   89ccc     C2 2727   6.480   3.639   3.776  0.0614 -0.1227 -0.0532
   89ccc     H3 2728   6.462   3.550   3.715 -0.2004  0.3237 -0.6275
   89ccc     H4 2729   6.437   3.616   3.874 -0.1857  1.7829  0.3349
   89ccc     C3 2730   6.629   3.668   3.784  0.3315 -0.1870  0.2176
   89ccc     H5 2731   6.629   3.748   3.858  0.2195 -1.4053  1.5723
   89ccc     H6 2732   6.670   3.707   3.691  2.0797 -2.2745  0.0469
   89ccc     N1 2733   6.716   3.557   3.840  0.3381 -0.0561 -0.2745
   89ccc     C4 2734   6.672   3.522   3.981 -0.6191  0.3506  0.3597
   89ccc     H7 2735   6.730   3.433   4.007 -4.0612 -1.9687  0.7519
   89ccc     H8 2736   6.568   3.489   3.978 -0.3610 -0.4237 -0.7942
   89ccc     C5 2737   6.695   3.614   4.099 -0.4718 -0.2795 -0.1237
   89ccc     H9 2738   6.799   3.650   4.105 -0.6737  0.2355  0.3765
   89ccc    H10 2739   6.637   3.707   4.091  0.1941  0.3606  1.8343
   89ccc     C6 2740   6.655   3.544   4.232  0.0710 -0.7555  0.0529
   89ccc     O1 2741   6.617   3.428   4.235  0.1299  0.1886  0.3589
   89ccc     O2 2742   6.686   3.611   4.345  1.1537  0.2600  0.4095
   89ccc    H11 2743   6.723   3.699   4.327 -0.6795  0.7558 -1.2147
   89ccc     C7 2744   6.735   3.424   3.763  0.5377  0.0408  0.0864
   89ccc    H12 2745   6.799   3.360   3.824 -0.9657 -0.6497  1.0008
   89ccc    H13 2746   6.647   3.359   3.767  2.0288 -2.3357 -2.3089
   89ccc     C8 2747   6.793   3.440   3.621  0.4131  0.4301  0.7907
   89ccc    H14 2748   6.734   3.510   3.560 -0.0554  0.3927  1.1913
   89ccc    H15 2749   6.895   3.478   3.623 -0.1676  2.0561  1.5830
   89ccc     C9 2750   6.784   3.310   3.542  0.2143 -0.3548  0.1122
   89ccc     O3 2751   6.698   3.226   3.564 -1.2211 -0.3849 -0.1770
   89ccc     O4 2752   6.908   3.272   3.494 -0.1793  0.4157 -0.7889
   89ccc    H16 2753   6.893   3.182   3.460  1.6185  0.5206 -2.0019
   89ccc     O5 2754   6.282   3.740   3.703  0.0559 -0.4236  0.7233
   89ccc    H17 2755   6.811   3.598   3.844  0.6143 -0.7542  0.6721
   90ccc     C1 2756   4.471   5.348   4.334 -0.6763  0.8821  0.1899
   90ccc     H1 2757   4.526   5.267   4.383  1.6724  1.3547 -1.5065
   90ccc     H2 2758   4.546   5.426   4.319  1.7656 -1.4164 -0.3115
   90ccc     C2 2759   4.356   5.411   4.402 -0.7800 -0.3317 -0.0879
   90ccc     H3 2760   4.285   5.442   4.324 -2.5612 -0.1047  1.5587
   90ccc     H4 2761   4.386   5.505   4.450  0.7657 -0.6157 -0.4316
   90ccc     C3 2762   4.304   5.307   4.512  0.2096  0.3716 -0.2021
   90ccc     H5 2763   4.395   5.270   4.559  0.0946 -0.5685 -0.7009
   90ccc     H6 2764   4.251   5.231   4.455  2.1291 -3.2347  2.4165
   90ccc     N1 2765   4.203   5.377   4.604  0.4443 -0.8239  0.0894
   90ccc     C4 2766   4.098   5.447   4.528  0.0133 -0.2790 -0.0305
   90ccc     H7 2767   4.140   5.529   4.471 -0.4412  1.4770  2.0338
   90ccc     H8 2768   4.032   5.500   4.597  2.4500  0.8761  1.5656
   90ccc     C5 2769   4.013   5.348   4.440 -0.3173  0.5084 -0.2247
   90ccc     H9 2770   4.074   5.306   4.359  1.2643  0.2413  1.0762
   90ccc    H10 2771   3.977   5.267   4.505  0.0629  0.6654  0.1808
   90ccc     C6 2772   3.890   5.411   4.378 -0.3286  0.1360  0.3591
   90ccc     O1 2773   3.840   5.508   4.418  0.6205 -0.2885 -0.5224
   90ccc     O2 2774   3.861   5.365   4.255 -0.1366 -0.4297 -0.0941
   90ccc    H11 2775   3.784   5.418   4.229 -0.0792 -0.3551 -0.1136
   90ccc     C7 2776   4.152   5.276   4.703 -0.2434 -0.8972 -0.6455
   90ccc    H12 2777   4.081   5.332   4.764 -0.5904 -1.2690 -0.7072
   90ccc    H13 2778   4.089   5.198   4.660 -1.7059 -0.2349  0.1981
   90ccc     C8 2779   4.254   5.217   4.797 -0.0052  0.6579  0.0236
   90ccc    H14 2780   4.322   5.159   4.735  1.6104  1.1967  1.2281
   90ccc    H15 2781   4.315   5.296   4.843  1.0634  0.1474 -0.4833
   90ccc     C9 2782   4.178   5.123   4.889 -0.7688 -0.6817 -0.0218
   90ccc     O3 2783   4.121   5.174   4.987  0.1439  0.3981  0.3559
   90ccc     O4 2784   4.231   5.005   4.900  0.3401 -0.2281  0.6895
   90ccc    H16 2785   4.192   4.976   4.984 -0.4401 -0.0226  0.4097
   90ccc     O5 2786   4.427   5.291   4.210 -0.5938 -0.3293  0.3067
   90ccc    H17 2787   4.244   5.458   4.652 -2.9337  0.4754  1.0396
   91ccc     C1 2788   3.989   5.376   3.908  0.3102 -0.5313 -1.0728
   91ccc     H1 2789   3.988   5.360   3.800 -0.4204  1.5737 -1.4240
   91ccc     H2 2790   3.884   5.403   3.927  0.3283 -1.1606  0.0300
   91ccc     C2 2791   4.085   5.491   3.954  0.2496  0.0256 -0.3215
   91ccc     H3 2792   4.192   5.468   3.946  0.9303  2.9610 -0.9818
   91ccc     H4 2793   4.064   5.510   4.060 -0.7110  0.8045 -0.6381
   91ccc     C3 2794   4.064   5.613   3.867  0.0431  0.1070 -0.2431
   91ccc     H5 2795   3.957   5.619   3.850 -0.1339 -0.8888  0.4498
   91ccc     H6 2796   4.114   5.607   3.770 -0.8602 -1.7419 -0.6432
   91ccc     N1 2797   4.112   5.736   3.939 -0.9396  0.4072 -0.0720
   91ccc     C4 2798   4.118   5.857   3.844  0.0010 -0.2895  0.9826
   91ccc     H7 2799   4.126   5.954   3.894 -1.5915 -0.5268  1.7769
   91ccc     H8 2800   4.022   5.865   3.791  0.7960  1.8416 -0.2806
   91ccc     C5 2801   4.236   5.850   3.750  0.3716 -0.0042  0.7795
   91ccc     H9 2802   4.317   5.832   3.821  1.4360 -0.6987 -0.5642
   91ccc    H10 2803   4.224   5.773   3.673 -1.5219  0.3880  0.6385
   91ccc     C6 2804   4.257   5.978   3.672 -0.2458 -0.3897 -0.2708
   91ccc     O1 2805   4.169   6.048   3.635  0.2499  0.1068 -0.0704
   91ccc     O2 2806   4.371   5.976   3.597  0.4431 -0.0377  0.4390
   91ccc    H11 2807   4.422   5.905   3.639 -0.7217 -0.4789  1.1619
   91ccc     C7 2808   4.015   5.777   4.043  0.3794  0.7008 -0.0535
   91ccc    H12 2809   4.022   5.700   4.121  0.2786  1.6661  0.9310
   91ccc    H13 2810   4.051   5.868   4.091 -1.1189  0.5409  1.4626
   91ccc     C8 2811   3.868   5.814   4.002  0.6296  0.6912 -0.2948
   91ccc    H14 2812   3.865   5.894   3.927  0.0650  0.5444 -0.4270
   91ccc    H15 2813   3.817   5.731   3.953 -1.1937 -0.4697  3.2085
   91ccc     C9 2814   3.795   5.846   4.129  0.5219  0.1754 -0.0492
   91ccc     O3 2815   3.852   5.851   4.238 -0.3994 -0.4086  0.2948
   91ccc     O4 2816   3.681   5.913   4.109  0.1714  0.1476  0.1192
   91ccc    H16 2817   3.664   5.945   4.200  1.6304 -0.7825  0.7636
   91ccc     O5 2818   4.032   5.257   3.973  0.0078 -0.0430  0.0816
   91ccc    H17 2819   4.204   5.720   3.983  0.1737 -1.3278 -2.7494
   92ccc     C1 2820   4.299   5.194   2.769  0.0245  0.3738  0.2259
   92ccc     H1 2821   4.222   5.262   2.809 -0.2051  0.3918 -0.2363
   92ccc     H2 2822   4.362   5.238   2.692  0.7831  0.1703  0.7228
   92ccc     C2 2823   4.227   5.067   2.713 -0.9136  0.2110 -1.3114
   92ccc     H3 2824   4.298   4.990   2.679  0.7213  0.4452  1.2964
   92ccc     H4 2825   4.165   5.085   2.624  0.7124 -2.0967 -3.0553
   92ccc     C3 2826   4.153   4.998   2.825 -0.0431 -0.5486 -0.7046
   92ccc     H5 2827   4.090   5.063   2.886 -1.2368 -0.9805 -1.4470
   92ccc     H6 2828   4.218   4.948   2.897  0.5144  1.0710 -0.0307
   92ccc     N1 2829   4.059   4.883   2.785 -0.3145 -0.0500  0.5147
   92ccc     C4 2830   3.999   4.819   2.908  0.3948 -0.3296  0.1428
   92ccc     H7 2831   3.902   4.772   2.892 -0.0803 -0.0466  1.9622
   92ccc     H8 2832   3.974   4.898   2.979 -0.5011  0.3051 -0.8500
   92ccc     C5 2833   4.084   4.708   2.963  0.2645 -0.1414 -0.3071
   92ccc     H9 2834   4.085   4.613   2.908 -1.9632  0.5142 -1.6550
   92ccc    H10 2835   4.190   4.735   2.961  1.0596 -2.4220  2.9730
   92ccc     C6 2836   4.053   4.671   3.108  0.8049 -0.7703 -0.0755
   92ccc     O1 2837   3.960   4.598   3.136  0.1280  0.1965  0.1529
   92ccc     O2 2838   4.077   4.762   3.201 -0.3124  0.1778  0.0866
   92ccc    H11 2839   4.023   4.733   3.276 -1.5810 -0.7895 -1.1314
   92ccc     C7 2840   3.950   4.945   2.701 -0.2714 -0.5704  0.3648
   92ccc    H12 2841   3.993   4.981   2.608  1.1345  0.7477  1.4808
   92ccc    H13 2842   3.878   4.865   2.680  0.0342 -1.1661  1.4967
   92ccc     C8 2843   3.873   5.069   2.771 -0.2784 -0.3911  0.5522
   92ccc    H14 2844   3.849   5.045   2.875  1.3572 -0.4340  0.9407
   92ccc    H15 2845   3.935   5.159   2.774 -2.5793  1.2923  0.8353
   92ccc     C9 2846   3.749   5.112   2.693 -0.0962  0.4601  0.1573
   92ccc     O3 2847   3.727   5.076   2.579  0.2773 -0.2845  0.1192
   92ccc     O4 2848   3.676   5.199   2.756  0.4502  0.4518 -0.2139
   92ccc    H16 2849   3.719   5.217   2.841 -0.1384  0.4058  0.0941
   92ccc     O5 2850   4.379   5.150   2.878 -0.0115 -0.0218 -1.0640
   92ccc    H17 2851   4.114   4.806   2.746 -0.4616  0.5781 -1.0127
   93ccc     C1 2852   5.179   5.356   3.009  0.1052 -0.4654 -0.1388
   93ccc     H1 2853   5.218   5.277   3.075 -0.3664  0.0660  0.8023
   93ccc     H2 2854   5.246   5.363   2.922  0.9880  1.2898  0.6344
   93ccc     C2 2855   5.169   5.499   3.061  0.6846  0.1506 -0.3488
   93ccc     H3 2856   5.272   5.533   3.075  1.4681 -1.7383 -1.1828
   93ccc     H4 2857   5.132   5.501   3.165  1.2611  3.7322 -0.0865
   93ccc     C3 2858   5.079   5.587   2.966 -0.2126  0.1960  0.9102
   93ccc     H5 2859   4.985   5.541   2.935  0.6339 -0.2983 -1.0552
   93ccc     H6 2860   5.129   5.602   2.870 -1.9733  1.3662  0.1121
   93ccc     N1 2861   5.047   5.723   3.030 -0.5897  0.4345  0.0539
   93ccc     C4 2862   5.010   5.828   2.921  0.6001 -0.1895 -0.7276
   93ccc     H7 2863   5.098   5.848   2.860  0.1566  1.2351 -0.9475
   93ccc     H8 2864   4.989   5.924   2.970  0.3492 -0.7918  0.3715
   93ccc     C5 2865   4.886   5.798   2.833  0.5552 -0.3379  0.2360
   93ccc     H9 2866   4.911   5.715   2.766  4.4045  1.5571 -0.9135
   93ccc    H10 2867   4.803   5.765   2.897  1.5080 -2.3995  0.4814
   93ccc     C6 2868   4.855   5.914   2.735 -0.5704 -0.4840 -0.0474
   93ccc     O1 2869   4.916   6.017   2.731  0.3870  0.1190 -0.2044
   93ccc     O2 2870   4.774   5.868   2.640 -0.2774  0.2321 -0.2751
   93ccc    H11 2871   4.796   5.919   2.560  0.6063  1.0475  0.4534
   93ccc     C7 2872   4.935   5.715   3.134  0.4740  0.2322 -0.2092
   93ccc    H12 2873   4.836   5.711   3.088  1.2627  1.5562 -2.1969
   93ccc    H13 2874   4.941   5.620   3.185 -1.2385 -0.5696 -1.3950
   93ccc     C8 2875   4.926   5.825   3.240  0.1531  0.0879  0.1255
   93ccc    H14 2876   5.016   5.819   3.303 -0.7799 -0.7182  1.4261
   93ccc    H15 2877   4.911   5.928   3.205 -1.3706 -0.6252 -1.4575
   93ccc     C9 2878   4.808   5.805   3.331 -0.3789  0.1122 -0.5167
   93ccc     O3 2879   4.734   5.709   3.319  0.0933  0.2332  0.5141
   93ccc     O4 2880   4.794   5.901   3.424 -0.3547  0.1740  0.0990
   93ccc    H16 2881   4.871   5.957   3.405  0.6268 -0.9233  0.7469
   93ccc     O5 2882   5.043   5.323   2.963  0.4956 -0.7794 -0.2351
   93ccc    H17 2883   5.130   5.755   3.082  0.3112  1.2201 -1.7474
   94ccc     C1 2884   4.463   3.142  -1.822  0.4137  0.4948 -0.2175
   94ccc     H1 2885   4.518   3.158  -1.916  1.3960  0.2312  0.2944
   94ccc     H2 2886   4.485   3.043  -1.782 -1.5707  0.0728 -0.0705
   94ccc     C2 2887   4.314   3.146  -1.857 -0.1035 -0.1414 -0.0232
   94ccc     H3 2888   4.268   3.099  -1.769 -0.2828  0.6582  0.3172
   94ccc     H4 2889   4.301   3.085  -1.947  2.0180  0.8788 -1.0954
   94ccc     C3 2890   4.255   3.289  -1.872 -0.3001  1.0124 -0.1025
   94ccc     H5 2891   4.229   3.313  -1.769 -1.0186  1.5788 -0.4050
   94ccc     H6 2892   4.169   3.289  -1.939  0.7449  0.6793 -1.4967
   94ccc     N1 2893   4.362   3.388  -1.929  0.2933 -0.6550 -0.1205
   94ccc     C4 2894   4.377   3.378  -2.081 -0.0908 -0.3014  1.0736
   94ccc     H7 2895   4.427   3.284  -2.103  1.8868  0.6746  1.2241
   94ccc     H8 2896   4.446   3.456  -2.113  0.7902 -1.3254  0.4298
   94ccc     C5 2897   4.239   3.393  -2.153 -0.0797 -0.1539  0.6040
   94ccc     H9 2898   4.174   3.314  -2.113  3.1545 -2.2968  2.0628
   94ccc    H10 2899   4.193   3.489  -2.130  2.2848  1.3727 -0.6148
   94ccc     C6 2900   4.267   3.388  -2.304  0.4159  0.2734  0.4644
   94ccc     O1 2901   4.304   3.282  -2.361  0.2993 -0.1117  0.2526
   94ccc     O2 2902   4.273   3.504  -2.370 -0.5445  0.4788 -0.1483
   94ccc    H11 2903   4.231   3.570  -2.312  0.0223  0.6923  0.0215
   94ccc     C7 2904   4.320   3.529  -1.900 -0.0979 -0.4363  0.0827
   94ccc    H12 2905   4.395   3.597  -1.943 -1.6228  0.6168 -1.0161
   94ccc    H13 2906   4.221   3.548  -1.941 -0.3078 -1.0803  0.2880
   94ccc     C8 2907   4.326   3.561  -1.752  0.0954  0.5112 -0.0947
   94ccc    H14 2908   4.232   3.606  -1.719  0.6967  1.6502  0.1207
   94ccc    H15 2909   4.329   3.466  -1.697 -1.3062 -0.3793 -1.4779
   94ccc     C9 2910   4.437   3.658  -1.709  0.8425  1.2317 -0.1117
   94ccc     O3 2911   4.518   3.712  -1.777  0.3093 -0.9546  0.1191
   94ccc     O4 2912   4.476   3.625  -1.590 -0.4904 -0.8215 -0.4114
   94ccc    H16 2913   4.555   3.682  -1.584 -1.5650  0.8775 -1.7540
   94ccc     O5 2914   4.503   3.238  -1.716 -0.1214  0.1005  0.2901
   94ccc    H17 2915   4.453   3.371  -1.885  0.3520 -0.3372 -0.1195
   95ccc     C1 2916   4.863   2.991  -0.983 -0.3388 -0.0331  0.4099
   95ccc     H1 2917   4.922   2.926  -1.050 -1.6520  0.7701 -1.6335
   95ccc     H2 2918   4.939   3.028  -0.913 -1.0582 -0.3515  1.3692
   95ccc     C2 2919   4.758   2.931  -0.892  0.0790  1.0553 -0.3089
   95ccc     H3 2920   4.801   2.862  -0.818  1.0975  0.7440 -1.1749
   95ccc     H4 2921   4.693   2.860  -0.945  0.2025  0.7087 -0.0070
   95ccc     C3 2922   4.672   3.036  -0.816 -0.0399  0.0970  0.4457
   95ccc     H5 2923   4.636   3.106  -0.891  0.4561  2.7766  2.5152
   95ccc     H6 2924   4.735   3.087  -0.742 -1.3094 -0.5348  2.0214
   95ccc     N1 2925   4.547   2.976  -0.751 -0.0228  0.0009  0.2271
   95ccc     C4 2926   4.500   3.080  -0.642 -0.2564 -0.1019 -0.5242
   95ccc     H7 2927   4.431   3.155  -0.682 -0.5415  0.4898  1.0129
   95ccc     H8 2928   4.592   3.135  -0.619  0.5091 -1.3226 -0.5809
   95ccc     C5 2929   4.446   3.018  -0.517  0.0471  0.1476  0.1775
   95ccc     H9 2930   4.347   2.974  -0.531  0.8481 -2.3200  1.5395
   95ccc    H10 2931   4.509   2.934  -0.486 -2.2583 -1.3377  1.1086
   95ccc     C6 2932   4.425   3.109  -0.396 -0.1777 -0.6505  0.5471
   95ccc     O1 2933   4.320   3.166  -0.366  0.4470  0.4653 -0.3401
   95ccc     O2 2934   4.521   3.103  -0.295  0.2370  0.2898 -0.2528
   95ccc    H11 2935   4.484   3.176  -0.242 -0.6010 -0.1099 -0.2790
   95ccc     C7 2936   4.439   2.954  -0.853 -0.3611 -0.8098 -0.6912
   95ccc    H12 2937   4.365   3.035  -0.852 -1.4324 -1.7527  0.5752
   95ccc    H13 2938   4.482   2.951  -0.953  1.1325  0.1841 -0.1004
   95ccc     C8 2939   4.363   2.828  -0.820  0.5525 -0.2554 -0.8192
   95ccc    H14 2940   4.422   2.738  -0.838  1.0439  0.0597 -0.7838
   95ccc    H15 2941   4.343   2.825  -0.712 -0.3776 -1.5127 -1.0098
   95ccc     C9 2942   4.232   2.818  -0.895 -0.1217 -0.0051  0.2020
   95ccc     O3 2943   4.208   2.883  -0.990 -0.4323 -0.4591  0.1081
   95ccc     O4 2944   4.149   2.714  -0.860 -0.3227 -0.7081 -0.7257
   95ccc    H16 2945   4.084   2.723  -0.932  0.8606  0.2576 -1.7181
   95ccc     O5 2946   4.806   3.100  -1.057 -0.2599  0.5121  0.0856
   95ccc    H17 2947   4.584   2.890  -0.709  2.7086  1.1808  0.4818
   96ccc     C1 2948   5.143   4.438  -1.277 -0.1233  0.1559 -0.6767
   96ccc     H1 2949   5.253   4.435  -1.275 -0.1511 -1.3647  0.9227
   96ccc     H2 2950   5.110   4.345  -1.324 -0.5876  0.9291 -1.9211
   96ccc     C2 2951   5.088   4.559  -1.350  0.0118  0.5235 -0.1566
   96ccc     H3 2952   4.981   4.560  -1.374 -0.0227  2.3703 -0.1013
   96ccc     H4 2953   5.134   4.555  -1.449 -0.0334 -2.1721 -0.1354
   96ccc     C3 2954   5.125   4.682  -1.270 -0.4240 -0.3675 -0.3301
   96ccc     H5 2955   5.234   4.676  -1.260  0.4996  5.0697 -2.9827
   96ccc     H6 2956   5.075   4.691  -1.174 -0.0370  0.5339 -0.2038
   96ccc     N1 2957   5.098   4.813  -1.343  0.0835 -0.0744  0.2945
   96ccc     C4 2958   4.947   4.841  -1.323  0.0265  0.7487  0.7353
   96ccc     H7 2959   4.923   4.872  -1.222 -2.8097 -1.2644  0.7921
   96ccc     H8 2960   4.893   4.749  -1.346  1.0647  0.7099 -1.8770
   96ccc     C5 2961   4.890   4.941  -1.418 -0.0243 -0.2660 -1.3187
   96ccc     H9 2962   4.927   5.038  -1.382  0.7423 -0.0601 -2.6039
   96ccc    H10 2963   4.928   4.930  -1.520  1.5157 -0.3259 -0.7706
   96ccc     C6 2964   4.739   4.941  -1.422 -0.1921 -0.1253 -0.5094
   96ccc     O1 2965   4.678   4.838  -1.424  0.6868 -0.5736  0.1828
   96ccc     O2 2966   4.685   5.048  -1.362 -1.0017 -0.6407  0.0812
   96ccc    H11 2967   4.591   5.033  -1.384 -0.3083 -0.9706 -3.0654
   96ccc     C7 2968   5.187   4.921  -1.268  0.3867  0.0852 -0.5324
   96ccc    H12 2969   5.141   5.020  -1.273  0.7181  0.4010  1.6258
   96ccc    H13 2970   5.196   4.890  -1.164  0.0992 -2.9561 -1.3199
   96ccc     C8 2971   5.325   4.934  -1.331  0.0076  0.5365  0.0355
   96ccc    H14 2972   5.365   4.836  -1.358 -2.1338  0.0950 -1.9119
   96ccc    H15 2973   5.312   4.993  -1.422  1.0095 -0.4687 -0.7780
   96ccc     C9 2974   5.424   5.007  -1.242 -0.3565 -0.4433 -0.9379
   96ccc     O3 2975   5.438   4.994  -1.122 -0.2146 -0.2443 -0.3038
   96ccc     O4 2976   5.503   5.099  -1.304 -0.1900  0.0498  0.1808
   96ccc    H16 2977   5.568   5.125  -1.235  2.4094 -0.5409 -1.8846
   96ccc     O5 2978   5.089   4.449  -1.142 -0.6949 -0.0160  0.5878
   96ccc    H17 2979   5.113   4.799  -1.444  0.3347  2.6995 -0.1223
   97ccc     C1 2980   4.558   4.806  -0.821  0.3157  0.4479  0.5334
   97ccc     H1 2981   4.595   4.795  -0.924  0.2788  0.7079  0.4903
   97ccc     H2 2982   4.450   4.825  -0.817  0.4201  1.1197  0.2236
   97ccc     C2 2983   4.645   4.925  -0.769  0.5564  0.0534 -0.0871
   97ccc     H3 2984   4.623   5.014  -0.829 -1.7376  1.1802  2.2210
   97ccc     H4 2985   4.746   4.892  -0.794  0.4709  0.7625 -1.4590
   97ccc     C3 2986   4.633   4.957  -0.621  0.0336  0.6174  0.1988
   97ccc     H5 2987   4.661   4.869  -0.563 -0.7175 -0.3189 -0.8154
   97ccc     H6 2988   4.530   4.989  -0.607  0.1640  0.7311  0.9486
   97ccc     N1 2989   4.725   5.068  -0.583 -0.3563 -0.4536  0.2472
   97ccc     C4 2990   4.660   5.207  -0.575  0.2825  0.0647  0.2810
   97ccc     H7 2991   4.738   5.281  -0.559 -0.8890  1.4847 -0.2903
   97ccc     H8 2992   4.585   5.216  -0.496  0.2724 -2.5612  0.6813
   97ccc     C5 2993   4.586   5.245  -0.706 -0.3443 -0.0654  0.0354
   97ccc     H9 2994   4.650   5.237  -0.794 -0.4976 -2.9193  0.0818
   97ccc    H10 2995   4.503   5.178  -0.734 -0.1371 -1.4778  2.4937
   97ccc     C6 2996   4.522   5.382  -0.706  0.4848  0.0125 -0.0288
   97ccc     O1 2997   4.509   5.455  -0.611  0.1458  0.1303  0.1864
   97ccc     O2 2998   4.456   5.413  -0.815  0.0597  0.5482  0.3325
   97ccc    H11 2999   4.407   5.494  -0.790 -0.4724 -0.0030  1.1101
   97ccc     C7 3000   4.800   5.048  -0.452  0.7824 -0.2053  0.3811
   97ccc    H12 3001   4.846   4.949  -0.455  0.4699 -0.3238 -0.6333
   97ccc    H13 3002   4.874   5.128  -0.444 -0.0754  1.0142 -2.4821
   97ccc     C8 3003   4.711   5.041  -0.322 -0.2374  0.3050 -0.4858
   97ccc    H14 3004   4.698   5.146  -0.290  2.4572  0.6443 -0.2787
   97ccc    H15 3005   4.609   5.008  -0.347 -0.3600 -0.0116  0.3909
   97ccc     C9 3006   4.764   4.954  -0.215 -0.1976 -0.2188  0.3486
   97ccc     O3 3007   4.859   4.881  -0.237 -0.4833  0.0441  0.2086
   97ccc     O4 3008   4.680   4.929  -0.116 -0.2656  0.0179  0.1100
   97ccc    H16 3009   4.613   4.993  -0.144 -0.7149 -1.0831 -1.4809
   97ccc     O5 3010   4.591   4.687  -0.756 -0.3167 -0.2480  0.5337
   97ccc    H17 3011   4.800   5.063  -0.653 -1.3766  0.8737 -0.9955
   98ccc     C1 3012   3.240   5.211  -2.105  0.1901  0.9470 -0.6143
   98ccc     H1 3013   3.163   5.158  -2.162  0.4412 -0.7712  0.5832
   98ccc     H2 3014   3.205   5.314  -2.092  0.5118  0.6604  4.4820
   98ccc     C2 3015   3.367   5.197  -2.185 -0.6158 -0.0008 -0.2315
   98ccc     H3 3016   3.453   5.238  -2.130 -0.0924 -0.7689 -0.4587
   98ccc     H4 3017   3.354   5.246  -2.283 -1.4668 -0.4781 -0.3645
   98ccc     C3 3018   3.392   5.058  -2.233 -0.4853  0.2563 -0.5470
   98ccc     H5 3019   3.327   5.037  -2.318  0.4066  1.0425 -1.4515
   98ccc     H6 3020   3.364   4.994  -2.150 -0.2881  1.9894  0.9182
   98ccc     N1 3021   3.537   5.028  -2.283  0.0453 -0.8526 -0.1775
   98ccc     C4 3022   3.642   5.032  -2.162  0.1952 -0.0328  0.2123
   98ccc     H7 3023   3.628   4.948  -2.093 -0.7845 -0.5591 -0.6004
   98ccc     H8 3024   3.628   5.123  -2.103  0.4067 -1.5197  2.6795
   98ccc     C5 3025   3.788   5.044  -2.208 -0.7825 -0.6593 -0.5658
   98ccc     H9 3026   3.813   4.966  -2.281 -0.3676  0.5845 -1.8056
   98ccc    H10 3027   3.802   5.148  -2.240  2.4782 -0.8341 -0.0220
   98ccc     C6 3028   3.879   5.042  -2.086 -0.1195  0.0779  0.4662
   98ccc     O1 3029   3.847   5.036  -1.967  0.0888  0.0200 -0.1254
   98ccc     O2 3030   4.004   5.064  -2.122  0.1466  0.0919 -0.3738
   98ccc    H11 3031   3.995   5.081  -2.217 -0.9018 -1.7289 -0.6571
   98ccc     C7 3032   3.548   4.901  -2.361 -0.4386 -0.0558  0.0164
   98ccc    H12 3033   3.474   4.910  -2.441 -2.6510  1.8562  2.1155
   98ccc    H13 3034   3.652   4.892  -2.393  0.3350  0.7779  2.1199
   98ccc     C8 3035   3.526   4.771  -2.270 -0.1959 -0.6950  0.0217
   98ccc    H14 3036   3.626   4.745  -2.232 -0.7192  0.2669  2.2005
   98ccc    H15 3037   3.457   4.789  -2.187 -0.4059  0.5675 -0.4048
   98ccc     C9 3038   3.480   4.652  -2.349 -0.9734  0.0177  0.6692
   98ccc     O3 3039   3.371   4.645  -2.402 -0.1557 -0.4964  0.0205
   98ccc     O4 3040   3.575   4.568  -2.390 -0.1821  0.5300 -0.3426
   98ccc    H16 3041   3.661   4.607  -2.367 -0.9351  0.5656  2.7969
   98ccc     O5 3042   3.262   5.134  -1.976 -0.1726 -0.2506  0.5153
   98ccc    H17 3043   3.566   5.107  -2.341 -1.1046  0.3177  0.7909
   99ccc     C1 3044   2.568   4.692  -1.589  0.1385 -1.1087  0.4284
   99ccc     H1 3045   2.536   4.777  -1.527 -0.7630 -0.2459 -1.1368
   99ccc     H2 3046   2.485   4.669  -1.656  0.2306 -2.5942  0.7909
   99ccc     C2 3047   2.595   4.565  -1.502  0.6172  0.5213 -0.5750
   99ccc     H3 3048   2.669   4.604  -1.431 -0.0284 -0.7323  0.8131
   99ccc     H4 3049   2.634   4.486  -1.568 -0.7088 -0.7314  0.0898
   99ccc     C3 3050   2.465   4.523  -1.432 -0.0992  0.3983 -0.1935
   99ccc     H5 3051   2.401   4.462  -1.497 -0.9976  0.0586  0.9678
   99ccc     H6 3052   2.411   4.616  -1.412 -0.9684 -0.3628  1.1737
   99ccc     N1 3053   2.484   4.444  -1.302 -0.3743  0.5032  0.4385
   99ccc     C4 3054   2.345   4.426  -1.238 -0.2502 -0.0180 -0.2390
   99ccc     H7 3055   2.362   4.394  -1.136 -0.0778  2.7404  0.6742
   99ccc     H8 3056   2.296   4.337  -1.276  2.4253 -0.8613 -2.0479
   99ccc     C5 3057   2.243   4.547  -1.235  0.3631 -0.0480 -0.2333
   99ccc     H9 3058   2.286   4.636  -1.188  1.8310 -0.9652  0.2654
   99ccc    H10 3059   2.214   4.585  -1.333  0.1605  2.7084  0.8195
   99ccc     C6 3060   2.122   4.511  -1.161  0.2238  0.7723  0.4216
   99ccc     O1 3061   2.123   4.412  -1.093  0.1817  0.1206  0.3434
   99ccc     O2 3062   2.041   4.614  -1.132  0.2219 -0.4134  0.5032
   99ccc    H11 3063   2.075   4.696  -1.172 -0.5986 -0.0715  0.4836
   99ccc     C7 3064   2.542   4.301  -1.326  0.5602 -0.0117  0.5644
   99ccc    H12 3065   2.488   4.234  -1.259  0.0118  1.5159  1.7033
   99ccc    H13 3066   2.523   4.271  -1.429  1.6339  0.0231  0.3435
   99ccc     C8 3067   2.694   4.286  -1.299 -0.4639  0.3322  0.0412
   99ccc    H14 3068   2.762   4.333  -1.372 -1.4640 -1.7074 -2.3546
   99ccc    H15 3069   2.715   4.310  -1.194  0.3114  0.0906 -0.0531
   99ccc     C9 3070   2.723   4.133  -1.313  0.1733  0.1947 -0.2472
   99ccc     O3 3071   2.634   4.049  -1.329  0.6023 -0.4407 -0.2139
   99ccc     O4 3072   2.848   4.108  -1.333  0.0251  0.2615 -0.0999
   99ccc    H16 3073   2.896   4.190  -1.314  1.2359 -0.4413  0.0309
   99ccc     O5 3074   2.691   4.721  -1.661 -0.2696  0.9456  0.2299
   99ccc    H17 3075   2.556   4.492  -1.244  1.6369 -0.1646 -1.3854
  100ccc     C1 3076   3.767   4.074  -2.593  0.4559 -0.6843 -0.2004
  100ccc     H1 3077   3.854   4.091  -2.528 -0.4712  1.8162  0.4830
  100ccc     H2 3078   3.790   4.021  -2.687  0.9240  0.5956 -0.8300
  100ccc     C2 3079   3.712   4.218  -2.613  0.3453 -0.5568 -0.1507
  100ccc     H3 3080   3.782   4.287  -2.661 -0.1837 -0.8611 -1.4049
  100ccc     H4 3081   3.675   4.250  -2.515 -0.1947  0.4981 -0.6831
  100ccc     C3 3082   3.603   4.214  -2.718  0.0113 -0.0602  0.0778
  100ccc     H5 3083   3.556   4.116  -2.718 -0.3123  0.0904 -0.4628
  100ccc     H6 3084   3.651   4.233  -2.815  0.0430 -0.2277  0.0607
  100ccc     N1 3085   3.495   4.321  -2.717  0.4192  0.0614 -0.0114
  100ccc     C4 3086   3.419   4.304  -2.583  0.3679  0.0575 -0.0254
  100ccc     H7 3087   3.463   4.372  -2.509  1.4002 -0.2926 -0.2936
  100ccc     H8 3088   3.429   4.201  -2.547 -3.4957 -1.6078 -3.1044
  100ccc     C5 3089   3.268   4.326  -2.580  0.4827  0.0765 -0.3100
  100ccc     H9 3090   3.251   4.427  -2.619 -0.0373 -0.5478 -1.7627
  100ccc    H10 3091   3.225   4.234  -2.623  3.1384 -3.2534  3.3788
  100ccc     C6 3092   3.207   4.313  -2.439  0.1259  0.2580  0.1795
  100ccc     O1 3093   3.267   4.335  -2.334  0.7323 -0.4196 -0.3381
  100ccc     O2 3094   3.073   4.324  -2.438 -0.5686 -0.2923  0.2249
  100ccc    H11 3095   3.048   4.345  -2.530  0.9239 -1.9343 -0.6401
  100ccc     C7 3096   3.540   4.472  -2.730 -0.2249 -0.0714 -0.2321
  100ccc    H12 3097   3.458   4.542  -2.711 -0.3452 -0.2579 -0.0533
  100ccc    H13 3098   3.618   4.508  -2.663 -0.7462  1.9984 -0.6749
  100ccc     C8 3099   3.597   4.500  -2.867  0.6380 -0.1903 -0.2418
  100ccc    H14 3100   3.677   4.426  -2.883  0.2683 -0.6940  0.1758
  100ccc    H15 3101   3.514   4.493  -2.938 -0.2116 -1.9088  0.8417
  100ccc     C9 3102   3.662   4.634  -2.879 -0.0992  0.2106 -0.1054
  100ccc     O3 3103   3.710   4.694  -2.785 -0.0046  0.0933  0.0172
  100ccc     O4 3104   3.705   4.653  -3.006 -0.2703  0.2089 -0.1235
  100ccc    H16 3105   3.640   4.617  -3.068  1.3628 -1.4336 -0.9950
  100ccc     O5 3106   3.662   4.003  -2.519 -0.1937 -0.0990  0.1177
  100ccc    H17 3107   3.423   4.299  -2.788  1.6284  0.5870 -1.4290
  101ccc     C1 3108   3.971   4.330  -2.312 -0.3004 -0.2160 -0.3964
  101ccc     H1 3109   3.939   4.430  -2.281 -1.5384  0.0769 -2.4819
  101ccc     H2 3110   4.053   4.302  -2.244  0.1476 -1.4743 -1.4196
  101ccc     C2 3111   4.017   4.331  -2.458  0.2645 -0.1381  0.6366
  101ccc     H3 3112   3.933   4.378  -2.510 -1.4474 -0.4914  2.9160
  101ccc     H4 3113   4.040   4.232  -2.497 -1.3396 -0.1345 -0.4024
  101ccc     C3 3114   4.133   4.415  -2.454  0.3581  0.0045  0.3670
  101ccc     H5 3115   4.211   4.365  -2.396 -0.0045 -1.2940 -0.2268
  101ccc     H6 3116   4.112   4.512  -2.408  0.9809  0.8674 -1.0645
  101ccc     N1 3117   4.211   4.443  -2.584  0.2425 -0.4206 -0.1300
  101ccc     C4 3118   4.116   4.480  -2.696  0.5250  0.3868  0.3354
  101ccc     H7 3119   4.063   4.570  -2.667 -0.0030  0.4757 -0.8380
  101ccc     H8 3120   4.041   4.401  -2.701 -0.1815  1.1221 -1.7588
  101ccc     C5 3121   4.176   4.497  -2.838  0.2163 -0.2288 -0.6795
  101ccc     H9 3122   4.263   4.564  -2.824 -0.4183  0.6672 -0.9413
  101ccc    H10 3123   4.222   4.404  -2.873  0.4229 -1.2063  1.9476
  101ccc     C6 3124   4.090   4.563  -2.939  0.7133 -0.1423 -0.0902
  101ccc     O1 3125   3.972   4.581  -2.923 -0.1799  0.2929  0.2928
  101ccc     O2 3126   4.145   4.579  -3.058  0.2045 -0.4261 -0.0546
  101ccc    H11 3127   4.242   4.572  -3.045  0.5751  0.6010 -1.9166
  101ccc     C7 3128   4.295   4.564  -2.556  0.4901  0.1814 -1.2361
  101ccc    H12 3129   4.324   4.618  -2.646 -3.6646  2.7121 -1.3323
  101ccc    H13 3130   4.235   4.634  -2.497  1.3294  0.0558 -0.1924
  101ccc     C8 3131   4.421   4.535  -2.489  0.2763  0.1326 -0.7302
  101ccc    H14 3132   4.478   4.627  -2.480 -0.3044  0.5499 -1.2265
  101ccc    H15 3133   4.406   4.497  -2.387  1.3046  0.6267 -0.3811
  101ccc     C9 3134   4.507   4.449  -2.577  0.4380  0.4333  0.2176
  101ccc     O3 3135   4.494   4.434  -2.697  0.1031  0.3497 -0.1069
  101ccc     O4 3136   4.615   4.395  -2.522 -0.5107  0.4468 -0.4928
  101ccc    H16 3137   4.661   4.351  -2.596 -1.5939 -3.1261  0.7069
  101ccc     O5 3138   3.861   4.244  -2.297  0.0958  0.2023 -0.1548
  101ccc    H17 3139   4.262   4.354  -2.597 -1.3073 -1.5552  1.1303
  102ccc     C1 3140   3.559   1.681   0.714 -0.5632  0.3799  0.2984
  102ccc     H1 3141   3.532   1.592   0.771  1.0870 -2.6089 -3.1152
  102ccc     H2 3142   3.561   1.775   0.771 -1.5888  0.7978 -0.3348
  102ccc     C2 3143   3.436   1.700   0.617  0.7887  0.5672  0.8560
  102ccc     H3 3144   3.434   1.641   0.524 -1.3627  1.4944  0.2604
  102ccc     H4 3145   3.430   1.805   0.587 -0.2896  0.7488  1.6360
  102ccc     C3 3146   3.293   1.684   0.685 -0.0763 -0.0158  0.2442
  102ccc     H5 3147   3.234   1.775   0.692 -1.3069 -0.8184  0.7070
  102ccc     H6 3148   3.311   1.656   0.789 -0.9490 -1.7591 -0.0259
  102ccc     N1 3149   3.211   1.563   0.631  0.7211  0.2751 -0.3427
  102ccc     C4 3150   3.081   1.542   0.718 -0.1466  0.1511  0.2093
  102ccc     H7 3151   3.100   1.530   0.824 -1.1753 -1.0933  0.2802
  102ccc     H8 3152   3.039   1.446   0.686 -0.9178  0.6489 -0.3156
  102ccc     C5 3153   2.976   1.654   0.713  0.9535 -0.2281 -0.4880
  102ccc     H9 3154   3.010   1.740   0.773 -0.9916 -0.7452  1.4756
  102ccc    H10 3155   2.960   1.700   0.615  0.3168  2.5625  0.8272
  102ccc     C6 3156   2.835   1.605   0.764 -0.2982  0.5295 -0.0082
  102ccc     O1 3157   2.747   1.599   0.679  0.2642  0.0739  0.2322
  102ccc     O2 3158   2.822   1.582   0.892 -0.0130  0.1408 -0.0956
  102ccc    H11 3159   2.906   1.609   0.934 -0.7478  1.1813  0.7748
  102ccc     C7 3160   3.175   1.586   0.483  0.3942 -0.1213  0.2676
  102ccc    H12 3161   3.107   1.671   0.470  0.5880 -0.2163 -1.7127
  102ccc    H13 3162   3.267   1.606   0.426  0.5230 -1.9738 -0.2281
  102ccc     C8 3163   3.106   1.463   0.412 -0.1312 -0.0534 -0.3717
  102ccc    H14 3164   3.163   1.372   0.435  0.4414  0.1907 -0.7979
  102ccc    H15 3165   3.000   1.458   0.440 -0.2876 -0.3677 -0.9926
  102ccc     C9 3166   3.100   1.492   0.264 -0.1359  0.7825  0.0218
  102ccc     O3 3167   3.182   1.553   0.206  0.3106 -0.7709 -0.2546
  102ccc     O4 3168   3.029   1.397   0.196 -0.2342 -0.1185  0.5226
  102ccc    H16 3169   2.966   1.352   0.255  0.5976 -0.6623  1.0241
  102ccc     O5 3170   3.679   1.665   0.627  0.2299 -0.8252 -0.3621
  102ccc    H17 3171   3.272   1.480   0.640  0.2419 -0.0559 -0.0928
  103ccc     C1 3172   3.444   1.743   0.158 -0.4377 -0.3701  0.0233
  103ccc     H1 3173   3.464   1.648   0.209 -0.5342 -0.7461 -0.6215
  103ccc     H2 3174   3.347   1.773   0.198 -1.0192 -1.7053 -0.3186
  103ccc     C2 3175   3.453   1.717   0.002 -0.5409  0.1943  0.0213
  103ccc     H3 3176   3.393   1.631  -0.031  0.5090 -0.5010 -0.1116
  103ccc     H4 3177   3.556   1.683  -0.013  0.1470  1.3448  1.7765
  103ccc     C3 3178   3.424   1.844  -0.083  0.5106 -0.1494 -0.0663
  103ccc     H5 3179   3.497   1.921  -0.057  1.8585 -0.5625 -2.4068
  103ccc     H6 3180   3.335   1.897  -0.049 -0.2782 -3.1078  3.1199
  103ccc     N1 3181   3.435   1.821  -0.232  0.2029 -0.5344 -0.1260
  103ccc     C4 3182   3.344   1.712  -0.292  0.5283  0.2161 -0.3708
  103ccc     H7 3183   3.366   1.623  -0.234 -1.5384  0.5128  0.9948
  103ccc     H8 3184   3.359   1.691  -0.398 -0.0154 -2.1111 -0.0381
  103ccc     C5 3185   3.196   1.731  -0.282  0.1207  0.7754  0.1582
  103ccc     H9 3186   3.168   1.837  -0.280 -2.6421  0.1307 -0.6604
  103ccc    H10 3187   3.144   1.690  -0.369 -0.1187  0.0452  0.6330
  103ccc     C6 3188   3.138   1.679  -0.143  0.3955 -0.1405  0.3567
  103ccc     O1 3189   3.130   1.558  -0.119 -0.1895 -1.3393 -0.1488
  103ccc     O2 3190   3.116   1.775  -0.053 -0.8154 -0.2191  0.1175
  103ccc    H11 3191   3.063   1.722   0.009  0.1835 -0.0961  1.0988
  103ccc     C7 3192   3.420   1.958  -0.308  0.5433 -0.5698 -0.2843
  103ccc    H12 3193   3.390   1.933  -0.409 -2.4829 -0.2799  0.4628
  103ccc    H13 3194   3.328   1.999  -0.266  0.7253 -1.1081  0.6923
  103ccc     C8 3195   3.546   2.053  -0.295  0.4360  0.2206  0.3132
  103ccc    H14 3196   3.552   2.068  -0.186 -2.1238  0.1506  0.5211
  103ccc    H15 3197   3.640   2.000  -0.318 -0.2978 -0.6556 -0.7377
  103ccc     C9 3198   3.542   2.183  -0.368  0.5216  0.2704  0.1007
  103ccc     O3 3199   3.436   2.226  -0.411  0.0630  0.3614  0.5013
  103ccc     O4 3200   3.653   2.238  -0.411  0.3471  0.5016  0.0094
  103ccc    H16 3201   3.612   2.309  -0.464  0.3891  1.3061  1.0229
  103ccc     O5 3202   3.550   1.838   0.183 -0.1349 -0.0179  0.5245
  103ccc    H17 3203   3.530   1.783  -0.245  0.5756  0.7687 -1.4536
  104ccc     C1 3204   4.478   1.625   1.288  0.0472 -0.2652  0.2068
  104ccc     H1 3205   4.387   1.668   1.244 -1.2235  0.1578  3.0660
  104ccc     H2 3206   4.478   1.518   1.266  0.0550 -0.5439  1.4890
  104ccc     C2 3207   4.441   1.665   1.430 -0.2446 -0.7118 -0.2086
  104ccc     H3 3208   4.521   1.623   1.493  0.2704 -1.5151 -1.3814
  104ccc     H4 3209   4.346   1.617   1.457  0.2445 -1.2146  0.6700
  104ccc     C3 3210   4.433   1.820   1.442  0.0068 -0.4223 -0.4770
  104ccc     H5 3211   4.371   1.857   1.359  0.6683  0.9232 -0.4009
  104ccc     H6 3212   4.528   1.871   1.432 -1.1762  2.1712  0.6173
  104ccc     N1 3213   4.356   1.877   1.553  0.3661  0.3779 -0.6142
  104ccc     C4 3214   4.428   1.836   1.685  0.2769  0.4329 -0.0497
  104ccc     H7 3215   4.424   1.728   1.698  3.3249  0.3505  1.0325
  104ccc     H8 3216   4.364   1.869   1.767  0.1010 -0.7517  0.3141
  104ccc     C5 3217   4.580   1.867   1.705 -0.2747 -0.1789 -0.4219
  104ccc     H9 3218   4.634   1.821   1.621 -1.4823 -3.7505  0.5718
  104ccc    H10 3219   4.590   1.974   1.687 -2.2680 -0.0044 -0.8006
  104ccc     C6 3220   4.642   1.809   1.836 -0.3031 -0.5802  0.3335
  104ccc     O1 3221   4.585   1.720   1.899 -0.3007  0.2133  0.2844
  104ccc     O2 3222   4.739   1.888   1.894  0.1115 -0.3144 -0.1036
  104ccc    H11 3223   4.760   1.957   1.829 -2.7373  1.3306  0.5725
  104ccc     C7 3224   4.339   2.028   1.534  0.5290  0.2630 -0.2813
  104ccc    H12 3225   4.439   2.072   1.541  0.0238  1.4591 -0.3175
  104ccc    H13 3226   4.298   2.058   1.438 -0.2737  1.4986  0.4131
  104ccc     C8 3227   4.243   2.098   1.634  0.0384  0.4220 -0.5193
  104ccc    H14 3228   4.143   2.067   1.601 -0.4954  2.0731 -0.5454
  104ccc    H15 3229   4.263   2.063   1.735  3.1656  0.0985 -1.1450
  104ccc     C9 3230   4.275   2.245   1.632  0.2245  0.6648 -0.5586
  104ccc     O3 3231   4.385   2.298   1.631  0.0820 -0.1058  0.2810
  104ccc     O4 3232   4.176   2.311   1.688  0.3407  0.1488 -0.3830
  104ccc    H16 3233   4.212   2.401   1.698 -0.1067  0.4340 -1.2632
  104ccc     O5 3234   4.599   1.699   1.260  0.1237  0.0002  0.2750
  104ccc    H17 3235   4.260   1.840   1.561  0.4496  0.4159  0.7616
  105ccc     C1 3236   5.403   1.748   1.182  0.4713 -0.0094 -0.1262
  105ccc     H1 3237   5.492   1.811   1.192 -0.6095  1.4569  0.7852
  105ccc     H2 3238   5.346   1.734   1.275 -2.1215 -0.1027 -1.6439
  105ccc     C2 3239   5.420   1.635   1.082  0.6855  0.4901  0.2512
  105ccc     H3 3240   5.320   1.596   1.058  0.6623  0.6659  0.0633
  105ccc     H4 3241   5.475   1.556   1.136 -0.7166 -0.4522  0.3634
  105ccc     C3 3242   5.487   1.662   0.944  0.3592 -0.0965  0.1189
  105ccc     H5 3243   5.594   1.684   0.949  0.2168  1.3930 -2.0570
  105ccc     H6 3244   5.435   1.752   0.910 -1.2125 -0.7554  0.6850
  105ccc     N1 3245   5.446   1.563   0.834 -0.1534  0.1017  0.1840
  105ccc     C4 3246   5.496   1.598   0.691  0.1637 -0.2578  0.3243
  105ccc     H7 3247   5.595   1.556   0.673 -0.0105 -0.1496 -1.0567
  105ccc     H8 3248   5.519   1.703   0.675  0.0829 -0.7078 -4.3891
  105ccc     C5 3249   5.404   1.559   0.576  0.3264  0.3670 -0.2524
  105ccc     H9 3250   5.391   1.450   0.570  0.9689  0.3604 -2.3866
  105ccc    H10 3251   5.312   1.614   0.595  0.8803  1.8570 -1.6769
  105ccc     C6 3252   5.459   1.609   0.440  0.3364  0.5974 -0.5277
  105ccc     O1 3253   5.576   1.599   0.421  0.4882 -0.2146 -0.0204
  105ccc     O2 3254   5.389   1.704   0.382 -0.0019 -0.3571  0.0259
  105ccc    H11 3255   5.447   1.736   0.311 -2.6341  2.7935 -0.9237
  105ccc     C7 3256   5.495   1.430   0.875 -0.3275  0.7389 -1.1064
  105ccc    H12 3257   5.604   1.430   0.880 -0.3174 -0.7788 -1.0652
  105ccc    H13 3258   5.459   1.405   0.975  0.5287  0.7759 -0.7726
  105ccc     C8 3259   5.453   1.316   0.786 -0.4344  0.6058  0.9844
  105ccc    H14 3260   5.348   1.329   0.758 -0.8202  0.4687  2.2753
  105ccc    H15 3261   5.515   1.304   0.697  0.8591 -0.4542  1.9766
  105ccc     C9 3262   5.451   1.187   0.877  0.0141 -0.2193 -0.0442
  105ccc     O3 3263   5.460   1.185   0.999 -0.0479  0.2830 -0.3266
  105ccc     O4 3264   5.411   1.079   0.808  0.1033  0.0767  0.1730
  105ccc    H16 3265   5.389   1.109   0.718  0.4241 -0.9518 -0.2681
  105ccc     O5 3266   5.318   1.840   1.109  0.1969  0.3232  0.5764
  105ccc    H17 3267   5.344   1.551   0.839  0.0279 -1.0310  3.0322
  106ccc     C1 3268   2.933   2.868  -0.045 -0.0915 -0.1734 -0.1903
  106ccc     H1 3269   2.908   2.943   0.031 -1.8637 -1.2119  0.3204
  106ccc     H2 3270   2.862   2.853  -0.127 -1.9924  1.4811  1.0439
  106ccc     C2 3271   2.940   2.730   0.034 -0.1965 -0.4297  0.8164
  106ccc     H3 3272   2.840   2.711   0.077 -0.2408 -0.8288  0.5397
  106ccc     H4 3273   3.014   2.748   0.113  0.2689  2.2432 -0.1358
  106ccc     C3 3274   2.992   2.613  -0.050 -0.3209 -0.5024  0.0297
  106ccc     H5 3275   3.100   2.625  -0.040 -0.5997  2.7548  0.1517
  106ccc     H6 3276   2.964   2.630  -0.154 -0.0803 -1.1977 -0.1575
  106ccc     N1 3277   2.944   2.473  -0.008  0.7786  0.1568 -0.2726
  106ccc     C4 3278   2.792   2.471  -0.051  0.0431  0.5791  0.6979
  106ccc     H7 3279   2.786   2.443  -0.156  1.5108 -0.7627  0.9315
  106ccc     H8 3280   2.745   2.568  -0.033  0.0239  0.9893 -1.3599
  106ccc     C5 3281   2.706   2.376   0.034 -0.0410 -0.2170  0.0924
  106ccc     H9 3282   2.745   2.273   0.031 -0.1051 -0.3259  1.8881
  106ccc    H10 3283   2.709   2.404   0.140 -1.8311 -1.9184  0.6598
  106ccc     C6 3284   2.558   2.372  -0.012 -0.4825 -0.1469 -0.1097
  106ccc     O1 3285   2.516   2.371  -0.128 -0.0405 -0.2402 -0.0833
  106ccc     O2 3286   2.469   2.364   0.085 -0.7615 -0.1206  0.0631
  106ccc    H11 3287   2.512   2.370   0.172 -1.0124  2.0354  0.1040
  106ccc     C7 3288   3.017   2.351  -0.078  0.5506  0.1414 -0.0795
  106ccc    H12 3289   2.957   2.260  -0.087 -0.7325  1.0685 -1.1519
  106ccc    H13 3290   3.020   2.389  -0.180 -0.0608 -0.4522 -0.3255
  106ccc     C8 3291   3.155   2.325  -0.028  0.7697 -0.0527 -0.1216
  106ccc    H14 3292   3.210   2.420  -0.030  0.1718  0.3111  0.4063
  106ccc    H15 3293   3.155   2.299   0.078 -2.1646 -1.6025 -0.3765
  106ccc     C9 3294   3.229   2.227  -0.106 -0.3348  0.3887  0.7040
  106ccc     O3 3295   3.345   2.249  -0.137  0.5771 -0.7458 -0.5863
  106ccc     O4 3296   3.173   2.101  -0.112  0.3071  0.2669 -0.6431
  106ccc    H16 3297   3.093   2.087  -0.058  0.2226  0.4708 -0.7167
  106ccc     O5 3298   3.072   2.888  -0.082 -0.1209 -0.4115 -0.0125
  106ccc    H17 3299   2.954   2.464   0.094  3.7197  1.5009 -0.3122
  107ccc     C1 3300   3.545   2.814   0.470  0.0166  0.6065 -0.1156
  107ccc     H1 3301   3.648   2.850   0.461  0.9380 -2.0160 -0.8045
  107ccc     H2 3302   3.491   2.864   0.552 -0.6137  1.7407 -1.1815
  107ccc     C2 3303   3.557   2.669   0.510 -0.4184  0.0088  0.4650
  107ccc     H3 3304   3.465   2.625   0.550 -1.4023  0.6032 -1.0430
  107ccc     H4 3305   3.627   2.670   0.594  0.3253 -1.0853 -0.1259
  107ccc     C3 3306   3.604   2.576   0.395 -0.2426 -0.6651 -0.4061
  107ccc     H5 3307   3.698   2.614   0.356  0.0646  0.4949  1.3561
  107ccc     H6 3308   3.530   2.582   0.315 -0.4443 -0.8960 -0.2387
  107ccc     N1 3309   3.631   2.428   0.429  0.1676 -0.1947  0.1575
  107ccc     C4 3310   3.655   2.347   0.300 -0.3350  0.3812 -0.8202
  107ccc     H7 3311   3.671   2.241   0.324  0.3971  0.2220 -1.9427
  107ccc     H8 3312   3.749   2.382   0.257  1.0419 -0.6182  1.2423
  107ccc     C5 3313   3.547   2.353   0.193  0.0520  0.3385 -0.1084
  107ccc     H9 3314   3.444   2.364   0.229  0.3353  1.2176  0.4439
  107ccc    H10 3315   3.573   2.439   0.130 -0.2722 -0.5617 -1.5373
  107ccc     C6 3316   3.557   2.232   0.104 -0.5157  0.1962 -0.6457
  107ccc     O1 3317   3.648   2.210   0.021 -0.0909 -0.9915  0.2665
  107ccc     O2 3318   3.464   2.138   0.119  0.2073  0.4344  0.3113
  107ccc    H11 3319   3.392   2.173   0.175 -0.3104 -0.7404  0.4049
  107ccc     C7 3320   3.749   2.422   0.528  0.4417 -0.2533 -0.3638
  107ccc    H12 3321   3.846   2.408   0.480  0.1080  0.0504 -1.1630
  107ccc    H13 3322   3.756   2.508   0.594 -2.0477 -0.5475  0.3777
  107ccc     C8 3323   3.735   2.304   0.624 -0.3121 -0.0200  0.3173
  107ccc    H14 3324   3.646   2.325   0.685 -0.0893  1.9590  0.0508
  107ccc    H15 3325   3.700   2.222   0.561  0.9392  0.3983 -0.9705
  107ccc     C9 3326   3.843   2.278   0.723  0.5618  0.5438  0.2062
  107ccc     O3 3327   3.882   2.362   0.802 -0.3119  0.6579 -0.2255
  107ccc     O4 3328   3.863   2.143   0.747  0.0788 -0.7073  0.2757
  107ccc    H16 3329   3.935   2.138   0.813 -0.0724 -0.7965  0.4374
  107ccc     O5 3330   3.469   2.825   0.344 -0.4677 -0.1965 -0.1826
  107ccc    H17 3331   3.548   2.401   0.485  0.1181  1.6809  1.1004
  108ccc     C1 3332   3.891   1.531  -1.128 -0.3195 -0.3669 -0.6220
  108ccc     H1 3333   3.836   1.516  -1.222 -0.6872 -0.2001 -0.4333
  108ccc     H2 3334   3.999   1.542  -1.146 -0.2774  0.2931 -0.0204
  108ccc     C2 3335   3.869   1.407  -1.035 -0.2839 -0.5936  0.1812
  108ccc     H3 3336   3.901   1.427  -0.932 -1.4597 -1.4352  0.7447
  108ccc     H4 3337   3.921   1.321  -1.076  3.5005  2.0651 -1.1089
  108ccc     C3 3338   3.717   1.382  -1.020 -0.1925  0.1709  0.0575
  108ccc     H5 3339   3.663   1.380  -1.114 -2.5760 -2.3932  1.3371
  108ccc     H6 3340   3.682   1.471  -0.966  0.0755  1.2996 -1.5552
  108ccc     N1 3341   3.675   1.253  -0.941  0.1294 -0.4525 -0.1100
  108ccc     C4 3342   3.531   1.241  -0.923 -0.0130 -0.2407  0.3634
  108ccc     H7 3343   3.509   1.151  -0.866 -3.2228  0.2489  0.0861
  108ccc     H8 3344   3.489   1.225  -1.022  0.4453 -0.3946  0.1906
  108ccc     C5 3345   3.465   1.349  -0.850 -0.8666 -0.3038 -0.1972
  108ccc     H9 3346   3.512   1.364  -0.752 -1.3411 -1.8633  0.3066
  108ccc    H10 3347   3.485   1.446  -0.896  0.1595 -1.4924 -2.4164
  108ccc     C6 3348   3.317   1.324  -0.838 -0.2054  0.5074 -0.0832
  108ccc     O1 3349   3.270   1.213  -0.829 -0.1343  0.1639 -0.2431
  108ccc     O2 3350   3.245   1.423  -0.879  0.3010 -0.3489 -0.2801
  108ccc    H11 3351   3.154   1.388  -0.878 -0.3116  0.4972 -4.5198
  108ccc     C7 3352   3.736   1.134  -1.015 -0.4121 -0.7505  0.3651
  108ccc    H12 3353   3.700   1.138  -1.118  0.5806  2.3545  0.0248
  108ccc    H13 3354   3.843   1.155  -1.006 -0.6482 -0.2113  2.6726
  108ccc     C8 3355   3.717   0.992  -0.955  0.4764 -0.1402 -0.8261
  108ccc    H14 3356   3.738   0.995  -0.847 -2.1117 -0.5227 -0.2514
  108ccc    H15 3357   3.609   0.972  -0.962 -0.4917  3.9213 -0.0327
  108ccc     C9 3358   3.786   0.884  -1.034  0.6913 -0.0644  0.1008
  108ccc     O3 3359   3.860   0.904  -1.126 -0.7077 -0.4981  0.4203
  108ccc     O4 3360   3.787   0.764  -0.981  0.3585  0.7970  0.1460
  108ccc    H16 3361   3.753   0.774  -0.890 -0.2637 -0.8170  0.1290
  108ccc     O5 3362   3.853   1.657  -1.068  0.2113  0.0829  0.1889
  108ccc    H17 3363   3.712   1.251  -0.845 -1.3606  0.5747  0.5367
  109ccc     C1 3364   3.233   1.968  -0.695  0.0601 -1.0534  0.2385
  109ccc     H1 3365   3.235   1.925  -0.796  2.2241 -0.4999 -0.0074
  109ccc     H2 3366   3.180   1.893  -0.635  0.9789 -2.2241 -0.3682
  109ccc     C2 3367   3.175   2.113  -0.683 -0.3233  0.0979 -0.5835
  109ccc     H3 3368   3.167   2.130  -0.575  0.5746 -0.2528 -0.4499
  109ccc     H4 3369   3.072   2.112  -0.721 -0.5399  2.3726 -0.1933
  109ccc     C3 3370   3.252   2.221  -0.767  0.1006  1.0211 -0.1343
  109ccc     H5 3371   3.235   2.193  -0.871 -1.5472  1.6727 -0.0823
  109ccc     H6 3372   3.358   2.217  -0.742 -0.1232 -1.8242  0.6062
  109ccc     N1 3373   3.207   2.368  -0.743  0.4208 -0.0419 -0.1085
  109ccc     C4 3374   3.222   2.400  -0.591 -0.3086  0.4279  0.0701
  109ccc     H7 3375   3.328   2.390  -0.571 -0.3419  1.5650  0.8845
  109ccc     H8 3376   3.176   2.318  -0.536  0.5464  1.8452  3.0604
  109ccc     C5 3377   3.166   2.537  -0.544 -0.2339  0.8283 -0.1330
  109ccc     H9 3378   3.218   2.625  -0.582  2.0028  0.1462  1.1718
  109ccc    H10 3379   3.064   2.532  -0.584  0.0071  2.0767 -0.9474
  109ccc     C6 3380   3.165   2.542  -0.390  0.5954 -0.6881 -0.4468
  109ccc     O1 3381   3.178   2.440  -0.320  0.0407  0.0216 -0.5954
  109ccc     O2 3382   3.115   2.655  -0.335 -0.2406  0.4781  0.2675
  109ccc    H11 3383   3.109   2.723  -0.405  0.0806 -2.0347 -2.4012
  109ccc     C7 3384   3.285   2.462  -0.833  0.4090  0.2639  0.7618
  109ccc    H12 3385   3.244   2.562  -0.813 -1.5155 -0.3648  0.1926
  109ccc    H13 3386   3.392   2.459  -0.813  0.7380  0.7135 -0.7927
  109ccc     C8 3387   3.259   2.435  -0.985  0.3554  0.0453  0.2576
  109ccc    H14 3388   3.287   2.334  -1.018 -0.0195  0.4833 -1.5035
  109ccc    H15 3389   3.151   2.439  -1.006  0.4281 -1.5871 -0.5889
  109ccc     C9 3390   3.331   2.540  -1.070 -0.4758  0.5830 -0.2387
  109ccc     O3 3391   3.380   2.645  -1.032  1.0437  0.0258  0.1250
  109ccc     O4 3392   3.288   2.536  -1.199  0.5620 -0.0614 -0.1375
  109ccc    H16 3393   3.246   2.449  -1.208 -0.8781  0.3243  2.0408
  109ccc     O5 3394   3.374   1.973  -0.659 -0.2431 -0.2682 -0.3709
  109ccc    H17 3395   3.106   2.361  -0.758  0.2042 -3.8706  2.0671
  110ccc     C1 3396   7.033   7.242   1.055 -0.1399 -0.4131  0.0833
  110ccc     H1 3397   7.110   7.233   0.978  2.6974  2.2856  2.3257
  110ccc     H2 3398   7.003   7.346   1.068 -1.0686 -0.7092  0.3876
  110ccc     C2 3399   7.083   7.185   1.187 -0.5677 -0.3388  0.1541
  110ccc     H3 3400   7.184   7.221   1.211 -0.8270 -0.0343  0.8050
  110ccc     H4 3401   7.089   7.076   1.179 -0.9118 -0.3058 -0.6356
  110ccc     C3 3402   6.982   7.229   1.293 -0.5503  0.4158 -0.3918
  110ccc     H5 3403   6.895   7.168   1.268 -0.4128 -0.0702  0.2900
  110ccc     H6 3404   6.954   7.334   1.292 -2.8500 -0.1592 -1.0408
  110ccc     N1 3405   7.013   7.172   1.432 -0.6765  0.0708 -0.4863
  110ccc     C4 3406   7.139   7.230   1.496  0.7244 -0.1711  0.0799
  110ccc     H7 3407   7.200   7.266   1.413 -0.1382  0.5172 -0.2815
  110ccc     H8 3408   7.196   7.156   1.552  1.2345 -0.1158 -0.3569
  110ccc     C5 3409   7.115   7.353   1.582  0.4939  0.0389 -0.0058
  110ccc     H9 3410   7.078   7.442   1.531  1.4200  1.0663  1.0709
  110ccc    H10 3411   7.031   7.342   1.652 -2.7585  3.0117 -3.0292
  110ccc     C6 3412   7.239   7.384   1.662 -0.2447 -1.0099 -0.6349
  110ccc     O1 3413   7.349   7.336   1.645 -0.1883 -0.4428 -0.1291
  110ccc     O2 3414   7.214   7.456   1.775  0.5696  0.2657  0.1626
  110ccc    H11 3415   7.300   7.463   1.820  0.1811 -1.0630  1.1873
  110ccc     C7 3416   6.891   7.179   1.516  0.4918 -0.4736  0.2388
  110ccc    H12 3417   6.923   7.141   1.613 -4.1220 -1.6928  1.5774
  110ccc    H13 3418   6.862   7.283   1.536  1.0043 -0.3873  0.5581
  110ccc     C8 3419   6.773   7.083   1.489  0.2523  0.5830  0.4257
  110ccc    H14 3420   6.810   6.998   1.430  0.8378  0.7564  0.5427
  110ccc    H15 3421   6.741   7.037   1.583 -0.2987  2.0934  1.0205
  110ccc     C9 3422   6.647   7.145   1.425  0.2922  0.3683  0.2316
  110ccc     O3 3423   6.652   7.253   1.369 -0.0759 -0.6181  0.4385
  110ccc     O4 3424   6.550   7.057   1.387 -0.2045 -0.2566 -0.6766
  110ccc    H16 3425   6.553   6.978   1.444  0.3139  0.2758  0.0547
  110ccc     O5 3426   6.914   7.169   1.010 -0.0833 -0.2564  0.3228
  110ccc    H17 3427   7.031   7.072   1.414 -4.0319 -0.4217 -1.8273
  111ccc     C1 3428   6.230   7.280   1.283  0.5973  0.1592 -0.2435
  111ccc     H1 3429   6.121   7.283   1.291  0.6435  0.2219  0.4030
  111ccc     H2 3430   6.274   7.233   1.372  1.4429 -1.4315 -1.4551
  111ccc     C2 3431   6.261   7.429   1.267  0.6729 -0.2890 -0.2771
  111ccc     H3 3432   6.199   7.470   1.348  2.3139 -0.5403  1.1812
  111ccc     H4 3433   6.237   7.462   1.165 -2.1532  2.3898  1.0800
  111ccc     C3 3434   6.405   7.454   1.302  0.0834 -0.3346  0.3989
  111ccc     H5 3435   6.468   7.414   1.223  2.0643  0.4280  1.5148
  111ccc     H6 3436   6.435   7.405   1.395  0.8490 -0.7267 -0.0384
  111ccc     N1 3437   6.441   7.602   1.308  0.4760  0.7042  0.2657
  111ccc     C4 3438   6.589   7.605   1.345  0.8752  0.2349  0.1471
  111ccc     H7 3439   6.616   7.709   1.323 -0.0593  0.8592  1.7239
  111ccc     H8 3440   6.635   7.527   1.284 -0.3378 -0.5699  0.2349
  111ccc     C5 3441   6.630   7.572   1.492 -0.5016 -0.0432 -0.5176
  111ccc     H9 3442   6.591   7.643   1.566 -1.6834  1.5440 -2.5518
  111ccc    H10 3443   6.589   7.471   1.500  1.7665 -1.2898 -3.1141
  111ccc     C6 3444   6.787   7.569   1.501  0.2522 -0.2743 -0.2375
  111ccc     O1 3445   6.852   7.493   1.434  0.6741  0.2449 -0.0250
  111ccc     O2 3446   6.850   7.673   1.560 -0.3329 -0.0211 -0.2507
  111ccc    H11 3447   6.787   7.734   1.602  2.0360  2.7504 -0.4240
  111ccc     C7 3448   6.391   7.686   1.187 -0.3379  0.0982 -0.3217
  111ccc    H12 3449   6.283   7.670   1.175  0.1507 -1.4238 -3.7805
  111ccc    H13 3450   6.407   7.792   1.206  0.6450  0.3312 -2.3072
  111ccc     C8 3451   6.467   7.663   1.059 -0.7268  0.2474 -0.0707
  111ccc    H14 3452   6.571   7.699   1.066  0.3361 -2.0593 -2.2863
  111ccc    H15 3453   6.465   7.559   1.025  0.2595 -0.5274  2.0527
  111ccc     C9 3454   6.411   7.737   0.948  0.4571  0.4614 -0.0792
  111ccc     O3 3455   6.297   7.771   0.943 -0.3267 -0.4274  0.3724
  111ccc     O4 3456   6.496   7.784   0.861  0.0439 -0.1071  0.7804
  111ccc    H16 3457   6.578   7.736   0.881  1.2544  0.2218 -2.8314
  111ccc     O5 3458   6.275   7.206   1.163  0.2041  0.7059 -0.0593
  111ccc    H17 3459   6.392   7.632   1.394 -2.5131 -0.8974 -0.7502
  112ccc     C1 3460   6.919   6.433   2.075  0.1323  0.5164  1.0893
  112ccc     H1 3461   6.996   6.432   1.997  0.5093  1.6743  1.4380
  112ccc     H2 3462   6.936   6.528   2.125  0.2866  0.0257  1.9789
  112ccc     C2 3463   6.948   6.320   2.176  0.2850 -0.0356  0.1822
  112ccc     H3 3464   7.053   6.339   2.200  2.0638 -2.8288 -4.0931
  112ccc     H4 3465   6.940   6.223   2.125  1.2617 -0.4942  0.8677
  112ccc     C3 3466   6.850   6.321   2.290 -0.3235 -0.2494 -0.8102
  112ccc     H5 3467   6.746   6.320   2.256 -1.0460 -0.1257  1.2648
  112ccc     H6 3468   6.865   6.409   2.353 -2.0544  0.0174 -0.7088
  112ccc     N1 3469   6.865   6.205   2.388  0.3368 -0.8875  0.5498
  112ccc     C4 3470   6.856   6.264   2.526  0.1190  0.1721 -0.1247
  112ccc     H7 3471   6.759   6.309   2.548 -0.2110 -0.8074  0.4910
  112ccc     H8 3472   6.937   6.337   2.524  1.3455 -1.0528 -3.7411
  112ccc     C5 3473   6.878   6.156   2.634  0.0985 -0.4051  0.6067
  112ccc     H9 3474   6.786   6.102   2.660 -1.1126  0.4059 -1.7074
  112ccc    H10 3475   6.951   6.086   2.593 -0.1915  0.0604 -0.7658
  112ccc     C6 3476   6.941   6.204   2.766  1.1086 -0.1127 -0.4953
  112ccc     O1 3477   6.977   6.320   2.795  0.0829  0.5926  0.0507
  112ccc     O2 3478   6.913   6.122   2.869  0.6284 -0.1202  0.1501
  112ccc    H11 3479   6.940   6.172   2.948  0.5167 -0.0045  0.1136
  112ccc     C7 3480   6.761   6.099   2.360 -0.0067  0.4184  0.8314
  112ccc    H12 3481   6.777   6.010   2.421  3.0629  0.9602  0.9620
  112ccc    H13 3482   6.673   6.155   2.392 -1.1965 -0.7388 -0.2848
  112ccc     C8 3483   6.746   6.047   2.218  0.3630 -0.4631  0.1505
  112ccc    H14 3484   6.726   6.125   2.144 -0.2373 -1.3420 -0.6443
  112ccc    H15 3485   6.836   5.990   2.190  0.9574  1.0289 -1.1294
  112ccc     C9 3486   6.639   5.945   2.214  0.1028  0.3291  0.3428
  112ccc     O3 3487   6.555   5.935   2.301 -0.2400  0.1461  0.2960
  112ccc     O4 3488   6.616   5.899   2.091 -0.3160 -0.2138 -0.0865
  112ccc    H16 3489   6.696   5.917   2.039 -0.1779 -0.1497  0.1426
  112ccc     O5 3490   6.791   6.424   2.023 -0.6462 -0.2106 -0.3146
  112ccc    H17 3491   6.961   6.170   2.382  0.0621 -1.6899  0.6989
  113ccc     C1 3492   6.291   6.778   2.157  0.0668 -0.2640 -0.2566
  113ccc     H1 3493   6.192   6.822   2.170  0.3774  0.0901  1.0728
  113ccc     H2 3494   6.300   6.700   2.233  0.1118  1.0742  1.1759
  113ccc     C2 3495   6.387   6.887   2.202 -0.1398  0.3529  0.7962
  113ccc     H3 3496   6.481   6.837   2.180 -0.2000  0.1172  1.0730
  113ccc     H4 3497   6.374   6.901   2.310 -0.9869 -0.9670  0.8925
  113ccc     C3 3498   6.382   7.019   2.116  0.2885  0.0051 -0.6341
  113ccc     H5 3499   6.298   7.081   2.148 -0.8986 -1.6366 -0.4577
  113ccc     H6 3500   6.362   6.994   2.011 -0.6220 -0.1962 -0.4259
  113ccc     N1 3501   6.509   7.098   2.108  0.0007  0.8085 -1.0783
  113ccc     C4 3502   6.528   7.163   1.972  0.3122 -0.3372 -0.2086
  113ccc     H7 3503   6.436   7.216   1.944 -0.7205 -1.7097  0.4590
  113ccc     H8 3504   6.539   7.078   1.905 -1.4824 -1.4488  0.8303
  113ccc     C5 3505   6.643   7.267   1.940  0.2388  0.4294 -0.3224
  113ccc     H9 3506   6.646   7.353   2.008 -1.6745 -1.1599  1.9636
  113ccc    H10 3507   6.736   7.212   1.959  0.9246  1.9261  0.7633
  113ccc     C6 3508   6.653   7.315   1.801 -0.1749  0.6932  0.1969
  113ccc     O1 3509   6.553   7.343   1.738  0.2422  0.2083 -0.1601
  113ccc     O2 3510   6.767   7.376   1.770 -0.5008  0.3086 -0.0100
  113ccc    H11 3511   6.832   7.337   1.832  1.0064 -1.8188 -2.7087
  113ccc     C7 3512   6.502   7.209   2.220 -0.4058 -0.0084  0.2251
  113ccc    H12 3513   6.589   7.272   2.202  1.2496 -2.5967 -1.7046
  113ccc    H13 3514   6.413   7.269   2.200 -0.4774 -0.2388 -0.1769
  113ccc     C8 3515   6.516   7.154   2.364  0.4522 -0.4560 -0.5742
  113ccc    H14 3516   6.447   7.082   2.409 -0.5997  0.4212 -0.7446
  113ccc    H15 3517   6.613   7.104   2.375  0.8562 -0.2782 -2.8808
  113ccc     C9 3518   6.516   7.267   2.470 -0.2002  0.2231  0.3774
  113ccc     O3 3519   6.477   7.379   2.441  0.4787  0.5157  0.1183
  113ccc     O4 3520   6.560   7.228   2.594  0.9315 -0.2177  0.7287
  113ccc    H16 3521   6.569   7.131   2.595 -0.0911 -0.3554  2.7582
  113ccc     O5 3522   6.321   6.741   2.023  0.4130  0.0157 -0.5925
  113ccc    H17 3523   6.597   7.046   2.116 -0.4082  0.2762  0.2038
  114ccc     C1 3524   4.255   6.599   0.097 -0.4242 -0.2772 -0.2225
  114ccc     H1 3525   4.168   6.605   0.163 -0.5322  0.6157 -0.4334
  114ccc     H2 3526   4.332   6.657   0.148 -1.5919  2.2635 -1.1595
  114ccc     C2 3527   4.232   6.682  -0.035 -0.0283  0.3634  1.2566
  114ccc     H3 3528   4.326   6.710  -0.084  0.0149  0.0685  1.1733
  114ccc     H4 3529   4.198   6.784  -0.012  1.9035  1.2436  0.4437
  114ccc     C3 3530   4.132   6.607  -0.133 -0.3888 -0.0526  0.3364
  114ccc     H5 3531   4.171   6.507  -0.149 -0.1474 -0.3221  2.3273
  114ccc     H6 3532   4.130   6.670  -0.223  0.3572  2.2516  1.8237
  114ccc     N1 3533   3.992   6.589  -0.079 -0.3002  0.1963 -0.5794
  114ccc     C4 3534   3.982   6.473   0.022  0.2037 -0.0208 -0.3898
  114ccc     H7 3535   3.886   6.478   0.074 -0.0497 -0.4220 -0.8078
  114ccc     H8 3536   4.061   6.466   0.097  0.0791 -1.1679 -0.3346
  114ccc     C5 3537   3.994   6.336  -0.040  0.0583  0.6937  0.0556
  114ccc     H9 3538   3.896   6.311  -0.081  1.2490 -3.5273 -0.7915
  114ccc    H10 3539   4.077   6.335  -0.113 -0.8442  3.5028 -1.1385
  114ccc     C6 3540   4.016   6.212   0.049  0.0059 -0.9767 -0.5383
  114ccc     O1 3541   4.020   6.216   0.171  0.1705 -0.9714 -0.5540
  114ccc     O2 3542   3.993   6.104  -0.017  0.3038  0.2444  0.5561
  114ccc    H11 3543   3.989   6.129  -0.111  1.7983 -1.1189  0.0828
  114ccc     C7 3544   3.921   6.710  -0.037 -0.2210 -0.6052 -0.2155
  114ccc    H12 3545   3.822   6.680  -0.002  0.4872  1.5347  4.3302
  114ccc    H13 3546   3.969   6.746   0.054 -0.7603  0.0253 -0.1676
  114ccc     C8 3547   3.911   6.827  -0.144  0.0225  0.2105  0.5010
  114ccc    H14 3548   4.014   6.863  -0.155 -0.6681  2.1405 -0.1275
  114ccc    H15 3549   3.864   6.795  -0.238  0.2678  2.7168 -0.5622
  114ccc     C9 3550   3.825   6.941  -0.098 -0.0716 -0.1957  0.4506
  114ccc     O3 3551   3.795   6.946   0.024 -0.6257  0.6006  0.6723
  114ccc     O4 3552   3.832   7.056  -0.170  0.1614 -0.5386 -0.1139
  114ccc    H16 3553   3.861   7.024  -0.258  0.0580  0.8617 -0.6991
  114ccc     O5 3554   4.293   6.465   0.066 -0.1157  0.2569 -0.0481
  114ccc    H17 3555   3.933   6.565  -0.160 -0.5266  0.1834 -0.4145
  115ccc     C1 3556   4.819   6.325  -0.490 -0.0935 -0.2242  0.3718
  115ccc     H1 3557   4.778   6.384  -0.573 -0.9986 -1.1669  0.1308
  115ccc     H2 3558   4.920   6.362  -0.468  1.7037 -2.6627 -2.7724
  115ccc     C2 3559   4.828   6.172  -0.527  0.4526 -0.5433 -0.3906
  115ccc     H3 3560   4.853   6.117  -0.435  1.0583  0.7887  0.2717
  115ccc     H4 3561   4.915   6.164  -0.593  0.9364 -1.2669  0.3113
  115ccc     C3 3562   4.694   6.123  -0.595 -0.5278 -0.0674 -0.1712
  115ccc     H5 3563   4.690   6.170  -0.693 -1.6210 -2.0562 -1.1289
  115ccc     H6 3564   4.609   6.165  -0.541 -0.2826 -1.1993  1.1485
  115ccc     N1 3565   4.678   5.968  -0.606 -0.3612  0.3477 -0.1382
  115ccc     C4 3566   4.546   5.937  -0.677 -0.0089  0.6287  0.2004
  115ccc     H7 3567   4.570   5.949  -0.783  0.2977 -0.3716  0.1483
  115ccc     H8 3568   4.474   6.013  -0.644 -0.0369 -0.2412  2.2740
  115ccc     C5 3569   4.478   5.800  -0.651 -0.2555  0.6658  0.1777
  115ccc     H9 3570   4.561   5.728  -0.658 -0.5222  0.3153  0.6560
  115ccc    H10 3571   4.431   5.791  -0.553  0.4689 -0.7656  0.4167
  115ccc     C6 3572   4.376   5.759  -0.757  0.3594  0.1283 -0.9146
  115ccc     O1 3573   4.391   5.669  -0.838  0.2284  0.1196 -0.2762
  115ccc     O2 3574   4.277   5.840  -0.775  0.5679 -0.1247  0.4033
  115ccc    H11 3575   4.241   5.807  -0.860  2.5931 -1.4834 -0.0220
  115ccc     C7 3576   4.794   5.913  -0.697  0.0284 -0.1771 -0.2600
  115ccc    H12 3577   4.885   5.920  -0.637 -0.1151  1.2437 -0.1663
  115ccc    H13 3578   4.782   5.810  -0.732  1.8983  0.5013 -3.3495
  115ccc     C8 3579   4.815   5.976  -0.837  0.1492  0.1160 -0.7931
  115ccc    H14 3580   4.753   5.927  -0.914 -0.8305 -1.9299  1.1584
  115ccc    H15 3581   4.783   6.080  -0.830 -1.2776 -0.4015  1.8017
  115ccc     C9 3582   4.967   5.970  -0.870 -0.2633  0.0530  0.8982
  115ccc     O3 3583   5.048   6.010  -0.790 -0.5723  0.0604  0.4016
  115ccc     O4 3584   4.996   5.906  -0.983 -0.1861  0.0175  0.2854
  115ccc    H16 3585   5.089   5.930  -0.999  0.0440 -0.5059  0.8204
  115ccc     O5 3586   4.725   6.321  -0.384  0.2141  0.3048 -0.2318
  115ccc    H17 3587   4.686   5.920  -0.515  0.6993 -2.6525 -1.7020
  116ccc     C1 3588   5.954   6.673  -0.315  0.4415 -0.2663  0.3559
  116ccc     H1 3589   6.017   6.760  -0.294  0.0159  0.0906  0.1684
  116ccc     H2 3590   6.017   6.584  -0.314  0.5220 -0.2359 -0.7575
  116ccc     C2 3591   5.890   6.679  -0.452  0.2534  0.0257 -0.6086
  116ccc     H3 3592   5.841   6.582  -0.466 -1.2214  0.4121  1.4197
  116ccc     H4 3593   5.970   6.695  -0.526 -0.6828  0.6277 -1.5296
  116ccc     C3 3594   5.782   6.789  -0.473  0.1782 -0.1131 -0.1224
  116ccc     H5 3595   5.834   6.883  -0.453  1.5709 -1.1822  1.6038
  116ccc     H6 3596   5.699   6.790  -0.402  2.0193  1.4712  2.1875
  116ccc     N1 3597   5.728   6.805  -0.623 -0.7535 -0.2515 -0.8949
  116ccc     C4 3598   5.638   6.686  -0.646 -0.4987 -0.5888 -0.0111
  116ccc     H7 3599   5.546   6.708  -0.592 -0.7944  1.0914 -1.1428
  116ccc     H8 3600   5.695   6.603  -0.604  0.7657  0.1849 -0.1467
  116ccc     C5 3601   5.608   6.655  -0.790 -0.6704  0.6822  0.5717
  116ccc     H9 3602   5.590   6.742  -0.854 -1.0077  0.3234  0.1736
  116ccc    H10 3603   5.698   6.614  -0.838 -1.8615 -0.1923 -1.0627
  116ccc     C6 3604   5.485   6.560  -0.811  0.3955  0.5035 -0.1174
  116ccc     O1 3605   5.445   6.482  -0.726 -0.4824  0.3337  0.3225
  116ccc     O2 3606   5.410   6.580  -0.919  0.1155  0.2369  0.1200
  116ccc    H11 3607   5.324   6.541  -0.894 -0.9101  1.7885 -0.8424
  116ccc     C7 3608   5.647   6.936  -0.630 -0.1017  0.0124  0.0958
  116ccc    H12 3609   5.586   6.930  -0.720 -0.7607 -0.2954  0.5540
  116ccc    H13 3610   5.583   6.928  -0.541  0.1510 -0.4985  0.2374
  116ccc     C8 3611   5.722   7.075  -0.624 -0.7845 -0.1038 -0.0233
  116ccc    H14 3612   5.649   7.154  -0.644 -1.4776 -0.3603  1.3740
  116ccc    H15 3613   5.760   7.096  -0.523  1.5570  0.4342 -0.9363
  116ccc     C9 3614   5.845   7.099  -0.716  0.0336 -0.3595 -0.2464
  116ccc     O3 3615   5.960   7.092  -0.674 -0.4852 -0.1375 -0.1008
  116ccc     O4 3616   5.821   7.108  -0.847  0.0355  0.0944  0.4487
  116ccc    H16 3617   5.733   7.071  -0.863  0.3105 -0.0468 -0.8259
  116ccc     O5 3618   5.843   6.649  -0.223  0.6543 -0.4021 -0.0865
  116ccc    H17 3619   5.808   6.814  -0.688 -0.2285  3.2501  0.0363
  117ccc     C1 3620   5.269   6.644   0.015  0.5885  0.3919 -0.6641
  117ccc     H1 3621   5.285   6.616  -0.090 -0.7749  0.7410 -0.9812
  117ccc     H2 3622   5.161   6.647   0.034  0.2760 -4.1469 -0.4347
  117ccc     C2 3623   5.346   6.772   0.035  0.0972 -0.0962  0.4057
  117ccc     H3 3624   5.309   6.844  -0.039  0.8808 -0.3718 -0.2648
  117ccc     H4 3625   5.453   6.752   0.022  0.1719  1.0275 -0.9231
  117ccc     C3 3626   5.322   6.816   0.180 -0.3925 -0.3677  0.1539
  117ccc     H5 3627   5.332   6.728   0.242 -2.6368 -0.3114  0.6907
  117ccc     H6 3628   5.214   6.832   0.188 -1.1169 -3.8326 -1.0009
  117ccc     N1 3629   5.402   6.935   0.216 -0.0022 -0.1675 -0.7645
  117ccc     C4 3630   5.316   7.053   0.251 -0.0584 -0.8046  0.0532
  117ccc     H7 3631   5.376   7.137   0.285 -0.2845 -1.1404  1.3550
  117ccc     H8 3632   5.246   7.011   0.323  1.1455 -0.5037  1.4475
  117ccc     C5 3633   5.232   7.095   0.123  0.1421 -0.8438  0.1894
  117ccc     H9 3634   5.298   7.084   0.036  1.2374 -1.6953  1.0920
  117ccc    H10 3635   5.143   7.033   0.110 -1.1926  1.2311 -1.2189
  117ccc     C6 3636   5.189   7.238   0.131  0.6638 -0.3758  0.3953
  117ccc     O1 3637   5.261   7.333   0.149  0.2616 -0.2426 -0.2421
  117ccc     O2 3638   5.069   7.246   0.074  0.0432 -0.3129  0.5742
  117ccc    H11 3639   5.033   7.333   0.100 -3.3373 -1.8052  1.4273
  117ccc     C7 3640   5.506   6.904   0.320  0.0655  0.5897 -0.5385
  117ccc    H12 3641   5.572   6.822   0.293 -1.2501 -1.0384  0.9448
  117ccc    H13 3642   5.567   6.993   0.336 -2.5888  2.3588  0.3785
  117ccc     C8 3643   5.462   6.886   0.467  0.2532 -0.0529 -0.2213
  117ccc    H14 3644   5.494   6.974   0.524 -0.1397 -1.1935  1.8713
  117ccc    H15 3645   5.353   6.881   0.473  0.1423  2.6588  1.3367
  117ccc     C9 3646   5.513   6.773   0.541 -0.2023  0.1749 -0.0652
  117ccc     O3 3647   5.453   6.670   0.556 -0.6165  0.4329 -0.1390
  117ccc     O4 3648   5.643   6.795   0.589  0.0180  0.0776  0.3939
  117ccc    H16 3649   5.656   6.720   0.651 -1.0088 -1.4778 -1.1868
  117ccc     O5 3650   5.344   6.551   0.091  0.1006  0.3280  0.1729
  117ccc    H17 3651   5.466   6.968   0.142 -0.6905  2.2238 -0.3901
  118ccc     C1 3652   6.329   3.719  -1.184  1.1269  0.0608  0.0260
  118ccc     H1 3653   6.347   3.765  -1.282  2.3246  2.5398  1.3387
  118ccc     H2 3654   6.376   3.620  -1.178 -1.4279 -1.1385  2.2549
  118ccc     C2 3655   6.176   3.698  -1.144  0.3860  0.0884  0.4638
  118ccc     H3 3656   6.173   3.643  -1.049 -0.1640 -1.3719 -0.3645
  118ccc     H4 3657   6.145   3.623  -1.218  1.2903  1.5356 -1.4487
  118ccc     C3 3658   6.095   3.823  -1.152  0.1490 -0.8824  0.3946
  118ccc     H5 3659   6.118   3.858  -1.253 -2.2696  2.1960  0.7343
  118ccc     H6 3660   6.145   3.898  -1.091  1.7277  1.2703 -3.2200
  118ccc     N1 3661   5.936   3.816  -1.138 -0.3228 -0.1472 -0.2062
  118ccc     C4 3662   5.868   3.733  -1.247  0.4125  0.2327 -0.2767
  118ccc     H7 3663   5.880   3.628  -1.219 -0.0738 -0.3685 -2.1865
  118ccc     H8 3664   5.915   3.741  -1.345  0.9166 -3.0345 -0.3946
  118ccc     C5 3665   5.720   3.768  -1.280 -0.4511 -0.1211  0.1138
  118ccc     H9 3666   5.660   3.789  -1.190 -1.6457 -0.4294 -0.5884
  118ccc    H10 3667   5.717   3.857  -1.344 -2.0218 -1.3609 -1.6282
  118ccc     C6 3668   5.648   3.654  -1.348 -0.4547  0.5182 -0.2800
  118ccc     O1 3669   5.702   3.543  -1.357  0.2237 -0.2495  0.1175
  118ccc     O2 3670   5.509   3.668  -1.349 -0.6579  0.1880  0.1946
  118ccc    H11 3671   5.488   3.763  -1.350  0.6679  0.4959 -1.1471
  118ccc     C7 3672   5.899   3.767  -0.993 -1.3304 -0.8104 -0.0580
  118ccc    H12 3673   5.791   3.754  -0.991 -1.4770 -0.1650 -1.9052
  118ccc    H13 3674   5.954   3.674  -0.974 -0.9608 -0.2068  2.1121
  118ccc     C8 3675   5.928   3.870  -0.887  0.2118 -0.3286 -0.0847
  118ccc    H14 3676   6.028   3.913  -0.898  0.5350 -0.8272  0.7841
  118ccc    H15 3677   5.845   3.940  -0.897 -0.5694 -1.1653  0.3626
  118ccc     C9 3678   5.912   3.805  -0.742 -0.7781 -0.0355 -0.2966
  118ccc     O3 3679   5.903   3.685  -0.727 -0.8452 -0.5862  0.0473
  118ccc     O4 3680   5.903   3.896  -0.647  0.3845 -0.7453  0.4473
  118ccc    H16 3681   5.931   3.980  -0.687  0.6503 -1.9718 -2.1406
  118ccc     O5 3682   6.379   3.814  -1.094  0.1465  0.1618  0.1492
  118ccc    H17 3683   5.904   3.914  -1.140 -1.5669 -0.4476  1.9485
  119ccc     C1 3684   7.211   4.063  -0.831  0.3646  0.4006  0.1147
  119ccc     H1 3685   7.231   4.081  -0.937 -1.0725  0.6343 -0.1306
  119ccc     H2 3686   7.221   4.154  -0.771 -2.0015  0.9609 -0.2478
  119ccc     C2 3687   7.306   3.945  -0.775  0.1128 -0.0528  0.2533
  119ccc     H3 3688   7.413   3.971  -0.781 -0.0981  1.4507  2.0864
  119ccc     H4 3689   7.289   3.849  -0.826 -1.6980 -0.3854  1.4013
  119ccc     C3 3690   7.293   3.917  -0.631  0.1376  0.4037 -0.2165
  119ccc     H5 3691   7.198   3.951  -0.589 -0.3553 -0.1568 -0.8547
  119ccc     H6 3692   7.367   3.979  -0.580 -0.1632 -0.7675  1.7330
  119ccc     N1 3693   7.323   3.774  -0.586  0.3281  0.3339  0.3293
  119ccc     C4 3694   7.208   3.681  -0.618 -0.4013  0.0429 -0.0954
  119ccc     H7 3695   7.238   3.576  -0.606 -1.4747 -0.0934  1.8909
  119ccc     H8 3696   7.178   3.696  -0.721  0.0957  0.1811 -0.2215
  119ccc     C5 3697   7.084   3.710  -0.526  0.5606 -0.0680  0.0371
  119ccc     H9 3698   7.101   3.683  -0.421 -0.8056 -2.2800 -0.2452
  119ccc    H10 3699   7.056   3.816  -0.523 -0.3690 -0.3241  1.0419
  119ccc     C6 3700   6.969   3.629  -0.570 -0.0630 -0.9871 -0.0872
  119ccc     O1 3701   6.913   3.632  -0.679  0.2792  0.7595 -0.1680
  119ccc     O2 3702   6.925   3.547  -0.474 -0.2191  0.1300 -0.3497
  119ccc    H11 3703   6.842   3.519  -0.517 -0.4053 -0.4112  0.3330
  119ccc     C7 3704   7.449   3.709  -0.641 -0.1008 -0.8347 -0.2942
  119ccc    H12 3705   7.447   3.604  -0.611 -1.1030 -0.5816  0.5997
  119ccc    H13 3706   7.429   3.717  -0.747 -1.6005  0.8127  0.0614
  119ccc     C8 3707   7.577   3.780  -0.609  0.3676 -0.2366 -0.1466
  119ccc    H14 3708   7.599   3.858  -0.684  0.7740  0.3622  0.5838
  119ccc    H15 3709   7.569   3.833  -0.514  0.5601  0.4540 -0.5058
  119ccc     C9 3710   7.692   3.683  -0.608 -0.3100 -0.2265  0.3568
  119ccc     O3 3711   7.679   3.571  -0.653 -0.2181  0.1981 -0.4099
  119ccc     O4 3712   7.790   3.709  -0.524  0.2393 -0.2100 -0.6320
  119ccc    H16 3713   7.768   3.794  -0.483  0.3521 -0.0520 -0.8968
  119ccc     O5 3714   7.073   4.016  -0.807  0.1481  0.2053  0.0335
  119ccc    H17 3715   7.319   3.777  -0.483 -2.0153 -3.2471  0.5207
  120ccc     C1 3716   7.796   4.110   0.503  0.2924 -0.2940 -0.6280
  120ccc     H1 3717   7.788   4.140   0.608  0.8457  1.4293 -1.0352
  120ccc     H2 3718   7.788   4.001   0.503  0.0183 -0.3397  2.1027
  120ccc     C2 3719   7.924   4.166   0.445 -0.6491  0.2202 -0.8700
  120ccc     H3 3720   8.010   4.155   0.512  0.5380 -1.4250 -2.5461
  120ccc     H4 3721   7.917   4.275   0.441  0.4092  0.2730 -2.5897
  120ccc     C3 3722   7.953   4.124   0.295 -0.1401  0.3136  0.6128
  120ccc     H5 3723   8.030   4.182   0.245 -1.7214  0.5476 -1.6947
  120ccc     H6 3724   7.867   4.158   0.237  0.3587  0.6124  0.0356
  120ccc     N1 3725   7.995   3.979   0.277 -0.2008 -0.6998 -0.2050
  120ccc     C4 3726   7.970   3.939   0.130 -0.2646 -0.5780 -0.0055
  120ccc     H7 3727   8.018   3.842   0.114 -2.7275 -2.2455  1.8568
  120ccc     H8 3728   8.024   4.023   0.086 -2.0331  1.4232  1.4332
  120ccc     C5 3729   7.825   3.946   0.084 -0.5319 -0.4379  0.1730
  120ccc     H9 3730   7.791   4.048   0.106  3.2003  0.4396  2.9265
  120ccc    H10 3731   7.804   3.917  -0.020 -2.0934 -2.7450  1.0505
  120ccc     C6 3732   7.740   3.855   0.172 -0.0046 -0.3508 -0.0834
  120ccc     O1 3733   7.762   3.817   0.285  0.1922 -0.3118  0.3620
  120ccc     O2 3734   7.614   3.868   0.136  0.7307 -0.6627  0.6535
  120ccc    H11 3735   7.575   3.816   0.208 -1.4192 -0.7453 -0.5088
  120ccc     C7 3736   8.141   3.957   0.327 -0.3346 -0.3742  0.3058
  120ccc    H12 3737   8.218   4.000   0.263  0.2316 -1.0483  0.5230
  120ccc    H13 3738   8.158   4.006   0.423 -0.8168 -0.0004  0.2065
  120ccc     C8 3739   8.178   3.801   0.344  0.1761  0.2590  0.3673
  120ccc    H14 3740   8.085   3.752   0.374  0.0058 -0.0124 -0.5938
  120ccc    H15 3741   8.204   3.759   0.246 -1.6836  1.9287 -0.9312
  120ccc     C9 3742   8.299   3.780   0.437 -0.1606  0.0076  0.2586
  120ccc     O3 3743   8.374   3.868   0.457  0.3311 -0.6143  0.1515
  120ccc     O4 3744   8.345   3.653   0.444 -0.1945 -0.0985  0.1861
  120ccc    H16 3745   8.424   3.661   0.499 -0.3768  0.2429  0.3985
  120ccc     O5 3746   7.690   4.159   0.419  0.0158 -1.2966 -0.0391
  120ccc    H17 3747   7.944   3.914   0.338  1.3226 -2.3867 -0.6275
  121ccc     C1 3748   7.564   4.891   0.259 -0.2275 -0.8729 -0.3670
  121ccc     H1 3749   7.497   4.936   0.185  0.4216  0.6494 -0.0699
  121ccc     H2 3750   7.548   4.951   0.349 -0.8517  0.2104 -1.1801
  121ccc     C2 3751   7.711   4.901   0.217  0.0775  1.1237 -0.4331
  121ccc     H3 3752   7.776   4.848   0.288  0.4810 -0.0603 -1.6626
  121ccc     H4 3753   7.738   5.007   0.221 -2.0502  1.6745  1.3350
  121ccc     C3 3754   7.726   4.845   0.079 -0.0672  0.1236 -0.2921
  121ccc     H5 3755   7.668   4.909   0.013 -0.6176  0.9485  0.9409
  121ccc     H6 3756   7.677   4.747   0.077  0.4433 -0.1277 -0.6997
  121ccc     N1 3757   7.867   4.834   0.029 -0.4964  0.2833 -0.1189
  121ccc     C4 3758   7.951   4.963   0.050  0.6095 -0.2173  0.0680
  121ccc     H7 3759   7.978   4.974   0.155 -0.0451  7.0132 -0.0027
  121ccc     H8 3760   7.877   5.042   0.036 -1.1791 -1.5368  1.5026
  121ccc     C5 3761   8.072   4.998  -0.041  0.2014  0.2845  0.2549
  121ccc     H9 3762   8.160   4.938  -0.017  1.0256  1.4523  0.2248
  121ccc    H10 3763   8.042   4.994  -0.146  1.6768  1.3443 -0.2319
  121ccc     C6 3764   8.117   5.135  -0.009  0.7763 -0.2096  0.7924
  121ccc     O1 3765   8.074   5.203   0.077 -0.4253  0.2062  0.3222
  121ccc     O2 3766   8.202   5.185  -0.103 -0.2582  0.0108  0.0568
  121ccc    H11 3767   8.210   5.277  -0.074  1.5331 -0.4515  1.1791
  121ccc     C7 3768   7.938   4.714   0.086  0.0647 -0.0279 -0.2801
  121ccc    H12 3769   8.039   4.715   0.045 -0.1518  1.0832 -0.8199
  121ccc    H13 3770   7.936   4.716   0.195 -0.9405 -2.4665 -0.1751
  121ccc     C8 3771   7.885   4.573   0.045 -0.0228 -0.3018 -0.3486
  121ccc    H14 3772   7.781   4.555   0.073 -0.4213  1.3636 -0.6211
  121ccc    H15 3773   7.877   4.562  -0.064 -0.3675 -2.6444 -0.1445
  121ccc     C9 3774   7.973   4.464   0.099 -0.4402  0.6165 -0.6027
  121ccc     O3 3775   8.065   4.490   0.176 -0.1196  0.1605 -0.1746
  121ccc     O4 3776   7.964   4.343   0.041 -0.2161 -0.0664 -0.1742
  121ccc    H16 3777   7.911   4.357  -0.040  2.1613  4.0941 -1.3242
  121ccc     O5 3778   7.534   4.757   0.279 -0.2822  0.2946 -0.6776
  121ccc    H17 3779   7.858   4.830  -0.073  0.1586 -1.0980 -0.1440
  122ccc     C1 3780   6.475   4.204   1.491  0.6860  0.0883  0.1378
  122ccc     H1 3781   6.546   4.263   1.434 -0.0375 -0.3399 -1.2483
  122ccc     H2 3782   6.409   4.164   1.414  1.2792  2.5582 -1.7744
  122ccc     C2 3783   6.389   4.283   1.593 -0.1357 -0.1400 -0.1761
  122ccc     H3 3784   6.354   4.380   1.554  0.5779 -0.7271 -2.4240
  122ccc     H4 3785   6.459   4.306   1.674 -1.8035  0.1905  1.2381
  122ccc     C3 3786   6.264   4.207   1.646 -0.2913 -0.5257  0.1537
  122ccc     H5 3787   6.289   4.104   1.672  2.3730 -0.0597 -0.2736
  122ccc     H6 3788   6.190   4.204   1.566  0.1224 -0.5245 -0.2317
  122ccc     N1 3789   6.186   4.276   1.753 -0.5055  0.3130 -0.1890
  122ccc     C4 3790   6.054   4.207   1.777  0.1447 -0.1357  0.1531
  122ccc     H7 3791   6.019   4.249   1.871  2.7687 -0.9582  1.6247
  122ccc     H8 3792   6.069   4.099   1.777  2.9772  0.1658  0.9749
  122ccc     C5 3793   5.955   4.245   1.669  0.4879  0.2505 -0.6445
  122ccc     H9 3794   5.959   4.351   1.641 -1.7046  0.0746 -1.8409
  122ccc    H10 3795   5.967   4.191   1.574  1.6360  1.6292 -1.3244
  122ccc     C6 3796   5.812   4.228   1.720 -0.6621 -0.2397  0.0090
  122ccc     O1 3797   5.737   4.144   1.686 -0.0990  0.1212 -0.4827
  122ccc     O2 3798   5.764   4.326   1.801 -0.0337 -0.1084 -0.5904
  122ccc    H11 3799   5.834   4.389   1.824 -0.7435  0.1551  0.9697
  122ccc     C7 3800   6.268   4.261   1.881  0.0248  0.0476  0.2565
  122ccc    H12 3801   6.270   4.155   1.907 -0.6536  0.0742  0.4343
  122ccc    H13 3802   6.370   4.294   1.860  0.0311  0.1924  0.5089
  122ccc     C8 3803   6.230   4.346   1.996  0.6685  0.4368  0.3291
  122ccc    H14 3804   6.238   4.450   1.962 -0.6690  0.6623  0.6252
  122ccc    H15 3805   6.129   4.324   2.033  2.1837 -4.6411  2.2804
  122ccc     C9 3806   6.318   4.327   2.119  0.4443 -0.0499  0.4263
  122ccc     O3 3807   6.353   4.219   2.158  0.0519 -0.3569 -0.3117
  122ccc     O4 3808   6.309   4.428   2.203  0.2149  0.0011  0.1868
  122ccc    H16 3809   6.346   4.393   2.286 -0.9691  0.7482  1.0677
  122ccc     O5 3810   6.543   4.099   1.561 -0.0894 -0.3770 -1.5905
  122ccc    H17 3811   6.166   4.375   1.733 -0.8353  0.0404 -1.3103
  123ccc     C1 3812   6.717   3.329   2.002  0.2803  0.4840  0.0053
  123ccc     H1 3813   6.723   3.382   2.098 -1.5165  1.1759 -0.2280
  123ccc     H2 3814   6.619   3.281   2.000  1.4978 -2.2812  0.9057
  123ccc     C2 3815   6.824   3.215   1.990  1.0672  0.7827 -0.0204
  123ccc     H3 3816   6.795   3.157   1.901  1.0039  0.3135  0.3037
  123ccc     H4 3817   6.835   3.150   2.078  0.5000  1.9602  0.9492
  123ccc     C3 3818   6.960   3.269   1.961 -0.2072  0.5584 -0.0482
  123ccc     H5 3819   6.959   3.349   1.888  0.5269  1.2507  0.6807
  123ccc     H6 3820   7.008   3.185   1.911  1.5072  1.3307  0.2256
  123ccc     N1 3821   7.046   3.323   2.078 -0.1617  0.2699  0.8242
  123ccc     C4 3822   7.198   3.292   2.053  1.1639 -0.8749  0.0108
  123ccc     H7 3823   7.258   3.334   2.134 -0.2039 -1.3090  1.3000
  123ccc     H8 3824   7.227   3.338   1.958  0.3871 -0.2603  0.0550
  123ccc     C5 3825   7.228   3.141   2.051 -0.1916 -0.1686 -0.4926
  123ccc     H9 3826   7.214   3.098   2.151  0.3246  2.1197  0.6508
  123ccc    H10 3827   7.158   3.083   1.990 -1.1396 -0.7861  1.1273
  123ccc     C6 3828   7.365   3.116   1.994 -0.4179  0.3465  0.1793
  123ccc     O1 3829   7.440   3.194   1.939  0.0014  0.0241  0.1697
  123ccc     O2 3830   7.399   2.986   1.986  0.3835  0.2850 -0.4624
  123ccc    H11 3831   7.483   2.992   1.936  0.3480  1.1210 -0.4451
  123ccc     C7 3832   7.030   3.481   2.114 -0.2553  0.5893 -0.8226
  123ccc    H12 3833   6.927   3.498   2.145 -0.4712 -1.3780 -0.3213
  123ccc    H13 3834   7.067   3.504   2.214  0.1856 -0.0978 -0.8221
  123ccc     C8 3835   7.061   3.590   2.015 -0.0937  0.1431 -0.4528
  123ccc    H14 3836   7.168   3.605   1.997 -0.4218  0.4390 -2.4459
  123ccc    H15 3837   7.020   3.557   1.918 -2.1870  1.0487  0.0420
  123ccc     C9 3838   6.993   3.725   2.050  0.3535  0.3190  0.0871
  123ccc     O3 3839   6.906   3.742   2.136  0.0966 -0.1753 -0.1305
  123ccc     O4 3840   6.988   3.826   1.964 -0.2110 -0.2306  0.3969
  123ccc    H16 3841   7.057   3.816   1.896  0.2957  0.9687  0.7160
  123ccc     O5 3842   6.737   3.414   1.884 -0.0322  0.5574 -0.2484
  123ccc    H17 3843   7.017   3.278   2.166  1.3447 -1.4850  0.4888
  124ccc     C1 3844   7.471   3.244   0.684  0.0085 -0.4877  0.0569
  124ccc     H1 3845   7.520   3.149   0.660  0.3703 -0.3917  0.4169
  124ccc     H2 3846   7.424   3.283   0.592 -0.7887  1.3372  1.1948
  124ccc     C2 3847   7.572   3.348   0.728 -0.4690 -0.8823 -0.2930
  124ccc     H3 3848   7.518   3.439   0.755 -0.6367 -1.1869  0.4034
  124ccc     H4 3849   7.638   3.375   0.644 -0.1219 -0.8957 -0.0299
  124ccc     C3 3850   7.664   3.300   0.844 -0.4703  0.1274 -0.0577
  124ccc     H5 3851   7.700   3.199   0.826  0.2284 -0.1126  2.3389
  124ccc     H6 3852   7.601   3.285   0.932 -2.5403 -2.2132 -1.7686
  124ccc     N1 3853   7.787   3.390   0.886  0.4354 -0.8123 -0.1577
  124ccc     C4 3854   7.740   3.529   0.917 -1.1433  0.2357  0.0814
  124ccc     H7 3855   7.706   3.572   0.823  0.1465  2.2410  0.4519
  124ccc     H8 3856   7.822   3.600   0.935  0.4200 -1.5344  0.2496
  124ccc     C5 3857   7.638   3.533   1.026 -0.2779 -0.4608  0.2067
  124ccc     H9 3858   7.575   3.443   1.038 -1.9635  0.7453  0.7528
  124ccc    H10 3859   7.682   3.536   1.126 -0.2938 -2.6379  0.3319
  124ccc     C6 3860   7.554   3.654   1.004  0.9885 -0.0790  0.2836
  124ccc     O1 3861   7.435   3.654   0.985  0.1653 -0.1864 -0.0525
  124ccc     O2 3862   7.609   3.773   1.029  0.3697  0.0796  0.3982
  124ccc    H11 3863   7.698   3.758   1.063  1.7173 -0.5327 -3.0342
  124ccc     C7 3864   7.866   3.324   1.004  0.1862 -0.0121  0.0146
  124ccc    H12 3865   7.942   3.384   1.052  0.0233 -0.5991  1.0258
  124ccc    H13 3866   7.798   3.301   1.086  0.5570  0.4335  0.4482
  124ccc     C8 3867   7.938   3.193   0.965 -0.1702 -0.0340 -0.3108
  124ccc    H14 3868   7.984   3.141   1.050  0.1981 -0.1387 -0.5691
  124ccc    H15 3869   7.868   3.125   0.915 -2.0173  0.4213  1.5304
  124ccc     C9 3870   8.051   3.215   0.870  0.0396  0.0926  0.0934
  124ccc     O3 3871   8.104   3.321   0.864  0.2450 -0.2653  0.0999
  124ccc     O4 3872   8.121   3.109   0.836  0.2988  0.6390 -0.6496
  124ccc    H16 3873   8.068   3.031   0.861  1.5907 -0.8326 -2.2107
  124ccc     O5 3874   7.377   3.233   0.791 -0.3571  0.0750 -0.2187
  124ccc    H17 3875   7.846   3.397   0.801  1.8105 -2.1521  0.6283
  125ccc     C1 3876   7.340   3.659   1.382  0.7378  0.0721 -0.5541
  125ccc     H1 3877   7.268   3.669   1.464  1.3643  0.8354 -0.0732
  125ccc     H2 3878   7.436   3.619   1.419  1.3753  0.3449 -1.8577
  125ccc     C2 3879   7.350   3.794   1.319 -0.7586 -0.7990 -0.5312
  125ccc     H3 3880   7.419   3.773   1.236  0.5027  1.9458 -0.3101
  125ccc     H4 3881   7.394   3.871   1.384 -1.5735 -1.9536  1.4835
  125ccc     C3 3882   7.213   3.844   1.264 -0.1509 -0.2861  0.4522
  125ccc     H5 3883   7.159   3.886   1.349 -1.3321 -0.8592  0.0105
  125ccc     H6 3884   7.161   3.760   1.218 -1.4419  0.4570  0.5149
  125ccc     N1 3885   7.219   3.958   1.163  0.4987 -0.3288 -0.2616
  125ccc     C4 3886   7.312   4.064   1.206 -0.3403 -0.9597 -0.3777
  125ccc     H7 3887   7.319   4.139   1.128 -0.1548 -1.5147 -0.9006
  125ccc     H8 3888   7.412   4.022   1.222 -0.0939  0.0434  0.9355
  125ccc     C5 3889   7.268   4.149   1.326  0.1563  0.5750 -0.5930
  125ccc     H9 3890   7.164   4.178   1.308 -1.1906 -1.0069  3.5382
  125ccc    H10 3891   7.267   4.091   1.419 -0.0997  0.3921 -0.7073
  125ccc     C6 3892   7.359   4.268   1.350  0.3755 -0.2885 -0.4007
  125ccc     O1 3893   7.470   4.291   1.307 -0.2179 -0.1901  0.8505
  125ccc     O2 3894   7.302   4.349   1.439  0.6478  0.3747  0.2232
  125ccc    H11 3895   7.361   4.426   1.439 -0.6644  1.4400 -0.7510
  125ccc     C7 3896   7.260   3.895   1.032 -0.5001 -0.6784 -0.4244
  125ccc    H12 3897   7.334   3.819   1.056  0.6297  0.6109  0.3661
  125ccc    H13 3898   7.174   3.851   0.982 -0.3518 -0.7480 -0.6242
  125ccc     C8 3899   7.338   3.985   0.927 -0.4182  0.1944 -0.3901
  125ccc    H14 3900   7.272   4.068   0.898  0.8046  0.9311 -1.1362
  125ccc    H15 3901   7.430   4.029   0.967 -2.1232  1.4059  2.5553
  125ccc     C9 3902   7.366   3.920   0.799 -0.0881 -0.3354  0.2955
  125ccc     O3 3903   7.319   3.812   0.762  0.1688  0.2061 -0.8759
  125ccc     O4 3904   7.477   3.964   0.736 -0.0478 -0.0152 -0.1475
  125ccc    H16 3905   7.495   4.049   0.780 -0.9099  0.2630 -0.3154
  125ccc     O5 3906   7.297   3.577   1.279  0.2386 -0.2946  0.3726
  125ccc    H17 3907   7.122   3.991   1.150  0.0202 -1.3710  0.4931
  126SOL     OW 3908   3.923   3.350   4.200 -0.4779  0.1880 -0.1781
  126SOL    HW1 3909   3.871   3.425   4.229 -1.3306  0.2137 -1.6536
  126SOL    HW2 3910   3.955   3.310   4.281  0.1137  2.2071  0.6471
  127SOL     OW 3911   3.262   5.870   3.691 -0.2156  0.3953 -0.0372
  127SOL    HW1 3912   3.275   5.955   3.732  0.1352 -0.3019  1.3545
  127SOL    HW2 3913   3.208   5.821   3.753 -0.0226 -0.5544 -0.5985
  128SOL     OW 3914   5.194   4.262   3.856 -0.4159 -0.5998 -0.3541
  128SOL    HW1 3915   5.276   4.312   3.865  0.1332 -0.9789 -2.5732
  128SOL    HW2 3916   5.133   4.306   3.915  0.9127  0.7572  0.0895
  129SOL     OW 3917   7.138   8.257   3.876 -0.2868 -0.0723 -0.4756
  129SOL    HW1 3918   7.076   8.191   3.905  0.3017 -1.1046 -1.4919
  129SOL    HW2 3919   7.215   8.207   3.849 -0.6210  0.8165 -3.3370
  130SOL     OW 3920  10.257   6.798  10.609 -0.3852 -0.4204 -0.0099
  130SOL    HW1 3921  10.344   6.834  10.593 -0.5297  0.5810  1.2706
  130SOL    HW2 3922  10.202   6.841  10.544 -0.5235  1.6996  1.3903
  131SOL     OW 3923   8.805   0.105   1.805 -0.0760  0.1559 -0.7571
  131SOL    HW1 3924   8.872   0.151   1.755  0.2825  0.2646 -0.1858
  131SOL    HW2 3925   8.834   0.111   1.896 -0.8460  0.1766 -0.5062
  132SOL     OW 3926   2.188   9.199   6.465 -0.3975 -0.0302  0.4924
  132SOL    HW1 3927   2.148   9.112   6.472 -2.2670  0.7026 -0.2952
  132SOL    HW2 3928   2.173   9.239   6.551  1.0837 -0.7024  1.0875
  133SOL     OW 3929   4.994   7.844   1.983  0.2545 -0.2542 -0.2257
  133SOL    HW1 3930   5.054   7.864   1.911  1.8499  2.5428  1.6908
  133SOL    HW2 3931   5.050   7.812   2.053 -0.8067  0.1667  0.8484
  134SOL     OW 3932   6.325   2.066   5.245  0.0183  0.4046  0.0248
  134SOL    HW1 3933   6.255   2.013   5.206 -0.5466  0.8917  0.3529
  134SOL    HW2 3934   6.391   2.073   5.177 -0.1408 -0.2738 -0.2057
  135SOL     OW 3935   8.476   2.108   5.292 -0.0151 -0.0983 -0.0555
  135SOL    HW1 3936   8.467   2.150   5.206 -0.3135  0.4165  0.2245
  135SOL    HW2 3937   8.417   2.157   5.349  0.9537  0.2403  0.6816
  136SOL     OW 3938  10.775   0.209   2.647  0.3234 -0.1653 -0.2315
  136SOL    HW1 3939  10.700   0.235   2.592  0.3625  2.0271  0.6467
  136SOL    HW2 3940  10.801   0.289   2.691  2.6324 -1.0783  0.2200
  137SOL     OW 3941   0.749   4.469   5.370 -0.0794 -0.0920 -0.2527
  137SOL    HW1 3942   0.737   4.402   5.437  1.0930  0.3017  0.3676
  137SOL    HW2 3943   0.840   4.460   5.342 -1.0128 -1.6132 -3.3163
  138SOL     OW 3944   1.838   7.766   9.424  0.2887 -0.2471 -0.1562
  138SOL    HW1 3945   1.826   7.725   9.510 -0.0558 -0.6431 -0.3852
  138SOL    HW2 3946   1.749   7.784   9.394  0.4149  0.0265 -0.3631
  139SOL     OW 3947   0.422  10.431   5.695  0.3890  0.2339  0.5134
  139SOL    HW1 3948   0.477  10.507   5.679 -0.4417  0.6183 -0.7247
  139SOL    HW2 3949   0.384  10.446   5.782  0.3567  1.1696  0.3471
  140SOL     OW 3950   3.971   2.938   0.349 -0.0169 -0.2720  0.1166
  140SOL    HW1 3951   3.939   2.884   0.422  0.1579  0.5380  0.8049
  140SOL    HW2 3952   4.060   2.904   0.333 -0.4377 -1.1517 -0.4336
  141SOL     OW 3953   0.292   0.949  11.007  0.5258  0.3778  0.1377
  141SOL    HW1 3954   0.318   1.007  10.935  1.8426 -0.1959  0.1181
  141SOL    HW2 3955   0.375   0.923  11.047 -0.1498  0.1980  1.4886
  142SOL     OW 3956   8.945   3.355   9.269  0.0980  1.0241  0.3888
  142SOL    HW1 3957   8.900   3.377   9.350 -0.4316  0.4679  0.2563
  142SOL    HW2 3958   9.008   3.286   9.294 -0.8531  0.0367  0.1409
  143SOL     OW 3959  10.909   5.257   0.227 -0.6032  0.7146 -0.5817
  143SOL    HW1 3960  10.822   5.294   0.243  0.0018  1.3652  1.5161
  143SOL    HW2 3961  10.900   5.164   0.249 -0.0328  1.4026  3.2324
  144SOL     OW 3962   5.783   6.062   8.215 -0.1770  0.1725  0.2716
  144SOL    HW1 3963   5.750   6.144   8.251  1.9892  0.9007  0.7966
  144SOL    HW2 3964   5.758   5.996   8.280  0.5327  0.9042  1.3334
  145SOL     OW 3965   4.674   6.445   1.481 -0.1391 -0.4540 -0.4463
  145SOL    HW1 3966   4.755   6.445   1.430  1.4167 -1.0649  1.8255
  145SOL    HW2 3967   4.669   6.356   1.517 -0.1454  0.3657  1.7893
  146SOL     OW 3968   3.118   7.744   8.976 -0.4406 -0.4466  0.4620
  146SOL    HW1 3969   3.058   7.699   9.036 -1.0672 -0.6714 -0.3166
  146SOL    HW2 3970   3.061   7.790   8.915  0.1444 -1.5325 -0.9667
  147SOL     OW 3971   4.894   4.385   5.622  0.0247 -0.4775  0.0648
  147SOL    HW1 3972   4.890   4.363   5.715  0.6887 -0.3970  0.1174
  147SOL    HW2 3973   4.890   4.301   5.577 -1.0481 -0.4777  0.1284
  148SOL     OW 3974   3.315   6.626   4.384  0.7326  0.3435 -0.4219
  148SOL    HW1 3975   3.265   6.651   4.462 -0.1385 -0.3912 -0.7311
  148SOL    HW2 3976   3.305   6.701   4.324  0.6238  0.5087 -0.1987
  149SOL     OW 3977   5.048   3.399   2.341 -0.2915 -0.1111  0.5961
  149SOL    HW1 3978   5.092   3.453   2.407 -0.7107  1.8552 -0.6531
  149SOL    HW2 3979   5.000   3.334   2.391  0.9668  0.0825  2.1357
  150SOL     OW 3980   0.629   0.212   9.211 -0.3219 -0.3995 -0.1306
  150SOL    HW1 3981   0.612   0.252   9.296  0.6176 -0.9490  0.3386
  150SOL    HW2 3982   0.556   0.240   9.156  0.2190  1.8431  0.1916
  151SOL     OW 3983   8.041   0.071   2.944  0.1996  0.1917  0.6517
  151SOL    HW1 3984   8.023   0.068   3.038 -0.8158  1.9712  0.5652
  151SOL    HW2 3985   7.969   0.123   2.908  1.0165  0.2383 -0.9961
  152SOL     OW 3986   1.840   9.766   6.158  0.3166 -0.2764  0.0560
  152SOL    HW1 3987   1.755   9.772   6.116  0.1761 -1.1021  0.2110
  152SOL    HW2 3988   1.895   9.828   6.110 -0.6145  0.9959  0.5852
  153SOL     OW 3989   6.349   8.232   9.040 -0.0511  0.3556 -0.3110
  153SOL    HW1 3990   6.401   8.168   8.992  0.3454  1.3452 -1.2490
  153SOL    HW2 3991   6.358   8.207   9.132  0.4597 -0.6546 -0.6249
  154SOL     OW 3992   0.658   8.486   1.894  0.0872  0.1618  0.2899
  154SOL    HW1 3993   0.719   8.549   1.856 -1.4668  0.5676 -1.7160
  154SOL    HW2 3994   0.701   8.402   1.883 -0.4293  0.1688 -3.0585
  155SOL     OW 3995   9.649   9.812   5.857  0.2473  0.1259 -0.1222
  155SOL    HW1 3996   9.732   9.821   5.809  0.4742 -0.9523  0.0384
  155SOL    HW2 3997   9.606   9.896   5.845  1.1812  0.5665 -0.5618
  156SOL     OW 3998   0.948   6.617   8.412 -0.4820  0.1445 -0.0668
  156SOL    HW1 3999   1.035   6.591   8.440 -0.1546 -0.4751 -1.5504
  156SOL    HW2 4000   0.891   6.594   8.485  0.4419 -0.5364  0.4565
  157SOL     OW 4001  10.538   9.223   9.677  0.0409 -0.0797 -0.1325
  157SOL    HW1 4002  10.445   9.201   9.675  0.2564 -1.6991  2.4096
  157SOL    HW2 4003  10.542   9.311   9.714 -0.4954  0.4250 -1.2529
  158SOL     OW 4004   3.337   4.097   5.965 -0.0042  0.3992  0.1671
  158SOL    HW1 4005   3.332   4.004   5.944 -2.8320  0.4553  0.2270
  158SOL    HW2 4006   3.401   4.132   5.902 -0.7249 -1.1723 -1.5406
  159SOL     OW 4007   5.878   8.298   2.808 -0.3113  0.0092  0.2264
  159SOL    HW1 4008   5.894   8.242   2.884  0.6689 -1.2010 -0.8319
  159SOL    HW2 4009   5.861   8.384   2.846  0.7449 -0.4207  1.7956
  160SOL     OW 4010   9.346   1.947   1.338 -0.0740 -0.2811 -0.4060
  160SOL    HW1 4011   9.409   1.892   1.386 -0.1880  0.6833  0.8975
  160SOL    HW2 4012   9.271   1.889   1.323  1.0013 -1.3982 -1.8270
  161SOL     OW 4013   8.338   4.780  10.109  0.0516  0.1540 -0.1422
  161SOL    HW1 4014   8.243   4.787  10.108  0.0453  0.3072  0.7741
  161SOL    HW2 4015   8.354   4.686  10.118 -0.0322  0.2327  0.8799
  162SOL     OW 4016   4.156   4.051   4.575 -0.4278  0.2301 -0.1047
  162SOL    HW1 4017   4.152   4.133   4.625  0.6061 -0.1281  0.6006
  162SOL    HW2 4018   4.173   3.984   4.641  1.8493 -0.1613 -0.9959
  163SOL     OW 4019   2.396  10.936   3.614  0.0298  0.1328 -0.4730
  163SOL    HW1 4020   2.383  10.986   3.534  1.9654  1.2447 -0.1458
  163SOL    HW2 4021   2.472  10.881   3.597  0.0944 -0.0668  0.3936
  164SOL     OW 4022   9.459   0.972   8.765 -0.1291  0.2688  0.2761
  164SOL    HW1 4023   9.415   1.051   8.796 -0.0361  0.1881  0.6216
  164SOL    HW2 4024   9.551   0.986   8.787 -0.2050 -0.2180  0.9595
  165SOL     OW 4025  11.128   3.690   0.338  0.0065  0.1089  0.1769
  165SOL    HW1 4026  11.041   3.726   0.355 -0.2852 -1.2998  1.9936
  165SOL    HW2 4027  11.111   3.608   0.293  0.3867 -0.0916  0.3950
  166SOL     OW 4028   8.053   0.535   2.081 -1.0466 -0.1957 -0.0069
  166SOL    HW1 4029   8.093   0.518   2.166 -0.7670 -0.5075 -0.1973
  166SOL    HW2 4030   8.090   0.620   2.054 -0.6218 -0.4106 -0.1148
  167SOL     OW 4031   2.549   6.389   3.280  0.0314  0.0171 -0.3885
  167SOL    HW1 4032   2.613   6.460   3.276  0.9858 -0.7727  0.2785
  167SOL    HW2 4033   2.591   6.316   3.234  0.6014 -1.2165  1.9118
  168SOL     OW 4034   7.654   8.456   0.282 -0.2558 -0.2425 -0.0660
  168SOL    HW1 4035   7.636   8.548   0.262  0.4038 -0.1568 -0.2840
  168SOL    HW2 4036   7.568   8.415   0.287 -0.5612  0.4311  0.2565
  169SOL     OW 4037   0.237   2.709   5.912  1.0861  0.5948 -0.2936
  169SOL    HW1 4038   0.270   2.789   5.873  1.8952  0.5709  0.3008
  169SOL    HW2 4039   0.142   2.716   5.906  1.1759  0.8904 -1.6243
  170SOL     OW 4040   4.522   4.512   2.098  0.2882  0.6925 -0.2634
  170SOL    HW1 4041   4.485   4.443   2.043 -0.3174  0.0110  0.9752
  170SOL    HW2 4042   4.614   4.488   2.109  0.1369  0.2214 -0.0366
  171SOL     OW 4043   9.634   5.393   9.940 -0.3434  0.5141  0.3430
  171SOL    HW1 4044   9.678   5.475   9.919  1.6664 -0.8436 -1.1310
  171SOL    HW2 4045   9.608   5.358   9.855  1.6885 -1.8345  0.5887
  172SOL     OW 4046   7.205   2.577   7.225  0.3288 -0.4942 -0.1865
  172SOL    HW1 4047   7.281   2.519   7.220  1.6457  1.0670  0.9924
  172SOL    HW2 4048   7.168   2.561   7.311  1.2245  0.9738  0.5127
  173SOL     OW 4049   3.281   5.285  11.021 -0.0925 -0.0538 -0.0850
  173SOL    HW1 4050   3.205   5.341  11.003 -0.4538 -0.6632 -0.4935
  173SOL    HW2 4051   3.245   5.197  11.023  0.6544 -0.3772 -0.5519
  174SOL     OW 4052   0.166  10.992   7.394 -0.5986  0.0769 -0.1124
  174SOL    HW1 4053   0.087  11.006   7.447 -0.4501  0.4155  0.0197
  174SOL    HW2 4054   0.220  11.069   7.411 -0.6243  0.2699 -0.8904
  175SOL     OW 4055   9.749   1.909   1.372 -0.3671 -1.1954  0.3263
  175SOL    HW1 4056   9.733   1.955   1.290 -0.0026  1.6357  1.7119
  175SOL    HW2 4057   9.693   1.832   1.368 -0.6196 -0.9579 -2.3971
  176SOL     OW 4058   5.528   1.527   5.099  0.4089  0.3305 -0.0128
  176SOL    HW1 4059   5.576   1.609   5.096  2.1960 -0.6698 -1.1074
  176SOL    HW2 4060   5.464   1.533   5.028 -0.6825  1.4085  1.0169
  177SOL     OW 4061   5.770   0.411   2.942  0.0084  0.1145  0.6101
  177SOL    HW1 4062   5.737   0.493   2.908 -0.5617  0.0924  1.0846
  177SOL    HW2 4063   5.782   0.355   2.865  1.6549  1.0528  0.1370
  178SOL     OW 4064   8.017  10.917   5.200  0.2489 -0.2660 -0.2065
  178SOL    HW1 4065   8.088  10.925   5.264 -1.0184  2.5980  1.0520
  178SOL    HW2 4066   7.946  10.873   5.248 -0.0976  0.3085 -0.1748
  179SOL     OW 4067   3.106   8.129   7.156 -0.3949 -0.4063 -0.7654
  179SOL    HW1 4068   3.178   8.153   7.214  0.0223 -0.3512 -1.2972
  179SOL    HW2 4069   3.034   8.107   7.215 -0.1823  0.2792 -0.2427
  180SOL     OW 4070   3.975   1.712   9.423 -0.4372  0.2238 -0.4315
  180SOL    HW1 4071   3.976   1.767   9.502 -2.8384 -0.2087 -0.0103
  180SOL    HW2 4072   3.888   1.727   9.385  0.3928 -0.1311 -2.6315
  181SOL     OW 4073   8.926   5.089   5.284  0.3104 -0.3176  0.0716
  181SOL    HW1 4074   9.003   5.136   5.253  1.1610 -1.4996  0.3349
  181SOL    HW2 4075   8.855   5.153   5.280  0.6613 -0.0103 -2.9620
  182SOL     OW 4076   0.719   6.677   9.991  0.8085  0.4545 -0.4501
  182SOL    HW1 4077   0.776   6.603   9.972  2.4669  1.9285 -1.4830
  182SOL    HW2 4078   0.720   6.729   9.911  0.5080  2.1135  0.5829
  183SOL     OW 4079   2.155   8.237   9.000 -0.5530 -0.2881  0.2118
  183SOL    HW1 4080   2.173   8.193   9.083  1.0670 -2.5619 -1.2093
  183SOL    HW2 4081   2.102   8.174   8.951  0.7793 -0.2053 -1.4231
  184SOL     OW 4082   9.879   6.325   9.066  0.2359  0.4473  0.0287
  184SOL    HW1 4083   9.840   6.401   9.022 -0.1461  1.1654  1.5563
  184SOL    HW2 4084   9.955   6.303   9.011 -1.7118 -0.4325 -2.5007
  185SOL     OW 4085   2.864   7.047   9.223  0.2420  0.2898 -0.4106
  185SOL    HW1 4086   2.862   7.098   9.304  1.3622  2.0577 -1.4358
  185SOL    HW2 4087   2.779   7.062   9.182 -0.4513 -0.8598  0.5247
  186SOL     OW 4088   8.868   5.319   4.462  0.0943  0.4049  0.2158
  186SOL    HW1 4089   8.852   5.228   4.488  1.2505  0.7865  2.6643
  186SOL    HW2 4090   8.952   5.316   4.416  1.0298  0.3448  1.8072
  187SOL     OW 4091   1.954   2.555   5.246 -0.1593 -0.1286  0.8035
  187SOL    HW1 4092   2.037   2.535   5.290  0.3001  0.6983  0.3309
  187SOL    HW2 4093   1.917   2.469   5.224  1.7183 -0.5158 -1.1285
  188SOL     OW 4094   1.072  10.445   4.886 -0.0618  0.0316  0.0637
  188SOL    HW1 4095   1.086  10.502   4.960 -0.9449  0.2796  0.0561
  188SOL    HW2 4096   1.020  10.497   4.824  1.7005  0.2693 -1.2939
  189SOL     OW 4097   9.795   9.519   7.515  0.5396 -0.5833 -0.0432
  189SOL    HW1 4098   9.888   9.520   7.540  0.4329  0.3669  0.3426
  189SOL    HW2 4099   9.766   9.430   7.537  1.5803 -1.1901 -1.0498
  190SOL     OW 4100   8.295   5.143   3.739 -0.7578  0.4381  0.1087
  190SOL    HW1 4101   8.368   5.194   3.706 -2.2276  1.5322 -1.6473
  190SOL    HW2 4102   8.314   5.053   3.713  0.2589  0.6070  0.2522
  191SOL     OW 4103   1.208   2.200   5.997 -0.3774 -0.1076 -0.5256
  191SOL    HW1 4104   1.302   2.214   6.011 -0.1900  0.9606 -2.4064
  191SOL    HW2 4105   1.193   2.109   6.020  1.4852 -0.7659 -1.7391
  192SOL     OW 4106   6.627   5.697   9.867  0.0274  0.0379  0.1849
  192SOL    HW1 4107   6.695   5.697   9.800 -0.2997  0.3980 -0.1498
  192SOL    HW2 4108   6.552   5.653   9.826 -1.1770  2.7171 -0.7504
  193SOL     OW 4109   8.107   8.439   7.367 -0.1581  0.7770 -0.4007
  193SOL    HW1 4110   8.157   8.358   7.363  1.1135  1.4528  0.8851
  193SOL    HW2 4111   8.139   8.491   7.293  0.9554  1.1409  0.3234
  194SOL     OW 4112   5.643  10.154  10.114 -0.1244 -0.0141 -0.2229
  194SOL    HW1 4113   5.702  10.100  10.062  1.0464  1.9511 -1.0508
  194SOL    HW2 4114   5.697  10.188  10.185  0.2604  2.8837 -1.7356
  195SOL     OW 4115   3.855   8.852   7.768 -0.4050  1.0161 -0.1735
  195SOL    HW1 4116   3.808   8.788   7.822  1.9557 -0.4552  0.2719
  195SOL    HW2 4117   3.880   8.921   7.830  1.0807  0.0146  0.4093
  196SOL     OW 4118   9.401  10.752  10.529 -0.3115 -0.0663 -0.0146
  196SOL    HW1 4119   9.374  10.843  10.541 -0.4148 -0.2168  0.9493
  196SOL    HW2 4120   9.496  10.753  10.546  0.2079  0.3119 -2.5696
  197SOL     OW 4121   3.281   4.557   0.990 -0.2998  0.0095  0.6977
  197SOL    HW1 4122   3.341   4.484   0.970 -1.7994 -0.9336 -0.5913
  197SOL    HW2 4123   3.333   4.617   1.044  1.8045 -0.7683 -0.3564
  198SOL     OW 4124   0.599   4.673   2.537  0.7078  0.5707 -0.1028
  198SOL    HW1 4125   0.627   4.619   2.463  0.1286  1.0983 -0.7281
  198SOL    HW2 4126   0.675   4.729   2.555  1.2183 -0.2553  0.3858
  199SOL     OW 4127   0.196   4.331   1.745  0.2101 -0.1315  0.5768
  199SOL    HW1 4128   0.162   4.242   1.750 -2.3425  0.7442  0.0561
  199SOL    HW2 4129   0.286   4.321   1.714 -0.2754 -2.4627 -0.2415
  200SOL     OW 4130   0.851   1.756   9.183 -0.1454  0.1564  0.2217
  200SOL    HW1 4131   0.773   1.733   9.132  0.8197 -0.1933 -1.1706
  200SOL    HW2 4132   0.922   1.707   9.141  0.7518  0.0738  1.7641
  201SOL     OW 4133   9.531   5.575   4.836 -0.0372 -0.3874  0.2366
  201SOL    HW1 4134   9.443   5.611   4.846  0.2817 -0.2913  3.6549
  201SOL    HW2 4135   9.585   5.650   4.811 -0.5618 -0.0253  0.1769
  202SOL     OW 4136   7.254   9.851   9.113 -0.5743  0.4318  0.0281
  202SOL    HW1 4137   7.346   9.876   9.119 -0.6652  0.7369  0.1527
  202SOL    HW2 4138   7.207   9.917   9.165 -0.8301  0.0980  0.2306
  203SOL     OW 4139   3.032   9.686  10.043 -0.1838 -0.2951  0.0904
  203SOL    HW1 4140   3.055   9.753   9.979 -0.5138 -0.0517  0.2216
  203SOL    HW2 4141   2.997   9.613   9.991 -1.7935  0.4498  0.0619
  204SOL     OW 4142   4.757   6.330   3.616  0.3653 -0.0728  0.0104
  204SOL    HW1 4143   4.820   6.395   3.584 -1.0415  1.2653 -0.1862
  204SOL    HW2 4144   4.745   6.270   3.543  0.5567  0.3292 -0.3566
  205SOL     OW 4145   7.793   5.483   0.857  0.9820 -0.1796 -0.7727
  205SOL    HW1 4146   7.711   5.490   0.906 -1.4812 -1.1406 -4.3587
  205SOL    HW2 4147   7.851   5.433   0.913 -1.2711 -0.4610  1.4620
  206SOL     OW 4148   8.995   0.469   4.115 -0.3201 -0.3084 -0.2088
  206SOL    HW1 4149   9.072   0.489   4.167 -1.9416  0.2257  2.1235
  206SOL    HW2 4150   8.977   0.377   4.132 -0.4038 -0.3508 -0.5068
  207SOL     OW 4151   9.607   7.653   1.251  0.1841 -0.3451  0.5986
  207SOL    HW1 4152   9.566   7.638   1.336  0.4833 -0.4258  0.7298
  207SOL    HW2 4153   9.553   7.605   1.189 -1.0028  1.0416  0.5083
  208SOL     OW 4154   8.223   9.499   3.530  0.5383 -0.2442  0.1122
  208SOL    HW1 4155   8.272   9.424   3.496 -0.4071 -0.6186 -0.4473
  208SOL    HW2 4156   8.176   9.465   3.606  0.4591 -0.0945  0.1315
  209SOL     OW 4157   9.953  10.328   0.456 -0.0095 -0.3307  0.1336
  209SOL    HW1 4158   9.945  10.324   0.551 -0.6363 -1.0784  0.0667
  209SOL    HW2 4159   9.929  10.240   0.427  0.1586 -0.1037 -0.7170
  210SOL     OW 4160  10.559   3.925   2.639 -0.2949  0.1916  0.1792
  210SOL    HW1 4161  10.517   3.882   2.713  1.7126 -1.4838  0.4482
  210SOL    HW2 4162  10.564   3.856   2.572  0.6483  0.7806 -0.3720
  211SOL     OW 4163   3.847   9.183   1.427 -0.2595  0.3573 -0.6163
  211SOL    HW1 4164   3.887   9.129   1.495  2.8254  1.4279 -1.4145
  211SOL    HW2 4165   3.785   9.125   1.383 -0.3040 -1.1541  1.3008
  212SOL     OW 4166   0.767   5.109   5.352  0.1641 -0.0243 -0.2635
  212SOL    HW1 4167   0.850   5.071   5.323 -0.1045  0.7709 -2.2033
  212SOL    HW2 4168   0.746   5.174   5.286 -0.5098  1.9553  1.7859
  213SOL     OW 4169   6.440   5.457   2.766  0.1024  0.3941 -0.4767
  213SOL    HW1 4170   6.462   5.543   2.800  1.6019 -0.3530  0.5761
  213SOL    HW2 4171   6.360   5.433   2.812 -0.0126  0.9901 -0.3610
  214SOL     OW 4172  10.156   7.118   3.641 -0.2722 -0.2396 -0.0962
  214SOL    HW1 4173  10.154   7.148   3.732 -0.4951  0.8694 -0.4562
  214SOL    HW2 4174  10.085   7.054   3.636 -0.9247  0.4384  0.2634
  215SOL     OW 4175   3.123  11.045   7.509 -0.3230  0.3265  0.4586
  215SOL    HW1 4176   3.100  11.114   7.572  0.8227  0.9363  0.2214
  215SOL    HW2 4177   3.048  11.042   7.450 -0.9178  0.5255  1.1767
  216SOL     OW 4178   8.920   3.534   0.030 -0.2205  0.1487 -0.4252
  216SOL    HW1 4179   8.849   3.572   0.082 -0.9559  1.8499 -2.5052
  216SOL    HW2 4180   8.886   3.449   0.001 -1.9222  1.3566 -2.2244
  217SOL     OW 4181   0.686   4.466   0.197 -0.2690 -0.2859  0.1247
  217SOL    HW1 4182   0.763   4.415   0.172  0.1545  0.3170  0.1985
  217SOL    HW2 4183   0.659   4.428   0.280 -0.2962 -0.7610 -0.0940
  218SOL     OW 4184  10.836   0.362  10.370  0.0100 -0.2752  0.2873
  218SOL    HW1 4185  10.878   0.387  10.452 -0.2663  0.1852  0.2922
  218SOL    HW2 4186  10.794   0.442  10.339  0.3099 -0.3826 -0.4202
  219SOL     OW 4187   0.658   3.111   1.541  0.6313  0.3081 -0.5739
  219SOL    HW1 4188   0.602   3.116   1.618 -0.2832 -1.8219 -1.0422
  219SOL    HW2 4189   0.631   3.184   1.486 -1.0058 -0.0919 -0.3269
  220SOL     OW 4190   6.469   1.493   1.882  0.7338  0.1190  0.4765
  220SOL    HW1 4191   6.488   1.501   1.975  0.1052 -2.7172  0.9519
  220SOL    HW2 4192   6.376   1.513   1.874 -0.1228 -2.9865  1.1711
  221SOL     OW 4193   1.205   4.756   2.681  0.4223 -0.1448  0.4246
  221SOL    HW1 4194   1.257   4.686   2.643 -0.5381 -0.6117 -0.0649
  221SOL    HW2 4195   1.129   4.712   2.720 -0.1015  0.6008  0.2718
  222SOL     OW 4196   8.610   4.615   1.472 -0.0125 -0.4765 -0.0924
  222SOL    HW1 4197   8.603   4.569   1.388 -0.7714  1.0666 -0.9116
  222SOL    HW2 4198   8.597   4.546   1.538  0.4054 -1.6884 -1.2240
  223SOL     OW 4199   4.748   4.999   6.805  0.6731  0.9473 -0.2333
  223SOL    HW1 4200   4.739   4.908   6.774 -0.4018  0.6497  0.9107
  223SOL    HW2 4201   4.702   5.051   6.739  0.8543  0.6281 -0.6224
  224SOL     OW 4202   0.748   0.885  10.947  0.4443 -0.0258 -0.5837
  224SOL    HW1 4203   0.809   0.857  11.016 -1.2876 -0.9159  0.6744
  224SOL    HW2 4204   0.755   0.981  10.947  0.4975 -0.0065  0.8502
  225SOL     OW 4205   2.830  10.385   0.075  0.0678 -0.3574  0.5885
  225SOL    HW1 4206   2.827  10.387   0.171 -0.5527  0.2255  0.5635
  225SOL    HW2 4207   2.920  10.362   0.055 -0.0819 -1.6809  1.3194
  226SOL     OW 4208   3.895   2.219   1.510  0.0746  0.7003  0.6497
  226SOL    HW1 4209   3.936   2.300   1.541  0.5874 -0.0384  1.9519
  226SOL    HW2 4210   3.945   2.197   1.431  0.4654  1.2202  0.7419
  227SOL     OW 4211   8.349   3.843   5.208 -0.3862 -0.3625  0.8276
  227SOL    HW1 4212   8.305   3.850   5.124 -0.8904  0.0378  1.1169
  227SOL    HW2 4213   8.410   3.770   5.198 -0.1626 -0.0651 -0.0016
  228SOL     OW 4214   8.583   2.887   8.853 -0.2838  0.2867  0.6030
  228SOL    HW1 4215   8.570   2.798   8.821 -0.4768  0.9706 -1.3838
  228SOL    HW2 4216   8.495   2.918   8.874 -0.2273  0.0637  1.1913
  229SOL     OW 4217   1.099   2.864   5.518 -0.1727 -0.2317  0.6223
  229SOL    HW1 4218   1.185   2.846   5.481  0.3716  1.5230  0.9926
  229SOL    HW2 4219   1.042   2.800   5.476  1.2067 -1.1073  0.0128
  230SOL     OW 4220   3.434   4.324   1.640  0.0135  0.0750 -0.1077
  230SOL    HW1 4221   3.478   4.364   1.716  0.0132 -0.3387  0.1167
  230SOL    HW2 4222   3.352   4.372   1.631  0.6729  1.1028 -0.7601
  231SOL     OW 4223   2.741   1.217   6.591 -0.4183  0.0395  0.2826
  231SOL    HW1 4224   2.694   1.284   6.541 -0.8608  0.0391  0.6892
  231SOL    HW2 4225   2.787   1.266   6.659 -1.6253 -0.1482  1.2711
  232SOL     OW 4226   7.444  11.126   4.210 -0.4850  0.3198 -0.2834
  232SOL    HW1 4227   7.481  11.098   4.126  0.4029 -0.0220  0.1993
  232SOL    HW2 4228   7.370  11.067   4.224 -0.2428 -0.0550 -0.5304
  233SOL     OW 4229   9.834   7.851   9.891  0.1973 -0.2376  0.3060
  233SOL    HW1 4230   9.741   7.829   9.893  0.4549 -1.5023 -0.6171
  233SOL    HW2 4231   9.873   7.796   9.958  0.0953  1.5149  1.9130
  234SOL     OW 4232   9.723   6.748   3.636 -0.0406 -0.4554  0.0799
  234SOL    HW1 4233   9.718   6.763   3.541  2.3701  2.9769  0.3363
  234SOL    HW2 4234   9.791   6.681   3.646 -0.0106 -0.5301 -0.5723
  235SOL     OW 4235  10.281   9.190   6.953  0.5581 -0.4590  0.9207
  235SOL    HW1 4236  10.334   9.228   6.883  0.5101 -1.1010  0.5286
  235SOL    HW2 4237  10.336   9.120   6.989  0.6729  0.0108  1.6826
  236SOL     OW 4238   4.622   0.233   2.812 -0.0844  0.3877 -0.1363
  236SOL    HW1 4239   4.687   0.172   2.778  1.0245  0.8335  1.0663
  236SOL    HW2 4240   4.600   0.289   2.738  0.2239 -0.3602 -0.7988
  237SOL     OW 4241  10.728   9.658   2.536  0.3327 -0.0110  0.1366
  237SOL    HW1 4242  10.639   9.692   2.521  0.2660  0.5937  1.7287
  237SOL    HW2 4243  10.715   9.581   2.592  0.7597 -0.4656 -0.3789
  238SOL     OW 4244   9.135   6.927   1.246  0.2093  0.4763 -0.0757
  238SOL    HW1 4245   9.227   6.900   1.242  0.5067  1.4332 -0.0229
  238SOL    HW2 4246   9.109   6.938   1.155  0.1434  0.1780 -0.0916
  239SOL     OW 4247   2.683  10.395   4.227 -0.0078  0.1719  0.4624
  239SOL    HW1 4248   2.775  10.411   4.248 -0.5432  0.4923  2.7991
  239SOL    HW2 4249   2.683  10.310   4.183  1.3160 -0.3673  1.4328
  240SOL     OW 4250   3.143   1.711   6.423  0.8959  0.4663  0.1111
  240SOL    HW1 4251   3.216   1.756   6.464  0.4740  1.2284  0.0507
  240SOL    HW2 4252   3.095   1.672   6.496  0.2888  1.6040  0.3435
  241SOL     OW 4253   9.802   5.001   5.363 -0.1920  0.1601 -0.0818
  241SOL    HW1 4254   9.786   4.908   5.352  0.0261  0.0841  0.2418
  241SOL    HW2 4255   9.839   5.009   5.450 -0.9550  0.6432  0.2059
  242SOL     OW 4256   3.999   5.157   8.752 -0.6504 -0.1791 -0.2312
  242SOL    HW1 4257   3.998   5.253   8.746  0.0723 -0.0708  1.0869
  242SOL    HW2 4258   4.046   5.129   8.673 -0.0650  0.6090 -0.1754
  243SOL     OW 4259   2.086   6.121   9.000 -0.0626  0.6625 -0.5278
  243SOL    HW1 4260   2.047   6.103   9.086 -0.8899  0.3625 -0.9458
  243SOL    HW2 4261   2.101   6.034   8.962  3.0873  0.6469  0.4578
  244SOL     OW 4262   4.810   2.975   2.586 -0.0925  0.3240 -0.3939
  244SOL    HW1 4263   4.864   3.006   2.513 -0.5322  0.0004 -0.8711
  244SOL    HW2 4264   4.848   2.890   2.609  0.2688  0.5893 -0.0011
  245SOL     OW 4265   3.736   0.803   5.684  0.1651  0.5733  0.5409
  245SOL    HW1 4266   3.692   0.779   5.766  0.1202  2.1234  0.9913
  245SOL    HW2 4267   3.665   0.833   5.627  0.1174 -1.0259 -0.3191
  246SOL     OW 4268   5.967   7.085   9.891 -0.4028 -0.6346  0.1910
  246SOL    HW1 4269   6.047   7.114   9.846 -0.4166  3.0393  2.1518
  246SOL    HW2 4270   5.989   6.998   9.924  2.0221 -0.6241 -1.1157
  247SOL     OW 4271   1.372   0.227   1.596 -0.2616 -0.1784  0.4620
  247SOL    HW1 4272   1.364   0.288   1.669 -0.1253 -0.4381  0.6959
  247SOL    HW2 4273   1.326   0.148   1.625  0.9669 -0.7833  0.8304
  248SOL     OW 4274   0.537   3.869  10.896  0.1126 -0.0364 -0.0055
  248SOL    HW1 4275   0.558   3.908  10.811  0.7361 -0.0782  0.1265
  248SOL    HW2 4276   0.606   3.900  10.954 -1.3957  1.6186  0.9857
  249SOL     OW 4277   2.355   5.583   6.432 -0.3050 -0.1295  0.0519
  249SOL    HW1 4278   2.424   5.568   6.497 -0.7475 -0.7160  0.4009
  249SOL    HW2 4279   2.276   5.548   6.474 -1.3370  2.7167  0.6878
  250SOL     OW 4280   2.992   9.874   8.020  0.3784  0.8008 -0.1847
  250SOL    HW1 4281   3.026   9.930   8.091  1.4846  2.3616 -1.8611
  250SOL    HW2 4282   2.964   9.935   7.952 -2.0919 -0.6072 -0.5578
  251SOL     OW 4283   6.261   8.802   9.454  0.1786 -0.2111 -0.2589
  251SOL    HW1 4284   6.350   8.835   9.454 -0.7107  2.4344 -1.2325
  251SOL    HW2 4285   6.231   8.814   9.364 -1.6441  0.4740  0.3973
  252SOL     OW 4286   7.486   0.535  10.359  0.2234 -0.2685 -0.4035
  252SOL    HW1 4287   7.496   0.610  10.300 -2.3916 -0.6322 -1.4219
  252SOL    HW2 4288   7.492   0.458  10.302  2.9753 -0.9525  0.6407
  253SOL     OW 4289   8.076   1.674   1.843 -0.2805  0.8333  0.3073
  253SOL    HW1 4290   8.030   1.744   1.797 -0.7042  0.7724  0.6346
  253SOL    HW2 4291   8.042   1.678   1.933 -1.1018 -0.4662  0.0821
  254SOL     OW 4292   3.011   4.408   0.215 -0.1289  0.1995 -0.7700
  254SOL    HW1 4293   2.953   4.457   0.156  0.6716  0.5420 -1.2875
  254SOL    HW2 4294   3.075   4.472   0.245  0.8604 -0.4927 -1.3675
  255SOL     OW 4295   9.888   2.278   1.165 -0.2229 -0.4320 -0.1835
  255SOL    HW1 4296   9.922   2.198   1.207 -1.9185 -0.7676  0.6470
  255SOL    HW2 4297   9.864   2.334   1.238 -0.0987  0.3883 -0.7659
  256SOL     OW 4298  11.083   8.217   8.411  0.4507 -0.5071  0.3909
  256SOL    HW1 4299  11.014   8.169   8.366 -0.2833  1.4055 -0.6351
  256SOL    HW2 4300  11.149   8.232   8.344  0.5753  0.0673  0.6412
  257SOL     OW 4301   3.592   9.211   4.919 -0.1413 -0.3873 -1.1299
  257SOL    HW1 4302   3.500   9.240   4.922 -0.5578 -1.7372  1.3879
  257SOL    HW2 4303   3.641   9.284   4.956 -0.2767  0.0019 -1.6999
  258SOL     OW 4304   1.626   6.056   5.261  0.8305 -0.6632  0.7277
  258SOL    HW1 4305   1.666   6.033   5.345  2.1161 -1.8194 -0.1525
  258SOL    HW2 4306   1.619   5.972   5.214 -2.6990 -0.5451  0.7908
  259SOL     OW 4307   1.981   1.882   8.572 -0.0352  0.0307  0.5406
  259SOL    HW1 4308   1.930   1.886   8.491 -0.9977  1.5531  1.1863
  259SOL    HW2 4309   1.922   1.840   8.635  1.0576 -2.0453  0.2487
  260SOL     OW 4310   4.520   4.711   8.285  0.0618 -0.3158 -0.4135
  260SOL    HW1 4311   4.530   4.642   8.221 -0.8169 -1.3593  0.5242
  260SOL    HW2 4312   4.441   4.759   8.257  0.7306  0.3975 -1.1211
  261SOL     OW 4313   5.498   8.709   2.098 -0.5342  0.3665  0.1213
  261SOL    HW1 4314   5.533   8.798   2.105  0.8682 -0.1698  0.2689
  261SOL    HW2 4315   5.498   8.691   2.004 -3.3114  1.4219 -0.1813
  262SOL     OW 4316   0.575   9.671  10.693  0.4296 -0.0745 -0.4359
  262SOL    HW1 4317   0.632   9.618  10.636 -2.9283 -0.3685 -3.8795
  262SOL    HW2 4318   0.590   9.761  10.665  0.6886  0.0891  0.1923
  263SOL     OW 4319   1.527   5.508   8.081 -0.2176  0.5985  0.2422
  263SOL    HW1 4320   1.439   5.502   8.043  0.2602  1.9062 -1.1702
  263SOL    HW2 4321   1.586   5.508   8.006  0.9976 -0.0222  1.1580
  264SOL     OW 4322   7.734   9.833   4.987 -0.0494 -0.0748 -0.2107
  264SOL    HW1 4323   7.668   9.864   4.925  0.1037 -0.6810 -0.6823
  264SOL    HW2 4324   7.735   9.738   4.976  0.0162 -0.1838  0.6879
  265SOL     OW 4325   7.372   7.474   3.548 -0.3260  0.3784 -0.4733
  265SOL    HW1 4326   7.410   7.439   3.468 -1.7474 -0.2318 -0.9211
  265SOL    HW2 4327   7.325   7.553   3.519 -0.7328  0.2284 -0.2215
  266SOL     OW 4328   8.446   4.571   8.315 -0.2639  0.7044  0.2245
  266SOL    HW1 4329   8.500   4.531   8.384 -0.2712  0.9023  0.3461
  266SOL    HW2 4330   8.362   4.527   8.323 -0.0757  0.2834 -0.0679
  267SOL     OW 4331   8.633   7.531   1.104  0.4358 -0.6728 -0.1637
  267SOL    HW1 4332   8.681   7.562   1.027  1.0593  0.2463  0.5681
  267SOL    HW2 4333   8.661   7.590   1.174 -0.2814 -1.3642  0.7181
  268SOL     OW 4334   8.921   7.199  10.165  0.0203  0.0673  0.0809
  268SOL    HW1 4335   8.897   7.121  10.115  1.0945  0.1430 -0.5835
  268SOL    HW2 4336   9.013   7.185  10.190  0.3102  1.2267 -0.2779
  269SOL     OW 4337   9.710   1.390   4.717 -0.0953 -0.4381  0.1553
  269SOL    HW1 4338   9.755   1.312   4.748 -0.3596 -0.6542  0.0057
  269SOL    HW2 4339   9.777   1.459   4.717  0.1904 -0.7138  0.0882
  270SOL     OW 4340   8.525   3.553   6.655  0.1974  0.0904 -0.4051
  270SOL    HW1 4341   8.559   3.642   6.648 -0.0511  0.3263  1.1021
  270SOL    HW2 4342   8.540   3.514   6.568  1.6576  1.1045 -0.6330
  271SOL     OW 4343  10.163   4.405   5.261  0.1375 -0.4713  0.1269
  271SOL    HW1 4344  10.109   4.454   5.200 -0.6238  0.4749  1.5140
  271SOL    HW2 4345  10.157   4.453   5.344  2.0502 -1.0704  0.6826
  272SOL     OW 4346   8.939   7.650   3.210  0.1997  0.5132 -0.1295
  272SOL    HW1 4347   8.882   7.625   3.282  1.2617 -1.7408  0.0402
  272SOL    HW2 4348   9.020   7.680   3.252  0.0282  1.3761 -0.3901
  273SOL     OW 4349   8.670   5.930   8.445 -0.0778  0.1480 -0.4597
  273SOL    HW1 4350   8.664   5.838   8.470  0.1729  0.3659  0.4169
  273SOL    HW2 4351   8.605   5.940   8.375 -1.5935 -0.2242  0.8350
  274SOL     OW 4352   6.844   4.733   9.250  0.3190 -0.5694  0.3143
  274SOL    HW1 4353   6.836   4.640   9.271 -1.0523 -0.9370 -1.5103
  274SOL    HW2 4354   6.765   4.752   9.199  2.0927  0.7683 -2.1481
  275SOL     OW 4355   2.490   9.623   5.724  0.4124 -0.0415 -0.0176
  275SOL    HW1 4356   2.412   9.577   5.754 -0.6662  1.0333 -1.0802
  275SOL    HW2 4357   2.494   9.605   5.630  2.5486 -1.6430  0.3177
  276SOL     OW 4358   6.178   4.295   4.357  0.1710  0.4301 -0.1879
  276SOL    HW1 4359   6.206   4.345   4.433 -0.3556 -1.2098  1.1545
  276SOL    HW2 4360   6.094   4.334   4.332 -1.6475 -1.3438  2.5725
  277SOL     OW 4361   1.248   3.620   7.884  0.1818  0.5276 -0.5500
  277SOL    HW1 4362   1.281   3.695   7.833 -1.7273  1.5208 -0.4059
  277SOL    HW2 4363   1.156   3.640   7.898 -0.2466 -1.6391 -0.0473
  278SOL     OW 4364   3.032   4.035   8.029 -0.4786 -0.2360 -0.2257
  278SOL    HW1 4365   3.014   4.112   8.083 -0.4183 -0.3770  0.0019
  278SOL    HW2 4366   3.098   4.064   7.967 -0.9868  0.0942 -0.6174
  279SOL     OW 4367   3.769   9.771   8.806  0.1708  0.0425  0.7009
  279SOL    HW1 4368   3.702   9.748   8.742 -0.4244  0.8468  1.0240
  279SOL    HW2 4369   3.728   9.837   8.861  0.7315 -0.5173  1.8183
  280SOL     OW 4370   0.900   4.882   2.305  0.1504 -0.5488 -0.6163
  280SOL    HW1 4371   0.888   4.812   2.369  1.4425 -2.2874 -2.1394
  280SOL    HW2 4372   0.986   4.919   2.326  0.1604 -0.4893 -0.7608
  281SOL     OW 4373   1.399   0.198   7.568 -0.6536 -0.1826  0.2995
  281SOL    HW1 4374   1.389   0.141   7.492  0.8577  0.6966 -0.6087
  281SOL    HW2 4375   1.327   0.260   7.561 -0.3602  0.0710 -0.6047
  282SOL     OW 4376   5.787   8.734   5.323 -0.3778 -0.3060  0.2607
  282SOL    HW1 4377   5.811   8.645   5.348 -1.0895 -0.4264  0.5595
  282SOL    HW2 4378   5.772   8.779   5.407  0.4893  0.2468  0.1275
  283SOL     OW 4379   9.568   4.495   2.561  0.2098  0.2568  0.1786
  283SOL    HW1 4380   9.509   4.563   2.593  0.5759 -0.7611  3.2849
  283SOL    HW2 4381   9.549   4.418   2.614  3.9197 -0.2775  1.0129
  284SOL     OW 4382   4.935   2.946   6.421  0.5401  0.0850 -0.9001
  284SOL    HW1 4383   4.913   2.854   6.408 -0.3297  0.2993 -1.0233
  284SOL    HW2 4384   4.979   2.948   6.506  1.6193 -0.5958 -1.4115
  285SOL     OW 4385   5.191   2.973   5.673 -0.0225  0.1017 -0.3192
  285SOL    HW1 4386   5.150   3.059   5.681 -1.5833 -0.7238  1.0599
  285SOL    HW2 4387   5.283   2.988   5.695 -0.2467  1.4352 -0.2525
  286SOL     OW 4388   2.596  10.973   2.697 -0.4357 -0.1691  0.1665
  286SOL    HW1 4389   2.512  10.945   2.662  0.2199  0.1683 -1.7879
  286SOL    HW2 4390   2.644  10.892   2.713  0.4779 -0.3863 -2.9857
  287SOL     OW 4391   3.183   2.431   9.603 -0.1628  0.6855  0.5192
  287SOL    HW1 4392   3.105   2.385   9.573 -0.2170  0.3085  1.2127
  287SOL    HW2 4393   3.191   2.407   9.696  1.4453 -0.2227  0.1751
  288SOL     OW 4394   3.774  10.580   6.722  0.0737 -0.1393  0.0252
  288SOL    HW1 4395   3.741  10.514   6.782  0.7360 -0.9892 -0.5216
  288SOL    HW2 4396   3.790  10.533   6.640  2.3891  0.2598  0.1707
  289SOL     OW 4397   8.157   4.192  10.425  0.3653  0.0831 -0.3044
  289SOL    HW1 4398   8.079   4.209  10.477 -0.4759 -0.7354 -1.2656
  289SOL    HW2 4399   8.190   4.109  10.458  0.7072  0.3120 -0.0603
  290SOL     OW 4400   6.494   2.905   3.320 -1.0134  0.2472 -0.3001
  290SOL    HW1 4401   6.399   2.894   3.330 -0.8244  0.1487  1.7646
  290SOL    HW2 4402   6.525   2.819   3.292 -1.4230 -0.0032  0.0050
  291SOL     OW 4403   3.846   5.080   8.344 -0.0239 -0.1814 -0.1547
  291SOL    HW1 4404   3.907   5.087   8.417  2.4477  1.1722 -2.1990
  291SOL    HW2 4405   3.866   4.996   8.304  0.2474  0.0967 -0.6078
  292SOL     OW 4406   7.411   6.266   4.502  0.3905 -0.2284 -0.2557
  292SOL    HW1 4407   7.354   6.295   4.574  1.4031  0.6068  0.2442
  292SOL    HW2 4408   7.352   6.223   4.440 -1.1906  2.6156 -0.8828
  293SOL     OW 4409   8.730   9.801  10.901 -0.3025 -0.4177  0.2691
  293SOL    HW1 4410   8.670   9.823  10.972 -2.4656  0.1930 -1.6441
  293SOL    HW2 4411   8.730   9.706  10.898 -1.2894 -0.4226  0.2201
  294SOL     OW 4412   0.205   0.131   3.385 -0.3277  0.5166  0.3075
  294SOL    HW1 4413   0.169   0.045   3.406  0.2953  0.3611  0.7432
  294SOL    HW2 4414   0.128   0.184   3.362 -1.1162  0.7834  3.2054
  295SOL     OW 4415   6.003   4.726   1.949  0.1671  0.2407  0.2221
  295SOL    HW1 4416   6.054   4.786   2.003 -2.1656  1.8947  0.7541
  295SOL    HW2 4417   5.975   4.779   1.874 -1.8123 -0.1618  0.6204
  296SOL     OW 4418   1.794   7.358   1.654 -0.0447 -0.0656  0.3107
  296SOL    HW1 4419   1.775   7.350   1.748 -1.0654  0.1039  0.1318
  296SOL    HW2 4420   1.719   7.405   1.619  0.2024 -0.3748 -0.6487
  297SOL     OW 4421   6.101   0.841   9.726 -0.0219 -0.5177  0.6286
  297SOL    HW1 4422   6.130   0.783   9.797  2.1702 -1.0686 -0.6157
  297SOL    HW2 4423   6.147   0.923   9.743  0.8125 -0.7731 -0.3194
  298SOL     OW 4424   9.121   6.539   5.279 -0.2910 -0.0743  0.0599
  298SOL    HW1 4425   9.128   6.632   5.261  2.5209 -0.3871 -0.8239
  298SOL    HW2 4426   9.055   6.533   5.349  0.4612  2.6932  1.1210
  299SOL     OW 4427   4.614   2.572   4.257  0.6918 -0.3934  0.2768
  299SOL    HW1 4428   4.553   2.602   4.324 -0.0597  0.1344 -0.6206
  299SOL    HW2 4429   4.561   2.566   4.177  1.8244  0.1770 -0.5533
  300SOL     OW 4430   1.058   5.179   8.783 -0.2238 -0.1735 -0.6744
  300SOL    HW1 4431   1.044   5.273   8.792 -0.9973 -0.3501  0.0439
  300SOL    HW2 4432   0.972   5.140   8.798 -0.1282 -0.9442 -1.9703
  301SOL     OW 4433   7.420   0.031   3.653  0.2803 -0.1445 -0.7797
  301SOL    HW1 4434   7.350   0.092   3.627 -0.3547 -0.5388 -0.0319
  301SOL    HW2 4435   7.496   0.060   3.602 -0.2649  0.6605 -1.1737
  302SOL     OW 4436   1.099   5.838   0.431  0.1322  0.7147 -0.0852
  302SOL    HW1 4437   1.089   5.847   0.526 -1.4338  0.2107 -0.1806
  302SOL    HW2 4438   1.010   5.829   0.398  0.6140  1.3664 -1.6688
  303SOL     OW 4439  10.617   3.442   5.806 -0.0397  0.0304  0.1092
  303SOL    HW1 4440  10.602   3.364   5.752 -1.2918  0.5602 -0.3285
  303SOL    HW2 4441  10.671   3.499   5.751  0.6824 -0.4078  0.3415
  304SOL     OW 4442  10.326   5.168   1.896 -0.6464  0.2154 -0.5456
  304SOL    HW1 4443  10.256   5.102   1.896  0.0239 -0.5503 -2.0507
  304SOL    HW2 4444  10.300   5.231   1.828 -0.5886  0.7336 -0.0943
  305SOL     OW 4445   0.591   8.651   9.368 -0.2435  0.4004  0.5780
  305SOL    HW1 4446   0.679   8.660   9.332 -1.0948  0.1947 -1.6975
  305SOL    HW2 4447   0.545   8.593   9.307 -1.4370 -1.1025  2.7529
  306SOL     OW 4448   4.826   7.680   1.470 -0.5514  0.8702 -0.1571
  306SOL    HW1 4449   4.759   7.624   1.431  0.3330 -0.8061  0.6142
  306SOL    HW2 4450   4.890   7.693   1.400 -0.8274  1.0502 -0.3808
  307SOL     OW 4451   4.027   1.876   3.774 -0.2493  0.4010  0.3710
  307SOL    HW1 4452   3.977   1.861   3.855  0.5417  0.2596  0.8491
  307SOL    HW2 4453   4.061   1.789   3.751  0.8638  0.7130  0.7926
  308SOL     OW 4454   6.184   7.643   2.966  0.3468  0.0869  0.4659
  308SOL    HW1 4455   6.168   7.579   3.035 -0.8660 -0.8384 -0.6229
  308SOL    HW2 4456   6.140   7.607   2.889  1.3803  1.2371 -0.7216
  309SOL     OW 4457   5.170   6.894   2.888  0.2438  0.3072  0.3964
  309SOL    HW1 4458   5.243   6.845   2.925 -2.1259 -2.4865  1.7587
  309SOL    HW2 4459   5.100   6.885   2.953 -2.3509 -0.0142 -2.2387
  310SOL     OW 4460  11.113   9.420   5.495 -1.2035 -0.0290 -0.3855
  310SOL    HW1 4461  11.199   9.380   5.485 -1.6245 -0.6383 -1.9631
  310SOL    HW2 4462  11.130   9.511   5.517 -0.1819 -0.3145  0.0399
  311SOL     OW 4463   2.467   4.182   6.281  0.2341  0.1772 -0.5108
  311SOL    HW1 4464   2.549   4.162   6.235 -0.2568  0.9818 -1.8037
  311SOL    HW2 4465   2.418   4.237   6.219  0.4896  3.3062  1.8144
  312SOL     OW 4466   6.779   5.592   6.826  0.7433  0.1920 -0.6351
  312SOL    HW1 4467   6.787   5.668   6.883 -1.1865 -0.1998  0.2715
  312SOL    HW2 4468   6.695   5.604   6.782  0.2049 -1.5456 -0.1980
  313SOL     OW 4469   3.218   6.412   9.210 -0.1773 -0.6476  0.3230
  313SOL    HW1 4470   3.181   6.454   9.288  0.4557 -0.5005  0.5490
  313SOL    HW2 4471   3.312   6.420   9.221 -0.0914 -0.0001 -0.8081
  314SOL     OW 4472   7.006   2.334   8.017  0.2328  0.2342 -0.2630
  314SOL    HW1 4473   6.968   2.383   8.091  0.8043 -1.6024  1.3108
  314SOL    HW2 4474   7.098   2.360   8.016  1.1119 -2.3648  2.0614
  315SOL     OW 4475  10.172  10.183  10.426 -0.8477 -0.0902  0.4702
  315SOL    HW1 4476  10.084  10.216  10.445 -0.3112  0.4283  2.2571
  315SOL    HW2 4477  10.203  10.150  10.511  1.3148  1.3032  0.2831
  316SOL     OW 4478   5.071   9.817   7.569 -0.2090 -0.2710 -0.3267
  316SOL    HW1 4479   5.115   9.835   7.486  0.1200 -1.4429 -0.4112
  316SOL    HW2 4480   5.026   9.734   7.555 -0.2799 -0.3993  0.6285
  317SOL     OW 4481   3.025   4.616   1.008 -0.1729  0.2410  0.5967
  317SOL    HW1 4482   2.975   4.543   1.043  1.5354 -0.7987  1.0182
  317SOL    HW2 4483   3.109   4.577   0.981 -0.0527  1.6634 -1.2688
  318SOL     OW 4484   6.265   9.775   4.533  0.3108  0.3566 -0.3323
  318SOL    HW1 4485   6.204   9.832   4.580  1.3197  0.9037  0.3542
  318SOL    HW2 4486   6.303   9.718   4.601 -0.1659 -0.6710 -0.9042
  319SOL     OW 4487   6.670   2.456   2.820 -0.1399  0.2748  0.0178
  319SOL    HW1 4488   6.760   2.447   2.787 -0.3829  1.6111 -1.1242
  319SOL    HW2 4489   6.679   2.447   2.915  1.1292 -0.0950 -0.1059
  320SOL     OW 4490   6.140   4.486   2.483 -0.1780 -0.1115  0.3354
  320SOL    HW1 4491   6.231   4.459   2.471  0.0511  0.8653 -0.2296
  320SOL    HW2 4492   6.127   4.485   2.578  0.7745  0.8300  0.4946
  321SOL     OW 4493   1.262  10.426   2.413 -0.9058  0.5404 -0.7724
  321SOL    HW1 4494   1.302  10.364   2.474 -4.0520 -0.9832 -0.0603
  321SOL    HW2 4495   1.316  10.505   2.421  2.6995 -1.6565 -0.9856
  322SOL     OW 4496   1.655   9.318   5.352  0.0129 -0.0956  0.0202
  322SOL    HW1 4497   1.749   9.334   5.355 -0.0195  0.2144 -0.4006
  322SOL    HW2 4498   1.627   9.322   5.443  0.1637  1.3887  0.0284
  323SOL     OW 4499  10.452   2.349   5.953 -0.0757  0.2548 -0.3407
  323SOL    HW1 4500  10.411   2.355   5.867  0.4258 -0.6765 -0.6631
  323SOL    HW2 4501  10.378   2.344   6.014 -0.4321  0.8215 -0.7260
  324SOL     OW 4502   1.886  11.027   3.304 -0.2812 -0.0005  0.0266
  324SOL    HW1 4503   1.969  11.012   3.260  0.6549  0.0777  1.7071
  324SOL    HW2 4504   1.894  10.983   3.388 -1.5567  0.8551  0.6363
  325SOL     OW 4505   4.394   2.424  10.883  0.1214 -0.3065 -0.4419
  325SOL    HW1 4506   4.310   2.438  10.838  0.6661 -2.0342 -2.1191
  325SOL    HW2 4507   4.385   2.338  10.924  0.6377  0.0667  0.4780
  326SOL     OW 4508  11.002   2.208   3.410  0.2865  0.8205 -0.5500
  326SOL    HW1 4509  10.940   2.147   3.449  1.4459 -0.3372 -0.4314
  326SOL    HW2 4510  10.949   2.267   3.357 -0.7797 -1.0404 -1.6381
  327SOL     OW 4511   9.442   8.000   8.144 -0.2157  0.2002  0.8148
  327SOL    HW1 4512   9.426   7.907   8.135  2.0273 -0.0729 -1.7911
  327SOL    HW2 4513   9.534   8.006   8.172 -0.2213  1.6311  0.6132
  328SOL     OW 4514   0.538   4.232   3.747  0.4532  0.4237  0.2792
  328SOL    HW1 4515   0.542   4.328   3.745  0.5888  0.5542 -4.0654
  328SOL    HW2 4516   0.444   4.212   3.754  0.2643  0.9731 -0.5458
  329SOL     OW 4517   5.538   2.507   9.956  0.0339 -0.1434  0.1163
  329SOL    HW1 4518   5.546   2.431  10.014  0.3293 -0.1608  0.0546
  329SOL    HW2 4519   5.462   2.554   9.989  2.6181  2.2416  3.3197
  330SOL     OW 4520   0.850   6.837   4.717 -0.3916  0.5852 -0.0726
  330SOL    HW1 4521   0.910   6.778   4.763  0.7945  0.9811 -1.0500
  330SOL    HW2 4522   0.871   6.924   4.752 -0.5375  0.7003 -0.2720
  331SOL     OW 4523   7.268   0.918   3.518  0.1196  0.1480  0.6435
  331SOL    HW1 4524   7.205   0.880   3.579 -1.6979  1.1041 -0.5296
  331SOL    HW2 4525   7.282   0.849   3.452 -1.3520  0.6260 -0.2101
  332SOL     OW 4526   6.091   4.666   7.678  0.2860  0.1784 -0.5517
  332SOL    HW1 4527   6.083   4.583   7.631  0.9673  0.4778 -1.2209
  332SOL    HW2 4528   6.056   4.731   7.616 -0.3822  0.3772  0.0258
  333SOL     OW 4529   6.381   0.304   1.781  0.6483  0.3594  0.2069
  333SOL    HW1 4530   6.356   0.379   1.834  1.1082 -0.1903  1.2203
  333SOL    HW2 4531   6.398   0.341   1.694 -0.2803  1.2399  0.3835
  334SOL     OW 4532   5.791   0.457   7.564 -0.6493  0.6473 -0.5000
  334SOL    HW1 4533   5.757   0.384   7.512 -1.5848  0.3882  0.4341
  334SOL    HW2 4534   5.725   0.469   7.633  1.6035 -0.5842  2.0652
  335SOL     OW 4535   7.526   9.413  10.215  0.6641  0.7628  0.1988
  335SOL    HW1 4536   7.588   9.396  10.286 -0.6466  3.5546  2.2090
  335SOL    HW2 4537   7.562   9.489  10.169 -1.0362  2.3092  1.2824
  336SOL     OW 4538   0.511   1.592   0.872 -0.4112 -0.5889  0.0477
  336SOL    HW1 4539   0.454   1.662   0.903  0.3315  0.1984 -0.3445
  336SOL    HW2 4540   0.491   1.518   0.930 -1.0399  0.0015  0.6074
  337SOL     OW 4541   4.585   9.615  10.710 -0.0585 -0.5907  0.3690
  337SOL    HW1 4542   4.569   9.572  10.794 -0.9620  0.5152  0.8078
  337SOL    HW2 4543   4.678   9.603  10.694  0.3192 -0.0891  1.9793
  338SOL     OW 4544   0.997  10.766   9.558  0.5949  0.1289 -0.2692
  338SOL    HW1 4545   0.946  10.844   9.538  0.4363  0.3730  1.0266
  338SOL    HW2 4546   1.071  10.797   9.610 -0.0682 -0.6940  1.2149
  339SOL     OW 4547  10.384   4.980   1.640 -0.4172 -0.0611  0.7038
  339SOL    HW1 4548  10.461   5.002   1.693 -1.1965  1.1267  1.3883
  339SOL    HW2 4549  10.388   4.885   1.631  1.3549 -0.0003  0.3576
  340SOL     OW 4550   2.871   6.456   3.106 -0.6046  0.3263 -0.3560
  340SOL    HW1 4551   2.811   6.492   3.172 -0.6180  2.1722 -1.3155
  340SOL    HW2 4552   2.826   6.471   3.022 -0.1382 -1.0505 -0.8831
  341SOL     OW 4553   5.042   0.910  10.715 -0.6243  0.4564  0.1238
  341SOL    HW1 4554   5.119   0.965  10.727 -0.8249  0.6263  0.6600
  341SOL    HW2 4555   5.045   0.848  10.788 -0.5158 -0.1141 -0.3549
  342SOL     OW 4556  10.516   7.864   9.849 -0.4301  0.2162 -0.1997
  342SOL    HW1 4557  10.479   7.919   9.919  0.3038  0.5596 -0.0718
  342SOL    HW2 4558  10.442   7.815   9.816 -0.8539  0.2817  0.6172
  343SOL     OW 4559   3.062   3.276   9.827 -0.2548 -0.5730 -0.1223
  343SOL    HW1 4560   3.147   3.297   9.867 -0.7015 -0.4217  0.7849
  343SOL    HW2 4561   3.084   3.229   9.747  0.6808 -0.8436  0.2760
  344SOL     OW 4562   4.507   4.330   1.038 -0.2652 -0.1977 -0.2207
  344SOL    HW1 4563   4.423   4.356   1.000 -0.1025  1.9732  0.7421
  344SOL    HW2 4564   4.493   4.241   1.068 -1.3455 -0.8718 -2.5103
  345SOL     OW 4565   7.253   1.091   2.455  0.2176 -0.1334 -0.6571
  345SOL    HW1 4566   7.283   1.006   2.423 -0.9471 -0.4984 -0.8234
  345SOL    HW2 4567   7.212   1.072   2.540  1.4776  0.5315  0.1353
  346SOL     OW 4568  10.947   8.688   6.976  0.4975  0.0087 -0.1785
  346SOL    HW1 4569  11.035   8.679   7.012  0.3681  1.4362  0.5804
  346SOL    HW2 4570  10.936   8.612   6.920  2.0336 -0.4474  0.0920
  347SOL     OW 4571   8.147   6.449   6.635 -0.2003  0.2788 -0.3842
  347SOL    HW1 4572   8.143   6.535   6.676  0.1882  1.3707 -2.4910
  347SOL    HW2 4573   8.231   6.412   6.664 -0.6329  0.3217  0.9981
  348SOL     OW 4574   6.955   3.283   5.709 -0.4532 -0.1718  0.3637
  348SOL    HW1 4575   6.883   3.240   5.755 -0.8154 -0.5394 -0.5255
  348SOL    HW2 4576   6.914   3.355   5.661 -0.0002  0.5368  1.0278
  349SOL     OW 4577   8.693   1.682   7.523  0.1958 -0.0028  0.6564
  349SOL    HW1 4578   8.697   1.768   7.565  0.0505 -0.5407  1.8069
  349SOL    HW2 4579   8.784   1.652   7.521  0.1654 -0.1125  0.8812
  350SOL     OW 4580   1.751   5.976   4.271  0.1312  0.4849 -0.5902
  350SOL    HW1 4581   1.666   5.963   4.313  0.6479  1.0350  0.6793
  350SOL    HW2 4582   1.757   5.905   4.207 -0.4284 -0.7844  0.7076
  351SOL     OW 4583  10.819   3.672   5.672 -0.2919  0.0254  0.3077
  351SOL    HW1 4584  10.764   3.736   5.627 -0.8446  0.6346  1.7837
  351SOL    HW2 4585  10.846   3.611   5.603 -0.9052  1.0397 -0.8723
  352SOL     OW 4586   8.453   6.105   7.390  0.5656  0.4400 -0.2975
  352SOL    HW1 4587   8.419   6.194   7.385  1.3372  0.7028 -0.9261
  352SOL    HW2 4588   8.399   6.055   7.329  0.5306  0.6084 -0.4039
  353SOL     OW 4589   6.995   2.938   2.332  0.3314  0.3052 -0.5148
  353SOL    HW1 4590   6.982   2.892   2.250  0.9853  0.3075 -0.6218
  353SOL    HW2 4591   6.917   2.917   2.384 -0.0331  0.2209 -1.0901
  354SOL     OW 4592   4.419   2.139   1.232  0.4214  0.2204 -0.0758
  354SOL    HW1 4593   4.504   2.133   1.276  0.2581  1.2981  0.4156
  354SOL    HW2 4594   4.409   2.232   1.212 -0.7280  0.1333  0.0389
  355SOL     OW 4595   7.972   6.042   9.237  0.6764  0.2797 -0.1245
  355SOL    HW1 4596   8.068   6.034   9.239  0.7109  0.8655  0.7239
  355SOL    HW2 4597   7.945   6.035   9.328 -0.1624 -0.6362 -0.4310
  356SOL     OW 4598   7.420  10.607   0.740 -0.1033 -0.3055  0.0373
  356SOL    HW1 4599   7.426  10.699   0.766 -1.6383  0.4306 -1.9684
  356SOL    HW2 4600   7.415  10.559   0.823 -2.1140  1.6712  1.1594
  357SOL     OW 4601   1.890  10.511   5.751  0.3263 -0.0480  0.2790
  357SOL    HW1 4602   1.929  10.428   5.725  0.8891  0.0313  0.8330
  357SOL    HW2 4603   1.908  10.517   5.845 -0.0421  0.5225  0.3178
  358SOL     OW 4604   7.945   0.331   7.086 -0.0949  0.3419  0.4695
  358SOL    HW1 4605   7.905   0.298   7.167  1.6108 -1.8708  0.5328
  358SOL    HW2 4606   7.891   0.405   7.060 -3.1960 -1.4472  1.3656
  359SOL     OW 4607   1.087   8.028   9.566  0.2593 -0.3826  0.2320
  359SOL    HW1 4608   1.014   7.979   9.604 -1.2517  1.8353  0.3535
  359SOL    HW2 4609   1.113   7.977   9.489 -1.7519 -0.9906 -0.0953
  360SOL     OW 4610   2.614   5.960   9.598  0.2649  0.1362  0.3288
  360SOL    HW1 4611   2.691   5.952   9.543  0.5603 -0.2377  0.7862
  360SOL    HW2 4612   2.569   5.875   9.589  1.1490 -0.5325  1.8777
  361SOL     OW 4613   2.354   9.302   2.426 -0.6619 -0.5229 -0.1108
  361SOL    HW1 4614   2.407   9.349   2.490 -1.0605 -0.6787  0.3429
  361SOL    HW2 4615   2.416   9.248   2.378 -0.4074 -0.7066  0.4181
  362SOL     OW 4616   1.771   3.795   8.003 -0.0393  0.2593 -0.4046
  362SOL    HW1 4617   1.736   3.729   8.063 -0.4896 -0.8918 -1.8581
  362SOL    HW2 4618   1.866   3.790   8.012 -0.1136  0.5382  0.6283
  363SOL     OW 4619   6.646   8.817   8.540  0.8674  0.1274  0.4178
  363SOL    HW1 4620   6.689   8.735   8.567  1.0594  0.5166  1.3161
  363SOL    HW2 4621   6.695   8.886   8.584  0.4964  0.7115 -0.0679
  364SOL     OW 4622   1.594   2.742   2.822  0.0459 -0.0998 -0.0568
  364SOL    HW1 4623   1.499   2.737   2.830 -0.2222 -1.0846 -2.8798
  364SOL    HW2 4624   1.627   2.672   2.878 -0.9298 -0.2515  0.3374
  365SOL     OW 4625   2.045   3.845   7.210  0.2718  0.3194 -0.3924
  365SOL    HW1 4626   1.999   3.772   7.251  1.8128  0.3776  1.5818
  365SOL    HW2 4627   2.052   3.820   7.118  1.4873 -2.4791  0.3587
  366SOL     OW 4628   4.613   6.629   0.136  0.3006  0.3328 -0.6133
  366SOL    HW1 4629   4.698   6.664   0.110  0.9091  1.3876  2.4166
  366SOL    HW2 4630   4.574   6.698   0.190 -1.1375 -1.3202  0.5883
  367SOL     OW 4631   0.043   0.482   1.544  0.3247  0.1978  0.2430
  367SOL    HW1 4632   0.073   0.393   1.526 -1.7320 -0.4167 -0.4304
  367SOL    HW2 4633  -0.019   0.473   1.616  1.0552  1.2978  1.0407
  368SOL     OW 4634   1.803   3.410   6.367  0.3096 -0.0886  0.1449
  368SOL    HW1 4635   1.810   3.422   6.272 -1.3150 -0.4347 -0.0492
  368SOL    HW2 4636   1.720   3.453   6.390 -0.1905 -1.5234  1.1186
  369SOL     OW 4637   0.868   8.551   3.824 -0.1222  0.4586 -0.4131
  369SOL    HW1 4638   0.881   8.547   3.729  2.1174  2.9606 -0.3458
  369SOL    HW2 4639   0.951   8.587   3.858  0.1894 -2.7586  2.8286
  370SOL     OW 4640   0.417   1.167   9.393 -0.6591 -0.7914 -0.5603
  370SOL    HW1 4641   0.324   1.189   9.387  0.3286  4.2973 -0.9414
  370SOL    HW2 4642   0.454   1.196   9.310  1.5645 -1.1423  0.2445
  371SOL     OW 4643   4.825   0.868   4.401 -0.9610 -0.1207  0.2091
  371SOL    HW1 4644   4.881   0.808   4.352 -2.1573 -1.1303  0.0092
  371SOL    HW2 4645   4.882   0.906   4.468 -0.0076 -0.9817 -0.0963
  372SOL     OW 4646   0.639  10.230   5.968  0.2299  0.9066  0.1980
  372SOL    HW1 4647   0.575  10.165   5.938  0.3292  1.6230 -1.7390
  372SOL    HW2 4648   0.705  10.179   6.014 -0.9439 -0.0382  0.8947
  373SOL     OW 4649   8.102   6.612  10.919  0.5980 -0.0785 -0.1979
  373SOL    HW1 4650   8.170   6.564  10.871  2.3147  0.1630  1.8308
  373SOL    HW2 4651   8.067   6.548  10.981 -1.4581 -0.3405 -1.5573
  374SOL     OW 4652  10.793   7.588   3.688  0.4683 -0.5165  0.3044
  374SOL    HW1 4653  10.835   7.534   3.754  0.0581 -1.7937 -0.4337
  374SOL    HW2 4654  10.744   7.654   3.737 -0.5126 -1.9451  1.3131
  375SOL     OW 4655   4.906   8.416   7.884  0.0116 -0.2475 -0.3284
  375SOL    HW1 4656   4.936   8.325   7.884 -0.4574 -0.4144  0.3394
  375SOL    HW2 4657   4.880   8.433   7.975 -1.4941 -0.0002 -0.7700
  376SOL     OW 4658   3.184   5.916   7.000 -0.4479  0.2109  0.1960
  376SOL    HW1 4659   3.263   5.910   7.054  0.7540  0.4139 -1.4895
  376SOL    HW2 4660   3.175   6.009   6.981 -0.7843  0.1221 -0.0812
  377SOL     OW 4661   4.752   2.427   3.275  0.3301 -0.3801 -0.1951
  377SOL    HW1 4662   4.715   2.514   3.263 -0.6266 -0.9406 -1.5006
  377SOL    HW2 4663   4.711   2.394   3.355 -0.7246 -0.3268 -0.6949
  378SOL     OW 4664   3.324   6.564   4.758  0.6215  0.0476 -0.5152
  378SOL    HW1 4665   3.405   6.561   4.706 -0.4880 -0.2973 -2.2923
  378SOL    HW2 4666   3.322   6.653   4.793  3.5972 -0.9040  2.7432
  379SOL     OW 4667   4.292   1.289   9.719 -0.5609  0.2553  0.0481
  379SOL    HW1 4668   4.295   1.312   9.626 -1.1491  3.5524  0.7186
  379SOL    HW2 4669   4.383   1.291   9.747 -0.4763  0.2695 -0.2223
  380SOL     OW 4670   8.589   4.455   3.810 -0.4432 -0.2987  0.1450
  380SOL    HW1 4671   8.552   4.483   3.727 -0.6483 -0.0877  0.3027
  380SOL    HW2 4672   8.513   4.451   3.869 -0.3095 -0.5081  0.3017
  381SOL     OW 4673   2.592   0.703   4.568  0.6200 -0.0971 -0.3387
  381SOL    HW1 4674   2.592   0.670   4.478  0.8492 -0.5377 -0.1803
  381SOL    HW2 4675   2.546   0.787   4.563  0.3386 -0.2772 -0.8095
  382SOL     OW 4676   1.432   2.713   5.611 -0.2535 -0.0797 -0.0250
  382SOL    HW1 4677   1.512   2.754   5.644 -0.1852  0.4261 -0.7940
  382SOL    HW2 4678   1.391   2.781   5.558 -0.7821 -0.6076 -0.2982
  383SOL     OW 4679   1.126   8.889   7.951  0.4666  0.1624  0.2521
  383SOL    HW1 4680   1.081   8.810   7.982  0.6241  0.7583  2.0996
  383SOL    HW2 4681   1.217   8.875   7.974  0.6821  0.4425 -0.4030
  384SOL     OW 4682   9.865   4.666   7.116 -0.1064  0.4587 -0.1654
  384SOL    HW1 4683   9.782   4.698   7.151  0.2397  0.0383  1.1120
  384SOL    HW2 4684   9.929   4.688   7.184  0.4275 -1.3675 -0.0322
  385SOL     OW 4685   6.582   3.388  10.916  0.3509  0.5669 -0.3405
  385SOL    HW1 4686   6.571   3.398  10.822  1.9298  1.5062 -0.4591
  385SOL    HW2 4687   6.511   3.439  10.954  0.2805  0.9925 -1.0244
  386SOL     OW 4688  10.582   5.393  10.959  0.5570 -0.3656 -0.3093
  386SOL    HW1 4689  10.506   5.447  10.940  0.9602  1.1613  2.0048
  386SOL    HW2 4690  10.649   5.424  10.898  0.4885  1.1674  0.3408
  387SOL     OW 4691  10.150   0.633   3.931 -0.2822  0.9098 -0.0192
  387SOL    HW1 4692  10.163   0.660   3.840 -0.3177 -1.8345 -0.9165
  387SOL    HW2 4693  10.071   0.579   3.929  0.7559 -0.7240  1.2799
  388SOL     OW 4694   4.665   2.101   9.366  0.6591  0.1279 -0.1320
  388SOL    HW1 4695   4.655   2.073   9.275 -0.5539 -0.9191  0.2886
  388SOL    HW2 4696   4.760   2.109   9.379  0.8668 -0.2887 -1.3147
  389SOL     OW 4697   8.393   8.090   6.632  0.6419 -0.6869 -0.1153
  389SOL    HW1 4698   8.358   8.179   6.642  0.5452 -0.8412  0.9995
  389SOL    HW2 4699   8.484   8.097   6.662  0.1758 -1.2918  1.5297
  390SOL     OW 4700   1.362  10.120   5.444  0.0885 -0.4131  0.0377
  390SOL    HW1 4701   1.431  10.065   5.406  1.0751  0.1783  0.9236
  390SOL    HW2 4702   1.398  10.208   5.444 -0.2430 -0.2410  1.4268
  391SOL     OW 4703   9.271  10.357   5.562 -0.0469  0.5067 -0.6953
  391SOL    HW1 4704   9.260  10.409   5.641 -0.8194 -0.1753 -0.3341
  391SOL    HW2 4705   9.191  10.371   5.512  0.6854  1.4077 -1.6684
  392SOL     OW 4706   8.579   0.357   8.893  0.5016  0.1101  0.5041
  392SOL    HW1 4707   8.505   0.409   8.862  1.2209 -0.0587 -1.6501
  392SOL    HW2 4708   8.603   0.303   8.818  3.4274  0.8914  0.7667
  393SOL     OW 4709   0.391   1.137   4.617  0.0434 -0.2068  0.1864
  393SOL    HW1 4710   0.483   1.138   4.593  0.4410  1.0199  1.6178
  393SOL    HW2 4711   0.362   1.047   4.601  1.4946 -0.6179 -0.2153
  394SOL     OW 4712   8.402   1.409   0.749 -0.2171  0.6329  0.6827
  394SOL    HW1 4713   8.473   1.363   0.793  0.7485  1.0559 -0.3864
  394SOL    HW2 4714   8.437   1.430   0.662 -1.9007  0.2058 -0.1473
  395SOL     OW 4715   4.718   7.566   0.583 -0.6943 -0.2031 -0.1390
  395SOL    HW1 4716   4.705   7.634   0.650 -1.8106  0.3995 -0.9376
  395SOL    HW2 4717   4.757   7.493   0.631  2.4550  1.6361  0.4258
  396SOL     OW 4718   5.116   1.147   3.350 -0.2218  0.1538 -0.6167
  396SOL    HW1 4719   5.137   1.241   3.346  1.3984 -0.1061  0.6932
  396SOL    HW2 4720   5.145   1.112   3.266  0.6902  0.5561 -0.4760
  397SOL     OW 4721   8.180  10.696   8.675 -0.1040  0.2673  0.5410
  397SOL    HW1 4722   8.130  10.670   8.752 -0.7381 -0.0863  0.0193
  397SOL    HW2 4723   8.140  10.647   8.603  0.9491  0.0366  0.0971
  398SOL     OW 4724   0.916   9.533   0.214 -0.6083 -0.5285  0.7374
  398SOL    HW1 4725   0.936   9.615   0.170 -1.0713 -0.8036  0.0049
  398SOL    HW2 4726   0.968   9.467   0.167 -1.0095 -0.8060  0.6825
  399SOL     OW 4727   7.235  10.855   0.490  0.1303  0.8488  0.4038
  399SOL    HW1 4728   7.184  10.881   0.413 -1.2578 -0.6912  0.7522
  399SOL    HW2 4729   7.317  10.822   0.454 -0.4336  0.2968 -0.4176
  400SOL     OW 4730   9.688   2.564   4.142 -0.2900  0.7424 -0.5665
  400SOL    HW1 4731   9.702   2.554   4.048  2.7364  0.2868 -0.1677
  400SOL    HW2 4732   9.662   2.478   4.173 -1.3086  0.8989 -0.9693
  401SOL     OW 4733   5.851   2.933   1.424  0.0200 -0.4936 -0.1074
  401SOL    HW1 4734   5.848   2.863   1.490 -3.7821  0.0565  0.5095
  401SOL    HW2 4735   5.788   2.906   1.357  1.2782  0.6156 -1.8246
  402SOL     OW 4736  10.565   8.558   6.046  0.3906  0.3884 -0.2381
  402SOL    HW1 4737  10.649   8.583   6.085  0.6336  0.7865 -1.0003
  402SOL    HW2 4738  10.502   8.569   6.118  0.8180  1.1645  0.0337
  403SOL     OW 4739   6.928   5.264   4.474 -0.5420  0.0870  0.2643
  403SOL    HW1 4740   6.916   5.208   4.551 -0.2644 -0.2201  0.0881
  403SOL    HW2 4741   6.886   5.216   4.403  0.1840 -0.1675 -0.0027
  404SOL     OW 4742   8.826   5.863   5.037 -0.1846  0.1956 -0.5373
  404SOL    HW1 4743   8.809   5.781   4.990  1.2533  0.2018 -1.1085
  404SOL    HW2 4744   8.837   5.836   5.128  0.2361 -0.2616 -0.7164
  405SOL     OW 4745   5.417   1.745   2.173  0.0237  0.0915  0.1726
  405SOL    HW1 4746   5.455   1.785   2.095 -1.3813 -1.0258 -1.1286
  405SOL    HW2 4747   5.453   1.656   2.175 -1.0146 -0.3444 -0.0116
  406SOL     OW 4748   2.335   8.467   6.748 -0.3953  0.2777  0.0820
  406SOL    HW1 4749   2.409   8.476   6.688 -0.5203 -1.0560 -0.3136
  406SOL    HW2 4750   2.259   8.493   6.697 -0.4540 -0.4823 -0.2322
  407SOL     OW 4751  10.734   1.668  10.885  0.6207 -0.0581 -0.0578
  407SOL    HW1 4752  10.805   1.625  10.933  0.7856  0.7592  0.4405
  407SOL    HW2 4753  10.658   1.612  10.900  1.0026 -0.5843 -0.0541
  408SOL     OW 4754   3.813  10.690   5.706 -0.1382  0.0418  0.1095
  408SOL    HW1 4755   3.879  10.638   5.752  1.6795  0.9825 -1.3172
  408SOL    HW2 4756   3.744  10.627   5.685  1.3655 -1.5238 -0.3582
  409SOL     OW 4757   4.757   5.673   1.206  0.0889  0.0316 -0.3165
  409SOL    HW1 4758   4.800   5.716   1.132 -0.6989  2.8834  0.7576
  409SOL    HW2 4759   4.818   5.603   1.231  0.9392 -0.2262 -2.8431
  410SOL     OW 4760   3.643   2.768  10.223 -0.2135 -0.5618  0.1628
  410SOL    HW1 4761   3.639   2.801  10.133  1.3613  0.3947  0.4018
  410SOL    HW2 4762   3.594   2.833  10.274 -0.4106 -0.6697  0.1123
  411SOL     OW 4763   0.291   6.295   8.892 -0.3210  0.4702  0.7766
  411SOL    HW1 4764   0.279   6.390   8.887 -0.2848  0.5264  1.6297
  411SOL    HW2 4765   0.231   6.260   8.826 -1.4620  1.0099  1.4877
  412SOL     OW 4766  10.975   5.140  10.333 -0.1024 -0.0347 -0.3799
  412SOL    HW1 4767  10.992   5.159  10.240  0.5181  0.5087 -0.1646
  412SOL    HW2 4768  11.061   5.115  10.367 -0.3360 -0.2535  0.0494
  413SOL     OW 4769   5.759   4.029   4.415  0.1006  0.1411 -0.2913
  413SOL    HW1 4770   5.801   4.114   4.401  1.4200 -0.0129  2.1526
  413SOL    HW2 4771   5.701   4.043   4.491 -0.0259 -1.0134 -0.1587
  414SOL     OW 4772   3.317   3.979   5.432  0.2795  0.0905 -0.0314
  414SOL    HW1 4773   3.326   3.908   5.369  1.6039 -0.1653  0.4351
  414SOL    HW2 4774   3.359   3.947   5.511  1.3024  1.5440  0.0551
  415SOL     OW 4775   5.185   1.611  10.791  0.1495  0.1534 -0.6587
  415SOL    HW1 4776   5.235   1.535  10.760  0.2555 -0.0039 -0.1011
  415SOL    HW2 4777   5.233   1.641  10.868  0.0986  0.7767 -0.8651
  416SOL     OW 4778   4.233  10.158   9.423  0.2046 -0.6883 -0.2332
  416SOL    HW1 4779   4.308  10.134   9.368  2.1851  0.4009  1.8204
  416SOL    HW2 4780   4.218  10.251   9.404  0.1954 -0.5823  0.2902
  417SOL     OW 4781   2.183   5.625   1.237  0.7167 -0.0961 -0.0334
  417SOL    HW1 4782   2.152   5.684   1.169 -0.2340 -1.0894 -0.4815
  417SOL    HW2 4783   2.238   5.561   1.191  1.1866  0.0264  0.3446
  418SOL     OW 4784   3.360   0.475   4.897  0.5176  0.3188 -0.2650
  418SOL    HW1 4785   3.443   0.465   4.851  0.0844  1.3157 -1.3257
  418SOL    HW2 4786   3.330   0.563   4.872  0.2625  0.9357  1.9463
  419SOL     OW 4787   9.864   5.181   6.970  0.5280  0.8436 -0.5231
  419SOL    HW1 4788   9.938   5.242   6.967 -0.2364  1.7973 -0.6865
  419SOL    HW2 4789   9.819   5.193   6.887  0.2370  0.2057 -0.4638
  420SOL     OW 4790   2.276   0.585   7.984 -0.1445  0.0248  0.5292
  420SOL    HW1 4791   2.214   0.658   7.985 -1.7667 -1.2463 -0.8263
  420SOL    HW2 4792   2.234   0.518   8.038  1.4872  0.1507  2.0469
  421SOL     OW 4793  10.663   1.094   7.692  0.7358 -0.1057  0.4754
  421SOL    HW1 4794  10.683   1.006   7.661  1.9428  0.2644  0.1333
  421SOL    HW2 4795  10.669   1.089   7.787  1.2073 -0.3080  0.4363
  422SOL     OW 4796   5.576   1.218   2.837  0.1590  0.5888 -0.3278
  422SOL    HW1 4797   5.539   1.187   2.919  0.0624 -1.8139 -1.2176
  422SOL    HW2 4798   5.507   1.273   2.799 -0.0691  1.1367  0.8344
  423SOL     OW 4799   5.130   7.583   4.590 -0.3115  0.1736  0.4536
  423SOL    HW1 4800   5.179   7.607   4.668 -0.7980 -1.1419  1.1890
  423SOL    HW2 4801   5.168   7.499   4.563  0.4343  1.0075 -1.2506
  424SOL     OW 4802   3.194   8.097   4.291  0.2989  0.3495 -0.4749
  424SOL    HW1 4803   3.249   8.175   4.292 -0.0727  0.6790 -2.2242
  424SOL    HW2 4804   3.118   8.121   4.239 -0.1401 -0.9706 -0.4891
  425SOL     OW 4805   4.256  10.672   2.468 -0.1747  0.1486  0.6839
  425SOL    HW1 4806   4.184  10.696   2.527 -0.9684  1.1400 -0.6235
  425SOL    HW2 4807   4.229  10.707   2.383  1.6391  0.0952  0.0546
  426SOL     OW 4808   9.280   2.357   9.421 -0.0372 -0.1739  0.2256
  426SOL    HW1 4809   9.274   2.265   9.396  0.9646  0.1075 -1.2137
  426SOL    HW2 4810   9.373   2.377   9.417 -0.4011  1.5663 -2.3381
  427SOL     OW 4811   7.942   3.457   3.629  0.1145 -0.2150  0.0035
  427SOL    HW1 4812   7.919   3.549   3.644  0.1749 -0.2036  0.0252
  427SOL    HW2 4813   7.860   3.416   3.600  0.0867 -0.1557 -0.0003
  428SOL     OW 4814  11.040   5.910   1.042 -0.1798 -0.2379 -0.0534
  428SOL    HW1 4815  10.996   5.868   0.968  0.0063  0.2612 -0.4505
  428SOL    HW2 4816  11.052   5.839   1.106 -0.3714 -0.6636 -0.4836
  429SOL     OW 4817  10.708   5.438   4.099  0.6671  0.1053 -0.4863
  429SOL    HW1 4818  10.715   5.345   4.121  1.6416  0.1927 -0.4175
  429SOL    HW2 4819  10.772   5.451   4.029 -1.7093  0.0314 -2.8496
  430SOL     OW 4820   7.561   8.430   8.360 -0.2723  0.4349  0.0933
  430SOL    HW1 4821   7.587   8.483   8.284  0.6506 -0.0575  0.0455
  430SOL    HW2 4822   7.601   8.474   8.435  1.3089 -0.6692 -0.0480
  431SOL     OW 4823   9.101   5.593   1.590  0.4359 -0.4239  0.3425
  431SOL    HW1 4824   9.181   5.548   1.565  0.2741 -1.2539  1.2608
  431SOL    HW2 4825   9.107   5.601   1.685 -0.8085 -0.9754  0.4815
  432SOL     OW 4826   1.284   8.409   2.824 -0.0716  0.8149 -0.0126
  432SOL    HW1 4827   1.265   8.321   2.857  2.2638  0.5821  0.9144
  432SOL    HW2 4828   1.371   8.429   2.859  1.0798  1.9984 -3.2517
  433SOL     OW 4829   4.221   9.599   9.870 -0.2486  0.4429 -0.2368
  433SOL    HW1 4830   4.260   9.514   9.888 -0.9880  0.4423  1.5462
  433SOL    HW2 4831   4.293   9.661   9.882 -0.1814  0.2344  0.4570
  434SOL     OW 4832   9.580  11.126   2.414  0.0130  0.2236  0.1668
  434SOL    HW1 4833   9.621  11.153   2.332 -0.2957 -1.4604 -0.5968
  434SOL    HW2 4834   9.508  11.069   2.386  0.1118 -0.6562  1.6153
  435SOL     OW 4835   6.658   8.289   7.167 -1.0159 -0.1826 -0.8025
  435SOL    HW1 4836   6.741   8.242   7.180 -1.6313 -1.3424 -0.9263
  435SOL    HW2 4837   6.671   8.338   7.086 -0.2420  0.1067 -0.5067
  436SOL     OW 4838   7.831   5.115   3.446  0.0271 -0.6080  0.4014
  436SOL    HW1 4839   7.919   5.081   3.434 -0.3988 -1.6163 -0.0449
  436SOL    HW2 4840   7.839   5.210   3.437  0.9417 -0.7516 -0.3869
  437SOL     OW 4841   1.768   3.506   7.508  0.2196  0.7943  0.0765
  437SOL    HW1 4842   1.804   3.464   7.586  1.3214  0.6942 -0.4774
  437SOL    HW2 4843   1.838   3.564   7.477  0.1758  0.0803 -1.4192
  438SOL     OW 4844   5.581   2.344   8.492  0.8273  0.0420 -0.0763
  438SOL    HW1 4845   5.665   2.378   8.523 -0.3136  2.3848  0.7076
  438SOL    HW2 4846   5.593   2.250   8.487  2.6967  0.0197  2.6748
  439SOL     OW 4847   3.598   7.072   4.933 -0.1043  0.0985 -0.0913
  439SOL    HW1 4848   3.655   6.995   4.932  1.9102  1.4992  0.4377
  439SOL    HW2 4849   3.657   7.146   4.948 -1.8332  1.8883 -1.5281
  440SOL     OW 4850   2.668  10.611   2.065 -0.0138  0.3666  0.2043
  440SOL    HW1 4851   2.655  10.594   2.159  1.9655 -0.8109  0.3318
  440SOL    HW2 4852   2.617  10.544   2.021 -2.0809  1.7604  0.3352
  441SOL     OW 4853   0.519   6.524   1.133 -0.4358 -0.5049 -0.9599
  441SOL    HW1 4854   0.439   6.571   1.110 -0.5338 -1.5137 -2.8472
  441SOL    HW2 4855   0.489   6.439   1.164 -0.1920  0.1381  1.2150
  442SOL     OW 4856   0.188   1.363   0.241  0.5553  0.1020 -0.4561
  442SOL    HW1 4857   0.159   1.272   0.230  0.4042  0.1005 -0.0565
  442SOL    HW2 4858   0.171   1.382   0.333  2.5423 -0.1566  0.0213
  443SOL     OW 4859   7.176   4.902   8.999 -0.1120  0.0985  0.4205
  443SOL    HW1 4860   7.141   4.816   9.022 -0.4508  0.2631  0.5244
  443SOL    HW2 4861   7.166   4.907   8.903  2.2736 -1.0200  0.0480
  444SOL     OW 4862   3.924   0.770   8.162 -0.0119  0.1816 -0.1563
  444SOL    HW1 4863   3.858   0.700   8.161 -0.1009  0.2741 -1.1477
  444SOL    HW2 4864   3.875   0.847   8.191 -0.5438  0.4284 -1.6431
  445SOL     OW 4865   4.999  10.216   6.332  0.1667 -0.7851  0.0727
  445SOL    HW1 4866   4.950  10.247   6.255 -1.3491 -0.5047  1.0927
  445SOL    HW2 4867   5.052  10.143   6.299 -0.5936 -0.7967 -1.2023
  446SOL     OW 4868   3.085   2.467   9.235  0.6138 -0.5312 -0.3751
  446SOL    HW1 4869   3.063   2.392   9.290  1.1680  0.5703  1.3956
  446SOL    HW2 4870   3.015   2.530   9.251  1.6212  0.4360  0.3470
  447SOL     OW 4871   7.927   7.316   1.603  0.0123 -0.2333 -0.1134
  447SOL    HW1 4872   7.959   7.231   1.573 -0.3531 -0.1781 -0.6841
  447SOL    HW2 4873   7.868   7.296   1.675 -1.2521 -0.6008 -1.2092
  448SOL     OW 4874  10.042   6.074   2.993  0.3000  0.4296 -0.2630
  448SOL    HW1 4875  10.050   5.994   2.941 -1.2050  0.1406 -0.1034
  448SOL    HW2 4876   9.986   6.131   2.941  1.2036  1.3136 -0.2840
  449SOL     OW 4877   2.896  10.403   5.669  0.1745  0.1362  0.3728
  449SOL    HW1 4878   2.985  10.437   5.662 -0.4487  1.6094 -0.9135
  449SOL    HW2 4879   2.883  10.389   5.762  2.5512 -2.4570  0.4656
  450SOL     OW 4880   3.850   5.732   0.605 -0.0723 -0.5619  0.2791
  450SOL    HW1 4881   3.873   5.756   0.515 -0.4095  1.4269  0.6820
  450SOL    HW2 4882   3.754   5.728   0.604 -0.2155  1.7341  1.0392
  451SOL     OW 4883  10.709  10.985   5.833 -0.0842  0.0950 -0.1872
  451SOL    HW1 4884  10.677  11.045   5.766  0.8574  1.1718  0.2833
  451SOL    HW2 4885  10.634  10.969   5.890 -0.2616  1.1249 -0.1211
  452SOL     OW 4886   0.856   3.335   1.048  0.1091 -0.4052 -0.1907
  452SOL    HW1 4887   0.778   3.308   0.998 -0.9529  1.0552  0.6091
  452SOL    HW2 4888   0.847   3.289   1.132  1.6454 -2.4820 -1.0875
  453SOL     OW 4889   8.086   7.936   3.560 -0.1330  0.2411  0.3591
  453SOL    HW1 4890   8.136   7.854   3.553  0.4655  0.5741  0.6026
  453SOL    HW2 4891   8.147   7.997   3.603 -0.7409  0.6728  0.6248
  454SOL     OW 4892   7.048   5.035   9.539 -0.2717  0.0367 -0.0439
  454SOL    HW1 4893   7.050   5.130   9.537 -1.1555  0.0547 -0.3012
  454SOL    HW2 4894   7.001   5.010   9.459  2.1108 -0.6983 -1.3188
  455SOL     OW 4895   4.570   1.184   3.411 -0.0708 -0.2138 -0.1762
  455SOL    HW1 4896   4.654   1.164   3.453 -0.4404 -0.3711  0.5141
  455SOL    HW2 4897   4.567   1.128   3.334  1.2602  1.1235 -1.2543
  456SOL     OW 4898   6.392  11.018   0.574  0.4995  0.3117 -0.6737
  456SOL    HW1 4899   6.450  11.073   0.627  0.6521 -0.0409 -0.4623
  456SOL    HW2 4900   6.445  10.994   0.498  1.3557 -1.5685  0.4229
  457SOL     OW 4901   2.396   5.215   1.768 -0.2457 -0.6618 -0.6778
  457SOL    HW1 4902   2.308   5.225   1.732 -0.7800  0.1871  0.7676
  457SOL    HW2 4903   2.396   5.128   1.807 -0.7351 -0.3641  0.0132
  458SOL     OW 4904   9.657   3.974  10.572  0.2003 -0.1134 -0.4325
  458SOL    HW1 4905   9.706   4.001  10.650 -0.9730 -1.2780  0.7750
  458SOL    HW2 4906   9.567   4.003  10.590  0.3906  2.3407 -2.7533
  459SOL     OW 4907   9.374   5.104  10.453 -0.0699 -0.8490  0.4691
  459SOL    HW1 4908   9.411   5.033  10.506  1.0818 -0.9213 -0.3803
  459SOL    HW2 4909   9.288   5.072  10.426  0.5393 -2.0548 -0.1235
  460SOL     OW 4910   3.210   1.367   1.550 -0.5960 -0.4224  0.0469
  460SOL    HW1 4911   3.168   1.433   1.495 -0.2241 -0.3380 -0.1383
  460SOL    HW2 4912   3.149   1.294   1.551 -0.2001 -0.7988 -1.2402
  461SOL     OW 4913   1.586   4.513   3.916  0.6719 -0.1280  0.1308
  461SOL    HW1 4914   1.674   4.549   3.907  0.3557  0.8326  0.8251
  461SOL    HW2 4915   1.586   4.436   3.859  1.4189  0.8379 -1.2148
  462SOL     OW 4916   5.627   4.201   8.713 -0.5204  0.1597 -0.6580
  462SOL    HW1 4917   5.548   4.254   8.710  0.0378  1.0395 -0.1121
  462SOL    HW2 4918   5.597   4.112   8.692 -1.6313  0.4947 -0.5367
  463SOL     OW 4919   2.014   2.123  10.663 -0.3038 -0.1077 -0.6129
  463SOL    HW1 4920   1.976   2.117  10.751 -4.2854  4.1080 -1.6361
  463SOL    HW2 4921   2.094   2.173  10.676  0.1326 -1.0740  0.7273
  464SOL     OW 4922  10.503   8.692   1.355  0.5176  0.0201  0.3142
  464SOL    HW1 4923  10.428   8.740   1.319  0.9872  0.6717  0.1851
  464SOL    HW2 4924  10.538   8.750   1.423  0.7599 -0.3843  0.5323
  465SOL     OW 4925   1.489   9.496   7.882  0.1584  0.0184 -0.2102
  465SOL    HW1 4926   1.554   9.526   7.946 -0.5745  0.3177  0.4124
  465SOL    HW2 4927   1.417   9.558   7.891 -0.3078 -0.4396 -0.7421
  466SOL     OW 4928   4.551   3.518   2.736  0.1862 -0.0978 -0.0510
  466SOL    HW1 4929   4.609   3.524   2.660  0.1707  0.6376 -0.0200
  466SOL    HW2 4930   4.574   3.435   2.778 -0.1737 -0.7669 -1.1449
  467SOL     OW 4931   0.789   0.293  11.031  0.4214 -0.4062 -0.6278
  467SOL    HW1 4932   0.707   0.329  11.065  0.9389 -0.7392  1.1141
  467SOL    HW2 4933   0.857   0.343  11.075  1.1574 -0.7674 -1.3284
  468SOL     OW 4934   0.497   0.773   2.818 -0.2739 -0.3829 -0.4030
  468SOL    HW1 4935   0.492   0.688   2.773 -3.9065 -0.4005 -0.3032
  468SOL    HW2 4936   0.458   0.835   2.755  0.3307  0.7993  0.3632
  469SOL     OW 4937   9.078   8.768   1.531 -0.3225 -0.7090  0.2512
  469SOL    HW1 4938   9.025   8.772   1.611 -1.1165 -1.4801 -0.2293
  469SOL    HW2 4939   9.018   8.795   1.462  0.6396  0.9703  0.0212
  470SOL     OW 4940   3.248   8.682   6.543  0.4248  0.2280 -0.0382
  470SOL    HW1 4941   3.193   8.705   6.618  0.0568 -0.7185 -0.0104
  470SOL    HW2 4942   3.294   8.603   6.570  1.4025  0.7066 -0.2686
  471SOL     OW 4943   3.264   6.808   7.387 -0.1086 -0.0649  0.0846
  471SOL    HW1 4944   3.322   6.858   7.446 -0.1702  1.1490 -0.8388
  471SOL    HW2 4945   3.176   6.825   7.421 -0.0205 -0.9268  0.7678
  472SOL     OW 4946   5.938   5.886   9.042  0.5830 -0.0347 -0.1407
  472SOL    HW1 4947   5.853   5.929   9.030 -0.1586 -1.7870 -1.5440
  472SOL    HW2 4948   5.933   5.847   9.130 -0.4059 -0.7822 -0.5056
  473SOL     OW 4949   6.756   6.612   4.357  0.4962 -0.1813 -0.1008
  473SOL    HW1 4950   6.720   6.668   4.425  0.5857 -2.7112  2.1845
  473SOL    HW2 4951   6.851   6.613   4.373  0.5728 -0.4020 -0.5254
  474SOL     OW 4952  11.112   8.942   4.101 -0.3154 -0.0008  0.0880
  474SOL    HW1 4953  11.204   8.915   4.101 -0.1595  0.4431 -1.3528
  474SOL    HW2 4954  11.079   8.916   4.188  1.7832  1.9965  1.6083
  475SOL     OW 4955   8.090  10.830   6.627  0.0100  0.0247  0.0236
  475SOL    HW1 4956   8.050  10.902   6.675 -0.3497 -0.7385  0.8994
  475SOL    HW2 4957   8.018  10.788   6.581  0.4929  1.4701 -2.2738
  476SOL     OW 4958   4.188   4.371  11.103 -0.1891 -0.2554 -0.0835
  476SOL    HW1 4959   4.194   4.429  11.027  0.0854  0.8035  0.7369
  476SOL    HW2 4960   4.095   4.348  11.107  0.1444 -2.4212 -2.2433
  477SOL     OW 4961   3.945   6.944   9.167 -0.0226  0.0070  0.2121
  477SOL    HW1 4962   3.941   6.871   9.106  0.7604  0.2486 -0.1388
  477SOL    HW2 4963   3.868   6.997   9.147  0.5244  0.3892 -0.9648
  478SOL     OW 4964   3.883   9.326   2.179 -0.2410 -0.1939 -0.1523
  478SOL    HW1 4965   3.949   9.257   2.175 -0.2501 -0.1342 -1.8991
  478SOL    HW2 4966   3.934   9.407   2.183 -0.2275 -0.2202  0.2656
  479SOL     OW 4967   6.649   6.954   4.733 -0.5926  0.5490  0.4038
  479SOL    HW1 4968   6.704   6.895   4.680 -2.5848 -1.5584  0.5178
  479SOL    HW2 4969   6.606   7.010   4.668 -0.0083  0.6963  0.1348
  480SOL     OW 4970   8.312   0.868   5.798 -0.0599  0.3827  0.1841
  480SOL    HW1 4971   8.371   0.795   5.779 -0.7024 -0.0400 -0.2011
  480SOL    HW2 4972   8.250   0.833   5.862 -1.0406  0.2533 -0.8237
  481SOL     OW 4973   1.257   2.707   0.868 -0.2696  0.3389  0.6597
  481SOL    HW1 4974   1.303   2.634   0.828  0.3861  0.2364  1.5592
  481SOL    HW2 4975   1.200   2.667   0.934 -1.5527  0.4805 -0.3270
  482SOL     OW 4976   7.127   6.277  10.176  0.2410 -0.5688  0.2085
  482SOL    HW1 4977   7.041   6.311  10.202 -0.2856 -1.4587 -0.3435
  482SOL    HW2 4978   7.110   6.190  10.140  0.8975  0.5330 -3.1278
  483SOL     OW 4979   8.666   1.524   1.382  0.3539  0.0167 -0.7597
  483SOL    HW1 4980   8.738   1.562   1.330  0.4944  1.1583  0.2164
  483SOL    HW2 4981   8.710   1.486   1.459  0.2010 -2.0967 -1.6497
  484SOL     OW 4982   9.627   0.298   2.160 -0.0874 -0.0522 -0.6592
  484SOL    HW1 4983   9.562   0.349   2.113 -0.8378  3.0830  3.2307
  484SOL    HW2 4984   9.704   0.355   2.164 -0.7517  0.8603  3.3306
  485SOL     OW 4985   1.639   8.135   5.543  0.4258  0.1984  0.7606
  485SOL    HW1 4986   1.555   8.089   5.545 -1.6312  3.5584  0.3997
  485SOL    HW2 4987   1.668   8.135   5.634 -0.7734  0.2718  1.1668
  486SOL     OW 4988   0.508   6.799   2.884 -0.0330 -0.0204  0.6396
  486SOL    HW1 4989   0.453   6.735   2.929 -0.9501  0.8662  0.7993
  486SOL    HW2 4990   0.508   6.876   2.940  0.6278  0.3248  0.1903
  487SOL     OW 4991   1.066   4.598   9.256  0.2095 -0.2452  1.2427
  487SOL    HW1 4992   1.107   4.620   9.339 -0.6957 -0.7082  1.8193
  487SOL    HW2 4993   1.057   4.682   9.211  0.7004  0.0049  1.6019
  488SOL     OW 4994   8.739   5.483   5.283  0.2231 -0.2476  0.2365
  488SOL    HW1 4995   8.741   5.577   5.265  1.3898 -0.6565 -2.1632
  488SOL    HW2 4996   8.821   5.466   5.330 -0.8247  0.1484  2.3293
  489SOL     OW 4997  10.185   6.845   9.257  0.3326  0.4030 -0.5551
  489SOL    HW1 4998  10.124   6.820   9.187 -0.3348 -1.2889  0.5531
  489SOL    HW2 4999  10.202   6.938   9.242 -0.8618  0.4198 -2.1373
  490SOL     OW 5000   6.206   6.627   5.774 -0.6867 -0.1144 -0.2088
  490SOL    HW1 5001   6.234   6.567   5.705  0.4113 -0.4008  0.4702
  490SOL    HW2 5002   6.247   6.593   5.853 -1.3172  0.6521  0.4619
  491SOL     OW 5003   4.880   4.558   1.992 -0.5335  0.0498 -0.6253
  491SOL    HW1 5004   4.973   4.539   1.983 -0.2712  1.0025 -0.1046
  491SOL    HW2 5005   4.845   4.485   2.043  0.3428  0.6953  0.9562
  492SOL     OW 5006   3.051   9.671   3.908  0.3393  0.5625 -0.6241
  492SOL    HW1 5007   3.078   9.759   3.880  0.8922  0.2759 -0.9948
  492SOL    HW2 5008   2.958   9.680   3.927  0.1703  0.9959 -1.6113
  493SOL     OW 5009  10.915   4.397   3.056  0.0402  0.3207  0.1279
  493SOL    HW1 5010  10.838   4.425   3.008 -0.9739 -1.4892  0.6300
  493SOL    HW2 5011  10.906   4.437   3.142  0.4641  1.3314 -0.2783
  494SOL     OW 5012   5.025   3.929   6.314  0.0366  0.0442 -0.2408
  494SOL    HW1 5013   5.051   3.955   6.402  0.8484 -1.5499  0.0244
  494SOL    HW2 5014   5.079   3.983   6.256  1.9967 -1.2438  0.2940
  495SOL     OW 5015   8.854   3.985   7.792  0.4994 -0.0316  0.2389
  495SOL    HW1 5016   8.803   3.919   7.745 -1.4872  0.7794  1.1342
  495SOL    HW2 5017   8.791   4.028   7.850  2.2081  1.0925  1.3838
  496SOL     OW 5018   7.632  10.563   7.191  0.1938 -0.8125  0.0785
  496SOL    HW1 5019   7.652  10.537   7.282 -1.3810 -0.3475  0.5824
  496SOL    HW2 5020   7.575  10.493   7.159 -0.3705 -0.2833 -0.0840
  497SOL     OW 5021   8.112   3.680   8.911 -0.1853  0.2034  0.4981
  497SOL    HW1 5022   8.078   3.594   8.889  1.5961 -0.1735 -1.0225
  497SOL    HW2 5023   8.035   3.737   8.910 -0.9008 -0.6384 -2.6123
  498SOL     OW 5024  11.067   1.350   3.127  0.8225  0.4661  0.3553
  498SOL    HW1 5025  10.997   1.288   3.111  0.4081  1.3470 -1.4587
  498SOL    HW2 5026  11.145   1.309   3.090  0.7292  0.6364 -0.0293
  499SOL     OW 5027   6.530   1.342   4.148  0.4721  0.1684  0.5612
  499SOL    HW1 5028   6.617   1.356   4.185  0.3938  2.1675  0.0767
  499SOL    HW2 5029   6.470   1.380   4.212  0.2625  2.5770 -0.9530
  500SOL     OW 5030  10.336   6.821   1.900 -0.0340  0.6932  0.0376
  500SOL    HW1 5031  10.320   6.909   1.934 -0.0787  0.1895  1.3570
  500SOL    HW2 5032  10.263   6.769   1.933 -0.4232  0.3029 -1.3655
  501SOL     OW 5033   1.926   1.710   4.591 -1.1524  0.0800  0.0104
  501SOL    HW1 5034   1.897   1.642   4.652 -0.7285  1.0530  1.3509
  501SOL    HW2 5035   1.949   1.784   4.647  0.9013  0.4393 -1.2058
  502SOL     OW 5036  10.612   8.871  10.583  0.5305  0.0677 -0.3813
  502SOL    HW1 5037  10.525   8.891  10.548  0.2812  2.3265  1.2846
  502SOL    HW2 5038  10.604   8.782  10.617 -0.9915  0.0280 -0.7479
  503SOL     OW 5039   1.691   9.411   9.528  0.7692 -0.2340  0.4795
  503SOL    HW1 5040   1.632   9.480   9.498  0.7331 -0.1826  0.6667
  503SOL    HW2 5041   1.741   9.452   9.599  0.4414 -0.5277  0.8857
  504SOL     OW 5042   5.597   6.950   4.038  0.3654 -0.0839 -0.2327
  504SOL    HW1 5043   5.602   6.925   3.946 -0.5183 -1.0333 -0.0481
  504SOL    HW2 5044   5.683   6.987   4.058  0.1833  1.2667 -1.7418
  505SOL     OW 5045   4.816   4.615   7.316  0.1463  0.1370 -0.6354
  505SOL    HW1 5046   4.880   4.618   7.387  1.0984  0.4605 -1.4929
  505SOL    HW2 5047   4.798   4.522   7.304 -1.7384  0.1162  1.4953
  506SOL     OW 5048   6.858   5.530   3.346 -0.2657 -0.6302  0.1754
  506SOL    HW1 5049   6.900   5.615   3.361  0.4264 -1.2947  2.4530
  506SOL    HW2 5050   6.891   5.502   3.261 -1.7953  2.0430 -1.4429
  507SOL     OW 5051   0.756   7.348   1.525  0.1622 -0.0541  0.3046
  507SOL    HW1 5052   0.813   7.373   1.453  2.6427 -0.9965  1.8256
  507SOL    HW2 5053   0.752   7.252   1.521  0.6861 -0.1539  1.6251
  508SOL     OW 5054   8.376   1.259   6.587  0.0149  0.0081 -0.2442
  508SOL    HW1 5055   8.325   1.225   6.514 -1.0488 -0.0023  0.4861
  508SOL    HW2 5056   8.431   1.327   6.548 -0.7741  0.2287 -0.9973
  509SOL     OW 5057   5.321   8.953  10.816  0.1468  0.5033  0.2967
  509SOL    HW1 5058   5.322   9.047  10.833  1.2219  0.3767  0.9785
  509SOL    HW2 5059   5.299   8.946  10.723  1.0647  1.4646 -0.0129
  510SOL     OW 5060   8.603   5.986   4.055  0.3049 -0.0674 -0.5094
  510SOL    HW1 5061   8.545   6.002   4.129  0.4620  0.6736 -0.5443
  510SOL    HW2 5062   8.556   6.020   3.979  0.0411 -1.0361 -0.8040
  511SOL     OW 5063  11.054   0.397   3.100 -0.0117 -0.4470 -0.1120
  511SOL    HW1 5064  11.097   0.441   3.027  1.3251 -1.7428 -0.1640
  511SOL    HW2 5065  11.056   0.460   3.171 -0.0756  0.3298 -0.7905
  512SOL     OW 5066   9.449   9.161   6.919  0.9057  0.2804 -0.2756
  512SOL    HW1 5067   9.377   9.217   6.948 -0.5082 -1.2480 -0.6428
  512SOL    HW2 5068   9.528   9.209   6.941 -0.1933  1.2905  1.6846
  513SOL     OW 5069   0.523  10.144   6.743  0.1321  0.5331  0.3114
  513SOL    HW1 5070   0.518  10.127   6.649 -0.8316  0.4931  0.3647
  513SOL    HW2 5071   0.557  10.063   6.781 -0.0929  0.3238  0.0674
  514SOL     OW 5072   2.113   4.551   3.640  0.1073 -0.0746  0.0551
  514SOL    HW1 5073   2.032   4.561   3.689 -0.4805  0.9881 -1.0664
  514SOL    HW2 5074   2.121   4.633   3.591  0.1194 -1.4406 -2.3946
  515SOL     OW 5075   7.734   0.006   4.290  0.3510 -0.3202 -0.0275
  515SOL    HW1 5076   7.823   0.037   4.307 -0.0287  0.4259  0.6610
  515SOL    HW2 5077   7.678   0.081   4.311 -0.6340 -1.5548  2.0076
  516SOL     OW 5078  11.085   9.365   3.262 -0.0038 -0.3418  0.0977
  516SOL    HW1 5079  11.088   9.317   3.345 -3.3728  1.3734  1.3801
  516SOL    HW2 5080  11.091   9.457   3.287 -5.5166  0.5696 -0.8218
  517SOL     OW 5081   3.851   9.506   5.413  0.3187 -0.2501 -0.5851
  517SOL    HW1 5082   3.790   9.533   5.482  0.9297 -0.9719  0.2618
  517SOL    HW2 5083   3.928   9.474   5.460  0.8035 -0.6352 -1.6094
  518SOL     OW 5084   0.039  10.953   6.657  0.5020  0.2802 -0.3723
  518SOL    HW1 5085   0.041  10.858   6.668  1.4899  0.4041  0.6614
  518SOL    HW2 5086  -0.034  10.968   6.597 -0.7102 -1.0030  0.7077
  519SOL     OW 5087   2.198   9.094   9.987 -0.4156  0.2412 -0.1829
  519SOL    HW1 5088   2.153   9.024  10.035  0.2488  0.2996  0.5372
  519SOL    HW2 5089   2.219   9.055   9.902 -0.2085 -0.3752  0.1489
  520SOL     OW 5090   3.878   4.395   0.614 -0.7419 -0.6402 -0.2045
  520SOL    HW1 5091   3.788   4.389   0.644 -0.5574  0.0592  0.5139
  520SOL    HW2 5092   3.921   4.318   0.651 -0.8465 -0.5278  0.1524
  521SOL     OW 5093   4.862   6.070  10.966  0.2707 -0.0109  0.3140
  521SOL    HW1 5094   4.912   6.017  10.904  0.6236 -0.7564  1.1985
  521SOL    HW2 5095   4.915   6.148  10.979  2.2300 -1.5752  2.6197
  522SOL     OW 5096   6.823   6.603   9.588 -0.5981 -0.3196  0.0258
  522SOL    HW1 5097   6.847   6.593   9.496 -1.5378 -0.8798 -0.1674
  522SOL    HW2 5098   6.799   6.515   9.617 -1.3356  0.0276  0.5055
  523SOL     OW 5099   0.421   1.890   9.210  0.2326 -0.3852  0.1334
  523SOL    HW1 5100   0.514   1.875   9.225  0.3980  0.8904  0.5312
  523SOL    HW2 5101   0.416   1.982   9.185 -1.0371 -0.1359  1.2185
  524SOL     OW 5102   9.607   6.635   3.974 -0.6237 -0.3155  0.2246
  524SOL    HW1 5103   9.563   6.554   3.947 -1.5664 -0.4228  1.9252
  524SOL    HW2 5104   9.536   6.693   4.000  0.0885  0.7933 -0.2463
  525SOL     OW 5105   3.836   7.007   2.649  0.2892 -0.1461 -0.4540
  525SOL    HW1 5106   3.861   6.997   2.741  0.3439  0.5977 -0.3819
  525SOL    HW2 5107   3.767   7.074   2.650  0.4988  0.0812 -0.9805
  526SOL     OW 5108   7.183   6.409   1.168 -0.6668  0.4332 -0.4139
  526SOL    HW1 5109   7.161   6.318   1.147 -1.7242 -0.0739  2.3905
  526SOL    HW2 5110   7.115   6.461   1.124 -1.7242 -0.3905  0.1938
  527SOL     OW 5111   0.215   7.788  10.665 -0.4380  0.4394  0.2123
  527SOL    HW1 5112   0.128   7.755  10.688 -0.7179 -0.5215 -1.9866
  527SOL    HW2 5113   0.199   7.877  10.632 -1.0082 -0.5215 -2.3630
  528SOL     OW 5114  10.318   1.408   3.163  0.3531 -0.4806 -0.4636
  528SOL    HW1 5115  10.354   1.426   3.076  1.1357  2.0521  0.3183
  528SOL    HW2 5116  10.251   1.475   3.176  0.7407 -0.3761  1.1760
  529SOL     OW 5117   8.951   3.425   9.717 -0.3050 -0.1533 -0.1651
  529SOL    HW1 5118   8.937   3.470   9.801 -0.0028  0.6447 -0.5344
  529SOL    HW2 5119   9.045   3.408   9.714 -0.1478  0.7865 -0.8178
  530SOL     OW 5120   2.538   0.153   3.436  0.0186 -0.0211  0.0457
  530SOL    HW1 5121   2.579   0.075   3.471 -0.4142 -0.5365 -0.5608
  530SOL    HW2 5122   2.564   0.155   3.344 -1.1712 -0.2960 -0.3248
  531SOL     OW 5123  10.296   6.985   3.065  0.3674  0.2058 -0.0598
  531SOL    HW1 5124  10.320   6.907   3.014 -2.6255 -0.8401 -0.0978
  531SOL    HW2 5125  10.201   6.976   3.078  0.0415  3.5095  0.5816
  532SOL     OW 5126   8.036   2.835   2.416  0.1505 -0.2182 -0.1050
  532SOL    HW1 5127   7.980   2.777   2.365 -0.0498 -0.3378  0.2439
  532SOL    HW2 5128   7.996   2.837   2.503  0.3188  0.2134 -0.0306
  533SOL     OW 5129   4.473   5.552   3.078  0.8934 -0.4974 -0.3967
  533SOL    HW1 5130   4.448   5.491   3.148  3.5739 -0.8343  0.3686
  533SOL    HW2 5131   4.476   5.638   3.121  0.3222 -0.3294 -0.6819
  534SOL     OW 5132   9.016   4.955   0.384  0.5360  0.3751  0.2370
  534SOL    HW1 5133   8.977   4.878   0.343 -1.5138  1.5788 -0.2326
  534SOL    HW2 5134   9.010   4.939   0.478 -1.0734  0.4679  0.1749
  535SOL     OW 5135   0.780  10.024   8.809  0.2421 -0.1872  0.5699
  535SOL    HW1 5136   0.807  10.054   8.895  3.3160  0.9946 -0.6929
  535SOL    HW2 5137   0.817   9.936   8.802  1.2763  0.2804 -0.0451
  536SOL     OW 5138   6.782   0.998   7.216  0.1779  0.3311 -0.5377
  536SOL    HW1 5139   6.734   0.932   7.166 -0.8949  0.2609  0.5454
  536SOL    HW2 5140   6.735   1.080   7.199  0.3419  0.4642 -0.3571
  537SOL     OW 5141  11.040   9.042  10.289  0.0595 -0.1480 -0.1332
  537SOL    HW1 5142  10.984   9.010  10.359  0.1268  2.8485  1.4619
  537SOL    HW2 5143  11.128   9.016  10.314 -0.0214  0.1066  0.4266
  538SOL     OW 5144   3.705   8.712   6.180 -0.4421 -0.4433  0.1109
  538SOL    HW1 5145   3.778   8.773   6.176  1.1311 -2.2668 -1.6606
  538SOL    HW2 5146   3.714   8.669   6.265 -0.7287  0.7982  0.7750
  539SOL     OW 5147   6.122   5.778   3.998 -0.1377  0.3441 -0.1521
  539SOL    HW1 5148   6.058   5.763   3.928 -2.1192 -1.0435  1.8217
  539SOL    HW2 5149   6.184   5.706   3.990 -0.3484  0.1961 -0.4728
  540SOL     OW 5150   6.519   5.352  10.272  0.3997 -0.0263  0.9895
  540SOL    HW1 5151   6.478   5.373  10.189 -0.1315  1.9203  1.6935
  540SOL    HW2 5152   6.605   5.318  10.248  0.1755  0.2972 -0.3524
  541SOL     OW 5153   5.221   7.381   9.315  0.3362  0.3738  0.1656
  541SOL    HW1 5154   5.239   7.298   9.358  0.9403  0.2234 -0.3559
  541SOL    HW2 5155   5.237   7.364   9.222 -0.6475  0.7708 -0.0935
  542SOL     OW 5156   8.416  11.072  10.812  0.1562 -0.8659 -0.5701
  542SOL    HW1 5157   8.402  11.138  10.744  0.4838 -0.1022  0.0807
  542SOL    HW2 5158   8.377  10.992  10.777 -1.3421 -0.0376 -0.8892
  543SOL     OW 5159   0.822   8.660   2.634 -0.3125  0.5062  0.2447
  543SOL    HW1 5160   0.787   8.573   2.611 -0.3870  0.3589  0.8781
  543SOL    HW2 5161   0.744   8.711   2.658 -0.3876  1.1074 -1.2144
  544SOL     OW 5162   0.299   1.412   7.909  0.8987  0.6493  0.1332
  544SOL    HW1 5163   0.204   1.406   7.917  0.9230  0.9720  0.6660
  544SOL    HW2 5164   0.326   1.474   7.976  1.4267  1.0366 -0.4174
  545SOL     OW 5165   9.903   5.238   0.921 -0.2350 -0.1911 -0.2787
  545SOL    HW1 5166   9.998   5.241   0.931 -0.2467  0.7684 -0.4239
  545SOL    HW2 5167   9.869   5.272   1.003 -0.4187  1.0640 -0.8542
  546SOL     OW 5168   5.255   9.328  11.082  0.3151 -0.3454  0.3864
  546SOL    HW1 5169   5.177   9.345  11.135 -0.6755 -4.1152  0.4816
  546SOL    HW2 5170   5.328   9.351  11.139 -0.6787  1.8961  0.8462
  547SOL     OW 5171  10.951   5.748   0.844  0.0488  0.4731 -0.1477
  547SOL    HW1 5172  10.896   5.777   0.771  1.0619  0.0290 -1.1127
  547SOL    HW2 5173  10.898   5.682   0.889  0.0400 -0.4789 -1.4989
  548SOL     OW 5174   7.582   4.571   7.515  0.4589 -0.0847 -0.3063
  548SOL    HW1 5175   7.606   4.626   7.590 -1.0475 -0.1749  0.2726
  548SOL    HW2 5176   7.492   4.596   7.495 -0.9560 -3.5022  1.0652
  549SOL     OW 5177   9.745   9.594   8.555 -0.3476 -0.3978 -0.1591
  549SOL    HW1 5178   9.754   9.689   8.548 -0.4573 -0.2352  1.5278
  549SOL    HW2 5179   9.730   9.578   8.648 -1.5779 -1.9832 -0.5876
  550SOL     OW 5180   9.203   3.289   1.384 -0.0938  0.0482 -0.1762
  550SOL    HW1 5181   9.139   3.358   1.401 -0.0110  0.1697 -0.3554
  550SOL    HW2 5182   9.151   3.212   1.363 -0.1747  0.4664 -1.6023
  551SOL     OW 5183  11.058   5.979   7.342 -0.2035  0.2618 -0.1454
  551SOL    HW1 5184  11.124   5.912   7.322  0.5695  1.1022 -0.4891
  551SOL    HW2 5185  10.979   5.929   7.364  0.2579 -0.7601 -0.7197
  552SOL     OW 5186   4.856   1.738  10.249  0.1087  0.2168 -0.1250
  552SOL    HW1 5187   4.820   1.819  10.213 -1.3869  0.7966  2.4128
  552SOL    HW2 5188   4.779   1.691  10.283  0.9800 -2.1059 -1.1550
  553SOL     OW 5189  10.688   8.910   6.175  0.0158  0.5023 -0.7757
  553SOL    HW1 5190  10.623   8.894   6.108  0.7740  0.3131 -1.4808
  553SOL    HW2 5191  10.668   8.998   6.209 -0.0446  0.8246 -1.6309
  554SOL     OW 5192   7.211   5.243   2.104 -0.2883  0.5809  0.6797
  554SOL    HW1 5193   7.277   5.270   2.169 -0.7396 -0.9532  1.8322
  554SOL    HW2 5194   7.251   5.264   2.020  1.0722  1.0082  1.3935
  555SOL     OW 5195   5.447   7.132   7.685  0.3200 -0.1164  0.0120
  555SOL    HW1 5196   5.482   7.136   7.774  0.7666 -1.4768 -0.0776
  555SOL    HW2 5197   5.523   7.115   7.630 -0.0521  0.0119 -0.5492
  556SOL     OW 5198   4.889   5.747   9.296 -0.4544  0.3014 -0.5648
  556SOL    HW1 5199   4.806   5.706   9.272 -1.0763  1.8328 -1.1348
  556SOL    HW2 5200   4.883   5.761   9.391 -0.6962  0.1033 -0.5522
  557SOL     OW 5201   0.868   7.122   5.594  0.1017 -0.1162  0.1297
  557SOL    HW1 5202   0.901   7.081   5.674  2.4808 -0.7818 -1.1269
  557SOL    HW2 5203   0.849   7.212   5.620  0.2444 -0.4695  1.5689
  558SOL     OW 5204  10.245   9.373   9.435 -0.3666 -0.1785 -0.2399
  558SOL    HW1 5205  10.239   9.315   9.511  0.8494 -2.3850 -1.6968
  558SOL    HW2 5206  10.203   9.324   9.365  0.0665  1.0369 -1.3763
  559SOL     OW 5207   0.169   7.961   0.332  0.0578 -0.4952  0.2894
  559SOL    HW1 5208   0.182   7.957   0.427 -0.7609  0.7345  0.4796
  559SOL    HW2 5209   0.103   8.030   0.320  0.4355 -0.3597 -1.1989
  560SOL     OW 5210   4.030  10.545   9.134 -0.4489  0.3977 -0.4856
  560SOL    HW1 5211   3.974  10.608   9.179  1.1214  1.5927 -0.1135
  560SOL    HW2 5212   4.096  10.599   9.090 -0.2053 -0.9007 -1.7765
  561SOL     OW 5213   0.662   1.462  10.861 -0.6105  0.1735  0.6434
  561SOL    HW1 5214   0.700   1.496  10.780  0.2852  0.8587  1.3257
  561SOL    HW2 5215   0.607   1.389  10.834 -1.1085  1.0193 -0.6772
  562SOL     OW 5216  10.326   1.875   1.379 -0.9137 -0.1749  0.4367
  562SOL    HW1 5217  10.310   1.782   1.395 -1.0376 -0.3099 -0.4048
  562SOL    HW2 5218  10.365   1.907   1.460  0.2108 -1.2255  0.3411
  563SOL     OW 5219   1.641   5.525  10.362 -0.1089  0.3521 -0.2997
  563SOL    HW1 5220   1.680   5.548  10.278 -0.2094  0.1493 -0.4002
  563SOL    HW2 5221   1.671   5.437  10.380  0.7035  0.7491  0.3399
  564SOL     OW 5222   2.730   0.198   4.571  0.0528 -0.2845 -0.5429
  564SOL    HW1 5223   2.777   0.261   4.626  1.0698 -1.9780  0.6161
  564SOL    HW2 5224   2.638   0.209   4.594  0.3272  0.0277  0.4551
  565SOL     OW 5225   4.741   5.191   2.285  0.4194 -0.6504  0.1942
  565SOL    HW1 5226   4.654   5.231   2.278  0.6700  0.0358  0.8401
  565SOL    HW2 5227   4.800   5.265   2.301  1.4031 -0.8410 -2.0780
  566SOL     OW 5228   5.539   3.547   0.622 -0.6182 -0.2174  0.0368
  566SOL    HW1 5229   5.633   3.552   0.608 -0.7822  0.7439 -0.9543
  566SOL    HW2 5230   5.502   3.595   0.548 -1.8822 -0.4863  0.4682
  567SOL     OW 5231   8.711   9.680   0.263 -0.0979  0.2696  0.0014
  567SOL    HW1 5232   8.692   9.625   0.338 -0.7011 -0.1452 -0.4432
  567SOL    HW2 5233   8.741   9.619   0.195  3.1885  0.8832  0.7086
  568SOL     OW 5234   0.654   0.413   3.279 -0.1905 -0.4370  0.1435
  568SOL    HW1 5235   0.645   0.333   3.228  0.3568 -0.0932 -0.5071
  568SOL    HW2 5236   0.597   0.400   3.355  2.2384 -2.7674  1.7466
  569SOL     OW 5237   4.777  10.846   9.259 -0.5837  0.6084  0.3338
  569SOL    HW1 5238   4.710  10.867   9.194  0.1199  1.3138 -0.1882
  569SOL    HW2 5239   4.836  10.922   9.259 -0.7917  0.8197  2.1049
  570SOL     OW 5240   1.675   5.993   8.948 -0.1599  0.1802 -0.2219
  570SOL    HW1 5241   1.748   6.008   8.888 -0.8394  0.5458 -0.9888
  570SOL    HW2 5242   1.628   5.918   8.911  0.1933 -0.4849  0.6388
  571SOL     OW 5243   4.537   7.034   5.980  0.7292  0.8100 -0.2930
  571SOL    HW1 5244   4.565   6.997   5.896  0.9082  0.5905 -0.1365
  571SOL    HW2 5245   4.445   7.058   5.966  0.3917 -0.3574 -0.1725
  572SOL     OW 5246   4.811   8.751   3.884  0.0942  0.0663 -0.8885
  572SOL    HW1 5247   4.798   8.759   3.979  0.5969  1.5390 -0.9302
  572SOL    HW2 5248   4.726   8.721   3.851 -0.5818  1.1134 -0.1514
  573SOL     OW 5249   3.624   6.835   7.115 -0.5345 -0.0249  0.1983
  573SOL    HW1 5250   3.706   6.853   7.068 -0.2450 -1.1082  0.2570
  573SOL    HW2 5251   3.650   6.773   7.184 -1.3480 -0.1099  0.4324
  574SOL     OW 5252   4.640   8.131   5.382  0.2237  0.4571 -0.3547
  574SOL    HW1 5253   4.659   8.224   5.369  2.2586 -0.0177 -0.9937
  574SOL    HW2 5254   4.598   8.128   5.469 -0.5152  2.0246 -0.6178
  575SOL     OW 5255   1.632   6.498   0.079  0.5607  0.6059  0.1796
  575SOL    HW1 5256   1.573   6.573   0.085  0.7164  0.6155  2.0734
  575SOL    HW2 5257   1.700   6.526   0.017 -0.0573  1.5352 -0.1023
  576SOL     OW 5258   3.468   3.161   3.849  0.0528 -1.0533 -0.0670
  576SOL    HW1 5259   3.387   3.118   3.821 -0.1077 -0.7169 -0.1280
  576SOL    HW2 5260   3.520   3.170   3.769 -0.5416  0.1996 -0.3395
  577SOL     OW 5261   2.513   4.367   2.151 -0.1742 -0.3214 -0.2433
  577SOL    HW1 5262   2.432   4.364   2.201 -0.4134 -2.9765 -0.6492
  577SOL    HW2 5263   2.582   4.353   2.216 -0.3501 -1.7521 -0.3216
  578SOL     OW 5264   6.527   0.683   1.153  0.3066 -0.1384  0.0699
  578SOL    HW1 5265   6.618   0.710   1.144 -0.4566  3.1864  0.9974
  578SOL    HW2 5266   6.500   0.659   1.064  1.3072  1.7538 -0.8045
  579SOL     OW 5267   1.990  10.921   4.445 -0.1481 -0.2297  0.1022
  579SOL    HW1 5268   1.929  10.953   4.511 -0.1438 -0.1765  0.0800
  579SOL    HW2 5269   2.008  10.997   4.389 -0.3304 -0.3318 -0.0981
  580SOL     OW 5270   9.111   8.572   7.219  0.1431 -0.4566 -0.1207
  580SOL    HW1 5271   9.021   8.555   7.192 -0.1718 -0.5987  0.9710
  580SOL    HW2 5272   9.164   8.548   7.143 -0.5239 -3.0481  0.1329
  581SOL     OW 5273   2.700   3.323   4.701 -0.4117  0.5155  0.5874
  581SOL    HW1 5274   2.701   3.311   4.606 -1.5207  2.2762  0.3134
  581SOL    HW2 5275   2.624   3.378   4.718 -1.1193 -0.9668  2.6812
  582SOL     OW 5276   7.190   0.588   7.955  0.3373 -0.1204  0.4296
  582SOL    HW1 5277   7.238   0.622   8.031  1.4997 -0.2533 -0.2406
  582SOL    HW2 5278   7.197   0.493   7.963 -1.0864 -0.2057  1.1162
  583SOL     OW 5279   8.328   8.048   8.227 -0.8772  0.3391 -0.0888
  583SOL    HW1 5280   8.385   8.124   8.240  2.8134 -2.1416  0.0222
  583SOL    HW2 5281   8.329   8.034   8.132  0.8322 -1.0163  0.0610
  584SOL     OW 5282   0.107   6.543   7.147  0.1150 -0.2851  0.0568
  584SOL    HW1 5283   0.142   6.561   7.235 -2.1479 -1.3325  1.2500
  584SOL    HW2 5284   0.067   6.626   7.120 -2.0408 -0.7767  1.4877
  585SOL     OW 5285   5.114   8.180   7.119  0.2091  0.3088  0.0756
  585SOL    HW1 5286   5.187   8.191   7.059  0.0111  0.1637 -0.1939
  585SOL    HW2 5287   5.056   8.119   7.075 -0.2460  0.6948  0.1292
  586SOL     OW 5288   8.907  10.387   2.610 -0.1531 -0.2280 -0.1468
  586SOL    HW1 5289   8.812  10.373   2.611 -0.2531  0.4535 -0.0265
  586SOL    HW2 5290   8.924  10.447   2.683  0.2126  0.6247 -0.9109
  587SOL     OW 5291   9.076   9.668   8.013  0.1963  0.4945  0.5796
  587SOL    HW1 5292   9.008   9.648   7.949 -0.0210  2.0716  0.2944
  587SOL    HW2 5293   9.029   9.678   8.096  0.4450 -1.2491  0.9866
  588SOL     OW 5294   6.461   2.736  10.490  0.6435 -0.7012  0.6364
  588SOL    HW1 5295   6.548   2.769  10.512  0.0631  1.3129  0.1109
  588SOL    HW2 5296   6.461   2.645  10.521  3.1262 -0.9642  0.0843
  589SOL     OW 5297   4.232   3.565   4.878  0.1726  0.1161 -0.4493
  589SOL    HW1 5298   4.313   3.541   4.923 -0.1446  1.8279  1.1516
  589SOL    HW2 5299   4.164   3.517   4.924  0.0067  0.7216 -0.0546
  590SOL     OW 5300   2.242   8.709   1.634  0.1034  0.0626  0.1058
  590SOL    HW1 5301   2.239   8.637   1.571  0.5842  0.2503 -0.1269
  590SOL    HW2 5302   2.192   8.675   1.709  1.1602 -0.9053  0.4017
  591SOL     OW 5303   4.463   3.076   2.203 -0.2071 -0.0940 -0.0593
  591SOL    HW1 5304   4.400   3.052   2.134  0.9197  0.3300 -1.2747
  591SOL    HW2 5305   4.539   3.108   2.155  0.7463 -0.1121  1.4009
  592SOL     OW 5306   6.401   5.842   6.487 -0.3180  0.1298  0.0747
  592SOL    HW1 5307   6.350   5.892   6.424  0.0985  2.1847  1.2920
  592SOL    HW2 5308   6.373   5.875   6.573  0.6682 -1.0622  0.8980
  593SOL     OW 5309   5.599   8.219   1.055 -0.7530 -0.2058  0.6584
  593SOL    HW1 5310   5.549   8.197   0.977  0.3054  0.7563 -0.3495
  593SOL    HW2 5311   5.686   8.183   1.039 -0.1660  1.0765  0.8111
  594SOL     OW 5312  10.931   0.772  10.435 -0.1414 -0.1429 -0.4093
  594SOL    HW1 5313  10.947   0.865  10.452  0.1739 -0.7541  3.6609
  594SOL    HW2 5314  11.005   0.727  10.476 -0.1234 -2.2814 -2.5383
  595SOL     OW 5315   8.887   1.331   8.131 -0.1026  0.7152 -0.0949
  595SOL    HW1 5316   8.953   1.315   8.064 -0.7684 -1.4883 -0.3000
  595SOL    HW2 5317   8.835   1.404   8.096  0.0413  0.1242 -1.6115
  596SOL     OW 5318   8.493   9.207   8.222  0.2346 -0.3063  0.4052
  596SOL    HW1 5319   8.468   9.143   8.288 -0.0526 -0.2237  0.3765
  596SOL    HW2 5320   8.415   9.260   8.209 -0.0747 -0.9988 -0.7796
  597SOL     OW 5321  10.442   6.296   8.629 -0.0819  0.3910 -0.2725
  597SOL    HW1 5322  10.416   6.217   8.678 -4.2197  1.5540 -0.2126
  597SOL    HW2 5323  10.461   6.360   8.698  2.0851 -0.1067 -0.3313
  598SOL     OW 5324   9.147   5.940   0.515  0.0121 -0.0131  0.8724
  598SOL    HW1 5325   9.090   5.948   0.439  0.3952 -1.0687  0.4606
  598SOL    HW2 5326   9.231   5.977   0.486 -0.0734  0.3272  1.0513
  599SOL     OW 5327   4.600   9.137   8.852  0.5582  0.2919 -0.4918
  599SOL    HW1 5328   4.627   9.046   8.837 -0.7104 -0.0481 -0.7952
  599SOL    HW2 5329   4.565   9.166   8.767  1.5130  1.2807 -0.5776
  600SOL     OW 5330  10.744   9.584   7.683 -0.2897  0.0030  0.2626
  600SOL    HW1 5331  10.713   9.655   7.740 -0.7156 -0.5371  0.7143
  600SOL    HW2 5332  10.776   9.518   7.743 -0.5870 -0.5042 -0.1291
  601SOL     OW 5333   4.351   5.023  10.202  0.2717 -0.0984 -0.1684
  601SOL    HW1 5334   4.316   5.085  10.267 -0.2769  0.5361 -1.0480
  601SOL    HW2 5335   4.392   5.079  10.136 -1.4362 -0.5714 -1.6860
  602SOL     OW 5336   6.318  10.420   3.185  0.0705 -0.2556 -0.9183
  602SOL    HW1 5337   6.348  10.393   3.272  0.7820  1.1764 -0.6931
  602SOL    HW2 5338   6.381  10.381   3.125  0.7087  0.3286 -0.6412
  603SOL     OW 5339   7.459   1.340   4.734 -0.1586  0.0034 -0.2482
  603SOL    HW1 5340   7.371   1.367   4.709  0.2375  1.0511 -0.5674
  603SOL    HW2 5341   7.492   1.413   4.786  0.4386 -0.4822  0.0628
  604SOL     OW 5342   1.318  11.117  10.990  0.1136  0.0987  0.7315
  604SOL    HW1 5343   1.249  11.093  10.929  1.4178 -0.4219 -0.5984
  604SOL    HW2 5344   1.342  11.207  10.964  2.3367 -0.9535 -1.2574
  605SOL     OW 5345   7.809   7.269   7.754 -0.1197  0.7704  0.1573
  605SOL    HW1 5346   7.713   7.280   7.759 -0.1812 -0.0197  1.0188
  605SOL    HW2 5347   7.824   7.223   7.672 -0.7332 -1.3255  1.1462
  606SOL     OW 5348  10.548  10.905   8.705  0.1463 -1.1950  0.0749
  606SOL    HW1 5349  10.591  10.991   8.700 -1.1978 -0.5313 -0.3491
  606SOL    HW2 5350  10.577  10.859   8.626 -1.0065 -0.2201 -0.9498
  607SOL     OW 5351   9.248   1.805   2.831 -0.0213  0.1203 -0.0860
  607SOL    HW1 5352   9.171   1.846   2.870  1.1299  0.7272  1.6649
  607SOL    HW2 5353   9.223   1.713   2.820 -1.3015  0.4851 -0.4751
  608SOL     OW 5354  10.396   1.784   3.972  0.2988  0.0563  0.1542
  608SOL    HW1 5355  10.406   1.714   3.907 -0.9281 -0.1880  0.2002
  608SOL    HW2 5356  10.485   1.806   3.997  0.8046  0.0130 -1.4616
  609SOL     OW 5357   0.257   4.323   5.588 -0.5025  0.4935  0.4348
  609SOL    HW1 5358   0.197   4.366   5.527 -1.0984 -0.1690  0.5406
  609SOL    HW2 5359   0.207   4.249   5.622  0.5584 -0.4103  0.0947
  610SOL     OW 5360   9.253   4.961   2.433 -0.0620  0.5411 -0.0957
  610SOL    HW1 5361   9.262   4.906   2.510 -1.0131  2.0920  1.1953
  610SOL    HW2 5362   9.165   5.000   2.441  0.4004  1.9106 -1.1422
  611SOL     OW 5363   2.324   0.997   2.254  0.3638 -0.2440 -0.3866
  611SOL    HW1 5364   2.338   1.020   2.162 -1.6289  2.6369 -0.1180
  611SOL    HW2 5365   2.354   1.074   2.302  0.8576 -1.4776  1.3669
  612SOL     OW 5366   9.483   6.601   1.912 -0.4577 -0.0776  0.2084
  612SOL    HW1 5367   9.409   6.562   1.864 -0.5656 -0.4942  0.7016
  612SOL    HW2 5368   9.451   6.612   2.001  0.7480 -2.2821  0.9841
  613SOL     OW 5369   6.525   8.121   8.524  0.4713 -0.0480 -0.3176
  613SOL    HW1 5370   6.541   8.054   8.458 -1.3508  1.3878 -2.3644
  613SOL    HW2 5371   6.436   8.152   8.505  0.5168  1.5630  1.8053
  614SOL     OW 5372   1.890   3.820   7.473 -0.1254 -0.7702  0.0915
  614SOL    HW1 5373   1.951   3.793   7.542 -0.6038 -1.5922  0.1964
  614SOL    HW2 5374   1.878   3.914   7.489 -0.8602 -1.0853  1.6559
  615SOL     OW 5375  10.775   4.640   9.640 -0.4502 -0.5089  0.5201
  615SOL    HW1 5376  10.798   4.722   9.596  1.6840 -1.4681 -0.2291
  615SOL    HW2 5377  10.686   4.621   9.609 -0.6916  1.0856  0.1155
  616SOL     OW 5378   6.934   5.151  10.772  0.0339 -0.4054  0.2531
  616SOL    HW1 5379   6.891   5.206  10.707  1.5175  0.6179  0.1033
  616SOL    HW2 5380   6.866   5.135  10.838 -0.4422  1.6234  0.3199
  617SOL     OW 5381   6.611   7.906  10.464  0.3582 -0.1210 -0.8819
  617SOL    HW1 5382   6.590   7.997  10.445  1.2918  0.2373 -0.2114
  617SOL    HW2 5383   6.700   7.907  10.498  0.4269 -1.2973 -0.9611
  618SOL     OW 5384   0.651   7.295   6.117  0.5644 -0.1957 -0.2583
  618SOL    HW1 5385   0.726   7.243   6.146 -0.0609  0.0749  2.0356
  618SOL    HW2 5386   0.588   7.230   6.085  0.1033 -0.8463  1.8355
  619SOL     OW 5387   3.116   6.703   3.387 -0.1886  0.0601  0.2975
  619SOL    HW1 5388   3.109   6.773   3.322  2.4454 -0.6064 -0.8339
  619SOL    HW2 5389   3.152   6.746   3.464  0.1017  0.1992  0.0836
  620SOL     OW 5390   6.694   4.669   4.674 -0.3654 -0.3537  0.5153
  620SOL    HW1 5391   6.772   4.627   4.638 -0.1935 -1.1295  1.7297
  620SOL    HW2 5392   6.655   4.716   4.600  1.0971 -0.1775 -0.1751
  621SOL     OW 5393   4.749  10.939   5.300  0.2109  0.2291  0.3211
  621SOL    HW1 5394   4.784  10.885   5.372 -1.3051  0.0662  0.9859
  621SOL    HW2 5395   4.655  10.942   5.317 -0.0213  1.1936 -1.0135
  622SOL     OW 5396   6.170   2.157   6.868  0.3674 -0.4238 -0.1701
  622SOL    HW1 5397   6.170   2.252   6.856 -0.7281 -0.4243 -0.2640
  622SOL    HW2 5398   6.118   2.143   6.947 -1.0557 -1.0339 -1.1680
  623SOL     OW 5399   1.567   8.340   3.861 -0.1149  0.0615  0.8546
  623SOL    HW1 5400   1.569   8.380   3.948  0.9867  1.2406  0.3149
  623SOL    HW2 5401   1.658   8.313   3.845 -0.7146 -2.2527  0.9798
  624SOL     OW 5402   7.290   3.812   3.151 -0.1968  0.2660  0.3681
  624SOL    HW1 5403   7.213   3.868   3.151 -1.1154 -0.9651  0.8930
  624SOL    HW2 5404   7.286   3.766   3.235  0.5994 -0.5020  0.0012
  625SOL     OW 5405   1.266   8.320   3.836 -0.1569  0.7299  0.0151
  625SOL    HW1 5406   1.229   8.323   3.924  1.0588 -0.8449  0.6194
  625SOL    HW2 5407   1.358   8.341   3.847 -0.1263  1.2314 -1.0045
  626SOL     OW 5408   3.657   6.345   9.782  0.1467 -0.7440  0.1487
  626SOL    HW1 5409   3.564   6.348   9.757 -0.1863 -0.9755  1.3113
  626SOL    HW2 5410   3.664   6.409   9.853  0.5679 -1.7348  1.0222
  627SOL     OW 5411   3.288   3.449   1.309  0.2315 -0.3548  0.0429
  627SOL    HW1 5412   3.347   3.514   1.346  2.1938 -2.2405  0.4251
  627SOL    HW2 5413   3.343   3.396   1.251 -1.8680 -0.0805 -2.4272
  628SOL     OW 5414   0.008   0.019  10.838 -0.5091  0.1594  0.1458
  628SOL    HW1 5415  -0.038  -0.047  10.786 -0.3132 -0.6146  0.9255
  628SOL    HW2 5416  -0.057   0.087  10.856 -0.6119  0.3694 -0.9860
  629SOL     OW 5417   5.698   9.191   0.646  0.2007 -0.2439  0.8182
  629SOL    HW1 5418   5.751   9.143   0.583  1.3601 -0.4626  1.9162
  629SOL    HW2 5419   5.756   9.261   0.677 -0.3886 -0.0577  1.5269
  630SOL     OW 5420   8.626   0.088   4.545 -0.7096 -0.3069 -0.1597
  630SOL    HW1 5421   8.681   0.137   4.606 -2.1630  0.5918  0.4969
  630SOL    HW2 5422   8.585   0.021   4.599 -1.9173  0.4196 -0.1265
  631SOL     OW 5423   7.432   7.690   5.370 -0.4457 -0.0219  0.1386
  631SOL    HW1 5424   7.378   7.611   5.375  0.2474 -0.4719  0.6441
  631SOL    HW2 5425   7.422   7.721   5.280  2.3215 -2.8747 -1.3192
  632SOL     OW 5426   9.410   6.233   5.690  0.0040  0.0613  0.1650
  632SOL    HW1 5427   9.357   6.231   5.770 -1.3258  2.9955 -0.5416
  632SOL    HW2 5428   9.494   6.270   5.718  0.6043 -1.5461  0.6497
  633SOL     OW 5429   3.083   3.876   7.338  0.3084 -0.9155  0.0008
  633SOL    HW1 5430   3.096   3.864   7.244  1.4397 -0.6678  0.1100
  633SOL    HW2 5431   3.117   3.964   7.356 -1.3083 -0.3484  0.3878
  634SOL     OW 5432   3.463  10.292  10.660 -0.1938  0.2019 -0.0874
  634SOL    HW1 5433   3.480  10.199  10.650  0.3912  0.1274  1.2844
  634SOL    HW2 5434   3.546  10.335  10.641 -0.7838  0.5722 -1.9765
  635SOL     OW 5435   1.310   5.385   5.892  0.2849  0.3214  0.5418
  635SOL    HW1 5436   1.401   5.392   5.920  0.3929  0.9045  0.0493
  635SOL    HW2 5437   1.286   5.294   5.912  0.2200  0.7890  2.9353
  636SOL     OW 5438  11.051  10.445   8.752  0.2809  0.3470 -0.3345
  636SOL    HW1 5439  11.001  10.482   8.679 -0.0345  1.1739  0.2785
  636SOL    HW2 5440  11.127  10.403   8.711 -0.3210  0.0767 -1.1917
  637SOL     OW 5441   6.607   5.627   4.190 -0.1305  0.6574  0.1562
  637SOL    HW1 5442   6.582   5.657   4.103  0.1881 -0.5806 -0.3765
  637SOL    HW2 5443   6.702   5.620   4.187 -0.0380  1.3632  0.8741
  638SOL     OW 5444   8.971   1.534   9.383  0.1999  0.0253 -0.3684
  638SOL    HW1 5445   8.953   1.457   9.330  0.4889  0.0921 -0.5606
  638SOL    HW2 5446   8.884   1.568   9.405  0.0792 -0.0956 -0.6564
  639SOL     OW 5447   6.721   9.596  10.058  0.1685  0.2003  0.2606
  639SOL    HW1 5448   6.656   9.648  10.009 -0.3270 -0.2842  0.3917
  639SOL    HW2 5449   6.748   9.528   9.996 -0.8096 -0.6983  0.8053
  640SOL     OW 5450   1.293   9.298   5.159 -0.3882 -1.0118 -0.1129
  640SOL    HW1 5451   1.324   9.215   5.194 -0.5697 -1.5303 -1.1463
  640SOL    HW2 5452   1.356   9.321   5.091  0.2296  0.2286  0.8275
  641SOL     OW 5453   0.001   3.482   4.265 -0.1695 -0.7860  0.0987
  641SOL    HW1 5454  -0.058   3.525   4.327  0.1316  0.2384 -0.3095
  641SOL    HW2 5455  -0.058   3.430   4.209 -0.7959  0.7220 -0.7065
  642SOL     OW 5456   2.064   8.802   6.459  0.5341 -0.8474  1.2170
  642SOL    HW1 5457   2.011   8.730   6.495 -1.8732 -0.7699 -1.7607
  642SOL    HW2 5458   2.043   8.877   6.513 -0.1276 -1.4677  1.8446
  643SOL     OW 5459   1.358   3.675   5.386 -0.1072  0.1626 -0.3488
  643SOL    HW1 5460   1.336   3.769   5.384 -0.6313  0.0280 -1.8316
  643SOL    HW2 5461   1.450   3.672   5.410 -0.2623  1.0158  0.4235
  644SOL     OW 5462   6.335   0.928   8.997 -1.1093  0.0607  0.2684
  644SOL    HW1 5463   6.260   0.911   8.939 -0.4626 -1.3540 -0.2142
  644SOL    HW2 5464   6.323   0.866   9.069  0.3992 -1.3555 -0.6297
  645SOL     OW 5465  10.881   3.397   0.427 -0.2703 -0.2253 -0.3179
  645SOL    HW1 5466  10.887   3.302   0.434  0.6101 -0.0594  3.1945
  645SOL    HW2 5467  10.948   3.421   0.364 -0.4225 -1.9092 -1.1783
  646SOL     OW 5468   9.409   4.563   1.095  0.2864 -0.3443  0.2017
  646SOL    HW1 5469   9.408   4.583   1.189 -0.9167  0.1083  0.1064
  646SOL    HW2 5470   9.343   4.621   1.058  0.9642 -0.3057 -0.9801
  647SOL     OW 5471   0.516   2.274   0.994 -0.1296  0.0123 -0.2987
  647SOL    HW1 5472   0.427   2.258   1.024 -0.9933  0.0040 -2.6809
  647SOL    HW2 5473   0.521   2.369   0.982  0.6627  0.1739  1.1383
  648SOL     OW 5474   2.651   3.560   3.793 -0.3394 -0.3578  0.3024
  648SOL    HW1 5475   2.746   3.550   3.797 -0.3304 -0.6915 -0.5498
  648SOL    HW2 5476   2.623   3.559   3.885  0.6570  1.6909  0.6764
  649SOL     OW 5477   2.804   5.580   8.534 -0.0760 -0.2544  0.0867
  649SOL    HW1 5478   2.850   5.511   8.582 -0.1748 -0.7058 -0.4564
  649SOL    HW2 5479   2.753   5.626   8.600  0.8679  0.0166  0.6389
  650SOL     OW 5480   8.301  10.912   2.500  0.1199  0.4634  0.2297
  650SOL    HW1 5481   8.229  10.849   2.507  0.5888 -0.1143  0.0213
  650SOL    HW2 5482   8.270  10.990   2.545 -0.4463  0.0455  0.5744
  651SOL     OW 5483   1.113   7.899   2.289 -0.6129  0.3675  0.2918
  651SOL    HW1 5484   1.141   7.873   2.377  0.4451  1.0195  0.1679
  651SOL    HW2 5485   1.023   7.929   2.300 -1.0111 -0.9806  0.8709
  652SOL     OW 5486   6.781   6.782   2.568 -0.6469  0.4270 -0.0562
  652SOL    HW1 5487   6.826   6.701   2.544  1.1468  0.9635  1.1811
  652SOL    HW2 5488   6.845   6.851   2.549 -1.9503  1.5189 -0.6286
  653SOL     OW 5489   6.404   8.867   1.016  0.2423 -0.4261 -0.0990
  653SOL    HW1 5490   6.361   8.888   1.099  1.4209  1.0006  0.1881
  653SOL    HW2 5491   6.485   8.822   1.042 -0.3970 -1.9396 -0.5918
  654SOL     OW 5492   2.017   4.941   2.219 -0.3985  0.2316 -0.0128
  654SOL    HW1 5493   2.019   5.028   2.180  2.5884  0.0817 -0.4100
  654SOL    HW2 5494   2.088   4.942   2.284  0.5727 -2.2571 -0.9290
  655SOL     OW 5495   2.901   1.943   4.225  0.5904 -0.2158 -0.3985
  655SOL    HW1 5496   2.832   1.947   4.291  1.1749  0.5954  0.1846
  655SOL    HW2 5497   2.865   1.989   4.149 -0.3833 -1.8319 -0.9577
  656SOL     OW 5498  10.485   0.231   7.436 -0.0190 -0.9662  0.0588
  656SOL    HW1 5499  10.497   0.291   7.362 -1.5477 -0.1212  0.4586
  656SOL    HW2 5500  10.442   0.155   7.399  0.6998 -1.2580 -0.2000
  657SOL     OW 5501  10.356   3.899   9.599  0.3915 -0.2924 -0.5076
  657SOL    HW1 5502  10.370   3.816   9.646 -1.0869 -0.3770 -0.1646
  657SOL    HW2 5503  10.445   3.932   9.584  1.0020 -1.6069 -0.0682
  658SOL     OW 5504   6.064   0.578   6.213 -0.2215  0.0681 -0.7753
  658SOL    HW1 5505   6.141   0.604   6.264 -0.5419 -4.0051  2.2681
  658SOL    HW2 5506   6.013   0.659   6.204  2.2916  2.0171  0.9406
  659SOL     OW 5507  10.095  10.206   6.600 -0.2746 -0.5407 -0.5636
  659SOL    HW1 5508  10.000  10.220   6.607 -0.2126 -0.1885 -0.3738
  659SOL    HW2 5509  10.104  10.128   6.546 -0.6578 -0.1461 -1.2128
  660SOL     OW 5510   7.847   5.604   2.861  0.5872 -0.1138 -0.5391
  660SOL    HW1 5511   7.827   5.663   2.933 -2.0436 -1.0179 -0.4224
  660SOL    HW2 5512   7.914   5.650   2.810 -0.4189  2.4033  0.2377
  661SOL     OW 5513   4.953  10.977   1.654 -0.2456 -0.1448  0.0116
  661SOL    HW1 5514   4.876  11.019   1.615 -0.6714  0.3148  1.3015
  661SOL    HW2 5515   4.930  10.884   1.656  0.8156 -0.5992 -3.1148
  662SOL     OW 5516   5.554   7.363   9.519  0.4464  0.2247  0.7240
  662SOL    HW1 5517   5.493   7.350   9.592 -0.8271  0.9258 -0.1881
  662SOL    HW2 5518   5.503   7.407   9.452  0.2754 -4.1228 -2.3911
  663SOL     OW 5519   5.517   1.595   1.808  0.3246 -0.4624 -0.9191
  663SOL    HW1 5520   5.466   1.522   1.841 -0.6025 -0.3269 -1.9684
  663SOL    HW2 5521   5.606   1.561   1.799  0.6092 -0.5370  1.4911
  664SOL     OW 5522   4.284   9.956   6.716 -0.0677  0.3745  0.2579
  664SOL    HW1 5523   4.218   9.888   6.703  0.3507 -0.6687  2.9532
  664SOL    HW2 5524   4.367   9.911   6.700  0.1571  1.7863 -3.5495
  665SOL     OW 5525   0.643   8.762  10.232 -0.3170  0.1836  0.3206
  665SOL    HW1 5526   0.684   8.700  10.173 -0.9811  1.3731 -1.4798
  665SOL    HW2 5527   0.701   8.838  10.232 -0.6427  0.4421  0.6906
  666SOL     OW 5528   3.472   1.645   8.580 -0.5071  0.5233 -0.1911
  666SOL    HW1 5529   3.552   1.606   8.544 -0.1014  1.1504  0.0259
  666SOL    HW2 5530   3.405   1.629   8.513 -0.6830 -1.6813  0.4168
  667SOL     OW 5531   8.513   6.878   3.156 -0.4930 -0.9322  0.4958
  667SOL    HW1 5532   8.575   6.844   3.220 -0.0532 -0.4857  0.3116
  667SOL    HW2 5533   8.440   6.913   3.208 -0.5202 -1.3187  0.7163
  668SOL     OW 5534   8.986   1.902   7.835  0.2243 -0.4637 -0.1883
  668SOL    HW1 5535   8.983   1.848   7.756  0.2844  0.6346 -0.9752
  668SOL    HW2 5536   9.013   1.988   7.803  0.4878 -0.0598  1.0774
  669SOL     OW 5537   0.812   2.188   1.588  0.1206 -0.0091  0.6954
  669SOL    HW1 5538   0.732   2.170   1.540  1.5201 -1.0024 -1.4121
  669SOL    HW2 5539   0.810   2.126   1.661 -0.6992 -0.5207  0.2556
  670SOL     OW 5540   2.989   1.137   9.094 -0.5159  0.0863 -0.4939
  670SOL    HW1 5541   3.010   1.064   9.153  1.1206  0.1154 -1.0039
  670SOL    HW2 5542   2.942   1.097   9.022 -0.9969 -0.2154 -0.0211
  671SOL     OW 5543   4.303   8.914   9.587 -0.0764  0.0895  0.0352
  671SOL    HW1 5544   4.388   8.952   9.607 -0.7251  0.5593  2.0810
  671SOL    HW2 5545   4.309   8.824   9.619  0.0916 -0.3073 -1.0770
  672SOL     OW 5546   2.828   4.417   6.166  0.7391  0.1834 -0.3834
  672SOL    HW1 5547   2.763   4.485   6.148  0.9751  0.2798 -0.9058
  672SOL    HW2 5548   2.844   4.422   6.260 -1.1454 -0.8597  0.0532
  673SOL     OW 5549   0.788  10.202   0.571 -0.1974  0.3876  0.0521
  673SOL    HW1 5550   0.869  10.151   0.573 -0.6344 -0.2943  1.4506
  673SOL    HW2 5551   0.771  10.215   0.477  0.0528 -1.8650 -0.3644
  674SOL     OW 5552   8.935   5.919  10.704 -0.6322  0.2188  0.5801
  674SOL    HW1 5553   8.982   5.996  10.737 -2.0484  1.1620  0.4886
  674SOL    HW2 5554   8.923   5.937  10.611  1.3525 -1.3870 -0.0749
  675SOL     OW 5555   6.063   7.118   4.906 -0.3236  0.1005  0.2725
  675SOL    HW1 5556   6.149   7.081   4.925 -0.2849 -0.1253 -0.3190
  675SOL    HW2 5557   6.052   7.106   4.812 -0.0281  2.1785 -0.0660
  676SOL     OW 5558   9.149   8.493   6.927 -0.1149  0.0020 -0.3124
  676SOL    HW1 5559   9.157   8.581   6.891  1.1223 -0.7720 -2.1468
  676SOL    HW2 5560   9.240   8.464   6.939 -0.4964 -0.9746  0.3692
  677SOL     OW 5561   0.861   3.210   1.713 -0.3904  0.2578 -0.4693
  677SOL    HW1 5562   0.880   3.125   1.754 -0.2444 -0.2214 -1.4890
  677SOL    HW2 5563   0.800   3.188   1.642 -0.0085  0.9446 -1.0167
  678SOL     OW 5564   9.697   0.127   1.412 -0.1484 -0.5623 -0.2087
  678SOL    HW1 5565   9.677   0.124   1.505 -1.3778 -1.2703 -0.4787
  678SOL    HW2 5566   9.786   0.090   1.405 -0.6705 -2.0155  0.5245
  679SOL     OW 5567   9.555   8.319   2.993 -0.7109  0.0047 -0.3040
  679SOL    HW1 5568   9.573   8.292   3.084 -2.0610  0.5189  0.1379
  679SOL    HW2 5569   9.639   8.351   2.961 -0.5671  1.4024  1.3296
  680SOL     OW 5570   1.221   6.817   3.380 -0.3694  0.1935  0.1551
  680SOL    HW1 5571   1.249   6.830   3.471 -0.8482  0.3682  0.2778
  680SOL    HW2 5572   1.259   6.891   3.333  0.5282 -0.3118  0.0664
  681SOL     OW 5573   5.991   1.122   1.170  0.1114 -0.2725  1.0016
  681SOL    HW1 5574   6.014   1.034   1.139 -0.3974 -0.3482  0.8240
  681SOL    HW2 5575   6.075   1.166   1.181  0.3098 -0.0720 -0.9667
  682SOL     OW 5576   6.867   4.393  10.467  0.0122 -0.2267 -0.0516
  682SOL    HW1 5577   6.913   4.477  10.478  0.4219 -0.7242  2.6438
  682SOL    HW2 5578   6.827   4.376  10.552 -1.1662 -2.1837 -0.9250
  683SOL     OW 5579   7.453   0.620   5.851  0.5042 -0.2456  0.3862
  683SOL    HW1 5580   7.497   0.673   5.784  0.8339 -0.0189  0.7771
  683SOL    HW2 5581   7.379   0.673   5.879 -0.2393 -0.7761 -0.5218
  684SOL     OW 5582   9.842   6.019   6.769  0.2998  0.2827  0.5179
  684SOL    HW1 5583   9.774   5.952   6.763  1.2876 -0.7929  1.0262
  684SOL    HW2 5584   9.909   5.992   6.706  0.6969  0.8066  0.7036
  685SOL     OW 5585   4.271   3.209   1.107 -0.1773  0.7852 -0.3226
  685SOL    HW1 5586   4.284   3.190   1.200 -0.2793  0.1967 -0.4234
  685SOL    HW2 5587   4.176   3.219   1.098 -0.1035  1.6526 -0.2189
  686SOL     OW 5588   7.710   6.776   7.974  0.5010 -0.1306 -0.1207
  686SOL    HW1 5589   7.662   6.846   8.017  0.8161 -0.3858  0.6538
  686SOL    HW2 5590   7.791   6.817   7.943  0.9265 -0.2628  0.7980
  687SOL     OW 5591   9.194   3.877   8.831  0.2004  0.0329  0.5604
  687SOL    HW1 5592   9.239   3.958   8.856  0.0067  0.2321  0.2780
  687SOL    HW2 5593   9.109   3.881   8.875  0.5523 -0.4711  1.3099
  688SOL     OW 5594   9.681   4.845   9.138 -0.0441  0.8335  0.2774
  688SOL    HW1 5595   9.735   4.865   9.215 -0.1690 -0.0012  0.5970
  688SOL    HW2 5596   9.678   4.749   9.136 -0.4315  0.8573 -0.5006
  689SOL     OW 5597   9.206   7.401   1.686 -0.1742 -0.4265  0.7631
  689SOL    HW1 5598   9.206   7.307   1.705 -0.1589 -0.2089  1.9129
  689SOL    HW2 5599   9.229   7.442   1.769  1.0968  0.5509 -0.0273
  690SOL     OW 5600   3.360   0.844   0.694 -0.6687  0.2250 -0.2928
  690SOL    HW1 5601   3.439   0.795   0.716 -1.6232 -0.2482  2.3846
  690SOL    HW2 5602   3.311   0.787   0.635  1.0407  0.6446 -2.2318
  691SOL     OW 5603   0.427   5.803   6.911 -0.1327  0.2065 -0.7928
  691SOL    HW1 5604   0.344   5.852   6.920 -0.7346 -0.7834 -0.8476
  691SOL    HW2 5605   0.434   5.752   6.991  0.5415  0.4451 -0.6955
  692SOL     OW 5606   9.984   7.523   9.402 -0.0569 -0.6157  0.0952
  692SOL    HW1 5607   9.895   7.502   9.374  0.3206 -1.3838 -0.5727
  692SOL    HW2 5608  10.007   7.601   9.350 -0.6588  0.1590  0.9543
  693SOL     OW 5609   8.703   4.943   8.350  0.3319  0.6547  0.1100
  693SOL    HW1 5610   8.740   5.011   8.406 -1.1233  0.6205  1.1666
  693SOL    HW2 5611   8.690   4.868   8.408 -1.4018  0.6869 -0.1861
  694SOL     OW 5612   6.314   5.451   5.851 -0.7493  0.1689  0.1274
  694SOL    HW1 5613   6.306   5.408   5.936 -0.0743 -0.5330 -0.1550
  694SOL    HW2 5614   6.407   5.468   5.842 -1.0643  2.7691  0.7305
  695SOL     OW 5615   6.890   1.080   8.872 -0.0957 -0.0800 -0.0175
  695SOL    HW1 5616   6.857   1.031   8.796  1.6646 -2.0478  0.4099
  695SOL    HW2 5617   6.821   1.145   8.890 -1.7326 -1.2448 -1.6896
  696SOL     OW 5618   0.863   0.096   2.836  0.3147  0.3354  0.1658
  696SOL    HW1 5619   0.787   0.145   2.806 -0.5246 -0.8355  0.2959
  696SOL    HW2 5620   0.875   0.125   2.927 -1.0793 -0.6918  0.7302
  697SOL     OW 5621   1.478   7.756   5.680 -0.6371  0.4796  0.0485
  697SOL    HW1 5622   1.539   7.715   5.741 -0.0705  1.0594 -0.1249
  697SOL    HW2 5623   1.448   7.684   5.624  0.1055  0.2387 -0.0494
  698SOL     OW 5624   9.475   5.189   5.617  0.2351 -1.0438 -0.5576
  698SOL    HW1 5625   9.488   5.210   5.524 -0.4259 -0.2241 -0.4757
  698SOL    HW2 5626   9.561   5.202   5.656 -0.1658  1.9559 -0.4535
  699SOL     OW 5627   3.752   0.091   4.233 -0.6346  0.1149 -0.1147
  699SOL    HW1 5628   3.830   0.042   4.257  0.1867  1.0488 -0.8300
  699SOL    HW2 5629   3.680   0.029   4.246  0.1161 -0.5084  1.3196
  700SOL     OW 5630   0.204   6.877   7.557 -0.0420 -0.3265  0.1258
  700SOL    HW1 5631   0.159   6.814   7.502 -0.0242  0.3997 -0.7442
  700SOL    HW2 5632   0.143   6.950   7.566  0.6529  0.3420 -0.4415
  701SOL     OW 5633   0.254   9.484   0.380  0.0707 -0.0226 -0.6707
  701SOL    HW1 5634   0.206   9.550   0.330 -0.7891 -0.6641 -0.7089
  701SOL    HW2 5635   0.188   9.419   0.404  0.7442 -0.4448  0.0907
  702SOL     OW 5636   8.471   5.571   3.740  0.1224 -0.0215  0.1031
  702SOL    HW1 5637   8.522   5.638   3.696 -0.4272  0.6857  0.5131
  702SOL    HW2 5638   8.536   5.517   3.786  0.5606  0.2901 -0.1464
  703SOL     OW 5639   9.906   7.840  11.029 -0.2454 -0.5906  0.2183
  703SOL    HW1 5640   9.905   7.751  11.066 -2.6870 -0.5434  0.3867
  703SOL    HW2 5641   9.944   7.894  11.098 -0.0928 -1.2798  0.6900
  704SOL     OW 5642   9.984   3.448   6.449  0.1669 -0.4502  0.0946
  704SOL    HW1 5643   9.971   3.398   6.529 -1.2995  0.2733  0.3512
  704SOL    HW2 5644  10.026   3.529   6.478 -2.6578  0.9569  0.6084
  705SOL     OW 5645   3.285   1.158   6.939 -0.2595  0.0458 -0.5209
  705SOL    HW1 5646   3.344   1.101   6.989  1.6479  0.8010 -1.8030
  705SOL    HW2 5647   3.212   1.175   6.999 -0.0048 -2.2287  0.5594
  706SOL     OW 5648   6.711   8.442   3.437  0.1993  0.0388  0.2467
  706SOL    HW1 5649   6.793   8.490   3.446  0.3821 -0.5626  2.3705
  706SOL    HW2 5650   6.656   8.476   3.508 -1.0553 -0.2332 -0.5638
  707SOL     OW 5651   9.255   0.519   7.979  0.0369 -0.5587  0.0212
  707SOL    HW1 5652   9.347   0.539   7.965  0.0663 -0.8452 -0.1952
  707SOL    HW2 5653   9.254   0.434   8.022 -0.1229 -0.5025  0.1320
  708SOL     OW 5654   3.515   0.443   8.200 -0.5456  0.4005  0.4540
  708SOL    HW1 5655   3.567   0.448   8.120 -1.5037 -0.8735 -0.2852
  708SOL    HW2 5656   3.573   0.402   8.264  0.7179  2.7204  0.8896
  709SOL     OW 5657  10.915   6.959   9.414 -0.0920  0.0437  0.3176
  709SOL    HW1 5658  10.959   6.877   9.434  1.8705  0.2130 -2.6721
  709SOL    HW2 5659  10.976   7.027   9.440 -0.3003  0.4252 -0.1586
  710SOL     OW 5660   8.537   2.310   2.561  0.3519 -0.1090  0.1472
  710SOL    HW1 5661   8.561   2.227   2.602  0.3281  0.0303  0.4441
  710SOL    HW2 5662   8.602   2.322   2.491  0.7162 -0.0916  0.4831
  711SOL     OW 5663   2.223  11.071   7.354 -0.1935  0.4034  0.3141
  711SOL    HW1 5664   2.135  11.107   7.356 -0.2831  0.1598  0.9979
  711SOL    HW2 5665   2.272  11.122   7.418 -0.3286 -0.6702  1.3092
  712SOL     OW 5666   3.989   9.730   1.879  0.0220  0.6253  0.2278
  712SOL    HW1 5667   3.911   9.695   1.836  0.5530 -0.2059 -0.0947
  712SOL    HW2 5668   3.956   9.792   1.943 -0.9631 -0.3921  0.7334
  713SOL     OW 5669   9.097   5.927   9.178  0.3324 -0.3265  0.2141
  713SOL    HW1 5670   9.187   5.936   9.148  1.2216 -2.2082  2.1130
  713SOL    HW2 5671   9.059   5.860   9.122 -0.2465  1.1033 -1.1916
  714SOL     OW 5672   4.661   9.454   7.298 -0.5933 -0.1586  0.4032
  714SOL    HW1 5673   4.690   9.469   7.388 -1.4909 -2.5241  1.1594
  714SOL    HW2 5674   4.579   9.406   7.307 -0.4976 -0.8062 -1.6917
  715SOL     OW 5675   0.794   5.837   4.773  0.3456 -0.3181  0.1465
  715SOL    HW1 5676   0.751   5.923   4.774 -0.2556 -0.6201  0.3648
  715SOL    HW2 5677   0.844   5.835   4.855  0.4694 -0.1227  0.0769
  716SOL     OW 5678   7.499   8.595   2.386 -0.0941  0.1069 -0.7234
  716SOL    HW1 5679   7.471   8.517   2.339 -0.2036  0.4221 -1.1868
  716SOL    HW2 5680   7.452   8.667   2.345  0.7502  0.5400 -0.9650
  717SOL     OW 5681   6.982   5.503   0.239  0.1876 -0.7634 -0.5045
  717SOL    HW1 5682   6.936   5.421   0.224  0.8505 -0.6658 -3.9519
  717SOL    HW2 5683   7.067   5.491   0.197  0.8454  1.1945  0.1670
  718SOL     OW 5684   1.155  10.294   8.085 -0.0719  0.5751  0.0333
  718SOL    HW1 5685   1.245  10.271   8.105 -0.7143 -0.4014  2.0438
  718SOL    HW2 5686   1.144  10.383   8.119  0.0966  0.6782 -0.1781
  719SOL     OW 5687   8.530   0.298   0.573 -0.2696 -0.0461  0.0586
  719SOL    HW1 5688   8.600   0.351   0.534 -1.6303  0.9469 -1.1178
  719SOL    HW2 5689   8.476   0.361   0.620  0.5001 -1.0319  2.3871
  720SOL     OW 5690  10.910   3.356   2.268 -0.2308 -0.0674  0.0227
  720SOL    HW1 5691  10.953   3.434   2.303 -0.5492 -0.0424  0.3678
  720SOL    HW2 5692  10.969   3.324   2.200  0.0065  0.3486  0.0308
  721SOL     OW 5693   0.031   0.555   2.911  0.1401  0.1565  0.7384
  721SOL    HW1 5694  -0.014   0.629   2.951 -0.4863 -0.2452  0.7892
  721SOL    HW2 5695   0.085   0.595   2.842 -0.6951  0.6067  0.3198
  722SOL     OW 5696   3.221  10.769   6.716  0.4327 -0.0873  0.0090
  722SOL    HW1 5697   3.306  10.728   6.730 -0.1877 -1.0070  1.3475
  722SOL    HW2 5698   3.193  10.796   6.803 -0.8358 -0.2265 -0.3336
  723SOL     OW 5699   1.892   0.668   5.892  0.5486  0.3986  0.4982
  723SOL    HW1 5700   1.908   0.760   5.912  2.0854  0.2026  0.3365
  723SOL    HW2 5701   1.965   0.644   5.834 -0.1165 -0.7821  0.1329
  724SOL     OW 5702   6.768  10.881   6.633 -0.2003 -0.5307  0.1312
  724SOL    HW1 5703   6.798  10.958   6.681  0.4822 -0.4524 -0.4066
  724SOL    HW2 5704   6.675  10.895   6.620 -0.2704 -0.2538  0.8818
  725SOL     OW 5705   3.432   5.188   9.945  0.2648  0.1240 -0.4917
  725SOL    HW1 5706   3.359   5.139   9.981  0.2495  1.4619  1.4695
  725SOL    HW2 5707   3.500   5.183  10.013  1.8573 -0.6839 -2.0493
  726SOL     OW 5708   1.606   8.744   1.182 -0.6045  0.1604  0.4038
  726SOL    HW1 5709   1.602   8.823   1.128 -1.2129 -0.8879 -1.1550
  726SOL    HW2 5710   1.664   8.767   1.254  1.5546  1.1456 -1.5376
  727SOL     OW 5711   0.253   3.978  10.594 -0.3146  0.3786 -0.0158
  727SOL    HW1 5712   0.251   3.997  10.500 -1.8281 -0.2317 -0.1464
  727SOL    HW2 5713   0.183   4.033  10.630 -0.7795 -0.5362  0.5070
  728SOL     OW 5714   1.420   6.891   9.234  0.8802  0.4393 -0.0528
  728SOL    HW1 5715   1.362   6.833   9.282  0.2217  0.1630 -1.1562
  728SOL    HW2 5716   1.451   6.954   9.299  0.4199 -0.2379  0.8287
  729SOL     OW 5717   6.603   5.459   4.654  0.1107 -0.3836  0.1721
  729SOL    HW1 5718   6.624   5.401   4.728  1.3197  1.4135  1.3123
  729SOL    HW2 5719   6.531   5.415   4.609  0.7453 -2.5898  1.1768
  730SOL     OW 5720   4.510  10.793   7.807 -0.2107 -0.4924  0.0597
  730SOL    HW1 5721   4.582  10.838   7.851  0.6749 -1.4331 -0.3730
  730SOL    HW2 5722   4.510  10.828   7.718 -0.3991 -0.3733  0.1062
  731SOL     OW 5723   4.012   6.472   0.444  0.6431 -0.1642 -0.3141
  731SOL    HW1 5724   4.061   6.409   0.498  0.2008 -0.8430 -0.6885
  731SOL    HW2 5725   4.061   6.554   0.452  0.8709 -0.3815  0.7113
  732SOL     OW 5726   8.646   9.874   9.847  0.1047  0.9206 -0.0667
  732SOL    HW1 5727   8.557   9.896   9.875  0.4231  0.6718  1.2264
  732SOL    HW2 5728   8.702   9.921   9.908  0.8251 -0.2990  0.2530
  733SOL     OW 5729  10.229   9.535   4.284 -0.1040  0.4732  0.2432
  733SOL    HW1 5730  10.205   9.517   4.193  1.3198  1.4641 -0.3574
  733SOL    HW2 5731  10.173   9.608   4.310  0.2216  0.8813 -0.1935
  734SOL     OW 5732   1.057   5.010   3.102 -0.2226  0.4603  0.1616
  734SOL    HW1 5733   1.139   5.044   3.067  0.1031  0.0511  0.5142
  734SOL    HW2 5734   1.009   5.088   3.131  0.2533  0.6687  0.4048
  735SOL     OW 5735   2.010   4.355   2.603 -0.2257  0.1933  0.1174
  735SOL    HW1 5736   2.066   4.323   2.533 -0.8508  1.4417 -1.0002
  735SOL    HW2 5737   2.033   4.301   2.679  0.8634 -0.8157 -0.8877
  736SOL     OW 5738   5.723   6.133   4.862 -0.1511  0.3551 -0.0446
  736SOL    HW1 5739   5.762   6.046   4.852  1.4062  0.9601  0.4933
  736SOL    HW2 5740   5.797   6.190   4.885 -1.3888  1.5324  1.1926
  737SOL     OW 5741   5.116  10.390   2.554  0.0277  0.4441 -0.0246
  737SOL    HW1 5742   5.097  10.477   2.589 -1.8531  0.0270  0.1125
  737SOL    HW2 5743   5.030  10.354   2.530  0.7713 -1.3046 -0.2576
  738SOL     OW 5744   9.483   6.901   6.501  0.5436  0.4644  0.1802
  738SOL    HW1 5745   9.468   6.986   6.459 -0.3499 -1.2038 -3.1755
  738SOL    HW2 5746   9.508   6.843   6.430  1.8514 -1.9872  2.4722
  739SOL     OW 5747   0.601   3.288   1.316 -0.2808 -0.1518 -0.0289
  739SOL    HW1 5748   0.507   3.269   1.315 -0.0139 -2.1529  2.7080
  739SOL    HW2 5749   0.611   3.353   1.386  0.2980  0.7616 -0.9401
  740SOL     OW 5750   3.528   8.856   1.814 -0.1006  0.0841  0.0271
  740SOL    HW1 5751   3.435   8.850   1.791 -0.8745  0.0088  2.7424
  740SOL    HW2 5752   3.572   8.883   1.734 -2.2324 -1.4532 -1.7739
  741SOL     OW 5753   1.123  10.070  10.500  0.3292  0.2361  0.3412
  741SOL    HW1 5754   1.101  10.033  10.414 -0.1607  1.2033  0.0405
  741SOL    HW2 5755   1.112  10.164  10.490 -0.7895  0.2981  1.7696
  742SOL     OW 5756   1.175   1.349   4.854 -0.2806 -0.1953 -0.1538
  742SOL    HW1 5757   1.118   1.338   4.777 -0.5958  0.3890 -0.0122
  742SOL    HW2 5758   1.220   1.265   4.862 -1.2164 -0.7250 -0.2015
  743SOL     OW 5759   6.948   1.591   4.889  0.5096  0.4860 -1.0548
  743SOL    HW1 5760   6.930   1.620   4.979 -2.2333 -0.8328 -1.0523
  743SOL    HW2 5761   6.975   1.671   4.843  1.9432  1.1993  0.8894
  744SOL     OW 5762   6.441   1.643   0.380 -0.7009  0.2359 -0.3036
  744SOL    HW1 5763   6.398   1.714   0.333 -0.3426  0.2283 -0.6401
  744SOL    HW2 5764   6.512   1.615   0.323 -1.7505 -1.4152 -0.8803
  745SOL     OW 5765   8.263   8.623   7.799 -0.4448  0.1644 -0.2822
  745SOL    HW1 5766   8.224   8.651   7.882 -1.3617 -2.5860  0.3175
  745SOL    HW2 5767   8.194   8.636   7.734 -0.5796  0.0316 -0.1651
  746SOL     OW 5768   7.743   4.442  10.115  0.5962  0.0927  0.1469
  746SOL    HW1 5769   7.651   4.415  10.120  0.6654 -0.5291 -1.3019
  746SOL    HW2 5770   7.773   4.408  10.030  1.9922  0.8146  0.3233
  747SOL     OW 5771   5.004   8.561   3.836  0.1876  0.9986 -0.5283
  747SOL    HW1 5772   4.931   8.618   3.860 -1.1960 -0.1397 -1.7502
  747SOL    HW2 5773   4.968   8.472   3.843  2.4677  0.1515  2.0250
  748SOL     OW 5774   9.135   2.948   4.464 -0.0920  0.1931  0.1202
  748SOL    HW1 5775   9.141   2.940   4.559 -2.4721 -2.9841  0.1938
  748SOL    HW2 5776   9.082   3.026   4.450 -0.2754  0.3384  1.4613
  749SOL     OW 5777   5.848   1.026   8.811  0.2175  0.0694  0.2844
  749SOL    HW1 5778   5.808   0.939   8.816 -1.5302  0.7295 -1.1699
  749SOL    HW2 5779   5.889   1.038   8.896 -1.3897 -1.3102  1.3263
  750SOL     OW 5780   1.300   0.693   8.831 -0.3384  0.0536  0.2010
  750SOL    HW1 5781   1.241   0.698   8.906 -0.7484 -2.0382  0.0701
  750SOL    HW2 5782   1.261   0.752   8.766 -0.7369  0.8054  1.0981
  751SOL     OW 5783   5.712  10.539   6.808 -0.0296  0.2377 -0.4454
  751SOL    HW1 5784   5.624  10.544   6.846  0.7218  2.5059  1.1585
  751SOL    HW2 5785   5.769  10.516   6.881  0.9474  0.5754 -1.0811
  752SOL     OW 5786   7.120   9.198   3.151 -0.2257 -0.6096 -0.1665
  752SOL    HW1 5787   7.187   9.165   3.210 -1.7655  0.3542  2.2658
  752SOL    HW2 5788   7.143   9.290   3.137 -0.3991 -0.5825 -0.2810
  753SOL     OW 5789   3.203   2.566   7.033 -0.4005 -0.1747 -0.1843
  753SOL    HW1 5790   3.233   2.476   7.021 -1.7976 -0.6361 -0.3587
  753SOL    HW2 5791   3.266   2.619   6.983 -0.1736 -1.1482 -0.9567
  754SOL     OW 5792   6.646   3.646   5.470  0.1181 -0.1093 -0.1347
  754SOL    HW1 5793   6.604   3.568   5.434 -2.3594  0.9651  0.2763
  754SOL    HW2 5794   6.574   3.703   5.496  1.8470  1.4884  1.4437
  755SOL     OW 5795   1.252   7.485   5.391 -0.1322 -0.0241 -0.5050
  755SOL    HW1 5796   1.186   7.490   5.322 -0.1223  1.3503 -0.4486
  755SOL    HW2 5797   1.335   7.475   5.345 -0.3613 -2.1032 -0.5679
  756SOL     OW 5798   7.881   6.404   1.429 -0.2117 -0.2612 -0.0580
  756SOL    HW1 5799   7.903   6.497   1.426  0.6320 -0.4644 -1.3298
  756SOL    HW2 5800   7.959   6.363   1.467 -1.0101 -0.3584  1.5333
  757SOL     OW 5801   0.762   9.114   8.289 -0.2446  0.5055  0.0602
  757SOL    HW1 5802   0.833   9.110   8.353 -0.9705  1.2180  0.9613
  757SOL    HW2 5803   0.739   9.207   8.285 -0.8690  0.3374 -0.4890
  758SOL     OW 5804   1.174   6.812   4.010 -0.2910 -0.1929  0.1566
  758SOL    HW1 5805   1.091   6.801   4.058 -0.4807 -2.3787 -0.5730
  758SOL    HW2 5806   1.234   6.848   4.075 -1.4389  0.1683  1.0662
  759SOL     OW 5807   4.364   7.644   6.223  0.4224  0.2429 -0.5138
  759SOL    HW1 5808   4.302   7.654   6.296  0.1889 -1.3787 -0.4590
  759SOL    HW2 5809   4.331   7.702   6.155  0.5132  1.6138  0.5770
  760SOL     OW 5810   3.849  10.841   3.550  0.0430 -0.6490 -0.0633
  760SOL    HW1 5811   3.860  10.788   3.471  1.2968 -0.8335  0.2058
  760SOL    HW2 5812   3.891  10.790   3.620  0.3158  0.1949  0.4148
  761SOL     OW 5813   2.646  10.475   5.039 -0.6250 -0.1534  0.0075
  761SOL    HW1 5814   2.644  10.571   5.037 -0.5011 -0.1394 -2.2285
  761SOL    HW2 5815   2.660  10.453   5.131  1.8770  2.0217  0.2580
  762SOL     OW 5816   2.102   9.395   0.236 -0.8186  0.6330  0.0221
  762SOL    HW1 5817   2.133   9.316   0.193 -1.6910  0.2192  0.1390
  762SOL    HW2 5818   2.139   9.467   0.184 -1.0632  0.1483 -0.8309
  763SOL     OW 5819   9.291   4.119   3.778  0.2007  0.1304  0.0904
  763SOL    HW1 5820   9.293   4.103   3.872 -2.6099  0.0860  0.2067
  763SOL    HW2 5821   9.254   4.206   3.769  0.0080 -0.0479 -0.9890
  764SOL     OW 5822   2.633  10.221   7.214  0.0014  0.6672 -0.7439
  764SOL    HW1 5823   2.672  10.239   7.129 -1.6689  1.0118 -1.4624
  764SOL    HW2 5824   2.566  10.155   7.197  1.8699 -1.8758  0.8712
  765SOL     OW 5825   8.983   1.730   7.076 -0.5098  0.0892 -0.6552
  765SOL    HW1 5826   9.016   1.818   7.057 -2.2467  1.2431  1.2100
  765SOL    HW2 5827   8.889   1.742   7.088 -0.5501 -1.6732  1.4571
  766SOL     OW 5828   3.758   2.852   2.739 -0.3331 -0.1538 -0.2972
  766SOL    HW1 5829   3.722   2.821   2.822  0.7321 -0.6267  0.0114
  766SOL    HW2 5830   3.744   2.779   2.679 -1.4776  0.3420 -0.6742
  767SOL     OW 5831  10.609   3.848  10.157  0.2294 -0.4483 -0.7013
  767SOL    HW1 5832  10.599   3.753  10.163 -0.5387 -0.4136 -1.2662
  767SOL    HW2 5833  10.530   3.883  10.200  1.5359 -0.0071  1.5466
  768SOL     OW 5834   9.233  10.661   8.117  0.4998 -0.1842  0.6572
  768SOL    HW1 5835   9.169  10.703   8.061 -0.0007  0.1372  1.4524
  768SOL    HW2 5836   9.287  10.609   8.057  0.6405  0.9635 -0.2416
  769SOL     OW 5837   1.671   6.604   4.255  0.0916 -0.6330 -0.3728
  769SOL    HW1 5838   1.707   6.692   4.266 -1.5239 -0.0291  0.4081
  769SOL    HW2 5839   1.621   6.588   4.335  0.0725 -2.1379 -0.6477
  770SOL     OW 5840   4.147   4.452   2.241 -0.0860 -0.2991 -0.1436
  770SOL    HW1 5841   4.232   4.456   2.285 -0.3646  2.2327  0.3186
  770SOL    HW2 5842   4.094   4.395   2.296  1.4017 -2.3704 -0.7233
  771SOL     OW 5843   1.184   2.449   6.546  0.3671 -0.3876 -0.4146
  771SOL    HW1 5844   1.098   2.481   6.577  0.0057  0.4288 -2.1554
  771SOL    HW2 5845   1.171   2.355   6.534  0.6978 -0.8811  2.3464
  772SOL     OW 5846   9.885   0.202  10.556 -0.2574  0.0641  0.2753
  772SOL    HW1 5847   9.800   0.246  10.550 -0.3270 -0.3347 -2.9575
  772SOL    HW2 5848   9.863   0.114  10.588 -0.8831  0.3318  0.6240
  773SOL     OW 5849   3.498   0.872   4.652  0.0692  0.2605 -0.5591
  773SOL    HW1 5850   3.572   0.927   4.625  0.9273 -1.1882 -1.2676
  773SOL    HW2 5851   3.524   0.783   4.629  0.5339 -1.1100  4.1782
  774SOL     OW 5852   3.538   4.064  10.405 -0.2267  0.0766  0.3493
  774SOL    HW1 5853   3.587   4.144  10.425 -0.4092  0.1365  0.5679
  774SOL    HW2 5854   3.475   4.056  10.477  0.5610 -0.8975  0.9566
  775SOL     OW 5855   0.497   7.395   5.089 -0.2625  0.0388 -0.3447
  775SOL    HW1 5856   0.466   7.409   5.179 -0.4723 -0.2095 -0.3794
  775SOL    HW2 5857   0.552   7.472   5.071  1.3036 -0.7747  0.6596
  776SOL     OW 5858   7.962   2.962   9.081  0.3688  0.5198  0.9128
  776SOL    HW1 5859   7.931   2.884   9.034 -1.7333  1.2438  0.9867
  776SOL    HW2 5860   7.901   3.032   9.054  1.0498  1.7011  2.2965
  777SOL     OW 5861   0.592   9.121   6.538 -0.1005 -0.4360 -0.0325
  777SOL    HW1 5862   0.556   9.111   6.626 -0.7648  0.2190 -0.2141
  777SOL    HW2 5863   0.537   9.189   6.498  0.0067 -0.9369 -1.0494
  778SOL     OW 5864   9.319   6.204   0.561 -0.0506  0.1975  0.1958
  778SOL    HW1 5865   9.329   6.147   0.485 -0.1135  0.9206 -0.3730
  778SOL    HW2 5866   9.402   6.252   0.567 -0.7281  1.5668 -0.6446
  779SOL     OW 5867   0.665   4.302   4.843 -0.5549 -0.0753  0.2732
  779SOL    HW1 5868   0.654   4.249   4.764  0.0596  1.2222 -0.7217
  779SOL    HW2 5869   0.599   4.269   4.903 -1.6971 -0.4745 -1.1337
  780SOL     OW 5870   8.933   6.959  11.040 -0.0072 -0.1857  0.4615
  780SOL    HW1 5871   8.844   6.951  11.075 -0.6952  1.1241 -0.8297
  780SOL    HW2 5872   8.930   7.039  10.986  2.3008  0.5971  1.3524
  781SOL     OW 5873   1.299   2.004   8.959 -0.6418 -0.1083 -0.0428
  781SOL    HW1 5874   1.272   1.912   8.958 -0.3338 -0.1941 -0.4251
  781SOL    HW2 5875   1.362   2.009   9.032  0.0441 -0.4059 -0.6001
  782SOL     OW 5876   2.913   4.619  10.094 -0.1795 -0.7723  0.6688
  782SOL    HW1 5877   2.874   4.535  10.117 -0.8624 -0.8141 -0.5518
  782SOL    HW2 5878   2.884   4.635  10.004  0.6698  0.3490  0.5755
  783SOL     OW 5879   4.836   0.554   1.377  0.0437 -0.1884  0.1428
  783SOL    HW1 5880   4.871   0.472   1.342 -1.5730 -0.8847  0.0592
  783SOL    HW2 5881   4.821   0.608   1.300  2.6430  0.9025  0.2933
  784SOL     OW 5882   8.137   3.402   1.229 -0.5946 -0.0580 -0.3752
  784SOL    HW1 5883   8.209   3.361   1.181  0.2322  2.0795 -1.0320
  784SOL    HW2 5884   8.157   3.383   1.321  0.1252 -0.5643 -0.6218
  785SOL     OW 5885   8.141   2.759  11.039  0.8125 -0.8589 -0.0542
  785SOL    HW1 5886   8.221   2.740  11.088  0.8545 -0.3924  0.0582
  785SOL    HW2 5887   8.088   2.812  11.098  0.9843 -0.0566 -0.5952
  786SOL     OW 5888   9.577   0.897   3.430 -0.0159  0.3719 -0.1147
  786SOL    HW1 5889   9.583   0.918   3.524  1.5106  0.5445 -0.2234
  786SOL    HW2 5890   9.527   0.816   3.427 -1.4082  1.1503  0.7279
  787SOL     OW 5891   9.064   1.812   6.081 -0.0609  0.6993 -0.0281
  787SOL    HW1 5892   8.978   1.797   6.119 -0.4160  0.6738 -0.8340
  787SOL    HW2 5893   9.048   1.827   5.988  0.7409  1.3194 -0.0826
  788SOL     OW 5894   2.889   4.976   1.771  0.0622 -0.6409 -0.0953
  788SOL    HW1 5895   2.877   5.004   1.862 -2.2357 -2.6452  0.3284
  788SOL    HW2 5896   2.946   4.899   1.777  1.7214  0.4939 -0.6454
  789SOL     OW 5897   5.467   7.956   5.641  0.3820  0.3075  0.0513
  789SOL    HW1 5898   5.402   7.926   5.577 -0.6854  0.3166  1.1063
  789SOL    HW2 5899   5.549   7.916   5.612 -0.3341 -0.7467 -0.5813
  790SOL     OW 5900   9.672   2.814   4.464 -0.5121 -0.3218 -0.0471
  790SOL    HW1 5901   9.766   2.819   4.452 -0.4187 -1.0632  0.3187
  790SOL    HW2 5902   9.635   2.851   4.384  0.0926 -0.9891 -0.6466
  791SOL     OW 5903   9.396   1.594  11.091 -0.3420 -0.1684  0.0228
  791SOL    HW1 5904   9.385   1.524  11.156  0.6370  0.0296  0.4228
  791SOL    HW2 5905   9.462   1.652  11.129 -0.9462  0.8447 -0.4206
  792SOL     OW 5906   0.865   6.514   8.638 -0.5955  0.0611  0.1545
  792SOL    HW1 5907   0.884   6.423   8.660  0.3604  0.2565  0.1771
  792SOL    HW2 5908   0.894   6.563   8.714 -0.3936  0.4519 -0.1732
  793SOL     OW 5909   3.607  10.250   5.158  0.2607 -0.0463  0.0748
  793SOL    HW1 5910   3.625  10.167   5.202 -1.1498 -0.4296 -0.0390
  793SOL    HW2 5911   3.671  10.253   5.087  0.1124 -1.2072 -0.1296
  794SOL     OW 5912  10.333   1.465   5.967 -0.4413  0.3095 -0.4539
  794SOL    HW1 5913  10.357   1.558   5.968  1.4718 -0.1209  0.5736
  794SOL    HW2 5914  10.259   1.459   6.027 -1.4358  1.3388 -1.5432
  795SOL     OW 5915   8.370   5.708   3.037  0.1594  0.5702  0.2393
  795SOL    HW1 5916   8.452   5.731   3.081  0.4559 -1.0625  0.6320
  795SOL    HW2 5917   8.331   5.641   3.094 -1.9155  1.9552  0.5211
  796SOL     OW 5918   9.381   6.161   0.810  0.0968  0.2606  0.2505
  796SOL    HW1 5919   9.340   6.178   0.726 -1.1337 -0.7194  0.6225
  796SOL    HW2 5920   9.348   6.075   0.836  2.3825 -0.5774  0.6068
  797SOL     OW 5921   0.735   0.271   3.774  0.2608 -0.0976 -0.2144
  797SOL    HW1 5922   0.713   0.348   3.826  0.1833 -1.0275  1.2032
  797SOL    HW2 5923   0.675   0.203   3.806 -0.6563 -0.4086 -2.4263
  798SOL     OW 5924   2.928   1.632  10.169 -0.1863 -0.1313  0.8245
  798SOL    HW1 5925   2.877   1.620  10.250 -0.7105 -0.1503  0.4938
  798SOL    HW2 5926   2.973   1.548  10.157  0.5163  0.1270  1.5129
  799SOL     OW 5927   9.263   7.719   0.960 -0.3389 -0.0678  0.1856
  799SOL    HW1 5928   9.250   7.747   0.870 -0.7056 -0.9473 -0.0500
  799SOL    HW2 5929   9.181   7.740   1.004  0.3512  1.7225  0.7099
  800SOL     OW 5930   8.139   0.599   0.843 -0.3493 -0.4459  0.4069
  800SOL    HW1 5931   8.171   0.649   0.769 -0.4483 -1.6924 -0.5049
  800SOL    HW2 5932   8.046   0.586   0.826 -0.5693  0.0024  1.1969
  801SOL     OW 5933   1.294   5.114   5.922  0.0014 -0.3293 -0.2587
  801SOL    HW1 5934   1.374   5.077   5.885 -0.9440 -1.1876 -1.5389
  801SOL    HW2 5935   1.227   5.047   5.907 -0.9337  0.2923  0.9364
  802SOL     OW 5936  10.634   3.918   3.785 -0.1729  0.4441  0.2201
  802SOL    HW1 5937  10.564   3.912   3.720 -0.6118 -1.5937  0.8270
  802SOL    HW2 5938  10.699   3.853   3.757  1.1708  1.7807  0.0794
  803SOL     OW 5939   6.339   4.253   6.426 -0.2856  0.2934 -0.0932
  803SOL    HW1 5940   6.363   4.235   6.516  1.8329 -0.4305 -0.7473
  803SOL    HW2 5941   6.351   4.348   6.416 -1.1647  0.4755  0.5449
  804SOL     OW 5942   2.600   1.489   8.373  0.3047 -0.1091 -0.3422
  804SOL    HW1 5943   2.565   1.550   8.308  0.8559 -0.7943 -1.3090
  804SOL    HW2 5944   2.553   1.407   8.355  0.7784 -0.4170 -0.1676
  805SOL     OW 5945  10.641   2.940   6.318  0.0886  0.3074 -0.1270
  805SOL    HW1 5946  10.704   2.993   6.367 -0.0217 -0.5526  0.9818
  805SOL    HW2 5947  10.595   3.003   6.263  0.8266  1.1772  0.2103
  806SOL     OW 5948   1.648   5.050   4.059  0.3339 -0.0230  0.0693
  806SOL    HW1 5949   1.595   5.125   4.033 -0.0995 -0.7592 -1.2661
  806SOL    HW2 5950   1.734   5.066   4.019  0.5175  0.1880  0.5393
  807SOL     OW 5951   1.448   8.608   0.538  0.0114 -0.2502  0.0300
  807SOL    HW1 5952   1.429   8.559   0.619 -0.0033 -4.9523 -2.4769
  807SOL    HW2 5953   1.375   8.587   0.480  2.8014 -2.2302 -3.1477
  808SOL     OW 5954   4.766   7.912   5.235 -0.1360 -0.6047 -0.1319
  808SOL    HW1 5955   4.731   7.999   5.256  1.0957  0.2414 -1.4419
  808SOL    HW2 5956   4.715   7.852   5.290 -1.2003  0.9062  0.5988
  809SOL     OW 5957   9.167   8.075   1.529  0.1939 -0.1845 -0.0409
  809SOL    HW1 5958   9.213   8.159   1.529  0.5985 -0.4061 -0.5523
  809SOL    HW2 5959   9.093   8.089   1.470  1.0424 -0.6029 -1.2379
  810SOL     OW 5960   8.295   3.619   7.951  0.1038  0.0117 -0.1935
  810SOL    HW1 5961   8.381   3.586   7.922  0.1606 -1.9414  1.9433
  810SOL    HW2 5962   8.242   3.619   7.871  1.8153  0.4808 -1.4106
  811SOL     OW 5963   1.181   9.664   8.800 -0.2604 -0.3011  0.0493
  811SOL    HW1 5964   1.223   9.730   8.745 -0.8319 -0.5805 -0.7450
  811SOL    HW2 5965   1.252   9.603   8.823  0.3197  0.7090  0.9989
  812SOL     OW 5966  10.530   8.826   7.506  0.2161  0.1555 -0.1928
  812SOL    HW1 5967  10.552   8.855   7.418 -0.1895  1.1127  0.0069
  812SOL    HW2 5968  10.442   8.859   7.521  0.2756 -0.0081  0.5684
  813SOL     OW 5969   6.570   7.049   6.355 -0.7125 -0.0033  0.0695
  813SOL    HW1 5970   6.539   6.963   6.385 -0.9653  0.0182 -0.1328
  813SOL    HW2 5971   6.661   7.033   6.329 -1.3117 -0.6606 -1.8134
  814SOL     OW 5972   0.241   3.363   8.469  0.3256  0.1692  0.4738
  814SOL    HW1 5973   0.292   3.348   8.548  0.4625 -0.5096  0.2673
  814SOL    HW2 5974   0.239   3.458   8.459  0.4462  0.2531  1.1937
  815SOL     OW 5975   0.648   8.893   3.756 -0.3285 -0.1507 -0.2296
  815SOL    HW1 5976   0.603   8.930   3.832 -2.0559 -0.7573 -0.9113
  815SOL    HW2 5977   0.739   8.920   3.767 -0.5194 -0.2653  2.0649
  816SOL     OW 5978   4.025   8.688   5.832 -0.1582 -0.2243 -0.3789
  816SOL    HW1 5979   3.936   8.653   5.831 -0.8124  1.1987 -2.8938
  816SOL    HW2 5980   4.022   8.760   5.896 -1.3138  0.7856 -1.5044
  817SOL     OW 5981   0.406   7.247   9.795  0.4222 -0.5018  0.7208
  817SOL    HW1 5982   0.481   7.237   9.854  0.8073  2.0608  0.7811
  817SOL    HW2 5983   0.444   7.237   9.708  0.8400  0.5863  0.7575
  818SOL     OW 5984   0.021   0.502  10.798  0.6027 -0.2617 -0.3614
  818SOL    HW1 5985   0.092   0.528  10.857 -0.1894  1.6173 -0.1612
  818SOL    HW2 5986  -0.001   0.413  10.824  2.1753 -0.4971  0.2643
  819SOL     OW 5987   5.386   0.545   2.428  0.1531 -0.2794  0.0030
  819SOL    HW1 5988   5.472   0.529   2.468 -0.3781 -0.2179  1.2300
  819SOL    HW2 5989   5.334   0.469   2.453 -0.4663  0.2033  0.2132
  820SOL     OW 5990  10.626   6.368   7.539  0.0568  0.3819  0.2052
  820SOL    HW1 5991  10.573   6.371   7.619  1.3231 -1.4171  1.1878
  820SOL    HW2 5992  10.571   6.408   7.472 -1.0287  2.0324  1.9622
  821SOL     OW 5993   0.203   1.858   1.339  0.2493  0.6805  0.1230
  821SOL    HW1 5994   0.257   1.846   1.260  0.0198  0.5410 -0.0122
  821SOL    HW2 5995   0.117   1.826   1.314  0.9637 -2.7382  1.4890
  822SOL     OW 5996   3.966   9.746   7.876 -0.0444  0.2553  0.5067
  822SOL    HW1 5997   3.980   9.710   7.964  0.6644  0.1520  0.3629
  822SOL    HW2 5998   3.923   9.830   7.890  0.2812  0.3474  0.9699
  823SOL     OW 5999   2.263   8.639   7.479  0.1936 -0.4059 -0.7687
  823SOL    HW1 6000   2.277   8.633   7.385 -0.7158 -1.1631 -0.8690
  823SOL    HW2 6001   2.178   8.597   7.494 -0.0361  0.3833  0.2965
  824SOL     OW 6002   5.818   9.397   7.635  0.2556 -0.6796  0.5695
  824SOL    HW1 6003   5.776   9.364   7.714  0.9427  0.1515  1.3150
  824SOL    HW2 6004   5.870   9.323   7.602 -1.4983 -1.6180 -0.1963
  825SOL     OW 6005   4.476   7.394   4.922 -0.4710 -0.4733 -0.4913
  825SOL    HW1 6006   4.494   7.300   4.924 -2.7855 -0.9602  0.1779
  825SOL    HW2 6007   4.431   7.407   4.838 -3.1468 -0.6379  0.8440
  826SOL     OW 6008   3.619   1.511   9.650  0.5414  0.0754  0.0942
  826SOL    HW1 6009   3.557   1.507   9.577  1.2078  0.7678 -0.5174
  826SOL    HW2 6010   3.648   1.421   9.662  1.5531  0.1721 -1.4773
  827SOL     OW 6011   4.899   8.320   0.199  0.4877  0.2080  0.7601
  827SOL    HW1 6012   4.822   8.264   0.200  0.5111  0.1780  1.1067
  827SOL    HW2 6013   4.932   8.315   0.110 -1.2622  2.0721 -0.0597
  828SOL     OW 6014   8.845  11.018   7.373  0.0281 -0.0455 -0.0858
  828SOL    HW1 6015   8.786  11.072   7.320  1.4754 -0.4167 -2.1813
  828SOL    HW2 6016   8.839  11.056   7.461 -1.0753  1.7633 -0.8741
  829SOL     OW 6017   8.024   2.594   8.257  0.0389 -0.1031 -0.4083
  829SOL    HW1 6018   8.088   2.525   8.273  0.2078  0.4800  1.7550
  829SOL    HW2 6019   7.952   2.575   8.317 -0.8565  0.4860 -1.2435
  830SOL     OW 6020   2.970   8.157   4.947  0.4383 -0.4857 -0.1114
  830SOL    HW1 6021   2.991   8.173   5.039  3.3133 -2.1800 -0.3379
  830SOL    HW2 6022   2.889   8.106   4.949 -0.9354  1.5700  1.2494
  831SOL     OW 6023   8.167   4.500  10.451  0.1313  0.4482  0.4864
  831SOL    HW1 6024   8.243   4.559  10.444  0.9288 -0.4449  1.2647
  831SOL    HW2 6025   8.189   4.442  10.524 -1.4015  0.2863  0.8418
  832SOL     OW 6026   7.908   3.277   2.748 -0.9494 -0.1007 -0.5322
  832SOL    HW1 6027   8.002   3.278   2.727 -0.7706  2.1569  0.1095
  832SOL    HW2 6028   7.870   3.342   2.689 -1.9640 -0.3748 -0.1927
  833SOL     OW 6029   2.289   5.713   4.524 -0.6478  0.3485 -0.0035
  833SOL    HW1 6030   2.354   5.644   4.510  0.2073  1.2655 -0.7649
  833SOL    HW2 6031   2.207   5.676   4.491 -0.3006 -0.4647  0.0300
  834SOL     OW 6032   8.360   6.247   0.647 -0.1979 -0.2079 -0.0228
  834SOL    HW1 6033   8.411   6.198   0.712  1.2867  0.6263 -0.5087
  834SOL    HW2 6034   8.269   6.239   0.677  0.5100  1.0181  2.8040
  835SOL     OW 6035   5.475   2.800  10.678 -0.1594  0.1272  0.1952
  835SOL    HW1 6036   5.491   2.815  10.585  0.5818 -2.9353 -0.2523
  835SOL    HW2 6037   5.390   2.842  10.694 -0.1073  1.0829 -1.7237
  836SOL     OW 6038   9.278   0.674  10.618 -0.0520  0.0699  0.3543
  836SOL    HW1 6039   9.271   0.582  10.643 -0.6914 -0.0548 -0.2576
  836SOL    HW2 6040   9.358   0.705  10.661 -1.0411 -0.1535  2.4746
  837SOL     OW 6041   8.706   4.439   0.380 -0.2538 -0.0903  0.1828
  837SOL    HW1 6042   8.633   4.494   0.409 -0.8476 -0.7805  0.0552
  837SOL    HW2 6043   8.753   4.417   0.461 -2.0271 -2.1759  0.7622
  838SOL     OW 6044   5.888   7.382   1.731  0.1138 -0.1443  0.2954
  838SOL    HW1 6045   5.924   7.457   1.683 -2.9449  0.4455 -1.3405
  838SOL    HW2 6046   5.880   7.413   1.821  2.9785 -0.1519  0.6603
  839SOL     OW 6047   8.532   5.573   6.503 -0.5258  0.1110 -0.5871
  839SOL    HW1 6048   8.510   5.483   6.481  0.6020 -0.0568 -1.0751
  839SOL    HW2 6049   8.449   5.612   6.531 -0.8534 -1.3474  0.5978
  840SOL     OW 6050   5.104   0.119   9.246  0.0794 -0.3372 -0.1900
  840SOL    HW1 6051   5.125   0.157   9.161  0.5529  1.1729  0.5663
  840SOL    HW2 6052   5.158   0.040   9.251  2.2026  1.0362 -0.1796
  841SOL     OW 6053   2.695   2.447   9.368 -0.1070  0.1414  0.0329
  841SOL    HW1 6054   2.674   2.467   9.459  0.8797  1.1868  0.0566
  841SOL    HW2 6055   2.615   2.409   9.332  0.1575 -2.4601  1.9214
  842SOL     OW 6056   0.005   1.129   6.358  0.6933 -0.0155  0.1936
  842SOL    HW1 6057  -0.063   1.146   6.293  0.5438  1.1722  0.6289
  842SOL    HW2 6058   0.065   1.204   6.350  0.1528  0.6762  2.0602
  843SOL     OW 6059   8.182   5.953   8.814  0.5561  0.3307 -0.3698
  843SOL    HW1 6060   8.161   5.897   8.888  1.8185  0.6821  0.2862
  843SOL    HW2 6061   8.129   5.918   8.742 -0.6744 -0.0282  0.6716
  844SOL     OW 6062   3.488   9.255   6.503  0.4389 -0.0980  0.0913
  844SOL    HW1 6063   3.435   9.259   6.583  1.3658  0.3522  0.7023
  844SOL    HW2 6064   3.550   9.184   6.519  0.1734 -0.4690 -0.5197
  845SOL     OW 6065   1.048   1.572   0.504  0.1236 -0.3398  0.2625
  845SOL    HW1 6066   1.066   1.478   0.510 -0.3746 -0.4291  0.4344
  845SOL    HW2 6067   1.105   1.603   0.433  0.6344 -0.6797  0.5201
  846SOL     OW 6068   1.132   7.434   9.877 -0.0176  0.8719  0.1250
  846SOL    HW1 6069   1.105   7.472   9.794  0.3402  0.5814 -0.1280
  846SOL    HW2 6070   1.135   7.507   9.938  0.0931  1.1475 -0.2114
  847SOL     OW 6071   1.529   4.912   7.777  0.5356  0.0215 -0.2637
  847SOL    HW1 6072   1.591   4.944   7.711 -1.9571  0.3650 -2.6516
  847SOL    HW2 6073   1.493   4.832   7.739  1.4532 -1.7491  2.3461
  848SOL     OW 6074   3.645   2.876   3.826  0.1199 -0.0572  0.0880
  848SOL    HW1 6075   3.602   2.950   3.869  0.1721 -0.9420  1.7421
  848SOL    HW2 6076   3.730   2.910   3.798 -0.0626  0.6416  0.3643
  849SOL     OW 6077   4.044   9.948   0.931 -0.0568 -0.2777 -0.1898
  849SOL    HW1 6078   3.984  10.021   0.949 -0.8209 -0.2793 -2.4325
  849SOL    HW2 6079   4.051   9.946   0.835 -0.6592 -3.6006 -0.2793
  850SOL     OW 6080   7.604   2.137   5.390 -0.1511 -0.4209 -0.2240
  850SOL    HW1 6081   7.590   2.212   5.333  3.7469 -0.4546 -1.5421
  850SOL    HW2 6082   7.623   2.175   5.476  0.2123  0.0413 -0.5032
  851SOL     OW 6083   3.686   0.133   3.686  0.0710 -0.4678 -0.1384
  851SOL    HW1 6084   3.612   0.074   3.674 -0.9984  0.7521  0.2495
  851SOL    HW2 6085   3.694   0.142   3.781  0.2979 -0.0756 -0.1939
  852SOL     OW 6086   2.330   2.158   3.509  0.2985 -0.9105  0.8099
  852SOL    HW1 6087   2.337   2.126   3.599 -0.5593  0.9344  1.5901
  852SOL    HW2 6088   2.421   2.169   3.481  0.5948 -0.3574  1.9084
  853SOL     OW 6089   4.256   4.439   8.993 -0.0960 -0.1494 -0.4355
  853SOL    HW1 6090   4.318   4.512   9.001 -0.5540  0.1457  0.7649
  853SOL    HW2 6091   4.177   4.470   9.038 -1.2007 -0.4480 -2.0775
  854SOL     OW 6092   8.350   7.459   1.758  0.5001 -0.1199 -0.0766
  854SOL    HW1 6093   8.405   7.381   1.762 -0.1189 -0.6539 -1.6754
  854SOL    HW2 6094   8.300   7.451   1.677 -1.9318  0.3839  1.2731
  855SOL     OW 6095   6.051   3.650   8.479 -0.1316  0.1794  0.3623
  855SOL    HW1 6096   6.077   3.725   8.425  2.0344 -0.8947 -0.2057
  855SOL    HW2 6097   6.127   3.634   8.535 -1.7337  0.2619  2.6633
  856SOL     OW 6098   7.270   2.127   8.189  0.7452 -0.3130 -0.2211
  856SOL    HW1 6099   7.243   2.217   8.175 -2.0711 -0.5823  2.3093
  856SOL    HW2 6100   7.357   2.121   8.151  0.6521  3.1815 -1.2869
  857SOL     OW 6101   4.934   5.332   1.759  0.1362  0.6937 -0.2164
  857SOL    HW1 6102   4.867   5.299   1.699 -0.2215  0.2903  0.3900
  857SOL    HW2 6103   4.884   5.363   1.835  0.7187 -1.7684  1.2750
  858SOL     OW 6104   9.774   2.725   5.333 -0.0325  0.1632  0.6021
  858SOL    HW1 6105   9.750   2.634   5.320  2.4388 -0.8014  2.1567
  858SOL    HW2 6106   9.826   2.726   5.413  1.7176  2.5879 -0.4170
  859SOL     OW 6107   4.733   7.440  11.058 -0.0515  0.0602  0.5410
  859SOL    HW1 6108   4.646   7.462  11.026  0.6014  0.8263 -0.7969
  859SOL    HW2 6109   4.780   7.524  11.060  0.7543 -0.3872  0.9365
  860SOL     OW 6110   4.625   9.276   0.790 -0.1975 -0.3321 -0.3963
  860SOL    HW1 6111   4.626   9.181   0.777  2.1587 -0.4497  0.1343
  860SOL    HW2 6112   4.657   9.288   0.880  1.0750  0.9703 -0.9799
  861SOL     OW 6113   5.814   4.122   7.415  0.1902  0.3371  0.2816
  861SOL    HW1 6114   5.907   4.100   7.416  0.2175  0.4163 -0.2679
  861SOL    HW2 6115   5.805   4.191   7.482  0.8461  1.5544 -0.8299
  862SOL     OW 6116   4.601   8.722  10.282 -0.1189  0.3747 -0.0893
  862SOL    HW1 6117   4.535   8.789  10.299  0.3987  0.6884  0.7785
  862SOL    HW2 6118   4.569   8.644  10.327 -0.2728  0.2967 -0.3294
  863SOL     OW 6119   4.249   6.354   7.583 -0.1736  0.3982 -0.5535
  863SOL    HW1 6120   4.157   6.349   7.607  0.0131 -0.1456  0.0823
  863SOL    HW2 6121   4.296   6.359   7.666  0.3636  0.8970 -0.8730
  864SOL     OW 6122   5.530   2.120   0.113 -0.4133 -0.1688 -0.4327
  864SOL    HW1 6123   5.516   2.214   0.112  1.2095  0.1196  0.4754
  864SOL    HW2 6124   5.620   2.108   0.084  0.4920 -1.1506  2.3973
  865SOL     OW 6125  10.042   5.398   2.471 -0.4391  0.2190  0.1704
  865SOL    HW1 6126  10.119   5.452   2.451 -1.3890  1.5694  0.0873
  865SOL    HW2 6127   9.969   5.442   2.429 -1.4003 -0.6233  0.8964
  866SOL     OW 6128   3.066   6.639   2.270 -0.2248  0.0237  0.0831
  866SOL    HW1 6129   3.036   6.636   2.179 -2.2461  1.4064  0.6448
  866SOL    HW2 6130   3.011   6.577   2.316  1.0700 -0.9759  0.3455
  867SOL     OW 6131   2.529   0.234  10.512  0.5335 -0.0627 -0.0924
  867SOL    HW1 6132   2.564   0.167  10.571 -0.7749 -2.0671 -1.4853
  867SOL    HW2 6133   2.517   0.311  10.568 -2.4255 -2.3653  2.8209
  868SOL     OW 6134   5.171   4.486   2.524  0.2599  0.3969  0.6948
  868SOL    HW1 6135   5.174   4.521   2.435  0.5658 -0.5578  0.3192
  868SOL    HW2 6136   5.262   4.484   2.552  0.1937  0.4001  0.9126
  869SOL     OW 6137   2.557   5.060   7.537 -0.0692  0.2588  0.5766
  869SOL    HW1 6138   2.539   4.967   7.522 -0.3614  0.5194 -0.8901
  869SOL    HW2 6139   2.528   5.103   7.456  1.7376  1.4071  0.4797
  870SOL     OW 6140  10.061   2.039   0.473 -0.0668  0.6057 -0.6322
  870SOL    HW1 6141  10.026   1.954   0.500  2.0763 -0.3639 -0.7864
  870SOL    HW2 6142   9.995   2.102   0.505 -1.3796 -1.0273  0.0555
  871SOL     OW 6143  11.120   4.716   6.917 -0.4746  0.1946  0.1425
  871SOL    HW1 6144  11.124   4.764   7.000 -0.5013  0.2693  0.1000
  871SOL    HW2 6145  11.118   4.624   6.944 -0.0264  0.2029  0.2117
  872SOL     OW 6146   6.457   5.532   1.031  0.7488  0.4456  0.8272
  872SOL    HW1 6147   6.517   5.588   0.981  1.3309 -0.3775  0.5776
  872SOL    HW2 6148   6.466   5.446   0.991  2.6960 -0.7447  3.5257
  873SOL     OW 6149   2.893   9.584   0.027 -0.0160  0.2949  0.1208
  873SOL    HW1 6150   2.882   9.618   0.115 -0.9120 -0.6912  0.3975
  873SOL    HW2 6151   2.966   9.522   0.034 -0.8148 -0.6404  0.4392
  874SOL     OW 6152   2.888   1.074   7.561  0.3107 -0.1556 -0.0566
  874SOL    HW1 6153   2.972   1.053   7.520  0.1202 -0.2066 -0.4255
  874SOL    HW2 6154   2.901   1.053   7.654  1.1437  1.1219  0.1483
  875SOL     OW 6155   6.804   2.884   4.408 -0.0159  0.0842  0.6072
  875SOL    HW1 6156   6.734   2.923   4.355 -0.2589  0.5627  1.2659
  875SOL    HW2 6157   6.761   2.817   4.460  0.6686 -2.3231 -1.7095
  876SOL     OW 6158   5.034   6.103   4.373  0.2188  0.5324  0.0745
  876SOL    HW1 6159   5.032   6.031   4.436  3.8047 -0.3096 -0.5754
  876SOL    HW2 6160   5.024   6.060   4.288 -0.6065  1.1952 -0.1765
  877SOL     OW 6161   2.841   4.109  10.826  0.0919 -0.3910  0.0066
  877SOL    HW1 6162   2.866   4.106  10.733 -1.3564  0.6154 -0.4649
  877SOL    HW2 6163   2.764   4.053  10.832 -0.8236  0.8245  0.2074
  878SOL     OW 6164   9.801   5.433   9.045 -0.1646 -0.5921 -0.3493
  878SOL    HW1 6165   9.783   5.494   8.973 -0.0045 -0.8785 -0.6404
  878SOL    HW2 6166   9.758   5.352   9.018  1.4067 -1.2669 -1.0138
  879SOL     OW 6167   8.910   6.054  10.454  0.3129 -0.4074 -0.5516
  879SOL    HW1 6168   8.963   6.134  10.451 -0.7082  0.2674 -1.5476
  879SOL    HW2 6169   8.880   6.042  10.364  1.1868 -2.4583 -0.6163
  880SOL     OW 6170   4.258   9.259   6.330 -0.4554  0.1428 -0.1322
  880SOL    HW1 6171   4.211   9.268   6.413 -0.6791  1.2137 -0.3617
  880SOL    HW2 6172   4.199   9.209   6.274 -1.9208  2.4640 -0.8147
  881SOL     OW 6173   9.988   1.983  10.462 -1.1627 -0.0764 -0.5114
  881SOL    HW1 6174   9.949   2.015  10.381 -2.0558  1.1979  0.3732
  881SOL    HW2 6175   9.916   1.938  10.507 -0.7702 -0.4623 -0.2628
  882SOL     OW 6176   9.050   7.213   1.069 -0.1825 -0.3053 -0.4979
  882SOL    HW1 6177   9.052   7.295   1.020 -0.7813 -0.9783 -1.7191
  882SOL    HW2 6178   8.994   7.230   1.144  0.6196  0.7146 -0.1233
  883SOL     OW 6179   2.346   9.191   2.794 -0.3158  0.3729 -0.6202
  883SOL    HW1 6180   2.261   9.148   2.798  0.6096 -1.5330 -0.5436
  883SOL    HW2 6181   2.401   9.132   2.742  1.8719 -0.1098  2.0158
  884SOL     OW 6182   0.862   9.921  10.437  0.0801  0.3722  1.1253
  884SOL    HW1 6183   0.920   9.856  10.476  1.3732  1.3487  0.8826
  884SOL    HW2 6184   0.831   9.879  10.356  3.0702  1.0008 -0.4833
  885SOL     OW 6185   7.677   2.105   3.701 -0.3100 -0.2931 -0.3678
  885SOL    HW1 6186   7.677   2.012   3.724  0.0727 -0.1103  0.3830
  885SOL    HW2 6187   7.645   2.107   3.611 -0.3796 -1.1477 -0.3691
  886SOL     OW 6188   4.924   5.095   2.558  0.2695  0.3512 -0.0866
  886SOL    HW1 6189   4.879   5.022   2.515  0.1340  1.3077 -1.6561
  886SOL    HW2 6190   5.017   5.073   2.549  0.2485  0.5766 -0.9845
  887SOL     OW 6191   6.027   7.263   9.143 -0.2334  0.6482 -0.6374
  887SOL    HW1 6192   6.108   7.277   9.192 -0.7125 -1.0372  0.7586
  887SOL    HW2 6193   5.986   7.349   9.138  0.1347  1.0012  1.4823
  888SOL     OW 6194   0.205   6.898   1.403  0.1684 -0.3277  0.4330
  888SOL    HW1 6195   0.249   6.902   1.488  1.0842 -0.9497  0.0017
  888SOL    HW2 6196   0.154   6.979   1.399  0.1683 -0.2596  1.5453
  889SOL     OW 6197   2.396   7.780   7.777 -0.2360  0.0352  0.3992
  889SOL    HW1 6198   2.327   7.809   7.717 -0.0337  1.3161  0.7667
  889SOL    HW2 6199   2.477   7.793   7.728  0.1341  3.1345  1.5982
  890SOL     OW 6200   9.369   3.525   1.344  0.4535 -0.1623 -0.1843
  890SOL    HW1 6201   9.448   3.513   1.291  1.8012 -1.7807  2.0347
  890SOL    HW2 6202   9.306   3.464   1.306  0.8705 -0.2103 -0.8349
  891SOL     OW 6203   4.284  10.870   9.405  0.6854 -0.6130 -0.1355
  891SOL    HW1 6204   4.271  10.845   9.313  1.9649  1.4725 -0.9539
  891SOL    HW2 6205   4.359  10.818   9.434  0.8815 -0.5809 -0.5768
  892SOL     OW 6206   0.812   9.841   6.629  0.1774  0.0261 -0.3768
  892SOL    HW1 6207   0.760   9.873   6.703 -0.1896  0.0748 -0.6522
  892SOL    HW2 6208   0.866   9.771   6.666  0.2752  0.3066  0.0205
  893SOL     OW 6209   3.496   2.103   1.753  0.0632  0.1638  0.0333
  893SOL    HW1 6210   3.497   2.055   1.670  2.2570  0.5575 -0.2182
  893SOL    HW2 6211   3.414   2.153   1.750 -1.1819 -1.7777 -0.6927
  894SOL     OW 6212   0.256  10.550   6.737  0.0793  0.1738  0.0446
  894SOL    HW1 6213   0.346  10.541   6.768 -0.8780 -1.0818  2.8055
  894SOL    HW2 6214   0.224  10.630   6.777  0.2910  1.3552 -2.0162
  895SOL     OW 6215   8.826   1.752   6.586 -0.2701  0.2815 -0.1613
  895SOL    HW1 6216   8.743   1.724   6.624 -0.5705  0.1698 -0.8763
  895SOL    HW2 6217   8.825   1.716   6.497  0.8180 -0.2377  0.0302
  896SOL     OW 6218   8.836   6.575   0.010  0.2450 -0.2511  0.4697
  896SOL    HW1 6219   8.771   6.506  -0.005 -0.4390  0.7296 -1.3695
  896SOL    HW2 6220   8.920   6.532  -0.005 -0.1028 -0.9845  0.5800
  897SOL     OW 6221   2.413   1.453  10.910 -0.2346 -0.6817 -0.4774
  897SOL    HW1 6222   2.439   1.378  10.963  0.0115  0.5802  1.3186
  897SOL    HW2 6223   2.415   1.422  10.820 -0.1642 -2.8024  0.2106
  898SOL     OW 6224   7.038   2.599  10.429 -0.6707  0.0825  0.5632
  898SOL    HW1 6225   7.121   2.588  10.384 -2.0867 -2.2055 -1.7504
  898SOL    HW2 6226   7.053   2.560  10.516  0.5908 -0.4975  0.1112
  899SOL     OW 6227   6.721   4.298   2.333  0.2064 -0.2160  0.1281
  899SOL    HW1 6228   6.802   4.265   2.295 -0.3437 -0.2573 -1.0602
  899SOL    HW2 6229   6.675   4.340   2.260 -0.4941  0.5031  0.9445
  900SOL     OW 6230  10.291   6.353   5.244 -0.1024  0.0264 -0.4335
  900SOL    HW1 6231  10.223   6.327   5.182 -0.8064 -0.1356  0.3815
  900SOL    HW2 6232  10.366   6.298   5.221 -1.0720 -1.6723  0.2639
  901SOL     OW 6233   0.358   5.291   3.354 -0.1494 -0.1212 -0.1189
  901SOL    HW1 6234   0.377   5.350   3.427  2.3880 -0.0291 -0.7417
  901SOL    HW2 6235   0.378   5.204   3.388 -2.6189 -0.5686  0.3877
  902SOL     OW 6236   4.050   3.504   2.071 -0.3389 -0.2869  0.1222
  902SOL    HW1 6237   3.993   3.474   2.000 -0.4048 -1.9872  0.8339
  902SOL    HW2 6238   4.138   3.483   2.041 -0.2445  0.3205 -0.0441
  903SOL     OW 6239   5.701   3.821  10.986 -0.0459 -0.0886  0.4652
  903SOL    HW1 6240   5.711   3.860  10.899 -2.0990 -1.6940 -0.5780
  903SOL    HW2 6241   5.699   3.727  10.970 -4.0236 -0.3882  1.6667
  904SOL     OW 6242   2.650   2.718   1.850 -0.1212  0.6166 -0.1290
  904SOL    HW1 6243   2.662   2.672   1.934  0.7370  1.0781  0.0151
  904SOL    HW2 6244   2.558   2.745   1.851 -1.1656 -2.4503 -0.9401
  905SOL     OW 6245   4.641   1.033   5.385 -0.8281  0.3598  0.0421
  905SOL    HW1 6246   4.711   1.088   5.419 -1.7193  2.0129 -0.7282
  905SOL    HW2 6247   4.683   0.948   5.370  1.8970  2.0821 -3.4101
  906SOL     OW 6248   8.244   9.731  10.981  0.7529 -0.2128 -0.1213
  906SOL    HW1 6249   8.158   9.701  11.008  0.6410 -1.9206 -2.1137
  906SOL    HW2 6250   8.269   9.797  11.046 -0.9750 -1.4280  1.8705
  907SOL     OW 6251   7.762   3.869   5.338 -0.6941  0.3997 -0.2961
  907SOL    HW1 6252   7.822   3.818   5.283 -1.9819 -0.1842 -1.2356
  907SOL    HW2 6253   7.769   3.830   5.425  0.0825  0.1765 -0.4517
  908SOL     OW 6254   8.449  10.266  10.975  0.6616 -0.8434  0.6742
  908SOL    HW1 6255   8.508  10.251  10.901 -0.4335  1.7797 -0.8819
  908SOL    HW2 6256   8.507  10.294  11.046  1.5154 -0.6273 -0.0805
  909SOL     OW 6257   0.510   7.245   8.142  0.1700  0.5683  0.3237
  909SOL    HW1 6258   0.480   7.174   8.198  0.9646  0.3992  0.5382
  909SOL    HW2 6259   0.558   7.303   8.200 -1.0734  1.6760  0.3034
  910SOL     OW 6260   8.489   2.177   9.572  0.0622  0.0774 -0.2085
  910SOL    HW1 6261   8.518   2.268   9.574  1.3372 -0.3080  1.4705
  910SOL    HW2 6262   8.499   2.146   9.662 -2.1241 -1.2175 -0.3265
  911SOL     OW 6263   1.281   7.556   6.515  0.0056 -0.4402  0.5176
  911SOL    HW1 6264   1.332   7.582   6.591 -0.8795  1.3953  0.5331
  911SOL    HW2 6265   1.213   7.623   6.506 -0.6591 -1.2521 -1.1773
  912SOL     OW 6266   9.912   7.594   6.077  0.1000 -0.0110 -0.6414
  912SOL    HW1 6267   9.877   7.651   6.145  0.9158  0.2463 -0.4296
  912SOL    HW2 6268  10.007   7.599   6.087  0.2337 -0.0908 -1.6952
  913SOL     OW 6269   4.300   0.741   4.767  0.2094 -0.3303 -0.2686
  913SOL    HW1 6270   4.227   0.748   4.705  1.1193 -2.5129 -1.7066
  913SOL    HW2 6271   4.336   0.654   4.752  2.3297  0.1868  1.3221
  914SOL     OW 6272   8.314   9.243   2.210 -0.2703  0.2727  0.3221
  914SOL    HW1 6273   8.292   9.221   2.300 -0.3991 -2.1078 -0.2133
  914SOL    HW2 6274   8.384   9.181   2.187  0.2159  1.2717 -1.0276
  915SOL     OW 6275   2.573   7.783   1.963  0.2924  0.1230  0.0638
  915SOL    HW1 6276   2.596   7.694   1.935  0.2396  0.7148 -2.0763
  915SOL    HW2 6277   2.478   7.781   1.972  0.3675 -0.2351  0.8304
  916SOL     OW 6278   7.543   7.523   7.980 -0.2360 -0.2995 -0.3962
  916SOL    HW1 6279   7.595   7.604   7.980  0.5414 -0.6308  3.1447
  916SOL    HW2 6280   7.600   7.458   8.019 -1.7055 -1.9490 -0.8795
  917SOL     OW 6281   7.686   8.722   0.296 -0.2273 -0.4936 -0.3535
  917SOL    HW1 6282   7.742   8.760   0.228 -2.2828  0.0202 -1.8826
  917SOL    HW2 6283   7.672   8.793   0.359 -1.4650  0.3600 -1.5246
  918SOL     OW 6284  10.768   0.848   6.746  0.3143 -0.5198  0.6272
  918SOL    HW1 6285  10.688   0.845   6.798  1.4826  1.1947  2.6865
  918SOL    HW2 6286  10.780   0.758   6.715 -0.9254 -1.4321  2.5942
  919SOL     OW 6287  10.707   7.454   3.479  0.2074 -0.2505 -0.5793
  919SOL    HW1 6288  10.736   7.505   3.555  0.5482 -0.5966 -0.4747
  919SOL    HW2 6289  10.643   7.392   3.515 -0.4948  0.3456 -0.7686
  920SOL     OW 6290   4.842   0.301  10.742  0.0862 -0.1839  0.9175
  920SOL    HW1 6291   4.822   0.210  10.764  0.3985 -0.8595 -1.2892
  920SOL    HW2 6292   4.909   0.327  10.805 -1.6869 -0.6374  3.1213
  921SOL     OW 6293   1.229   6.451   0.346  0.0565 -0.3234  0.2146
  921SOL    HW1 6294   1.272   6.384   0.292  1.0793  0.6393 -0.1990
  921SOL    HW2 6295   1.147   6.410   0.373  1.0746 -2.0982  0.7670
  922SOL     OW 6296   0.208   0.851   6.507 -0.2467 -0.5954  1.0333
  922SOL    HW1 6297   0.161   0.907   6.445  0.0173  1.1422  2.3242
  922SOL    HW2 6298   0.219   0.905   6.585  0.4888 -2.2975  2.1793
  923SOL     OW 6299  10.788  10.134  10.217 -0.0030  0.0857 -0.1343
  923SOL    HW1 6300  10.781  10.152  10.124  1.0262  1.0598 -0.0473
  923SOL    HW2 6301  10.757  10.044  10.227 -0.1439 -0.0206 -1.4067
  924SOL     OW 6302   7.607   9.822   8.373  0.4991  0.4140  0.1036
  924SOL    HW1 6303   7.591   9.762   8.300  1.8580  0.0028  0.1064
  924SOL    HW2 6304   7.565   9.904   8.347 -0.3527 -0.1859 -0.4436
  925SOL     OW 6305   6.831   8.333   3.811 -0.0527  0.2525 -0.0559
  925SOL    HW1 6306   6.781   8.252   3.803  0.8246 -0.5793  2.1009
  925SOL    HW2 6307   6.922   8.305   3.815  0.2195  1.2076  1.6481
  926SOL     OW 6308   8.464   5.372   8.169 -0.3312 -0.6336  0.2858
  926SOL    HW1 6309   8.509   5.441   8.218  1.3846 -2.1079  0.9035
  926SOL    HW2 6310   8.504   5.374   8.082 -0.9669 -0.2332 -0.0016
  927SOL     OW 6311   7.406   9.818   4.675  0.4369 -0.0822 -0.2087
  927SOL    HW1 6312   7.489   9.863   4.687  0.4986  0.0051 -0.9253
  927SOL    HW2 6313   7.424   9.728   4.701  0.8984 -0.1782 -0.8207
  928SOL     OW 6314  10.133   6.220   0.495  0.3243  0.1126 -0.0910
  928SOL    HW1 6315  10.228   6.220   0.489  0.3454 -2.4900 -1.2925
  928SOL    HW2 6316  10.115   6.188   0.584  0.7523 -3.4503 -1.1149
  929SOL     OW 6317   4.468   2.739   3.609  0.4052  0.2830 -0.5960
  929SOL    HW1 6318   4.390   2.687   3.629  2.2146 -1.9890  1.0660
  929SOL    HW2 6319   4.448   2.826   3.645 -0.5076 -0.9065  2.0742
  930SOL     OW 6320   7.879   8.601   9.203  0.8360 -0.0896  0.2944
  930SOL    HW1 6321   7.964   8.581   9.165  0.6753 -0.2449  0.0154
  930SOL    HW2 6322   7.898   8.667   9.271  1.0764  0.4431 -0.2808
  931SOL     OW 6323   5.358   1.195   7.142  0.0516  0.4238  0.2578
  931SOL    HW1 6324   5.449   1.190   7.113  0.1524 -0.2527  0.6771
  931SOL    HW2 6325   5.349   1.284   7.177  0.5172  0.5311  0.1175
  932SOL     OW 6326   6.331   9.309   8.580  0.0527 -0.2898  0.2542
  932SOL    HW1 6327   6.284   9.365   8.519 -0.1066 -1.2964 -0.5791
  932SOL    HW2 6328   6.421   9.307   8.547 -0.2147 -1.4897 -0.4463
  933SOL     OW 6329   9.473  10.737   4.873  0.1871  0.0791  0.0735
  933SOL    HW1 6330   9.378  10.728   4.859 -0.0196  1.5441  0.3433
  933SOL    HW2 6331   9.493  10.676   4.943 -0.8979  0.9748  1.2047
  934SOL     OW 6332   0.166   8.971  10.346  0.1452 -0.2886 -0.5715
  934SOL    HW1 6333   0.228   8.965  10.419 -0.0909  0.5917 -0.2861
  934SOL    HW2 6334   0.174   8.887  10.300 -2.4674 -2.5357  2.6361
  935SOL     OW 6335   1.485   2.483   3.813  0.1024 -0.0416 -0.0758
  935SOL    HW1 6336   1.480   2.401   3.764  1.5853 -1.1932  1.5919
  935SOL    HW2 6337   1.572   2.518   3.793 -0.1915  0.6901 -0.1039
  936SOL     OW 6338   0.653   9.050   3.413 -0.7544  0.1111  0.5058
  936SOL    HW1 6339   0.700   9.115   3.360  1.1734 -0.9963  0.7611
  936SOL    HW2 6340   0.618   9.100   3.487 -2.3258  1.4346 -1.0616
  937SOL     OW 6341   4.795   7.922   9.133 -0.1295 -0.4769 -0.0401
  937SOL    HW1 6342   4.751   7.839   9.115  1.4303 -0.9835 -1.8651
  937SOL    HW2 6343   4.804   7.925   9.228 -3.4073 -0.6378  0.3928
  938SOL     OW 6344   3.425   1.819   6.275 -0.1320 -0.3708  0.5491
  938SOL    HW1 6345   3.407   1.834   6.368 -0.1485  0.1169  0.4720
  938SOL    HW2 6346   3.413   1.905   6.234  0.9167 -0.3425  0.2646
  939SOL     OW 6347   0.789   0.422   8.887 -0.2620 -0.0278 -0.1840
  939SOL    HW1 6348   0.728   0.495   8.871 -1.7010 -1.3047 -0.7676
  939SOL    HW2 6349   0.811   0.391   8.799  1.5018  0.5817  0.0085
  940SOL     OW 6350   9.855  10.964   4.058 -0.5815  0.0875 -0.4879
  940SOL    HW1 6351   9.851  11.054   4.091 -0.2349 -0.3693  0.8433
  940SOL    HW2 6352   9.926  10.923   4.107 -3.6158 -2.2736  2.3945
  941SOL     OW 6353   5.213   9.546   6.307  0.3197  0.3314 -0.3985
  941SOL    HW1 6354   5.225   9.516   6.217 -0.9196 -1.4485 -0.0285
  941SOL    HW2 6355   5.121   9.527   6.326  0.9478 -0.8714  1.7447
  942SOL     OW 6356   7.509   1.895   4.965  0.4335  0.1027  0.3258
  942SOL    HW1 6357   7.583   1.918   5.022 -0.5288  0.5501  1.4354
  942SOL    HW2 6358   7.543   1.907   4.876  1.9016 -0.3745  0.7858
  943SOL     OW 6359   7.390   2.539   8.346 -0.2074  0.2921  0.8181
  943SOL    HW1 6360   7.376   2.625   8.308  2.0211  0.7897  1.0275
  943SOL    HW2 6361   7.485   2.530   8.353 -0.3632 -2.3294  0.4933
  944SOL     OW 6362   4.315   8.397   6.641  0.1189  0.3053  0.1308
  944SOL    HW1 6363   4.405   8.369   6.658  0.7872  1.8520 -0.6840
  944SOL    HW2 6364   4.321   8.453   6.564 -1.9367 -1.6041 -1.5477
  945SOL     OW 6365   6.372   1.700   1.553  0.1832  0.5285  0.0831
  945SOL    HW1 6366   6.352   1.618   1.508  1.2346  0.2926  0.0221
  945SOL    HW2 6367   6.339   1.769   1.495 -0.6738  0.1580  0.1189
  946SOL     OW 6368   3.528  10.643   2.395  0.0784 -0.2768  0.3186
  946SOL    HW1 6369   3.559  10.643   2.305 -1.4390  1.5385 -0.2589
  946SOL    HW2 6370   3.575  10.716   2.437 -0.2859 -0.1948  0.5916
  947SOL     OW 6371  10.669   0.097   8.308 -0.1360 -0.0464 -0.1444
  947SOL    HW1 6372  10.576   0.074   8.307  0.1117 -1.0882  0.1503
  947SOL    HW2 6373  10.672   0.185   8.269 -1.1260 -0.3991 -1.0567
  948SOL     OW 6374   9.430   9.132  10.831  0.1239  0.4634  0.5879
  948SOL    HW1 6375   9.464   9.207  10.880  2.2354  0.0101 -0.0741
  948SOL    HW2 6376   9.376   9.085  10.894  0.1963  1.5909  1.5267
  949SOL     OW 6377   9.139   3.628   8.213 -0.2832 -0.0382  0.0529
  949SOL    HW1 6378   9.047   3.653   8.213 -0.5298 -0.8771  1.0601
  949SOL    HW2 6379   9.141   3.539   8.180  0.2762  0.2743 -0.7922
  950SOL     OW 6380   9.556   1.465   9.858  0.7994 -0.1768  0.1745
  950SOL    HW1 6381   9.585   1.516   9.933  1.0013 -0.6647  0.4319
  950SOL    HW2 6382   9.467   1.497   9.840  0.6414 -0.2593  0.8047
  951SOL     OW 6383   5.836   7.486   1.984  0.6491  0.4578  0.4480
  951SOL    HW1 6384   5.774   7.559   1.988  1.2678  1.0481 -0.4150
  951SOL    HW2 6385   5.882   7.488   2.068 -1.6190 -1.0479  1.8496
  952SOL     OW 6386   4.330   6.595   1.874 -0.3299 -0.1085  0.0691
  952SOL    HW1 6387   4.353   6.638   1.956  1.6292  0.3981 -0.6853
  952SOL    HW2 6388   4.411   6.550   1.847  0.0212  1.9983 -2.9119
  953SOL     OW 6389   9.029   5.689   6.227 -0.1888 -0.0923 -0.8528
  953SOL    HW1 6390   9.073   5.752   6.284 -0.5151 -0.1409 -0.5424
  953SOL    HW2 6391   8.947   5.669   6.272 -1.4344  1.4284 -2.3291
  954SOL     OW 6392   2.661   7.043  10.741 -0.3657  0.5702 -0.1157
  954SOL    HW1 6393   2.628   7.079  10.823 -0.0358  1.1873 -0.2522
  954SOL    HW2 6394   2.582   7.024  10.690 -0.5542  0.6291  0.1547
  955SOL     OW 6395   8.810   6.543   8.134 -0.4696  0.0882 -0.0278
  955SOL    HW1 6396   8.729   6.575   8.174  1.0127  2.7552  1.0839
  955SOL    HW2 6397   8.856   6.498   8.204  0.4850  1.5820  0.3618
  956SOL     OW 6398   7.518   8.647   7.737  0.4808 -0.6985  0.5246
  956SOL    HW1 6399   7.422   8.643   7.738  0.2401  2.0168  3.3719
  956SOL    HW2 6400   7.545   8.561   7.705 -2.8694 -1.4217 -0.8243
  957SOL     OW 6401   9.508  10.159   9.052  0.3323  0.1604 -0.6661
  957SOL    HW1 6402   9.469  10.232   9.100  0.7356  0.5455 -0.9147
  957SOL    HW2 6403   9.437  10.095   9.044  0.3334 -0.0386  0.6899
  958SOL     OW 6404   0.236   2.443   4.851 -0.2456  0.4157  0.0849
  958SOL    HW1 6405   0.157   2.452   4.798  1.8477 -0.5865 -3.4860
  958SOL    HW2 6406   0.294   2.513   4.821  1.9504 -1.6829 -0.9129
  959SOL     OW 6407   6.829   9.115   0.454 -0.0221 -0.1434  0.3329
  959SOL    HW1 6408   6.916   9.145   0.429 -0.9789  2.2119 -0.4927
  959SOL    HW2 6409   6.791   9.082   0.372 -0.5819  0.6860  0.2519
  960SOL     OW 6410   6.523   6.572   1.075  0.3200 -0.1915 -0.0387
  960SOL    HW1 6411   6.499   6.574   0.983 -0.5864  0.4849  0.2018
  960SOL    HW2 6412   6.441   6.588   1.122  0.6612 -1.0682  0.9038
  961SOL     OW 6413   3.458  10.008  10.670  0.0480  0.1905 -0.0373
  961SOL    HW1 6414   3.539   9.976  10.710 -0.2694 -0.7365 -0.0954
  961SOL    HW2 6415   3.390   9.952  10.707 -0.2064 -1.0925 -2.2356
  962SOL     OW 6416   5.958   9.760  10.861 -0.1777 -0.2348 -0.4042
  962SOL    HW1 6417   5.945   9.701  10.935  0.2252 -0.3475 -0.4238
  962SOL    HW2 6418   5.870   9.788  10.838 -0.3335 -0.4588 -0.0928
  963SOL     OW 6419   7.727   1.289   2.570 -0.6284 -0.1758 -0.2400
  963SOL    HW1 6420   7.797   1.300   2.505  1.1063 -2.5192  1.0902
  963SOL    HW2 6421   7.668   1.225   2.529 -0.6525 -0.0875 -0.3451
  964SOL     OW 6422   5.039   7.703   6.386  0.7373  0.7359  0.5866
  964SOL    HW1 6423   5.103   7.640   6.417  0.5909  0.8542  1.1425
  964SOL    HW2 6424   5.042   7.774   6.450  1.3186  1.5807 -0.3263
  965SOL     OW 6425  10.864   1.685   3.925 -0.0054  0.2126 -0.0158
  965SOL    HW1 6426  10.918   1.617   3.965  2.4518  2.6162  1.0531
  965SOL    HW2 6427  10.917   1.718   3.853 -1.8051  0.0629 -1.4746
  966SOL     OW 6428   6.620  10.298   0.004 -0.0928  0.0089  0.7084
  966SOL    HW1 6429   6.555  10.367   0.020 -1.2007 -1.3313  2.4351
  966SOL    HW2 6430   6.570  10.217   0.006  1.2947 -0.9231 -0.5028
  967SOL     OW 6431  10.215   9.939   9.488  0.6476  0.0333  0.0167
  967SOL    HW1 6432  10.209   9.858   9.438  0.1254 -1.2901  2.0782
  967SOL    HW2 6433  10.124   9.966   9.502  0.6249 -0.8079  1.9270
  968SOL     OW 6434   1.321   3.299  10.380  0.2764 -0.0174 -0.6678
  968SOL    HW1 6435   1.337   3.315  10.287  0.1385  0.4730 -0.6064
  968SOL    HW2 6436   1.404   3.321  10.423  0.1614  0.2938 -0.6096
  969SOL     OW 6437   0.260   0.077   5.561 -0.6017 -0.4311  0.2625
  969SOL    HW1 6438   0.263   0.029   5.644  0.9671 -1.6260 -0.4270
  969SOL    HW2 6439   0.174   0.057   5.525 -0.4145 -1.8435  0.5296
  970SOL     OW 6440   6.457   7.578   2.192  0.2851 -0.2170  0.2422
  970SOL    HW1 6441   6.410   7.610   2.270 -0.3163  0.3729 -0.3502
  970SOL    HW2 6442   6.394   7.522   2.148  0.5278 -0.3209  0.0284
  971SOL     OW 6443   6.114   7.437   9.777  0.3971  0.2009  0.7699
  971SOL    HW1 6444   6.084   7.482   9.698 -2.4775  0.5058  1.9046
  971SOL    HW2 6445   6.050   7.368   9.791  1.4177 -0.4902  2.2912
  972SOL     OW 6446   1.119   7.896   6.836  0.1733  0.4568 -0.2607
  972SOL    HW1 6447   1.102   7.898   6.742 -1.1975  0.9213 -0.0271
  972SOL    HW2 6448   1.086   7.981   6.868 -0.0456  0.0098  0.7391
  973SOL     OW 6449   9.515   0.203  10.068  0.0844 -0.0471  0.0073
  973SOL    HW1 6450   9.595   0.254  10.061 -0.1023  0.1740 -0.5821
  973SOL    HW2 6451   9.444   0.266  10.057 -0.2567  0.1257  2.6483
  974SOL     OW 6452  10.964   9.824   7.936  0.1126 -0.1702  0.2463
  974SOL    HW1 6453  11.027   9.896   7.934 -0.5448  0.4018 -0.5409
  974SOL    HW2 6454  11.007   9.756   7.988  1.5696  0.0137 -0.6706
  975SOL     OW 6455   7.103   2.933   9.200 -0.5459  0.3488  0.1425
  975SOL    HW1 6456   7.071   2.931   9.110 -0.1490  0.8072 -0.0100
  975SOL    HW2 6457   7.036   2.982   9.248  0.1420  1.7302 -0.2696
  976SOL     OW 6458  10.163   8.499   0.650 -0.5613  0.1445 -0.3908
  976SOL    HW1 6459  10.101   8.439   0.610 -0.9381  0.6843 -0.6248
  976SOL    HW2 6460  10.118   8.583   0.652  0.1340  0.5308 -0.5110
  977SOL     OW 6461   5.266   2.974   1.049 -0.4875  0.7956  0.2982
  977SOL    HW1 6462   5.244   2.885   1.075  1.0994 -0.1404 -1.3660
  977SOL    HW2 6463   5.344   2.996   1.101  0.5630  0.2536 -0.9831
  978SOL     OW 6464   6.098   0.531   5.712 -0.0870  0.1680  0.4000
  978SOL    HW1 6465   6.101   0.444   5.673  2.0888  0.4907 -0.3043
  978SOL    HW2 6466   6.115   0.590   5.638  0.2884  1.0483  1.1774
  979SOL     OW 6467   0.459   1.490   5.602  0.2454 -0.5433  0.2995
  979SOL    HW1 6468   0.525   1.545   5.561  0.6146 -0.9562  0.3284
  979SOL    HW2 6469   0.421   1.440   5.530 -1.4187  1.0782 -0.0166
  980SOL     OW 6470   7.447   9.330   1.689 -0.7740 -0.7659  0.0477
  980SOL    HW1 6471   7.375   9.386   1.715  0.6704  0.7104  1.1081
  980SOL    HW2 6472   7.518   9.390   1.667  0.3644 -2.1627 -0.3008
  981SOL     OW 6473   0.622   4.650   9.080 -0.6409 -0.4567  0.1039
  981SOL    HW1 6474   0.666   4.655   9.165  0.3193  1.5026 -0.4388
  981SOL    HW2 6475   0.599   4.741   9.060  0.0553 -0.7182 -2.1499
  982SOL     OW 6476   5.590   5.215   8.107  0.5411 -0.1468 -0.3699
  982SOL    HW1 6477   5.500   5.185   8.094  0.3060  0.5894 -0.4966
  982SOL    HW2 6478   5.601   5.285   8.042  0.7164  0.7753  0.6281
  983SOL     OW 6479   1.943   7.669   1.813  0.5926 -0.3124  0.0233
  983SOL    HW1 6480   1.896   7.648   1.893  0.6436 -0.3356  0.0474
  983SOL    HW2 6481   1.877   7.664   1.744 -0.0855  2.3047  0.3697
  984SOL     OW 6482   0.061   2.466   2.726  0.1732  0.0727  0.0846
  984SOL    HW1 6483   0.123   2.517   2.674  0.9922 -0.2478  0.7201
  984SOL    HW2 6484   0.090   2.376   2.716  0.2563 -0.0069  0.9731
  985SOL     OW 6485   0.287   9.279   8.709 -0.2913  0.2022 -0.7987
  985SOL    HW1 6486   0.290   9.374   8.724  4.9459  0.0335  1.0267
  985SOL    HW2 6487   0.313   9.269   8.617  1.5786  0.5708 -0.3461
  986SOL     OW 6488   1.624   8.260  10.558 -0.3161  0.3137 -0.0745
  986SOL    HW1 6489   1.548   8.240  10.503  0.9488 -0.7121 -1.5459
  986SOL    HW2 6490   1.691   8.290  10.496  0.8722  0.0096  1.0186
  987SOL     OW 6491   5.650   1.547   6.487  0.2061  0.4298 -0.3272
  987SOL    HW1 6492   5.739   1.560   6.453 -0.2384 -0.7607 -2.1202
  987SOL    HW2 6493   5.594   1.597   6.428 -0.5627 -1.3525 -1.2045
  988SOL     OW 6494   7.010   9.576   1.838  0.0351 -0.7761 -0.0723
  988SOL    HW1 6495   6.984   9.500   1.891 -0.8208  0.8478  1.9360
  988SOL    HW2 6496   6.929   9.603   1.794 -0.0588  0.0101  0.5827
  989SOL     OW 6497   3.308   3.100   4.160 -0.5505  0.2727 -0.2293
  989SOL    HW1 6498   3.289   3.191   4.182 -1.6715 -0.2753  1.2175
  989SOL    HW2 6499   3.225   3.066   4.127  0.5363  0.4727 -3.5013
  990SOL     OW 6500   9.403   5.790   3.599 -0.0193 -0.1685 -0.1128
  990SOL    HW1 6501   9.351   5.870   3.612  0.3868  0.4180 -1.8962
  990SOL    HW2 6502   9.475   5.798   3.662 -0.5123  0.3852  0.3975
  991SOL     OW 6503  10.061   3.218  10.563 -0.0523 -0.0898  0.2321
  991SOL    HW1 6504  10.109   3.232  10.482  1.0854 -0.5389  0.8001
  991SOL    HW2 6505  10.002   3.145  10.545 -1.4454  1.2617 -0.8465
  992SOL     OW 6506   4.403   9.511   8.918 -0.0288  0.0439 -0.3801
  992SOL    HW1 6507   4.433   9.480   9.003 -0.6717  3.2137  1.1452
  992SOL    HW2 6508   4.331   9.453   8.895 -0.6252 -0.1857  1.8590
  993SOL     OW 6509   8.168   3.183   7.681 -0.0795  0.1121 -0.0634
  993SOL    HW1 6510   8.142   3.232   7.759 -3.6750  4.1067 -3.2391
  993SOL    HW2 6511   8.092   3.128   7.661  0.4179 -0.2060 -1.1717
  994SOL     OW 6512   6.750   2.140   7.749 -0.9436  0.0237  0.1971
  994SOL    HW1 6513   6.786   2.107   7.667 -1.6570  1.2854 -0.6489
  994SOL    HW2 6514   6.741   2.062   7.804 -0.5675 -0.8647 -0.9637
  995SOL     OW 6515   0.075   3.910   7.263  0.3422  0.0286 -0.5130
  995SOL    HW1 6516   0.093   4.001   7.290  0.3127 -0.3633  0.8929
  995SOL    HW2 6517   0.036   3.869   7.340 -2.4642 -0.4103 -2.0401
  996SOL     OW 6518   5.655  10.730   4.276 -0.2229  0.5596 -0.2007
  996SOL    HW1 6519   5.709  10.714   4.198  0.3470 -0.8520  0.4499
  996SOL    HW2 6520   5.712  10.707   4.350 -1.0532  0.9944  0.5999
  997SOL     OW 6521   6.006   0.641   4.704 -0.1687 -0.3666 -0.8176
  997SOL    HW1 6522   6.034   0.557   4.666 -0.2656 -1.2003  0.8763
  997SOL    HW2 6523   5.979   0.619   4.793  1.6600  1.7553  0.3576
  998SOL     OW 6524   2.658   1.788   1.882  0.2153  0.2219 -0.6203
  998SOL    HW1 6525   2.704   1.708   1.905  0.0780  0.0541 -0.9258
  998SOL    HW2 6526   2.706   1.857   1.927  0.5549  0.0088 -0.6519
  999SOL     OW 6527   3.735   8.613   4.251 -0.1110 -0.1273  0.3066
  999SOL    HW1 6528   3.706   8.551   4.184 -1.4438 -1.4702  1.9931
  999SOL    HW2 6529   3.790   8.675   4.205  0.0105 -1.6770 -1.7866
 1000SOL     OW 6530   3.124   6.095   5.818 -0.3191 -0.3580  0.2103
 1000SOL    HW1 6531   3.104   6.036   5.891 -0.5316  0.5155  0.8797
 1000SOL    HW2 6532   3.216   6.080   5.799 -0.2508 -0.5669  0.6969
 1001SOL     OW 6533   4.691   6.991   1.228 -0.4044  0.4213 -0.3405
 1001SOL    HW1 6534   4.688   7.067   1.286 -0.8313 -0.0365  0.2648
 1001SOL    HW2 6535   4.607   6.947   1.242 -0.5947  0.4005 -1.4616
 1002SOL     OW 6536   0.379   9.457  10.688 -0.0201 -0.1735 -0.3631
 1002SOL    HW1 6537   0.430   9.538  10.685 -2.7025  1.6819  0.3649
 1002SOL    HW2 6538   0.348   9.451  10.779 -1.1203 -1.1778 -0.7767
 1003SOL     OW 6539   5.184   4.138   5.029 -0.3291 -0.1252  0.0673
 1003SOL    HW1 6540   5.209   4.210   5.087  2.5908 -1.3948  0.5628
 1003SOL    HW2 6541   5.240   4.149   4.952 -0.2121 -1.5239 -0.0687
 1004SOL     OW 6542   8.096   2.624   2.098  0.3204 -0.1475 -0.6868
 1004SOL    HW1 6543   8.050   2.575   2.030  1.8182 -1.7963 -0.5789
 1004SOL    HW2 6544   8.062   2.713   2.090 -1.9632 -1.0098 -1.3685
 1005SOL     OW 6545   8.669   0.276   5.771 -0.1451 -0.1791 -0.0397
 1005SOL    HW1 6546   8.688   0.268   5.678 -2.1100 -1.3160 -0.3979
 1005SOL    HW2 6547   8.732   0.342   5.803  0.3777  0.4478 -2.1980
 1006SOL     OW 6548   5.848   5.907   7.989 -0.1794 -0.0908  0.2579
 1006SOL    HW1 6549   5.837   5.979   8.051 -2.4420 -0.4984  0.4147
 1006SOL    HW2 6550   5.901   5.842   8.036 -1.7830 -0.3623  1.7946
 1007SOL     OW 6551   4.260  10.272   6.258 -0.2296  0.7272 -0.4684
 1007SOL    HW1 6552   4.165  10.271   6.268 -0.2268  0.7815 -0.4342
 1007SOL    HW2 6553   4.290  10.343   6.314 -0.1052  0.2557  0.0739
 1008SOL     OW 6554   2.299   7.342   3.199  0.2829  0.4085  0.4216
 1008SOL    HW1 6555   2.354   7.386   3.133 -1.0209  1.8308  0.2272
 1008SOL    HW2 6556   2.211   7.345   3.162  0.1435 -2.7015  0.2961
 1009SOL     OW 6557   7.566   3.439   2.643 -0.2291  0.3655 -0.3198
 1009SOL    HW1 6558   7.556   3.367   2.581 -2.1190 -2.4983  2.9986
 1009SOL    HW2 6559   7.478   3.475   2.654 -0.0279  0.4763  1.0588
 1010SOL     OW 6560   3.368   8.903   8.158 -0.0751  0.1631 -0.0611
 1010SOL    HW1 6561   3.272   8.912   8.158 -0.0716  0.5760  1.7047
 1010SOL    HW2 6562   3.399   8.978   8.209  1.0242 -1.3013  1.4968
 1011SOL     OW 6563   9.311   4.041   7.787  0.2061 -0.0678 -0.1601
 1011SOL    HW1 6564   9.370   4.085   7.848 -0.9712  1.1802  0.1193
 1011SOL    HW2 6565   9.317   4.092   7.707 -0.3301 -0.0427 -0.1904
 1012SOL     OW 6566   4.155   0.728   3.837  0.6357 -0.3589  0.2222
 1012SOL    HW1 6567   4.075   0.689   3.800  1.3959 -0.3295 -1.5204
 1012SOL    HW2 6568   4.224   0.666   3.814  1.2879  0.1641  0.7545
 1013SOL     OW 6569   6.413   2.623   5.244 -0.4284  0.1273  0.3936
 1013SOL    HW1 6570   6.477   2.555   5.263  0.3289  0.6841 -0.0894
 1013SOL    HW2 6571   6.463   2.691   5.199 -1.2779  0.7611  0.3772
 1014SOL     OW 6572   7.705   4.224   9.515  0.5889 -0.3099  0.3423
 1014SOL    HW1 6573   7.798   4.206   9.521  1.1050  0.9551 -2.2566
 1014SOL    HW2 6574   7.700   4.320   9.518 -0.3852 -0.2721 -1.5396
 1015SOL     OW 6575  10.579  10.028   1.427  0.3358 -0.4163 -0.1030
 1015SOL    HW1 6576  10.639   9.972   1.478  0.9799  0.5856  0.2687
 1015SOL    HW2 6577  10.518  10.063   1.491 -1.9301 -2.9047 -0.7251
 1016SOL     OW 6578   1.390   2.192   3.074  0.7396  0.5427 -0.4015
 1016SOL    HW1 6579   1.475   2.154   3.050  0.8618  0.7844 -0.3566
 1016SOL    HW2 6580   1.396   2.283   3.047  0.0263  0.2637 -1.5474
 1017SOL     OW 6581   0.870   5.978   1.025  0.7924  0.4873 -0.5334
 1017SOL    HW1 6582   0.903   5.993   0.936  0.5566  0.1002 -0.6888
 1017SOL    HW2 6583   0.789   6.030   1.029 -0.5809 -1.4590 -1.4186
 1018SOL     OW 6584   4.148   1.676   6.325 -0.4928  0.1031  0.0176
 1018SOL    HW1 6585   4.186   1.739   6.263 -0.9103 -0.3383 -0.7029
 1018SOL    HW2 6586   4.137   1.596   6.274  0.4042 -0.6990  1.0292
 1019SOL     OW 6587   1.785   9.063   3.078  0.0124  0.1314 -0.6043
 1019SOL    HW1 6588   1.697   9.068   3.039 -0.8060 -1.1009  0.9825
 1019SOL    HW2 6589   1.770   9.067   3.172  1.6343 -0.5941 -0.2838
 1020SOL     OW 6590   6.612   5.550   0.034  0.6325 -0.2228 -0.2775
 1020SOL    HW1 6591   6.567   5.577   0.115 -0.7563  0.5708 -1.2687
 1020SOL    HW2 6592   6.632   5.633  -0.010  1.2264 -0.6589 -0.8323
 1021SOL     OW 6593   2.440   2.064   7.417 -0.1995  0.0848 -0.7065
 1021SOL    HW1 6594   2.525   2.046   7.459 -0.1111 -0.1670 -0.9858
 1021SOL    HW2 6595   2.392   1.982   7.426 -0.4739  0.2787 -0.4082
 1022SOL     OW 6596   1.869   2.736   7.153 -0.0287 -0.1383  0.0258
 1022SOL    HW1 6597   1.832   2.650   7.133  2.3214 -1.4479  0.9823
 1022SOL    HW2 6598   1.948   2.741   7.100  1.0768  0.4385  1.6546
 1023SOL     OW 6599   1.542   6.626   0.579  0.6783 -0.5217 -0.2051
 1023SOL    HW1 6600   1.481   6.657   0.512  1.3228  0.6722 -0.2661
 1023SOL    HW2 6601   1.610   6.580   0.529  2.3846  2.3013 -0.7108
 1024SOL     OW 6602   1.746   9.650   3.660  0.0414 -0.0709 -0.4335
 1024SOL    HW1 6603   1.838   9.654   3.689  0.0201  0.3435 -0.4085
 1024SOL    HW2 6604   1.702   9.717   3.712 -0.7186 -1.6654  1.0516
 1025SOL     OW 6605   7.429   4.900   3.726 -0.0627  0.2086  0.2480
 1025SOL    HW1 6606   7.410   4.818   3.771 -0.7541  1.0959  1.6555
 1025SOL    HW2 6607   7.505   4.936   3.771 -1.0840  1.3643  1.1556
 1026SOL     OW 6608   7.728   5.900   3.585 -0.2351  0.3136  0.1099
 1026SOL    HW1 6609   7.789   5.827   3.572  0.0484  0.3532  1.1479
 1026SOL    HW2 6610   7.777   5.978   3.556 -0.1499  0.2304  0.0275
 1027SOL     OW 6611   6.084   7.937   8.015  0.2838 -0.1767  0.8131
 1027SOL    HW1 6612   6.034   7.936   7.934 -0.5113 -0.8978  1.2904
 1027SOL    HW2 6613   6.094   7.844   8.037  1.4406 -0.0285  0.9730
 1028SOL     OW 6614   0.364   8.787   4.006  0.5703 -0.4740 -0.1058
 1028SOL    HW1 6615   0.313   8.735   3.943 -1.4237  0.4794  0.6329
 1028SOL    HW2 6616   0.327   8.875   4.000  0.9097 -0.1646  1.7757
 1029SOL     OW 6617   2.035   2.956   0.043  0.3638 -0.3848  0.1301
 1029SOL    HW1 6618   2.063   2.908   0.121  1.7269  0.0488 -0.0735
 1029SOL    HW2 6619   2.049   2.896  -0.030  0.1337 -0.3906  0.0878
 1030SOL     OW 6620   4.190   8.157   9.235 -0.1323 -0.2378  0.1837
 1030SOL    HW1 6621   4.115   8.183   9.182  0.6184 -0.8404 -1.2417
 1030SOL    HW2 6622   4.241   8.237   9.246 -1.0354  0.2075  1.2858
 1031SOL     OW 6623  10.592   3.063   8.323 -0.2392 -0.0551  0.0469
 1031SOL    HW1 6624  10.526   3.082   8.256  0.0970  0.8435 -0.0490
 1031SOL    HW2 6625  10.569   2.976   8.356 -0.5485 -0.4064 -1.0643
 1032SOL     OW 6626   8.664   3.270   8.695  0.1718  0.0879  0.1309
 1032SOL    HW1 6627   8.608   3.274   8.617 -2.5198 -0.4197  1.9297
 1032SOL    HW2 6628   8.710   3.187   8.686 -1.1932 -0.6596 -0.2438
 1033SOL     OW 6629   9.200   5.048   7.634 -0.0292  0.2108 -0.0153
 1033SOL    HW1 6630   9.217   5.062   7.541 -0.1768 -0.6264 -0.1720
 1033SOL    HW2 6631   9.223   4.956   7.650  0.0335  0.3554  0.7828
 1034SOL     OW 6632   3.698   8.887   5.405 -0.2117 -0.0047  0.6090
 1034SOL    HW1 6633   3.637   8.957   5.429 -0.5738 -0.1363  0.0930
 1034SOL    HW2 6634   3.691   8.823   5.477 -2.0661 -0.8981 -0.3056
 1035SOL     OW 6635   9.913   1.622   3.064  0.2575 -0.8357 -0.3362
 1035SOL    HW1 6636   9.991   1.654   3.109 -1.0002  0.2034  1.2204
 1035SOL    HW2 6637   9.895   1.688   2.997  0.3508 -0.7330 -0.2606
 1036SOL     OW 6638   9.329  10.403   6.293 -0.0324  0.5258  0.7993
 1036SOL    HW1 6639   9.274  10.334   6.331  0.6992 -1.7639 -1.9422
 1036SOL    HW2 6640   9.294  10.416   6.205  1.0084  2.3918  0.6154
 1037SOL     OW 6641   8.760   4.193   5.237  0.4681  0.3297  0.6332
 1037SOL    HW1 6642   8.726   4.256   5.174  2.3818  2.0492  1.1795
 1037SOL    HW2 6643   8.852   4.217   5.247  1.2809 -2.5266  0.9815
 1038SOL     OW 6644   3.377   3.221   7.358  0.1818 -0.1530 -0.0643
 1038SOL    HW1 6645   3.314   3.193   7.291  1.5508  2.6252 -2.7726
 1038SOL    HW2 6646   3.326   3.277   7.417 -0.1776  1.4906 -1.8101
 1039SOL     OW 6647   6.312   3.498   2.493 -0.3927 -0.2993  0.7295
 1039SOL    HW1 6648   6.385   3.536   2.542  0.9051 -0.0845 -1.2496
 1039SOL    HW2 6649   6.353   3.462   2.414 -2.5199  0.5731 -0.8543
 1040SOL     OW 6650   9.880   9.805   3.163  0.0850  0.1962  0.4361
 1040SOL    HW1 6651   9.888   9.841   3.251  1.0697 -1.8741  1.2653
 1040SOL    HW2 6652   9.963   9.759   3.148 -0.8032 -1.1086 -0.7828
 1041SOL     OW 6653  10.639   3.452   0.335 -0.0325 -0.1582  0.8861
 1041SOL    HW1 6654  10.730   3.451   0.364 -0.3571  0.9303  2.0060
 1041SOL    HW2 6655  10.625   3.540   0.300 -0.2435 -0.7905 -0.7434
 1042SOL     OW 6656   6.640   9.673   8.266  0.1061  0.5306  0.2706
 1042SOL    HW1 6657   6.720   9.641   8.308 -0.6552  1.7780  2.8486
 1042SOL    HW2 6658   6.570   9.621   8.304 -0.4222 -0.4322 -1.8455
 1043SOL     OW 6659   3.010   8.982   5.390  0.1410  0.2311 -0.0746
 1043SOL    HW1 6660   2.952   8.959   5.462 -1.1203  1.5791 -0.6216
 1043SOL    HW2 6661   2.997   9.075   5.376  0.3673  0.0233 -2.0218
 1044SOL     OW 6662   1.077   5.861   0.708 -0.2031  0.1763  0.3808
 1044SOL    HW1 6663   1.030   5.944   0.709 -1.3816 -0.4796  0.2111
 1044SOL    HW2 6664   1.128   5.862   0.789  0.0762  1.2108  0.2112
 1045SOL     OW 6665   6.265   5.480  10.388 -0.0530 -0.5120 -0.0147
 1045SOL    HW1 6666   6.343   5.480  10.332  0.1237  0.1175  0.2202
 1045SOL    HW2 6667   6.218   5.400  10.364  0.5861 -0.8181 -0.2689
 1046SOL     OW 6668   5.139   9.254   5.518  0.5410 -0.5420  0.1725
 1046SOL    HW1 6669   5.182   9.290   5.440  0.8035 -0.2106  0.4659
 1046SOL    HW2 6670   5.184   9.296   5.591  0.2437 -0.7942  0.5013
 1047SOL     OW 6671   9.081   3.600  10.190 -0.7438 -0.0451  0.4336
 1047SOL    HW1 6672   9.106   3.558  10.272  0.4021 -1.2243 -0.4593
 1047SOL    HW2 6673   9.103   3.692  10.202  1.7443 -0.5899  0.6413
 1048SOL     OW 6674   5.184   1.478   1.995  0.5310 -0.3369 -0.3016
 1048SOL    HW1 6675   5.163   1.448   1.907  0.7954 -1.7559  0.0897
 1048SOL    HW2 6676   5.147   1.566   2.000  0.3293 -0.3151 -1.7508
 1049SOL     OW 6677   9.851   2.410   1.918 -0.2085  0.3348  0.2184
 1049SOL    HW1 6678   9.817   2.349   1.984 -0.6176  1.1320  0.7679
 1049SOL    HW2 6679   9.938   2.376   1.897  0.7450  1.0842  2.5872
 1050SOL     OW 6680  11.063  10.942   1.471  0.2182  0.0192 -0.1222
 1050SOL    HW1 6681  11.083  10.850   1.487 -0.8263  0.1393  2.2910
 1050SOL    HW2 6682  11.023  10.942   1.384 -3.0565 -2.4498  1.1419
 1051SOL     OW 6683  10.249   8.697   2.053  0.3718  0.3271 -0.3369
 1051SOL    HW1 6684  10.276   8.653   2.133 -0.8373  0.4845  0.1882
 1051SOL    HW2 6685  10.170   8.745   2.078  0.3846  0.9592 -1.4514
 1052SOL     OW 6686   3.003   4.362   8.999 -0.1914  0.8348  0.0434
 1052SOL    HW1 6687   2.994   4.355   8.904 -0.8059  1.1902  0.0737
 1052SOL    HW2 6688   2.948   4.435   9.024 -2.3646 -1.0139  1.0089
 1053SOL     OW 6689   8.414   2.361  10.633  0.1155  0.1690  0.0297
 1053SOL    HW1 6690   8.472   2.329  10.565 -2.4939 -0.5987 -2.0149
 1053SOL    HW2 6691   8.439   2.452  10.646  2.3624 -0.3889  0.0105
 1054SOL     OW 6692   0.953   5.109   6.728  0.6764  0.5784  0.2202
 1054SOL    HW1 6693   0.969   5.047   6.800  0.8464  1.4172  0.9201
 1054SOL    HW2 6694   0.860   5.100   6.709  0.7174  0.0415  0.2456
 1055SOL     OW 6695   8.573   0.921   9.714  0.2997  0.2795 -0.1548
 1055SOL    HW1 6696   8.613   0.919   9.627  2.0221 -1.0721  0.6158
 1055SOL    HW2 6697   8.524   0.839   9.720  1.2788 -0.2668  0.6149
 1056SOL     OW 6698   9.256   1.494   5.302  0.6428  0.1209 -0.1994
 1056SOL    HW1 6699   9.270   1.588   5.293 -1.2614  0.4723  0.1222
 1056SOL    HW2 6700   9.313   1.468   5.375  1.8583  0.8287 -0.8693
 1057SOL     OW 6701   7.082   8.660  10.780  0.1650 -0.3137  0.0402
 1057SOL    HW1 6702   7.151   8.726  10.783 -1.7026  1.7014  1.5008
 1057SOL    HW2 6703   7.009   8.699  10.828 -3.4174 -0.7046 -4.4484
 1058SOL     OW 6704   2.271   3.692   7.760  0.4875 -0.2131 -0.2250
 1058SOL    HW1 6705   2.321   3.613   7.781  0.0678  0.1649  2.6547
 1058SOL    HW2 6706   2.334   3.763   7.765  0.7533 -0.2267 -2.2963
 1059SOL     OW 6707   9.374   0.970   5.156 -0.0213  0.2783 -0.0722
 1059SOL    HW1 6708   9.310   0.915   5.201  1.3906 -2.0388 -0.7675
 1059SOL    HW2 6709   9.371   1.053   5.203  0.1225 -1.4103  3.1787
 1060SOL     OW 6710   9.921  10.599   0.874 -0.1570  0.1901  0.6166
 1060SOL    HW1 6711  10.012  10.604   0.900 -0.1658  0.3618  0.6186
 1060SOL    HW2 6712   9.890  10.514   0.906  0.0753  0.0149  0.3791
 1061SOL     OW 6713   0.630  11.031   3.705  0.2666 -0.4739  0.2889
 1061SOL    HW1 6714   0.640  11.079   3.788  0.7278 -1.0267  0.5600
 1061SOL    HW2 6715   0.556  10.972   3.721 -0.0020 -0.1926  0.1108
 1062SOL     OW 6716   6.104   8.242   2.621  0.3029  0.1804  0.3742
 1062SOL    HW1 6717   6.067   8.292   2.549  0.8760  3.0705  1.9491
 1062SOL    HW2 6718   6.035   8.241   2.687  0.2245 -1.3800  0.3058
 1063SOL     OW 6719   4.002   0.352   1.859  0.9706  0.3392 -0.0317
 1063SOL    HW1 6720   4.008   0.325   1.951  1.6153 -0.1465 -0.2035
 1063SOL    HW2 6721   4.087   0.326   1.821  0.9067  0.9934 -0.6415
 1064SOL     OW 6722   4.088  10.971   2.281  0.1486  0.0880  0.1329
 1064SOL    HW1 6723   4.155  10.910   2.252  0.6458  0.4187  0.5553
 1064SOL    HW2 6724   4.121  11.004   2.365  1.3522  3.1255 -1.3851
 1065SOL     OW 6725   3.486   1.574   8.287 -0.1225  0.2203 -0.0077
 1065SOL    HW1 6726   3.552   1.505   8.301 -0.0885  0.2199 -0.1691
 1065SOL    HW2 6727   3.537   1.655   8.287 -0.2583  0.3180  0.9823
 1066SOL     OW 6728   1.700   0.845   9.783 -0.3555  0.7914  0.2262
 1066SOL    HW1 6729   1.629   0.900   9.749 -0.6630 -0.4573 -1.3117
 1066SOL    HW2 6730   1.776   0.903   9.787 -1.2810  1.9711  1.2048
 1067SOL     OW 6731  10.814   4.764   8.496 -0.0565  0.2870  0.0926
 1067SOL    HW1 6732  10.800   4.752   8.590  1.4164  0.2843  0.3302
 1067SOL    HW2 6733  10.735   4.809   8.466 -1.6251 -1.7761  0.8701
 1068SOL     OW 6734   5.365   9.630   2.383  0.3931  0.0586  0.0664
 1068SOL    HW1 6735   5.394   9.599   2.297  1.2398 -0.2682  0.4593
 1068SOL    HW2 6736   5.445   9.652   2.430 -0.0790  0.6181  0.6389
 1069SOL     OW 6737   3.070  10.999   9.186  0.1950 -0.2803 -0.5195
 1069SOL    HW1 6738   3.093  10.915   9.227  2.8664 -0.4610 -2.1910
 1069SOL    HW2 6739   3.132  11.061   9.223 -0.6423  0.6247 -0.6053
 1070SOL     OW 6740   9.596   9.571   6.959 -0.4559  0.1461 -0.4382
 1070SOL    HW1 6741   9.653   9.643   6.930 -0.6422  0.4797  0.0180
 1070SOL    HW2 6742   9.515   9.584   6.910 -0.6697  0.5461  0.0088
 1071SOL     OW 6743   5.437   0.747   3.973  0.5675 -0.4979 -0.4743
 1071SOL    HW1 6744   5.432   0.743   3.877  2.3073 -0.6916 -0.6022
 1071SOL    HW2 6745   5.416   0.659   4.002 -0.4617 -0.3152 -0.6319
 1072SOL     OW 6746   6.847   0.970   5.284  0.4877 -0.1620 -0.2081
 1072SOL    HW1 6747   6.809   1.022   5.213 -0.6857  0.5258  0.8633
 1072SOL    HW2 6748   6.872   0.888   5.243 -0.0894  0.2397 -1.4327
 1073SOL     OW 6749   5.406   1.385   7.358 -0.1580 -0.4870  0.3301
 1073SOL    HW1 6750   5.490   1.430   7.363 -0.7427  0.7810 -0.5132
 1073SOL    HW2 6751   5.343   1.449   7.392 -1.2500  0.0708 -2.4770
 1074SOL     OW 6752   6.715   6.283   1.494 -0.1598  0.3560 -0.0650
 1074SOL    HW1 6753   6.714   6.374   1.465 -1.6742  0.3772 -0.0380
 1074SOL    HW2 6754   6.782   6.281   1.563 -1.6966  2.0386  1.6164
 1075SOL     OW 6755   1.091   9.540   3.052 -0.5126  0.4048  0.1983
 1075SOL    HW1 6756   1.154   9.475   3.082  0.5676  1.1514 -0.3457
 1075SOL    HW2 6757   1.113   9.554   2.960 -1.7674  0.3829 -0.1260
 1076SOL     OW 6758   1.954   8.337   7.621 -0.0601 -0.3615 -0.1714
 1076SOL    HW1 6759   1.917   8.370   7.539  0.9504  2.1144  0.2789
 1076SOL    HW2 6760   2.033   8.291   7.595  0.8259  1.3063 -0.5914
 1077SOL     OW 6761   6.550  10.349  10.609 -0.7263 -0.5473 -0.7660
 1077SOL    HW1 6762   6.609  10.422  10.589 -0.3076 -1.0213 -1.2891
 1077SOL    HW2 6763   6.576  10.320  10.696 -3.5666  2.5326  1.3884
 1078SOL     OW 6764   2.119   4.845   9.883  0.0119 -0.1385 -0.4356
 1078SOL    HW1 6765   2.206   4.856   9.845 -0.0284 -1.0009 -0.8100
 1078SOL    HW2 6766   2.084   4.934   9.890  0.7072  0.1709 -0.7931
 1079SOL     OW 6767   4.010   5.327   8.478 -0.3471 -0.4141 -0.1002
 1079SOL    HW1 6768   3.957   5.403   8.501  0.1738  0.0506 -0.4230
 1079SOL    HW2 6769   4.083   5.362   8.428 -0.6895 -1.2373 -1.2332
 1080SOL     OW 6770   8.209   4.626  11.061  0.2594  0.1253  0.2900
 1080SOL    HW1 6771   8.242   4.540  11.086 -1.5287 -1.0649 -1.2348
 1080SOL    HW2 6772   8.259   4.649  10.983  0.8661  0.5812  0.8021
 1081SOL     OW 6773   4.795   2.240   2.673 -0.4616  0.1609  0.1814
 1081SOL    HW1 6774   4.873   2.291   2.650  1.3367 -2.3443  0.1733
 1081SOL    HW2 6775   4.826   2.178   2.739 -2.1290 -1.6965 -0.6499
 1082SOL     OW 6776   1.223   4.876   7.950 -0.9435 -0.1940  0.3815
 1082SOL    HW1 6777   1.220   4.857   8.043 -1.9030  1.2480  0.6660
 1082SOL    HW2 6778   1.282   4.951   7.942  1.7905 -2.2738 -0.5869
 1083SOL     OW 6779   1.191   2.077   6.767  0.7347 -0.8965  0.0247
 1083SOL    HW1 6780   1.178   2.129   6.688  0.5005 -1.0427 -0.0364
 1083SOL    HW2 6781   1.136   2.120   6.833 -2.0398 -2.8363 -0.8186
 1084SOL     OW 6782   9.433  10.537   7.939 -0.2291 -0.7410  0.1562
 1084SOL    HW1 6783   9.505  10.541   7.876 -2.2221 -0.6244 -2.2881
 1084SOL    HW2 6784   9.401  10.447   7.935  0.8803 -1.3323  2.6686
 1085SOL     OW 6785  10.937   0.988   3.508 -0.1065  0.0893 -0.4269
 1085SOL    HW1 6786  10.925   1.072   3.553  2.2478  0.1488  0.2277
 1085SOL    HW2 6787  11.002   0.942   3.561  0.2467 -1.2622 -1.9648
 1086SOL     OW 6788   1.619  10.488   1.543  0.7787  0.1319 -0.1702
 1086SOL    HW1 6789   1.558  10.416   1.526  0.1916 -0.4690  3.5874
 1086SOL    HW2 6790   1.572  10.566   1.515 -0.7609 -0.5350  0.4330
 1087SOL     OW 6791   5.970   0.413   0.873  0.0763 -0.5570  0.7465
 1087SOL    HW1 6792   5.900   0.455   0.823  0.3361 -0.6014  0.3451
 1087SOL    HW2 6793   6.043   0.475   0.870 -0.2302 -0.0986  1.9275
 1088SOL     OW 6794   8.499   1.567   3.209  0.0247 -0.0965  0.3412
 1088SOL    HW1 6795   8.517   1.607   3.123  0.5946  0.7287  0.8281
 1088SOL    HW2 6796   8.411   1.597   3.231 -0.1307 -0.3258  0.0343
 1089SOL     OW 6797   2.003   0.497   9.448 -0.3147 -0.3996 -0.3356
 1089SOL    HW1 6798   1.969   0.586   9.452 -0.2364 -0.3209 -1.2871
 1089SOL    HW2 6799   2.028   0.477   9.538 -1.1036  0.2326  0.0313
 1090SOL     OW 6800   8.904   7.933  10.775 -0.4421  0.5027  0.2724
 1090SOL    HW1 6801   8.945   8.014  10.743  0.3333 -0.7361 -2.1038
 1090SOL    HW2 6802   8.978   7.878  10.802 -0.9592  0.5206  1.7955
 1091SOL     OW 6803  10.253  10.838   5.260  0.1892 -0.2829  0.0514
 1091SOL    HW1 6804  10.204  10.833   5.178  2.0466  1.3491 -1.2538
 1091SOL    HW2 6805  10.263  10.932   5.277  2.3633 -0.5397  0.5042
 1092SOL     OW 6806   9.462   4.663   7.755  0.1688  0.3594 -0.0535
 1092SOL    HW1 6807   9.438   4.606   7.827 -1.9688  0.9460 -0.2479
 1092SOL    HW2 6808   9.447   4.611   7.676  0.2592  0.4998 -0.1644
 1093SOL     OW 6809  10.264   7.111   4.235  0.1805  0.1137 -0.5426
 1093SOL    HW1 6810  10.198   7.045   4.260 -2.4575  2.2294 -1.4705
 1093SOL    HW2 6811  10.265   7.109   4.140  1.8169 -0.1419 -0.5400
 1094SOL     OW 6812   8.227   7.954   0.973  0.5929 -0.2400  0.2492
 1094SOL    HW1 6813   8.137   7.971   0.947  0.6638 -0.4162 -0.1087
 1094SOL    HW2 6814   8.232   7.859   0.983  1.0040 -0.3286 -0.7183
 1095SOL     OW 6815  10.043   2.782   0.790 -0.0210  0.4690 -0.0132
 1095SOL    HW1 6816   9.948   2.767   0.782 -0.3915  2.2643  0.7377
 1095SOL    HW2 6817  10.081   2.721   0.727 -1.7334  0.4027 -1.0611
 1096SOL     OW 6818  10.238  10.763   6.691 -0.2787  0.1468  0.0020
 1096SOL    HW1 6819  10.212  10.784   6.602  0.7820  1.6850  0.0131
 1096SOL    HW2 6820  10.225  10.669   6.699 -0.4129 -0.0057 -1.7495
 1097SOL     OW 6821   8.495   8.293   8.843  0.2567 -0.2928 -0.0615
 1097SOL    HW1 6822   8.508   8.371   8.789 -0.8222 -0.5186 -0.6583
 1097SOL    HW2 6823   8.414   8.309   8.892 -0.1041 -1.1229 -0.3575
 1098SOL     OW 6824   9.982   8.746   9.396 -0.1126 -0.4542  0.0483
 1098SOL    HW1 6825   9.953   8.778   9.310 -1.0334  0.3989  0.6612
 1098SOL    HW2 6826  10.078   8.748   9.390 -0.1408  0.9609 -0.5013
 1099SOL     OW 6827   6.443   2.297  10.305 -0.5029 -1.2190 -0.2819
 1099SOL    HW1 6828   6.522   2.302  10.251 -0.8125 -0.1038 -0.6626
 1099SOL    HW2 6829   6.381   2.356  10.262 -0.3009  0.8512  2.0269
 1100SOL     OW 6830   2.309   8.593   1.985  0.0566  0.0927 -0.0819
 1100SOL    HW1 6831   2.240   8.646   2.024  1.1431 -0.6253  3.1473
 1100SOL    HW2 6832   2.365   8.656   1.940 -0.8674  1.1323  0.1785
 1101SOL     OW 6833   3.217   0.235  10.255  0.3136  0.2582 -0.5292
 1101SOL    HW1 6834   3.146   0.271  10.201  0.4912  0.2662 -0.7595
 1101SOL    HW2 6835   3.196   0.142  10.264 -0.8351  0.6251  1.1286
 1102SOL     OW 6836   4.737   6.391   0.535 -0.0793  0.1798  0.2017
 1102SOL    HW1 6837   4.643   6.377   0.548  0.0645 -2.0752 -0.6811
 1102SOL    HW2 6838   4.777   6.366   0.618 -0.2011  0.1442  0.2499
 1103SOL     OW 6839   6.544   1.290   2.934 -0.3976 -0.0565  0.4230
 1103SOL    HW1 6840   6.488   1.277   3.011 -0.7157  0.0410  0.2088
 1103SOL    HW2 6841   6.633   1.273   2.966 -0.6647 -1.5285  0.4430
 1104SOL     OW 6842   9.342   0.012   7.956  0.5578  0.1912  0.5577
 1104SOL    HW1 6843   9.263   0.066   7.957  0.7494  0.5022  2.4852
 1104SOL    HW2 6844   9.392   0.043   7.880 -0.5670  0.8652  0.0702
 1105SOL     OW 6845   8.493   9.906   8.679  0.5921 -0.2262  0.2859
 1105SOL    HW1 6846   8.438   9.866   8.746  0.0693  2.1466  1.3508
 1105SOL    HW2 6847   8.569   9.848   8.674 -0.8766 -2.3013  0.4456
 1106SOL     OW 6848   1.923   2.163   9.354  0.6679  0.0042  0.3812
 1106SOL    HW1 6849   1.886   2.084   9.314  2.2865 -1.0748  0.9124
 1106SOL    HW2 6850   1.881   2.167   9.441 -0.3630  0.4719 -0.1213
 1107SOL     OW 6851   6.205   6.151   9.051  0.1929  0.1965 -0.1374
 1107SOL    HW1 6852   6.163   6.157   8.965 -0.4857  0.8064  0.2269
 1107SOL    HW2 6853   6.212   6.057   9.068 -1.3617  0.0704 -0.0487
 1108SOL     OW 6854   6.547   6.051   1.774 -0.4360 -0.0471 -0.4173
 1108SOL    HW1 6855   6.536   6.056   1.679  0.6932  0.2420 -0.5412
 1108SOL    HW2 6856   6.621   5.992   1.786 -1.2433 -0.9258  0.3332
 1109SOL     OW 6857   0.318  10.190   5.868  0.2964 -0.0430 -0.1356
 1109SOL    HW1 6858   0.339  10.096   5.870  0.2586 -0.0776 -0.9690
 1109SOL    HW2 6859   0.381  10.226   5.805 -0.7844  0.1997 -1.1117
 1110SOL     OW 6860   4.129   1.141   0.200 -0.0094  0.4028 -0.5332
 1110SOL    HW1 6861   4.223   1.148   0.219  0.2840  2.7702 -2.3969
 1110SOL    HW2 6862   4.113   1.207   0.133 -3.0615  0.1079 -0.2382
 1111SOL     OW 6863   1.863   3.974   4.794 -0.3037  0.0564 -0.1184
 1111SOL    HW1 6864   1.851   3.886   4.831  0.9269  0.0804  0.3722
 1111SOL    HW2 6865   1.782   4.020   4.816 -1.3809 -1.2134 -1.2069
 1112SOL     OW 6866   3.997   1.740  10.914 -0.5032 -0.1148 -0.2223
 1112SOL    HW1 6867   4.047   1.659  10.927  0.2749  0.4726  0.5723
 1112SOL    HW2 6868   4.040   1.804  10.971 -1.4182  0.7310 -0.4559
 1113SOL     OW 6869   0.524   5.113   3.577  0.1065  0.0414  0.5674
 1113SOL    HW1 6870   0.458   5.057   3.618 -0.6696 -0.2672 -1.0175
 1113SOL    HW2 6871   0.597   5.054   3.557  0.8689  0.3656  2.2403
 1114SOL     OW 6872   2.333   5.518  10.323  0.3800  0.4717  0.8221
 1114SOL    HW1 6873   2.240   5.506  10.341  1.0290 -3.1928  2.6240
 1114SOL    HW2 6874   2.349   5.610  10.345 -2.7652  1.2312  0.4162
 1115SOL     OW 6875   8.134   2.192   0.059 -0.2307 -0.2364 -0.3798
 1115SOL    HW1 6876   8.073   2.197   0.132 -0.1832  0.4274 -0.3804
 1115SOL    HW2 6877   8.079   2.200  -0.019 -0.0820  1.2721 -0.3671
 1116SOL     OW 6878   2.909   3.820   8.707  0.5303  0.0712  0.5048
 1116SOL    HW1 6879   2.977   3.836   8.772  0.0697 -1.3897  1.4158
 1116SOL    HW2 6880   2.887   3.727   8.718  1.4543 -0.6607 -2.7623
 1117SOL     OW 6881   4.997   9.736   6.071 -0.5747  0.6600  0.4042
 1117SOL    HW1 6882   4.962   9.706   6.155 -1.9227  1.1445  0.0423
 1117SOL    HW2 6883   5.003   9.831   6.080  0.5795  0.6001  0.4134
 1118SOL     OW 6884   4.181   3.832   7.137  0.8375 -0.0940 -0.7965
 1118SOL    HW1 6885   4.255   3.866   7.188  0.9475 -0.6947 -0.5559
 1118SOL    HW2 6886   4.210   3.747   7.105 -0.3893 -1.1918  0.8387
 1119SOL     OW 6887   2.601   1.569   6.687 -0.1380  0.4197  0.1152
 1119SOL    HW1 6888   2.681   1.520   6.707 -0.4003  0.0822  0.3256
 1119SOL    HW2 6889   2.537   1.538   6.751 -0.8688 -0.3737 -0.9813
 1120SOL     OW 6890   8.340   6.511   6.192  0.8254  0.4148 -0.3181
 1120SOL    HW1 6891   8.374   6.469   6.271  0.5171 -0.7946 -0.7954
 1120SOL    HW2 6892   8.287   6.583   6.224  1.3480  0.4305  0.5435
 1121SOL     OW 6893   9.885   1.429   3.385  0.3566 -0.0325 -0.4047
 1121SOL    HW1 6894   9.843   1.415   3.300 -0.9366 -1.5799  0.4398
 1121SOL    HW2 6895   9.855   1.516   3.413 -0.6427 -0.2561 -0.7498
 1122SOL     OW 6896   6.080   4.669   1.388  0.4125 -0.0767 -0.2704
 1122SOL    HW1 6897   5.991   4.634   1.394  0.2668  0.3875  0.5451
 1122SOL    HW2 6898   6.069   4.757   1.353  0.3165  0.7519  1.7225
 1123SOL     OW 6899   7.939   7.989  10.969 -0.4244  0.3374  0.1791
 1123SOL    HW1 6900   7.944   8.041  10.889 -0.1437 -1.6227 -1.1526
 1123SOL    HW2 6901   7.873   8.033  11.022 -1.9871  0.7217 -1.9212
 1124SOL     OW 6902   8.266   8.404   3.083  0.2586  0.3429 -0.4008
 1124SOL    HW1 6903   8.184   8.424   3.039  0.7942  0.6070 -1.3096
 1124SOL    HW2 6904   8.244   8.332   3.143 -1.3071  2.3920  1.6396
 1125SOL     OW 6905   4.456   9.365   4.739 -0.9954 -0.6287  0.9793
 1125SOL    HW1 6906   4.483   9.340   4.827 -0.5356  0.6936  1.2333
 1125SOL    HW2 6907   4.371   9.408   4.752 -2.5522 -3.2875  0.3763
 1126SOL     OW 6908   7.106   4.496   1.608  0.1885 -0.1111 -0.8936
 1126SOL    HW1 6909   7.181   4.521   1.661  1.4980 -0.4248 -2.5161
 1126SOL    HW2 6910   7.143   4.469   1.524 -1.5816 -2.0518 -1.1444
 1127SOL     OW 6911   8.351   1.896   2.454  0.0166 -0.6121  0.1079
 1127SOL    HW1 6912   8.333   1.898   2.360  0.6714 -0.9874 -0.0283
 1127SOL    HW2 6913   8.446   1.898   2.460 -0.0095 -1.0565  0.7541
 1128SOL     OW 6914   2.812   5.613   8.981 -0.8401  0.5089  0.2755
 1128SOL    HW1 6915   2.766   5.680   9.030  1.6953  1.7582  1.1250
 1128SOL    HW2 6916   2.888   5.658   8.943  1.0236 -1.8375  0.9492
 1129SOL     OW 6917   6.686   9.574   3.624 -0.0606 -0.5646  0.4017
 1129SOL    HW1 6918   6.598   9.563   3.590 -0.1177 -0.8692  0.6436
 1129SOL    HW2 6919   6.688   9.522   3.704  0.2321 -0.2807  0.5850
 1130SOL     OW 6920   0.931  11.066   8.079  0.1039 -0.3002 -0.6120
 1130SOL    HW1 6921   0.927  11.076   7.984  1.0125  2.0062 -0.4702
 1130SOL    HW2 6922   1.025  11.071   8.099 -0.1853  1.4013  0.5443
 1131SOL     OW 6923   3.491   8.794   3.487 -0.1900 -0.5095 -0.6222
 1131SOL    HW1 6924   3.519   8.885   3.498 -0.4881 -0.3957 -0.7879
 1131SOL    HW2 6925   3.535   8.765   3.408 -0.2734 -0.4343 -0.6971
 1132SOL     OW 6926   2.277   2.416   6.598  0.5728 -0.1437 -0.0852
 1132SOL    HW1 6927   2.236   2.484   6.652 -0.2377  1.1057 -2.1499
 1132SOL    HW2 6928   2.208   2.350   6.587  0.3773  0.1125 -0.4293
 1133SOL     OW 6929   8.265   8.363   2.638 -0.0629 -0.3451  0.3173
 1133SOL    HW1 6930   8.171   8.383   2.644  0.2998  0.8727  3.4764
 1133SOL    HW2 6931   8.283   8.307   2.713  1.6411 -1.1402 -0.6406
 1134SOL     OW 6932   6.338   2.524   7.051  0.0874  0.0455  0.0603
 1134SOL    HW1 6933   6.263   2.469   7.073  0.1586 -0.1714 -0.2245
 1134SOL    HW2 6934   6.321   2.607   7.095 -1.0263  0.4985 -1.1229
 1135SOL     OW 6935   6.684   2.475   5.597  0.1174  0.3422 -0.8342
 1135SOL    HW1 6936   6.638   2.395   5.572 -1.1940  0.1594  1.7607
 1135SOL    HW2 6937   6.746   2.447   5.664  1.6682  1.1298 -1.8832
 1136SOL     OW 6938   2.642   2.130   5.874 -0.2659 -0.6168 -0.4299
 1136SOL    HW1 6939   2.705   2.200   5.891  0.5686 -1.1286 -1.3200
 1136SOL    HW2 6940   2.594   2.160   5.796 -1.4479 -0.0249  0.5024
 1137SOL     OW 6941   8.483   1.065   6.744  0.6130 -0.3275 -0.2286
 1137SOL    HW1 6942   8.447   1.128   6.682  1.6242  0.0162 -0.4949
 1137SOL    HW2 6943   8.410   1.043   6.802 -0.9106 -2.1700 -2.6841
 1138SOL     OW 6944   9.934   0.935   2.780 -0.1822 -0.5600  0.5396
 1138SOL    HW1 6945  10.013   0.985   2.798 -1.0132  0.3592  1.8126
 1138SOL    HW2 6946   9.919   0.883   2.859 -0.9069 -0.6312  0.3629
 1139SOL     OW 6947   9.479   1.806   2.629 -0.6795  0.0915 -0.1270
 1139SOL    HW1 6948   9.388   1.819   2.656 -0.3905  0.8428  0.5450
 1139SOL    HW2 6949   9.530   1.841   2.702  0.1728 -1.7341  0.2141
 1140SOL     OW 6950   2.308   0.858   3.294 -0.3410 -0.4522 -0.1614
 1140SOL    HW1 6951   2.401   0.866   3.273 -0.4585  0.9121 -0.2936
 1140SOL    HW2 6952   2.264   0.910   3.226 -1.0439  0.4375  0.9291
 1141SOL     OW 6953   8.473   1.140   8.578 -0.3605  0.7126  0.3594
 1141SOL    HW1 6954   8.434   1.222   8.609 -0.2779 -0.1356  2.9236
 1141SOL    HW2 6955   8.399   1.083   8.559 -0.4452  0.3563  1.6489
 1142SOL     OW 6956   2.434   3.345   7.113  0.3597  0.1249 -0.3659
 1142SOL    HW1 6957   2.475   3.425   7.080  1.2824 -0.9613 -1.9520
 1142SOL    HW2 6958   2.355   3.335   7.061 -0.7870  0.9711  1.1254
 1143SOL     OW 6959   9.106   8.889   4.592  0.2733 -0.2326 -0.0340
 1143SOL    HW1 6960   9.040   8.881   4.660  1.3583  0.4753  1.1393
 1143SOL    HW2 6961   9.136   8.980   4.597 -0.7134  0.3303 -2.5341
 1144SOL     OW 6962   4.660   3.046   2.819 -0.3903  0.1918 -0.1168
 1144SOL    HW1 6963   4.572   3.011   2.834 -0.7851  1.4108  0.4680
 1144SOL    HW2 6964   4.685   3.011   2.733 -1.0162 -1.0055  0.1673
 1145SOL     OW 6965   0.769   3.297   4.754 -0.1243  1.0338 -0.5110
 1145SOL    HW1 6966   0.675   3.296   4.737 -0.2958  1.2391  0.3818
 1145SOL    HW2 6967   0.782   3.231   4.822  0.5612  0.1368 -1.4766
 1146SOL     OW 6968  10.435   2.688   5.243 -0.0534  0.3019 -0.0772
 1146SOL    HW1 6969  10.508   2.677   5.303  1.0853  0.3762 -1.3838
 1146SOL    HW2 6970  10.357   2.683   5.298  0.9352  0.4370  1.3888
 1147SOL     OW 6971   7.365   0.759   3.321 -0.0929  0.3279  0.2064
 1147SOL    HW1 6972   7.374   0.664   3.326 -0.6919  0.2209 -0.5716
 1147SOL    HW2 6973   7.455   0.792   3.325  0.1889 -0.3311 -0.5589
 1148SOL     OW 6974   6.905   9.541   4.270  1.0405  0.4305  0.0549
 1148SOL    HW1 6975   6.916   9.456   4.226  1.5258  0.1829  0.6307
 1148SOL    HW2 6976   6.811   9.558   4.266  1.0582  0.3734 -0.9847
 1149SOL     OW 6977   3.829   5.658   8.090 -0.2448  0.4565 -0.0461
 1149SOL    HW1 6978   3.870   5.744   8.095 -0.5647  0.6978 -1.2730
 1149SOL    HW2 6979   3.879   5.604   8.151  0.5163  1.2835  0.0816
 1150SOL     OW 6980   0.805   0.006  11.013 -0.1591  0.2912 -0.4486
 1150SOL    HW1 6981   0.717  -0.029  11.023 -0.9980  2.2257 -0.5194
 1150SOL    HW2 6982   0.794   0.101  11.024  1.8740  0.6029 -0.7306
 1151SOL     OW 6983   6.027   4.255   2.343  0.3501 -0.4983 -0.1634
 1151SOL    HW1 6984   5.973   4.320   2.299 -0.6277 -1.2500 -0.1056
 1151SOL    HW2 6985   6.069   4.302   2.415 -1.5746 -0.2425  0.8666
 1152SOL     OW 6986   8.149   0.467   9.362 -0.4261  0.1403 -0.9638
 1152SOL    HW1 6987   8.141   0.508   9.276 -0.2346  0.4980 -0.8105
 1152SOL    HW2 6988   8.127   0.375   9.346 -0.8750  0.3046 -1.3017
 1153SOL     OW 6989   0.132  10.001   0.331  0.0101  0.1320 -0.4834
 1153SOL    HW1 6990   0.155  10.042   0.414  0.2838  0.7537 -0.8638
 1153SOL    HW2 6991   0.204  10.023   0.272 -1.6743  2.4696 -1.8103
 1154SOL     OW 6992   1.519   0.033   2.914 -0.3351 -0.3479  0.0064
 1154SOL    HW1 6993   1.509  -0.061   2.896 -3.2789  0.1927 -1.8161
 1154SOL    HW2 6994   1.551   0.070   2.832 -0.1176  0.4015  0.4154
 1155SOL     OW 6995   3.546   6.126   5.341 -0.2029 -0.3245 -0.0334
 1155SOL    HW1 6996   3.481   6.100   5.276  0.3052 -2.7587  0.3533
 1155SOL    HW2 6997   3.617   6.063   5.331  1.2668  1.1104  0.8490
 1156SOL     OW 6998   8.473   3.269  10.194  0.0691  0.5800 -0.0572
 1156SOL    HW1 6999   8.555   3.318  10.200  1.0658 -1.1462  1.8627
 1156SOL    HW2 7000   8.449   3.273  10.102  0.2863  4.2253 -0.0992
 1157SOL     OW 7001   6.518  10.768  10.417  0.1051  0.0059  0.3473
 1157SOL    HW1 7002   6.461  10.766  10.494  0.9669 -0.7281  0.9760
 1157SOL    HW2 7003   6.488  10.844  10.368 -1.5630 -0.4759  0.5535
 1158SOL     OW 7004   1.071   9.848   2.186 -0.3751 -0.0310  0.2735
 1158SOL    HW1 7005   0.989   9.891   2.210 -0.1957  1.1876 -1.1685
 1158SOL    HW2 7006   1.128   9.919   2.159  0.5649 -1.0336 -0.4493
 1159SOL     OW 7007   3.754   7.128   9.100  0.2151  0.2535  0.2704
 1159SOL    HW1 7008   3.679   7.080   9.065  0.9104 -0.1393 -0.6987
 1159SOL    HW2 7009   3.716   7.181   9.170 -0.4030 -2.7364  2.4227
 1160SOL     OW 7010   8.422   0.478  10.988 -0.3622 -0.1261  0.5875
 1160SOL    HW1 7011   8.431   0.386  10.965 -1.2524  0.6433 -3.7564
 1160SOL    HW2 7012   8.510   0.514  10.980 -0.4130 -0.1809 -0.3768
 1161SOL     OW 7013  10.970   6.143   9.712  0.0399  0.2226  0.0919
 1161SOL    HW1 7014  10.921   6.165   9.633 -1.0403 -0.1050  0.6475
 1161SOL    HW2 7015  10.998   6.052   9.698  0.6415  0.4618 -0.2947
 1162SOL     OW 7016   5.773   8.105   8.801 -0.1250  0.2289  0.4182
 1162SOL    HW1 7017   5.733   8.034   8.751 -1.2504 -0.4256  2.1551
 1162SOL    HW2 7018   5.865   8.080   8.808 -0.4808 -0.9918  0.8889
 1163SOL     OW 7019   2.507  10.956   1.610  0.3562 -0.3133 -0.9372
 1163SOL    HW1 7020   2.465  10.962   1.524 -0.9022  0.7965 -0.2760
 1163SOL    HW2 7021   2.486  10.867   1.641 -2.5506  0.5292 -0.1626
 1164SOL     OW 7022   6.011   3.740   0.789 -0.0742  0.3868 -0.1089
 1164SOL    HW1 7023   5.924   3.772   0.812  0.2149 -0.0521  1.7808
 1164SOL    HW2 7024   6.053   3.724   0.873  1.7603  0.3573 -0.9863
 1165SOL     OW 7025   3.956  10.290   1.851 -0.1349 -0.2582 -0.5844
 1165SOL    HW1 7026   3.914  10.215   1.811 -1.9684 -0.5057  1.5877
 1165SOL    HW2 7027   4.028  10.253   1.902 -0.8475 -0.5791  0.2335
 1166SOL     OW 7028   3.773   9.116   7.698  0.2485  0.0874 -0.3424
 1166SOL    HW1 7029   3.833   9.149   7.630 -1.9762  0.0561 -2.4510
 1166SOL    HW2 7030   3.787   9.022   7.698  0.6451  0.1412 -0.3304
 1167SOL     OW 7031   4.409   1.956   8.568 -0.0675 -0.3794  0.2332
 1167SOL    HW1 7032   4.456   2.039   8.578 -2.2400  0.8727  0.7789
 1167SOL    HW2 7033   4.433   1.906   8.646  3.3650 -1.5209 -1.3405
 1168SOL     OW 7034   5.952   2.211   1.614  0.2970  0.2888  0.4451
 1168SOL    HW1 7035   6.002   2.129   1.621  0.4586  0.4992  2.0407
 1168SOL    HW2 7036   5.954   2.248   1.702  0.1485  1.9854 -0.2384
 1169SOL     OW 7037  11.054   5.458   6.488 -0.3194  0.4861 -0.1098
 1169SOL    HW1 7038  10.965   5.467   6.524 -1.2968 -0.5823 -2.0779
 1169SOL    HW2 7039  11.051   5.504   6.405  1.1139  0.7520 -0.0385
 1170SOL     OW 7040   6.884  10.784   7.154 -0.4345 -0.2886 -0.1599
 1170SOL    HW1 7041   6.798  10.802   7.117 -0.3730  0.6519  0.1426
 1170SOL    HW2 7042   6.868  10.772   7.248 -0.2847 -0.4830 -0.1574
 1171SOL     OW 7043   2.754   4.354   8.793  0.3221  0.0851 -0.4903
 1171SOL    HW1 7044   2.776   4.261   8.798  0.5474  0.1716  0.3460
 1171SOL    HW2 7045   2.675   4.363   8.847  0.2267  0.3576 -0.6730
 1172SOL     OW 7046   7.368   6.358   9.814  0.4230  0.0714 -0.0011
 1172SOL    HW1 7047   7.388   6.272   9.778  1.6128 -0.5110  1.9303
 1172SOL    HW2 7048   7.448   6.385   9.858 -1.2821  0.1085  3.3821
 1173SOL     OW 7049   9.280   6.983   5.754 -0.6941 -0.1231 -0.9130
 1173SOL    HW1 7050   9.214   6.977   5.823 -0.0193  0.5885 -0.1872
 1173SOL    HW2 7051   9.242   7.042   5.689 -0.7758  0.2757 -0.5025
 1174SOL     OW 7052   0.623   9.992   0.953  0.1776  0.0651 -0.6723
 1174SOL    HW1 7053   0.528  10.002   0.959  0.1795 -0.5227  1.4974
 1174SOL    HW2 7054   0.642   9.918   1.011  1.9646  0.2001 -1.0467
 1175SOL     OW 7055   8.410   3.279   8.272  0.2037  0.2617 -0.3121
 1175SOL    HW1 7056   8.346   3.322   8.215 -0.1897 -0.4918 -0.4505
 1175SOL    HW2 7057   8.474   3.241   8.213  1.3531  1.8508 -0.1421
 1176SOL     OW 7058   6.056   5.265   6.250  0.1005 -0.0492  0.4830
 1176SOL    HW1 7059   5.986   5.331   6.251  0.8109  0.7297 -0.0704
 1176SOL    HW2 7060   6.056   5.229   6.339  1.3591  2.5042  1.6276
 1177SOL     OW 7061   5.221   3.490   7.129  0.0735 -0.0032 -0.4935
 1177SOL    HW1 7062   5.312   3.493   7.160 -0.2759 -0.3224  0.5754
 1177SOL    HW2 7063   5.229   3.469   7.036  1.0585 -1.0892 -0.1901
 1178SOL     OW 7064   8.184   6.457   9.739  0.2359  0.4242  0.0675
 1178SOL    HW1 7065   8.203   6.366   9.716 -1.0370  0.0887  0.2563
 1178SOL    HW2 7066   8.268   6.501   9.735  1.3953 -1.3104  2.5242
 1179SOL     OW 7067   6.947  11.084   3.219  0.7775 -0.5567 -0.0120
 1179SOL    HW1 7068   6.985  11.001   3.189 -0.3278 -1.7917  1.8369
 1179SOL    HW2 7069   7.007  11.114   3.287  1.3687  0.4029 -0.9184
 1180SOL     OW 7070   7.483  10.356   8.832  0.0107 -0.2442 -0.3396
 1180SOL    HW1 7071   7.507  10.311   8.913  1.6817 -1.6791 -1.5250
 1180SOL    HW2 7072   7.568  10.378   8.792 -0.7119 -0.9492 -2.3844
 1181SOL     OW 7073   1.402   9.857   4.013  0.3188  0.3476  0.2106
 1181SOL    HW1 7074   1.405   9.837   4.106  0.4023  0.1921  0.1751
 1181SOL    HW2 7075   1.435   9.947   4.006  1.2840  0.0036  0.2239
 1182SOL     OW 7076   9.221   4.877   2.713 -0.5666 -0.0170  0.0323
 1182SOL    HW1 7077   9.301   4.929   2.720 -0.0916 -0.6977 -0.3495
 1182SOL    HW2 7078   9.166   4.910   2.784  0.7281 -0.7460  1.4165
 1183SOL     OW 7079   0.984   2.271   0.871  0.3118 -0.7272 -0.1100
 1183SOL    HW1 7080   1.049   2.201   0.858  0.1673 -0.9174  0.1825
 1183SOL    HW2 7081   0.905   2.225   0.897  0.1676 -0.4647 -0.0841
 1184SOL     OW 7082   7.498   1.632   6.352 -0.0268  0.4791  0.4339
 1184SOL    HW1 7083   7.406   1.634   6.327 -0.1928  0.1949  0.9982
 1184SOL    HW2 7084   7.498   1.605   6.444  0.6376  0.0727  0.3297
 1185SOL     OW 7085  11.021   3.107   6.771 -0.0260  0.7614  0.0210
 1185SOL    HW1 7086  11.045   3.061   6.852  1.6649 -0.1767 -0.9466
 1185SOL    HW2 7087  11.076   3.185   6.771  1.8945 -0.4904 -1.3428
 1186SOL     OW 7088   8.310   0.397   6.868 -0.1624  0.4387 -0.0850
 1186SOL    HW1 7089   8.397   0.379   6.833 -0.3221 -0.7513  0.0827
 1186SOL    HW2 7090   8.324   0.463   6.936  0.4850  0.8889 -0.6402
 1187SOL     OW 7091   4.343  10.509   5.560  0.1677  0.2944 -0.1390
 1187SOL    HW1 7092   4.330  10.563   5.482 -0.7945 -0.1082 -0.2814
 1187SOL    HW2 7093   4.295  10.428   5.541  2.5360 -1.1441 -0.4298
 1188SOL     OW 7094  11.074   5.557   3.127  0.2044 -0.2097 -0.0053
 1188SOL    HW1 7095  11.103   5.597   3.045  1.0149 -1.4709 -0.3528
 1188SOL    HW2 7096  10.981   5.540   3.114  0.3631 -0.5539 -0.7383
 1189SOL     OW 7097   7.236   2.538   4.383 -0.2248  0.2318 -0.6450
 1189SOL    HW1 7098   7.195   2.622   4.405 -0.1455  1.0733 -3.2643
 1189SOL    HW2 7099   7.168   2.473   4.401 -0.4638  0.8875  0.9686
 1190SOL     OW 7100   1.865   8.456  10.965  0.6176  1.0430 -0.2414
 1190SOL    HW1 7101   1.857   8.409  11.048 -1.1150 -1.2371 -1.5736
 1190SOL    HW2 7102   1.869   8.549  10.991 -0.1412  0.4463  2.3656
 1191SOL     OW 7103   8.593   6.029   5.068  0.0671 -0.3288  0.4685
 1191SOL    HW1 7104   8.648   5.957   5.036  1.2060  0.3813  0.7844
 1191SOL    HW2 7105   8.592   6.093   4.997 -1.1121 -0.7033  0.1070
 1192SOL     OW 7106   3.323   9.339   8.164  0.2821 -0.5112 -0.3191
 1192SOL    HW1 7107   3.407   9.365   8.202 -0.1461 -0.7542  0.8467
 1192SOL    HW2 7108   3.322   9.379   8.077  1.0876  0.4852  0.1110
 1193SOL     OW 7109   9.040   4.546   6.240 -0.1389  0.0744  0.0161
 1193SOL    HW1 7110   8.973   4.517   6.178 -0.7956  1.2073  0.1591
 1193SOL    HW2 7111   9.114   4.573   6.186  0.1360 -0.9629 -0.1531
 1194SOL     OW 7112   0.287   9.193   7.493 -0.3921  0.2274 -0.2334
 1194SOL    HW1 7113   0.260   9.285   7.487 -0.7875  0.0782 -0.7665
 1194SOL    HW2 7114   0.379   9.197   7.520 -0.7233  0.7508  0.8635
 1195SOL     OW 7115   1.229  10.147   7.406 -0.4103 -0.3066 -0.1787
 1195SOL    HW1 7116   1.272  10.219   7.360 -0.0196 -0.5929 -0.2728
 1195SOL    HW2 7117   1.275  10.139   7.489 -2.1904  1.3048  1.0547
 1196SOL     OW 7118   3.376   2.687   1.329  0.0765 -0.3567  0.9340
 1196SOL    HW1 7119   3.305   2.664   1.269  0.7857  0.2743 -0.2085
 1196SOL    HW2 7120   3.371   2.783   1.334  0.5017 -0.3540  1.2755
 1197SOL     OW 7121   0.264   9.895   0.702 -0.1085 -0.4802  0.2019
 1197SOL    HW1 7122   0.276   9.843   0.622 -3.4502 -0.7213 -0.2621
 1197SOL    HW2 7123   0.224   9.977   0.673 -0.2802 -0.0708  1.5084
 1198SOL     OW 7124   0.522   1.117   0.430 -0.2776  0.1784 -0.3409
 1198SOL    HW1 7125   0.561   1.198   0.395 -0.8882  0.4512 -0.4106
 1198SOL    HW2 7126   0.434   1.144   0.458 -1.8722 -1.1384 -3.5721
 1199SOL     OW 7127   3.959   7.153   8.752  0.5454 -0.3745 -1.0292
 1199SOL    HW1 7128   3.882   7.097   8.765 -0.0784  0.4002 -1.3016
 1199SOL    HW2 7129   3.985   7.179   8.840  0.0211 -0.0291 -0.9696
 1200SOL     OW 7130   7.768   7.725   5.368 -0.2406  0.0402  0.1290
 1200SOL    HW1 7131   7.685   7.762   5.338 -0.4779 -1.8859 -1.8664
 1200SOL    HW2 7132   7.833   7.763   5.308  0.5092  2.0402  2.0764
 1201SOL     OW 7133   4.660   4.137   6.719  0.9273 -0.2770 -0.3419
 1201SOL    HW1 7134   4.565   4.147   6.727  0.8066  0.4245 -2.1676
 1201SOL    HW2 7135   4.672   4.053   6.674  1.1945 -0.4685  0.0767
 1202SOL     OW 7136   2.838   8.042   4.451 -0.2486 -0.0649  0.0953
 1202SOL    HW1 7137   2.776   7.989   4.401 -0.3659  0.7955 -0.7171
 1202SOL    HW2 7138   2.804   8.041   4.540  0.0913 -1.8137  0.2230
 1203SOL     OW 7139   7.048   8.174   4.364 -0.2675  0.3885 -0.1514
 1203SOL    HW1 7140   7.045   8.225   4.445  2.1396 -1.3631  1.1690
 1203SOL    HW2 7141   7.130   8.198   4.322  0.6691 -1.8662  0.2313
 1204SOL     OW 7142   4.665  10.820   1.428 -0.0353 -0.3364 -0.2835
 1204SOL    HW1 7143   4.598  10.880   1.395  0.1014 -0.1610 -0.2424
 1204SOL    HW2 7144   4.748  10.860   1.404  0.0567 -0.5063 -0.2507
 1205SOL     OW 7145   2.642   9.622   0.313 -0.0807  0.2831  0.1685
 1205SOL    HW1 7146   2.586   9.690   0.350 -0.2900  1.2526 -1.7789
 1205SOL    HW2 7147   2.728   9.665   0.304 -0.4960  0.7842 -2.1666
 1206SOL     OW 7148   6.165   0.358   9.595  0.2807  0.5270 -0.1604
 1206SOL    HW1 7149   6.133   0.317   9.514 -0.6670  2.1231 -0.6372
 1206SOL    HW2 7150   6.131   0.448   9.591  0.9361  0.8818  1.6154
 1207SOL     OW 7151   1.225   3.673   8.600  0.0488 -0.0132  0.4963
 1207SOL    HW1 7152   1.188   3.587   8.582 -1.2788  1.0224 -2.2601
 1207SOL    HW2 7153   1.316   3.666   8.569  0.7854 -1.0983  2.6914
 1208SOL     OW 7154  10.310   4.476   6.955 -0.8040  0.0889  0.2933
 1208SOL    HW1 7155  10.394   4.496   6.915 -2.0735  1.6341 -1.8290
 1208SOL    HW2 7156  10.295   4.384   6.935  0.4427 -0.2641  0.8901
 1209SOL     OW 7157   2.133   4.869   7.429 -0.9490 -0.2706  0.3451
 1209SOL    HW1 7158   2.187   4.844   7.504 -0.9800 -0.2262  0.3824
 1209SOL    HW2 7159   2.195   4.884   7.358 -0.8227  0.8545  0.6823
 1210SOL     OW 7160   2.360   0.222   5.546 -0.2375 -0.1576  0.2985
 1210SOL    HW1 7161   2.420   0.168   5.495 -1.6158 -1.6755  0.2243
 1210SOL    HW2 7162   2.273   0.197   5.515 -0.9496  3.3018 -0.9519
 1211SOL     OW 7163   8.430  10.525   3.123 -0.1557 -0.4043 -0.2340
 1211SOL    HW1 7164   8.344  10.492   3.150 -0.7745  0.7412 -0.7192
 1211SOL    HW2 7165   8.434  10.508   3.029  1.0893 -2.4226  0.1296
 1212SOL     OW 7166   9.146   1.543   5.932  0.4505  0.1099  0.5511
 1212SOL    HW1 7167   9.194   1.500   6.003  2.0815  0.0023 -0.5751
 1212SOL    HW2 7168   9.211   1.599   5.889 -0.3337 -0.2437 -1.1965
 1213SOL     OW 7169   5.624   1.761   4.049  0.4653 -0.0556 -0.1687
 1213SOL    HW1 7170   5.623   1.826   4.120 -2.2375  0.0351 -0.2116
 1213SOL    HW2 7171   5.665   1.807   3.976 -0.7328  1.3946  0.0227
 1214SOL     OW 7172   2.997   0.356   2.645 -0.2526 -0.2970 -0.3689
 1214SOL    HW1 7173   3.021   0.270   2.609 -1.5402 -0.9153  0.1973
 1214SOL    HW2 7174   3.062   0.373   2.713  0.1197 -0.7374 -0.6102
 1215SOL     OW 7175   3.509   7.396   4.427 -0.2847  0.0602  0.0303
 1215SOL    HW1 7176   3.526   7.462   4.359 -2.4194 -1.5642 -2.2486
 1215SOL    HW2 7177   3.594   7.354   4.442  0.1687  0.1799 -1.9825
 1216SOL     OW 7178   8.381   9.972   8.445  0.9483  0.0786 -0.1798
 1216SOL    HW1 7179   8.421   9.895   8.404 -1.1149 -0.4680 -1.2705
 1216SOL    HW2 7180   8.392   9.958   8.539  1.6906 -0.9222 -0.4032
 1217SOL     OW 7181   4.635   4.105   8.572 -0.3750 -0.2408  0.2236
 1217SOL    HW1 7182   4.723   4.136   8.594 -0.7490 -0.0547  1.5698
 1217SOL    HW2 7183   4.616   4.146   8.488  0.6876 -0.0005  0.0841
 1218SOL     OW 7184   5.934   8.409   0.287 -0.1741 -0.4923  0.2590
 1218SOL    HW1 7185   5.976   8.367   0.213 -1.2323  1.0650 -1.2995
 1218SOL    HW2 7186   5.989   8.485   0.306  1.1273 -1.8412  2.3528
 1219SOL     OW 7187   5.029   7.262   2.936  0.0616 -0.3301 -0.0173
 1219SOL    HW1 7188   4.979   7.312   2.872  0.3658 -1.1052 -0.8942
 1219SOL    HW2 7189   5.117   7.298   2.931 -0.1314  0.2449  0.6653
 1220SOL     OW 7190  10.626   9.701   0.787  0.2196  0.6937  0.3264
 1220SOL    HW1 7191  10.636   9.631   0.722 -2.4741  0.4542  0.0480
 1220SOL    HW2 7192  10.586   9.658   0.862  0.8669  1.4828  1.1381
 1221SOL     OW 7193   2.652   6.502   4.354 -0.1678 -0.7033 -0.7094
 1221SOL    HW1 7194   2.574   6.495   4.409  2.0744  0.5317  2.9430
 1221SOL    HW2 7195   2.647   6.591   4.318 -0.3432 -0.5671 -0.3530
 1222SOL     OW 7196   4.143   5.784   4.582 -0.5142  0.2187 -0.3695
 1222SOL    HW1 7197   4.060   5.763   4.540 -1.9182  1.8387  1.4485
 1222SOL    HW2 7198   4.137   5.878   4.601  1.8601  0.4430 -0.4352
 1223SOL     OW 7199   6.194   5.060   2.951  0.2601 -0.2719  0.0014
 1223SOL    HW1 7200   6.234   5.102   3.028 -0.5164  0.2318  0.1383
 1223SOL    HW2 7201   6.100   5.064   2.968  0.1023 -0.5524 -0.7829
 1224SOL     OW 7202  10.278   5.236   9.484  0.3288 -0.2501  0.3065
 1224SOL    HW1 7203  10.338   5.216   9.556 -0.5568 -0.2353  1.0710
 1224SOL    HW2 7204  10.221   5.305   9.519  0.2264  0.1461 -0.6057
 1225SOL     OW 7205   1.156  11.047   9.302 -0.2785 -0.5954  0.3366
 1225SOL    HW1 7206   1.205  11.052   9.384 -0.5657 -4.2635  0.9233
 1225SOL    HW2 7207   1.071  11.086   9.324  0.4189  0.6203  1.0222
 1226SOL     OW 7208   1.171   2.787   6.809 -0.2784 -0.4304 -0.2509
 1226SOL    HW1 7209   1.203   2.762   6.895  0.3708  0.3482 -0.2488
 1226SOL    HW2 7210   1.250   2.807   6.758 -0.6450 -0.9535 -1.0567
 1227SOL     OW 7211   7.249   4.114   9.050  0.0124  0.3482 -0.1702
 1227SOL    HW1 7212   7.234   4.020   9.040 -1.4532  0.5144  0.1975
 1227SOL    HW2 7213   7.287   4.124   9.137  0.1608  0.0976 -0.2075
 1228SOL     OW 7214   3.515   0.559  10.854 -0.1381  0.3409  0.3168
 1228SOL    HW1 7215   3.469   0.516  10.781  1.0070 -0.4603  0.0539
 1228SOL    HW2 7216   3.563   0.630  10.812 -0.7132  0.8667  0.5267
 1229SOL     OW 7217   2.355   2.098  10.971 -0.5536  0.3058  0.3033
 1229SOL    HW1 7218   2.365   2.072  10.879 -2.2712 -0.8970  0.3942
 1229SOL    HW2 7219   2.293   2.171  10.968 -0.7811  0.1233  0.5161
 1230SOL     OW 7220   0.646   2.034   9.728 -0.0803  0.5945 -0.0648
 1230SOL    HW1 7221   0.612   1.957   9.773 -2.2313  1.2586 -0.4234
 1230SOL    HW2 7222   0.728   2.055   9.774 -1.0247 -0.0951  2.0421
 1231SOL     OW 7223   0.725   8.215   7.993  0.0064  0.3254  0.3146
 1231SOL    HW1 7224   0.659   8.146   7.999 -0.3382  0.4838 -1.3682
 1231SOL    HW2 7225   0.794   8.187   8.053 -1.4393  0.0261  1.9052
 1232SOL     OW 7226  10.433   5.506  10.590 -0.3981 -0.6143 -0.0204
 1232SOL    HW1 7227  10.426   5.592  10.548  0.1865  0.6273  2.2495
 1232SOL    HW2 7228  10.365   5.453  10.548  0.6511  0.2262 -3.0062
 1233SOL     OW 7229   3.415   2.589   9.613 -0.2289  0.2212  0.0482
 1233SOL    HW1 7230   3.333   2.538   9.616 -0.4158  0.3617 -1.5873
 1233SOL    HW2 7231   3.386   2.680   9.610  0.0021  0.2961  0.1196
 1234SOL     OW 7232  11.094   8.107   7.066 -0.7567 -0.2236 -0.2990
 1234SOL    HW1 7233  11.069   8.015   7.052  1.3722 -0.9412  0.1818
 1234SOL    HW2 7234  11.135   8.133   6.984 -0.5368  0.0056 -0.1159
 1235SOL     OW 7235   0.898   7.579  10.454  0.0660 -0.4057 -0.0409
 1235SOL    HW1 7236   0.971   7.639  10.444 -0.5033  0.1542 -0.9901
 1235SOL    HW2 7237   0.915   7.534  10.537  1.5767 -0.4438 -0.3489
 1236SOL     OW 7238   4.697   4.733   1.836  0.1539 -0.0213 -0.5514
 1236SOL    HW1 7239   4.764   4.671   1.867  0.3462 -0.9581 -2.6504
 1236SOL    HW2 7240   4.694   4.801   1.903  1.7925 -0.9800  0.5684
 1237SOL     OW 7241  10.121   4.308   6.612  0.2339 -0.0444 -0.1131
 1237SOL    HW1 7242  10.056   4.320   6.543 -0.7927 -1.5744  0.5165
 1237SOL    HW2 7243  10.177   4.237   6.579  0.1296 -0.3371  0.3269
 1238SOL     OW 7244   7.185   4.512   0.678 -0.4069 -0.5429  0.6210
 1238SOL    HW1 7245   7.246   4.586   0.685 -0.8929  0.2248 -2.0725
 1238SOL    HW2 7246   7.235   4.437   0.709  1.5422  0.2487 -0.4289
 1239SOL     OW 7247   4.595   9.535   9.927  0.0945  0.4694  0.0147
 1239SOL    HW1 7248   4.646   9.502   9.853  0.5721 -0.4055  0.7092
 1239SOL    HW2 7249   4.659   9.547   9.997 -0.4906  0.3199  0.5885
 1240SOL     OW 7250   6.959  10.100   6.741  0.1743 -0.2743 -0.3168
 1240SOL    HW1 7251   6.889  10.037   6.756 -1.6161  1.8546  0.7155
 1240SOL    HW2 7252   6.916  10.177   6.703  1.0829  2.6693  3.8991
 1241SOL     OW 7253   9.706   4.845  10.827 -0.5542 -0.2579  0.4105
 1241SOL    HW1 7254   9.763   4.920  10.814 -1.2966  0.1918 -0.3654
 1241SOL    HW2 7255   9.730   4.810  10.913 -0.6621  1.2841  1.0978
 1242SOL     OW 7256   3.397  10.873   2.841 -0.1416 -0.3230  0.4602
 1242SOL    HW1 7257   3.321  10.928   2.858 -0.4331 -0.5065 -0.2059
 1242SOL    HW2 7258   3.376  10.828   2.759  0.0759 -1.4364  0.9992
 1243SOL     OW 7259   6.498   4.908   9.901 -0.0965 -0.0666  0.3662
 1243SOL    HW1 7260   6.540   4.994   9.901 -2.1751  1.0328 -1.1798
 1243SOL    HW2 7261   6.570   4.847   9.885  1.1459  1.5661 -0.6212
 1244SOL     OW 7262   4.290   9.206   8.771 -0.4020 -0.1342  0.3619
 1244SOL    HW1 7263   4.279   9.131   8.830  0.0438  1.0194  1.9780
 1244SOL    HW2 7264   4.241   9.277   8.813  1.7590  1.3383  0.5834
 1245SOL     OW 7265   3.983   0.517   0.830  0.2737 -0.4506 -0.7123
 1245SOL    HW1 7266   4.054   0.542   0.889  0.1321  0.3082 -0.8453
 1245SOL    HW2 7267   3.903   0.533   0.881  0.1218  0.8930 -1.3335
 1246SOL     OW 7268   2.228   7.512   0.827 -0.2563 -0.1065 -0.1956
 1246SOL    HW1 7269   2.195   7.425   0.808  1.3527 -0.7342 -0.2664
 1246SOL    HW2 7270   2.161   7.571   0.793 -0.0723 -1.2644 -2.7906
 1247SOL     OW 7271   2.654  10.370   0.659 -0.8115  0.4867  0.1825
 1247SOL    HW1 7272   2.680  10.299   0.717  0.7947  0.5513 -0.4037
 1247SOL    HW2 7273   2.669  10.450   0.709 -1.8095  0.4741  0.5352
 1248SOL     OW 7274   7.728   6.987   7.024  0.1689  0.4796  0.1908
 1248SOL    HW1 7275   7.653   6.950   7.070 -0.5702  1.4528 -0.1955
 1248SOL    HW2 7276   7.795   6.999   7.092 -0.6575  1.2462  0.8872
 1249SOL     OW 7277  10.422   0.975   7.398  0.5959 -0.2965  0.0024
 1249SOL    HW1 7278  10.453   0.987   7.308 -0.7562  1.2344 -0.3081
 1249SOL    HW2 7279  10.442   1.058   7.441 -0.8542 -0.1442  0.4358
 1250SOL     OW 7280   8.819   0.483   2.907  0.1125 -1.0059 -0.4785
 1250SOL    HW1 7281   8.874   0.521   2.976  0.7123 -1.5184 -0.6649
 1250SOL    HW2 7282   8.777   0.559   2.866  2.4099 -0.3628 -1.8091
 1251SOL     OW 7283   5.497   3.201   6.835 -0.1192 -0.1314 -0.2663
 1251SOL    HW1 7284   5.561   3.148   6.883 -0.3906  0.3984  0.6956
 1251SOL    HW2 7285   5.524   3.291   6.852 -2.0025  0.1691  1.4499
 1252SOL     OW 7286   6.205   0.736   1.488 -0.1833  0.1607  0.0164
 1252SOL    HW1 7287   6.250   0.803   1.437  0.2950  1.1306  1.6173
 1252SOL    HW2 7288   6.137   0.784   1.536 -0.9077 -0.7823 -0.0362
 1253SOL     OW 7289   1.943   5.309   3.791  0.2108  0.1994 -0.3204
 1253SOL    HW1 7290   2.003   5.247   3.750  0.1263 -0.6065  0.7276
 1253SOL    HW2 7291   1.970   5.394   3.757  1.8838 -0.1583  0.0172
 1254SOL     OW 7292   1.800   4.426   5.517  0.4063 -0.4711  0.2194
 1254SOL    HW1 7293   1.893   4.449   5.509  0.1093  0.8382  0.2346
 1254SOL    HW2 7294   1.774   4.397   5.430  0.4054  0.9395 -0.2792
 1255SOL     OW 7295   4.026   1.952   9.160  0.1645 -0.0187  0.5393
 1255SOL    HW1 7296   3.944   1.957   9.110  0.2351 -0.7986  0.3332
 1255SOL    HW2 7297   4.011   2.008   9.236  0.4479  2.0980 -0.8742
 1256SOL     OW 7298   9.675  10.165   4.021 -0.5357  0.7091  0.0593
 1256SOL    HW1 7299   9.737  10.126   3.960 -0.1071  0.6880  0.5027
 1256SOL    HW2 7300   9.590  10.132   3.993 -0.1494 -0.8608  0.6630
 1257SOL     OW 7301   1.995   3.718   8.355 -0.0898 -0.9021  0.4187
 1257SOL    HW1 7302   1.960   3.650   8.413 -0.9160 -2.9519 -2.2526
 1257SOL    HW2 7303   1.937   3.717   8.280 -0.5536  3.3845  0.4823
 1258SOL     OW 7304  10.671   8.965   6.922  0.2557  0.0622  0.1689
 1258SOL    HW1 7305  10.732   9.039   6.923 -0.8029  0.9664 -0.0952
 1258SOL    HW2 7306  10.607   8.987   6.990 -0.7481 -0.0152 -0.7395
 1259SOL     OW 7307   7.015   8.396   9.326  0.4000  0.0820 -0.0949
 1259SOL    HW1 7308   6.922   8.377   9.318  0.6795 -1.4930  0.1655
 1259SOL    HW2 7309   7.059   8.314   9.307  1.7132  0.6078  0.5029
 1260SOL     OW 7310   1.041  10.105   6.465  0.6099  0.4226 -1.0223
 1260SOL    HW1 7311   1.059  10.163   6.538 -0.9458  0.1659 -0.4152
 1260SOL    HW2 7312   1.052  10.017   6.500 -0.0791  0.2983 -1.1051
 1261SOL     OW 7313   9.443   6.744   1.007 -0.2986  0.6486  0.3076
 1261SOL    HW1 7314   9.438   6.793   1.089 -1.7671  0.2094  0.5105
 1261SOL    HW2 7315   9.375   6.677   1.015 -0.6162  0.7358 -1.3641
 1262SOL     OW 7316   9.485   8.265   5.366  0.6520 -0.0275 -1.0684
 1262SOL    HW1 7317   9.450   8.316   5.440 -1.4463 -0.0544 -1.9723
 1262SOL    HW2 7318   9.421   8.278   5.296  0.2831 -3.4558 -1.5256
 1263SOL     OW 7319   3.834   8.571   6.697  0.3957  0.1093 -0.2980
 1263SOL    HW1 7320   3.775   8.513   6.649  1.7356 -0.6375 -1.1042
 1263SOL    HW2 7321   3.919   8.529   6.691  0.9956  1.0552  1.0178
 1264SOL     OW 7322   7.152   2.152   6.152 -0.7167 -0.0383  0.3326
 1264SOL    HW1 7323   7.112   2.142   6.065  0.1108  0.6375 -0.1474
 1264SOL    HW2 7324   7.117   2.080   6.203 -2.0113  0.1308 -0.2647
 1265SOL     OW 7325   0.405   8.901   0.694  0.3422 -0.2039 -0.6693
 1265SOL    HW1 7326   0.464   8.856   0.633  0.6871 -0.3496 -0.2311
 1265SOL    HW2 7327   0.320   8.901   0.649  1.0271  1.5411 -2.0830
 1266SOL     OW 7328   4.560   0.788   0.316 -0.2440  0.4958  0.5321
 1266SOL    HW1 7329   4.507   0.734   0.257 -0.8080  0.4726  1.0447
 1266SOL    HW2 7330   4.542   0.752   0.403 -0.3060  1.2558  0.8338
 1267SOL     OW 7331   0.636   8.212   9.850 -0.4446  0.5783 -0.2441
 1267SOL    HW1 7332   0.572   8.212   9.780 -0.8654  0.9490  0.1391
 1267SOL    HW2 7333   0.634   8.122   9.884  0.5195  0.0977 -1.3788
 1268SOL     OW 7334   0.215   5.833   5.332 -0.3668 -0.4857 -0.3509
 1268SOL    HW1 7335   0.155   5.832   5.406 -1.1074 -3.1463 -0.8830
 1268SOL    HW2 7336   0.165   5.874   5.261  0.4283  2.2920  0.5680
 1269SOL     OW 7337  10.036   3.929   2.812  0.0569  0.7185  0.2487
 1269SOL    HW1 7338  10.041   4.025   2.808 -0.6564  0.7415 -0.3206
 1269SOL    HW2 7339  10.085   3.906   2.891  2.0335  1.3940 -0.7221
 1270SOL     OW 7340   7.538   1.883   2.645 -0.4659 -0.5296  0.5502
 1270SOL    HW1 7341   7.524   1.851   2.734  1.4245  0.0020  1.0922
 1270SOL    HW2 7342   7.562   1.975   2.655 -0.2488 -0.4519 -0.5000
 1271SOL     OW 7343   9.737   9.393  10.847 -0.4612 -0.3523 -0.2168
 1271SOL    HW1 7344   9.717   9.405  10.754  1.0236 -0.8137 -0.6223
 1271SOL    HW2 7345   9.656   9.357  10.884 -1.6269  1.3266 -0.9672
 1272SOL     OW 7346  10.559   8.981  10.261 -0.0770 -0.8399 -0.0017
 1272SOL    HW1 7347  10.557   9.020  10.348  2.4179  0.5612 -0.4637
 1272SOL    HW2 7348  10.485   9.021  10.215 -0.1180  0.0762  0.8392
 1273SOL     OW 7349   8.723   7.286   9.029 -0.1281 -0.0427  0.1355
 1273SOL    HW1 7350   8.676   7.203   9.027  0.0709 -0.1965  1.1143
 1273SOL    HW2 7351   8.657   7.352   9.008 -0.5587 -0.3428  0.5322
 1274SOL     OW 7352   5.261  11.084   7.708  0.5125 -0.4157 -0.4651
 1274SOL    HW1 7353   5.208  11.094   7.787 -1.7673 -1.1105 -1.7926
 1274SOL    HW2 7354   5.351  11.093   7.737 -0.2396 -0.9390  2.2461
 1275SOL     OW 7355   5.045   4.523   7.478 -0.5736 -0.0609  0.2824
 1275SOL    HW1 7356   5.122   4.535   7.532 -0.1725 -0.1183 -0.2687
 1275SOL    HW2 7357   5.013   4.436   7.501 -0.1335 -0.2764  0.0948
 1276SOL     OW 7358   2.868   9.040   6.774 -0.3522 -0.1744  0.5607
 1276SOL    HW1 7359   2.848   9.094   6.696 -0.5703 -0.8822  0.1208
 1276SOL    HW2 7360   2.952   9.074   6.805  0.0511 -0.3029 -0.3592
 1277SOL     OW 7361   1.748   3.740   1.446 -0.0281  0.2164 -0.2490
 1277SOL    HW1 7362   1.802   3.788   1.509 -0.1403 -2.2224  1.8781
 1277SOL    HW2 7363   1.668   3.720   1.494 -1.0072  0.0467 -1.9033
 1278SOL     OW 7364   6.587   0.611  10.171 -0.3617 -0.3276 -0.2760
 1278SOL    HW1 7365   6.558   0.654  10.251  3.2668 -0.5432  1.3507
 1278SOL    HW2 7366   6.575   0.518  10.188  0.8284 -0.3997  0.2745
 1279SOL     OW 7367   8.570   2.291   1.139 -0.8063 -0.1291  0.2186
 1279SOL    HW1 7368   8.628   2.215   1.145 -1.4131 -0.5767  0.5424
 1279SOL    HW2 7369   8.583   2.323   1.050 -0.8130 -0.8380 -0.0480
 1280SOL     OW 7370   4.890   1.181   7.155  0.4377 -0.1950 -0.3756
 1280SOL    HW1 7371   4.942   1.118   7.106  0.1024  0.3141 -1.4239
 1280SOL    HW2 7372   4.897   1.153   7.246 -0.6930 -2.4608 -0.9240
 1281SOL     OW 7373   3.492  10.105   4.468  0.2780  0.1530  0.1365
 1281SOL    HW1 7374   3.502  10.068   4.380 -2.2138  4.3504 -2.2470
 1281SOL    HW2 7375   3.579  10.138   4.490  0.6949  0.1516 -1.3788
 1282SOL     OW 7376   4.624   8.404   6.701 -0.0143 -0.0091  0.1268
 1282SOL    HW1 7377   4.679   8.423   6.777 -0.3436  1.1023  0.1044
 1282SOL    HW2 7378   4.623   8.486   6.651  0.5895 -0.8539 -1.3372
 1283SOL     OW 7379   6.114   4.568   1.648 -0.0804 -0.1735 -0.3109
 1283SOL    HW1 7380   6.040   4.612   1.690  0.2074 -0.3329  0.3820
 1283SOL    HW2 7381   6.112   4.598   1.557 -2.2134 -1.7219 -0.8561
 1284SOL     OW 7382   5.621   7.266   9.986  0.5618 -0.0484  0.2458
 1284SOL    HW1 7383   5.583   7.326   9.922 -1.0875 -0.5667  0.6899
 1284SOL    HW2 7384   5.623   7.182   9.941 -2.4526 -0.8667  1.4074
 1285SOL     OW 7385   4.269   8.901   6.489  0.8144  0.2579 -0.0069
 1285SOL    HW1 7386   4.342   8.852   6.453  0.1046 -0.8837  0.0468
 1285SOL    HW2 7387   4.223   8.937   6.412 -0.1270 -1.3387 -0.2304
 1286SOL     OW 7388   1.147   7.602   8.902 -0.5369  0.3033 -0.2542
 1286SOL    HW1 7389   1.123   7.521   8.949  0.9015 -0.3520 -0.6001
 1286SOL    HW2 7390   1.170   7.663   8.972  1.6588 -0.6866 -0.0367
 1287SOL     OW 7391   3.137   6.084   3.094  0.1497  0.2193  0.6541
 1287SOL    HW1 7392   3.187   6.064   3.174  2.3794  0.0466 -0.6931
 1287SOL    HW2 7393   3.116   5.998   3.057  1.1165  0.2808 -0.0783
 1288SOL     OW 7394   4.240   7.064   4.063 -0.2424 -0.1396  0.3449
 1288SOL    HW1 7395   4.169   7.120   4.032 -0.2237 -0.1011  0.3716
 1288SOL    HW2 7396   4.314   7.123   4.077  0.4274 -0.4457 -1.5906
 1289SOL     OW 7397   4.775   8.095  10.840 -0.3555 -0.1593 -0.1019
 1289SOL    HW1 7398   4.805   8.004  10.829  1.5456  0.0638  2.3558
 1289SOL    HW2 7399   4.684   8.086  10.868 -0.3608 -1.2820 -0.3984
 1290SOL     OW 7400   2.545   4.338   6.486 -0.3272 -0.6648  0.6635
 1290SOL    HW1 7401   2.483   4.410   6.496  0.0354  0.1638 -2.1795
 1290SOL    HW2 7402   2.505   4.280   6.421  0.9589 -1.1833  0.2964
 1291SOL     OW 7403   3.555  10.919   6.790 -0.5949 -0.0061  0.2827
 1291SOL    HW1 7404   3.633  10.911   6.846 -1.1725  0.1157  1.1321
 1291SOL    HW2 7405   3.522  10.829   6.784 -0.9733  0.0925  0.8020
 1292SOL     OW 7406   5.018   5.267   7.979 -0.0114 -0.6002 -0.2057
 1292SOL    HW1 7407   5.070   5.346   7.988 -0.7000 -0.3288  1.7963
 1292SOL    HW2 7408   5.000   5.239   8.069 -2.7821 -1.0256 -0.7926
 1293SOL     OW 7409   8.598   0.033   4.830  0.8787 -0.0441  0.1224
 1293SOL    HW1 7410   8.576   0.125   4.818  0.5067 -0.0222  0.9062
 1293SOL    HW2 7411   8.561   0.010   4.915 -0.8468 -1.4656 -0.9361
 1294SOL     OW 7412   8.944   8.119  10.459 -0.7119  0.1569 -0.5253
 1294SOL    HW1 7413   8.973   8.183  10.523  0.5545  0.5489 -1.4393
 1294SOL    HW2 7414   8.945   8.166  10.375  2.7512 -1.6069 -1.6692
 1295SOL     OW 7415   4.417   4.654   1.131  0.3943  0.0080 -0.0753
 1295SOL    HW1 7416   4.502   4.642   1.173  0.5628 -0.8197 -0.6214
 1295SOL    HW2 7417   4.370   4.716   1.187  0.4806 -1.3091  1.5354
 1296SOL     OW 7418   3.566   7.921   7.642  0.2469 -0.2776  0.1779
 1296SOL    HW1 7419   3.513   7.978   7.698  0.7943  2.1593 -1.6246
 1296SOL    HW2 7420   3.651   7.916   7.685  0.5066  1.1607 -0.1036
 1297SOL     OW 7421   5.010   0.069   0.054 -0.1305 -0.2434 -0.0609
 1297SOL    HW1 7422   5.041   0.030   0.136  0.4319  0.5504  0.1168
 1297SOL    HW2 7423   4.939   0.012   0.025 -0.3106 -0.5556  0.9641
 1298SOL     OW 7424   1.359   5.905   3.782  0.2702  0.0379  0.2024
 1298SOL    HW1 7425   1.309   5.826   3.802  0.4230 -0.3028 -0.6930
 1298SOL    HW2 7426   1.408   5.883   3.702  1.2113  0.6452  0.5922
 1299SOL     OW 7427   0.182   8.342   7.620 -0.2465  0.0097 -0.0148
 1299SOL    HW1 7428   0.220   8.255   7.626 -0.1369  0.0751  0.2659
 1299SOL    HW2 7429   0.088   8.327   7.613 -0.1204 -0.1751 -1.4124
 1300SOL     OW 7430   5.991   9.095   3.881  0.5115 -0.4782  0.3801
 1300SOL    HW1 7431   6.073   9.098   3.831  0.4390  0.7967  0.2877
 1300SOL    HW2 7432   5.940   9.025   3.841  1.9784 -2.0471  1.1499
 1301SOL     OW 7433   1.752   4.846   7.124 -0.0572 -0.0935 -0.1272
 1301SOL    HW1 7434   1.749   4.816   7.215  0.8859 -1.4328 -0.5241
 1301SOL    HW2 7435   1.661   4.841   7.095 -0.2607 -0.3166  0.5309
 1302SOL     OW 7436   4.405   3.607   7.423  0.1253 -0.5095  0.1648
 1302SOL    HW1 7437   4.448   3.555   7.355 -0.2089  0.2772 -0.6666
 1302SOL    HW2 7438   4.473   3.667   7.454  0.1042 -0.4490  0.0923
 1303SOL     OW 7439   3.197   2.066   9.052  0.3943 -0.1052 -0.6029
 1303SOL    HW1 7440   3.185   1.993   8.991  0.3860 -0.4550 -0.1856
 1303SOL    HW2 7441   3.150   2.139   9.011 -0.6194 -0.6495 -0.4569
 1304SOL     OW 7442   6.612   2.611   9.054 -0.3445 -0.5382  0.3000
 1304SOL    HW1 7443   6.604   2.554   9.130  0.7194 -1.0018  0.0857
 1304SOL    HW2 7444   6.706   2.612   9.035 -0.4747  0.4249 -0.3576
 1305SOL     OW 7445  10.745   3.482   4.735  0.1573 -0.2099  0.1444
 1305SOL    HW1 7446  10.729   3.499   4.642  1.0407 -0.3686 -0.0423
 1305SOL    HW2 7447  10.756   3.569   4.774 -0.2739 -0.1403  0.1213
 1306SOL     OW 7448   0.038   5.307   6.938 -0.3078 -0.2057 -0.2118
 1306SOL    HW1 7449   0.108   5.367   6.963 -1.1038  1.6600 -2.1666
 1306SOL    HW2 7450  -0.020   5.306   7.015 -0.0915  1.2960  0.0109
 1307SOL     OW 7451   7.101   6.512   9.590  0.2971  0.8196 -0.1260
 1307SOL    HW1 7452   7.121   6.550   9.676  1.0337 -0.6305  0.3953
 1307SOL    HW2 7453   7.071   6.423   9.610  0.9800  0.2746 -1.3839
 1308SOL     OW 7454   8.924   0.697   1.794 -0.0737 -0.3450 -0.6847
 1308SOL    HW1 7455   8.926   0.780   1.746  0.1449  0.1562  0.1738
 1308SOL    HW2 7456   8.969   0.715   1.876 -1.7215 -0.7668  0.3771
 1309SOL     OW 7457   9.129   5.529   1.864 -0.1034 -0.3714 -0.1645
 1309SOL    HW1 7458   9.173   5.534   1.948 -0.6330 -1.4679  0.1989
 1309SOL    HW2 7459   9.148   5.441   1.832 -2.0828 -0.9487  0.0753
 1310SOL     OW 7460   2.541   2.262   4.514  0.1781  0.2231  0.1048
 1310SOL    HW1 7461   2.527   2.185   4.570 -0.6922 -1.9413 -2.8371
 1310SOL    HW2 7462   2.466   2.318   4.531 -0.8412 -1.0901  0.0990
 1311SOL     OW 7463   0.642   0.895   0.335 -0.1319  0.7283 -0.2111
 1311SOL    HW1 7464   0.616   0.819   0.386  0.9254 -0.3792 -1.2602
 1311SOL    HW2 7465   0.599   0.969   0.379 -3.1102 -0.6714 -0.5268
 1312SOL     OW 7466   7.381   8.014   0.947  0.4028  0.4681 -0.5329
 1312SOL    HW1 7467   7.437   7.989   0.873  0.8506  2.3175 -0.8611
 1312SOL    HW2 7468   7.323   8.082   0.912 -0.9695 -0.2580  0.2396
 1313SOL     OW 7469   4.874   6.870   2.731 -0.2269 -0.4130  0.6331
 1313SOL    HW1 7470   4.826   6.828   2.802  0.7392 -2.0250  0.3575
 1313SOL    HW2 7471   4.958   6.826   2.728 -0.7184 -1.4227 -2.4041
 1314SOL     OW 7472   7.250   1.739  11.081  1.0028 -0.1236  0.0567
 1314SOL    HW1 7473   7.172   1.735  11.136  1.4859  2.3144  1.0606
 1314SOL    HW2 7474   7.315   1.685  11.127  0.0982 -1.7862 -0.5483
 1315SOL     OW 7475   9.236   4.460   0.812  0.0377  0.3012 -0.4505
 1315SOL    HW1 7476   9.291   4.391   0.774 -1.5297 -0.3819 -1.5911
 1315SOL    HW2 7477   9.151   4.418   0.826 -0.7631  1.8202 -0.5787
 1316SOL     OW 7478   8.201   7.688  10.517  0.2066  0.2742 -0.0190
 1316SOL    HW1 7479   8.248   7.702  10.600 -0.9732 -1.4399  0.9986
 1316SOL    HW2 7480   8.165   7.600  10.524  1.5090 -0.6172 -3.1264
 1317SOL     OW 7481   4.880   4.246   9.870 -0.7899 -0.5550  0.0154
 1317SOL    HW1 7482   4.841   4.237   9.782 -1.3961 -0.9840  0.3150
 1317SOL    HW2 7483   4.940   4.171   9.876 -1.2849 -0.9408  0.2290
 1318SOL     OW 7484   5.277   5.153   8.362  0.1097 -0.3376 -0.0431
 1318SOL    HW1 7485   5.228   5.077   8.332 -0.2583  0.7724 -2.4494
 1318SOL    HW2 7486   5.309   5.196   8.282  0.6923  1.7912  1.2252
 1319SOL     OW 7487   7.926   4.054   1.105  0.2802 -0.9957 -0.7710
 1319SOL    HW1 7488   7.957   3.970   1.139  2.4220  0.2696  0.5923
 1319SOL    HW2 7489   7.974   4.120   1.154 -1.2530  1.0779 -1.8710
 1320SOL     OW 7490   5.230   0.040   0.630  0.4038 -0.3842  0.3199
 1320SOL    HW1 7491   5.151  -0.007   0.657 -0.1829  0.0993 -0.5036
 1320SOL    HW2 7492   5.280   0.053   0.711  1.0679 -3.2312  0.4825
 1321SOL     OW 7493   1.331   8.017   9.152  0.5065  0.6264  0.2114
 1321SOL    HW1 7494   1.371   8.072   9.220  1.0040 -0.4719  0.8360
 1321SOL    HW2 7495   1.261   7.971   9.197  1.0514 -0.3595  0.0711
 1322SOL     OW 7496   0.663   0.699   3.006  0.0730  0.0009  0.5468
 1322SOL    HW1 7497   0.595   0.735   2.949 -0.2288  0.7986  1.3956
 1322SOL    HW2 7498   0.737   0.758   2.997  0.2421 -0.2125  0.5204
 1323SOL     OW 7499   9.495   0.006  10.344  0.5609  0.1865 -0.0615
 1323SOL    HW1 7500   9.410   0.023  10.303  0.5003  3.9660  1.2765
 1323SOL    HW2 7501   9.472  -0.031  10.430  0.2709  0.8056  0.1326
 1324SOL     OW 7502   7.559  10.757   6.506 -0.0782 -0.3288 -0.4603
 1324SOL    HW1 7503   7.479  10.745   6.557  0.4548 -0.4540  0.3584
 1324SOL    HW2 7504   7.554  10.690   6.438 -0.6077 -0.4124 -0.3445
 1325SOL     OW 7505   0.860   8.991   8.533  0.3383  0.1266  0.1484
 1325SOL    HW1 7506   0.875   8.913   8.480  3.3745  0.2797  0.6408
 1325SOL    HW2 7507   0.772   8.979   8.569 -0.2401 -1.8617 -1.7194
 1326SOL     OW 7508   9.759   5.021   3.672 -0.1722  0.0031 -0.5957
 1326SOL    HW1 7509   9.754   5.054   3.582  1.9530 -1.2676 -1.2665
 1326SOL    HW2 7510   9.852   5.026   3.694 -0.5808 -0.2072  1.3571
 1327SOL     OW 7511   3.654   6.553   9.964 -0.0495  0.4694 -0.3952
 1327SOL    HW1 7512   3.615   6.525  10.047  0.5041 -0.0569 -0.2996
 1327SOL    HW2 7513   3.581   6.585   9.912 -1.0403 -2.6063 -1.1365
 1328SOL     OW 7514   9.051   3.494   2.096 -0.4144  0.5542 -0.1099
 1328SOL    HW1 7515   9.020   3.410   2.059  1.0515  0.1523 -0.4777
 1328SOL    HW2 7516   9.079   3.472   2.185  0.3306  0.5728 -0.3388
 1329SOL     OW 7517   4.461   6.282   6.233 -0.0037 -0.5215 -0.4799
 1329SOL    HW1 7518   4.456   6.337   6.311 -2.8889 -1.5009  0.1826
 1329SOL    HW2 7519   4.547   6.299   6.196  0.9839  0.9203  2.2246
 1330SOL     OW 7520   5.569  10.099   7.983  0.4488 -0.1919 -1.0051
 1330SOL    HW1 7521   5.643  10.152   7.952  0.5976 -0.3255 -0.8784
 1330SOL    HW2 7522   5.492  10.154   7.967  0.7257  0.6944  0.4705
 1331SOL     OW 7523  10.225   3.193   3.446 -0.1676 -0.1553 -0.0989
 1331SOL    HW1 7524  10.174   3.168   3.524  0.6468 -1.6758 -0.0111
 1331SOL    HW2 7525  10.188   3.277   3.420  0.0425  0.7944  2.3724
 1332SOL     OW 7526   7.971  11.010   6.426 -0.0518 -0.0727 -0.5212
 1332SOL    HW1 7527   7.893  11.010   6.370  0.1802 -1.6651 -0.8897
 1332SOL    HW2 7528   7.941  10.976   6.510 -0.1044  0.9966 -0.0906
 1333SOL     OW 7529   4.704   3.631   7.775 -0.2969  0.0151 -0.1611
 1333SOL    HW1 7530   4.658   3.595   7.851 -0.1544 -0.5221 -0.3250
 1333SOL    HW2 7531   4.789   3.659   7.808 -1.0497  1.8860  0.3469
 1334SOL     OW 7532   3.925   8.872   6.183  0.5164  0.3711  0.0173
 1334SOL    HW1 7533   3.940   8.934   6.110 -2.0778  1.6666  0.4858
 1334SOL    HW2 7534   3.926   8.927   6.261  0.8608 -0.6453  0.7485
 1335SOL     OW 7535   5.941   3.580  10.883  0.4826 -0.2866 -0.1447
 1335SOL    HW1 7536   5.926   3.541  10.969 -0.2086  1.3267  0.5104
 1335SOL    HW2 7537   5.859   3.567  10.835  0.7726 -0.9439 -0.4728
 1336SOL     OW 7538   7.861   1.544   8.475  0.2520  0.6130  0.0162
 1336SOL    HW1 7539   7.771   1.526   8.446 -0.0610 -0.3679  1.4897
 1336SOL    HW2 7540   7.915   1.485   8.422 -0.0951  0.3487 -0.0507
 1337SOL     OW 7541   0.960   3.299   5.552  0.4333  0.0148  0.5677
 1337SOL    HW1 7542   0.976   3.380   5.502  1.0714  0.3824  1.3528
 1337SOL    HW2 7543   0.903   3.327   5.624 -0.9280 -0.6135 -0.2161
 1338SOL     OW 7544   7.292   7.708   2.513 -0.0617  0.0357 -0.3563
 1338SOL    HW1 7545   7.342   7.647   2.458 -0.4972  0.8461 -1.7063
 1338SOL    HW2 7546   7.358   7.769   2.545  0.0077  0.4264 -1.2024
 1339SOL     OW 7547   3.333   9.258   6.716 -0.1944  0.4304  0.0766
 1339SOL    HW1 7548   3.245   9.224   6.737  0.0117 -0.2940 -0.2090
 1339SOL    HW2 7549   3.385   9.238   6.794  0.0367 -0.3068 -0.2675
 1340SOL     OW 7550   7.592   6.951   6.747  0.4453 -0.1533 -0.2419
 1340SOL    HW1 7551   7.502   6.962   6.777  0.5688 -0.4624  0.2568
 1340SOL    HW2 7552   7.646   6.984   6.820  0.7424 -0.2985 -0.3925
 1341SOL     OW 7553  10.554   4.072   6.601 -0.1167  0.1031  0.2374
 1341SOL    HW1 7554  10.613   4.003   6.571 -0.4555  0.6305 -1.7873
 1341SOL    HW2 7555  10.469   4.047   6.565 -0.2199  1.6091 -0.6106
 1342SOL     OW 7556   0.502   1.271   6.035 -0.0298 -0.5663 -0.1871
 1342SOL    HW1 7557   0.591   1.254   6.004  0.0773 -1.2495  0.4739
 1342SOL    HW2 7558   0.512   1.295   6.127 -0.1600  3.4136 -1.0365
 1343SOL     OW 7559   2.427   5.235   1.070 -0.4884  0.3080  0.1873
 1343SOL    HW1 7560   2.389   5.147   1.079 -1.3494  0.6549  0.0668
 1343SOL    HW2 7561   2.441   5.246   0.976  0.5376 -0.0673  0.2885
 1344SOL     OW 7562   5.825   0.067   8.867  0.2876  0.5312 -0.5945
 1344SOL    HW1 7563   5.861   0.101   8.949 -1.3111  0.8753  0.0007
 1344SOL    HW2 7564   5.893   0.009   8.833  0.1261 -1.4579  2.1501
 1345SOL     OW 7565   7.899   9.164   2.041 -0.1647  0.6262  0.2798
 1345SOL    HW1 7566   7.940   9.079   2.057  2.4966  2.0021  1.4960
 1345SOL    HW2 7567   7.816   9.143   2.000  1.8217 -2.4648 -2.7523
 1346SOL     OW 7568   1.289  10.566   0.815  0.1659 -0.0038 -0.4017
 1346SOL    HW1 7569   1.213  10.553   0.759  0.6002  0.3473 -1.0868
 1346SOL    HW2 7570   1.357  10.599   0.756  1.8130 -3.0828 -0.4213
 1347SOL     OW 7571   8.593   5.633   1.934  0.2635  0.3710  0.5670
 1347SOL    HW1 7572   8.528   5.701   1.952  0.7878  0.5442  1.9584
 1347SOL    HW2 7573   8.549   5.551   1.953  0.7229  0.5376  2.5663
 1348SOL     OW 7574   5.429   9.699   6.675  0.3321  0.0167  0.4293
 1348SOL    HW1 7575   5.508   9.753   6.679  0.3404  0.1271 -0.8470
 1348SOL    HW2 7576   5.446   9.638   6.603 -0.0547 -1.0946  1.2464
 1349SOL     OW 7577   7.154   0.104   2.155 -0.0059 -0.2041  0.0273
 1349SOL    HW1 7578   7.132   0.011   2.162  1.9954 -0.6847  0.7644
 1349SOL    HW2 7579   7.071   0.149   2.166 -0.9372 -1.8885  0.2997
 1350SOL     OW 7580   4.467   3.440   4.073 -0.1245 -0.2038 -1.2706
 1350SOL    HW1 7581   4.396   3.439   4.008  0.3925  2.3721 -2.0057
 1350SOL    HW2 7582   4.536   3.492   4.031  0.7392  0.4505  0.8494
 1351SOL     OW 7583   8.496   3.150   3.325 -0.0914  0.0025 -0.0899
 1351SOL    HW1 7584   8.404   3.149   3.299 -0.1748  1.2193  0.0830
 1351SOL    HW2 7585   8.509   3.067   3.371 -1.5160  0.4454  1.2256
 1352SOL     OW 7586   6.166   2.887   4.110 -0.3885 -0.4878 -0.3997
 1352SOL    HW1 7587   6.214   2.808   4.085 -1.7874 -1.2247 -0.8235
 1352SOL    HW2 7588   6.080   2.856   4.136 -0.0793  0.5841  2.2995
 1353SOL     OW 7589   1.657   7.489   0.653 -0.4008 -0.5609 -0.0844
 1353SOL    HW1 7590   1.608   7.522   0.728 -3.3577 -2.9587 -0.7493
 1353SOL    HW2 7591   1.614   7.530   0.577  1.1358  0.1722 -0.5988
 1354SOL     OW 7592   5.548   6.258   7.196 -0.6382 -0.7622 -0.1144
 1354SOL    HW1 7593   5.527   6.177   7.242 -0.5193 -0.3564  0.6628
 1354SOL    HW2 7594   5.627   6.291   7.238 -0.1219 -0.7401 -1.0684
 1355SOL     OW 7595   8.169   7.797   1.229  0.0440  0.1423  0.2864
 1355SOL    HW1 7596   8.242   7.859   1.225  1.2962 -1.3414 -2.7637
 1355SOL    HW2 7597   8.209   7.715   1.259 -0.0403 -0.9231 -2.2468
 1356SOL     OW 7598   3.997   0.823   6.933 -0.6827 -0.0522  0.1805
 1356SOL    HW1 7599   4.055   0.889   6.970  1.4841 -0.8968 -1.4341
 1356SOL    HW2 7600   3.988   0.849   6.841 -2.1709 -0.4435  0.1975
 1357SOL     OW 7601   9.900  10.730   8.815 -0.0445  0.2299 -0.5688
 1357SOL    HW1 7602   9.957  10.698   8.744 -0.5451  0.9133 -1.2963
 1357SOL    HW2 7603   9.840  10.657   8.832 -0.4323  0.3402 -1.4135
 1358SOL     OW 7604  10.964   7.249   5.243 -0.2301  0.3965 -0.1109
 1358SOL    HW1 7605  10.977   7.165   5.286  0.2895 -0.1300 -1.2377
 1358SOL    HW2 7606  10.915   7.302   5.306 -2.6710 -1.5263 -0.2518
 1359SOL     OW 7607   2.803   6.373   9.775  0.1885 -0.2278 -0.0946
 1359SOL    HW1 7608   2.874   6.435   9.793  0.3260 -0.1838 -0.7468
 1359SOL    HW2 7609   2.793   6.376   9.680  1.1104 -2.1909 -0.3010
 1360SOL     OW 7610   2.732   3.637   4.265 -0.1107  0.9215 -0.0554
 1360SOL    HW1 7611   2.690   3.581   4.330  1.0221  1.9051  1.6274
 1360SOL    HW2 7612   2.672   3.639   4.191 -0.5418 -1.8214  0.1446
 1361SOL     OW 7613   3.346   7.807   1.061  0.3409  0.2740 -0.6917
 1361SOL    HW1 7614   3.330   7.884   1.116  0.3812  0.0206 -0.3185
 1361SOL    HW2 7615   3.314   7.832   0.975  0.4293  0.7384 -0.5918
 1362SOL     OW 7616   4.910   9.104   7.806  0.5449 -0.2631  0.1261
 1362SOL    HW1 7617   4.896   9.030   7.747  1.4745  0.7507 -1.4337
 1362SOL    HW2 7618   4.847   9.091   7.877  0.2520 -2.1845 -0.4459
 1363SOL     OW 7619   1.888  10.092   9.663 -0.2291 -0.5681  0.3940
 1363SOL    HW1 7620   1.850  10.167   9.708 -0.4068 -1.1189  1.1664
 1363SOL    HW2 7621   1.889  10.118   9.570 -0.1203  0.4526  0.6694
 1364SOL     OW 7622   2.868   5.235   3.836 -0.2714 -0.4813 -0.1882
 1364SOL    HW1 7623   2.912   5.320   3.838 -0.4732 -0.3757 -0.2199
 1364SOL    HW2 7624   2.919   5.180   3.895  0.2603 -0.5340 -0.6865
 1365SOL     OW 7625   0.605  10.199   1.602  0.3372 -0.2554  0.8007
 1365SOL    HW1 7626   0.565  10.123   1.559 -0.7572  1.1826 -0.8529
 1365SOL    HW2 7627   0.535  10.235   1.657  0.4925  0.1828  0.7150
 1366SOL     OW 7628   1.552   4.125  10.547  0.2352 -0.3469 -0.3286
 1366SOL    HW1 7629   1.621   4.076  10.502 -0.1695 -1.6115  0.3715
 1366SOL    HW2 7630   1.513   4.062  10.607 -1.3958  0.3864 -0.5473
 1367SOL     OW 7631   8.886   0.953   7.157  0.9254 -0.2954  0.3469
 1367SOL    HW1 7632   8.847   1.013   7.220  0.4890  0.8108 -0.9376
 1367SOL    HW2 7633   8.979   0.950   7.182  1.1177  1.5112  0.0339
 1368SOL     OW 7634   3.970   0.371   5.628  0.5801 -0.3961 -0.3307
 1368SOL    HW1 7635   3.935   0.457   5.604  0.2259 -0.4834 -0.1241
 1368SOL    HW2 7636   4.056   0.368   5.585  0.9875  0.4196  0.4037
 1369SOL     OW 7637   7.052  10.151   1.521  0.0150 -0.3832  0.3058
 1369SOL    HW1 7638   7.119  10.144   1.453  0.6038 -2.0125  1.0068
 1369SOL    HW2 7639   6.974  10.110   1.482  0.0561 -0.4268  0.2692
 1370SOL     OW 7640   0.649   1.071   9.824 -0.0427 -0.2156 -0.0800
 1370SOL    HW1 7641   0.627   0.996   9.770  0.9969 -0.6347  0.0570
 1370SOL    HW2 7642   0.629   1.147   9.769  1.1572 -0.6293 -1.1376
 1371SOL     OW 7643   6.628   0.603   9.905 -0.0969  0.1957 -0.1239
 1371SOL    HW1 7644   6.578   0.592   9.986  0.3618 -1.1627 -0.0045
 1371SOL    HW2 7645   6.716   0.628   9.933  0.5514 -1.9500 -0.0629
 1372SOL     OW 7646   0.461   0.127   8.569 -0.4839  0.1181 -0.6158
 1372SOL    HW1 7647   0.469   0.057   8.633  1.2746 -0.8452 -1.7800
 1372SOL    HW2 7648   0.526   0.193   8.596  0.1544 -0.2205 -1.2703
 1373SOL     OW 7649   5.726   0.537   8.647  0.1612 -0.4494  0.2965
 1373SOL    HW1 7650   5.756   0.613   8.697  0.3774 -0.5166  0.2689
 1373SOL    HW2 7651   5.707   0.471   8.714 -2.1962  0.3549  0.5072
 1374SOL     OW 7652   7.260   4.962  10.853 -0.5334  0.1229  0.1070
 1374SOL    HW1 7653   7.319   4.964  10.928  0.5546 -0.1927 -0.7149
 1374SOL    HW2 7654   7.192   5.026  10.874  0.2354  0.6715  0.9768
 1375SOL     OW 7655   1.045   0.604   2.940 -0.1993  0.0357 -0.1315
 1375SOL    HW1 7656   1.084   0.686   2.970  0.3595  0.1267 -1.0645
 1375SOL    HW2 7657   0.987   0.629   2.868  0.2259 -0.4075 -0.6432
 1376SOL     OW 7658   3.239   2.985   3.800  0.0936 -0.1614  0.9189
 1376SOL    HW1 7659   3.250   2.891   3.794  0.0623 -0.1419  0.5254
 1376SOL    HW2 7660   3.210   3.001   3.890 -1.1867 -0.6578  0.6118
 1377SOL     OW 7661   2.324   7.609   3.704  0.6092  0.2732  0.2269
 1377SOL    HW1 7662   2.376   7.689   3.709 -0.7881  1.4157 -1.7328
 1377SOL    HW2 7663   2.316   7.592   3.610 -2.6864  0.3266  0.3781
 1378SOL     OW 7664   9.206   1.458   1.084  0.2539 -0.4861 -0.4195
 1378SOL    HW1 7665   9.173   1.381   1.039 -1.2699 -0.2191  0.1955
 1378SOL    HW2 7666   9.129   1.497   1.126  1.0384  1.2030 -0.4631
 1379SOL     OW 7667   2.017   3.652  10.210  0.6504  0.0452  0.4978
 1379SOL    HW1 7668   2.076   3.634  10.136  0.5269  1.4465  0.0286
 1379SOL    HW2 7669   1.964   3.573  10.218 -1.3306  0.8578 -2.8289
 1380SOL     OW 7670   1.938   7.192   4.633 -0.0130  0.5784  0.3425
 1380SOL    HW1 7671   1.958   7.107   4.672  0.1895  0.0457 -0.8960
 1380SOL    HW2 7672   1.913   7.247   4.708 -0.4104 -0.6292  1.1283
 1381SOL     OW 7673   6.477  10.230   7.398  0.3913  0.1143  0.0933
 1381SOL    HW1 7674   6.513  10.145   7.422  0.9282  0.2046 -0.3793
 1381SOL    HW2 7675   6.516  10.291   7.460  1.2105  0.2414 -0.5420
 1382SOL     OW 7676  10.919   0.347   4.515 -0.4398 -0.2827 -0.5552
 1382SOL    HW1 7677  10.850   0.404   4.550 -0.7319 -0.3982 -0.9321
 1382SOL    HW2 7678  10.972   0.405   4.460 -0.1524 -0.1636 -0.1541
 1383SOL     OW 7679   4.593   1.198   9.368  0.6311  0.2038 -0.1001
 1383SOL    HW1 7680   4.657   1.228   9.304  0.5893 -1.1706 -0.8286
 1383SOL    HW2 7681   4.527   1.152   9.316 -1.7983  2.7829  0.4293
 1384SOL     OW 7682   5.135   9.716   6.696  0.0379 -0.3276 -0.0146
 1384SOL    HW1 7683   5.219   9.678   6.670 -0.4098 -0.7279 -0.9141
 1384SOL    HW2 7684   5.089   9.730   6.613 -0.7609 -0.0569  0.4715
 1385SOL     OW 7685  10.373   4.088   9.280 -0.3196 -0.2482  0.1547
 1385SOL    HW1 7686  10.289   4.047   9.301 -0.5277  0.2666  0.3372
 1385SOL    HW2 7687  10.358   4.129   9.195 -0.3330  0.0693  0.3101
 1386SOL     OW 7688  10.646   2.398   2.055  0.0640 -0.0903  0.4213
 1386SOL    HW1 7689  10.618   2.489   2.042  0.7369 -0.0908 -1.4498
 1386SOL    HW2 7690  10.612   2.374   2.141 -1.6256  1.3674  0.2207
 1387SOL     OW 7691   2.742   8.863   5.272 -0.7663  0.4658 -0.1290
 1387SOL    HW1 7692   2.835   8.868   5.292 -0.7925  0.0071  0.1113
 1387SOL    HW2 7693   2.736   8.883   5.178 -0.3276 -0.5032 -0.3693
 1388SOL     OW 7694   4.272   5.940   4.300  0.6496 -0.3420  0.5298
 1388SOL    HW1 7695   4.209   5.969   4.365 -2.2275 -1.5856 -1.4963
 1388SOL    HW2 7696   4.279   6.013   4.239 -0.6253 -0.9535 -0.4088
 1389SOL     OW 7697   6.131   8.901   0.592 -0.2516 -0.2369  0.7300
 1389SOL    HW1 7698   6.133   8.872   0.683 -1.0205 -0.5202  0.6692
 1389SOL    HW2 7699   6.085   8.985   0.595  0.5630  0.2194  0.7113
 1390SOL     OW 7700  10.675   3.132   4.671 -0.1484 -0.1294  0.1536
 1390SOL    HW1 7701  10.758   3.160   4.710 -0.9176  0.7729  1.2194
 1390SOL    HW2 7702  10.635   3.212   4.638 -1.5992 -0.1415  1.6933
 1391SOL     OW 7703  10.095   2.699   5.058  0.1981 -0.0511 -0.1918
 1391SOL    HW1 7704  10.163   2.631   5.052 -0.2839 -0.4675 -0.9849
 1391SOL    HW2 7705  10.125   2.756   5.129  1.8428  0.2825 -1.1026
 1392SOL     OW 7706   4.625   3.176   5.300  0.0202 -0.2312 -0.2029
 1392SOL    HW1 7707   4.720   3.172   5.311 -0.0352  0.3884  0.5905
 1392SOL    HW2 7708   4.601   3.090   5.267  1.0224  0.0436 -1.7510
 1393SOL     OW 7709   3.304   0.617   3.529  0.4832 -0.0579 -0.6099
 1393SOL    HW1 7710   3.288   0.712   3.530  0.3435 -0.0605  0.8959
 1393SOL    HW2 7711   3.399   0.610   3.543  0.2578 -0.1169  1.1858
 1394SOL     OW 7712   0.104   3.644   4.015  0.0183  0.2095 -0.5505
 1394SOL    HW1 7713   0.082   3.602   4.099 -0.9762  2.1051  0.1812
 1394SOL    HW2 7714   0.198   3.628   4.005  0.1709  0.0041  0.9691
 1395SOL     OW 7715   0.099   5.158   5.554 -0.4345 -0.1314  0.6347
 1395SOL    HW1 7716   0.026   5.135   5.496 -0.7326  0.1663  0.8925
 1395SOL    HW2 7717   0.093   5.253   5.564 -0.4062 -0.1870  1.1894
 1396SOL     OW 7718   2.920  10.045   6.919 -0.4267  0.1427  0.1625
 1396SOL    HW1 7719   2.946  10.078   6.833  1.4650  0.5541  0.8432
 1396SOL    HW2 7720   2.828  10.070   6.927 -0.0159  2.2391 -0.7729
 1397SOL     OW 7721   8.664   0.584  10.988 -0.1020  0.0594  0.0611
 1397SOL    HW1 7722   8.698   0.620  10.906 -0.8486 -0.2838 -0.4140
 1397SOL    HW2 7723   8.731   0.604  11.053  0.2150  0.8989 -0.5090
 1398SOL     OW 7724   3.812   5.985   0.208  0.6155 -0.0297 -0.3582
 1398SOL    HW1 7725   3.862   6.062   0.181 -0.3954  0.0205 -2.2299
 1398SOL    HW2 7726   3.818   5.925   0.133  0.3121 -1.2413  0.5576
 1399SOL     OW 7727   6.817   9.355   5.855 -0.6944 -0.2245 -0.3972
 1399SOL    HW1 7728   6.746   9.352   5.791 -1.2172 -1.6707  0.1841
 1399SOL    HW2 7729   6.893   9.320   5.809 -0.5643  0.5464 -0.7787
 1400SOL     OW 7730   8.715   8.890   1.460  0.7625 -0.3809 -0.4663
 1400SOL    HW1 7731   8.776   8.962   1.475 -1.3960  1.0237  2.6846
 1400SOL    HW2 7732   8.631   8.933   1.440 -0.5820 -1.9177  1.4680
 1401SOL     OW 7733   2.413   9.531   6.546 -0.1052  0.4413 -0.2952
 1401SOL    HW1 7734   2.454   9.559   6.464 -0.9381  1.5034 -0.3787
 1401SOL    HW2 7735   2.486   9.514   6.605  0.4907  1.7240 -0.6115
 1402SOL     OW 7736   0.363   6.109   1.966 -0.1292 -0.7102  0.3736
 1402SOL    HW1 7737   0.313   6.087   1.887 -0.1177 -0.4817  0.3018
 1402SOL    HW2 7738   0.312   6.071   2.038 -1.5629  1.2723  0.5162
 1403SOL     OW 7739   3.999   0.968   7.886 -0.0830  0.2720 -0.0917
 1403SOL    HW1 7740   4.058   0.945   7.814 -0.1049  1.8927 -0.6765
 1403SOL    HW2 7741   3.958   0.886   7.911 -1.4595 -0.0900 -3.1609
 1404SOL     OW 7742   3.831   5.398   8.989 -0.2948  0.2805 -0.0570
 1404SOL    HW1 7743   3.904   5.406   8.929  1.8115 -0.1370  2.2658
 1404SOL    HW2 7744   3.780   5.478   8.978  1.4540  1.3541 -0.6145
 1405SOL     OW 7745   4.823   6.322   9.929 -0.0805  0.4031 -0.0355
 1405SOL    HW1 7746   4.767   6.246   9.918  0.6945 -0.3674  1.1576
 1405SOL    HW2 7747   4.883   6.319   9.854 -0.3409  0.0868 -0.2315
 1406SOL     OW 7748   7.143  10.397   1.228 -0.2898  0.0065  0.0167
 1406SOL    HW1 7749   7.107  10.346   1.155  1.0435 -0.4820 -0.3340
 1406SOL    HW2 7750   7.193  10.333   1.278  0.1258  0.6696  0.4508
 1407SOL     OW 7751   2.904   9.461   3.664  0.2639 -0.3709  0.4573
 1407SOL    HW1 7752   2.996   9.457   3.691  0.1969  0.1710  0.7710
 1407SOL    HW2 7753   2.854   9.458   3.745  0.0520  0.8919  0.3814
 1408SOL     OW 7754   0.341   1.603   1.541 -0.5396 -0.4257 -0.1938
 1408SOL    HW1 7755   0.275   1.667   1.565  1.3154  0.9537  1.6179
 1408SOL    HW2 7756   0.323   1.582   1.450 -2.2103  1.4183 -0.3412
 1409SOL     OW 7757   5.673   9.971   9.423 -0.2629  0.0479  0.1174
 1409SOL    HW1 7758   5.637   9.883   9.409  0.8271 -0.6041  1.2055
 1409SOL    HW2 7759   5.667  10.014   9.338 -2.3620 -0.4806 -0.0449
 1410SOL     OW 7760   3.757   7.872   0.449  0.9381  0.6935  0.2766
 1410SOL    HW1 7761   3.840   7.907   0.416  2.0075 -0.8055  1.2751
 1410SOL    HW2 7762   3.730   7.810   0.381  1.5844 -0.1571  0.7831
 1411SOL     OW 7763   2.086  10.271   9.810 -0.4900 -0.0400 -0.5853
 1411SOL    HW1 7764   2.009  10.231   9.850 -0.0774 -1.6259 -1.2725
 1411SOL    HW2 7765   2.156  10.256   9.873 -0.1817 -1.1068 -1.1519
 1412SOL     OW 7766   9.987   7.020   4.988 -0.4540  0.3206  0.0500
 1412SOL    HW1 7767  10.031   7.072   4.920 -1.5913 -0.0030 -0.9834
 1412SOL    HW2 7768   9.972   7.081   5.059  2.4642  0.2300  0.8683
 1413SOL     OW 7769  10.334   9.609  10.087  0.4244 -0.1939 -0.1171
 1413SOL    HW1 7770  10.357   9.563  10.168  1.9776  2.3545  1.0208
 1413SOL    HW2 7771  10.282   9.546  10.037  0.3951 -2.2640  2.3398
 1414SOL     OW 7772   1.397   3.087   1.087  0.1067 -0.1158 -0.0592
 1414SOL    HW1 7773   1.341   3.143   1.033  0.1365 -0.6868 -0.6939
 1414SOL    HW2 7774   1.433   3.022   1.026  1.7941  0.4716  0.2541
 1415SOL     OW 7775   5.788   1.982   1.252 -0.1943 -0.7383  0.2445
 1415SOL    HW1 7776   5.838   1.964   1.172 -0.8939 -0.2814 -0.3051
 1415SOL    HW2 7777   5.795   2.076   1.264 -0.9224 -0.6710  0.1616
 1416SOL     OW 7778   9.929   0.966   9.923  0.0825  0.1588 -0.1965
 1416SOL    HW1 7779   9.988   0.950   9.996 -0.8025 -1.5119  0.1899
 1416SOL    HW2 7780   9.842   0.969   9.962 -0.4538 -1.2212 -1.2037
 1417SOL     OW 7781   1.245   1.845   4.351  0.7030 -0.3258  0.0472
 1417SOL    HW1 7782   1.205   1.835   4.437 -0.0704 -0.5989 -0.3333
 1417SOL    HW2 7783   1.273   1.936   4.347 -0.6036  0.0887  0.0253
 1418SOL     OW 7784   0.754   3.701   2.392  0.0305  0.3634 -0.6337
 1418SOL    HW1 7785   0.725   3.647   2.466 -0.0123  1.2842  0.0369
 1418SOL    HW2 7786   0.753   3.791   2.426  0.6576  0.7310 -1.5530
 1419SOL     OW 7787   7.795   0.782   5.375  0.0524 -0.4069  0.0240
 1419SOL    HW1 7788   7.812   0.865   5.420 -0.3032  0.0603 -0.6879
 1419SOL    HW2 7789   7.793   0.805   5.282  0.3889 -1.2924 -0.2105
 1420SOL     OW 7790   9.158   8.633   9.009  0.1141  0.0780 -0.4926
 1420SOL    HW1 7791   9.127   8.640   9.100  2.1471  2.2223  0.1225
 1420SOL    HW2 7792   9.100   8.569   8.969 -1.4284 -0.2578  2.0741
 1421SOL     OW 7793   7.941   3.044   5.392  0.5214 -0.3570 -0.0008
 1421SOL    HW1 7794   8.010   3.060   5.328 -0.0005 -0.5968 -0.6315
 1421SOL    HW2 7795   7.928   3.129   5.435  1.0959 -0.2748  0.0136
 1422SOL     OW 7796  10.631   5.926   7.203  0.2796  0.2654  0.0297
 1422SOL    HW1 7797  10.610   5.992   7.137  3.3130  1.0904 -0.2970
 1422SOL    HW2 7798  10.614   5.842   7.159  1.2869  0.8077 -1.4983
 1423SOL     OW 7799   4.177   8.049  10.095  0.3148 -0.2583 -0.4062
 1423SOL    HW1 7800   4.152   8.132  10.136 -1.0278 -0.4796 -0.7312
 1423SOL    HW2 7801   4.236   8.073  10.024 -0.5933  0.4844 -0.9214
 1424SOL     OW 7802   4.040   7.438   5.997 -0.1850 -0.0953 -0.2405
 1424SOL    HW1 7803   4.063   7.531   5.989 -0.3341 -0.1159 -0.9770
 1424SOL    HW2 7804   4.059   7.416   6.088  1.5476  0.2147 -0.4865
 1425SOL     OW 7805   0.245  10.562   3.132 -0.7324 -0.1689 -0.2004
 1425SOL    HW1 7806   0.273  10.471   3.125 -1.0747 -0.3636  0.8568
 1425SOL    HW2 7807   0.318  10.606   3.177 -1.4145 -0.3594  1.1400
 1426SOL     OW 7808   9.776  11.020   4.365  0.0827  0.1503 -0.0374
 1426SOL    HW1 7809   9.709  11.081   4.334  0.5163  0.1816 -0.9683
 1426SOL    HW2 7810   9.736  10.934   4.352 -0.1986  0.2043  0.4570
 1427SOL     OW 7811   6.787   9.952   4.352  0.1923 -0.3386 -0.0278
 1427SOL    HW1 7812   6.836   9.915   4.279  0.4350 -0.8504  0.3837
 1427SOL    HW2 7813   6.777  10.044   4.331  1.5078 -0.1829 -0.0314
 1428SOL     OW 7814   5.361   1.767   3.031  0.3215  0.2715 -0.3470
 1428SOL    HW1 7815   5.445   1.759   3.076  2.3981 -0.7854 -3.9722
 1428SOL    HW2 7816   5.330   1.676   3.023 -0.8965  0.6023  0.4521
 1429SOL     OW 7817   1.441   1.228   9.796 -0.0772  0.1161  0.4539
 1429SOL    HW1 7818   1.365   1.279   9.822 -1.0802 -1.5361  0.9381
 1429SOL    HW2 7819   1.465   1.179   9.875  1.7351  0.8637  0.4163
 1430SOL     OW 7820  10.880   1.892   7.808 -0.4130  0.2111  0.4302
 1430SOL    HW1 7821  10.925   1.886   7.724 -0.6432  1.0550  0.2422
 1430SOL    HW2 7822  10.790   1.913   7.786 -1.4095 -3.1232  0.6940
 1431SOL     OW 7823   5.042   9.550  10.273 -0.3349 -0.3688  0.1065
 1431SOL    HW1 7824   5.069   9.642  10.270 -0.5079 -0.3376 -1.0657
 1431SOL    HW2 7825   5.077   9.518  10.356 -0.3973  0.7862  0.6025
 1432SOL     OW 7826   3.808   6.627   0.712 -0.7882 -0.4253  0.4090
 1432SOL    HW1 7827   3.749   6.552   0.707 -0.0809 -0.9935  0.4303
 1432SOL    HW2 7828   3.868   6.605   0.783 -0.2645 -0.0629  0.0844
 1433SOL     OW 7829  10.493   0.637  10.177 -0.6082  0.2716 -0.3761
 1433SOL    HW1 7830  10.511   0.560  10.123 -2.6483  0.0940 -0.8879
 1433SOL    HW2 7831  10.411   0.617  10.222 -0.5787  1.6843  0.3834
 1434SOL     OW 7832   0.890   7.398   1.315 -0.3286 -0.0090  0.5252
 1434SOL    HW1 7833   0.901   7.347   1.235 -1.4968 -1.3770  1.1848
 1434SOL    HW2 7834   0.868   7.486   1.285 -1.6238 -0.7096 -0.6783
 1435SOL     OW 7835   4.819   0.314   9.237  0.7193 -0.0428  0.5308
 1435SOL    HW1 7836   4.757   0.271   9.179  1.2098  0.2349 -0.2092
 1435SOL    HW2 7837   4.895   0.332   9.183 -0.0299  3.2182  0.3065
 1436SOL     OW 7838   4.205   7.733   8.768  0.0979 -0.3797  0.3578
 1436SOL    HW1 7839   4.150   7.809   8.749  0.6261 -0.2023 -0.5426
 1436SOL    HW2 7840   4.253   7.718   8.686  0.3589 -1.3807  0.6815
 1437SOL     OW 7841   9.490  10.818   5.838 -0.2372  0.1555 -0.0679
 1437SOL    HW1 7842   9.516  10.890   5.781  0.9348 -0.4766 -0.3639
 1437SOL    HW2 7843   9.563  10.809   5.899 -0.0135 -1.2844 -0.5275
 1438SOL     OW 7844   1.067   3.602   4.728  0.4513  0.0304  0.0983
 1438SOL    HW1 7845   0.984   3.596   4.776 -0.0681  1.6419 -0.5545
 1438SOL    HW2 7846   1.122   3.659   4.781  0.4199  0.5837 -0.4534
 1439SOL     OW 7847   0.533   8.507   4.659 -0.0281  0.4395 -0.3537
 1439SOL    HW1 7848   0.558   8.600   4.654  1.2493  0.2411  1.4540
 1439SOL    HW2 7849   0.593   8.464   4.597  0.5120  0.6307  0.0259
 1440SOL     OW 7850   6.070   3.516   9.690  0.3093 -0.2116  0.4027
 1440SOL    HW1 7851   6.158   3.493   9.661  0.1915 -0.3478  0.1495
 1440SOL    HW2 7852   6.044   3.442   9.746  0.8065  0.3798  1.4381
 1441SOL     OW 7853   8.165   2.101   5.227 -0.2756 -0.0483 -0.0713
 1441SOL    HW1 7854   8.084   2.148   5.246 -0.1576 -0.5469  1.8828
 1441SOL    HW2 7855   8.228   2.136   5.290  1.5476  1.4771 -2.5526
 1442SOL     OW 7856   3.381  10.554   1.743 -0.6200 -0.4121 -0.2924
 1442SOL    HW1 7857   3.314  10.622   1.733 -1.1461 -0.8208  0.3727
 1442SOL    HW2 7858   3.332  10.472   1.744  0.0756 -0.8926 -1.9060
 1443SOL     OW 7859  10.752   5.197   1.584  0.0584 -0.0604  0.1055
 1443SOL    HW1 7860  10.821   5.201   1.519  0.7207 -1.6675  0.6722
 1443SOL    HW2 7861  10.748   5.105   1.611  0.5982  0.6925  3.1532
 1444SOL     OW 7862   7.974   8.598   0.506  0.0188  0.2617 -0.2114
 1444SOL    HW1 7863   7.928   8.674   0.541 -2.2298 -1.3292  0.5598
 1444SOL    HW2 7864   8.048   8.584   0.565 -0.3066  1.0812  0.4048
 1445SOL     OW 7865   1.114   9.812   1.620 -0.0706  0.3018 -0.5403
 1445SOL    HW1 7866   1.199   9.856   1.619  0.6654 -1.0066  0.9754
 1445SOL    HW2 7867   1.134   9.720   1.606 -1.2253 -0.0516  0.0041
 1446SOL     OW 7868   5.555  10.364   1.570  0.0547 -0.0464 -0.2925
 1446SOL    HW1 7869   5.576  10.286   1.520  0.9783 -0.1829  0.2881
 1446SOL    HW2 7870   5.502  10.418   1.511  0.5577 -0.4993 -1.1642
 1447SOL     OW 7871   6.227   3.299  10.192  0.2843  0.2691  0.0537
 1447SOL    HW1 7872   6.173   3.228  10.227  0.2202  0.8346  1.1242
 1447SOL    HW2 7873   6.207   3.374  10.247  1.3763  0.7726 -0.2078
 1448SOL     OW 7874   5.125   4.591  10.541 -0.3821 -0.7201 -0.0559
 1448SOL    HW1 7875   5.165   4.505  10.532 -1.7426 -1.3182 -0.6008
 1448SOL    HW2 7876   5.072   4.586  10.620 -0.5159 -0.3919 -0.1207
 1449SOL     OW 7877   2.194   1.893   5.501 -0.0945 -0.2289 -0.0462
 1449SOL    HW1 7878   2.112   1.903   5.549  0.6168 -0.4133  1.2546
 1449SOL    HW2 7879   2.254   1.853   5.564  1.0840  0.1925 -0.8618
 1450SOL     OW 7880   3.554   0.227  10.093  0.0944  0.1918  0.7120
 1450SOL    HW1 7881   3.484   0.281  10.131  0.0144  1.3400 -0.9913
 1450SOL    HW2 7882   3.530   0.137  10.117 -1.4204  0.6486  1.0288
 1451SOL     OW 7883   6.797   3.016   8.505  0.1126  0.6063 -0.2609
 1451SOL    HW1 7884   6.855   2.969   8.444 -1.0800 -0.7112 -0.4121
 1451SOL    HW2 7885   6.857   3.064   8.562  1.3478 -0.2471 -0.7952
 1452SOL     OW 7886   9.709   0.973   5.665 -0.4529  0.2149 -0.2160
 1452SOL    HW1 7887   9.748   0.886   5.656  0.8652  0.8275 -0.9275
 1452SOL    HW2 7888   9.636   0.973   5.603 -0.0863 -0.1959 -0.6593
 1453SOL     OW 7889   2.043   4.514   1.021 -0.1009 -0.4509 -0.0441
 1453SOL    HW1 7890   2.016   4.423   1.035 -0.9105 -0.0157  1.5261
 1453SOL    HW2 7891   1.963   4.565   1.031  0.3916  0.4725 -0.6252
 1454SOL     OW 7892   6.057   6.419   3.745 -0.1336 -0.2283  0.1568
 1454SOL    HW1 7893   6.026   6.336   3.783 -1.4594 -0.3225 -1.0343
 1454SOL    HW2 7894   6.002   6.432   3.668 -0.2208  1.9792  0.5245
 1455SOL     OW 7895  10.793   6.632   6.631  0.1010 -0.3255  0.4157
 1455SOL    HW1 7896  10.746   6.592   6.558 -2.1871  0.3676  1.3962
 1455SOL    HW2 7897  10.786   6.726   6.615 -1.3904 -0.1056  1.9773
 1456SOL     OW 7898   3.129   2.558   1.889 -0.2805 -0.6584 -0.3796
 1456SOL    HW1 7899   3.168   2.628   1.941 -0.4606 -0.6674 -0.2334
 1456SOL    HW2 7900   3.077   2.603   1.823  1.3214 -0.5943 -1.6577
 1457SOL     OW 7901   1.796   4.583   2.401  0.5165  0.3389 -0.1923
 1457SOL    HW1 7902   1.880   4.610   2.441  0.2495  0.6313  0.1796
 1457SOL    HW2 7903   1.816   4.572   2.308  0.8291  1.0099 -0.2099
 1458SOL     OW 7904   9.627   8.789   2.648  0.4881 -0.1373 -0.1083
 1458SOL    HW1 7905   9.612   8.700   2.682 -0.0560 -0.1715 -0.4249
 1458SOL    HW2 7906   9.590   8.847   2.715  0.6179 -0.1588 -0.0184
 1459SOL     OW 7907   4.243   9.420   8.532  0.2125  0.3910  0.8130
 1459SOL    HW1 7908   4.182   9.433   8.605  0.8985 -2.2121  1.9744
 1459SOL    HW2 7909   4.202   9.352   8.479  0.0826  1.7329 -0.9005
 1460SOL     OW 7910  10.874   1.325  11.117  0.1698  0.2754  0.1335
 1460SOL    HW1 7911  10.886   1.420  11.120  0.2195  0.3265 -1.2870
 1460SOL    HW2 7912  10.955   1.292  11.080 -0.5793 -0.1441 -1.1935
 1461SOL     OW 7913   9.185   3.993  10.560 -0.5206 -0.5169 -0.0018
 1461SOL    HW1 7914   9.220   3.913  10.522 -1.0113 -0.3925 -0.7318
 1461SOL    HW2 7915   9.163   4.048  10.485 -1.1603 -0.1198  0.4639
 1462SOL     OW 7916   0.609   3.073   8.804 -0.0462  0.6043 -0.0205
 1462SOL    HW1 7917   0.633   2.997   8.751 -1.3983  1.2988 -1.6990
 1462SOL    HW2 7918   0.693   3.108   8.833  0.6092 -1.5620  0.9089
 1463SOL     OW 7919   2.399   1.282   8.669  0.6056  0.1674 -0.0459
 1463SOL    HW1 7920   2.355   1.350   8.618 -0.4358 -1.2084 -1.0641
 1463SOL    HW2 7921   2.368   1.294   8.758 -0.8601  0.0390 -0.5219
 1464SOL     OW 7922   0.931   2.725   5.779 -0.0412  0.3324 -0.1968
 1464SOL    HW1 7923   0.919   2.809   5.824  0.9683  0.6536 -0.5176
 1464SOL    HW2 7924   1.025   2.708   5.783 -0.3466 -1.4083  0.9582
 1465SOL     OW 7925   5.469   8.285  11.038  0.1642  0.3056 -0.5535
 1465SOL    HW1 7926   5.537   8.221  11.016  0.0507 -0.3988  1.0099
 1465SOL    HW2 7927   5.509   8.342  11.103 -0.6308  0.0508  0.1867
 1466SOL     OW 7928  10.158   4.256   6.070  0.1026 -0.1239  0.2972
 1466SOL    HW1 7929  10.109   4.289   5.995  1.4876  0.7350 -0.2795
 1466SOL    HW2 7930  10.108   4.285   6.146 -0.0185  1.2213 -0.2597
 1467SOL     OW 7931   8.412   5.797   1.078 -0.1402  0.1756  0.1800
 1467SOL    HW1 7932   8.322   5.771   1.055 -0.8842  1.0345  1.9303
 1467SOL    HW2 7933   8.465   5.763   1.006 -1.3357 -3.7216  0.8795
 1468SOL     OW 7934   2.962   8.196  10.731 -0.1239 -0.1782  0.9911
 1468SOL    HW1 7935   2.970   8.287  10.704  1.3153 -0.3193  0.8491
 1468SOL    HW2 7936   2.876   8.169  10.700  0.5870  0.2894 -1.5896
 1469SOL     OW 7937   2.581  10.345  10.857  0.4309  0.3239  0.1890
 1469SOL    HW1 7938   2.516  10.401  10.900  0.3767  1.8381 -1.7049
 1469SOL    HW2 7939   2.661  10.396  10.858  0.9350 -0.4515  0.2171
 1470SOL     OW 7940   0.215   5.588   1.696  0.6221 -0.0496 -0.1013
 1470SOL    HW1 7941   0.179   5.562   1.611  0.4826  1.2199 -0.4542
 1470SOL    HW2 7942   0.276   5.659   1.676  0.5191  0.3285  0.8596
 1471SOL     OW 7943   6.979   5.558   1.640  0.1562 -0.0833 -0.1813
 1471SOL    HW1 7944   6.886   5.543   1.659  0.1024  0.3703 -0.0636
 1471SOL    HW2 7945   6.993   5.651   1.661  0.7187 -0.2320  0.1459
 1472SOL     OW 7946   7.783   1.898   7.308  0.2477 -0.3326 -0.3440
 1472SOL    HW1 7947   7.819   1.809   7.310 -0.2883 -0.5867 -1.3267
 1472SOL    HW2 7948   7.857   1.953   7.283  0.9180 -0.2965  1.5578
 1473SOL     OW 7949   3.111   9.531   0.468  0.4288  1.0815 -0.5196
 1473SOL    HW1 7950   3.151   9.471   0.405 -0.7277  0.2693 -0.5274
 1473SOL    HW2 7951   3.168   9.528   0.545  0.3808 -0.0725 -0.5092
 1474SOL     OW 7952   5.074   0.627   7.879 -0.2983  0.3000 -0.1520
 1474SOL    HW1 7953   5.046   0.716   7.897 -0.0563  0.5986 -1.1413
 1474SOL    HW2 7954   5.168   0.627   7.899 -1.0039 -0.9089  3.9156
 1475SOL     OW 7955   7.928   3.831   6.675 -0.0538  0.2676  0.1124
 1475SOL    HW1 7956   7.864   3.902   6.686 -1.1042 -0.1837 -2.2901
 1475SOL    HW2 7957   7.990   3.864   6.611  1.2955  0.1336  1.3153
 1476SOL     OW 7958   4.899   5.234   6.983  0.3003  0.1995  0.5860
 1476SOL    HW1 7959   4.989   5.250   6.956  0.2603 -0.6264 -0.0724
 1476SOL    HW2 7960   4.858   5.194   6.907 -0.3707 -0.2937  1.1969
 1477SOL     OW 7961   8.837   3.654   4.014 -0.1788  0.0415  0.1176
 1477SOL    HW1 7962   8.851   3.747   3.995  0.7670  0.0790  0.9355
 1477SOL    HW2 7963   8.837   3.649   4.110 -1.8010 -0.5858  0.1076
 1478SOL     OW 7964   2.376   7.129   0.342  0.0077 -0.2315 -0.9930
 1478SOL    HW1 7965   2.314   7.202   0.340  0.4451  0.2164  0.2442
 1478SOL    HW2 7966   2.332   7.061   0.393 -0.1533 -0.5952 -1.6136
 1479SOL     OW 7967  10.663   8.753  10.143  0.1551 -0.0656  0.0530
 1479SOL    HW1 7968  10.632   8.677  10.192 -3.1420 -0.4983 -2.3243
 1479SOL    HW2 7969  10.617   8.828  10.182  2.7408  0.7182  1.8337
 1480SOL     OW 7970   9.233   6.234   5.279 -0.1641 -0.2316 -1.1966
 1480SOL    HW1 7971   9.229   6.141   5.255  1.3571 -0.3733 -1.0085
 1480SOL    HW2 7972   9.296   6.238   5.350  0.2675  1.0308 -1.6197
 1481SOL     OW 7973  11.029   6.176   4.765 -0.3640  0.2829  0.2921
 1481SOL    HW1 7974  10.989   6.155   4.680  0.2515 -0.6194  0.2052
 1481SOL    HW2 7975  11.119   6.200   4.743  0.5924 -2.4670  0.8613
 1482SOL     OW 7976   6.005   0.481   3.387 -0.1439 -0.0449  0.4714
 1482SOL    HW1 7977   6.086   0.477   3.438 -0.7443 -2.5299  1.3878
 1482SOL    HW2 7978   6.033   0.485   3.296  1.0090 -0.7018  0.7845
 1483SOL     OW 7979   6.783   6.472   9.320  0.0257 -0.1379 -0.0010
 1483SOL    HW1 7980   6.875   6.491   9.307 -0.1183 -0.8191 -2.4228
 1483SOL    HW2 7981   6.782   6.410   9.394  1.4958 -0.1862  0.0106
 1484SOL     OW 7982   3.452  10.847   6.480 -0.3870 -0.4417  0.4147
 1484SOL    HW1 7983   3.370  10.833   6.529  0.2835  2.3003  2.6243
 1484SOL    HW2 7984   3.459  10.942   6.474  2.2631 -0.6212 -0.4121
 1485SOL     OW 7985   9.093   1.443   6.578 -0.2712  0.7093 -0.5912
 1485SOL    HW1 7986   9.181   1.431   6.543  0.2994  1.0590  0.6618
 1485SOL    HW2 7987   9.054   1.355   6.577  0.6100  0.2965  0.1401
 1486SOL     OW 7988   2.928  10.546   6.975  0.1482 -0.7428 -0.3655
 1486SOL    HW1 7989   2.929  10.534   6.880 -0.7339  0.1587 -0.5079
 1486SOL    HW2 7990   2.852  10.602   6.991  1.3661  0.6916  0.6712
 1487SOL     OW 7991   8.286   8.096   4.302  0.3620 -0.1277 -0.9256
 1487SOL    HW1 7992   8.325   8.127   4.220  1.2286  0.4322 -0.3131
 1487SOL    HW2 7993   8.361   8.073   4.357 -0.1378  1.3569  0.4407
 1488SOL     OW 7994   3.651   9.008  10.269  0.1570  0.2855  0.6482
 1488SOL    HW1 7995   3.709   8.972  10.336 -0.1022  1.0569  1.3076
 1488SOL    HW2 7996   3.612   9.085  10.310 -0.4705  0.4281 -0.1830
 1489SOL     OW 7997   0.250   8.463   1.855 -0.6967  0.2641 -0.3179
 1489SOL    HW1 7998   0.332   8.420   1.828 -1.7695 -1.2057 -1.4696
 1489SOL    HW2 7999   0.246   8.542   1.801  0.0417  0.4570 -0.1078
 1490SOL     OW 8000   9.389   8.217   9.133 -0.2927  0.2729 -0.2698
 1490SOL    HW1 8001   9.297   8.210   9.157  0.2555 -0.9220  1.7391
 1490SOL    HW2 8002   9.436   8.216   9.217  1.6241 -0.7476 -1.2852
 1491SOL     OW 8003   6.984   4.939  10.300  0.4728 -0.1771  0.4819
 1491SOL    HW1 8004   7.032   4.934  10.218  0.4930  1.1241  0.3955
 1491SOL    HW2 8005   7.046   4.909  10.366  0.9242  0.0991  0.1868
 1492SOL     OW 8006   6.904   8.210   1.714 -0.4055  0.6668  0.2439
 1492SOL    HW1 8007   6.886   8.191   1.806  0.2429 -0.2958  0.1860
 1492SOL    HW2 8008   6.818   8.228   1.676 -0.8807 -0.6220  0.6661
 1493SOL     OW 8009   8.870   0.805  10.285  0.5294  0.4724  0.6388
 1493SOL    HW1 8010   8.961   0.823  10.309  0.1584  0.7244  1.9474
 1493SOL    HW2 8011   8.831   0.892  10.273  1.0400  0.3736 -2.4263
 1494SOL     OW 8012  10.000   6.951   5.737 -0.3175  0.3109 -0.7779
 1494SOL    HW1 8013   9.926   6.896   5.762 -0.5667  0.6303 -0.8104
 1494SOL    HW2 8014  10.076   6.905   5.772 -0.5986  0.3869 -0.0552
 1495SOL     OW 8015   2.805   7.578   5.240  0.2396 -0.5431  0.0697
 1495SOL    HW1 8016   2.775   7.514   5.175  0.6558 -0.0718 -0.5958
 1495SOL    HW2 8017   2.767   7.661   5.211 -1.5346 -0.6937  1.7553
 1496SOL     OW 8018   5.088   8.328   3.247  0.5878  0.3561 -0.9058
 1496SOL    HW1 8019   5.165   8.379   3.272  0.2122  0.0394  1.0182
 1496SOL    HW2 8020   5.018   8.392   3.235  0.2952  0.3890  0.8034
 1497SOL     OW 8021   1.465   3.589   8.054  0.2325  0.6025  0.0325
 1497SOL    HW1 8022   1.389   3.622   8.006 -0.4476 -1.7122 -0.5860
 1497SOL    HW2 8023   1.433   3.577   8.144  0.6191  1.9613  0.3801
 1498SOL     OW 8024   3.864   0.565   4.837  0.3914  0.1793  0.2561
 1498SOL    HW1 8025   3.896   0.527   4.919 -2.3748 -1.4559  0.7284
 1498SOL    HW2 8026   3.908   0.515   4.768  2.7835  1.6038  0.6274
 1499SOL     OW 8027   1.575   9.602   5.258 -0.2947  0.3645 -0.2444
 1499SOL    HW1 8028   1.647   9.539   5.267  0.5318  1.2976 -0.1518
 1499SOL    HW2 8029   1.556   9.628   5.348 -1.7071 -0.9069 -0.1484
 1500SOL     OW 8030   5.156   3.832   2.810  0.2077  0.2534 -0.5443
 1500SOL    HW1 8031   5.153   3.892   2.885  1.7793  0.1465 -0.3550
 1500SOL    HW2 8032   5.173   3.889   2.735 -1.0888  0.3300 -0.7902
 1501SOL     OW 8033   3.537   4.004   7.391  0.2722 -0.3019 -0.2110
 1501SOL    HW1 8034   3.611   4.035   7.444  0.9034 -1.5729 -0.3082
 1501SOL    HW2 8035   3.556   4.035   7.303  0.6421 -0.5195 -0.2117
 1502SOL     OW 8036   2.099   5.313   1.246  0.5668 -0.1397 -0.1997
 1502SOL    HW1 8037   2.013   5.351   1.264  0.1568 -0.5311 -1.2559
 1502SOL    HW2 8038   2.146   5.382   1.200  0.7943  0.0326  0.2767
 1503SOL     OW 8039   1.892   0.313   3.569 -0.3881 -0.2332  0.3313
 1503SOL    HW1 8040   1.828   0.351   3.510  1.4410  0.4519 -1.2892
 1503SOL    HW2 8041   1.932   0.242   3.519  0.7094 -0.1063  1.0026
 1504SOL     OW 8042   2.049   8.400   6.571 -0.0958  0.0345  0.7813
 1504SOL    HW1 8043   1.963   8.439   6.586  0.9878  2.6285  0.7149
 1504SOL    HW2 8044   2.079   8.439   6.490  0.0153 -3.0960 -0.8312
 1505SOL     OW 8045   4.016   1.324   2.808 -0.7043 -0.0285  0.0895
 1505SOL    HW1 8046   4.088   1.261   2.812 -1.6781 -1.1232  1.5407
 1505SOL    HW2 8047   4.042   1.394   2.868 -0.6452 -0.1930  0.2564
 1506SOL     OW 8048   8.754   3.010  10.818 -0.4842  0.3274  0.1663
 1506SOL    HW1 8049   8.675   3.020  10.871 -0.9199  0.1065 -0.4264
 1506SOL    HW2 8050   8.816   2.965  10.875 -0.9230  0.1485  0.5074
 1507SOL     OW 8051   4.848   9.340   1.330 -0.3743  0.3784  0.2040
 1507SOL    HW1 8052   4.795   9.381   1.398  0.3075  1.8114 -0.1056
 1507SOL    HW2 8053   4.813   9.251   1.324 -0.6871  0.3194  2.1640
 1508SOL     OW 8054   5.078   4.293   0.060 -0.2608 -0.0104  0.1937
 1508SOL    HW1 8055   5.064   4.280   0.154  1.1298 -1.1274  0.2794
 1508SOL    HW2 8056   5.052   4.209   0.021  0.2220  0.0594 -0.2832
 1509SOL     OW 8057   6.423   0.555   4.586  0.5286  0.6291  0.9412
 1509SOL    HW1 8058   6.381   0.483   4.539 -2.3693  0.1691  3.8416
 1509SOL    HW2 8059   6.375   0.633   4.559 -0.2517  0.5514  2.0182
 1510SOL     OW 8060   1.026   9.664   2.787 -0.2751  0.0480 -0.1682
 1510SOL    HW1 8061   0.967   9.704   2.723 -0.1684  1.3386  0.5158
 1510SOL    HW2 8062   1.071   9.738   2.828  0.1989 -0.7978  0.8864
 1511SOL     OW 8063   0.463   2.831   8.534 -0.2710 -0.0323  0.4646
 1511SOL    HW1 8064   0.429   2.743   8.515 -0.4495  0.2335 -0.4892
 1511SOL    HW2 8065   0.385   2.887   8.534  0.0461  0.4392 -0.8714
 1512SOL     OW 8066   6.086   6.886   6.790 -0.5643 -0.3402 -0.4468
 1512SOL    HW1 8067   6.053   6.975   6.796 -0.2308 -0.2906  1.3118
 1512SOL    HW2 8068   6.133   6.872   6.872  0.5681 -1.6768 -1.2789
 1513SOL     OW 8069   5.809   1.011   2.558 -0.6505  0.1625  0.3209
 1513SOL    HW1 8070   5.881   1.046   2.610 -0.3256 -0.1093  0.0573
 1513SOL    HW2 8071   5.781   0.932   2.606 -0.7894  0.2821  0.4366
 1514SOL     OW 8072   1.916   1.056   7.420 -0.0121  0.1825 -1.2311
 1514SOL    HW1 8073   1.979   0.991   7.389 -0.5039 -0.9607  0.0575
 1514SOL    HW2 8074   1.833   1.030   7.379  0.0330  0.7350 -1.6768
 1515SOL     OW 8075   7.908  11.021   5.691  0.3212  0.2749 -0.1291
 1515SOL    HW1 8076   7.815  11.041   5.683  0.4773  0.3585 -3.0425
 1515SOL    HW2 8077   7.946  11.098   5.735 -0.7334  1.1089 -0.6392
 1516SOL     OW 8078  10.942   9.669   0.289 -0.1623  0.3286 -0.1236
 1516SOL    HW1 8079  10.944   9.610   0.364 -2.7110 -0.3405 -0.4874
 1516SOL    HW2 8080  10.935   9.756   0.327 -1.1077  0.0172  0.4345
 1517SOL     OW 8081   4.614   3.750   7.209 -0.3228 -0.1377 -0.0523
 1517SOL    HW1 8082   4.537   3.802   7.231 -0.7710 -0.7815 -0.0609
 1517SOL    HW2 8083   4.661   3.741   7.292 -0.4461 -0.0371  0.0286
 1518SOL     OW 8084   7.882   6.975   6.392  0.1124 -0.0361  0.2029
 1518SOL    HW1 8085   7.978   6.977   6.385  0.0924 -0.5739 -0.2822
 1518SOL    HW2 8086   7.860   7.058   6.434  0.6977  0.7052 -0.8996
 1519SOL     OW 8087   1.619   4.942   9.912 -0.0293 -0.7788  0.1426
 1519SOL    HW1 8088   1.694   4.995   9.883  0.5207 -0.9376  1.2260
 1519SOL    HW2 8089   1.544   4.980   9.868  0.5024  0.2668  0.1182
 1520SOL     OW 8090   5.003   7.101   8.390  0.0538  0.0000 -0.3084
 1520SOL    HW1 8091   5.037   7.125   8.304 -0.0440 -1.3895 -0.7675
 1520SOL    HW2 8092   4.914   7.136   8.392  0.2057  0.4117 -0.5934
 1521SOL     OW 8093   9.491   5.716   7.836  0.4953 -0.5712 -0.7701
 1521SOL    HW1 8094   9.406   5.745   7.802  0.5007  0.9039  0.3459
 1521SOL    HW2 8095   9.555   5.765   7.784  0.5836 -0.2726 -0.3885
 1522SOL     OW 8096   5.281   7.386   2.558  0.1931 -0.4196  0.2934
 1522SOL    HW1 8097   5.253   7.319   2.495  0.8605 -0.9573  0.5576
 1522SOL    HW2 8098   5.367   7.415   2.525  0.9221 -1.2745  1.3670
 1523SOL     OW 8099   0.325   4.692   9.482  0.1697 -0.5519  0.2468
 1523SOL    HW1 8100   0.319   4.751   9.557 -0.5787 -0.9310  0.4970
 1523SOL    HW2 8101   0.277   4.737   9.413 -1.7475 -1.5144  0.8837
 1524SOL     OW 8102   8.335   1.614   9.402 -0.5418 -0.6282  0.1877
 1524SOL    HW1 8103   8.343   1.704   9.434  2.9006  1.1911 -4.5476
 1524SOL    HW2 8104   8.252   1.614   9.354  1.0057  1.5166 -2.8473
 1525SOL     OW 8105   5.628  10.443   8.328  0.6482 -0.2948 -0.3836
 1525SOL    HW1 8106   5.669  10.393   8.398 -0.2448 -0.1299  0.2711
 1525SOL    HW2 8107   5.581  10.378   8.276  0.2584 -0.2653 -0.0758
 1526SOL     OW 8108   6.665   8.804   1.772 -0.2910 -0.0163 -0.2053
 1526SOL    HW1 8109   6.584   8.832   1.814 -1.3262  1.2233 -2.8092
 1526SOL    HW2 8110   6.732   8.859   1.812 -0.6561 -0.9976  1.9283
 1527SOL     OW 8111   5.728   2.384   8.943 -0.6422  0.7585 -0.3622
 1527SOL    HW1 8112   5.824   2.384   8.940 -0.6485  0.4376 -0.7400
 1527SOL    HW2 8113   5.704   2.298   8.908 -1.0689  0.8641 -0.3306
 1528SOL     OW 8114   9.442   5.746   0.772  0.0863  0.4231  0.2667
 1528SOL    HW1 8115   9.368   5.688   0.754  0.3678  0.2990 -0.5207
 1528SOL    HW2 8116   9.474   5.772   0.686  1.7432 -0.5188  0.5509
 1529SOL     OW 8117   3.126   2.114   3.966 -0.1561 -0.2670 -0.2309
 1529SOL    HW1 8118   3.098   2.028   3.935  0.9784 -0.4463 -0.8390
 1529SOL    HW2 8119   3.126   2.169   3.888 -0.2616  0.1168  0.0382
 1530SOL     OW 8120   9.450   8.303   4.172  0.1757  0.3617 -0.1875
 1530SOL    HW1 8121   9.481   8.357   4.244 -0.2091  1.2990 -0.7022
 1530SOL    HW2 8122   9.366   8.270   4.201  0.6586 -0.4317  0.3505
 1531SOL     OW 8123   7.799   9.410   6.113 -0.8037  0.0144  0.4662
 1531SOL    HW1 8124   7.808   9.499   6.080 -1.2316  0.1483  0.7105
 1531SOL    HW2 8125   7.753   9.419   6.196 -1.1831 -0.4676  0.3131
 1532SOL     OW 8126   1.885   3.552   1.309  0.2303 -0.3235 -0.2813
 1532SOL    HW1 8127   1.853   3.617   1.372 -0.3896 -0.2541 -0.6528
 1532SOL    HW2 8128   1.859   3.588   1.224  0.0348 -0.9768 -0.5018
 1533SOL     OW 8129   7.473  10.037   9.690  0.4111  0.2243 -0.4889
 1533SOL    HW1 8130   7.493  10.126   9.719  0.9694 -0.7430  2.3416
 1533SOL    HW2 8131   7.381  10.025   9.712  0.3005  0.1196 -0.9880
 1534SOL     OW 8132  10.911   0.697   2.195 -0.2793 -0.0477  0.3579
 1534SOL    HW1 8133  10.904   0.627   2.260 -1.9559 -0.0603  0.1936
 1534SOL    HW2 8134  10.832   0.749   2.207  1.0197  1.9896  0.6416
 1535SOL     OW 8135  10.450   5.612   5.135 -0.3830  0.3274 -0.3049
 1535SOL    HW1 8136  10.500   5.548   5.083 -1.4390 -0.2259 -0.6625
 1535SOL    HW2 8137  10.455   5.693   5.085  0.8091  0.5011  0.0564
 1536SOL     OW 8138   7.713   8.683   1.809  0.0149  0.2460 -0.0070
 1536SOL    HW1 8139   7.791   8.699   1.862  0.3108 -1.7915  0.2482
 1536SOL    HW2 8140   7.660   8.623   1.862 -2.4285  2.5907  0.4450
 1537SOL     OW 8141  10.189   2.784   2.023  0.3534  0.4646  0.1329
 1537SOL    HW1 8142  10.270   2.810   1.979 -0.9655  1.7798 -1.6897
 1537SOL    HW2 8143  10.168   2.699   1.983  0.0718  0.8406 -0.5467
 1538SOL     OW 8144   3.736   6.176   1.844  0.1996  0.6271  0.5083
 1538SOL    HW1 8145   3.650   6.217   1.848 -0.4485 -0.6607  0.4324
 1538SOL    HW2 8146   3.763   6.169   1.936  0.6950  1.9459  0.4786
 1539SOL     OW 8147   4.062   8.427   5.256  0.2470 -0.4008  0.4549
 1539SOL    HW1 8148   4.098   8.391   5.337 -1.3923  1.6533  2.1975
 1539SOL    HW2 8149   4.022   8.510   5.281 -3.8834 -1.4881 -1.6372
 1540SOL     OW 8150   6.345   1.082   9.407 -0.4047 -0.3985 -0.1891
 1540SOL    HW1 8151   6.419   1.138   9.381 -1.7540  1.0559 -1.0666
 1540SOL    HW2 8152   6.305   1.056   9.324 -0.8177 -1.2866  0.2743
 1541SOL     OW 8153   4.581   7.646   9.340  0.5910 -0.4534 -0.4647
 1541SOL    HW1 8154   4.519   7.712   9.371  1.5447  0.2018  0.0635
 1541SOL    HW2 8155   4.662   7.665   9.386  1.0837 -1.5595 -0.8465
 1542SOL     OW 8156   4.949   4.265   7.513 -0.2364 -0.0403  0.4473
 1542SOL    HW1 8157   4.905   4.213   7.580  0.2491 -1.2068 -0.1088
 1542SOL    HW2 8158   5.035   4.224   7.503 -0.0027  0.6100 -0.3122
 1543SOL     OW 8159   6.123   6.871   5.687  0.0124  0.0971  0.2847
 1543SOL    HW1 8160   6.163   6.785   5.701  0.8494  0.7480  2.3999
 1543SOL    HW2 8161   6.186   6.919   5.633  0.1716 -0.1966  0.2069
 1544SOL     OW 8162   2.356   8.964   4.795  0.3097 -0.3808 -0.8000
 1544SOL    HW1 8163   2.265   8.992   4.808 -0.1603 -0.8468 -2.6956
 1544SOL    HW2 8164   2.408   9.037   4.828 -0.8403  1.4052 -2.6637
 1545SOL     OW 8165   9.129   4.799   4.452 -0.1378 -0.0637  0.0575
 1545SOL    HW1 8166   9.173   4.838   4.527  1.3658 -0.9538 -0.3183
 1545SOL    HW2 8167   9.155   4.853   4.378 -2.2761  1.3186  0.2064
 1546SOL     OW 8168   5.621   1.035   3.545 -0.5575  0.8501 -0.6345
 1546SOL    HW1 8169   5.599   1.068   3.458 -0.7396 -0.6231 -1.1916
 1546SOL    HW2 8170   5.554   1.072   3.603 -0.3644  1.9331 -1.0956
 1547SOL     OW 8171   6.468   3.671   8.283 -0.1390  0.0693  0.3082
 1547SOL    HW1 8172   6.465   3.765   8.302 -1.6898 -0.3414  2.5026
 1547SOL    HW2 8173   6.379   3.649   8.257  0.5400 -0.5943 -1.6608
 1548SOL     OW 8174   3.148   5.748  10.337 -0.2676  0.4409  0.0806
 1548SOL    HW1 8175   3.081   5.717  10.275  0.3169 -1.8520  0.4955
 1548SOL    HW2 8176   3.138   5.691  10.413 -0.0066  2.2600  1.5552
 1549SOL     OW 8177   7.647   0.432   5.865  0.3290 -0.1454 -0.9424
 1549SOL    HW1 8178   7.567   0.485   5.861 -1.1108 -2.1925 -0.5558
 1549SOL    HW2 8179   7.687   0.455   5.949 -2.0301 -1.9420  0.8105
 1550SOL     OW 8180   6.972   6.618   1.491  0.2416 -0.2906 -0.0356
 1550SOL    HW1 8181   7.002   6.527   1.492 -0.3257 -0.4902  1.1710
 1550SOL    HW2 8182   6.877   6.613   1.490  0.1568  0.2352  1.6129
 1551SOL     OW 8183   4.689   3.898   9.065  0.3664 -0.2542 -0.5070
 1551SOL    HW1 8184   4.661   3.831   9.002 -0.4833 -0.2929 -0.0945
 1551SOL    HW2 8185   4.767   3.936   9.025  0.3008 -0.8230 -1.2085
 1552SOL     OW 8186  10.743   0.530   4.653  0.2204 -0.3303 -0.2024
 1552SOL    HW1 8187  10.660   0.507   4.610  0.3920 -2.1033  0.3259
 1552SOL    HW2 8188  10.720   0.540   4.745  0.8241 -2.7429  0.2951
 1553SOL     OW 8189   6.359   5.341   0.621  0.5455  0.5962 -0.0702
 1553SOL    HW1 8190   6.404   5.305   0.545  1.4262  1.4514  0.0169
 1553SOL    HW2 8191   6.398   5.428   0.633  0.0159  0.7076  1.0027
 1554SOL     OW 8192   3.254   0.472   9.125  0.4382 -0.0167  0.0616
 1554SOL    HW1 8193   3.286   0.382   9.132 -0.7315 -0.4851 -0.2999
 1554SOL    HW2 8194   3.228   0.481   9.034  0.8872  0.8212  0.0096
 1555SOL     OW 8195   6.577   0.343   5.976  0.6421  0.0454 -0.0729
 1555SOL    HW1 8196   6.525   0.423   5.985  0.5222  0.1608 -1.4591
 1555SOL    HW2 8197   6.524   0.287   5.919  1.2707 -0.5226 -0.1109
 1556SOL     OW 8198   9.594   6.902   7.412  0.1957 -0.0034  0.4455
 1556SOL    HW1 8199   9.501   6.910   7.431  0.2794 -1.6459  1.8176
 1556SOL    HW2 8200   9.632   6.986   7.438 -0.6401 -0.0165  1.8013
 1557SOL     OW 8201   3.659  10.196   9.908  0.4681  0.2736 -0.1751
 1557SOL    HW1 8202   3.630  10.162   9.823  0.9356 -0.0869 -0.1974
 1557SOL    HW2 8203   3.754  10.205   9.899  0.2697  2.6079 -0.5147
 1558SOL     OW 8204   7.161   9.767   5.514  0.3803  0.0698 -0.3897
 1558SOL    HW1 8205   7.106   9.798   5.586 -0.5453  0.7486 -1.3426
 1558SOL    HW2 8206   7.121   9.684   5.487  1.3842 -0.7462  0.5661
 1559SOL     OW 8207  11.038   2.501   8.104 -0.6830 -0.6140 -0.2744
 1559SOL    HW1 8208  10.976   2.460   8.165 -1.5252  0.9805 -0.0131
 1559SOL    HW2 8209  10.996   2.494   8.018 -0.3354 -1.2272 -0.4006
 1560SOL     OW 8210  10.865   9.880  11.115 -0.1549 -0.1201  0.0061
 1560SOL    HW1 8211  10.867   9.973  11.093  0.1976 -0.1221  0.0269
 1560SOL    HW2 8212  10.777   9.866  11.150 -0.1445  0.2490  0.1935
 1561SOL     OW 8213   8.812   3.704   9.697 -0.3051  0.1910  0.7017
 1561SOL    HW1 8214   8.802   3.796   9.674 -1.3040 -0.1241 -0.2087
 1561SOL    HW2 8215   8.881   3.672   9.638 -1.3610 -0.1017 -0.4131
 1562SOL     OW 8216   6.615   2.199  10.707 -0.1134  0.4466 -0.4648
 1562SOL    HW1 8217   6.600   2.117  10.755 -1.0975  1.0164  0.2414
 1562SOL    HW2 8218   6.703   2.226  10.732 -0.1119  0.0418 -0.0131
 1563SOL     OW 8219   4.158   3.787   5.633 -0.6418 -0.0257 -0.1830
 1563SOL    HW1 8220   4.198   3.783   5.720 -0.5886 -1.9582 -0.2418
 1563SOL    HW2 8221   4.068   3.815   5.649 -1.2191 -2.1768  0.7886
 1564SOL     OW 8222   3.599   8.725   8.552 -0.1835 -0.5076  0.1686
 1564SOL    HW1 8223   3.533   8.794   8.551 -0.8303 -1.1125 -0.8927
 1564SOL    HW2 8224   3.664   8.754   8.616 -0.6445  0.8824  0.0242
 1565SOL     OW 8225   2.616   0.866   0.872  0.6232 -0.5491 -0.1744
 1565SOL    HW1 8226   2.635   0.805   0.801  1.7444 -0.3477 -0.0631
 1565SOL    HW2 8227   2.532   0.836   0.907  0.0736 -0.6949 -1.5233
 1566SOL     OW 8228   1.920   3.171   5.918 -0.4132 -0.4540  0.0893
 1566SOL    HW1 8229   1.856   3.124   5.864  0.5607  0.1184 -1.6328
 1566SOL    HW2 8230   1.992   3.109   5.930 -0.6326 -0.5880  0.8021
 1567SOL     OW 8231   3.651   5.973   3.761 -0.1513  0.0734  0.0460
 1567SOL    HW1 8232   3.737   5.933   3.747 -0.6547 -1.0600  0.0531
 1567SOL    HW2 8233   3.604   5.910   3.816 -0.5912  1.2180  1.0284
 1568SOL     OW 8234   3.717   1.023   4.948 -0.2930  0.3934 -0.3683
 1568SOL    HW1 8235   3.673   1.064   4.873  0.2817 -1.4258 -1.7859
 1568SOL    HW2 8236   3.805   1.062   4.948 -1.1208  2.3978  1.1007
 1569SOL     OW 8237  10.035   8.835   7.376  0.1222 -0.1233  0.1616
 1569SOL    HW1 8238  10.016   8.925   7.399  2.6176  0.3351  0.7861
 1569SOL    HW2 8239   9.977   8.783   7.432 -2.4162  1.0125 -1.2520
 1570SOL     OW 8240   6.972   1.423   8.303  0.3941  0.1813  0.6114
 1570SOL    HW1 8241   7.024   1.369   8.363  1.3093  1.5147  1.0669
 1570SOL    HW2 8242   7.032   1.492   8.274 -0.6360  0.7715 -0.2239
 1571SOL     OW 8243   6.135   2.410  10.505 -0.0234  0.0690  0.3702
 1571SOL    HW1 8244   6.135   2.315  10.491 -0.5924  0.1802 -0.4610
 1571SOL    HW2 8245   6.227   2.434  10.511  0.2124 -0.2455 -1.5742
 1572SOL     OW 8246   8.809   1.315  10.477  0.2892  0.4778 -0.1723
 1572SOL    HW1 8247   8.844   1.230  10.504  1.1606  1.0168  0.4335
 1572SOL    HW2 8248   8.790   1.361  10.559  1.0958  1.3810 -0.4801
 1573SOL     OW 8249  10.319  10.221   6.791 -0.0074  0.3204 -0.1672
 1573SOL    HW1 8250  10.270  10.213   6.710 -0.0960  1.2902 -0.2177
 1573SOL    HW2 8251  10.383  10.149   6.788 -0.4046 -0.0095 -0.8076
 1574SOL     OW 8252  11.121   8.231   0.724  0.1560  0.3031  0.1486
 1574SOL    HW1 8253  11.026   8.225   0.720  0.1697  0.2357 -0.1320
 1574SOL    HW2 8254  11.144   8.198   0.810 -0.0462 -0.0300  0.0759
 1575SOL     OW 8255   5.533   1.951   3.699 -0.0708 -0.3072 -0.6911
 1575SOL    HW1 8256   5.459   1.936   3.757 -0.0877  0.5513 -0.4855
 1575SOL    HW2 8257   5.608   1.912   3.744 -0.4478 -1.5555 -1.0912
 1576SOL     OW 8258   8.283   7.722   3.556  0.2532 -0.0441  0.2533
 1576SOL    HW1 8259   8.349   7.776   3.514 -0.3669  0.7813  0.3280
 1576SOL    HW2 8260   8.284   7.750   3.648  2.1373 -2.3460  1.0450
 1577SOL     OW 8261   4.377   7.010   2.571  0.1818 -0.1239 -0.0721
 1577SOL    HW1 8262   4.349   6.948   2.637 -0.7920 -2.0380 -2.1419
 1577SOL    HW2 8263   4.386   6.958   2.491  1.2425  2.0605 -1.4868
 1578SOL     OW 8264   1.043   3.083  10.897  0.0728  0.5238  0.4048
 1578SOL    HW1 8265   1.033   3.025  10.821 -0.2939  1.1560 -0.0364
 1578SOL    HW2 8266   1.136   3.082  10.916  0.1518  0.2728  0.0194
 1579SOL     OW 8267  10.583  10.596   6.629 -0.5110  0.1301  0.5320
 1579SOL    HW1 8268  10.636  10.676   6.637  0.2731 -0.2925 -0.2643
 1579SOL    HW2 8269  10.633  10.540   6.570 -0.8613 -1.1255  1.3934
 1580SOL     OW 8270  10.906  10.363   3.125  0.5097 -0.5636  0.1087
 1580SOL    HW1 8271  10.982  10.366   3.183  1.4078  1.6357 -1.0506
 1580SOL    HW2 8272  10.941  10.382   3.038 -1.3704  0.8944 -0.4134
 1581SOL     OW 8273   8.547   2.327  10.921  0.0150 -0.2069  0.4187
 1581SOL    HW1 8274   8.519   2.419  10.929 -0.0476  0.1377 -2.6360
 1581SOL    HW2 8275   8.600   2.312  10.999  2.6233  3.4390 -0.3672
 1582SOL     OW 8276   5.458   4.094   8.143 -0.4086  0.0987 -0.0704
 1582SOL    HW1 8277   5.485   4.096   8.051 -1.5131  0.0002 -0.4159
 1582SOL    HW2 8278   5.370   4.055   8.141  0.3496 -1.8703  1.2367
 1583SOL     OW 8279   1.162   6.457   1.527 -0.6106  0.7164  0.3120
 1583SOL    HW1 8280   1.175   6.551   1.511 -1.2421  0.5428 -1.3814
 1583SOL    HW2 8281   1.102   6.454   1.602 -1.4838  1.6958 -0.3155
 1584SOL     OW 8282   7.739   2.775   4.488  0.4612  0.6748 -0.0245
 1584SOL    HW1 8283   7.653   2.809   4.511  0.1772  0.4103 -0.6794
 1584SOL    HW2 8284   7.768   2.828   4.414 -0.8439 -1.6746 -2.3722
 1585SOL     OW 8285   5.769   4.280   9.532 -0.2450 -0.2696  0.1377
 1585SOL    HW1 8286   5.680   4.250   9.518 -0.7368  2.0500 -2.4118
 1585SOL    HW2 8287   5.762   4.350   9.596  0.0368 -1.1543  1.1785
 1586SOL     OW 8288   1.083   5.016   6.506 -0.4595  0.1944 -0.3419
 1586SOL    HW1 8289   1.016   4.996   6.442 -0.2562  1.4225 -0.9500
 1586SOL    HW2 8290   1.036   5.056   6.579 -0.5194 -0.0204 -0.2588
 1587SOL     OW 8291   4.439   4.279   9.718  0.3881  0.6877 -0.1374
 1587SOL    HW1 8292   4.376   4.291   9.646 -0.1199 -2.3716 -0.3598
 1587SOL    HW2 8293   4.502   4.350   9.707 -0.6308  1.3362 -2.5595
 1588SOL     OW 8294   3.291   4.966   7.982  0.3315  0.5347 -0.0139
 1588SOL    HW1 8295   3.210   4.916   7.972  0.6717 -0.2100  0.7829
 1588SOL    HW2 8296   3.310   4.998   7.894 -0.4912  0.1984 -0.3326
 1589SOL     OW 8297   9.041   9.673   4.301 -0.3287 -0.0436 -0.7236
 1589SOL    HW1 8298   9.060   9.603   4.363 -0.1570  1.3624  0.8775
 1589SOL    HW2 8299   8.993   9.738   4.352 -1.4695  0.5451 -2.4419
 1590SOL     OW 8300   3.671   1.680   1.924 -0.6369  0.2384 -0.4859
 1590SOL    HW1 8301   3.726   1.641   1.993  0.8200  0.9705 -1.1903
 1590SOL    HW2 8302   3.593   1.624   1.922 -0.6472  0.0702  1.6108
 1591SOL     OW 8303   3.326   5.678   0.981  0.6677 -0.0333 -0.1885
 1591SOL    HW1 8304   3.285   5.763   0.961  0.0987 -0.5849 -1.5233
 1591SOL    HW2 8305   3.415   5.700   1.009  0.1789  1.0630  0.5918
 1592SOL     OW 8306   7.556   7.001   7.350 -0.4459 -0.3207 -0.4669
 1592SOL    HW1 8307   7.504   7.006   7.430  0.7651 -1.2791  0.4258
 1592SOL    HW2 8308   7.592   6.912   7.351  1.0281  0.2437 -1.1418
 1593SOL     OW 8309   0.500   5.412   5.474  0.0668  0.6095  0.9558
 1593SOL    HW1 8310   0.447   5.467   5.417  1.5438  0.1164 -1.0120
 1593SOL    HW2 8311   0.498   5.326   5.432  0.4933 -0.0022  2.1404
 1594SOL     OW 8312   3.939   5.778   9.889 -0.2417 -0.3095 -0.3574
 1594SOL    HW1 8313   3.853   5.801   9.853  0.7518  0.3047 -2.5530
 1594SOL    HW2 8314   3.943   5.683   9.882 -0.7965 -0.3520 -0.1098
 1595SOL     OW 8315   0.139   1.839   6.553 -0.5904  0.3905 -0.3668
 1595SOL    HW1 8316   0.055   1.841   6.599  0.5633  0.6522  1.8565
 1595SOL    HW2 8317   0.204   1.827   6.622  1.1775 -0.6055 -2.0875
 1596SOL     OW 8318   2.648   7.245   8.680  0.2980 -0.3379  0.1287
 1596SOL    HW1 8319   2.602   7.163   8.697 -0.9517  0.1603 -0.7351
 1596SOL    HW2 8320   2.727   7.240   8.735 -1.0342 -0.9662  2.0942
 1597SOL     OW 8321   4.252   0.238   2.984 -0.1789  0.0173 -0.4263
 1597SOL    HW1 8322   4.264   0.202   2.896 -1.0356 -4.7468  1.1050
 1597SOL    HW2 8323   4.157   0.253   2.991 -0.2315 -0.4445 -0.0790
 1598SOL     OW 8324   6.789   1.825   3.042 -0.0818  0.2495 -0.2889
 1598SOL    HW1 8325   6.764   1.747   3.092  0.9756  0.1297  0.0714
 1598SOL    HW2 8326   6.795   1.795   2.952  0.4944 -0.1405 -0.1291
 1599SOL     OW 8327   9.373  10.589   4.042 -0.3871 -0.1997  0.4609
 1599SOL    HW1 8328   9.449  10.533   4.025 -1.2329 -1.0183 -0.7560
 1599SOL    HW2 8329   9.411  10.674   4.066  0.9016 -0.6476  0.0881
 1600SOL     OW 8330   6.095   3.826   3.998  0.4304  0.0236 -0.0668
 1600SOL    HW1 8331   6.100   3.916   4.031  2.0724  1.7188 -4.2079
 1600SOL    HW2 8332   6.012   3.823   3.950  1.3676  0.1394 -1.7618
 1601SOL     OW 8333  10.965   0.730   1.152 -0.0757 -0.4553 -0.1788
 1601SOL    HW1 8334  10.937   0.684   1.073  0.5968 -1.4521  0.1460
 1601SOL    HW2 8335  10.883   0.750   1.198 -0.4730  0.1607 -1.1273
 1602SOL     OW 8336   6.345   9.994   5.569 -0.0996 -0.3726 -0.0745
 1602SOL    HW1 8337   6.373   9.960   5.654  0.6653 -0.8273 -0.4976
 1602SOL    HW2 8338   6.412  10.058   5.546 -1.0786  0.8439  0.3220
 1603SOL     OW 8339  11.074   3.703   1.311  0.1068  0.1254 -0.4106
 1603SOL    HW1 8340  11.105   3.675   1.225  1.4932  0.6363 -0.1014
 1603SOL    HW2 8341  11.017   3.778   1.293  1.2522  0.9160 -0.8292
 1604SOL     OW 8342   3.004   6.550   4.185  0.3702 -0.0507  0.1847
 1604SOL    HW1 8343   3.000   6.589   4.273  1.7679 -0.0599  0.2731
 1604SOL    HW2 8344   2.937   6.597   4.135  1.4807  1.9690  0.4931
 1605SOL     OW 8345   0.573   5.045   8.803  0.6365 -0.1940  0.6564
 1605SOL    HW1 8346   0.528   5.024   8.721 -0.2770 -0.3309  1.1813
 1605SOL    HW2 8347   0.538   5.131   8.827  0.9873 -0.1043  0.8420
 1606SOL     OW 8348   9.654   1.905   3.929 -0.4858 -0.4283  0.3454
 1606SOL    HW1 8349   9.669   1.852   3.851 -3.4465  0.7424 -1.1600
 1606SOL    HW2 8350   9.669   1.995   3.900  0.1452 -0.0778  1.6651
 1607SOL     OW 8351   0.775   5.767   9.620 -0.7618  0.2103 -0.2557
 1607SOL    HW1 8352   0.772   5.675   9.648  3.2768 -0.1091 -0.2735
 1607SOL    HW2 8353   0.803   5.814   9.698 -0.0113  0.9630 -0.9667
 1608SOL     OW 8354   2.526   8.008   1.528  0.4144 -0.0418  0.4702
 1608SOL    HW1 8355   2.594   7.971   1.585  2.3399  1.5342 -0.6547
 1608SOL    HW2 8356   2.484   8.074   1.583  0.6430 -0.1615  0.7992
 1609SOL     OW 8357   7.367   3.085   9.322 -0.5037  0.1657  0.4254
 1609SOL    HW1 8358   7.383   3.022   9.392 -1.8095  1.5982  2.1226
 1609SOL    HW2 8359   7.314   3.038   9.258 -0.3183 -0.8295  0.9852
 1610SOL     OW 8360   0.405   7.404   2.304  0.4525  0.3570 -0.1660
 1610SOL    HW1 8361   0.485   7.388   2.255  0.6635 -0.9354  0.5639
 1610SOL    HW2 8362   0.399   7.500   2.309  1.4401  0.4793 -1.0249
 1611SOL     OW 8363   0.054   0.178   8.978 -0.2665  0.4436  0.5565
 1611SOL    HW1 8364   0.010   0.120   9.040  1.6689 -0.4382  1.1760
 1611SOL    HW2 8365   0.097   0.119   8.917 -1.6831  1.2937 -1.3873
 1612SOL     OW 8366   8.389   6.476   6.457  0.0713 -0.1372 -0.7060
 1612SOL    HW1 8367   8.433   6.560   6.473 -2.6515  1.3004 -0.0452
 1612SOL    HW2 8368   8.385   6.435   6.544 -2.4410  1.1945 -0.0882
 1613SOL     OW 8369   7.984   9.666   5.801 -0.0014 -0.0793 -0.7846
 1613SOL    HW1 8370   7.977   9.596   5.735  0.7684  0.2173 -1.1887
 1613SOL    HW2 8371   7.912   9.648   5.862  1.2295 -2.2779  0.1481
 1614SOL     OW 8372   0.916   4.955   6.296  0.3998  0.2632 -0.3195
 1614SOL    HW1 8373   0.958   4.966   6.211  1.6854  1.5901  0.4406
 1614SOL    HW2 8374   0.904   4.860   6.305  0.5124  0.0901 -1.8412
 1615SOL     OW 8375  10.037   0.344   5.711 -0.1981 -0.3425  0.4023
 1615SOL    HW1 8376   9.961   0.307   5.665  0.1072 -0.0518 -0.3583
 1615SOL    HW2 8377  10.113   0.310   5.663  0.1000  0.8585 -0.0282
 1616SOL     OW 8378   8.781   0.027   0.881 -0.3053  0.2640 -0.0879
 1616SOL    HW1 8379   8.788   0.121   0.865  1.9985 -0.0573 -1.4191
 1616SOL    HW2 8380   8.833  -0.014   0.812  0.7991 -1.8537  1.8376
 1617SOL     OW 8381   0.477   2.624   4.091 -0.2526  0.0870  0.2031
 1617SOL    HW1 8382   0.540   2.552   4.082 -0.3148 -0.1443  1.3731
 1617SOL    HW2 8383   0.395   2.589   4.055  0.0190  0.0119 -0.3504
 1618SOL     OW 8384   6.998   9.168  10.270 -0.0477 -0.4133  0.0349
 1618SOL    HW1 8385   7.052   9.204  10.199  0.1430 -0.3226  0.2217
 1618SOL    HW2 8386   7.007   9.232  10.341  1.6011 -1.5966  0.9653
 1619SOL     OW 8387   8.801  10.252   4.178 -0.1718  0.0446 -0.4753
 1619SOL    HW1 8388   8.729  10.276   4.237  0.9484  2.5604  0.0020
 1619SOL    HW2 8389   8.774  10.284   4.092  0.8892  2.2653 -0.0346
 1620SOL     OW 8390   5.574   5.335   1.070  0.2482 -0.0214  0.3261
 1620SOL    HW1 8391   5.579   5.337   1.166 -2.2786  2.1926  0.5471
 1620SOL    HW2 8392   5.495   5.285   1.051 -0.4051  1.2246 -0.4263
 1621SOL     OW 8393  10.472   1.112  10.057  0.1473  0.0694  0.5890
 1621SOL    HW1 8394  10.549   1.161  10.086  1.2814 -2.9460  3.2674
 1621SOL    HW2 8395  10.507   1.050   9.992 -0.1743 -0.6717  1.1102
 1622SOL     OW 8396  10.451  10.461   6.862 -0.5239 -0.2417 -0.3625
 1622SOL    HW1 8397  10.493  10.513   6.793 -2.6619  2.5675  0.2609
 1622SOL    HW2 8398  10.395  10.400   6.815  0.2215 -0.3778 -1.1139
 1623SOL     OW 8399   0.173   3.361   3.558  0.3146  0.1409  0.8171
 1623SOL    HW1 8400   0.128   3.388   3.638  2.5687  0.6465  2.0076
 1623SOL    HW2 8401   0.167   3.266   3.558 -0.5999  0.1880  0.9996
 1624SOL     OW 8402   3.313   5.848   8.839 -0.1183 -0.2456 -0.4131
 1624SOL    HW1 8403   3.373   5.821   8.908  1.2791  1.7560 -0.7346
 1624SOL    HW2 8404   3.344   5.802   8.761  1.7986  1.5339 -0.8126
 1625SOL     OW 8405   7.584   5.612   7.334 -0.3799 -0.5291 -0.1265
 1625SOL    HW1 8406   7.614   5.700   7.358  0.3042 -1.4640  2.8882
 1625SOL    HW2 8407   7.489   5.615   7.346 -0.2880 -0.3544  0.6225
 1626SOL     OW 8408   0.347  10.582  10.966  0.2018 -0.2082  0.6268
 1626SOL    HW1 8409   0.275  10.623  10.919  1.3627  0.3871 -0.6686
 1626SOL    HW2 8410   0.417  10.647  10.966  1.5148 -1.5684 -0.0521
 1627SOL     OW 8411   7.548   9.500   3.688 -0.3511 -0.0171  0.2289
 1627SOL    HW1 8412   7.560   9.410   3.657  2.0437  0.5481 -0.7071
 1627SOL    HW2 8413   7.459   9.522   3.660 -0.4600 -1.6106 -0.8657
 1628SOL     OW 8414   5.265   8.204   5.694  0.8440  0.0792 -0.1855
 1628SOL    HW1 8415   5.268   8.286   5.646  1.0720 -0.2141 -0.6869
 1628SOL    HW2 8416   5.308   8.141   5.636 -2.4668 -1.2407 -1.4854
 1629SOL     OW 8417   2.316   9.949   2.561 -0.2875  0.4228  0.3204
 1629SOL    HW1 8418   2.327   9.879   2.496 -1.4669 -0.3292  0.9060
 1629SOL    HW2 8419   2.238   9.925   2.610 -0.5134  1.9687  0.7894
 1630SOL     OW 8420   0.085   7.979   8.267  0.6470 -0.2822 -0.2397
 1630SOL    HW1 8421   0.102   7.966   8.174 -2.2480 -0.1419 -0.8888
 1630SOL    HW2 8422   0.130   8.060   8.289  2.3866 -0.9476 -1.1669
 1631SOL     OW 8423   3.608   8.794   0.829 -0.4406  0.2453  0.7946
 1631SOL    HW1 8424   3.571   8.740   0.899 -0.2303 -1.6873 -0.5159
 1631SOL    HW2 8425   3.533   8.819   0.775 -0.3321 -0.3903  0.3309
 1632SOL     OW 8426   1.286   8.326   6.343  0.1899 -0.1720 -0.1489
 1632SOL    HW1 8427   1.226   8.371   6.403  0.1149  0.1393 -0.4582
 1632SOL    HW2 8428   1.308   8.244   6.389  0.2373  0.1223  0.3626
 1633SOL     OW 8429  10.820   5.068   9.827 -0.2753 -0.6464 -0.2951
 1633SOL    HW1 8430  10.757   5.100   9.891 -0.0087  0.5100 -0.5869
 1633SOL    HW2 8431  10.835   4.977   9.851  0.7002  0.0620  1.9808
 1634SOL     OW 8432   1.010   3.428   3.414 -0.2721 -0.5597 -0.6381
 1634SOL    HW1 8433   0.979   3.487   3.344  2.6001 -0.2403 -1.7866
 1634SOL    HW2 8434   1.098   3.460   3.434 -1.0135 -0.5469  3.3402
 1635SOL     OW 8435   5.868   4.617   5.507  0.3217 -0.1497  0.0167
 1635SOL    HW1 8436   5.913   4.608   5.591  1.0182  1.4125 -0.1509
 1635SOL    HW2 8437   5.904   4.547   5.453  0.4556 -0.6760  0.7715
 1636SOL     OW 8438   4.245   2.187  10.716  0.0994 -0.0174  0.4439
 1636SOL    HW1 8439   4.187   2.261  10.700  2.1154  1.3156 -1.1665
 1636SOL    HW2 8440   4.248   2.179  10.812 -1.2088  1.0819  0.6027
 1637SOL     OW 8441   7.589   0.531   3.359 -0.1813  0.0094 -0.5043
 1637SOL    HW1 8442   7.668   0.573   3.325 -0.5179  1.3029  0.2759
 1637SOL    HW2 8443   7.559   0.589   3.428 -2.9080  0.5848 -2.0325
 1638SOL     OW 8444   1.792   6.755   0.090 -0.2151  0.6560  0.6234
 1638SOL    HW1 8445   1.868   6.702   0.113 -1.7402 -0.9896  2.2631
 1638SOL    HW2 8446   1.792   6.826   0.155  0.6733  1.5046 -0.2753
 1639SOL     OW 8447   6.130  10.213   3.590  0.0867  0.1727 -0.1309
 1639SOL    HW1 8448   6.177  10.136   3.622  0.6640 -0.2934 -1.9856
 1639SOL    HW2 8449   6.198  10.269   3.553 -0.6907 -0.2082 -2.2455
 1640SOL     OW 8450   2.305   9.828   4.664 -0.6407 -0.5957 -0.4389
 1640SOL    HW1 8451   2.318   9.907   4.610 -0.7499  0.9515  1.6818
 1640SOL    HW2 8452   2.214   9.804   4.647 -0.9844  0.4710 -0.2212
 1641SOL     OW 8453   2.926   0.862   0.944  0.6216  0.3374 -0.4853
 1641SOL    HW1 8454   2.951   0.785   0.996  0.1888  0.3748 -0.2187
 1641SOL    HW2 8455   2.944   0.837   0.854 -1.2836 -0.7823 -0.6007
 1642SOL     OW 8456   4.166   8.087   5.775  0.3380 -0.2132  0.0565
 1642SOL    HW1 8457   4.174   8.011   5.718 -1.1050 -0.8106  0.5958
 1642SOL    HW2 8458   4.215   8.156   5.730  1.2056 -1.2981 -0.7111
 1643SOL     OW 8459   2.485   3.212   5.803  0.4847  0.1431 -0.7012
 1643SOL    HW1 8460   2.429   3.135   5.795  0.4428  0.0727  0.1986
 1643SOL    HW2 8461   2.485   3.233   5.896  3.7616 -1.2176 -0.2389
 1644SOL     OW 8462  11.020  10.415   1.444  0.1243 -0.0011  0.1837
 1644SOL    HW1 8463  11.024  10.426   1.349 -0.7026  0.4157  0.1888
 1644SOL    HW2 8464  11.032  10.321   1.457 -0.0304 -0.0990 -0.3511
 1645SOL     OW 8465   2.986   3.198   7.402  0.2746  0.2670  0.6372
 1645SOL    HW1 8466   2.903   3.172   7.362  0.3458  1.1461 -0.1311
 1645SOL    HW2 8467   2.960   3.256   7.474  0.1421 -1.3871  1.9813
 1646SOL     OW 8468   7.201   3.932   4.408 -0.2576  0.1765 -0.0115
 1646SOL    HW1 8469   7.271   3.988   4.442 -0.5429 -0.4832  1.7968
 1646SOL    HW2 8470   7.178   3.970   4.323 -1.1881  3.5040  1.5791
 1647SOL     OW 8471   6.346   1.102   4.893  0.0529  0.4252 -0.0615
 1647SOL    HW1 8472   6.349   1.168   4.963 -0.6677  0.5184 -0.1120
 1647SOL    HW2 8473   6.256   1.070   4.895  0.2004 -0.0157 -0.5416
 1648SOL     OW 8474   4.300   6.066   1.252 -0.0474  0.5191  0.2208
 1648SOL    HW1 8475   4.320   6.068   1.345 -2.0570  0.1633  0.6969
 1648SOL    HW2 8476   4.252   6.148   1.236 -1.0799 -0.1429 -0.1455
 1649SOL     OW 8477   6.680   9.190   7.283 -0.3397 -0.1469 -0.1037
 1649SOL    HW1 8478   6.688   9.098   7.308 -2.4439 -0.2429  0.3880
 1649SOL    HW2 8479   6.618   9.189   7.210 -0.6412  0.9036  0.1262
 1650SOL     OW 8480   3.219   2.191   8.397  0.1660 -1.4822  0.0964
 1650SOL    HW1 8481   3.234   2.139   8.476  0.1111 -1.6850 -0.0262
 1650SOL    HW2 8482   3.246   2.279   8.421 -0.2846 -1.4484  0.4897
 1651SOL     OW 8483   7.884   0.433   4.515  0.1597  0.4652 -0.0524
 1651SOL    HW1 8484   7.902   0.339   4.518  0.2054  0.4610 -0.5045
 1651SOL    HW2 8485   7.963   0.474   4.550  0.0147  0.3239  0.4544
 1652SOL     OW 8486   2.578   8.217   8.970 -0.5515 -0.4487 -0.2278
 1652SOL    HW1 8487   2.604   8.193   8.881 -3.8616 -2.2446 -0.9121
 1652SOL    HW2 8488   2.519   8.292   8.959 -0.7730 -0.5127  0.4510
 1653SOL     OW 8489   0.517   1.445   4.000  0.1611  0.1688 -0.0070
 1653SOL    HW1 8490   0.522   1.468   4.093 -0.7123  1.6238 -0.2781
 1653SOL    HW2 8491   0.501   1.528   3.956  1.3719 -0.3680 -1.5634
 1654SOL     OW 8492   9.003   7.887   4.932 -0.1303 -0.1712  0.5973
 1654SOL    HW1 8493   8.960   7.870   5.016  1.1489 -0.6004  1.1852
 1654SOL    HW2 8494   8.949   7.840   4.868  0.8244 -2.9235  1.6329
 1655SOL     OW 8495   9.931   2.631   1.787 -0.1181  0.1806 -0.1487
 1655SOL    HW1 8496  10.026   2.639   1.787 -0.0546  0.7527 -3.2065
 1655SOL    HW2 8497   9.914   2.547   1.828  1.6697  0.0922  0.5195
 1656SOL     OW 8498   7.029   1.499   0.689 -0.2661  0.0916  0.5561
 1656SOL    HW1 8499   6.968   1.563   0.726  2.0945  2.9015 -0.1088
 1656SOL    HW2 8500   7.048   1.532   0.601  1.6944 -1.0845  0.4898
 1657SOL     OW 8501   1.102   8.971   6.590 -0.1344 -0.1587 -0.2674
 1657SOL    HW1 8502   1.026   9.018   6.555 -0.3142  0.6070  1.0807
 1657SOL    HW2 8503   1.155   9.039   6.632  0.7886 -0.8357 -0.3000
 1658SOL     OW 8504   6.673   0.636   6.865 -0.5541 -0.4639 -0.2889
 1658SOL    HW1 8505   6.581   0.612   6.851 -0.9386  1.6826 -2.0432
 1658SOL    HW2 8506   6.723   0.568   6.818 -1.2870 -1.0591 -0.2269
 1659SOL     OW 8507   0.262   8.398   3.948  0.3259  0.4279 -0.1814
 1659SOL    HW1 8508   0.283   8.348   3.869 -0.2949  0.0662 -0.1283
 1659SOL    HW2 8509   0.205   8.469   3.917 -2.0974 -1.1928  0.2257
 1660SOL     OW 8510   0.656   1.688   9.021 -0.4187 -0.7295  0.6906
 1660SOL    HW1 8511   0.626   1.599   9.040  1.7275 -1.6872  0.0105
 1660SOL    HW2 8512   0.650   1.695   8.925 -1.9918  0.4518  0.8405
 1661SOL     OW 8513   0.494   8.936   7.391  0.5444  0.1134  0.2621
 1661SOL    HW1 8514   0.491   8.871   7.461 -0.3327  0.1243  0.2426
 1661SOL    HW2 8515   0.410   8.981   7.397  0.5269  0.2228 -0.7003
 1662SOL     OW 8516  10.275   4.985   8.176  0.2044  0.3566 -0.4746
 1662SOL    HW1 8517  10.255   5.005   8.084 -0.4280 -1.0979 -0.6728
 1662SOL    HW2 8518  10.190   4.978   8.218  0.3215 -2.3017 -0.5368
 1663SOL     OW 8519   9.666   0.542  10.485  0.0489 -0.4830 -0.3038
 1663SOL    HW1 8520   9.654   0.447  10.481 -0.4345 -0.5347  1.5706
 1663SOL    HW2 8521   9.631   0.567  10.570  0.7582  1.2995 -0.4977
 1664SOL     OW 8522   0.284   4.744   6.374 -0.6098 -0.0824 -0.2038
 1664SOL    HW1 8523   0.307   4.659   6.414 -1.8805  1.0418  3.3706
 1664SOL    HW2 8524   0.206   4.725   6.322  0.1252 -1.3943 -0.8685
 1665SOL     OW 8525   3.344   2.118   1.320  0.2491  0.2449 -0.0076
 1665SOL    HW1 8526   3.280   2.174   1.275  0.9885  1.1467  0.0202
 1665SOL    HW2 8527   3.399   2.180   1.368  1.6469 -0.4341 -0.6778
 1666SOL     OW 8528   2.352   1.262   1.011 -0.3455 -0.6756 -0.3451
 1666SOL    HW1 8529   2.413   1.192   0.985 -0.3117 -0.2389 -1.4969
 1666SOL    HW2 8530   2.318   1.295   0.928 -1.0194  0.0978  0.2348
 1667SOL     OW 8531   7.188   5.049   4.485 -0.8681 -0.3364  0.2679
 1667SOL    HW1 8532   7.148   4.977   4.534 -2.5032  0.4120  0.1020
 1667SOL    HW2 8533   7.182   5.124   4.544 -0.1863 -0.0692  0.0112
 1668SOL     OW 8534   4.482   3.317  11.001  0.4814  0.3758 -0.3120
 1668SOL    HW1 8535   4.534   3.309  11.081  0.8482  2.2468 -0.3136
 1668SOL    HW2 8536   4.441   3.404  11.008 -2.1561 -0.7442 -0.6225
 1669SOL     OW 8537   2.366   9.341  10.093  0.3062  0.3818  0.0056
 1669SOL    HW1 8538   2.313   9.262  10.082 -0.2961  0.5313  1.5936
 1669SOL    HW2 8539   2.454   9.314  10.066 -0.0616 -0.5891 -0.2660
 1670SOL     OW 8540  10.946   7.893   9.730 -0.2162 -0.5579 -0.0489
 1670SOL    HW1 8541  10.997   7.850   9.661  0.6769 -1.1624  0.9490
 1670SOL    HW2 8542  10.964   7.841   9.808 -0.8170  0.3989  0.7474
 1671SOL     OW 8543   5.217   1.490   1.461 -0.3797  0.5000 -0.3161
 1671SOL    HW1 8544   5.174   1.453   1.538  1.2000 -0.1859  0.2689
 1671SOL    HW2 8545   5.211   1.420   1.395 -1.5352  1.0041 -0.7731
 1672SOL     OW 8546   0.633   6.657   9.254  0.5125  0.3405  0.2128
 1672SOL    HW1 8547   0.656   6.564   9.258  0.4942  0.2550 -1.2495
 1672SOL    HW2 8548   0.537   6.658   9.263  0.4974  0.1976  0.0781
 1673SOL     OW 8549   6.761   6.604  10.265 -0.4273  0.0669 -0.4634
 1673SOL    HW1 8550   6.719   6.622  10.349 -3.2524  0.6922 -1.9002
 1673SOL    HW2 8551   6.811   6.683  10.246  2.4960 -1.0394  1.7002
 1674SOL     OW 8552   7.172   8.264   1.969  0.5365 -0.7403 -0.6254
 1674SOL    HW1 8553   7.080   8.288   1.978  0.8753 -0.2947  2.5061
 1674SOL    HW2 8554   7.172   8.192   1.906 -2.0919 -1.5219  0.1497
 1675SOL     OW 8555   1.200   1.497   0.050  0.0838  0.0652 -0.2883
 1675SOL    HW1 8556   1.156   1.458  -0.025  0.8306 -1.1383 -0.1136
 1675SOL    HW2 8557   1.145   1.474   0.125 -1.1042  1.9483 -0.5060
 1676SOL     OW 8558   4.823  10.156   6.949 -0.8610  0.2445 -0.2654
 1676SOL    HW1 8559   4.825  10.136   6.855 -2.1461 -1.6404  0.0615
 1676SOL    HW2 8560   4.905  10.120   6.983 -1.0621 -0.4160 -0.4545
 1677SOL     OW 8561   7.583   1.323   0.041 -0.0370 -0.1695  0.1099
 1677SOL    HW1 8562   7.570   1.229   0.053 -0.4980 -0.4080 -1.9691
 1677SOL    HW2 8563   7.670   1.331   0.003 -0.6244  0.0884 -1.2235
 1678SOL     OW 8564   5.674   5.405   4.238  0.1958 -0.1973 -0.6870
 1678SOL    HW1 8565   5.709   5.447   4.317 -0.8131 -1.7680  0.6539
 1678SOL    HW2 8566   5.745   5.413   4.173  1.6141 -0.1101  0.8159
 1679SOL     OW 8567   0.262   8.471   6.066 -0.4288 -0.2729  0.2942
 1679SOL    HW1 8568   0.233   8.446   5.978 -0.3991 -0.0491  0.2190
 1679SOL    HW2 8569   0.183   8.505   6.108 -0.5901 -0.9856  0.5811
 1680SOL     OW 8570   0.695   7.205   7.352 -0.3895 -0.0848  0.3789
 1680SOL    HW1 8571   0.672   7.174   7.440 -0.6948 -1.8575 -0.2957
 1680SOL    HW2 8572   0.662   7.138   7.293 -0.0078  0.9790 -1.1038
 1681SOL     OW 8573   3.834   1.020   7.608  0.0402  0.2364  0.0369
 1681SOL    HW1 8574   3.774   1.053   7.675 -0.9136  0.6583 -1.0015
 1681SOL    HW2 8575   3.839   1.090   7.543  1.2130 -0.0333 -0.1855
 1682SOL     OW 8576   3.493   0.681   0.981  0.0776  0.9720 -0.1243
 1682SOL    HW1 8577   3.402   0.697   1.008 -0.7405 -0.6617 -1.6896
 1682SOL    HW2 8578   3.514   0.595   1.016  0.7813  1.0463 -0.3496
 1683SOL     OW 8579  10.515   8.949   3.427 -0.0563  0.4076  0.3199
 1683SOL    HW1 8580  10.426   8.960   3.394 -0.1799  1.8642  1.0585
 1683SOL    HW2 8581  10.565   8.918   3.351 -0.6207  2.3156 -0.9122
 1684SOL     OW 8582   6.983   0.397   5.490 -0.2216  0.2121  0.1134
 1684SOL    HW1 8583   6.997   0.451   5.568 -0.5557 -0.6557  0.7956
 1684SOL    HW2 8584   6.945   0.316   5.524 -0.2421 -0.2362 -0.9440
 1685SOL     OW 8585   1.512   4.665   7.607 -0.2986 -0.0988  0.3702
 1685SOL    HW1 8586   1.418   4.677   7.590  0.0583  0.2188 -1.6193
 1685SOL    HW2 8587   1.539   4.595   7.548  1.2985  1.8882 -1.4267
 1686SOL     OW 8588   4.106   6.873   6.896 -0.6245  0.0806  0.1099
 1686SOL    HW1 8589   4.168   6.929   6.849 -0.6419 -0.1288 -0.1634
 1686SOL    HW2 8590   4.048   6.840   6.828 -0.0787 -0.9702  0.1324
 1687SOL     OW 8591   5.041   6.871   0.311  0.4536 -0.1035 -0.2094
 1687SOL    HW1 8592   4.984   6.875   0.388  0.3915  1.9186 -0.3112
 1687SOL    HW2 8593   5.105   6.803   0.332 -0.0120 -0.1001  1.3117
 1688SOL     OW 8594   8.025   3.419   8.820  0.3016  0.0350  0.1350
 1688SOL    HW1 8595   7.939   3.425   8.779  0.8064  0.6639 -0.8811
 1688SOL    HW2 8596   8.076   3.362   8.762  1.0017  0.8725 -0.1008
 1689SOL     OW 8597   3.214   9.739   3.151  0.7148 -0.6148  0.4200
 1689SOL    HW1 8598   3.188   9.749   3.059  1.1632  0.7636  0.4206
 1689SOL    HW2 8599   3.152   9.676   3.187 -2.0233  1.7312  0.1598
 1690SOL     OW 8600   5.067   3.175   8.417  0.1070  0.2581  0.0932
 1690SOL    HW1 8601   4.992   3.150   8.363  1.0406  0.5350 -1.3868
 1690SOL    HW2 8602   5.116   3.236   8.363  1.6305 -0.2433  0.8506
 1691SOL     OW 8603   0.881   0.678   5.356  0.0399 -0.0479 -0.2177
 1691SOL    HW1 8604   0.796   0.722   5.360  1.1916  2.3275  0.2176
 1691SOL    HW2 8605   0.902   0.657   5.447 -0.1098 -0.7548 -0.3372
 1692SOL     OW 8606   9.727   9.107   5.785 -0.5284 -0.1379  0.5441
 1692SOL    HW1 8607   9.633   9.119   5.776 -0.5447  0.5201  1.4255
 1692SOL    HW2 8608   9.761   9.196   5.800  0.4801 -0.0804 -1.6414
 1693SOL     OW 8609   1.403  10.575   8.155 -0.4350  0.1014 -0.0145
 1693SOL    HW1 8610   1.438  10.605   8.239 -0.0338  0.5351 -0.3313
 1693SOL    HW2 8611   1.315  10.612   8.151  0.2643  1.7802 -0.6617
 1694SOL     OW 8612   7.879   0.791   9.751  0.2198 -0.3119 -0.3294
 1694SOL    HW1 8613   7.798   0.762   9.709  0.2023 -0.2572 -0.3342
 1694SOL    HW2 8614   7.947   0.775   9.686  0.4426 -1.7899  0.2383
 1695SOL     OW 8615  11.041   7.949   4.117  0.0405  0.0450 -0.0950
 1695SOL    HW1 8616  11.136   7.964   4.125  0.1961 -0.6326 -0.5444
 1695SOL    HW2 8617  11.007   8.030   4.080  0.5981 -0.0545 -0.8602
 1696SOL     OW 8618   0.123   3.067   6.350 -0.7609 -0.2181 -0.0695
 1696SOL    HW1 8619   0.053   3.064   6.414 -2.5667  0.8850 -1.8683
 1696SOL    HW2 8620   0.092   3.012   6.278  0.8647 -0.8320 -0.3546
 1697SOL     OW 8621   7.008   0.942   3.290  0.2984 -0.2126  0.0528
 1697SOL    HW1 8622   6.929   0.961   3.238  0.5743 -1.3147 -0.8195
 1697SOL    HW2 8623   6.975   0.916   3.376 -0.2004  0.9877  0.2429
 1698SOL     OW 8624   2.729   4.234   1.017 -0.9149 -0.3786 -0.0851
 1698SOL    HW1 8625   2.646   4.236   0.970 -0.3820  0.4655 -1.0177
 1698SOL    HW2 8626   2.787   4.180   0.962 -0.3053  0.5605 -0.3887
 1699SOL     OW 8627   9.136   3.165   3.534 -0.1147  0.0722 -0.0382
 1699SOL    HW1 8628   9.132   3.217   3.454  0.8288  0.2402  0.0074
 1699SOL    HW2 8629   9.072   3.204   3.593 -0.2480  0.4414 -0.4299
 1700SOL     OW 8630   8.822   6.385   9.644  0.0004  0.0692 -0.1122
 1700SOL    HW1 8631   8.757   6.404   9.575 -1.4883  0.7851  1.4089
 1700SOL    HW2 8632   8.825   6.290   9.648 -0.6669  0.0260 -0.4964
 1701SOL     OW 8633   9.288   7.440  10.471  0.2009 -0.1844  0.2346
 1701SOL    HW1 8634   9.286   7.395  10.555  0.1942 -1.3163 -0.3504
 1701SOL    HW2 8635   9.237   7.519  10.484  1.6560  0.5553  1.7922
 1702SOL     OW 8636   3.858   4.526   9.667 -0.0414 -0.4713 -0.2015
 1702SOL    HW1 8637   3.913   4.584   9.614 -0.0687 -0.9114 -0.7179
 1702SOL    HW2 8638   3.907   4.514   9.748  0.0476  0.1306 -0.1664
 1703SOL     OW 8639   0.923   8.157  10.261 -0.5118 -0.1240 -0.5812
 1703SOL    HW1 8640   0.868   8.192  10.191  0.0816  1.4085 -0.3056
 1703SOL    HW2 8641   0.863   8.105  10.314 -2.1344  2.7518  0.6213
 1704SOL     OW 8642   4.758   4.934   2.379 -0.5494 -0.1960  0.2401
 1704SOL    HW1 8643   4.753   5.014   2.327  2.0930 -0.8305 -1.1366
 1704SOL    HW2 8644   4.688   4.878   2.344 -0.2203  0.2340 -1.1738
 1705SOL     OW 8645   4.842   6.267   5.063 -0.2114  0.7359 -0.0713
 1705SOL    HW1 8646   4.780   6.281   4.991 -0.4681 -1.4840 -0.3637
 1705SOL    HW2 8647   4.907   6.336   5.052 -0.5630  0.8138 -2.1167
 1706SOL     OW 8648   8.628   6.853   8.218 -0.1085 -1.1066  0.2184
 1706SOL    HW1 8649   8.656   6.813   8.136  1.7888  0.0400  0.2685
 1706SOL    HW2 8650   8.686   6.816   8.284  1.2428  1.1090  0.3726
 1707SOL     OW 8651   5.455  10.339   7.788 -0.5739 -0.2231  0.5459
 1707SOL    HW1 8652   5.443  10.378   7.702 -0.6348 -1.4940 -0.0399
 1707SOL    HW2 8653   5.414  10.401   7.848 -1.2482  0.2936 -0.4152
 1708SOL     OW 8654   0.889   9.199   6.841  0.0017 -0.6121 -0.0060
 1708SOL    HW1 8655   0.970   9.246   6.859 -0.6877  0.2464  0.9609
 1708SOL    HW2 8656   0.856   9.174   6.927 -0.3988 -1.5771 -0.4329
 1709SOL     OW 8657   8.102   6.421   8.361 -0.0059 -0.0299 -0.2043
 1709SOL    HW1 8658   8.015   6.416   8.320 -0.6370  1.7898  0.7891
 1709SOL    HW2 8659   8.156   6.361   8.309 -1.4860 -0.1028 -1.7827
 1710SOL     OW 8660   1.035   7.730   4.126 -0.3818 -0.9308  0.0763
 1710SOL    HW1 8661   1.103   7.778   4.079 -0.7141  0.5842  1.0669
 1710SOL    HW2 8662   1.081   7.660   4.171  0.1773 -1.3267 -1.0602
 1711SOL     OW 8663   8.947   9.469   4.137  0.1652 -0.0689 -0.5435
 1711SOL    HW1 8664   8.964   9.497   4.227 -1.3121  0.2449 -0.3493
 1711SOL    HW2 8665   8.942   9.373   4.143 -0.1400 -0.0356 -0.2626
 1712SOL     OW 8666   5.562   2.149   9.420  0.0935 -0.4075 -0.5630
 1712SOL    HW1 8667   5.507   2.151   9.341  0.8673  0.6109 -1.0982
 1712SOL    HW2 8668   5.629   2.084   9.400 -1.0945 -1.9740  0.2594
 1713SOL     OW 8669   7.527   0.966   1.800 -0.3137  0.2648  0.1094
 1713SOL    HW1 8670   7.549   1.004   1.714 -0.0066 -0.7937 -0.2883
 1713SOL    HW2 8671   7.499   0.877   1.781 -1.4773  0.4194  1.0002
 1714SOL     OW 8672  10.293   5.191   8.886 -0.4485 -0.0329  0.3626
 1714SOL    HW1 8673  10.316   5.169   8.977  0.0860  2.0860  0.7931
 1714SOL    HW2 8674  10.356   5.258   8.861 -2.1821  1.2908 -0.6813
 1715SOL     OW 8675   1.353   6.706   7.427 -0.0273  0.3169 -0.3283
 1715SOL    HW1 8676   1.341   6.690   7.520 -1.1662 -0.0751 -0.5325
 1715SOL    HW2 8677   1.269   6.685   7.387  0.4202  0.5410 -1.4429
 1716SOL     OW 8678   5.415   8.387   3.707 -0.7030 -0.5897 -0.0063
 1716SOL    HW1 8679   5.323   8.369   3.726 -0.5533 -0.7303  0.5987
 1716SOL    HW2 8680   5.455   8.399   3.793 -0.0761 -0.9212 -0.2493
 1717SOL     OW 8681   5.335   8.780  11.061  0.0293  0.3136 -0.2039
 1717SOL    HW1 8682   5.423   8.743  11.052  0.5366  1.6411 -0.9765
 1717SOL    HW2 8683   5.302   8.787  10.972  0.5906  3.1058 -0.3033
 1718SOL     OW 8684   9.500   6.186   2.036  0.1222  0.1734  0.4123
 1718SOL    HW1 8685   9.416   6.167   1.993  0.1057  2.0368 -0.4962
 1718SOL    HW2 8686   9.558   6.212   1.965  2.4048 -3.5596  0.6236
 1719SOL     OW 8687   2.987  10.678   0.569 -0.5457 -0.0701 -0.4965
 1719SOL    HW1 8688   2.910  10.679   0.513 -0.6336  0.1082 -0.3738
 1719SOL    HW2 8689   2.955  10.708   0.654  0.1035  2.3323 -1.0260
 1720SOL     OW 8690   3.591   3.591   4.669  0.0939 -0.3592  0.5787
 1720SOL    HW1 8691   3.631   3.554   4.590  0.9171  0.3481  0.6534
 1720SOL    HW2 8692   3.531   3.523   4.699  1.0850 -1.3631  0.3490
 1721SOL     OW 8693   8.543   8.288   5.000  0.0911 -0.1338  0.2921
 1721SOL    HW1 8694   8.615   8.334   5.043 -0.4281  1.3608 -0.3682
 1721SOL    HW2 8695   8.489   8.358   4.962 -1.0563 -1.2715 -0.2533
 1722SOL     OW 8696  10.907   3.225   5.756 -0.1809 -1.0606  0.4393
 1722SOL    HW1 8697  10.925   3.286   5.684 -1.5210 -0.9331  0.1870
 1722SOL    HW2 8698  10.812   3.216   5.756 -0.1774 -1.2826  2.0197
 1723SOL     OW 8699   3.322   4.343   2.034  0.1399  0.1950  0.1737
 1723SOL    HW1 8700   3.277   4.330   2.117  0.4107  2.1407  0.6600
 1723SOL    HW2 8701   3.253   4.356   1.970 -0.0706 -1.3328  0.0593
 1724SOL     OW 8702   8.728   5.639   7.042 -0.1516  0.2357 -0.6159
 1724SOL    HW1 8703   8.693   5.565   7.091  0.5344 -0.0803 -0.5928
 1724SOL    HW2 8704   8.693   5.716   7.087 -0.4224 -0.0606 -0.3078
 1725SOL     OW 8705   5.662   9.917   6.589  0.1569  0.5305 -0.0592
 1725SOL    HW1 8706   5.672   9.932   6.683  0.7048  0.6683 -0.1334
 1725SOL    HW2 8707   5.708   9.835   6.573 -0.7819 -0.0085 -0.0497
 1726SOL     OW 8708   9.239   6.054   8.481 -0.2586 -0.0908  0.6068
 1726SOL    HW1 8709   9.152   6.045   8.443 -0.0759 -1.7989  0.5400
 1726SOL    HW2 8710   9.251   5.976   8.535  1.3500 -0.0415  0.3801
 1727SOL     OW 8711   6.914   3.625   4.908 -0.4056 -0.5960 -0.0177
 1727SOL    HW1 8712   6.872   3.710   4.898  0.8336 -0.1241 -1.6844
 1727SOL    HW2 8713   6.976   3.636   4.979  0.0125  0.0252 -0.4708
 1728SOL     OW 8714   9.164   6.980   5.261 -0.0730  0.1712 -0.2369
 1728SOL    HW1 8715   9.081   7.005   5.220  0.6023  3.1982  0.0037
 1728SOL    HW2 8716   9.142   6.968   5.354 -0.2491  0.9429 -0.1755
 1729SOL     OW 8717   5.604   8.683   9.425  0.6501 -0.4271 -0.3880
 1729SOL    HW1 8718   5.618   8.599   9.469 -0.3458 -0.5026 -0.1870
 1729SOL    HW2 8719   5.573   8.659   9.338 -1.5501 -0.3297  0.2900
 1730SOL     OW 8720   4.376   1.935   7.863  0.8194 -0.0326 -0.4128
 1730SOL    HW1 8721   4.334   1.988   7.795  1.6527  0.5463 -0.4942
 1730SOL    HW2 8722   4.307   1.875   7.893  0.3161  0.0039 -1.4488
 1731SOL     OW 8723   5.587   1.988   0.957  0.1769 -0.2975  0.2223
 1731SOL    HW1 8724   5.648   1.929   0.914  0.2904 -0.2346  0.2940
 1731SOL    HW2 8725   5.637   2.070   0.967 -0.1309 -0.0410 -0.2976
 1732SOL     OW 8726  10.925   5.746   1.858  0.9604  0.2203  0.2332
 1732SOL    HW1 8727  10.916   5.735   1.763  1.3491 -1.5227  0.3613
 1732SOL    HW2 8728  11.012   5.711   1.878  1.0003  0.8418  1.2124
 1733SOL     OW 8729   9.294  10.278   8.829  0.2309  0.1184  0.1847
 1733SOL    HW1 8730   9.251  10.212   8.884 -1.2942  0.6914 -0.2560
 1733SOL    HW2 8731   9.327  10.228   8.753 -2.4721  0.0136 -1.0426
 1734SOL     OW 8732   1.277   7.074   7.484 -0.1801  0.7822 -0.1153
 1734SOL    HW1 8733   1.345   7.045   7.545 -1.2088 -0.3439  0.5391
 1734SOL    HW2 8734   1.301   7.032   7.401 -1.9707 -2.7350  0.9450
 1735SOL     OW 8735   7.421   1.165   3.552 -0.5360  0.0972  0.4562
 1735SOL    HW1 8736   7.358   1.098   3.526 -0.8565  0.8041 -0.6813
 1735SOL    HW2 8737   7.410   1.175   3.646 -1.2125 -0.7004  0.4643
 1736SOL     OW 8738   4.166   9.875  10.031  0.3186 -0.4210  0.3620
 1736SOL    HW1 8739   4.257   9.844  10.027  0.8495  0.9834  0.7658
 1736SOL    HW2 8740   4.120   9.823   9.966  1.5088 -0.8936 -0.1368
 1737SOL     OW 8741   3.549   1.894   3.716  0.6647 -0.5939  0.2029
 1737SOL    HW1 8742   3.561   1.840   3.638  1.0510  0.0809 -0.2059
 1737SOL    HW2 8743   3.464   1.936   3.703  1.3074  0.5272 -0.4757
 1738SOL     OW 8744   7.886   5.355   9.952 -0.0695 -0.2798  0.2437
 1738SOL    HW1 8745   7.905   5.265   9.926 -1.1623 -0.8082  1.1736
 1738SOL    HW2 8746   7.945   5.408   9.899 -1.5683 -1.3110 -2.6474
 1739SOL     OW 8747   1.816  10.286   3.377  0.1159 -0.6520 -0.1348
 1739SOL    HW1 8748   1.844  10.370   3.413  0.3063 -0.5780 -0.4528
 1739SOL    HW2 8749   1.862  10.279   3.294  0.0318 -1.0320 -0.1513
 1740SOL     OW 8750   4.476   5.256   3.664  0.0696  0.6461 -0.3534
 1740SOL    HW1 8751   4.445   5.210   3.586 -1.5448 -1.3190  1.3265
 1740SOL    HW2 8752   4.564   5.223   3.679 -0.0392  0.1878 -0.7175
 1741SOL     OW 8753   4.553  10.570   5.036  0.0679 -0.0206 -0.2575
 1741SOL    HW1 8754   4.526  10.642   4.978  0.1120 -0.1236 -0.4061
 1741SOL    HW2 8755   4.472  10.522   5.052 -0.1585  0.6419  0.6572
 1742SOL     OW 8756   4.999   2.523   0.650  0.2150  0.4556 -0.1040
 1742SOL    HW1 8757   4.985   2.564   0.735 -2.4738  0.6231 -0.5389
 1742SOL    HW2 8758   4.949   2.576   0.589 -1.7912 -2.2182 -1.0057
 1743SOL     OW 8759   2.851  10.196   5.492  0.3431  0.0347 -0.3763
 1743SOL    HW1 8760   2.870  10.259   5.561  1.2221 -1.2165  0.5559
 1743SOL    HW2 8761   2.769  10.154   5.520 -0.4151  0.9395 -1.1554
 1744SOL     OW 8762   6.300  11.107   7.319 -0.1717  0.0129  0.2400
 1744SOL    HW1 8763   6.283  11.178   7.258 -0.7266  0.1461  0.5426
 1744SOL    HW2 8764   6.282  11.027   7.269  1.2509  0.0384 -0.3546
 1745SOL     OW 8765   7.559   5.096   3.429 -0.6005  0.1465  0.2469
 1745SOL    HW1 8766   7.655   5.102   3.433 -0.6975  2.9836  0.2687
 1745SOL    HW2 8767   7.529   5.176   3.473 -2.9707 -0.3604 -0.3536
 1746SOL     OW 8768   8.543   6.043   2.675  0.3419  0.3123  0.1794
 1746SOL    HW1 8769   8.480   6.071   2.609  0.1202  0.6188  0.5147
 1746SOL    HW2 8770   8.546   5.947   2.666 -1.7262  0.0684  1.5108
 1747SOL     OW 8771   9.650  10.796   6.129  0.0260 -0.3042  0.6527
 1747SOL    HW1 8772   9.557  10.817   6.136 -0.0383  0.4443 -1.6671
 1747SOL    HW2 8773   9.676  10.772   6.218 -2.2609 -0.0799  1.4404
 1748SOL     OW 8774   4.376   6.632   9.113  0.0553 -0.2421 -0.2000
 1748SOL    HW1 8775   4.416   6.599   9.193  0.8351 -1.0913 -0.9144
 1748SOL    HW2 8776   4.386   6.560   9.050  0.6999  0.9004 -1.4605
 1749SOL     OW 8777   5.944   8.595   6.256  0.1149  0.3455  0.0146
 1749SOL    HW1 8778   5.921   8.669   6.199 -0.4676  0.2558  0.1297
 1749SOL    HW2 8779   5.942   8.631   6.344 -2.1318 -0.2271  0.2740
 1750SOL     OW 8780   5.422   2.571   6.356  0.3073  0.0978 -0.7065
 1750SOL    HW1 8781   5.387   2.537   6.438  0.3801  0.2811 -0.6002
 1750SOL    HW2 8782   5.350   2.561   6.293  0.5089 -0.7635 -0.8071
 1751SOL     OW 8783   0.839   1.455   1.908 -0.1716  0.4224  0.1971
 1751SOL    HW1 8784   0.893   1.488   1.981  0.4678  0.3498 -0.2354
 1751SOL    HW2 8785   0.818   1.534   1.858 -0.7779  0.4986  0.5625
 1752SOL     OW 8786   1.348   3.016   3.052 -0.4954 -0.2397 -0.6835
 1752SOL    HW1 8787   1.436   2.980   3.066 -0.0019  0.6241 -1.4308
 1752SOL    HW2 8788   1.348   3.100   3.097 -0.5338  0.3002 -1.6609
 1753SOL     OW 8789   1.372   8.920   6.129 -0.1957 -0.3598  0.1169
 1753SOL    HW1 8790   1.310   8.981   6.169  1.0422  0.6811  0.5117
 1753SOL    HW2 8791   1.398   8.963   6.047  1.2626  0.0237  0.7615
 1754SOL     OW 8792   5.909   6.474   4.447  0.2080 -0.1558 -0.1354
 1754SOL    HW1 8793   5.911   6.472   4.351  0.6372 -2.6983 -0.1416
 1754SOL    HW2 8794   5.943   6.388   4.473  0.7464  0.7302  2.3189
 1755SOL     OW 8795   9.297   0.022   3.370  0.0996 -0.1468  0.4527
 1755SOL    HW1 8796   9.354  -0.048   3.339 -1.5390 -0.6955 -1.5057
 1755SOL    HW2 8797   9.213  -0.021   3.386 -0.8631  1.2999 -0.5293
 1756SOL     OW 8798   7.813   4.442   5.248 -0.0977  0.6925 -0.1565
 1756SOL    HW1 8799   7.873   4.368   5.245 -1.9134 -0.8611 -1.3512
 1756SOL    HW2 8800   7.863   4.513   5.287  1.9823 -0.9335  0.3150
 1757SOL     OW 8801   0.159   0.458   2.494  0.2328 -0.6830 -0.2273
 1757SOL    HW1 8802   0.109   0.462   2.412  0.3499 -0.2373 -0.2801
 1757SOL    HW2 8803   0.224   0.528   2.486  0.4166 -0.8088  0.1363
 1758SOL     OW 8804   2.112   9.502   6.428  0.0332 -0.1998  0.5596
 1758SOL    HW1 8805   2.121   9.581   6.374 -0.6825 -0.7512 -0.3845
 1758SOL    HW2 8806   2.199   9.491   6.468  0.6213  0.1356 -0.5900
 1759SOL     OW 8807   2.387  10.026   6.215 -0.0787 -0.4511 -0.3144
 1759SOL    HW1 8808   2.336  10.044   6.295 -0.6361 -2.4764 -0.1645
 1759SOL    HW2 8809   2.472   9.997   6.247  0.2187  0.1825 -0.5106
 1760SOL     OW 8810   1.344   7.331   4.350  0.4679  0.1156 -0.6988
 1760SOL    HW1 8811   1.343   7.246   4.306 -1.4521  0.4905 -1.4640
 1760SOL    HW2 8812   1.323   7.394   4.282  2.4809  1.3339 -0.2725
 1761SOL     OW 8813   3.713   2.240   7.678  0.2445  0.4711 -0.1177
 1761SOL    HW1 8814   3.718   2.295   7.756  2.7819  1.9674 -1.2022
 1761SOL    HW2 8815   3.783   2.176   7.689 -1.0422 -0.9896 -0.0425
 1762SOL     OW 8816   3.884   9.980  10.090 -0.7258  0.5200 -0.5504
 1762SOL    HW1 8817   3.978   9.976  10.108 -1.0683 -0.7867  1.1388
 1762SOL    HW2 8818   3.859   9.889  10.073 -1.7745  0.8038 -0.5813
 1763SOL     OW 8819   8.492   9.530   2.003 -0.1804  0.4828 -0.3881
 1763SOL    HW1 8820   8.583   9.557   2.011 -0.9686  2.7844  2.1070
 1763SOL    HW2 8821   8.453   9.594   1.943 -0.4251  0.1262 -0.6228
 1764SOL     OW 8822  10.621   3.683   0.672  0.4935 -0.3190 -0.6062
 1764SOL    HW1 8823  10.552   3.624   0.702 -0.7489  2.1008  1.6317
 1764SOL    HW2 8824  10.605   3.693   0.578 -0.6114 -1.7428 -0.6045
 1765SOL     OW 8825   9.279   0.530   4.945 -0.6213 -0.2537 -0.2208
 1765SOL    HW1 8826   9.322   0.498   5.025 -0.1317 -0.4348 -0.5455
 1765SOL    HW2 8827   9.216   0.461   4.922 -0.1864 -0.5921 -0.4341
 1766SOL     OW 8828   1.501   6.974   8.045 -0.1225  0.2040 -0.4463
 1766SOL    HW1 8829   1.591   6.948   8.023  0.0420 -1.2191  1.6513
 1766SOL    HW2 8830   1.510   7.060   8.085  0.2409  0.2981 -0.7199
 1767SOL     OW 8831   2.914  11.029  10.456  0.4098  0.1624 -0.2550
 1767SOL    HW1 8832   2.966  11.010  10.534  1.5937  0.7395 -0.8846
 1767SOL    HW2 8833   2.894  10.942  10.419  2.9004 -0.0739 -1.2450
 1768SOL     OW 8834   0.700   1.488   6.641 -0.2706 -0.0097  0.1678
 1768SOL    HW1 8835   0.736   1.410   6.682 -0.4417 -0.2660 -0.1651
 1768SOL    HW2 8836   0.664   1.539   6.713 -0.4437 -0.3876  0.3497
 1769SOL     OW 8837   2.710   4.495   7.194  0.3828 -0.0466  0.1339
 1769SOL    HW1 8838   2.771   4.523   7.125 -0.8046  3.5637  0.3049
 1769SOL    HW2 8839   2.659   4.426   7.154  1.5424  0.0427 -1.6378
 1770SOL     OW 8840   9.112   6.659   0.748 -0.1773  0.1211  0.0045
 1770SOL    HW1 8841   9.061   6.737   0.726  1.0763  0.7661 -0.6464
 1770SOL    HW2 8842   9.064   6.587   0.707 -0.9629  0.6204  0.0255
 1771SOL     OW 8843   4.114   0.083   8.306  0.6952  0.3543  0.5243
 1771SOL    HW1 8844   4.072   0.160   8.268  3.3148  2.7470  2.1747
 1771SOL    HW2 8845   4.137   0.029   8.230 -2.3958  0.3925 -0.5944
 1772SOL     OW 8846   5.546   8.827   1.257  0.2563  0.0268  0.2950
 1772SOL    HW1 8847   5.573   8.737   1.275 -1.3941 -0.6173 -0.2531
 1772SOL    HW2 8848   5.568   8.875   1.337 -0.7323 -1.3098  1.4185
 1773SOL     OW 8849   3.356  10.175  10.385 -0.1848  0.4398 -0.0755
 1773SOL    HW1 8850   3.373  10.093  10.341 -1.4608 -0.0715  0.3277
 1773SOL    HW2 8851   3.436  10.194  10.434  0.4345 -0.1000 -0.8722
 1774SOL     OW 8852  11.109   1.181   7.074 -0.4462  0.2586 -0.2229
 1774SOL    HW1 8853  11.184   1.240   7.066 -0.5196  0.3013 -0.6253
 1774SOL    HW2 8854  11.147   1.097   7.098 -0.1722  0.0354 -1.3923
 1775SOL     OW 8855   7.480   6.357   1.485  0.3488 -0.4991  0.1958
 1775SOL    HW1 8856   7.464   6.269   1.452 -1.9851  0.2803 -1.0420
 1775SOL    HW2 8857   7.551   6.391   1.431 -0.6162 -0.6966 -1.2549
 1776SOL     OW 8858   5.610   1.482  10.017  0.0438 -0.6400 -0.6070
 1776SOL    HW1 8859   5.560   1.561  10.036  2.2079  0.5209  0.6876
 1776SOL    HW2 8860   5.633   1.489   9.925 -0.6200 -0.2822 -0.7491
 1777SOL     OW 8861   1.134   2.147   2.643 -0.7531  0.5575  0.9176
 1777SOL    HW1 8862   1.213   2.191   2.674  0.2733  0.0519 -0.8463
 1777SOL    HW2 8863   1.063   2.190   2.690  0.4307  2.2667  1.2307
 1778SOL     OW 8864   0.250  11.100   5.848  0.0224  0.4053  0.0568
 1778SOL    HW1 8865   0.317  11.091   5.915  0.8216 -0.0543 -0.7706
 1778SOL    HW2 8866   0.222  11.010   5.830  0.5877  0.4157 -0.9613
 1779SOL     OW 8867  10.067  10.697   5.996  0.0182  0.1464  0.2536
 1779SOL    HW1 8868  10.104  10.785   6.005 -0.1185  0.2433 -0.1301
 1779SOL    HW2 8869  10.119  10.656   5.928 -2.3376  1.2675 -2.4214
 1780SOL     OW 8870   4.324  10.565   0.961 -0.1635 -0.3104  0.0463
 1780SOL    HW1 8871   4.408  10.568   1.006 -0.8089  0.0609  1.2681
 1780SOL    HW2 8872   4.323  10.479   0.918  0.8194 -0.3247  0.0260
 1781SOL     OW 8873   0.666   8.315   2.247  0.1302 -0.4411  0.1915
 1781SOL    HW1 8874   0.643   8.261   2.172  0.1032  0.2657 -0.3154
 1781SOL    HW2 8875   0.616   8.277   2.320 -1.6379  0.2437 -0.6065
 1782SOL     OW 8876   0.684   8.211   5.343 -0.2547  0.6830  0.2660
 1782SOL    HW1 8877   0.602   8.163   5.330 -0.3124  0.5746  0.9715
 1782SOL    HW2 8878   0.666   8.299   5.312 -0.4351  0.4885 -0.1873
 1783SOL     OW 8879  11.097   5.927   0.038 -0.1032 -1.0186  0.3957
 1783SOL    HW1 8880  11.102   5.943  -0.056 -3.5363 -1.7486 -0.0671
 1783SOL    HW2 8881  11.031   5.858   0.046 -0.8693 -0.0660  3.4030
 1784SOL     OW 8882   4.443   6.244   2.052 -0.2286  0.0765 -0.5836
 1784SOL    HW1 8883   4.511   6.220   2.115 -2.3436 -0.6978  1.5601
 1784SOL    HW2 8884   4.429   6.164   2.002 -0.5340 -0.1942 -0.0699
 1785SOL     OW 8885   9.407   3.917   7.052 -0.0171 -0.2617  0.1279
 1785SOL    HW1 8886   9.445   3.899   7.138 -0.8664 -1.3909  0.2926
 1785SOL    HW2 8887   9.377   3.831   7.021 -0.9601  0.3436 -0.6893
 1786SOL     OW 8888   2.619   8.803   2.119  0.1095 -0.5742  0.0358
 1786SOL    HW1 8889   2.691   8.864   2.102 -0.0131 -0.7800 -1.3250
 1786SOL    HW2 8890   2.565   8.848   2.184  0.7852  0.1309  0.1318
 1787SOL     OW 8891   0.641   5.274   8.047  0.1554  0.9031 -0.3352
 1787SOL    HW1 8892   0.573   5.340   8.044  0.8261  1.5907 -1.3552
 1787SOL    HW2 8893   0.635   5.229   7.962 -1.5196 -1.6936  1.0094
 1788SOL     OW 8894   1.597   3.635   9.292  0.1700  0.0020 -0.2825
 1788SOL    HW1 8895   1.664   3.693   9.254 -0.3827 -0.5696 -2.2630
 1788SOL    HW2 8896   1.630   3.615   9.379  2.1931  0.3933 -0.8855
 1789SOL     OW 8897   6.505   0.084   2.377 -0.2180  0.2279  0.2251
 1789SOL    HW1 8898   6.449   0.161   2.378 -0.0829  0.3321 -0.2227
 1789SOL    HW2 8899   6.506   0.054   2.468 -1.9098 -0.4336  0.0491
 1790SOL     OW 8900   0.440   7.863   0.890  0.0927  0.1085 -0.0094
 1790SOL    HW1 8901   0.453   7.845   0.797 -1.4493  3.3917 -1.0075
 1790SOL    HW2 8902   0.346   7.853   0.904  0.1138  0.9265  0.8539
 1791SOL     OW 8903   7.410   6.527   0.586  0.1906 -0.2060  0.1603
 1791SOL    HW1 8904   7.378   6.585   0.655 -2.1097 -0.8888 -0.2678
 1791SOL    HW2 8905   7.333   6.506   0.534  1.2569 -2.2880 -0.7155
 1792SOL     OW 8906  10.360   9.136   7.424 -0.1267  0.0876  0.6909
 1792SOL    HW1 8907  10.451   9.161   7.442  0.2464 -0.1650 -0.7663
 1792SOL    HW2 8908  10.309   9.211   7.454  0.7343  1.1864 -0.4669
 1793SOL     OW 8909   9.368   0.535   2.563 -0.3299  0.1544 -0.2766
 1793SOL    HW1 8910   9.402   0.446   2.553  0.5100  0.2379  1.5690
 1793SOL    HW2 8911   9.437   0.591   2.529  0.7336  0.2349  1.8648
 1794SOL     OW 8912   1.361   4.185   7.522 -0.5586  0.8442  0.6320
 1794SOL    HW1 8913   1.329   4.222   7.605 -0.4801  0.9574  0.6122
 1794SOL    HW2 8914   1.457   4.186   7.531 -0.5703 -0.0645  0.9372
 1795SOL     OW 8915   9.339   1.839   4.325  0.3737 -0.5670 -0.3578
 1795SOL    HW1 8916   9.270   1.852   4.261 -1.0621  2.8601  1.6087
 1795SOL    HW2 8917   9.303   1.775   4.387  0.1285 -0.8624 -0.8010
 1796SOL     OW 8918   4.633   6.938   5.743  0.3988  0.1269 -0.1101
 1796SOL    HW1 8919   4.630   6.998   5.668  2.0714 -0.7664 -0.9489
 1796SOL    HW2 8920   4.697   6.871   5.717  0.5235 -0.5686  1.8674
 1797SOL     OW 8921   2.825   4.586   4.086 -0.2418  0.0232 -0.4443
 1797SOL    HW1 8922   2.733   4.604   4.107 -0.1076 -1.9465  2.3908
 1797SOL    HW2 8923   2.833   4.491   4.090  1.7301  0.0565 -1.8077
 1798SOL     OW 8924  10.423   2.395   7.905  0.2201  0.0682  0.2190
 1798SOL    HW1 8925  10.489   2.462   7.918 -0.2162  0.2283  1.7087
 1798SOL    HW2 8926  10.339   2.440   7.915 -0.1785 -0.0810 -1.8730
 1799SOL     OW 8927   2.385   7.956  10.461 -0.2687  0.4598 -0.4596
 1799SOL    HW1 8928   2.463   7.929  10.510  0.0883  1.4590 -0.4628
 1799SOL    HW2 8929   2.380   7.895  10.388 -0.9203 -1.1849  0.8923
 1800SOL     OW 8930   0.274   7.299  10.800 -0.5930  0.0453 -0.2375
 1800SOL    HW1 8931   0.272   7.215  10.847  1.0047 -0.6363 -1.3024
 1800SOL    HW2 8932   0.244   7.363  10.865 -1.0839 -1.2295  0.8490
 1801SOL     OW 8933   8.745   0.397   4.979 -0.2061  1.0008 -0.2459
 1801SOL    HW1 8934   8.737   0.449   5.059 -1.5957  1.6724 -0.7946
 1801SOL    HW2 8935   8.746   0.306   5.009 -0.7775  1.2458  0.5249
 1802SOL     OW 8936   1.925  10.641   3.226  0.0579  0.4244  0.1599
 1802SOL    HW1 8937   1.846  10.696   3.230  0.3060  0.8973 -1.0024
 1802SOL    HW2 8938   1.896  10.561   3.182 -0.0435  0.0782  0.8407
 1803SOL     OW 8939   6.825   9.628   6.994 -0.4394  0.1763  0.2275
 1803SOL    HW1 8940   6.732   9.618   7.016 -0.5606 -1.5849 -0.8639
 1803SOL    HW2 8941   6.865   9.547   7.026  1.1705  1.7887  2.5799
 1804SOL     OW 8942   6.981   5.156   5.595  0.1496 -0.1019 -0.2446
 1804SOL    HW1 8943   6.943   5.185   5.678  2.2847 -0.1488  0.8048
 1804SOL    HW2 8944   7.068   5.124   5.618  0.0856 -1.8937 -2.2537
 1805SOL     OW 8945   7.631   0.832   3.331 -0.7822 -0.3338  0.7673
 1805SOL    HW1 8946   7.637   0.873   3.417 -0.9586 -2.1473  1.6690
 1805SOL    HW2 8947   7.720   0.837   3.296 -0.6916  0.3252  1.0743
 1806SOL     OW 8948   5.447   4.707   6.947 -0.6186 -0.7719  0.2432
 1806SOL    HW1 8949   5.518   4.642   6.941  0.7668  0.6692  0.3274
 1806SOL    HW2 8950   5.418   4.701   7.038 -0.7030 -1.4616  0.1799
 1807SOL     OW 8951  10.632   5.176   5.064  0.2501 -0.2041 -0.2889
 1807SOL    HW1 8952  10.694   5.135   5.004 -1.4836 -1.0876 -1.5897
 1807SOL    HW2 8953  10.553   5.121   5.059 -0.5862  0.7399  1.4370
 1808SOL     OW 8954   4.903   5.751   5.724  0.4714  0.2786 -0.3145
 1808SOL    HW1 8955   4.879   5.676   5.778  1.0549  0.0551 -0.3600
 1808SOL    HW2 8956   4.940   5.814   5.785  0.9118  0.1213 -0.4139
 1809SOL     OW 8957   5.085   5.807   8.752 -0.2431  0.9569 -0.6793
 1809SOL    HW1 8958   5.000   5.829   8.790  1.0170  1.6607  2.0509
 1809SOL    HW2 8959   5.146   5.818   8.825  1.9832 -1.1021 -2.0999
 1810SOL     OW 8960   0.864   9.072   7.106 -0.1281  0.0464 -0.2767
 1810SOL    HW1 8961   0.853   8.980   7.080  0.0406  0.3512 -1.4557
 1810SOL    HW2 8962   0.790   9.090   7.164 -0.5887 -0.6150 -0.6487
 1811SOL     OW 8963  10.184  10.103   1.297  0.4748 -0.3763 -0.1964
 1811SOL    HW1 8964  10.141  10.176   1.342 -0.6598 -1.8503  1.1955
 1811SOL    HW2 8965  10.170  10.121   1.204 -0.7293  0.6084  0.1454
 1812SOL     OW 8966  10.497   5.757  10.453  0.2618 -0.5347  0.5763
 1812SOL    HW1 8967  10.449   5.839  10.445  0.8712 -0.2165  0.1553
 1812SOL    HW2 8968  10.583   5.782  10.485  0.1231 -1.1183  1.4399
 1813SOL     OW 8969   6.123   7.827   6.361  0.1782 -0.4894 -0.4908
 1813SOL    HW1 8970   6.029   7.844   6.362  0.4425  1.1530  0.7780
 1813SOL    HW2 8971   6.158   7.895   6.302  0.6707 -0.4061 -0.1017
 1814SOL     OW 8972   2.915   9.477   9.862 -0.3320  0.5246 -0.3003
 1814SOL    HW1 8973   2.834   9.497   9.815 -0.5401  0.4816  0.0396
 1814SOL    HW2 8974   2.898   9.394   9.905  0.8106 -0.8631 -2.3656
 1815SOL     OW 8975   1.667   2.813   4.244  0.2744  0.5511 -0.1113
 1815SOL    HW1 8976   1.681   2.819   4.338 -1.8175 -0.7208  0.3467
 1815SOL    HW2 8977   1.691   2.723   4.221 -2.4156 -0.2572 -0.0850
 1816SOL     OW 8978   9.780   3.710   1.351  0.1635 -0.3095  0.2538
 1816SOL    HW1 8979   9.729   3.791   1.343  1.0748  0.2358 -0.1791
 1816SOL    HW2 8980   9.727   3.644   1.306 -0.3820  0.1329  0.2317
 1817SOL     OW 8981   0.581   2.290  10.559 -0.0726 -0.2846 -0.0814
 1817SOL    HW1 8982   0.626   2.374  10.566  1.1936 -1.0541  1.6762
 1817SOL    HW2 8983   0.593   2.249  10.645 -2.0328 -1.6022 -0.3639
 1818SOL     OW 8984   4.740   6.127   6.510 -0.1104  0.0471 -0.2158
 1818SOL    HW1 8985   4.761   6.078   6.430  1.5379 -0.2561  0.3578
 1818SOL    HW2 8986   4.709   6.060   6.571  1.8331 -0.3130  0.4604
 1819SOL     OW 8987  10.561   8.625   3.266 -0.0464 -0.1305  0.2544
 1819SOL    HW1 8988  10.478   8.615   3.313  0.0601  0.9640  0.7100
 1819SOL    HW2 8989  10.610   8.546   3.288 -0.4777 -0.2025  1.0103
 1820SOL     OW 8990   4.843   3.153   8.568  0.2507  0.3208 -0.1668
 1820SOL    HW1 8991   4.913   3.088   8.569  0.5949  0.6870  1.3034
 1820SOL    HW2 8992   4.763   3.102   8.583  0.2887  0.0062 -1.0065
 1821SOL     OW 8993   3.627  10.381   6.870 -0.1516 -0.2719  0.1706
 1821SOL    HW1 8994   3.587  10.295   6.853 -2.3023  0.9072 -1.1436
 1821SOL    HW2 8995   3.622  10.391   6.965 -1.2340 -1.0109  0.2153
 1822SOL     OW 8996   9.352  10.386   7.193 -0.5649  0.0314 -0.2285
 1822SOL    HW1 8997   9.344  10.459   7.132 -0.4026  0.6410  0.4721
 1822SOL    HW2 8998   9.269  10.384   7.240 -0.4711 -0.0682 -0.0641
 1823SOL     OW 8999   1.541  10.833   7.660  0.0729 -0.0544 -0.3439
 1823SOL    HW1 9000   1.469  10.895   7.670 -0.3113 -0.3262 -1.2365
 1823SOL    HW2 9001   1.521  10.763   7.721 -1.3162 -0.9038 -1.6812
 1824SOL     OW 9002   3.036  10.433   6.113 -0.2394 -0.0873 -0.1267
 1824SOL    HW1 9003   2.999  10.521   6.121 -0.9618 -0.4622  0.9699
 1824SOL    HW2 9004   3.034  10.414   6.019  0.9249  1.4607 -0.4878
 1825SOL     OW 9005   3.421   0.980   7.085 -0.1334  0.2399  0.6355
 1825SOL    HW1 9006   3.400   0.887   7.095 -0.9736  0.5251  1.7642
 1825SOL    HW2 9007   3.508   0.989   7.124 -0.1230 -0.0344  0.6811
 1826SOL     OW 9008   9.727   8.961   6.665 -0.1324 -0.0552  0.0725
 1826SOL    HW1 9009   9.659   9.009   6.616 -0.2790 -0.4802 -0.1453
 1826SOL    HW2 9010   9.743   8.882   6.613 -1.6675 -1.4866  1.6452
 1827SOL     OW 9011   8.054   5.703   8.905  0.1827  0.4359 -0.1560
 1827SOL    HW1 9012   8.039   5.743   8.820  1.2017  0.7839 -0.1890
 1827SOL    HW2 9013   8.058   5.609   8.887 -0.2936  0.4547 -0.3770
 1828SOL     OW 9014   3.161   8.181   8.528 -0.0995 -0.5414 -0.4067
 1828SOL    HW1 9015   3.119   8.156   8.611  1.0828 -0.7910  0.1345
 1828SOL    HW2 9016   3.232   8.118   8.517  0.3179  0.0447 -1.1581
 1829SOL     OW 9017   2.421   2.906   9.219 -0.6070 -0.4706 -0.6900
 1829SOL    HW1 9018   2.365   2.941   9.288 -0.1444  0.0208 -0.5596
 1829SOL    HW2 9019   2.417   2.971   9.149  1.9809  1.0082  0.4032
 1830SOL     OW 9020  10.497  10.039   6.711  0.3117  0.1533  0.1685
 1830SOL    HW1 9021  10.567  10.103   6.726  2.3177 -1.8902  0.1502
 1830SOL    HW2 9022  10.527   9.960   6.757 -2.4900 -0.5468  1.0015
 1831SOL     OW 9023  10.688   6.601   6.887 -0.5141  0.4085 -0.1983
 1831SOL    HW1 9024  10.689   6.506   6.895 -0.3754  0.2010 -2.0905
 1831SOL    HW2 9025  10.724   6.618   6.799  0.9418  2.2926  0.6898
 1832SOL     OW 9026   7.056  10.940   9.866 -0.3027  0.4525 -0.0592
 1832SOL    HW1 9027   7.014  10.899   9.942 -1.3161  1.8836  0.1825
 1832SOL    HW2 9028   7.036  11.033   9.874 -3.0574  0.3884 -3.5878
 1833SOL     OW 9029   0.298   5.534   2.475 -0.1571 -0.4593 -0.4200
 1833SOL    HW1 9030   0.389   5.526   2.446  0.1986  1.7803 -0.0953
 1833SOL    HW2 9031   0.302   5.516   2.569 -0.1541 -0.9557 -0.5138
 1834SOL     OW 9032   8.041   2.278   6.653  0.1398 -0.3066 -0.5902
 1834SOL    HW1 9033   8.106   2.224   6.608  0.4284  0.6161 -1.3127
 1834SOL    HW2 9034   8.032   2.356   6.597 -0.6851  0.1282  0.1322
 1835SOL     OW 9035   8.108   6.289   2.239  0.3432  0.1833 -0.0590
 1835SOL    HW1 9036   8.148   6.226   2.179 -1.4741  1.5153 -2.8933
 1835SOL    HW2 9037   8.046   6.236   2.290  1.6857 -0.9268  0.4968
 1836SOL     OW 9038   2.916   5.531   2.564  0.0441  0.1195 -0.0604
 1836SOL    HW1 9039   2.822   5.539   2.580 -0.2040 -1.7124 -0.4350
 1836SOL    HW2 9040   2.953   5.506   2.649  0.1713  0.5325  0.0116
 1837SOL     OW 9041   6.074   9.635   8.208 -0.3269 -0.2276  0.2806
 1837SOL    HW1 9042   6.025   9.716   8.219  0.2649  0.6979 -3.0080
 1837SOL    HW2 9043   6.024   9.584   8.144  1.7081 -0.2565 -1.4091
 1838SOL     OW 9044   4.053   9.780   8.240  0.3569 -0.1489 -0.3448
 1838SOL    HW1 9045   4.024   9.694   8.209 -0.1046 -0.6824  1.4727
 1838SOL    HW2 9046   4.141   9.764   8.275 -0.1029 -0.0847  0.8513
 1839SOL     OW 9047   9.494   4.162   7.129 -0.4734  0.6598 -1.1877
 1839SOL    HW1 9048   9.457   4.076   7.110  0.2004  0.3227 -0.9861
 1839SOL    HW2 9049   9.431   4.202   7.190 -0.2749 -0.0954 -0.4695
 1840SOL     OW 9050  10.889   2.444   4.802  0.1456  0.7167  0.0017
 1840SOL    HW1 9051  10.814   2.498   4.778 -0.1435  1.2272  1.9202
 1840SOL    HW2 9052  10.855   2.355   4.803  0.0359  0.7350 -0.8433
 1841SOL     OW 9053   8.591   8.146   3.835  0.3204 -0.2049 -0.1302
 1841SOL    HW1 9054   8.664   8.092   3.805 -0.7729 -1.0844 -1.3422
 1841SOL    HW2 9055   8.550   8.094   3.904  0.3118 -0.1160 -0.0686
 1842SOL     OW 9056   0.078   4.882   2.838 -0.9101 -0.0690 -0.2100
 1842SOL    HW1 9057   0.155   4.890   2.782 -0.4761 -1.1133  0.2203
 1842SOL    HW2 9058   0.004   4.886   2.777 -0.4286 -1.9628 -0.9731
 1843SOL     OW 9059   6.636   2.251  10.134 -0.0838 -0.2507  0.1129
 1843SOL    HW1 9060   6.624   2.302  10.053  0.3263 -0.0957  0.1501
 1843SOL    HW2 9061   6.717   2.203  10.120  0.9142  1.0703  1.0994
 1844SOL     OW 9062   9.790   0.419   4.687  0.6203 -0.7142  0.0385
 1844SOL    HW1 9063   9.852   0.357   4.649 -0.4349 -1.9125  0.1955
 1844SOL    HW2 9064   9.804   0.411   4.781  0.7884 -0.3981  0.0376
 1845SOL     OW 9065   7.721   1.448   4.615  0.0160  0.4076 -0.1191
 1845SOL    HW1 9066   7.669   1.370   4.629 -0.7038  0.5259 -1.8331
 1845SOL    HW2 9067   7.661   1.510   4.574  1.1954  0.9527 -1.1025
 1846SOL     OW 9068   7.691   9.865   9.621 -0.0724 -0.2009  0.3810
 1846SOL    HW1 9069   7.771   9.906   9.655  0.2777 -0.0286 -0.6229
 1846SOL    HW2 9070   7.621   9.926   9.644 -0.2575 -1.2232  2.9719
 1847SOL     OW 9071  10.929   3.201   3.297  0.1209 -0.0110 -0.1138
 1847SOL    HW1 9072  10.872   3.277   3.282 -0.2204 -0.3723 -0.7343
 1847SOL    HW2 9073  10.907   3.141   3.225  0.7471 -0.4803  0.0800
 1848SOL     OW 9074   7.833   5.697   2.229  0.1041 -0.3053  0.5360
 1848SOL    HW1 9075   7.753   5.717   2.279  0.4477 -0.0833  1.0022
 1848SOL    HW2 9076   7.831   5.602   2.217 -0.6351 -0.2161 -0.1480
 1849SOL     OW 9077   8.051   7.060   3.005  0.4357  0.2986 -0.5103
 1849SOL    HW1 9078   7.999   7.027   3.079 -0.2817  2.8075  0.2097
 1849SOL    HW2 9079   8.134   7.088   3.045  0.4109  0.8085 -0.8092
 1850SOL     OW 9080   1.821   3.714   5.810 -0.0865  0.0471  0.0889
 1850SOL    HW1 9081   1.887   3.654   5.774  0.1757  0.0644  0.5280
 1850SOL    HW2 9082   1.871   3.791   5.837  0.1666 -0.9844  2.8813
 1851SOL     OW 9083   9.286   3.999   5.327 -0.0307 -0.1513 -0.2078
 1851SOL    HW1 9084   9.347   3.925   5.326  1.4620  1.0323 -0.3685
 1851SOL    HW2 9085   9.299   4.041   5.412 -1.5293 -0.5570  0.2615
 1852SOL     OW 9086   6.789   9.013  10.974 -0.1510 -0.1089  0.5715
 1852SOL    HW1 9087   6.836   9.090  10.941 -0.4121 -0.3660 -0.4309
 1852SOL    HW2 9088   6.697   9.042  10.978 -0.1465 -0.1403  0.8831
 1853SOL     OW 9089   6.350   1.859  10.725  0.2199 -0.2026  0.1421
 1853SOL    HW1 9090   6.266   1.903  10.742 -1.0062 -1.9127 -1.1956
 1853SOL    HW2 9091   6.414   1.911  10.773 -1.9227 -0.3394  3.4170
 1854SOL     OW 9092   5.165   8.069   0.712  0.1918 -0.5995 -0.5649
 1854SOL    HW1 9093   5.192   8.092   0.623  1.0670  1.0767  0.0798
 1854SOL    HW2 9094   5.085   8.119   0.726  1.1717  0.8248  0.2565
 1855SOL     OW 9095   6.674   0.433   1.007  0.5434  0.2917  0.3917
 1855SOL    HW1 9096   6.740   0.496   1.035  0.0819  0.0385  2.1142
 1855SOL    HW2 9097   6.659   0.377   1.083 -0.4780 -0.6789 -0.4818
 1856SOL     OW 9098   5.695   0.102   2.395  0.4269 -0.1030  0.1872
 1856SOL    HW1 9099   5.778   0.129   2.433 -0.2662  1.0164  0.9836
 1856SOL    HW2 9100   5.680   0.014   2.430  1.1640 -0.2206  0.2166
 1857SOL     OW 9101   1.002   8.636  10.290  0.5119  0.0779 -0.0743
 1857SOL    HW1 9102   1.053   8.621  10.211  0.2293 -1.4758  0.0180
 1857SOL    HW2 9103   0.911   8.620  10.263  0.4516 -0.8450  0.6444
 1858SOL     OW 9104   3.979   3.076   3.114 -0.0866  0.7991  0.9274
 1858SOL    HW1 9105   3.987   3.160   3.159  1.4099  0.5245  1.2222
 1858SOL    HW2 9106   4.048   3.022   3.152 -1.2912 -0.7317  1.0582
 1859SOL     OW 9107   1.165   4.046   3.227  0.1117 -0.5126 -0.2446
 1859SOL    HW1 9108   1.150   3.975   3.165  4.1468  0.1950 -2.3866
 1859SOL    HW2 9109   1.150   4.007   3.313  0.6963 -3.5481 -1.3830
 1860SOL     OW 9110  10.027   7.620   2.534  0.5259  1.0140  0.1343
 1860SOL    HW1 9111   9.987   7.558   2.594  1.0066  1.0462  0.4893
 1860SOL    HW2 9112  10.105   7.576   2.502 -0.1569  0.6647 -1.1129
 1861SOL     OW 9113   8.435   9.050   1.322 -0.1166 -0.1143  0.6798
 1861SOL    HW1 9114   8.494   9.115   1.362 -0.9016  0.3482  1.1004
 1861SOL    HW2 9115   8.390   9.098   1.253 -1.8392  0.2509  1.9942
 1862SOL     OW 9116   9.346   0.320   0.139 -0.1790 -0.1189  0.0752
 1862SOL    HW1 9117   9.392   0.400   0.114 -0.7123  0.3254  0.5118
 1862SOL    HW2 9118   9.257   0.348   0.158 -0.2151 -0.7254  0.8289
 1863SOL     OW 9119   4.083   8.959   5.920  0.3956  0.4924 -0.0123
 1863SOL    HW1 9120   4.136   8.942   5.842  1.5021 -1.0246  1.0192
 1863SOL    HW2 9121   4.062   9.052   5.915  0.6047  0.4792 -2.0033
 1864SOL     OW 9122   7.519   7.112   7.892  0.0089  0.3083 -0.0300
 1864SOL    HW1 9123   7.432   7.073   7.880 -0.2112  0.8384 -0.2014
 1864SOL    HW2 9124   7.542   7.091   7.982 -0.4782  0.5063  0.1467
 1865SOL     OW 9125   3.781   3.374   3.810 -0.6902 -0.5501 -0.0240
 1865SOL    HW1 9126   3.787   3.293   3.862 -0.1492 -1.3064 -1.2263
 1865SOL    HW2 9127   3.854   3.427   3.841  0.1327 -1.3418 -0.5488
 1866SOL     OW 9128   4.265   3.566   4.611  0.6166  0.8250  0.5108
 1866SOL    HW1 9129   4.272   3.536   4.702  0.4511 -1.6859 -0.2308
 1866SOL    HW2 9130   4.187   3.622   4.611  0.2004  0.3073  1.7815
 1867SOL     OW 9131   0.377   8.266   5.200 -0.5139 -0.0486 -0.1396
 1867SOL    HW1 9132   0.343   8.262   5.289  0.4501  1.0438  0.3139
 1867SOL    HW2 9133   0.332   8.196   5.154 -0.3826 -1.2203  1.4266
 1868SOL     OW 9134   9.192   0.946   3.012  0.1817 -0.0318 -0.6279
 1868SOL    HW1 9135   9.122   0.975   2.952  0.3793  0.6281 -0.5492
 1868SOL    HW2 9136   9.207   1.022   3.068  0.6271 -0.3445 -0.3256
 1869SOL     OW 9137   2.128   4.641   2.155 -0.2925  0.0897 -0.0630
 1869SOL    HW1 9138   2.178   4.715   2.120 -0.4734  0.3187  0.1556
 1869SOL    HW2 9139   2.040   4.653   2.119 -0.3664  0.0803  0.1135
 1870SOL     OW 9140   7.000   2.367  10.943  0.2957 -0.2325 -0.2015
 1870SOL    HW1 9141   6.925   2.352  11.001  1.1175 -0.2859  0.8855
 1870SOL    HW2 9142   7.017   2.461  10.952  2.4475 -0.7209  2.3124
 1871SOL     OW 9143   4.095   0.985   0.807  0.3484 -0.2388 -0.4311
 1871SOL    HW1 9144   4.064   0.956   0.893  1.5709 -0.5350 -0.0650
 1871SOL    HW2 9145   4.176   0.936   0.794  0.7559  0.6370 -1.2656
 1872SOL     OW 9146   6.986  10.355   6.475 -0.6192 -0.0529  0.3688
 1872SOL    HW1 9147   6.981  10.336   6.382 -1.5295  1.1536  0.1270
 1872SOL    HW2 9148   7.079  10.351   6.497 -0.3990 -0.3364 -0.5954
 1873SOL     OW 9149   0.763   9.415   6.705 -0.1201  0.2732  0.2695
 1873SOL    HW1 9150   0.758   9.393   6.612 -2.3525  0.9182  0.2032
 1873SOL    HW2 9151   0.789   9.333   6.747 -1.4799 -0.6858 -0.6942
 1874SOL     OW 9152   9.727   8.631   5.657 -0.1115 -0.3334 -0.0469
 1874SOL    HW1 9153   9.765   8.546   5.681  0.2799 -0.4681 -1.0996
 1874SOL    HW2 9154   9.799   8.693   5.669  0.2218 -0.4651 -1.2326
 1875SOL     OW 9155   7.951   1.450   1.390  0.0736  0.4650 -0.0076
 1875SOL    HW1 9156   8.034   1.445   1.437  0.8637  2.2995 -1.0830
 1875SOL    HW2 9157   7.972   1.427   1.300 -0.6969  0.4253 -0.1884
 1876SOL     OW 9158   0.373   0.047   5.307 -0.0312  0.1493  0.7551
 1876SOL    HW1 9159   0.377  -0.047   5.289  1.7260  0.3769 -0.3210
 1876SOL    HW2 9160   0.347   0.053   5.399  1.3878 -1.4745  1.3218
 1877SOL     OW 9161  10.291   9.646   4.797  0.2108 -0.5238 -0.0342
 1877SOL    HW1 9162  10.200   9.657   4.769  1.1767  1.1484 -3.0744
 1877SOL    HW2 9163  10.326   9.579   4.738  1.0975 -0.7314  0.7163
 1878SOL     OW 9164   9.722   6.871   4.539 -0.4040 -0.2749 -0.1574
 1878SOL    HW1 9165   9.776   6.804   4.580 -1.0464 -0.5310  0.2783
 1878SOL    HW2 9166   9.728   6.947   4.598 -1.4239 -0.6833  0.4958
 1879SOL     OW 9167   2.718   5.554   4.406 -0.3899 -0.1259 -0.3552
 1879SOL    HW1 9168   2.802   5.554   4.360 -1.4522 -0.0053 -2.4076
 1879SOL    HW2 9169   2.659   5.604   4.350 -1.7640  0.0870  1.2000
 1880SOL     OW 9170   0.498   4.153   0.610  0.0374  0.2911 -0.5100
 1880SOL    HW1 9171   0.564   4.196   0.665  0.8907  0.6636 -1.8012
 1880SOL    HW2 9172   0.429   4.219   0.599  0.2745  0.5218 -0.6161
 1881SOL     OW 9173   8.920   3.723   2.068  0.3506  0.1703 -0.1183
 1881SOL    HW1 9174   8.949   3.712   1.978  0.4797  1.4302 -0.2445
 1881SOL    HW2 9175   8.953   3.645   2.113 -1.1310 -1.3062 -1.4697
 1882SOL     OW 9176   4.444   7.856   3.692 -0.6016 -0.0604 -0.0025
 1882SOL    HW1 9177   4.508   7.879   3.625 -0.9207  2.9014  0.5795
 1882SOL    HW2 9178   4.359   7.874   3.652 -0.7721  2.7142  1.3649
 1883SOL     OW 9179   9.757   8.708   2.995 -0.2023  0.2399 -0.5583
 1883SOL    HW1 9180   9.785   8.617   2.985 -0.2576  0.3445 -1.9689
 1883SOL    HW2 9181   9.809   8.756   2.930  1.0760  1.5168  1.3040
 1884SOL     OW 9182   0.392   9.738   9.694  0.1152  0.1330  0.2474
 1884SOL    HW1 9183   0.312   9.713   9.648 -0.3027  0.9918  0.4885
 1884SOL    HW2 9184   0.403   9.671   9.762  0.0568 -0.4421 -0.3029
 1885SOL     OW 9185   5.637   1.837   3.482  0.4153 -0.0151 -0.3126
 1885SOL    HW1 9186   5.590   1.872   3.557  2.5436 -0.2438  1.2019
 1885SOL    HW2 9187   5.587   1.758   3.458 -0.4943  0.2511  0.6269
 1886SOL     OW 9188   5.668   4.697   8.555  0.2675  0.2825 -0.7374
 1886SOL    HW1 9189   5.654   4.737   8.641 -1.3424  0.7253 -1.1680
 1886SOL    HW2 9190   5.676   4.603   8.573 -0.5830  0.3151 -0.1435
 1887SOL     OW 9191   9.793   3.447  10.761  0.2837  0.4478 -0.9341
 1887SOL    HW1 9192   9.873   3.396  10.776  0.4972  0.6569 -1.3288
 1887SOL    HW2 9193   9.728   3.382  10.735 -0.3190 -0.0393  1.5199
 1888SOL     OW 9194   1.018   6.516   2.355 -0.0345  0.1992 -0.7394
 1888SOL    HW1 9195   0.941   6.472   2.319 -0.5702 -0.3125  0.9139
 1888SOL    HW2 9196   0.989   6.606   2.371 -0.1006  0.1742 -0.7155
 1889SOL     OW 9197   2.626   3.487   0.885 -0.3052  0.2476 -0.1557
 1889SOL    HW1 9198   2.570   3.556   0.851  0.6599  1.1535  0.0313
 1889SOL    HW2 9199   2.569   3.432   0.938 -1.0745  0.9345 -0.2621
 1890SOL     OW 9200   3.840   4.249   5.047  0.1112  0.6884 -0.0552
 1890SOL    HW1 9201   3.886   4.173   5.012 -1.1184  0.1163 -0.5182
 1890SOL    HW2 9202   3.881   4.266   5.132  0.9626  0.0322 -0.3298
 1891SOL     OW 9203   7.173   4.112   5.582 -0.2201 -0.3574  0.1188
 1891SOL    HW1 9204   7.130   4.037   5.542 -0.1035 -0.6658  0.5530
 1891SOL    HW2 9205   7.157   4.101   5.676 -1.5618  1.0130  0.0865
 1892SOL     OW 9206  10.016   2.829   7.116  0.3468 -0.5928 -0.0436
 1892SOL    HW1 9207   9.986   2.769   7.048 -2.1000  1.4855 -0.9666
 1892SOL    HW2 9208   9.960   2.810   7.191  0.0193  0.0258 -0.1191
 1893SOL     OW 9209   3.370  10.683   5.060  0.5030 -0.3515  0.3076
 1893SOL    HW1 9210   3.343  10.650   4.975 -0.8727  0.0592  0.5522
 1893SOL    HW2 9211   3.291  10.727   5.095  2.1855  3.3903 -0.0945
 1894SOL     OW 9212   6.218   0.168   0.087  0.3319  0.4975  0.0066
 1894SOL    HW1 9213   6.230   0.263   0.097  2.8008  0.1121  1.8340
 1894SOL    HW2 9214   6.160   0.144   0.160 -0.4407  0.5926 -0.5643
 1895SOL     OW 9215   1.528   4.753   2.803 -0.2377  0.6094 -0.4499
 1895SOL    HW1 9216   1.606   4.726   2.850 -0.2499 -1.3987 -1.4892
 1895SOL    HW2 9217   1.460   4.691   2.829 -1.7862  2.7520  1.0255
 1896SOL     OW 9218   6.017  10.054   9.205 -0.0430 -0.1375 -0.3041
 1896SOL    HW1 9219   6.054  10.132   9.164  0.6865 -1.2882 -1.9586
 1896SOL    HW2 9220   6.048   9.981   9.150 -1.7858 -1.4799  0.3947
 1897SOL     OW 9221   5.904   0.914  10.726  0.3023  0.3364  0.1824
 1897SOL    HW1 9222   5.813   0.914  10.756 -0.1340 -0.7980 -1.0471
 1897SOL    HW2 9223   5.948   0.849  10.781  0.9644  2.3875  2.2650
 1898SOL     OW 9224   7.092   0.414  10.821  0.1274  0.1457  0.2459
 1898SOL    HW1 9225   7.173   0.369  10.799  0.2841  0.4554  0.1852
 1898SOL    HW2 9226   7.101   0.501  10.781 -0.9937 -0.4235 -1.3450
 1899SOL     OW 9227   1.926   2.581   1.797  0.2597 -1.4843 -0.3040
 1899SOL    HW1 9228   2.020   2.578   1.812  0.2222 -0.2891  0.2955
 1899SOL    HW2 9229   1.916   2.594   1.702  0.7926  0.6458 -0.1258
 1900SOL     OW 9230   4.567   3.164   8.889 -0.3384  0.4191  0.6174
 1900SOL    HW1 9231   4.615   3.105   8.947  1.2848  1.4508  0.3956
 1900SOL    HW2 9232   4.560   3.116   8.806 -1.2354 -0.4139  1.1607
 1901SOL     OW 9233   6.914   8.375  11.111 -0.3397 -0.0364 -0.1705
 1901SOL    HW1 9234   6.902   8.408  11.022 -2.2847 -1.3179 -0.4435
 1901SOL    HW2 9235   6.832   8.329  11.131  0.1174  0.0627  2.2265
 1902SOL     OW 9236   0.469   4.435   2.917  0.2932 -0.0121 -0.1537
 1902SOL    HW1 9237   0.509   4.434   3.004 -1.4857 -0.4306  0.7307
 1902SOL    HW2 9238   0.484   4.524   2.884 -0.4395  0.7027  1.3270
 1903SOL     OW 9239   2.115   6.874   6.842  0.2221  0.0560  0.5296
 1903SOL    HW1 9240   2.194   6.880   6.896 -0.0864 -0.0248  0.9956
 1903SOL    HW2 9241   2.079   6.963   6.843  0.4586  0.1556  0.0892
 1904SOL     OW 9242   8.397   4.638   4.386  0.3833  0.0650  0.2013
 1904SOL    HW1 9243   8.357   4.725   4.395 -0.2891 -0.2632  0.4610
 1904SOL    HW2 9244   8.459   4.647   4.314 -0.2326  0.5659 -0.2790
 1905SOL     OW 9245   5.070   2.954   9.881  0.1132  0.2080 -0.2657
 1905SOL    HW1 9246   5.119   3.034   9.899 -0.5451  0.3882  0.8029
 1905SOL    HW2 9247   5.135   2.884   9.890  0.5556  0.5618 -0.6054
 1906SOL     OW 9248   6.788  11.009   4.579 -0.4370 -0.0656 -0.2920
 1906SOL    HW1 9249   6.820  11.070   4.645  0.0957 -0.1616 -0.4515
 1906SOL    HW2 9250   6.694  11.027   4.572 -0.4749  0.0383  0.3878
 1907SOL     OW 9251  10.787   6.658   3.466 -0.2269 -0.0592 -0.0934
 1907SOL    HW1 9252  10.809   6.565   3.466  0.4069  0.0853 -0.6079
 1907SOL    HW2 9253  10.860   6.700   3.420 -1.4769  0.4595 -1.6598
 1908SOL     OW 9254   5.126  11.107   4.664  0.1186  0.3880  0.2167
 1908SOL    HW1 9255   5.035  11.120   4.692  0.1531 -0.7875  0.9418
 1908SOL    HW2 9256   5.153  11.193   4.631 -1.6407  0.4599 -1.1993
 1909SOL     OW 9257  10.840   0.929   7.885 -0.5650  0.5750 -0.3935
 1909SOL    HW1 9258  10.880   0.992   7.826  1.3595 -0.4517 -0.2507
 1909SOL    HW2 9259  10.833   0.848   7.833  0.6070 -0.1709  0.5618
 1910SOL     OW 9260   2.170   6.510   8.806  0.4660  0.2782  0.3349
 1910SOL    HW1 9261   2.087   6.463   8.818 -0.5677  1.8778 -0.2610
 1910SOL    HW2 9262   2.181   6.560   8.887  0.9550 -0.0751  0.4899
 1911SOL     OW 9263   5.175   0.598   9.708  0.3310  0.2103 -0.4332
 1911SOL    HW1 9264   5.186   0.674   9.651 -0.2635  1.1012  0.5934
 1911SOL    HW2 9265   5.093   0.558   9.678 -0.1586  0.8686 -0.0250
 1912SOL     OW 9266   7.516   6.600  10.358 -0.0446  0.0201 -0.0350
 1912SOL    HW1 9267   7.457   6.665  10.320  1.0947  1.5143  0.6494
 1912SOL    HW2 9268   7.597   6.649  10.376  0.4269 -1.2895  1.6423
 1913SOL     OW 9269  10.052   3.050   9.177 -0.0622  0.3308  0.0810
 1913SOL    HW1 9270   9.961   3.056   9.150  0.0029 -0.1705 -0.2600
 1913SOL    HW2 9271  10.097   3.113   9.121  0.1837 -1.1951 -1.5407
 1914SOL     OW 9272   2.067   4.207   1.804 -0.3943  0.1593 -0.1485
 1914SOL    HW1 9273   2.159   4.230   1.813  0.1403 -1.6529 -0.5668
 1914SOL    HW2 9274   2.068   4.120   1.763 -2.2633 -0.2487  0.5851
 1915SOL     OW 9275   7.680  10.490   6.396 -0.2172  0.2764  0.5483
 1915SOL    HW1 9276   7.635  10.427   6.452 -0.3738 -1.3914 -1.3506
 1915SOL    HW2 9277   7.773  10.471   6.409 -0.1686  1.1538  1.6027
 1916SOL     OW 9278   3.575   6.100   0.150 -0.6566 -0.0269 -1.5849
 1916SOL    HW1 9279   3.492   6.071   0.188 -0.6890  2.1787  0.2613
 1916SOL    HW2 9280   3.639   6.034   0.177 -1.3804 -0.4547 -0.8887
 1917SOL     OW 9281   0.280   4.924   3.689 -0.2995  0.5206  0.3887
 1917SOL    HW1 9282   0.215   4.955   3.752 -1.2683 -1.9749  0.7261
 1917SOL    HW2 9283   0.350   4.887   3.743 -0.2269  0.0996  0.0128
 1918SOL     OW 9284   6.149   7.939   1.559 -0.3650 -0.5265 -0.0279
 1918SOL    HW1 9285   6.200   7.995   1.617 -0.4113 -2.0667  1.6113
 1918SOL    HW2 9286   6.205   7.863   1.545 -1.9667 -2.1232  1.5628
 1919SOL     OW 9287   1.445   2.086   8.720  0.7281 -0.9249  0.0457
 1919SOL    HW1 9288   1.377   2.053   8.779 -0.1746 -2.7152 -1.8527
 1919SOL    HW2 9289   1.508   2.013   8.713  0.8179 -0.7484 -1.1622
 1920SOL     OW 9290   7.051   9.393   4.555  0.0455 -0.0335 -0.2653
 1920SOL    HW1 9291   7.120   9.327   4.547 -0.7837 -1.0234  0.4277
 1920SOL    HW2 9292   6.972   9.342   4.577 -1.2715  0.8960 -2.5237
 1921SOL     OW 9293   7.951   1.496   2.787 -0.2106 -0.3997  0.7951
 1921SOL    HW1 9294   8.011   1.567   2.811 -0.2584 -0.3739  0.8388
 1921SOL    HW2 9295   7.874   1.540   2.751 -0.5414 -0.3983  1.4886
 1922SOL     OW 9296   6.244   2.906  10.732  0.1231 -0.1947  0.5484
 1922SOL    HW1 9297   6.338   2.892  10.745 -0.0096  0.6166  2.9059
 1922SOL    HW2 9298   6.228   2.994  10.767 -1.7431 -0.9336  1.7195
 1923SOL     OW 9299   5.538  10.238   5.622  0.0286 -0.5540  0.3197
 1923SOL    HW1 9300   5.565  10.291   5.547  1.1646 -1.0867  0.3326
 1923SOL    HW2 9301   5.617  10.228   5.675 -1.0774  1.2413  2.5343
 1924SOL     OW 9302   7.452   4.974   9.022 -0.5660 -0.3201  0.0509
 1924SOL    HW1 9303   7.475   4.955   9.113 -0.6978 -0.6914  0.0115
 1924SOL    HW2 9304   7.370   4.926   9.009 -2.2961  2.2786  0.6929
 1925SOL     OW 9305   0.651   9.347   7.248  0.1494 -0.4045 -0.6327
 1925SOL    HW1 9306   0.568   9.361   7.203  0.5313  0.8955 -0.9689
 1925SOL    HW2 9307   0.646   9.257   7.280 -0.6968 -0.8983 -2.0677
 1926SOL     OW 9308   5.520   0.307   3.870  0.1815  0.0513  0.0485
 1926SOL    HW1 9309   5.531   0.312   3.775  1.5043 -0.1258  0.1666
 1926SOL    HW2 9310   5.425   0.303   3.884 -0.0050 -0.7451 -1.3069
 1927SOL     OW 9311   1.400   5.664  10.433 -0.5351 -0.0461  0.4494
 1927SOL    HW1 9312   1.456   5.589  10.411 -0.5486  0.6185 -2.2336
 1927SOL    HW2 9313   1.397   5.715  10.352 -3.4480  0.9694  1.0980
 1928SOL     OW 9314   0.190  10.222  10.635 -0.0192  0.0825 -0.5737
 1928SOL    HW1 9315   0.221  10.131  10.635  0.4663  0.2281  0.4066
 1928SOL    HW2 9316   0.112  10.221  10.690 -0.6004  0.0852 -1.3871
 1929SOL     OW 9317   1.813   0.720   5.231  0.2836  0.1308 -0.4427
 1929SOL    HW1 9318   1.786   0.727   5.322  0.6462  1.4214 -0.4124
 1929SOL    HW2 9319   1.758   0.784   5.185  1.9061  1.4306 -0.6831
 1930SOL     OW 9320   8.412   3.804   5.516  0.2431 -0.2735 -0.7280
 1930SOL    HW1 9321   8.458   3.750   5.452  2.9691  2.3542 -1.1970
 1930SOL    HW2 9322   8.359   3.864   5.462  1.1222  0.7423 -0.4840
 1931SOL     OW 9323   4.407   6.347   1.618  0.3220  0.2865  0.0663
 1931SOL    HW1 9324   4.501   6.330   1.623  0.4425  1.1718  1.4568
 1931SOL    HW2 9325   4.398   6.437   1.650 -1.1243 -0.2084  1.1389
 1932SOL     OW 9326   7.585   5.396  10.710  0.0735  0.2661  0.2677
 1932SOL    HW1 9327   7.636   5.364  10.636 -0.6464  1.2794 -0.6928
 1932SOL    HW2 9328   7.503   5.427  10.672  0.5977  2.9747  1.1324
 1933SOL     OW 9329  10.709  10.429   8.688  0.7800  0.1076 -0.1188
 1933SOL    HW1 9330  10.642  10.483   8.646  0.4061 -0.3479 -0.1141
 1933SOL    HW2 9331  10.792  10.468   8.660  0.5772 -0.7550 -2.1044
 1934SOL     OW 9332   9.588   8.608   1.727  0.0626  0.3534 -0.2570
 1934SOL    HW1 9333   9.596   8.703   1.716  0.9735  0.3544  0.2927
 1934SOL    HW2 9334   9.580   8.574   1.638 -0.4593  0.9580 -0.4476
 1935SOL     OW 9335   7.124  10.650   0.993 -0.1590 -0.0251 -0.5819
 1935SOL    HW1 9336   7.096  10.576   0.940  1.6795 -1.0501 -0.2058
 1935SOL    HW2 9337   7.193  10.692   0.941  1.0332 -0.5030  0.5608
 1936SOL     OW 9338   9.084   7.470   6.932  0.2481  0.2111  0.3878
 1936SOL    HW1 9339   9.166   7.446   6.974 -1.0021  0.6391  3.3486
 1936SOL    HW2 9340   9.040   7.526   6.996 -2.9946 -1.2121 -0.3995
 1937SOL     OW 9341   7.009   6.254   7.868  0.2105 -0.5401 -0.1342
 1937SOL    HW1 9342   6.978   6.210   7.788 -0.9099  0.1207 -0.0864
 1937SOL    HW2 9343   6.929   6.289   7.908  0.7356 -0.9897  1.3606
 1938SOL     OW 9344   3.593   7.683   1.679  0.3358  0.4844 -0.0412
 1938SOL    HW1 9345   3.619   7.605   1.728 -0.4117 -0.4172 -1.0413
 1938SOL    HW2 9346   3.644   7.754   1.718  1.5018 -0.6015  0.4795
 1939SOL     OW 9347   7.756   5.761   7.656 -0.2331 -0.3074  0.8205
 1939SOL    HW1 9348   7.811   5.826   7.698 -0.8331  0.2923  0.6880
 1939SOL    HW2 9349   7.808   5.728   7.583 -0.5516  1.2215 -0.1238
 1940SOL     OW 9350   3.872   6.542   4.809  0.9154 -0.0704  0.3078
 1940SOL    HW1 9351   3.929   6.618   4.823  1.4229 -0.4522  0.3308
 1940SOL    HW2 9352   3.920   6.487   4.747  1.1248 -0.9822  1.2582
 1941SOL     OW 9353  10.909   4.246   7.539  0.0789  0.5784  0.1153
 1941SOL    HW1 9354  10.866   4.260   7.455 -1.1593  0.4352  0.6975
 1941SOL    HW2 9355  10.843   4.202   7.593  1.1164 -0.0346  0.9153
 1942SOL     OW 9356   8.367  10.903   5.975  0.1493  0.2678  0.0050
 1942SOL    HW1 9357   8.349  10.878   5.884  1.1947 -1.6247  0.2808
 1942SOL    HW2 9358   8.288  10.952   6.001 -1.1568 -1.0636 -1.2240
 1943SOL     OW 9359  10.505   0.691   3.222  0.1680  0.4595 -0.2099
 1943SOL    HW1 9360  10.595   0.662   3.213  0.6763  2.2231 -1.1512
 1943SOL    HW2 9361  10.492   0.700   3.316  0.7204 -0.5193 -0.0293
 1944SOL     OW 9362   7.703   1.235   7.028  0.3795  0.2530  0.3733
 1944SOL    HW1 9363   7.791   1.261   7.003 -0.0341  2.1362  0.7512
 1944SOL    HW2 9364   7.662   1.206   6.947  0.9056  0.7043 -0.0585
 1945SOL     OW 9365  10.702   7.125   8.255 -0.3762  0.0937  0.6634
 1945SOL    HW1 9366  10.620   7.106   8.210  0.1813 -1.4548  0.2402
 1945SOL    HW2 9367  10.686   7.100   8.346  0.3229 -2.5245  0.1280
 1946SOL     OW 9368   3.193   2.421   8.958  0.2145 -0.0952  0.2104
 1946SOL    HW1 9369   3.132   2.349   8.939  0.3264 -0.0281 -0.4484
 1946SOL    HW2 9370   3.170   2.450   9.046  0.0055 -0.7792  0.3841
 1947SOL     OW 9371   6.982   5.846   1.672 -0.2053 -0.2351  0.0801
 1947SOL    HW1 9372   6.933   5.864   1.752 -1.9029  0.7565 -1.1205
 1947SOL    HW2 9373   7.053   5.909   1.673 -0.7148  0.3429  0.3951
 1948SOL     OW 9374   2.494   0.184   0.865 -0.1620 -0.1049  0.0510
 1948SOL    HW1 9375   2.469   0.270   0.830  1.1926 -0.6677 -2.5638
 1948SOL    HW2 9376   2.586   0.174   0.842  0.2978 -1.4411  2.1673
 1949SOL     OW 9377   7.877   0.418   7.397  0.7727  0.0959 -0.0531
 1949SOL    HW1 9378   7.870   0.513   7.389  2.3254  0.0840 -2.3215
 1949SOL    HW2 9379   7.958   0.404   7.448  0.4294 -0.0212  0.4667
 1950SOL     OW 9380   0.074  10.496   8.259  0.8371 -0.0727  0.3207
 1950SOL    HW1 9381   0.133  10.428   8.292 -1.5932 -2.2658  0.4331
 1950SOL    HW2 9382   0.004  10.500   8.324 -0.3130  0.8195 -0.9216
 1951SOL     OW 9383  10.363   9.467  10.329 -0.0356  0.0658 -0.3355
 1951SOL    HW1 9384  10.430   9.471  10.397  0.4829  2.0066 -0.8828
 1951SOL    HW2 9385  10.280   9.479  10.376  0.0363 -1.6624  0.2691
 1952SOL     OW 9386   9.640   8.755  10.852 -0.0944 -0.2741 -0.0425
 1952SOL    HW1 9387   9.626   8.836  10.803 -4.4163 -0.2168  0.8962
 1952SOL    HW2 9388   9.621   8.686  10.788  0.3786 -0.4369 -0.0104
 1953SOL     OW 9389   1.044   5.341   4.060  0.3642  0.4438 -0.2341
 1953SOL    HW1 9390   1.123   5.373   4.103  0.2512  0.8642 -0.3369
 1953SOL    HW2 9391   1.037   5.392   3.979  0.1419  0.2142 -0.3628
 1954SOL     OW 9392   9.205   8.171   4.297  0.1584  0.6497 -0.0759
 1954SOL    HW1 9393   9.218   8.177   4.392 -1.2309 -0.4515  0.2299
 1954SOL    HW2 9394   9.216   8.078   4.277  0.9160  0.9461 -1.0915
 1955SOL     OW 9395   6.524   2.434  10.539  0.0639  0.3593 -0.6116
 1955SOL    HW1 9396   6.555   2.379  10.611 -0.1883  1.8870  0.7280
 1955SOL    HW2 9397   6.500   2.372  10.470  2.0561 -1.0633 -0.1033
 1956SOL     OW 9398  10.011   4.681   5.903  0.8196 -0.0387 -0.2591
 1956SOL    HW1 9399  10.088   4.626   5.920  1.5168  0.5890 -1.2664
 1956SOL    HW2 9400   9.959   4.674   5.983  1.2356 -1.5763 -0.0781
 1957SOL     OW 9401   3.097  10.315   0.026  0.3651 -0.3279  0.7218
 1957SOL    HW1 9402   3.153  10.253   0.073  0.4821 -0.2510  0.6840
 1957SOL    HW2 9403   3.157  10.380  -0.009 -0.0255  1.8014  3.7076
 1958SOL     OW 9404   8.799   8.463   0.379  0.3563 -0.0788  0.5850
 1958SOL    HW1 9405   8.854   8.458   0.458  0.4046  2.1746  0.7598
 1958SOL    HW2 9406   8.861   8.483   0.309  0.3541 -2.3413 -0.1598
 1959SOL     OW 9407   1.958   2.808  10.654  0.3637 -0.7193  0.1638
 1959SOL    HW1 9408   1.961   2.904  10.653 -3.9098 -0.3970 -1.7220
 1959SOL    HW2 9409   1.979   2.783  10.564  0.3675 -1.4698  0.3742
 1960SOL     OW 9410   4.778   2.537   4.680 -0.1330  0.3150  0.1938
 1960SOL    HW1 9411   4.697   2.497   4.710 -0.9586 -0.6044 -2.8937
 1960SOL    HW2 9412   4.750   2.616   4.633  0.7940  0.2704 -0.4594
 1961SOL     OW 9413   8.653   4.562   8.113  0.2621  0.2499 -0.3511
 1961SOL    HW1 9414   8.560   4.581   8.103  0.2468  1.2059  1.2438
 1961SOL    HW2 9415   8.656   4.474   8.153  0.0236  0.3906 -0.0226
 1962SOL     OW 9416   3.059  10.511  10.201 -0.3149  0.2731  0.2632
 1962SOL    HW1 9417   3.106  10.430  10.180  0.0262  0.3473  0.7228
 1962SOL    HW2 9418   3.114  10.553  10.268 -0.0068  1.3432 -0.6523
 1963SOL     OW 9419   9.112   9.819   5.983 -0.8821  0.2400 -0.0555
 1963SOL    HW1 9420   9.180   9.878   6.014  0.1524  0.1653 -1.9968
 1963SOL    HW2 9421   9.033   9.872   5.979 -0.7416  0.5777  1.3737
 1964SOL     OW 9422   3.680   7.307   7.329  0.1659 -0.1137 -0.7056
 1964SOL    HW1 9423   3.699   7.357   7.250  1.3481  0.6103 -0.0003
 1964SOL    HW2 9424   3.622   7.237   7.300  0.6570  0.0753 -2.2296
 1965SOL     OW 9425   1.958   8.680   1.166 -0.1755 -0.4715  0.0637
 1965SOL    HW1 9426   1.904   8.637   1.232 -0.4539 -0.7131 -0.3183
 1965SOL    HW2 9427   2.036   8.626   1.159  0.9515  0.7985  1.8713
 1966SOL     OW 9428   1.269   4.392   3.550 -0.3527  0.0440 -0.6950
 1966SOL    HW1 9429   1.322   4.317   3.522 -0.0912  0.4883 -1.4345
 1966SOL    HW2 9430   1.333   4.462   3.564 -0.4291 -0.2516  1.4305
 1967SOL     OW 9431   6.624   7.098   3.500 -0.2409 -0.2607  0.0631
 1967SOL    HW1 9432   6.618   7.078   3.594  0.2198  0.1114  0.1773
 1967SOL    HW2 9433   6.718   7.105   3.483 -0.3286 -0.1088 -0.3824
 1968SOL     OW 9434   8.197   7.773   4.670 -0.7191 -0.3864  0.1694
 1968SOL    HW1 9435   8.224   7.796   4.759  2.8078 -0.5900 -0.6986
 1968SOL    HW2 9436   8.113   7.817   4.659 -0.4475  1.0965  3.0112
 1969SOL     OW 9437   9.142   1.726   2.098 -0.2020 -0.3255  0.2767
 1969SOL    HW1 9438   9.108   1.650   2.146  0.0895  0.1215  1.2211
 1969SOL    HW2 9439   9.214   1.690   2.045  0.5484 -0.5760  1.4168
 1970SOL     OW 9440   1.632   0.648   7.598 -0.2875 -0.4264 -0.2793
 1970SOL    HW1 9441   1.645   0.675   7.507 -2.3555  2.2530  0.0883
 1970SOL    HW2 9442   1.546   0.605   7.598  0.4214 -1.9012  0.1856
 1971SOL     OW 9443   0.153   2.990   7.846  0.2835 -0.8286  0.5299
 1971SOL    HW1 9444   0.147   3.081   7.873  0.7700 -0.3325 -0.9516
 1971SOL    HW2 9445   0.229   2.955   7.893  2.9584  0.8223 -2.2124
 1972SOL     OW 9446   8.809   0.594   5.481  0.1804  0.0817 -0.2648
 1972SOL    HW1 9447   8.868   0.669   5.485  1.9124 -1.1887 -0.5647
 1972SOL    HW2 9448   8.727   0.625   5.521  1.2086  1.7725  0.6438
 1973SOL     OW 9449   4.317   1.532   1.820  0.5544  0.1817  0.4363
 1973SOL    HW1 9450   4.286   1.615   1.856  2.0136  0.0074  2.2315
 1973SOL    HW2 9451   4.297   1.467   1.888 -1.5155 -1.2065 -1.3570
 1974SOL     OW 9452   9.920   1.547   6.352  0.1114 -0.0854 -0.5534
 1974SOL    HW1 9453   9.825   1.559   6.364  0.5131  2.3568  0.7836
 1974SOL    HW2 9454   9.946   1.618   6.293  1.3975  0.5461  0.7261
 1975SOL     OW 9455   5.722   0.439   5.448  0.4214 -0.4841  0.0471
 1975SOL    HW1 9456   5.732   0.486   5.531 -4.1534  2.1487 -0.6068
 1975SOL    HW2 9457   5.750   0.501   5.381  0.3484 -1.1381 -0.6094
 1976SOL     OW 9458   6.932   3.411   8.708  0.2499  0.6075 -0.0650
 1976SOL    HW1 9459   6.936   3.378   8.798 -1.1480  0.3737 -0.0667
 1976SOL    HW2 9460   6.897   3.337   8.658 -1.3045  1.4882 -0.3642
 1977SOL     OW 9461   6.204   1.405   4.654 -0.7626 -0.1375 -0.2148
 1977SOL    HW1 9462   6.175   1.314   4.644 -2.7817  0.5920 -1.5904
 1977SOL    HW2 9463   6.152   1.440   4.726 -0.5783  0.1621 -0.2234
 1978SOL     OW 9464   1.729   9.331   1.014  0.1844  0.1452  0.0214
 1978SOL    HW1 9465   1.677   9.370   0.943  0.8084  0.3260 -0.3388
 1978SOL    HW2 9466   1.762   9.249   0.978  0.6725  0.3366  0.0337
 1979SOL     OW 9467   7.365   9.606   2.902 -0.1602 -0.6982  0.4702
 1979SOL    HW1 9468   7.402   9.590   2.988  0.8864  0.0741  0.1713
 1979SOL    HW2 9469   7.440   9.619   2.844 -0.8466  2.1064  0.0703
 1980SOL     OW 9470   2.851   2.554   8.819 -1.0719 -0.1903 -0.5211
 1980SOL    HW1 9471   2.881   2.636   8.858  2.0330 -1.8215  0.8316
 1980SOL    HW2 9472   2.849   2.492   8.892 -0.3247 -2.0715 -2.0288
 1981SOL     OW 9473   0.974   4.406   7.512 -0.2608 -0.0364 -0.4542
 1981SOL    HW1 9474   1.024   4.353   7.450 -0.0261  0.5339 -0.7600
 1981SOL    HW2 9475   1.014   4.389   7.597 -0.9155 -1.2259 -0.3719
 1982SOL     OW 9476   0.244   2.999   0.248  0.0548  0.3934  0.9166
 1982SOL    HW1 9477   0.160   3.024   0.286  0.6527  2.0829  1.2336
 1982SOL    HW2 9478   0.227   2.916   0.205 -1.5480  0.2408  1.7548
 1983SOL     OW 9479   8.814   6.600   1.250 -0.2048  0.0288 -0.1539
 1983SOL    HW1 9480   8.758   6.668   1.287  0.4108  0.7429 -0.5079
 1983SOL    HW2 9481   8.856   6.642   1.174  1.2036 -0.3196  0.3996
 1984SOL     OW 9482   6.082  10.025   0.582 -0.0878 -0.0780  0.9055
 1984SOL    HW1 9483   6.047  10.002   0.495  1.2349  2.1356 -0.3184
 1984SOL    HW2 9484   6.170  10.059   0.564  0.4048  0.0244  3.1947
 1985SOL     OW 9485   1.465   7.056   0.689  0.0026  0.4303  0.0326
 1985SOL    HW1 9486   1.434   7.121   0.752 -0.0612  0.1751  0.2644
 1985SOL    HW2 9487   1.442   6.971   0.727  1.6549  0.1875  0.5845
 1986SOL     OW 9488   8.800   7.097   0.143  0.0062  0.5237  0.5925
 1986SOL    HW1 9489   8.856   7.175   0.145  0.3201  0.3509 -0.5951
 1986SOL    HW2 9490   8.711   7.133   0.137  0.1274  0.8000  0.3905
 1987SOL     OW 9491   7.780   5.615  10.565 -0.1112 -0.0472 -0.0438
 1987SOL    HW1 9492   7.783   5.560  10.644 -2.9339 -1.4751 -0.7735
 1987SOL    HW2 9493   7.762   5.703  10.598  1.5034 -0.0866  1.0127
 1988SOL     OW 9494   4.099   3.295   8.522  0.6911  0.2076 -0.2040
 1988SOL    HW1 9495   4.029   3.356   8.499  1.2094  1.3210  1.0254
 1988SOL    HW2 9496   4.078   3.267   8.612  0.6749 -1.1567 -0.6015
 1989SOL     OW 9497   8.929   2.707   7.722 -0.1117 -0.2932  0.9125
 1989SOL    HW1 9498   8.898   2.632   7.773  0.6210 -0.6073  0.9208
 1989SOL    HW2 9499   8.891   2.783   7.764 -0.2539 -0.6133  1.3653
 1990SOL     OW 9500   1.723   3.057   4.545  0.3421  0.0503 -0.0206
 1990SOL    HW1 9501   1.672   3.039   4.624  1.4835  0.0754  0.7468
 1990SOL    HW2 9502   1.663   3.104   4.488 -0.3975  0.3580  0.9760
 1991SOL     OW 9503   3.637   1.084   6.764 -0.0403  0.2782  0.4826
 1991SOL    HW1 9504   3.630   0.989   6.774  1.0437  0.0926 -0.2898
 1991SOL    HW2 9505   3.570   1.106   6.699  1.1407 -0.3111 -1.0039
 1992SOL     OW 9506   5.679   0.337   8.431  0.5010  0.1989 -0.1976
 1992SOL    HW1 9507   5.709   0.398   8.498 -1.1149  0.6830  0.1464
 1992SOL    HW2 9508   5.754   0.325   8.373  1.6255  0.5384  1.1409
 1993SOL     OW 9509   2.041   9.856   9.341 -0.8009  0.0304  0.2150
 1993SOL    HW1 9510   2.086   9.850   9.425 -1.2028 -0.8635  0.3859
 1993SOL    HW2 9511   2.053   9.769   9.302 -0.5777  0.4546 -0.6728
 1994SOL     OW 9512   6.301   7.159   6.265  0.4123  0.3450 -0.3262
 1994SOL    HW1 9513   6.366   7.228   6.255  1.6950 -0.5767  1.2260
 1994SOL    HW2 9514   6.351   7.082   6.291 -0.9802 -1.2199 -2.0230
 1995SOL     OW 9515   5.905   7.473   6.247  0.6523  0.5500  0.5424
 1995SOL    HW1 9516   5.857   7.413   6.189  0.5204  1.4183 -0.2583
 1995SOL    HW2 9517   5.948   7.415   6.310 -0.2749 -0.3355  0.3915
 1996SOL     OW 9518   8.237   3.968  10.520 -0.2021  0.1331 -0.1411
 1996SOL    HW1 9519   8.275   3.906  10.583 -0.1461 -0.5254 -0.8107
 1996SOL    HW2 9520   8.254   3.928  10.435 -2.2450 -0.1001 -0.4881
 1997SOL     OW 9521   0.369   1.741   3.028  0.7612 -0.1056  0.2386
 1997SOL    HW1 9522   0.433   1.744   2.957  0.0625 -1.3404 -0.4879
 1997SOL    HW2 9523   0.322   1.824   3.022  0.1564 -0.5046 -1.3241
 1998SOL     OW 9524   9.678   6.484  10.480  0.1864 -0.0399  0.0896
 1998SOL    HW1 9525   9.737   6.524  10.544  0.2432  0.0651 -0.0284
 1998SOL    HW2 9526   9.724   6.492  10.396 -0.6899  1.5208 -0.2866
 1999SOL     OW 9527   6.810   2.454  10.431 -1.1919 -0.0647 -0.0655
 1999SOL    HW1 9528   6.866   2.531  10.431 -1.2690  0.0063 -0.9797
 1999SOL    HW2 9529   6.743   2.473  10.497 -0.4047  0.0349  0.7193
 2000SOL     OW 9530  10.052   5.795   6.346  0.0340 -0.0306  0.3986
 2000SOL    HW1 9531  10.100   5.763   6.270 -0.2850 -0.5736  0.4220
 2000SOL    HW2 9532   9.986   5.853   6.310  0.7378  0.7765  0.3694
 2001SOL     OW 9533   7.478   3.257   7.240  0.6440  0.0324  0.4035
 2001SOL    HW1 9534   7.555   3.308   7.213 -0.5177  2.5330  1.4574
 2001SOL    HW2 9535   7.479   3.181   7.182  2.3055  1.4264 -1.5806
 2002SOL     OW 9536   8.188   6.514   1.721  0.0388  0.0438 -0.1056
 2002SOL    HW1 9537   8.267   6.553   1.685 -0.2710  1.6192  0.8163
 2002SOL    HW2 9538   8.159   6.452   1.654  1.0094  0.8192 -1.2938
 2003SOL     OW 9539   3.905   7.767   6.905  0.7475  0.3160 -0.0479
 2003SOL    HW1 9540   3.917   7.780   6.999  0.4986 -0.9234  0.1698
 2003SOL    HW2 9541   3.969   7.699   6.882  0.5017  0.2980 -0.6933
 2004SOL     OW 9542   2.274   6.499  10.115 -0.1179 -0.1158 -0.5581
 2004SOL    HW1 9543   2.351   6.446  10.136 -0.5181 -0.3529  0.3680
 2004SOL    HW2 9544   2.301   6.553  10.041  0.9818 -0.1148 -0.1740
 2005SOL     OW 9545   1.613   8.468   2.034 -0.2783 -0.2739  1.0198
 2005SOL    HW1 9546   1.682   8.443   2.096  0.9086 -2.6786 -1.0968
 2005SOL    HW2 9547   1.545   8.402   2.044 -0.5312 -0.1090  0.4753
 2006SOL     OW 9548   1.660   4.823   9.595 -0.6190  0.0494  0.2678
 2006SOL    HW1 9549   1.571   4.859   9.593 -0.4016  0.5667 -0.8525
 2006SOL    HW2 9550   1.716   4.900   9.605 -0.2601 -0.2357  0.4971
 2007SOL     OW 9551   0.956   2.975   5.098  0.3507  0.1011  0.3162
 2007SOL    HW1 9552   1.040   2.933   5.080 -1.4747 -2.3211 -4.3352
 2007SOL    HW2 9553   0.906   2.908   5.145  0.0533  0.2961  0.2815
 2008SOL     OW 9554   5.013   5.712   2.076 -0.1297  0.1334  0.2107
 2008SOL    HW1 9555   5.069   5.669   2.140  1.7772 -1.8937 -2.6036
 2008SOL    HW2 9556   4.927   5.672   2.087  0.9380 -2.5473 -0.4771
 2009SOL     OW 9557   5.780   4.272   6.863  0.3208  0.0005 -0.0869
 2009SOL    HW1 9558   5.846   4.286   6.796 -0.3244  3.3675 -0.1923
 2009SOL    HW2 9559   5.830   4.258   6.944  1.1100  0.0871 -0.5514
 2010SOL     OW 9560   9.499   6.846   2.042 -0.1721  0.4757  0.4437
 2010SOL    HW1 9561   9.419   6.867   1.993 -0.8726  0.6406  1.6134
 2010SOL    HW2 9562   9.562   6.821   1.975 -1.3867 -0.2445 -0.4813
 2011SOL     OW 9563   0.292   1.994   0.755 -0.9380  0.1067 -0.4630
 2011SOL    HW1 9564   0.321   2.084   0.742  0.0378 -0.1913 -0.4586
 2011SOL    HW2 9565   0.324   1.947   0.677  0.8451 -0.7401  0.6888
 2012SOL     OW 9566   3.751   7.675   3.966  0.2546  0.2879 -0.6568
 2012SOL    HW1 9567   3.751   7.748   3.905 -0.6590  1.4326  0.6582
 2012SOL    HW2 9568   3.839   7.675   4.003  0.4278  0.3668 -1.0654
 2013SOL     OW 9569  10.229   0.130   5.054 -0.1117  0.1417  0.4160
 2013SOL    HW1 9570  10.271   0.212   5.079  0.6036 -0.6907  2.1137
 2013SOL    HW2 9571  10.138   0.140   5.083  0.3125 -0.1758  1.9357
 2014SOL     OW 9572   0.071   2.252   0.943 -0.6215 -0.7647  0.5093
 2014SOL    HW1 9573   0.080   2.334   0.894  1.4311 -0.2336  1.6528
 2014SOL    HW2 9574   0.036   2.190   0.879 -1.0872  0.6992 -0.7115
 2015SOL     OW 9575   4.966   0.995   5.030 -0.1798  0.4812 -0.1144
 2015SOL    HW1 9576   4.997   0.914   4.992 -0.4010  0.5161 -0.3699
 2015SOL    HW2 9577   5.032   1.019   5.095  0.8558  1.0996 -1.3650
 2016SOL     OW 9578   2.572  10.283   3.311 -0.1850 -0.5218 -0.0544
 2016SOL    HW1 9579   2.578  10.197   3.269  0.0251  0.5327 -2.2999
 2016SOL    HW2 9580   2.662  10.304   3.335  0.2336  0.2957 -2.1816
 2017SOL     OW 9581   0.223   5.862   4.300  0.1425  0.6952  0.5126
 2017SOL    HW1 9582   0.288   5.823   4.241  0.2616  0.2948  0.8993
 2017SOL    HW2 9583   0.207   5.794   4.366 -1.5059  0.3561 -0.1837
 2018SOL     OW 9584   5.495   8.870   0.979 -0.0591 -0.1149 -0.1496
 2018SOL    HW1 9585   5.587   8.849   0.958  0.0145 -1.4299  1.3085
 2018SOL    HW2 9586   5.480   8.828   1.064 -1.6355  1.2104  0.2690
 2019SOL     OW 9587   1.542   7.846   8.798 -0.3990  0.0521  0.0882
 2019SOL    HW1 9588   1.636   7.830   8.812 -0.6503 -1.3453  0.4079
 2019SOL    HW2 9589   1.499   7.770   8.839 -1.7222  1.1344  0.7876
 2020SOL     OW 9590   2.826   1.263   8.647  0.1608 -0.0002  0.1921
 2020SOL    HW1 9591   2.753   1.324   8.657 -1.0214 -1.5267  1.1267
 2020SOL    HW2 9592   2.786   1.179   8.627  1.5855 -1.0696  1.5237
 2021SOL     OW 9593   0.022   2.822   2.920  0.1152  0.2338  0.1520
 2021SOL    HW1 9594   0.048   2.757   2.986 -0.6530  0.4021  0.6354
 2021SOL    HW2 9595   0.094   2.885   2.918 -0.5110  1.0724  1.9560
 2022SOL     OW 9596   1.747   3.211   2.712 -0.2963 -0.4535 -0.0742
 2022SOL    HW1 9597   1.799   3.179   2.639 -0.3426 -1.5356  0.3583
 2022SOL    HW2 9598   1.746   3.139   2.775 -0.3443  0.4282  0.9514
 2023SOL     OW 9599   0.016   8.652   3.932  0.1642  0.3722  0.6085
 2023SOL    HW1 9600  -0.061   8.695   3.895 -0.5564 -0.9594  0.4986
 2023SOL    HW2 9601   0.083   8.660   3.864  0.2248  1.7464  0.7979
 2024SOL     OW 9602   3.720   1.824   5.887  0.1375  0.5869 -0.3243
 2024SOL    HW1 9603   3.675   1.843   5.805 -2.0057 -0.4529  0.5325
 2024SOL    HW2 9604   3.695   1.896   5.945  0.0185  0.2984 -0.0110
 2025SOL     OW 9605   0.776  10.850   7.120 -0.5610 -1.0342 -0.2399
 2025SOL    HW1 9606   0.725  10.770   7.129  0.4804 -1.5452  1.9074
 2025SOL    HW2 9607   0.854  10.824   7.070 -0.3726 -1.3009  0.1881
 2026SOL     OW 9608   3.846   8.138   3.242 -0.4350  0.7169  0.3286
 2026SOL    HW1 9609   3.766   8.177   3.206 -0.2187  0.6637 -0.2120
 2026SOL    HW2 9610   3.817   8.095   3.323 -1.0709  0.1574 -0.1868
 2027SOL     OW 9611   9.873   7.663   7.124  0.4605 -0.5676  0.7420
 2027SOL    HW1 9612   9.832   7.716   7.192 -2.0053  0.1572 -1.1560
 2027SOL    HW2 9613   9.918   7.726   7.067 -0.2184 -0.7561 -0.0319
 2028SOL     OW 9614  10.844   2.414   4.341  0.2318 -0.9444  0.4232
 2028SOL    HW1 9615  10.777   2.374   4.396 -1.0397  0.3303 -0.1294
 2028SOL    HW2 9616  10.821   2.388   4.252  0.4534 -0.4791  0.2236
 2029SOL     OW 9617   7.546   3.957   4.243 -0.2340 -0.0607  0.0273
 2029SOL    HW1 9618   7.623   3.967   4.299 -0.5043 -0.0901  0.4103
 2029SOL    HW2 9619   7.492   4.034   4.263 -1.0384 -0.8174  0.9418
 2030SOL     OW 9620   6.532   3.045   2.407  0.1068 -0.6385  0.5597
 2030SOL    HW1 9621   6.618   3.024   2.444 -0.7870 -2.2884  1.8609
 2030SOL    HW2 9622   6.495   3.110   2.467 -0.4278 -1.6154  1.3180
 2031SOL     OW 9623   1.962   8.453   1.590 -0.3965 -0.1617 -0.3615
 2031SOL    HW1 9624   1.993   8.524   1.646  0.2491  0.0814 -1.0100
 2031SOL    HW2 9625   1.876   8.431   1.625 -0.0890  0.1121  0.5990
 2032SOL     OW 9626   4.335  10.927   6.119 -0.4817  0.1309  0.5491
 2032SOL    HW1 9627   4.376  10.845   6.146  1.5145 -0.0871 -2.5527
 2032SOL    HW2 9628   4.257  10.935   6.174 -0.3084 -3.3901  1.5472
 2033SOL     OW 9629   1.954   2.023   4.478  0.2756 -0.2400  0.0916
 2033SOL    HW1 9630   1.955   2.116   4.502  0.1207 -0.2470  0.1276
 2033SOL    HW2 9631   2.020   1.983   4.535 -1.0916 -0.5108  1.5733
 2034SOL     OW 9632   0.134   1.044  10.303 -0.4231 -0.4012 -0.5788
 2034SOL    HW1 9633   0.178   1.061  10.219 -1.2304 -0.7580 -1.0845
 2034SOL    HW2 9634   0.041   1.054  10.283 -0.7334 -2.0467 -0.1141
 2035SOL     OW 9635   4.195   0.949   5.873  0.3973 -0.0304  0.2141
 2035SOL    HW1 9636   4.169   0.916   5.787  0.8755 -0.7303  0.3292
 2035SOL    HW2 9637   4.149   1.033   5.881 -0.7009 -0.5719 -0.1662
 2036SOL     OW 9638   7.660   1.385  10.714 -0.8225  0.1336  0.2186
 2036SOL    HW1 9639   7.724   1.454  10.731 -2.5683  1.4017  2.1061
 2036SOL    HW2 9640   7.653   1.382  10.618  0.5990  1.3134  0.0397
 2037SOL     OW 9641   2.788   3.825   1.778 -0.1268 -0.6550 -0.2249
 2037SOL    HW1 9642   2.742   3.779   1.707 -2.0244 -1.0086  1.1802
 2037SOL    HW2 9643   2.816   3.755   1.837 -0.7204 -0.1958  0.6054
 2038SOL     OW 9644   2.352   8.183   6.783 -0.4411 -0.2034 -0.0419
 2038SOL    HW1 9645   2.333   8.277   6.791 -0.2728 -0.2105  0.4730
 2038SOL    HW2 9646   2.266   8.141   6.787 -0.4822 -0.0999  0.2068
 2039SOL     OW 9647   4.910   2.345   3.727 -0.3346 -0.6108  0.3644
 2039SOL    HW1 9648   4.927   2.439   3.735 -2.4599 -0.2871  1.8294
 2039SOL    HW2 9649   4.975   2.304   3.785  0.7986 -0.1163 -0.5072
 2040SOL     OW 9650   7.096   7.153   9.843  0.2414 -0.0817  0.2282
 2040SOL    HW1 9651   7.012   7.118   9.814 -1.5554  0.7081  3.8452
 2040SOL    HW2 9652   7.121   7.215   9.774 -2.2073 -0.2740 -0.9426
 2041SOL     OW 9653   1.057   4.471   6.147  0.6317 -0.0201  0.7528
 2041SOL    HW1 9654   1.141   4.443   6.182  1.0263  0.7979  0.4985
 2041SOL    HW2 9655   1.001   4.394   6.152  1.0726 -0.2738  1.9476
 2042SOL     OW 9656   1.245   4.146   5.138  0.2267  0.0734 -0.0235
 2042SOL    HW1 9657   1.328   4.105   5.115  0.4246  1.5881 -2.3055
 2042SOL    HW2 9658   1.185   4.120   5.067 -0.1928  1.9916 -0.4219
 2043SOL     OW 9659   0.426   0.752   9.272  0.3718 -0.1263 -0.5318
 2043SOL    HW1 9660   0.341   0.772   9.233  0.7186  0.4612 -1.0060
 2043SOL    HW2 9661   0.431   0.657   9.272  0.1742 -0.1444 -1.5081
 2044SOL     OW 9662   9.974   9.492   7.004 -0.0017  0.5477 -0.3778
 2044SOL    HW1 9663   9.994   9.567   6.948  1.2442  0.6188  0.1323
 2044SOL    HW2 9664   9.925   9.530   7.077 -0.7800  0.6058 -0.9228
 2045SOL     OW 9665  10.402   5.836   3.669 -0.7905 -0.0646  0.4008
 2045SOL    HW1 9666  10.409   5.905   3.735 -1.3024  0.1597  0.2260
 2045SOL    HW2 9667  10.483   5.785   3.678  0.3536  1.5036 -0.5299
 2046SOL     OW 9668   9.531   9.726   6.575 -0.2662 -0.1832  0.0016
 2046SOL    HW1 9669   9.610   9.672   6.572  0.5262  0.9718 -1.3595
 2046SOL    HW2 9670   9.468   9.681   6.520  0.7567  0.7517 -2.0353
 2047SOL     OW 9671   7.405   9.064   4.673 -0.4157  0.1943 -0.0945
 2047SOL    HW1 9672   7.433   8.977   4.647 -0.7650 -0.0328  0.2835
 2047SOL    HW2 9673   7.353   9.050   4.752  0.4522  0.8416  0.6212
 2048SOL     OW 9674   0.238   4.107   9.291  1.0809  0.5195  0.2164
 2048SOL    HW1 9675   0.201   4.023   9.264  0.9343  0.1036  1.5990
 2048SOL    HW2 9676   0.165   4.169   9.284  0.8556  0.2694  0.3480
 2049SOL     OW 9677   0.551   7.872   2.104  0.5320  0.5826 -0.2455
 2049SOL    HW1 9678   0.456   7.877   2.096  0.4868 -0.4204 -0.4245
 2049SOL    HW2 9679   0.582   7.858   2.014  0.6112 -2.1653  0.1371
 2050SOL     OW 9680   9.300   8.145   1.884  0.0986 -0.2931 -0.2144
 2050SOL    HW1 9681   9.231   8.102   1.835  0.8950 -1.3646 -0.4371
 2050SOL    HW2 9682   9.381   8.113   1.845  0.7394 -0.4652  1.1858
 2051SOL     OW 9683   7.149   1.339   6.662  0.0316  0.2431 -0.2587
 2051SOL    HW1 9684   7.201   1.293   6.596  0.5234 -1.0578  0.9858
 2051SOL    HW2 9685   7.138   1.275   6.732  1.1777  2.1437  1.7922
 2052SOL     OW 9686  10.521   7.956   7.560 -0.2136  0.9265  0.9867
 2052SOL    HW1 9687  10.499   8.009   7.636 -1.7362  0.5643  0.8495
 2052SOL    HW2 9688  10.586   7.894   7.592 -1.1945  0.4490  2.1654
 2053SOL     OW 9689   1.903   3.089  10.702 -0.0233  0.0566 -0.2168
 2053SOL    HW1 9690   1.900   3.160  10.637  0.6450 -0.9221 -1.3578
 2053SOL    HW2 9691   1.812   3.072  10.725 -0.1529  2.1419  1.0806
 2054SOL     OW 9692   7.955   6.691  10.211 -0.2347  0.0346  0.6821
 2054SOL    HW1 9693   7.978   6.669  10.121 -0.9563 -0.3565  0.5844
 2054SOL    HW2 9694   7.920   6.780  10.205 -2.3078 -0.7641  0.2075
 2055SOL     OW 9695   1.765   9.030  10.477  0.3215  0.4339 -0.1985
 2055SOL    HW1 9696   1.836   9.091  10.456  1.4055 -1.4805 -2.7220
 2055SOL    HW2 9697   1.715   9.023  10.395 -0.1536 -1.4783  0.1929
 2056SOL     OW 9698   0.469   1.581   0.194  0.1398  0.1112  0.0695
 2056SOL    HW1 9699   0.409   1.651   0.221 -0.2346 -0.1869  0.0014
 2056SOL    HW2 9700   0.473   1.588   0.098  0.5424  0.3986  0.1023
 2057SOL     OW 9701   4.142   3.123   4.974 -0.4210 -0.1427  0.1017
 2057SOL    HW1 9702   4.211   3.057   4.984 -0.1654  0.3912  2.3340
 2057SOL    HW2 9703   4.141   3.143   4.880  0.8281 -1.8712 -0.3261
 2058SOL     OW 9704   1.995   2.883   1.635 -0.3093  0.1140  0.1102
 2058SOL    HW1 9705   1.973   2.804   1.586  1.9954 -0.1815 -0.5673
 2058SOL    HW2 9706   1.999   2.952   1.569 -3.1555  1.1040  0.8051
 2059SOL     OW 9707   6.873   3.285   9.452 -0.3490  0.5174  0.1898
 2059SOL    HW1 9708   6.803   3.224   9.474 -1.4389  1.8570  0.5310
 2059SOL    HW2 9709   6.946   3.259   9.508 -0.2679 -1.3752 -0.7169
 2060SOL     OW 9710   0.154   9.369   5.196  0.0298 -0.2912 -0.8823
 2060SOL    HW1 9711   0.216   9.430   5.235 -0.1009  0.0344 -1.1775
 2060SOL    HW2 9712   0.081   9.424   5.167 -0.6064 -0.7216 -0.1341
 2061SOL     OW 9713   9.304   1.197   1.846 -0.0687  0.2024  0.5046
 2061SOL    HW1 9714   9.322   1.291   1.843 -2.2872  0.6738  0.2971
 2061SOL    HW2 9715   9.248   1.180   1.771 -0.9000 -0.9978  1.3559
 2062SOL     OW 9716   3.478   6.572   7.426  0.0264  0.2212  0.3070
 2062SOL    HW1 9717   3.504   6.543   7.513  0.7477 -0.0292  0.0205
 2062SOL    HW2 9718   3.395   6.617   7.439  0.5651  0.9909  1.2689
 2063SOL     OW 9719   5.342   4.351   7.504 -0.1739 -0.2607 -0.4979
 2063SOL    HW1 9720   5.315   4.410   7.574 -1.6062 -0.9836 -0.4176
 2063SOL    HW2 9721   5.364   4.409   7.431 -1.5784  0.3915 -0.4291
 2064SOL     OW 9722  10.929   9.929   8.501 -0.4615  0.0682  0.3054
 2064SOL    HW1 9723  10.839   9.911   8.528 -0.3394  2.7387  3.0559
 2064SOL    HW2 9724  10.975   9.944   8.584  1.6833  2.1418 -1.1662
 2065SOL     OW 9725   3.326   7.091  10.705 -0.2490  0.9353  0.3805
 2065SOL    HW1 9726   3.334   7.145  10.626 -0.4552  0.0449 -0.2729
 2065SOL    HW2 9727   3.367   7.008  10.681 -0.1579  0.7140  1.2800
 2066SOL     OW 9728   6.755   1.633   9.844 -0.3281 -0.3475  0.2727
 2066SOL    HW1 9729   6.706   1.561   9.805  0.1760 -1.1001  0.9909
 2066SOL    HW2 9730   6.811   1.591   9.909  1.0319  0.5209 -0.2907
 2067SOL     OW 9731   4.329   6.087   1.521  0.3643  0.0026  0.0853
 2067SOL    HW1 9732   4.393   6.016   1.531  0.6057  0.1145 -0.5999
 2067SOL    HW2 9733   4.366   6.160   1.572  0.9357  0.1567 -0.5310
 2068SOL     OW 9734   9.221  10.524   4.260  0.0687  0.0833 -0.2288
 2068SOL    HW1 9735   9.153  10.472   4.217 -0.8870  0.1391  1.1629
 2068SOL    HW2 9736   9.271  10.563   4.188  0.0195 -1.7207 -1.2962
 2069SOL     OW 9737   6.315   5.827   2.306  0.3393  0.0609 -0.4711
 2069SOL    HW1 9738   6.383   5.894   2.304  2.6488 -2.1693 -1.5578
 2069SOL    HW2 9739   6.330   5.780   2.388 -0.9097  0.5031  0.0257
 2070SOL     OW 9740   4.920   9.066   4.339 -0.4112 -0.2400  0.0597
 2070SOL    HW1 9741   4.912   9.159   4.360  1.8379  0.4005 -1.4659
 2070SOL    HW2 9742   4.936   9.023   4.423  0.3618  1.0378  0.5922
 2071SOL     OW 9743   7.428   1.650   8.299 -0.2186 -0.0667 -0.4205
 2071SOL    HW1 9744   7.479   1.717   8.252 -0.1626  0.4937  0.4163
 2071SOL    HW2 9745   7.350   1.638   8.245 -0.6800  1.3742 -0.1278
 2072SOL     OW 9746   3.107   1.232   3.490 -0.2802 -0.2648  0.0928
 2072SOL    HW1 9747   3.100   1.158   3.429 -0.0582 -0.1508 -0.0734
 2072SOL    HW2 9748   3.103   1.192   3.577  1.5716 -0.6837  0.0426
 2073SOL     OW 9749  10.731   9.058   5.582  0.4687 -0.1702  0.0818
 2073SOL    HW1 9750  10.749   8.967   5.561 -0.4708 -0.2992 -0.2360
 2073SOL    HW2 9751  10.809   9.106   5.554  0.4531 -0.7243 -0.9429
 2074SOL     OW 9752   2.703   8.339   9.193 -0.0145  0.3239 -0.2494
 2074SOL    HW1 9753   2.690   8.284   9.116 -0.4118  0.9998 -0.6769
 2074SOL    HW2 9754   2.797   8.356   9.195  0.5334 -2.3747  1.3061
 2075SOL     OW 9755   1.457   1.290   8.011  0.3218 -0.2760  0.4169
 2075SOL    HW1 9756   1.376   1.342   8.010  1.6584  1.9761  1.0455
 2075SOL    HW2 9757   1.432   1.207   7.971 -1.6767  1.3109 -2.0533
 2076SOL     OW 9758   2.554   6.023   6.673 -0.1673  0.0322 -0.1355
 2076SOL    HW1 9759   2.521   5.959   6.610 -1.8370  1.4710 -0.8093
 2076SOL    HW2 9760   2.636   6.055   6.634 -0.1527 -0.5226 -0.5774
 2077SOL     OW 9761   6.945   3.845   6.974  0.0272  0.0638  0.4055
 2077SOL    HW1 9762   6.934   3.886   6.889 -0.4847 -1.1373 -0.1351
 2077SOL    HW2 9763   6.933   3.916   7.037  1.6486  1.2201 -0.5235
 2078SOL     OW 9764  10.516   0.251   8.486 -0.2422  0.1004  0.2527
 2078SOL    HW1 9765  10.553   0.296   8.410 -2.0653 -1.2536 -1.5677
 2078SOL    HW2 9766  10.445   0.308   8.515  0.4480  0.6123  0.9713
 2079SOL     OW 9767   0.875   4.136   7.401  0.1000 -0.4567  0.3286
 2079SOL    HW1 9768   0.940   4.191   7.446 -0.0754 -1.1164  1.4335
 2079SOL    HW2 9769   0.927   4.069   7.357  0.2514 -0.0697 -0.0880
 2080SOL     OW 9770   6.799   0.160   9.589  0.1521 -0.3208 -0.3529
 2080SOL    HW1 9771   6.864   0.179   9.522 -0.7449  0.3767 -1.0574
 2080SOL    HW2 9772   6.757   0.079   9.560 -0.5791  0.2488 -0.9233
 2081SOL     OW 9773   7.727   6.186   1.392  0.4679  0.1795  0.5714
 2081SOL    HW1 9774   7.793   6.126   1.357  0.5112  0.4120  0.2537
 2081SOL    HW2 9775   7.777   6.261   1.424  0.2514  1.4739 -1.8394
 2082SOL     OW 9776  10.027   2.679   9.319  0.9609 -0.1477  0.4074
 2082SOL    HW1 9777   9.961   2.615   9.292  0.3794  1.0748 -1.1977
 2082SOL    HW2 9778   9.984   2.764   9.310  2.4642  0.6234  0.1632
 2083SOL     OW 9779  10.150   7.727   7.038 -0.3849 -0.0293 -0.5650
 2083SOL    HW1 9780  10.206   7.668   6.986  0.8050  1.4021 -0.9737
 2083SOL    HW2 9781  10.196   7.735   7.122 -1.9328 -1.7590  0.5171
 2084SOL     OW 9782   8.540   1.162   7.213  0.4585 -0.0459  0.0971
 2084SOL    HW1 9783   8.625   1.169   7.256 -0.0300 -0.2538  1.1416
 2084SOL    HW2 9784   8.482   1.216   7.267  0.0220  0.4767 -0.8741
 2085SOL     OW 9785   0.849   6.978   5.081 -0.2758 -0.2778  1.2035
 2085SOL    HW1 9786   0.935   7.017   5.096 -0.9183  0.6863  2.6095
 2085SOL    HW2 9787   0.864   6.884   5.084  0.6478 -0.1205  2.0357
 2086SOL     OW 9788   0.638   1.092   4.492  0.2167  0.1650  0.5302
 2086SOL    HW1 9789   0.664   1.006   4.458  0.4131  0.9368 -1.3968
 2086SOL    HW2 9790   0.659   1.153   4.421 -0.2574  1.7612  1.7156
 2087SOL     OW 9791   8.958   9.233   9.241  0.1362 -0.0682 -0.4931
 2087SOL    HW1 9792   8.910   9.225   9.158 -0.8627 -0.0444  0.0558
 2087SOL    HW2 9793   9.039   9.185   9.227  0.6569  1.1635 -1.9619
 2088SOL     OW 9794   2.579   5.445  10.469 -0.0510 -0.2936 -0.1208
 2088SOL    HW1 9795   2.508   5.484  10.418  0.8646 -0.2317 -1.3989
 2088SOL    HW2 9796   2.587   5.356  10.435  1.5130  0.1950 -1.1795
 2089SOL     OW 9797   6.885   8.665   5.363 -0.3814  1.2753  0.1361
 2089SOL    HW1 9798   6.942   8.619   5.301  1.0447  0.3484  2.0019
 2089SOL    HW2 9799   6.840   8.595   5.411 -1.4478  1.9567  0.1560
 2090SOL     OW 9800   3.494   4.889   7.642 -0.6071  0.2082 -0.1162
 2090SOL    HW1 9801   3.496   4.831   7.718 -0.2683 -0.1688 -0.4041
 2090SOL    HW2 9802   3.536   4.838   7.573 -0.7996  0.5961 -0.5197
 2091SOL     OW 9803   9.781   7.196   6.875 -0.3170  0.4741 -0.3455
 2091SOL    HW1 9804   9.688   7.201   6.853 -1.2070 -0.2680  2.6684
 2091SOL    HW2 9805   9.799   7.277   6.923 -0.1002 -0.3557  1.0609
 2092SOL     OW 9806  10.828   2.490  10.764  0.3328  0.3196 -0.1707
 2092SOL    HW1 9807  10.765   2.458  10.699  1.5124  0.1522 -1.2609
 2092SOL    HW2 9808  10.863   2.412  10.805  0.5040  0.3775 -0.2076
 2093SOL     OW 9809   7.932   6.107   3.554  0.1734  0.6411  0.2864
 2093SOL    HW1 9810   7.884   6.188   3.571  1.4709  2.0566 -2.2823
 2093SOL    HW2 9811   7.987   6.127   3.479  1.3400 -2.3395  0.2250
 2094SOL     OW 9812   9.186   2.445   7.448  0.1953  0.0945 -0.0080
 2094SOL    HW1 9813   9.206   2.528   7.492 -0.8335  0.5509 -0.3753
 2094SOL    HW2 9814   9.166   2.470   7.358  1.0946 -0.7017 -0.4494
 2095SOL     OW 9815   9.593   9.225   5.041  0.0935 -0.5129  0.3318
 2095SOL    HW1 9816   9.557   9.311   5.018 -1.9982 -1.8059 -1.7306
 2095SOL    HW2 9817   9.593   9.224   5.137 -3.8236  0.3605  0.5314
 2096SOL     OW 9818   2.783   9.278   2.618  0.0413  0.0316 -0.6629
 2096SOL    HW1 9819   2.875   9.285   2.643 -0.2436 -1.3651  0.9518
 2096SOL    HW2 9820   2.774   9.337   2.543  1.7626  1.8187  0.4385
 2097SOL     OW 9821   5.254  10.730   2.477 -0.1230 -0.1020 -0.1982
 2097SOL    HW1 9822   5.247  10.800   2.542 -0.4497  0.3097 -0.6724
 2097SOL    HW2 9823   5.326  10.675   2.509 -1.1487 -0.6775  1.2414
 2098SOL     OW 9824   7.125   4.590   9.328  0.4852  0.6019 -0.1704
 2098SOL    HW1 9825   7.097   4.673   9.365  0.4963  0.4836  0.1090
 2098SOL    HW2 9826   7.220   4.591   9.336  0.4203  0.0922  0.8696
 2099SOL     OW 9827   4.798   7.192   6.658  0.0368  0.3463  0.0878
 2099SOL    HW1 9828   4.739   7.118   6.669  0.5397 -0.4565 -2.1370
 2099SOL    HW2 9829   4.872   7.157   6.608 -0.4150  2.5880 -2.4215
 2100SOL     OW 9830   5.825   7.145   1.266  0.7593  0.6049 -0.2483
 2100SOL    HW1 9831   5.849   7.196   1.189  2.3063  0.6206  0.2015
 2100SOL    HW2 9832   5.870   7.189   1.338 -1.0943  0.9037  0.7579
 2101SOL     OW 9833   8.450   6.642   2.300  0.3476 -0.4496  0.2517
 2101SOL    HW1 9834   8.428   6.735   2.299  0.6343 -0.3791  0.4236
 2101SOL    HW2 9835   8.538   6.638   2.338  1.8739 -0.4682 -2.9102
 2102SOL     OW 9836   1.176   6.382   2.552  0.1904 -0.2022  0.0338
 2102SOL    HW1 9837   1.132   6.306   2.590 -1.1717 -0.0223 -1.0914
 2102SOL    HW2 9838   1.117   6.411   2.482  0.7966  1.7529  0.2795
 2103SOL     OW 9839   0.350   5.606   2.758 -0.4606 -0.1004 -0.0023
 2103SOL    HW1 9840   0.348   5.701   2.741 -1.3536  0.6421  3.5007
 2103SOL    HW2 9841   0.438   5.589   2.789  0.2520 -0.8549 -2.2589
 2104SOL     OW 9842  10.126   7.526   1.855 -0.0899  0.1273  0.3694
 2104SOL    HW1 9843  10.085   7.568   1.930 -0.6967 -0.0987  0.1719
 2104SOL    HW2 9844  10.110   7.585   1.782  0.9455  0.6015  0.4973
 2105SOL     OW 9845   8.330   9.021   5.580 -0.4860 -0.0230 -0.2571
 2105SOL    HW1 9846   8.273   8.952   5.613  0.4273 -0.3045  0.8294
 2105SOL    HW2 9847   8.288   9.052   5.500 -1.8038 -0.6509  0.1659
 2106SOL     OW 9848   8.872   0.317   3.764 -0.7775  0.1939  1.0900
 2106SOL    HW1 9849   8.875   0.280   3.852 -2.3271 -0.8252  0.7402
 2106SOL    HW2 9850   8.788   0.289   3.728  0.6301 -1.1687 -1.4836
 2107SOL     OW 9851   6.886   5.714   2.214  0.2847  0.3067  0.6603
 2107SOL    HW1 9852   6.941   5.733   2.138  1.9263 -0.6446  1.5721
 2107SOL    HW2 9853   6.900   5.621   2.232 -1.2640  0.1475  1.2213
 2108SOL     OW 9854   9.599   8.138   1.230  0.0711 -0.5170  0.3223
 2108SOL    HW1 9855   9.609   8.053   1.188 -0.5485  0.2238 -1.4442
 2108SOL    HW2 9856   9.685   8.180   1.220 -0.0581 -0.3656 -0.1566
 2109SOL     OW 9857   9.894   2.206   4.554  0.5255 -0.2633 -0.3742
 2109SOL    HW1 9858   9.915   2.238   4.641  0.6333 -1.4470  0.0518
 2109SOL    HW2 9859   9.909   2.112   4.558  0.1485 -0.4000 -1.5574
 2110SOL     OW 9860  10.890   8.344   9.027 -0.1244 -0.6778 -0.5919
 2110SOL    HW1 9861  10.834   8.405   9.075  1.0572  0.4992 -0.6752
 2110SOL    HW2 9862  10.938   8.398   8.965  0.7993 -1.7139 -0.8107
 2111SOL     OW 9863   6.414   3.349  10.028  0.6560 -0.0690  0.2737
 2111SOL    HW1 9864   6.334   3.336  10.078  1.9037  3.0626  3.5297
 2111SOL    HW2 9865   6.469   3.274  10.050  0.6022  0.5029  2.5133
 2112SOL     OW 9866   8.917   0.302  10.763 -0.0815  0.4379  0.3361
 2112SOL    HW1 9867   8.861   0.254  10.824 -1.7699  1.5892 -0.2488
 2112SOL    HW2 9868   8.965   0.234  10.716  1.4854 -0.4954  3.0350
 2113SOL     OW 9869   5.853   7.990   3.963 -0.2150 -0.0727  0.5771
 2113SOL    HW1 9870   5.778   8.047   3.948 -0.4601  0.2632  2.7110
 2113SOL    HW2 9871   5.929   8.046   3.947 -0.4542  0.5292  1.4561
 2114SOL     OW 9872   3.149   9.427   4.492 -0.3530 -0.2438 -0.4780
 2114SOL    HW1 9873   3.226   9.382   4.527  0.0281  0.4630 -0.3863
 2114SOL    HW2 9874   3.147   9.403   4.399  0.1780 -0.0015 -0.5576
 2115SOL     OW 9875   7.957   0.859   2.182 -0.0056 -0.1909  0.5907
 2115SOL    HW1 9876   8.013   0.876   2.258 -0.4852  3.2678  0.3319
 2115SOL    HW2 9877   7.996   0.911   2.112 -0.7437 -1.7139 -1.0221
 2116SOL     OW 9878   8.482   1.504   9.695 -0.7103 -0.3168 -0.1458
 2116SOL    HW1 9879   8.479   1.408   9.696 -1.4826 -0.2988  1.0447
 2116SOL    HW2 9880   8.446   1.528   9.610 -0.3382 -1.0757 -0.5322
 2117SOL     OW 9881   2.005   1.610   5.737 -0.0628  0.2451  0.3746
 2117SOL    HW1 9882   1.965   1.643   5.817 -2.3331 -0.1042 -0.5493
 2117SOL    HW2 9883   2.007   1.686   5.678  0.9129  0.3174  0.4745
 2118SOL     OW 9884   8.955   4.068   1.096 -0.6855  0.2481  0.4584
 2118SOL    HW1 9885   8.895   3.998   1.068 -0.0024 -0.3320  0.4097
 2118SOL    HW2 9886   9.037   4.022   1.114 -0.2229  1.0524  0.4153
 2119SOL     OW 9887   9.883   3.549   8.055  0.3617 -0.0597 -0.2027
 2119SOL    HW1 9888   9.874   3.459   8.023 -0.5624 -0.2968  0.6662
 2119SOL    HW2 9889   9.977   3.560   8.068  1.0393  0.5360 -4.2179
 2120SOL     OW 9890   5.767   2.207   5.624  0.3242  0.0764 -0.0056
 2120SOL    HW1 9891   5.784   2.298   5.650  2.0468  0.0725 -0.9682
 2120SOL    HW2 9892   5.719   2.214   5.541 -0.3184  0.0816  0.3558
 2121SOL     OW 9893   0.941   3.851   1.566  0.0346  0.1147  0.1018
 2121SOL    HW1 9894   0.982   3.915   1.508 -2.4370 -0.5117 -2.5332
 2121SOL    HW2 9895   0.979   3.767   1.540 -1.5995 -0.2589 -1.2175
 2122SOL     OW 9896   0.615  10.506   5.944 -0.2304 -0.3531 -0.9524
 2122SOL    HW1 9897   0.644  10.514   6.034  0.4106  1.3612 -1.2632
 2122SOL    HW2 9898   0.630  10.414   5.921  1.8186 -0.3142 -0.0260
 2123SOL     OW 9899   3.684   9.100   9.276 -0.5441 -0.2030 -0.0917
 2123SOL    HW1 9900   3.779   9.102   9.275 -0.5180 -1.0481 -0.2794
 2123SOL    HW2 9901   3.661   9.022   9.226 -1.3490  0.2860 -0.5058
 2124SOL     OW 9902   8.173   1.557   3.764 -0.0243 -0.3963 -0.1410
 2124SOL    HW1 9903   8.140   1.646   3.774  0.9733  0.0007 -0.3482
 2124SOL    HW2 9904   8.094   1.504   3.749 -0.8521  0.1129  2.0789
 2125SOL     OW 9905   3.070   0.222   7.990  0.4623 -0.1625  0.1679
 2125SOL    HW1 9906   3.152   0.219   8.039  1.6765  0.2103 -1.7372
 2125SOL    HW2 9907   3.005   0.182   8.048  1.7257  0.5923  2.1858
 2126SOL     OW 9908   4.276   9.207   8.212 -0.1778 -0.0319 -0.0656
 2126SOL    HW1 9909   4.261   9.301   8.218 -1.5452 -0.2427  0.2754
 2126SOL    HW2 9910   4.277   9.189   8.118  0.9326  0.4292 -0.1535
 2127SOL     OW 9911   7.599   2.448   2.299 -0.1866 -0.5167 -0.1059
 2127SOL    HW1 9912   7.654   2.370   2.287  2.1718  1.0981 -0.4473
 2127SOL    HW2 9913   7.609   2.470   2.392  1.0679  0.6431 -0.4795
 2128SOL     OW 9914   6.501   5.612   1.986  0.1942  0.3062 -0.0677
 2128SOL    HW1 9915   6.452   5.635   1.907 -1.4246 -1.5166  0.3358
 2128SOL    HW2 9916   6.504   5.692   2.037 -3.9859  0.1695  0.6833
 2129SOL     OW 9917   0.195   1.420  10.657 -0.2435 -0.0109 -0.1704
 2129SOL    HW1 9918   0.186   1.482  10.584 -2.9572 -0.1002  0.0026
 2129SOL    HW2 9919   0.105   1.396  10.679  0.6096 -1.4982  1.9477
 2130SOL     OW 9920   3.053   6.482   8.902  0.8715 -0.3489  0.0838
 2130SOL    HW1 9921   3.041   6.403   8.953  0.7278  1.2331  2.6899
 2130SOL    HW2 9922   3.136   6.518   8.933  0.8985  0.5518 -0.9864
 2131SOL     OW 9923   1.819   1.499   7.351 -0.0726 -0.1323  0.0299
 2131SOL    HW1 9924   1.799   1.413   7.312 -1.2099  0.9372 -1.9008
 2131SOL    HW2 9925   1.902   1.524   7.310  2.1855 -1.7056  3.1839
 2132SOL     OW 9926  10.249   3.157   9.921 -0.4566 -0.0560 -0.0038
 2132SOL    HW1 9927  10.181   3.113   9.871  0.5991  0.7290 -2.2478
 2132SOL    HW2 9928  10.315   3.182   9.856  1.2496  0.5757  1.8607
 2133SOL     OW 9929   0.541   4.780   7.234  0.0526 -0.0356 -0.0205
 2133SOL    HW1 9930   0.524   4.737   7.318 -1.0009 -0.7789 -0.5878
 2133SOL    HW2 9931   0.467   4.754   7.178  1.2859 -0.4507 -1.5270
 2134SOL     OW 9932   8.583   2.733  11.077  0.1291 -0.0835 -0.3056
 2134SOL    HW1 9933   8.593   2.813  11.025  1.2150 -0.4348 -0.6654
 2134SOL    HW2 9934   8.671   2.714  11.108  0.3346 -2.3479 -2.0625
 2135SOL     OW 9935   2.731   8.726   7.167  0.2052  0.1361 -0.3901
 2135SOL    HW1 9936   2.763   8.793   7.106 -0.2586  1.2604  0.5632
 2135SOL    HW2 9937   2.805   8.708   7.225  0.1205  0.3272 -0.2224
 2136SOL     OW 9938   7.179   9.451   3.975  0.3851 -0.3162 -0.0912
 2136SOL    HW1 9939   7.161   9.367   3.934  1.3874 -0.3303 -0.5206
 2136SOL    HW2 9940   7.095   9.496   3.975  0.0335 -0.9602 -0.6730
 2137SOL     OW 9941   6.396   1.939   4.836 -0.0033  0.0798 -0.8889
 2137SOL    HW1 9942   6.382   1.894   4.752  0.9550 -0.4737 -0.7749
 2137SOL    HW2 9943   6.384   1.871   4.902  2.8030 -0.4636 -0.7745
 2138SOL     OW 9944   5.272   5.036   7.657  0.4127  0.3257  0.8516
 2138SOL    HW1 9945   5.288   5.112   7.602 -1.3912  0.6728  0.7489
 2138SOL    HW2 9946   5.201   4.989   7.613  0.4951 -0.6260  1.6894
 2139SOL     OW 9947   1.237   3.555   3.480 -0.2175 -0.1701  0.5358
 2139SOL    HW1 9948   1.289   3.516   3.550  1.0268 -1.3807 -0.9887
 2139SOL    HW2 9949   1.299   3.609   3.431 -1.1551  0.9529  0.5354
 2140SOL     OW 9950   8.416   0.640   9.789  0.4423  0.5353 -0.1939
 2140SOL    HW1 9951   8.407   0.627   9.695 -0.5955 -0.3980  0.0098
 2140SOL    HW2 9952   8.335   0.606   9.826  1.4237 -0.4579  1.1599
 2141SOL     OW 9953   1.934   3.439   5.795  0.1223 -0.5115 -0.6790
 2141SOL    HW1 9954   1.933   3.357   5.844  2.0324 -1.1823 -1.6415
 2141SOL    HW2 9955   1.993   3.422   5.721 -0.8826  1.1617 -1.9476
 2142SOL     OW 9956   9.327   4.235   0.472 -0.2819  0.0352 -0.1201
 2142SOL    HW1 9957   9.366   4.205   0.389  0.9855 -0.4147  0.6195
 2142SOL    HW2 9958   9.325   4.331   0.464  0.7896  0.0554 -0.2664
 2143SOL     OW 9959   3.867   5.474   3.171  0.4654  0.0672 -0.5821
 2143SOL    HW1 9960   3.830   5.421   3.242 -2.6204  0.9387 -1.3775
 2143SOL    HW2 9961   3.818   5.556   3.175  2.6997  1.5389 -1.5627
 2144SOL     OW 9962   5.928   5.612   0.230 -0.4143 -0.6550  0.0433
 2144SOL    HW1 9963   5.867   5.598   0.158  0.9883 -0.3423 -1.2444
 2144SOL    HW2 9964   5.981   5.532   0.233  0.7094  0.0401 -0.4874
 2145SOL     OW 9965  10.066   9.842  10.480  0.1131  0.0230 -0.1577
 2145SOL    HW1 9966  10.050   9.931  10.449  1.2739  0.3938  0.2645
 2145SOL    HW2 9967   9.997   9.826  10.544  0.6620  1.1337  0.7550
 2146SOL     OW 9968   9.111   2.551   9.300 -0.0047  0.0318  0.0131
 2146SOL    HW1 9969   9.176   2.480   9.305 -0.3884 -0.5074 -1.8408
 2146SOL    HW2 9970   9.042   2.524   9.360 -0.2439 -1.3345 -0.8108
 2147SOL     OW 9971   7.179   1.508   7.949  0.2359 -0.1830 -0.0170
 2147SOL    HW1 9972   7.243   1.447   7.912  0.1269 -0.0160 -0.4876
 2147SOL    HW2 9973   7.094   1.470   7.926  0.1435 -0.8920  1.3954
 2148SOL     OW 9974   7.346   2.364   5.038  0.3014  0.5810 -0.1533
 2148SOL    HW1 9975   7.340   2.312   4.958 -0.9906  0.6028 -0.0957
 2148SOL    HW2 9976   7.308   2.449   5.014 -1.4438  0.1344  0.8101
 2149SOL     OW 9977   6.066   7.519   6.888 -0.7147  0.2561  0.1207
 2149SOL    HW1 9978   6.123   7.594   6.905  0.2661 -0.3522 -0.3804
 2149SOL    HW2 9979   6.006   7.549   6.821  0.3140  0.3042 -0.8037
 2150SOL     OW 9980  10.602   9.923   0.089  0.1553 -0.1662  0.0352
 2150SOL    HW1 9981  10.561   9.869   0.022  1.8817 -0.9128 -0.4798
 2150SOL    HW2 9982  10.612   9.865   0.164  0.6393 -0.1291  0.0046
 2151SOL     OW 9983  10.260   1.637   9.010 -0.2187 -0.0565  0.6401
 2151SOL    HW1 9984  10.251   1.580   9.087  1.3244 -0.2213  0.7219
 2151SOL    HW2 9985  10.327   1.595   8.957 -0.0833  0.9391  0.0001
 2152SOL     OW 9986   0.610   1.778   2.061  0.2903  0.3729 -0.1250
 2152SOL    HW1 9987   0.565   1.754   1.980 -1.3693  1.0031  0.5696
 2152SOL    HW2 9988   0.632   1.694   2.102 -2.1373 -0.0228  0.5016
 2153SOL     OW 9989   5.735  10.710   5.914  0.2767  0.2596  0.3195
 2153SOL    HW1 9990   5.780  10.632   5.946 -1.7352 -1.4889 -0.9129
 2153SOL    HW2 9991   5.688  10.744   5.991 -1.4476 -1.6925  0.2108
 2154SOL     OW 9992   2.384   6.849   5.089  0.3878 -0.1766 -0.5642
 2154SOL    HW1 9993   2.419   6.930   5.127  1.3518  0.4568 -2.6309
 2154SOL    HW2 9994   2.461   6.797   5.068 -0.0652 -0.4250 -1.7105
 2155SOL     OW 9995   6.958   5.158   7.716 -0.2813  0.4934 -0.0887
 2155SOL    HW1 9996   6.906   5.132   7.792  1.8375 -0.3060  1.1616
 2155SOL    HW2 9997   6.930   5.098   7.646 -2.1950  1.1916  0.0128
 2156SOL     OW 9998   6.602   0.019   1.289  0.1318  0.2478  0.6101
 2156SOL    HW1 9999   6.678   0.070   1.261  0.6609  0.7307  2.7281
 2156SOL    HW210000   6.630  -0.072   1.282  0.0894  0.3298 -0.7682
 2157SOL     OW10001   4.857   6.442   8.520 -0.1748  0.5096 -0.6375
 2157SOL    HW110002   4.880   6.449   8.612 -0.2829 -0.1503 -0.5532
 2157SOL    HW210003   4.912   6.370   8.488 -0.8751  0.0639 -0.8451
 2158SOL     OW10004   1.929   0.798   8.506  0.1265  0.4329  0.4787
 2158SOL    HW110005   1.848   0.781   8.458  0.1380  2.8852 -0.5783
 2158SOL    HW210006   1.907   0.865   8.569  1.4876  1.9469 -0.5509
 2159SOL     OW10007   1.599   3.127   0.566  0.7042 -0.0762  0.4411
 2159SOL    HW110008   1.585   3.140   0.473  2.4699  0.1263  0.1695
 2159SOL    HW210009   1.540   3.190   0.608 -2.6218 -2.4006 -0.3380
 2160SOL     OW10010   5.392  10.709   3.233 -0.1258 -0.7083  0.1465
 2160SOL    HW110011   5.478  10.684   3.269 -0.1122  1.1983  1.6164
 2160SOL    HW210012   5.331  10.646   3.271  0.1567  0.1351  2.1391
 2161SOL     OW10013   2.691   3.968   8.047 -0.4915  0.0198 -0.4099
 2161SOL    HW110014   2.752   4.040   8.035 -0.9328  0.4575 -0.0700
 2161SOL    HW210015   2.735   3.893   8.008  0.2279  0.3443 -0.2479
 2162SOL     OW10016   7.312   6.000   1.164  0.0566 -0.6117 -0.0427
 2162SOL    HW110017   7.307   6.009   1.260  1.2581  0.6041 -0.0562
 2162SOL    HW210018   7.379   5.933   1.150 -1.1725 -1.8716 -0.0402
 2163SOL     OW10019   3.344   6.086   6.132  0.1395  0.7222  0.3748
 2163SOL    HW110020   3.372   6.152   6.195  2.7800  0.9381 -0.8953
 2163SOL    HW210021   3.371   6.003   6.171  0.2322  0.7173  0.3017
 2164SOL     OW10022   2.749   5.484   8.274 -0.3448  0.4109  0.0712
 2164SOL    HW110023   2.768   5.525   8.359  0.9996 -0.4496  0.2124
 2164SOL    HW210024   2.798   5.537   8.211  2.5005 -1.5677  0.3913
 2165SOL     OW10025   2.206   2.796   3.052  0.0625 -0.0905 -0.5047
 2165SOL    HW110026   2.198   2.881   3.094 -0.3099  0.6833 -2.0740
 2165SOL    HW210027   2.131   2.746   3.086  0.1053  0.3013  0.1846
 2166SOL     OW10028   3.882   0.486   8.179  0.0764  0.0812 -0.5066
 2166SOL    HW110029   3.919   0.525   8.258  0.0249  0.4466 -0.6594
 2166SOL    HW210030   3.831   0.412   8.211  2.7979 -1.9269 -0.4635
 2167SOL     OW10031   5.243   5.833   9.631 -0.0971 -0.1445 -0.6947
 2167SOL    HW110032   5.236   5.750   9.678  2.8553  0.2538  0.6974
 2167SOL    HW210033   5.196   5.896   9.687  1.9679 -0.0051  1.0261
 2168SOL     OW10034  10.368   1.691   5.642 -0.3677  0.4931  0.5301
 2168SOL    HW110035  10.393   1.726   5.557 -0.5551 -1.8476 -0.5706
 2168SOL    HW210036  10.446   1.644   5.672 -0.5237  0.7486  1.3562
 2169SOL     OW10037  10.175   1.511  11.119 -1.0712 -0.2810 -0.3831
 2169SOL    HW110038  10.219   1.465  11.190 -1.6891 -0.7697 -0.3153
 2169SOL    HW210039  10.234   1.583  11.098 -0.7537 -0.2904  0.4350
 2170SOL     OW10040   5.518   7.965   5.251  0.2792  0.9071 -0.1083
 2170SOL    HW110041   5.592   7.968   5.312 -0.1745 -0.1107  0.5297
 2170SOL    HW210042   5.557   7.940   5.167  0.8098  1.5518 -0.0634
 2171SOL     OW10043   1.343   9.847   9.384  0.5313  0.6685  0.2461
 2171SOL    HW110044   1.371   9.830   9.295 -0.3362  0.5616 -0.0182
 2171SOL    HW210045   1.402   9.915   9.416  0.6392  0.9334 -0.5173
 2172SOL     OW10046   8.856   9.073   6.146  0.1329  0.2499  0.4887
 2172SOL    HW110047   8.799   9.083   6.223 -1.6166 -0.0526 -0.7070
 2172SOL    HW210048   8.927   9.134   6.161 -0.3075  0.3955  2.2255
 2173SOL     OW10049   7.884   2.152  11.059  0.7665  0.2887  0.2060
 2173SOL    HW110050   7.859   2.130  11.149  0.5735 -1.8759 -0.3359
 2173SOL    HW210051   7.818   2.215  11.031 -0.9964 -1.2829  0.6081
 2174SOL     OW10052   0.579   3.184   6.942  0.1734  0.8509 -0.0321
 2174SOL    HW110053   0.621   3.148   6.864 -0.2147  0.4064 -0.0418
 2174SOL    HW210054   0.570   3.277   6.924  0.2225  0.7738 -0.4598
 2175SOL     OW10055   2.173   7.102   6.597  0.1663  0.1445  0.3293
 2175SOL    HW110056   2.178   7.195   6.619  1.6506  0.6516 -1.8618
 2175SOL    HW210057   2.257   7.066   6.624 -0.2673 -0.5232  0.8375
 2176SOL     OW10058   3.815   6.681   7.786 -0.7869 -0.1534 -0.4783
 2176SOL    HW110059   3.727   6.703   7.817 -0.8267  0.5937 -1.0809
 2176SOL    HW210060   3.801   6.632   7.705 -0.6512  0.1760 -0.7048
 2177SOL     OW10061   1.193   2.099   9.491 -0.3137  0.7004  0.1249
 2177SOL    HW110062   1.116   2.138   9.533 -0.7792  0.0362 -0.1002
 2177SOL    HW210063   1.228   2.038   9.556 -1.7039 -1.1958 -0.7973
 2178SOL     OW10064   2.910   6.139   3.247 -0.4639  0.3675 -0.6886
 2178SOL    HW110065   2.832   6.168   3.199  0.2212  1.0728 -1.4124
 2178SOL    HW210066   2.976   6.126   3.179  0.6918  1.8956  0.0955
 2179SOL     OW10067   5.404  10.545   5.982  0.0931  0.2170  0.0170
 2179SOL    HW110068   5.395  10.548   5.887  1.7749 -1.4990 -0.2466
 2179SOL    HW210069   5.491  10.509   5.997 -0.5405 -0.5694  2.1930
 2180SOL     OW10070   9.234   9.419   8.725  0.0235 -0.7839  1.1745
 2180SOL    HW110071   9.173   9.348   8.705 -0.4133 -0.1579  0.1851
 2180SOL    HW210072   9.317   9.375   8.743 -0.0673 -1.5432 -0.0917
 2181SOL     OW10073   0.285   6.375   3.661 -0.8448 -0.1244  0.8540
 2181SOL    HW110074   0.259   6.315   3.731 -1.8423 -0.5906  0.1141
 2181SOL    HW210075   0.205   6.423   3.640  0.0078  1.7299  1.6529
 2182SOL     OW10076   4.259   7.705   1.717  0.1277 -0.0589  0.2148
 2182SOL    HW110077   4.169   7.740   1.711  0.0332  0.0081  1.6630
 2182SOL    HW210078   4.313   7.782   1.737  0.4081 -0.2162  0.0680
 2183SOL     OW10079   3.195   0.558   2.495 -0.4401  0.4440  0.5442
 2183SOL    HW110080   3.118   0.614   2.481 -0.8070  0.0721  1.0311
 2183SOL    HW210081   3.161   0.469   2.488  0.2998  0.2690 -1.0662
 2184SOL     OW10082   8.895   1.765  10.804 -0.2661  0.6505 -0.1449
 2184SOL    HW110083   8.868   1.690  10.856 -1.1984 -2.1663 -4.1761
 2184SOL    HW210084   8.981   1.741  10.769  1.0468  3.1050  1.0861
 2185SOL     OW10085   2.376   7.692   0.622 -0.1614 -0.2666 -0.3825
 2185SOL    HW110086   2.394   7.703   0.715  0.3126 -0.6991 -0.4135
 2185SOL    HW210087   2.338   7.776   0.594 -0.0491 -0.0398  0.1376
 2186SOL     OW10088  10.067   9.565   2.144  0.4770 -0.2397 -0.0704
 2186SOL    HW110089  10.078   9.639   2.084  2.3229 -1.7989 -1.7816
 2186SOL    HW210090   9.992   9.589   2.198  1.3808  3.1642 -0.0903
 2187SOL     OW10091   6.999  10.727   5.652 -0.2405  0.2565  0.1224
 2187SOL    HW110092   7.010  10.662   5.583  0.5684  0.6637 -0.1401
 2187SOL    HW210093   7.074  10.785   5.644  0.0477  0.1313  1.5525
 2188SOL     OW10094   1.111   9.640   7.678 -0.3856  0.0622 -0.0056
 2188SOL    HW110095   1.170   9.585   7.626 -1.5205  0.2355 -1.5660
 2188SOL    HW210096   1.137   9.729   7.656  0.4338  0.1671  1.3145
 2189SOL     OW10097   0.803   4.302   4.534 -0.5654 -0.4987 -0.2561
 2189SOL    HW110098   0.787   4.315   4.441  0.4179 -1.7668 -0.6266
 2189SOL    HW210099   0.895   4.327   4.546 -1.2303  1.7864  0.8425
 2190SOL     OW10100   5.817   7.139   9.301  0.0936 -0.3235 -0.3247
 2190SOL    HW110101   5.894   7.161   9.249  1.0408  0.4181  1.2879
 2190SOL    HW210102   5.853   7.087   9.374 -0.7934  0.6822  0.8690
 2191SOL     OW10103   2.841   3.040   8.119  0.0669 -0.2684 -0.3493
 2191SOL    HW110104   2.935   3.055   8.110  0.3623 -2.1010 -0.6588
 2191SOL    HW210105   2.819   2.979   8.048 -1.3558  0.0982 -0.2564
 2192SOL     OW10106   4.891   5.019   8.539 -0.1849 -0.3074 -0.0095
 2192SOL    HW110107   4.962   5.014   8.475  1.0635 -0.6882  1.3506
 2192SOL    HW210108   4.814   4.984   8.493  0.3709  0.6053 -1.6766
 2193SOL     OW10109   1.420   0.222   8.418  0.0482 -0.0429  0.0622
 2193SOL    HW110110   1.404   0.254   8.330  0.0046  0.2595  0.1779
 2193SOL    HW210111   1.494   0.162   8.409 -1.0790 -1.4240 -0.4671
 2194SOL     OW10112  10.754   9.062   7.967  0.0493  0.5428  0.3935
 2194SOL    HW110113  10.826   9.086   8.025 -1.2040  1.4929  1.6059
 2194SOL    HW210114  10.731   8.973   7.993  0.4052  0.4462  0.3836
 2195SOL     OW10115   9.979   2.605   6.955  0.2117 -0.5137 -0.4288
 2195SOL    HW110116  10.050   2.553   6.993  0.3867  0.2162  0.2876
 2195SOL    HW210117   9.909   2.542   6.939  1.0377 -1.2664 -1.2316
 2196SOL     OW10118  10.174   1.152   9.420 -0.6606 -0.1768  0.3406
 2196SOL    HW110119  10.173   1.205   9.340  0.1377 -0.8615 -0.1471
 2196SOL    HW210120  10.165   1.062   9.389 -1.3564 -0.3892  1.1098
 2197SOL     OW10121   8.829   2.711  10.256  0.0845 -0.4328  0.0354
 2197SOL    HW110122   8.762   2.684  10.319  0.4290  0.5154  0.8388
 2197SOL    HW210123   8.887   2.635  10.248  0.7761 -0.1387  1.8785
 2198SOL     OW10124   2.529   9.595   0.060  0.6612 -0.2555  0.0387
 2198SOL    HW110125   2.580   9.673   0.037 -0.7133  0.8772  0.6534
 2198SOL    HW210126   2.564   9.567   0.144  1.9715 -1.0531 -0.7517
 2199SOL     OW10127   0.153   9.762   5.323  0.3088 -0.1597  0.0335
 2199SOL    HW110128   0.167   9.799   5.236 -0.2780 -2.9409 -1.3351
 2199SOL    HW210129   0.058   9.764   5.336  0.1857 -1.8535 -0.4305
 2200SOL     OW10130   4.303   1.259   7.000 -0.1525  0.4815  0.0580
 2200SOL    HW110131   4.380   1.285   7.050 -0.5352  1.4592  0.1647
 2200SOL    HW210132   4.334   1.252   6.910 -0.1612  2.0237 -0.0957
 2201SOL     OW10133   5.565   0.445   4.978  0.0003 -0.4197 -0.3449
 2201SOL    HW110134   5.470   0.430   4.974  0.2397 -2.3662  0.1987
 2201SOL    HW210135   5.602   0.360   5.001  1.8381  0.4878  0.2799
 2202SOL     OW10136   3.306   8.099   8.133  0.1553  0.0257 -0.0087
 2202SOL    HW110137   3.363   8.116   8.058 -1.6094 -2.7219 -2.1740
 2202SOL    HW210138   3.239   8.167   8.128  0.5410  0.3854 -0.3584
 2203SOL     OW10139   4.765   0.520   2.597 -0.2859 -0.8136  0.6127
 2203SOL    HW110140   4.685   0.478   2.565  0.7502 -0.6415 -2.6007
 2203SOL    HW210141   4.824   0.447   2.617 -0.2360 -0.9364  0.0361
 2204SOL     OW10142   9.092   2.045   5.626 -0.2973 -0.2387  0.6460
 2204SOL    HW110143   9.072   2.055   5.533 -1.9115 -0.8228  0.9183
 2204SOL    HW210144   9.188   2.046   5.630 -0.2034  1.5829 -0.8171
 2205SOL     OW10145   1.108   3.446   0.953 -0.0011 -0.3273  0.3586
 2205SOL    HW110146   1.032   3.414   1.002  1.1859 -0.1085  2.5080
 2205SOL    HW210147   1.097   3.541   0.950 -0.2968 -0.3787 -0.2078
 2206SOL     OW10148   2.439   9.668   5.456  0.5953  0.2749  0.0554
 2206SOL    HW110149   2.486   9.750   5.446  3.1092 -1.0111  0.3829
 2206SOL    HW210150   2.348   9.689   5.437  1.2802  2.9373 -0.6330
 2207SOL     OW10151  10.693   9.520   6.724  0.5924  0.2214 -0.3259
 2207SOL    HW110152  10.606   9.484   6.706 -0.0830  1.2344  0.7647
 2207SOL    HW210153  10.727   9.466   6.795  2.0658 -1.9421 -2.5129
 2208SOL     OW10154   0.445   8.477   5.579  0.3322 -0.0244 -0.6094
 2208SOL    HW110155   0.376   8.512   5.523 -1.1156 -1.7174  0.0278
 2208SOL    HW210156   0.513   8.449   5.518 -0.0371  0.5882 -1.3249
 2209SOL     OW10157  10.361   3.060   4.746  0.4713 -0.5473 -0.0127
 2209SOL    HW110158  10.394   3.102   4.667  1.1067  2.4862  1.7330
 2209SOL    HW210159  10.270   3.039   4.726  1.0935 -1.5280 -2.0890
 2210SOL     OW10160  10.421   2.661   0.481 -0.1836  0.3154 -0.3409
 2210SOL    HW110161  10.486   2.677   0.549 -0.4876  1.3424 -0.2736
 2210SOL    HW210162  10.440   2.727   0.414 -0.4261 -0.1319 -0.8566
 2211SOL     OW10163   3.423   9.879   9.313 -0.1001  0.6533  0.5010
 2211SOL    HW110164   3.419   9.975   9.307 -1.8407  0.7104  1.6881
 2211SOL    HW210165   3.341   9.850   9.273  0.6655 -0.4045 -0.3498
 2212SOL     OW10166   1.638   6.631   2.826 -0.0310 -0.6143 -0.0949
 2212SOL    HW110167   1.552   6.632   2.867  1.0087 -1.7221  2.3027
 2212SOL    HW210168   1.679   6.713   2.854 -0.1376 -0.2728 -0.9083
 2213SOL     OW10169   1.485   7.392   2.327 -0.1002 -0.4594 -0.0917
 2213SOL    HW110170   1.473   7.355   2.415  0.9817  0.3308  0.4183
 2213SOL    HW210171   1.448   7.326   2.268 -1.4730 -0.6948  0.9784
 2214SOL     OW10172   6.879   6.780   6.442  0.1321  0.4294 -0.2540
 2214SOL    HW110173   6.904   6.871   6.459  0.0152  0.0069  2.8044
 2214SOL    HW210174   6.783   6.782   6.436  0.1371  0.5444 -0.2861
 2215SOL     OW10175   1.657   9.830   6.821 -0.2726  0.6131  0.5469
 2215SOL    HW110176   1.653   9.734   6.816  1.4966  0.4565  1.2448
 2215SOL    HW210177   1.685   9.848   6.911  1.8170  1.6423 -0.2428
 2216SOL     OW10178   2.905   8.370   6.886 -0.1375 -0.3747  0.1112
 2216SOL    HW110179   2.826   8.422   6.876 -0.0690 -0.5755 -2.0201
 2216SOL    HW210180   2.975   8.434   6.901 -0.5604 -0.1486  1.1937
 2217SOL     OW10181   7.933   5.399   3.414  0.3381  0.4369  0.0729
 2217SOL    HW110182   7.854   5.429   3.369 -1.3042 -1.3539  1.5938
 2217SOL    HW210183   8.005   5.438   3.364 -1.4687  2.2079 -1.3293
 2218SOL     OW10184   8.491   6.036   9.679  0.0419 -0.0213  0.6815
 2218SOL    HW110185   8.448   6.113   9.643 -0.8785 -0.4541  0.8354
 2218SOL    HW210186   8.436   6.010   9.753  0.3300 -0.8325  0.6190
 2219SOL     OW10187   6.054   2.592   5.978  0.2453  0.8757 -0.1894
 2219SOL    HW110188   5.990   2.611   6.046  1.2811  1.2268  0.7163
 2219SOL    HW210189   6.049   2.666   5.918  1.8236  2.4108  1.4595
 2220SOL     OW10190   5.206   3.277   8.207 -0.0477  0.1564 -0.1596
 2220SOL    HW110191   5.135   3.251   8.149  1.7152 -1.0751 -1.9060
 2220SOL    HW210192   5.269   3.322   8.150  1.2899 -0.1660  0.9941
 2221SOL     OW10193  10.331   9.157   8.438 -0.4450 -0.3066 -0.6757
 2221SOL    HW110194  10.252   9.124   8.396 -0.0567 -0.9888 -0.8971
 2221SOL    HW210195  10.380   9.078   8.461 -0.6845  0.0445  1.1590
 2222SOL     OW10196   8.961   3.253   3.729  0.2658  0.3198 -0.9893
 2222SOL    HW110197   8.908   3.311   3.782 -0.1571 -1.0178  0.1180
 2222SOL    HW210198   8.936   3.165   3.756  2.4137 -0.3882 -1.0424
 2223SOL     OW10199   4.522   3.031   5.868  0.3611  0.1833 -0.1174
 2223SOL    HW110200   4.480   2.960   5.917  3.2833  0.6693  3.4712
 2223SOL    HW210201   4.556   2.989   5.789 -0.1395 -1.8388  0.6863
 2224SOL     OW10202   9.312   3.154   9.251 -0.0276 -0.4525 -0.2421
 2224SOL    HW110203   9.298   3.147   9.157  0.6633 -0.1928 -0.3646
 2224SOL    HW210204   9.317   3.248   9.268  0.3474 -0.5094 -0.0235
 2225SOL     OW10205   2.100   8.449   8.069  0.0465 -0.5356 -0.0591
 2225SOL    HW110206   2.134   8.536   8.090 -1.4621 -0.1866  1.1558
 2225SOL    HW210207   2.169   8.407   8.017  0.2336  1.9041 -1.9696
 2226SOL     OW10208   0.211   5.459   8.755 -0.1561  0.1150  0.2083
 2226SOL    HW110209   0.224   5.552   8.772  0.4966 -0.1504  1.2463
 2226SOL    HW210210   0.117   5.445   8.763 -0.3613  0.8390 -0.8111
 2227SOL     OW10211   6.719   6.900   8.834  0.0873 -0.2151 -0.0111
 2227SOL    HW110212   6.773   6.977   8.817  0.5367 -0.9534 -2.3110
 2227SOL    HW210213   6.748   6.835   8.769  0.2938 -2.6477  2.3318
 2228SOL     OW10214   3.058   3.859   5.990  0.3417  0.1997  0.7272
 2228SOL    HW110215   2.987   3.795   5.997 -0.9050  1.3867 -0.4036
 2228SOL    HW210216   3.067   3.895   6.078 -0.3655 -0.0559  0.9093
 2229SOL     OW10217   1.801   5.739   3.647  0.0135 -0.4214  0.4450
 2229SOL    HW110218   1.752   5.795   3.587 -1.0709 -1.1797  0.5880
 2229SOL    HW210219   1.827   5.798   3.719  1.5938  0.5615 -0.8595
 2230SOL     OW10220   1.477   4.542   4.455 -0.1243  0.0833  0.2793
 2230SOL    HW110221   1.564   4.561   4.421  0.3708 -0.9580  0.9160
 2230SOL    HW210222   1.433   4.627   4.457  1.3074  0.8501  1.1405
 2231SOL     OW10223   8.767   3.295  10.691  0.3408 -0.2665 -0.0511
 2231SOL    HW110224   8.851   3.309  10.735 -0.2636 -0.9501  1.3793
 2231SOL    HW210225   8.742   3.205  10.714 -0.7004 -0.1407 -0.6015
 2232SOL     OW10226   4.632   4.472   5.237 -0.0716 -0.6498  0.1365
 2232SOL    HW110227   4.554   4.504   5.192  0.2260  0.5788  0.4318
 2232SOL    HW210228   4.599   4.428   5.315 -0.4952 -0.8468 -0.1537
 2233SOL     OW10229  10.767   8.697   5.180 -0.2266 -0.3536  0.0447
 2233SOL    HW110230  10.749   8.790   5.194 -2.8118 -0.8345  0.4615
 2233SOL    HW210231  10.724   8.653   5.253 -0.7714 -1.9933 -1.2146
 2234SOL     OW10232   8.062   9.008   9.341  1.0200 -0.0800 -0.1541
 2234SOL    HW110233   8.129   8.944   9.316  1.0041 -0.4991  0.8379
 2234SOL    HW210234   8.078   9.024   9.434 -0.7497 -0.7717  0.3067
 2235SOL     OW10235   1.901  10.371   6.869 -0.4588  0.1039 -0.0507
 2235SOL    HW110236   1.913  10.408   6.957  0.6633 -0.7234  0.1733
 2235SOL    HW210237   1.906  10.276   6.882  0.7527 -0.0031 -1.1385
 2236SOL     OW10238   8.872   9.642   7.841  0.1900 -0.4227 -0.1582
 2236SOL    HW110239   8.806   9.612   7.779 -2.3689  0.0567  2.1563
 2236SOL    HW210240   8.870   9.738   7.835  0.5124 -0.3965  0.0916
 2237SOL     OW10241  11.069   3.311   2.564 -0.3884  0.3661  0.3903
 2237SOL    HW110242  11.080   3.220   2.590  1.1390  0.8483  1.5764
 2237SOL    HW210243  11.052   3.307   2.470 -1.6962 -1.1919  0.6461
 2238SOL     OW10244   9.993   2.055   5.827 -0.5504  0.4897 -0.5113
 2238SOL    HW110245  10.026   2.142   5.806  0.5922  0.1658 -0.0977
 2238SOL    HW210246   9.990   2.053   5.923 -0.5600  0.0678 -0.5189
 2239SOL     OW10247  10.215  11.057   1.650 -0.3960 -0.0759  0.2561
 2239SOL    HW110248  10.169  11.081   1.569  1.6090 -0.6577 -1.1399
 2239SOL    HW210249  10.284  10.997   1.621  0.6807  0.0630  2.3459
 2240SOL     OW10250   3.530   9.901   1.153  0.4015 -0.3760  0.4225
 2240SOL    HW110251   3.588   9.867   1.222  0.4100 -0.5412  0.3352
 2240SOL    HW210252   3.459   9.837   1.148  0.5912 -0.5617  0.0268
 2241SOL     OW10253  10.003  11.093   9.968 -0.5802 -0.3316  0.8625
 2241SOL    HW110254   9.973  11.019   9.916 -0.6759 -0.4434  1.0767
 2241SOL    HW210255  10.003  11.061  10.058 -0.2045 -0.2092  0.9117
 2242SOL     OW10256   8.103   0.182   4.000 -0.0459  0.2399  0.2265
 2242SOL    HW110257   8.134   0.108   4.052  0.3417  0.9897  1.0828
 2242SOL    HW210258   8.040   0.226   4.056  0.4667  1.1309  0.1190
 2243SOL     OW10259   6.391   9.729   2.735  0.1948  0.2450  0.3122
 2243SOL    HW110260   6.394   9.651   2.679 -0.1304  1.3568 -1.3307
 2243SOL    HW210261   6.481   9.760   2.739  0.5597 -0.8756  2.0336
 2244SOL     OW10262   8.163  11.031   1.684  0.1639 -0.5556 -0.2074
 2244SOL    HW110263   8.068  11.033   1.697  0.2822 -0.1886  0.6527
 2244SOL    HW210264   8.195  11.111   1.726  0.8666 -0.7045 -0.4448
 2245SOL     OW10265   4.959   8.409   6.266  0.2467 -0.1800 -0.4237
 2245SOL    HW110266   4.894   8.378   6.203 -0.0256  0.0302 -0.2516
 2245SOL    HW210267   4.927   8.495   6.293  0.1722 -0.4084  0.2557
 2246SOL     OW10268   6.088   0.303   5.163 -0.1446  0.1924 -0.1363
 2246SOL    HW110269   6.014   0.337   5.113 -1.2346  1.4042  2.1378
 2246SOL    HW210270   6.074   0.208   5.167 -1.9648  0.4647  0.7710
 2247SOL     OW10271   6.995   1.789   7.171  0.0289  0.5522 -0.2862
 2247SOL    HW110272   7.089   1.803   7.173  0.5026 -2.1683  1.1661
 2247SOL    HW210273   6.959   1.851   7.234  1.0185  0.6174  0.2253
 2248SOL     OW10274   2.797   7.624  10.040 -0.0644  0.2169  0.0662
 2248SOL    HW110275   2.801   7.703   9.987  0.2348 -0.4781 -0.9590
 2248SOL    HW210276   2.752   7.651  10.120 -0.7995  1.1997 -0.6709
 2249SOL     OW10277   9.184   6.589   7.991 -0.2221 -0.1257 -0.8036
 2249SOL    HW110278   9.241   6.524   8.031  0.5404  0.7908 -0.3502
 2249SOL    HW210279   9.110   6.539   7.956 -0.8391 -1.0011  1.5862
 2250SOL     OW10280   7.557  10.979  10.085  0.5444  0.0934 -0.0533
 2250SOL    HW110281   7.506  10.913  10.131  0.7366 -0.8767 -1.1976
 2250SOL    HW210282   7.543  10.961   9.992  0.9410  1.3989 -0.4015
 2251SOL     OW10283   6.147  10.760   4.775  0.3042  0.4415  0.2031
 2251SOL    HW110284   6.176  10.816   4.847 -2.3555  1.1729  0.8196
 2251SOL    HW210285   6.141  10.819   4.700 -3.1014  1.3055  0.9978
 2252SOL     OW10286   3.625   2.860   4.319  0.2327  0.9220  0.0008
 2252SOL    HW110287   3.646   2.855   4.412 -0.0946  1.0557  0.0800
 2252SOL    HW210288   3.705   2.894   4.278 -0.1711  2.4431  0.4332
 2253SOL     OW10289  10.868   6.728   7.058 -0.0755  0.0283  1.1787
 2253SOL    HW110290  10.948   6.711   7.008 -1.4632  0.2936 -1.3042
 2253SOL    HW210291  10.801   6.674   7.015 -1.6348  1.2834  1.9177
 2254SOL     OW10292   4.419  10.945   0.683  0.2122 -0.2687  0.2042
 2254SOL    HW110293   4.434  10.982   0.770  0.0437  0.9279 -0.2610
 2254SOL    HW210294   4.506  10.915   0.655  0.4021 -0.0031  0.4986
 2255SOL     OW10295   2.499   8.826   8.489 -0.3370 -0.7882 -0.2029
 2255SOL    HW110296   2.431   8.839   8.556  0.5221  0.8544  0.4220
 2255SOL    HW210297   2.556   8.759   8.526 -0.8634 -1.2082 -0.1297
 2256SOL     OW10298  10.696   1.546   8.583 -0.5692 -0.3105 -0.1863
 2256SOL    HW110299  10.676   1.524   8.674 -1.2168  0.2152 -0.1941
 2256SOL    HW210300  10.792   1.542   8.578 -0.5861 -1.6707  0.1682
 2257SOL     OW10301   4.004   8.497   1.952 -0.0109  0.1903  0.2295
 2257SOL    HW110302   4.035   8.408   1.935  0.6424  0.4818 -0.1457
 2257SOL    HW210303   4.045   8.521   2.036 -0.3924  0.0520  0.4607
 2258SOL     OW10304   8.134   5.253   3.240 -0.5409 -0.3955  0.3200
 2258SOL    HW110305   8.072   5.237   3.169 -0.3551 -0.8118  0.2509
 2258SOL    HW210306   8.172   5.339   3.219  0.1484 -0.9028 -0.5658
 2259SOL     OW10307  11.022   3.017   8.829  0.2177 -0.6466 -0.7614
 2259SOL    HW110308  10.974   3.088   8.787  0.5255 -0.3874 -0.6760
 2259SOL    HW210309  11.008   3.031   8.923 -0.8225 -1.4667 -0.7692
 2260SOL     OW10310   4.274   4.602  10.519 -0.1735 -0.1046 -0.6147
 2260SOL    HW110311   4.198   4.650  10.551  0.2025 -0.5836  1.0758
 2260SOL    HW210312   4.345   4.626  10.579  1.0195  0.2592 -2.0907
 2261SOL     OW10313   5.410   6.911   6.664 -0.6364 -0.7003  0.2887
 2261SOL    HW110314   5.487   6.965   6.681 -1.0334  0.1556 -0.5778
 2261SOL    HW210315   5.335   6.969   6.675 -1.0742 -1.0475 -0.6562
 2262SOL     OW10316   0.779   3.617   8.356 -0.4499  0.8067 -0.2967
 2262SOL    HW110317   0.687   3.619   8.381  0.0256  2.1161  1.5739
 2262SOL    HW210318   0.811   3.533   8.387 -0.7317  0.8808  0.1947
 2263SOL     OW10319   5.226  10.997   5.501 -0.6719  0.4526 -0.1897
 2263SOL    HW110320   5.153  10.935   5.505  1.1273 -1.7248  1.3716
 2263SOL    HW210321   5.297  10.954   5.548  1.8351  2.2527 -2.0453
 2264SOL     OW10322   9.715   6.099   1.645  0.6227 -0.6098 -0.0052
 2264SOL    HW110323   9.748   6.164   1.583 -1.1445  0.5925  0.2500
 2264SOL    HW210324   9.637   6.062   1.603 -1.6229  1.4352  2.0685
 2265SOL     OW10325   5.337   7.582   3.620  0.2596 -0.3188  0.3878
 2265SOL    HW110326   5.283   7.547   3.549 -0.0436  3.4268 -1.4084
 2265SOL    HW210327   5.408   7.628   3.577  1.6413 -0.1959  2.6272
 2266SOL     OW10328   8.952   8.175   4.907  0.4967  0.2522 -0.4945
 2266SOL    HW110329   9.004   8.224   4.970  1.5508 -0.6001 -0.6847
 2266SOL    HW210330   8.973   8.084   4.924 -0.3250 -0.0659 -1.1231
 2267SOL     OW10331   0.637   3.401   4.434  0.0377 -0.9460  0.3650
 2267SOL    HW110332   0.655   3.416   4.341  0.7824  0.3212  0.6777
 2267SOL    HW210333   0.698   3.460   4.479  0.3221 -2.1877  1.6798
 2268SOL     OW10334   2.902   7.646   2.422 -0.5819  0.3049  0.5289
 2268SOL    HW110335   2.816   7.663   2.383  0.1168  1.6807 -0.4742
 2268SOL    HW210336   2.915   7.717   2.484 -0.0403  0.2551  0.4738
 2269SOL     OW10337  10.756   9.198   0.421 -0.5539 -0.2616  0.2041
 2269SOL    HW110338  10.789   9.165   0.338  1.8325 -0.4485  1.1629
 2269SOL    HW210339  10.738   9.120   0.473 -2.5812 -0.1661 -0.2463
 2270SOL     OW10340   4.238   7.686   1.393  0.3725  0.0249 -0.0323
 2270SOL    HW110341   4.238   7.742   1.316 -0.0868  0.1020  0.0179
 2270SOL    HW210342   4.161   7.714   1.443 -0.9468 -1.8417 -0.8827
 2271SOL     OW10343   0.554  10.352  10.000 -0.1159 -0.1702  0.0728
 2271SOL    HW110344   0.516  10.428   9.957 -0.3200 -0.6087 -0.5423
 2271SOL    HW210345   0.480  10.293  10.013  0.1170 -0.4523  0.1314
 2272SOL     OW10346   0.859   3.134   8.877 -0.1466 -0.0411  0.4534
 2272SOL    HW110347   0.861   3.071   8.949  2.4712  1.2363  1.6408
 2272SOL    HW210348   0.916   3.095   8.810  2.3513  1.3611  1.6160
 2273SOL     OW10349   3.702   3.051   1.844  0.1245 -0.1579  0.0456
 2273SOL    HW110350   3.609   3.053   1.819  0.0671  0.7498  0.2826
 2273SOL    HW210351   3.701   3.027   1.937  0.1916 -1.0943 -0.1877
 2274SOL     OW10352   1.942   6.579   4.783 -0.2601 -0.1958  0.4617
 2274SOL    HW110353   1.871   6.523   4.814 -0.5416 -0.8990 -1.3479
 2274SOL    HW210354   1.919   6.667   4.815 -1.5299 -0.5486  0.5720
 2275SOL     OW10355   4.550   4.430   7.392  0.9336 -0.3358 -0.8656
 2275SOL    HW110356   4.501   4.496   7.342  1.5851  0.9070  0.0807
 2275SOL    HW210357   4.552   4.464   7.481  2.5138 -0.9337 -0.6445
 2276SOL     OW10358   0.852   9.577   1.403 -0.3782  0.5348 -0.2269
 2276SOL    HW110359   0.868   9.532   1.320 -1.0090  1.0933 -0.6661
 2276SOL    HW210360   0.760   9.559   1.423 -0.7531  1.8902 -0.5999
 2277SOL     OW10361   5.260   5.446  10.555 -1.2144 -0.1279  0.3071
 2277SOL    HW110362   5.273   5.506  10.629  3.8342 -0.5841  0.1525
 2277SOL    HW210363   5.274   5.501  10.478  0.2178 -0.8203  0.0434
 2278SOL     OW10364   0.398   0.610   1.157 -0.0148 -0.7906 -0.1791
 2278SOL    HW110365   0.494   0.614   1.149 -0.0765  0.8703 -0.3781
 2278SOL    HW210366   0.380   0.519   1.182  1.8069 -0.5198  2.5819
 2279SOL     OW10367   4.231   8.547   4.629  0.5168 -0.5106 -0.6675
 2279SOL    HW110368   4.171   8.609   4.671  2.9240  0.7483  1.2122
 2279SOL    HW210369   4.175   8.474   4.601 -1.9327  0.8439  0.3595
 2280SOL     OW10370  10.235  10.596   5.798 -0.0932  0.5412 -0.5254
 2280SOL    HW110371  10.230  10.527   5.731 -0.7663 -0.7547  0.7839
 2280SOL    HW210372  10.234  10.678   5.749  0.5641 -0.3736 -2.1388
 2281SOL     OW10373   0.779   0.161   5.996  0.0934  0.2703 -0.2509
 2281SOL    HW110374   0.713   0.201   6.053  1.2326 -0.1528  1.4203
 2281SOL    HW210375   0.860   0.163   6.047  0.9387 -1.0532 -1.4611
 2282SOL     OW10376   8.876   4.424  10.860 -0.0789 -0.2011 -0.4279
 2282SOL    HW110377   8.891   4.332  10.841  0.4108  0.0018 -1.0743
 2282SOL    HW210378   8.913   4.437  10.947 -0.6503 -0.7308 -0.0941
 2283SOL     OW10379   6.011   4.520   5.102  0.2825  0.0840  0.3650
 2283SOL    HW110380   6.090   4.505   5.049  0.7778  0.3641  1.0107
 2283SOL    HW210381   6.034   4.485   5.188 -0.5827 -0.5415  0.3502
 2284SOL     OW10382   0.792   9.681   6.135 -0.5204  0.3179 -0.2795
 2284SOL    HW110383   0.780   9.746   6.066 -1.9044  0.2463 -0.1397
 2284SOL    HW210384   0.797   9.733   6.216 -0.1915  0.3361 -0.3133
 2285SOL     OW10385   5.275   4.940   7.258 -0.4659 -0.1101  0.5812
 2285SOL    HW110386   5.366   4.967   7.265 -0.4466 -0.1851  0.6139
 2285SOL    HW210387   5.229   5.019   7.228 -0.4444  0.0212  0.8923
 2286SOL     OW10388  10.068   5.430   9.151  0.1021  0.4242 -0.4384
 2286SOL    HW110389   9.985   5.425   9.103 -0.2461  0.3987  0.1473
 2286SOL    HW210390  10.134   5.447   9.084 -0.0484 -1.8275 -1.2586
 2287SOL     OW10391  11.026   5.996   3.282  0.7751  0.0716  0.1555
 2287SOL    HW110392  11.121   6.003   3.280  0.9126 -1.4095  0.2496
 2287SOL    HW210393  11.009   5.901   3.285 -0.6346  0.3229  2.1692
 2288SOL     OW10394   2.488   3.486   1.525  0.3560  0.5237 -0.6088
 2288SOL    HW110395   2.430   3.412   1.510 -0.0509  0.9947 -1.4251
 2288SOL    HW210396   2.576   3.448   1.522  0.1225 -0.0943  0.0408
 2289SOL     OW10397   3.593   5.954   2.767 -0.6041 -0.0490  0.4323
 2289SOL    HW110398   3.516   5.921   2.721 -0.0475 -1.5353  0.4949
 2289SOL    HW210399   3.584   5.919   2.856  0.4997 -0.8733  0.2362
 2290SOL     OW10400   8.233   5.174   9.244 -0.0833  0.5119 -0.6742
 2290SOL    HW110401   8.305   5.153   9.304 -1.2111 -1.0995  0.1954
 2290SOL    HW210402   8.201   5.089   9.214 -1.2407  1.2171 -1.5231
 2291SOL     OW10403   2.058   0.851   3.608  0.3813 -0.1581 -0.4952
 2291SOL    HW110404   2.142   0.882   3.643 -0.1093  0.7517 -0.1049
 2291SOL    HW210405   2.026   0.790   3.675 -0.5175  1.5205  0.6578
 2292SOL     OW10406   2.320   1.800   3.461  0.2459 -0.3317  0.0989
 2292SOL    HW110407   2.260   1.749   3.516  0.4301 -0.3259  0.3077
 2292SOL    HW210408   2.356   1.866   3.521 -0.6905  0.6480 -0.3762
 2293SOL     OW10409   1.561   5.777   6.357 -0.0932 -0.3486 -0.4579
 2293SOL    HW110410   1.564   5.824   6.274  1.1821 -0.6039 -0.5757
 2293SOL    HW210411   1.638   5.719   6.355 -0.2368 -0.6166  0.7430
 2294SOL     OW10412   7.840   1.296   2.282  0.0756  0.4199  0.0701
 2294SOL    HW110413   7.927   1.301   2.244 -0.8366  0.9548 -2.0623
 2294SOL    HW210414   7.808   1.386   2.280 -1.3893 -0.0886 -1.3779
 2295SOL     OW10415   9.803   1.478   0.698 -0.2564 -0.5435 -0.3868
 2295SOL    HW110416   9.892   1.511   0.683 -0.1075 -0.2552  0.9961
 2295SOL    HW210417   9.746   1.546   0.662  0.0564 -1.0476 -1.9179
 2296SOL     OW10418   1.634   7.240   7.912  0.9275 -0.2184  0.3415
 2296SOL    HW110419   1.646   7.335   7.918  1.7168 -0.3490  0.9362
 2296SOL    HW210420   1.586   7.217   7.992  2.0854 -0.5146  0.9767
 2297SOL     OW10421   6.555   8.335   7.813 -0.3513 -0.4561 -0.4725
 2297SOL    HW110422   6.476   8.281   7.812 -0.4778 -0.2633 -1.2189
 2297SOL    HW210423   6.585   8.332   7.904 -0.8826 -1.0151 -0.3116
 2298SOL     OW10424  10.634   6.414   0.676 -0.4064 -0.0422  0.2635
 2298SOL    HW110425  10.589   6.367   0.606  0.6840  0.5835 -0.9011
 2298SOL    HW210426  10.694   6.350   0.714 -2.0803 -0.8278  1.7054
 2299SOL     OW10427  10.115   5.324   2.845  0.3142  0.1492 -0.0745
 2299SOL    HW110428  10.132   5.412   2.878  2.6469  0.5890 -2.1550
 2299SOL    HW210429  10.144   5.266   2.915 -0.2876  1.0034  0.9136
 2300SOL     OW10430   8.011   9.283   4.326  0.2553  0.1778  0.4910
 2300SOL    HW110431   7.943   9.241   4.379 -0.0774 -0.0622 -0.1039
 2300SOL    HW210432   8.043   9.213   4.269  0.0611  0.5951 -0.1498
 2301SOL     OW10433   5.039  10.980   5.046  0.4002 -0.5208 -0.5933
 2301SOL    HW110434   5.100  11.046   5.013  0.8182  0.0195  1.1342
 2301SOL    HW210435   4.954  11.005   5.010  0.8703 -0.1577 -1.4820
 2302SOL     OW10436   0.012   2.816   8.130  0.6736 -0.2965  0.2658
 2302SOL    HW110437   0.080   2.760   8.094 -0.1654 -2.7356  2.2293
 2302SOL    HW210438  -0.069   2.765   8.121 -0.3243  1.0299  1.1933
 2303SOL     OW10439   5.280  10.134   1.399 -0.2296 -0.3880  0.1123
 2303SOL    HW110440   5.222  10.194   1.445 -1.0253 -0.8043 -0.3401
 2303SOL    HW210441   5.282  10.165   1.309 -0.6727 -1.0541 -0.1333
 2304SOL     OW10442   9.989   3.656   0.793 -0.5103 -0.0515 -0.2269
 2304SOL    HW110443   9.930   3.600   0.743  0.7100 -1.3973 -0.2273
 2304SOL    HW210444   9.950   3.660   0.880 -0.7070 -0.7800 -0.2765
 2305SOL     OW10445   6.396  10.146   9.004  1.0615  0.6374  0.6510
 2305SOL    HW110446   6.331  10.189   9.059 -0.1376  1.0634 -1.0375
 2305SOL    HW210447   6.345  10.092   8.944  2.1983  1.5732 -1.2304
 2306SOL     OW10448   1.988   0.408   2.831 -0.5003 -0.3835 -0.5265
 2306SOL    HW110449   2.048   0.356   2.885  1.9090  1.7694 -0.9501
 2306SOL    HW210450   1.957   0.477   2.889  0.4119  0.6834 -1.2661
 2307SOL     OW10451   5.339   1.127   9.971  0.7548 -0.2707 -0.6851
 2307SOL    HW110452   5.336   1.034   9.948  0.0483 -0.4801  0.1836
 2307SOL    HW210453   5.247   1.154   9.973  0.9906  0.7585 -2.0716
 2308SOL     OW10454   7.246   7.144   7.289  0.5228 -0.3495  0.1205
 2308SOL    HW110455   7.264   7.234   7.265  0.3069 -0.5164 -0.7076
 2308SOL    HW210456   7.185   7.150   7.363 -1.1127  0.2006 -1.1977
 2309SOL     OW10457   5.207   1.242   5.964  0.3211  0.2211 -0.5436
 2309SOL    HW110458   5.131   1.276   6.012  0.1187  0.6500 -1.1561
 2309SOL    HW210459   5.221   1.155   6.001 -0.7007 -0.0193 -0.6828
 2310SOL     OW10460   0.513   1.148   3.982 -0.0882  0.0310  0.5378
 2310SOL    HW110461   0.457   1.146   3.904  1.7734 -0.1230 -0.8859
 2310SOL    HW210462   0.525   1.241   4.002 -0.2785  0.0849  0.3953
 2311SOL     OW10463   6.439   8.495  10.714  0.2218  0.3074 -0.1761
 2311SOL    HW110464   6.479   8.581  10.703 -0.7701  0.8696  0.4958
 2311SOL    HW210465   6.453   8.473  10.805 -0.7869  0.4267  0.0243
 2312SOL     OW10466  10.092   2.318   1.778  0.7156 -0.2285  0.3739
 2312SOL    HW110467  10.028   2.255   1.745 -0.6501 -0.6260  3.4475
 2312SOL    HW210468  10.176   2.274   1.767 -0.1165 -2.2833  1.5874
 2313SOL     OW10469   4.944   7.023   1.849  0.3852  0.1822 -0.5626
 2313SOL    HW110470   4.867   7.069   1.884  1.1681 -0.2289  1.8642
 2313SOL    HW210471   5.013   7.090   1.847  1.2248 -0.5312  1.9190
 2314SOL     OW10472   5.798   4.960   5.232 -0.5506  0.4980 -0.0796
 2314SOL    HW110473   5.881   4.920   5.206  1.5440  3.9093  0.6401
 2314SOL    HW210474   5.731   4.905   5.192  2.0043 -2.4195 -0.7696
 2315SOL     OW10475   2.310   1.499   3.200  0.1887  0.5949  0.0495
 2315SOL    HW110476   2.374   1.545   3.254 -0.5612 -0.8286  2.2992
 2315SOL    HW210477   2.343   1.409   3.194 -0.9071  0.1662  0.1124
 2316SOL     OW10478   3.252   6.714   1.485  0.0908 -0.0950 -0.1235
 2316SOL    HW110479   3.174   6.752   1.525 -0.8173 -0.0980 -1.8191
 2316SOL    HW210480   3.220   6.638   1.437  1.0043  0.3674 -1.5122
 2317SOL     OW10481   0.109   8.736   9.259  0.1481 -0.4980  0.0160
 2317SOL    HW110482   0.109   8.667   9.326 -1.1529 -1.0617 -0.5279
 2317SOL    HW210483   0.018   8.741   9.231  0.5155  0.3797 -1.0573
 2318SOL     OW10484   9.084   5.538   9.617 -0.1628  0.6893 -0.0363
 2318SOL    HW110485   9.055   5.461   9.568  0.0989 -0.0884  1.0158
 2318SOL    HW210486   9.057   5.612   9.562  0.2033 -0.1516 -1.3948
 2319SOL     OW10487   7.970  10.676   9.754  0.3517  0.2250 -0.0395
 2319SOL    HW110488   7.987  10.583   9.769 -0.0241  0.0781 -0.4887
 2319SOL    HW210489   7.884  10.678   9.713 -2.1241  1.1140  4.5636
 2320SOL     OW10490  11.116   0.129   3.027 -0.0078 -0.1698  0.4302
 2320SOL    HW110491  11.086   0.219   3.038 -1.4355 -0.6242  0.3986
 2320SOL    HW210492  11.089   0.105   2.939  0.1388 -0.7261  0.5330
 2321SOL     OW10493  10.424  10.126  10.852 -0.4158 -0.0555 -0.1705
 2321SOL    HW110494  10.390  10.167  10.773 -0.7594  0.7480  0.3760
 2321SOL    HW210495  10.407  10.190  10.921  2.5212  0.5345  0.1141
 2322SOL     OW10496   4.198   9.411   6.795  0.4230  0.5197  0.0166
 2322SOL    HW110497   4.208   9.361   6.875 -2.4462 -1.5915 -0.7694
 2322SOL    HW210498   4.134   9.480   6.816  1.2403  1.2823  0.0478
 2323SOL     OW10499   4.716   1.845  10.979 -0.2850  0.0849  0.7920
 2323SOL    HW110500   4.669   1.896  10.913  1.0451  1.7515  1.0392
 2323SOL    HW210501   4.716   1.756  10.946 -2.6902  0.2157  0.3116
 2324SOL     OW10502   9.826   6.828   8.662  0.0630  0.0063  0.2351
 2324SOL    HW110503   9.749   6.793   8.706  0.5278 -0.1789  0.9143
 2324SOL    HW210504   9.828   6.921   8.687 -0.4352  0.2303 -0.5129
 2325SOL     OW10505   8.561   9.247  10.492  0.2424 -0.7306  0.7188
 2325SOL    HW110506   8.620   9.224  10.421 -0.4093 -3.1122  0.8602
 2325SOL    HW210507   8.619   9.271  10.565  0.9398 -0.1557 -0.0144
 2326SOL     OW10508   8.769  10.590   6.938 -0.0672  0.4020  0.0005
 2326SOL    HW110509   8.734  10.558   7.021 -1.6431  2.0235  0.0004
 2326SOL    HW210510   8.787  10.510   6.888 -2.2101 -0.5752  0.6634
 2327SOL     OW10511   4.231   6.630   0.492 -0.2376  0.0753 -0.6942
 2327SOL    HW110512   4.195   6.717   0.475 -1.5104 -0.4058 -0.5479
 2327SOL    HW210513   4.325   6.644   0.497 -0.3513  1.3008 -1.5564
 2328SOL     OW10514   4.938  10.275  10.490 -0.6376  0.4754  0.5483
 2328SOL    HW110515   4.889  10.314  10.418 -2.5986  1.4948  2.3060
 2328SOL    HW210516   5.029  10.304  10.476 -0.6036 -0.7116 -2.3158
 2329SOL     OW10517  10.387   2.563   5.648  0.3163 -0.0060 -0.3426
 2329SOL    HW110518  10.461   2.622   5.666  1.0882 -1.0005 -0.1897
 2329SOL    HW210519  10.427   2.488   5.604 -0.8883  0.3037 -2.0730
 2330SOL     OW10520   7.988   7.767   1.027  0.1457 -0.0792 -0.2092
 2330SOL    HW110521   8.062   7.739   0.972 -1.0731 -1.6583 -1.1197
 2330SOL    HW210522   8.029   7.796   1.109  1.7592 -1.6148 -0.3994
 2331SOL     OW10523   6.551   3.083  10.735  0.1393  0.1614  0.1731
 2331SOL    HW110524   6.629   3.138  10.743  0.9330 -1.0006  0.7506
 2331SOL    HW210525   6.543   3.066  10.641  1.5893 -1.0614  0.2355
 2332SOL     OW10526   4.686   2.135  10.344 -0.8027 -0.0235  1.1451
 2332SOL    HW110527   4.777   2.115  10.324 -0.8425  0.1153  0.8243
 2332SOL    HW210528   4.688   2.223  10.383 -1.0479  1.0739 -1.1383
 2333SOL     OW10529  10.447   1.184   4.002 -0.1238  0.0663 -0.1060
 2333SOL    HW110530  10.513   1.210   4.066 -0.2785  1.3893 -0.4479
 2333SOL    HW210531  10.496   1.152   3.927  0.0798 -0.5335  0.2778
 2334SOL     OW10532   1.121  10.802  10.846  0.3833 -0.0966  0.3812
 2334SOL    HW110533   1.150  10.740  10.778  2.1617  0.2950  0.7432
 2334SOL    HW210534   1.028  10.781  10.858 -0.1217  0.0957 -2.4420
 2335SOL     OW10535   2.113   3.265   3.080  0.5213  0.3387 -0.3705
 2335SOL    HW110536   2.071   3.179   3.082  1.1731  0.0068 -0.7381
 2335SOL    HW210537   2.125   3.284   2.987  2.5993 -0.2969 -0.2858
 2336SOL     OW10538   2.621   5.484   6.191 -0.2296 -0.2399 -0.3237
 2336SOL    HW110539   2.535   5.526   6.185 -0.6985 -1.1639 -0.2370
 2336SOL    HW210540   2.629   5.433   6.111  0.2753 -0.1009 -0.3672
 2337SOL     OW10541   9.938   1.821   2.395 -0.4595  0.6995  0.0191
 2337SOL    HW110542   9.845   1.835   2.410 -0.4749  0.9224 -0.2753
 2337SOL    HW210543   9.946   1.728   2.376 -0.6757  0.7575 -0.3539
 2338SOL     OW10544   6.527  10.320   8.857 -0.7650 -0.0535  0.4090
 2338SOL    HW110545   6.482  10.253   8.908  0.8806 -0.4455  1.4378
 2338SOL    HW210546   6.540  10.279   8.771  0.3919 -1.1701  1.0835
 2339SOL     OW10547  10.204   6.986   8.249 -0.2906 -0.5895  0.2260
 2339SOL    HW110548  10.113   7.007   8.272 -0.1163 -0.6495  0.9943
 2339SOL    HW210549  10.226   6.913   8.306 -0.4479 -2.0094 -1.4662
 2340SOL     OW10550   5.175   9.996   5.875  0.2941  0.2257 -0.4006
 2340SOL    HW110551   5.213   9.969   5.958 -0.5101  0.6928  0.1338
 2340SOL    HW210552   5.109  10.061   5.899  0.3369  0.6739 -1.4377
 2341SOL     OW10553   4.811   6.558   4.325  0.0449 -0.0933  0.3702
 2341SOL    HW110554   4.739   6.590   4.379 -1.7329 -0.0510 -1.8617
 2341SOL    HW210555   4.796   6.463   4.319  0.6984 -0.2179  0.5638
 2342SOL     OW10556   3.650   0.958   6.118 -0.0613 -0.0150  0.2303
 2342SOL    HW110557   3.592   0.918   6.182 -1.2222 -0.2449 -0.9120
 2342SOL    HW210558   3.724   0.898   6.112 -1.5661 -1.8636 -1.1321
 2343SOL     OW10559   7.146   7.501   2.124  0.2902  0.5578  0.0994
 2343SOL    HW110560   7.113   7.511   2.213  0.6340  0.7950  0.2040
 2343SOL    HW210561   7.200   7.422   2.127 -1.1886 -0.4935 -0.3538
 2344SOL     OW10562   3.139   7.887   2.112 -0.4894 -0.4571 -0.0640
 2344SOL    HW110563   3.113   7.976   2.088 -0.2644 -0.1580  0.7671
 2344SOL    HW210564   3.067   7.855   2.166 -1.0316 -1.1524 -1.1776
 2345SOL     OW10565   3.192   7.703  10.273 -0.3709  0.1941 -0.1909
 2345SOL    HW110566   3.169   7.790  10.308  1.3503  1.4336 -1.9242
 2345SOL    HW210567   3.241   7.661  10.344 -1.6867  0.3715  0.8727
 2346SOL     OW10568   8.407   6.334   1.481  0.4448 -0.8920  0.3442
 2346SOL    HW110569   8.408   6.367   1.391 -2.7071 -1.4530 -0.0301
 2346SOL    HW210570   8.482   6.375   1.523  1.9833 -0.5648 -2.5042
 2347SOL     OW10571   7.229   5.071   6.872 -0.0526  0.1218  0.2647
 2347SOL    HW110572   7.267   5.136   6.931 -1.5303  0.8304  0.4916
 2347SOL    HW210573   7.293   5.000   6.869  1.7268  1.6431 -0.1277
 2348SOL     OW10574   1.495   8.672   3.063  0.1789  0.0931 -0.1165
 2348SOL    HW110575   1.424   8.737   3.067  1.3110  1.5065 -1.4999
 2348SOL    HW210576   1.467   8.602   3.122 -2.4335  0.5004 -0.7418
 2349SOL     OW10577  10.335  11.100   9.960 -0.2406 -0.2854 -0.1573
 2349SOL    HW110578  10.321  11.006   9.956 -0.9799 -0.1691 -3.2147
 2349SOL    HW210579  10.412  11.116   9.905  0.7544  0.8083  1.4663
 2350SOL     OW10580   2.075  10.974  10.423  0.5451 -0.0547 -0.0176
 2350SOL    HW110581   2.058  10.943  10.334 -0.5655 -0.3616  0.2831
 2350SOL    HW210582   2.075  10.894  10.477  3.1276 -0.1067  0.0301
 2351SOL     OW10583  10.306   9.950   0.453  0.5937 -0.0320 -0.1218
 2351SOL    HW110584  10.377   9.891   0.480  0.5334  0.4088  1.0308
 2351SOL    HW210585  10.316  10.027   0.508  0.0172  0.5994 -0.8780
 2352SOL     OW10586   9.926   2.427   7.582  0.4883 -0.0859  0.0376
 2352SOL    HW110587   9.927   2.491   7.653 -1.8229  1.1178 -0.9076
 2352SOL    HW210588   9.873   2.355   7.615  1.6477 -0.7658  0.4663
 2353SOL     OW10589   2.281   9.998   9.693  0.0606 -0.1672 -0.2106
 2353SOL    HW110590   2.221  10.070   9.713  0.6054  0.1706  0.2629
 2353SOL    HW210591   2.292   9.952   9.776  0.6773 -0.0428 -0.2122
 2354SOL     OW10592   4.339   1.763   3.243 -0.0976  0.0022  0.1124
 2354SOL    HW110593   4.269   1.699   3.235 -0.1360  0.1150 -0.4855
 2354SOL    HW210594   4.315   1.815   3.320  0.1047 -0.8920  0.8001
 2355SOL     OW10595   8.388   9.304   1.525 -1.1371  0.2757 -0.0729
 2355SOL    HW110596   8.388   9.400   1.534 -0.1996  0.1841  1.2923
 2355SOL    HW210597   8.332   9.274   1.597 -1.5845 -0.2109 -0.6122
 2356SOL     OW10598   4.377   8.332   7.374  0.6529  0.2701 -0.3275
 2356SOL    HW110599   4.419   8.261   7.423 -0.7309 -0.6719 -0.4688
 2356SOL    HW210600   4.292   8.344   7.416 -0.0207  0.3453 -1.6628
 2357SOL     OW10601   1.662   0.915   2.372 -0.1686 -0.0517 -0.0919
 2357SOL    HW110602   1.726   0.884   2.307 -0.7186 -0.2524 -0.5420
 2357SOL    HW210603   1.712   0.919   2.454  0.5001  0.0711 -0.4949
 2358SOL     OW10604   3.220   6.336   2.073  0.3679 -0.0884 -0.3576
 2358SOL    HW110605   3.276   6.326   1.996 -0.8244 -2.8993 -0.9686
 2358SOL    HW210606   3.136   6.298   2.047 -0.7438  0.7746  1.6904
 2359SOL     OW10607   2.455   5.911   0.629  0.6115 -0.1020  0.2428
 2359SOL    HW110608   2.438   5.828   0.673 -0.9941 -0.5814 -1.1577
 2359SOL    HW210609   2.454   5.889   0.536 -2.3173  1.8220 -0.2925
 2360SOL     OW10610  10.492   9.907   7.279  0.0176 -0.1001  0.6060
 2360SOL    HW110611  10.448   9.844   7.335 -0.2784 -0.2732  0.1821
 2360SOL    HW210612  10.430   9.979   7.269  0.8017  0.8204  2.0502
 2361SOL     OW10613   9.538   7.301   6.821 -0.4303 -0.4536 -0.0312
 2361SOL    HW110614   9.563   7.376   6.769  0.1908  0.7877  1.9351
 2361SOL    HW210615   9.480   7.337   6.889 -1.0522 -1.9511  0.2773
 2362SOL     OW10616   8.413   3.548   9.587  0.7513 -0.0344  0.1116
 2362SOL    HW110617   8.487   3.544   9.648  0.7332 -1.8545  0.0471
 2362SOL    HW210618   8.342   3.505   9.634 -0.8000  2.9877  0.7976
 2363SOL     OW10619   6.427   0.356  10.003  0.0510  0.0765  0.0848
 2363SOL    HW110620   6.482   0.371  10.080  0.9458 -0.2868 -0.4710
 2363SOL    HW210621   6.489   0.350   9.930 -0.6178 -1.5206 -0.3925
 2364SOL     OW10622   1.351   8.226   2.418 -0.4221  0.2298 -0.1089
 2364SOL    HW110623   1.294   8.247   2.344  0.2319 -1.4614 -1.1510
 2364SOL    HW210624   1.292   8.219   2.492 -1.1842  1.2556 -0.5842
 2365SOL     OW10625   7.977   7.101   5.354  0.3977  0.4028 -0.6446
 2365SOL    HW110626   7.992   7.013   5.319  0.0587 -0.3316  0.9620
 2365SOL    HW210627   8.051   7.153   5.322  2.1399 -1.1676  0.5985
 2366SOL     OW10628   6.251   4.861   4.142 -0.0913  0.0791  0.0723
 2366SOL    HW110629   6.333   4.899   4.109 -0.7386  0.9503 -0.5907
 2366SOL    HW210630   6.269   4.767   4.149  0.4759  0.0277 -1.6063
 2367SOL     OW10631   9.641   1.871   2.823 -0.3448 -0.3616  0.3845
 2367SOL    HW110632   9.728   1.832   2.815  0.3614  0.6673  2.5119
 2367SOL    HW210633   9.594   1.814   2.883 -1.4297 -1.3061 -1.2967
 2368SOL     OW10634   3.862   2.053   0.019 -0.2853 -0.1566  0.0767
 2368SOL    HW110635   3.778   2.091  -0.009  0.9258  1.6628 -1.4042
 2368SOL    HW210636   3.896   2.115   0.083  0.8175  0.2246 -0.8510
 2369SOL     OW10637   9.551   7.121   8.852  0.5478 -0.1971 -0.5380
 2369SOL    HW110638   9.556   7.113   8.948  1.2095  0.5065 -0.5034
 2369SOL    HW210639   9.630   7.169   8.828 -0.6380  1.5360 -1.2106
 2370SOL     OW10640   9.654  10.329  10.500  0.1876  0.5710 -0.1894
 2370SOL    HW110641   9.677  10.421  10.503 -1.3722  1.0114 -0.7543
 2370SOL    HW210642   9.647  10.302  10.592  1.9705  0.6304 -0.0089
 2371SOL     OW10643   3.440   4.776   1.155  0.1201 -0.0659  0.0515
 2371SOL    HW110644   3.526   4.759   1.117 -0.5774  0.3322 -1.7960
 2371SOL    HW210645   3.445   4.737   1.242  2.0841 -0.2550 -0.0898
 2372SOL     OW10646   3.025   0.914   9.255 -0.3521  0.8263 -0.5652
 2372SOL    HW110647   3.100   0.860   9.227 -0.6114 -0.1798  0.6169
 2372SOL    HW210648   2.949   0.858   9.242 -0.5222  0.4212  1.7401
 2373SOL     OW10649   9.276   9.684   1.390 -0.3873 -0.0996  0.0722
 2373SOL    HW110650   9.209   9.744   1.423 -0.2203 -0.5797  1.3300
 2373SOL    HW210651   9.239   9.597   1.401 -0.0395 -0.3025 -0.3450
 2374SOL     OW10652   0.015   1.785   9.579  0.3127  0.0533  0.1864
 2374SOL    HW110653  -0.008   1.729   9.505  0.0808  1.2183 -0.6550
 2374SOL    HW210654   0.060   1.859   9.540 -0.9365  1.3212  1.0464
 2375SOL     OW10655   1.502   6.203  10.262  0.3383 -0.8409 -0.8508
 2375SOL    HW110656   1.545   6.217  10.178 -0.7143 -0.6906 -1.3942
 2375SOL    HW210657   1.418   6.163  10.239 -0.4295  0.1969  0.0284
 2376SOL     OW10658   4.993  10.803   3.447 -0.2916  0.5936  0.2745
 2376SOL    HW110659   4.956  10.844   3.368 -1.5796  1.8106  1.4543
 2376SOL    HW210660   5.009  10.876   3.506  1.1014 -0.2567  0.9938
 2377SOL     OW10661   7.652   4.252   1.786 -0.5180  0.3691  0.6879
 2377SOL    HW110662   7.559   4.263   1.805 -0.5877 -1.9224  1.9900
 2377SOL    HW210663   7.655   4.223   1.695 -1.2162 -0.8345  1.0267
 2378SOL     OW10664   8.996   6.007   6.505 -0.0914 -0.5235 -0.4063
 2378SOL    HW110665   9.062   5.953   6.549  1.8014  0.7076 -1.6004
 2378SOL    HW210666   8.954   5.947   6.444  1.8560 -0.7756 -1.6037
 2379SOL     OW10667   1.759   3.808   3.146  0.0942 -0.2499  0.0225
 2379SOL    HW110668   1.771   3.734   3.087  0.2322 -0.0562 -0.1986
 2379SOL    HW210669   1.810   3.786   3.224 -1.0344 -1.0363  0.5635
 2380SOL     OW10670  10.281   4.098   4.394 -0.2433 -0.3775  0.6273
 2380SOL    HW110671  10.369   4.061   4.395 -0.4684 -0.9272  1.9298
 2380SOL    HW210672  10.286   4.171   4.331  0.9235 -0.8746  0.1156
 2381SOL     OW10673   6.998   9.983   2.241 -0.0355  0.3760 -0.9649
 2381SOL    HW110674   6.960   9.897   2.221  2.0892 -0.7015 -0.6195
 2381SOL    HW210675   7.022  10.019   2.156 -0.8175  0.6033 -1.1008
 2382SOL     OW10676   7.628   1.486   8.358 -0.1676  0.3063  0.0976
 2382SOL    HW110677   7.576   1.566   8.350 -1.7271 -0.4765  1.7735
 2382SOL    HW210678   7.570   1.424   8.401  0.9038 -1.8493 -1.3878
 2383SOL     OW10679  10.735   2.379   9.805 -0.4096 -1.0331 -0.6162
 2383SOL    HW110680  10.742   2.285   9.822 -0.9246 -1.0761 -0.6132
 2383SOL    HW210681  10.648   2.403   9.838 -0.7272 -0.7761 -1.6044
 2384SOL     OW10682   1.010   3.142  10.178  0.2318  0.0766 -0.5822
 2384SOL    HW110683   1.096   3.101  10.165  0.3981  0.8061 -1.9143
 2384SOL    HW210684   1.030   3.227  10.217  0.2511  0.8610 -2.2279
 2385SOL     OW10685   9.871   4.132   1.561 -0.2038  0.2544  0.0762
 2385SOL    HW110686   9.937   4.175   1.616 -1.2976  0.5243  1.2074
 2385SOL    HW210687   9.810   4.092   1.623  0.8400 -3.1944 -0.8573
 2386SOL     OW10688  10.077   6.855   7.133 -0.0998  0.0358 -0.0929
 2386SOL    HW110689  10.130   6.838   7.211  0.5472  2.1816  0.0051
 2386SOL    HW210690  10.040   6.942   7.147 -0.6963  0.1054 -1.7884
 2387SOL     OW10691   5.003   0.108   8.430  0.2887  0.7373 -0.5746
 2387SOL    HW110692   5.097   0.093   8.437  0.2639  1.0925  0.8760
 2387SOL    HW210693   4.993   0.164   8.352  1.2369  0.4629 -0.9036
 2388SOL     OW10694   0.141   4.415  10.457 -0.1567  0.1368  1.0134
 2388SOL    HW110695   0.163   4.338  10.405  1.4459  0.6328  0.9157
 2388SOL    HW210696   0.053   4.439  10.427 -0.2777 -1.0516  0.3359
 2389SOL     OW10697   7.940   6.976   6.837 -0.0324  0.5934  0.8345
 2389SOL    HW110698   7.954   7.056   6.786 -1.4526 -0.8124 -1.9603
 2389SOL    HW210699   7.862   6.995   6.890 -1.2086  0.6780 -0.8441
 2390SOL     OW10700   2.043   9.975   2.716  0.1766 -0.4493  0.0498
 2390SOL    HW110701   2.058   9.955   2.808  0.3131 -1.0233 -0.0979
 2390SOL    HW210702   1.971   9.918   2.691  1.9138 -2.3586 -0.9248
 2391SOL     OW10703   3.594   7.761   0.673 -0.4320  0.1849  0.5103
 2391SOL    HW110704   3.603   7.669   0.701 -0.5632  0.0648  0.1619
 2391SOL    HW210705   3.662   7.772   0.607 -1.6017 -0.2085 -0.8163
 2392SOL     OW10706   9.029  10.124   1.439 -0.1996 -0.5233 -0.8756
 2392SOL    HW110707   8.972  10.162   1.372  1.1524 -0.8832 -2.3021
 2392SOL    HW210708   9.117  10.146   1.410  0.4271  0.8833  1.7809
 2393SOL     OW10709  10.063   8.999   8.573 -0.1486 -0.6392  0.1275
 2393SOL    HW110710   9.970   8.999   8.554  0.0987  1.0790 -1.3409
 2393SOL    HW210711  10.093   8.912   8.546 -1.0471 -0.6089 -1.0461
 2394SOL     OW10712   6.976   3.609   6.584  0.4529 -0.6876 -0.1445
 2394SOL    HW110713   6.913   3.681   6.592 -0.4719 -1.4735 -0.0999
 2394SOL    HW210714   7.047   3.633   6.643 -0.3773 -0.3332  0.7601
 2395SOL     OW10715  10.196   3.485   7.766  0.0095 -0.0471  0.4818
 2395SOL    HW110716  10.288   3.462   7.764  0.2818  1.0104 -1.6746
 2395SOL    HW210717  10.190   3.557   7.829  1.2062  1.7845 -1.3912
 2396SOL     OW10718   2.504   6.495   7.924  0.2491 -0.4130 -0.3768
 2396SOL    HW110719   2.508   6.472   7.832  4.3436  0.1894 -0.5559
 2396SOL    HW210720   2.595   6.486   7.955 -0.3755  2.2150  2.8517
 2397SOL     OW10721   7.747   6.111   6.115 -0.9464  0.0715  0.2809
 2397SOL    HW110722   7.829   6.110   6.164 -0.4127 -0.1230 -0.6002
 2397SOL    HW210723   7.754   6.037   6.054 -2.2519 -0.6451  0.9518
 2398SOL     OW10724   6.376  10.978  10.300 -0.7227  0.3636  0.4476
 2398SOL    HW110725   6.360  11.040  10.370 -3.2813 -1.3673  1.5322
 2398SOL    HW210726   6.295  10.976  10.250 -0.9172 -2.3703  0.7250
 2399SOL     OW10727   4.378   1.842   0.037  0.3229  0.2975  0.2561
 2399SOL    HW110728   4.426   1.803   0.111  0.6382  2.0796  1.0513
 2399SOL    HW210729   4.289   1.855   0.071 -0.2265 -1.1437 -0.5444
 2400SOL     OW10730   0.250   3.866   3.533  0.2244 -0.3411 -0.5822
 2400SOL    HW110731   0.328   3.828   3.491 -0.2549 -1.6172 -0.3602
 2400SOL    HW210732   0.246   3.823   3.619 -2.5426 -2.8601 -1.7951
 2401SOL     OW10733   9.951   8.940  10.312  1.2235 -0.6434  0.0021
 2401SOL    HW110734  10.028   8.902  10.354  2.1636  0.4111 -0.6820
 2401SOL    HW210735   9.978   8.953  10.221  0.2830 -0.1290 -0.2173
 2402SOL     OW10736   2.708   6.853   8.568 -0.0549 -0.6516 -0.4713
 2402SOL    HW110737   2.784   6.866   8.625 -1.0374 -1.1373  1.0089
 2402SOL    HW210738   2.745   6.817   8.487  1.2431 -1.4367  0.4313
 2403SOL     OW10739   5.147   4.308   8.608  0.1408  0.2839  0.2843
 2403SOL    HW110740   5.158   4.218   8.577 -0.4877  0.8814 -1.8449
 2403SOL    HW210741   5.154   4.361   8.529 -3.2105  1.8280  0.8402
 2404SOL     OW10742  10.963   9.235   5.052  0.4070 -0.3950  0.0188
 2404SOL    HW110743  11.034   9.296   5.030  0.9320 -1.4534 -1.3230
 2404SOL    HW210744  10.887   9.268   5.005  0.5825 -0.5453 -0.3672
 2405SOL     OW10745   2.122   9.835   1.112 -0.5558  0.1023 -0.0098
 2405SOL    HW110746   2.108   9.750   1.155 -0.5788 -0.4275 -1.0482
 2405SOL    HW210747   2.055   9.892   1.150 -0.2418 -0.1971  1.0471
 2406SOL     OW10748   9.594   0.369   2.442 -0.2679  0.2382  0.4108
 2406SOL    HW110749   9.625   0.330   2.361 -0.6159  2.0941 -0.6744
 2406SOL    HW210750   9.546   0.298   2.486  2.0872 -1.5345  0.2871
 2407SOL     OW10751   1.232   1.398   3.749 -0.6698 -0.1977  0.4634
 2407SOL    HW110752   1.310   1.361   3.708 -1.4873 -0.8889 -0.4992
 2407SOL    HW210753   1.266   1.446   3.825  0.6033 -1.2901  0.6219
 2408SOL     OW10754   7.094   2.540   5.314  0.5067 -0.7190  0.2563
 2408SOL    HW110755   7.187   2.557   5.299  0.0324  0.5867 -1.4097
 2408SOL    HW210756   7.060   2.621   5.352 -0.5355 -0.0139 -2.0174
 2409SOL     OW10757   1.961   4.628   5.969 -0.0138 -0.2609  0.1090
 2409SOL    HW110758   1.994   4.631   5.879  1.0592  0.6198  0.5096
 2409SOL    HW210759   2.038   4.607   6.022 -0.0958  1.6240  1.0536
 2410SOL     OW10760  10.218   9.717   3.291  0.6113  0.3592  0.4666
 2410SOL    HW110761  10.274   9.639   3.289 -2.1974 -1.8012 -1.0079
 2410SOL    HW210762  10.261   9.779   3.232  2.8381 -0.0397  1.5550
 2411SOL     OW10763   6.644   6.892   1.854  0.4762  0.2561 -0.4549
 2411SOL    HW110764   6.581   6.886   1.782  0.1936  0.6618 -0.2503
 2411SOL    HW210765   6.640   6.806   1.897  1.5381 -0.4170 -1.6329
 2412SOL     OW10766  10.335   5.014   2.337 -0.5294 -0.0921  0.3848
 2412SOL    HW110767  10.284   4.935   2.320  0.6016 -0.7810  0.0307
 2412SOL    HW210768  10.284   5.085   2.298 -1.4007 -0.6839  0.4189
 2413SOL     OW10769   9.691   8.251   7.710  0.0609  0.2522  0.1126
 2413SOL    HW110770   9.640   8.236   7.790  0.3913 -0.2929  0.2309
 2413SOL    HW210771   9.634   8.303   7.654 -0.5376 -0.1496  0.3355
 2414SOL     OW10772   4.827   5.582   0.224 -0.4349 -0.4729  0.0544
 2414SOL    HW110773   4.779   5.665   0.221 -0.2455 -0.3214  1.0319
 2414SOL    HW210774   4.839   5.564   0.317  0.0523 -1.2961 -0.1590
 2415SOL     OW10775   7.313   2.545   9.174 -0.5895 -0.0149 -0.2567
 2415SOL    HW110776   7.367   2.486   9.121 -0.3638 -0.3244  0.3065
 2415SOL    HW210777   7.320   2.630   9.131  0.0844 -0.1287 -0.3723
 2416SOL     OW10778   5.107   3.583   6.528 -0.8107  0.3304  0.3120
 2416SOL    HW110779   5.046   3.511   6.547 -0.2678  0.5712  3.5837
 2416SOL    HW210780   5.193   3.541   6.529 -0.7047  0.3030 -2.5409
 2417SOL     OW10781   4.146   2.029  10.073 -0.2200  0.4374  0.1810
 2417SOL    HW110782   4.091   2.098  10.036  0.7554  0.7268 -0.7870
 2417SOL    HW210783   4.173   1.977   9.997 -0.6170 -0.7791  0.8460
 2418SOL     OW10784   7.723   1.654  10.943  0.5897  0.6943  0.1403
 2418SOL    HW110785   7.742   1.594  11.015  0.9769 -0.4339 -0.8773
 2418SOL    HW210786   7.766   1.615  10.866  0.2358  1.8927 -0.6971
 2419SOL     OW10787   7.688   9.626  10.146 -0.7593 -0.2196  0.2131
 2419SOL    HW110788   7.775   9.588  10.158 -0.0848  1.3515  0.6791
 2419SOL    HW210789   7.704   9.709  10.101 -1.8605  0.7197  1.4570
 2420SOL     OW10790   2.796   0.803   9.186 -0.6244 -0.3034 -0.4853
 2420SOL    HW110791   2.757   0.840   9.265  0.3085  2.5432 -1.2585
 2420SOL    HW210792   2.722   0.770   9.135 -1.2063 -2.6534  1.6964
 2421SOL     OW10793   7.993   3.082   6.250 -0.3212 -0.3772 -0.6894
 2421SOL    HW110794   8.013   3.036   6.331 -0.3665  0.3661 -0.2525
 2421SOL    HW210795   8.076   3.123   6.224 -0.6048  0.4412 -0.3318
 2422SOL     OW10796   1.574   3.391  10.501 -0.0768  0.3190 -0.0718
 2422SOL    HW110797   1.660   3.378  10.461  0.8309  0.5033  1.7449
 2422SOL    HW210798   1.584   3.362  10.591 -2.2057 -0.5652 -0.0631
 2423SOL     OW10799   5.060   9.236   3.118  0.4286  0.0860  0.1401
 2423SOL    HW110800   4.977   9.248   3.165  0.7520  0.7310  0.5637
 2423SOL    HW210801   5.110   9.175   3.173  0.5910  0.4159  0.3654
 2424SOL     OW10802   3.968   9.385   5.666 -0.1112 -0.2125 -0.3413
 2424SOL    HW110803   3.969   9.338   5.749  0.4769 -0.0544 -0.2566
 2424SOL    HW210804   4.051   9.431   5.663 -0.3446  0.1902 -0.7907
 2425SOL     OW10805   6.827   1.397   6.301 -0.3067 -0.9573 -0.0624
 2425SOL    HW110806   6.919   1.372   6.293 -0.0397  0.3606 -1.4595
 2425SOL    HW210807   6.823   1.486   6.268 -2.2328 -1.2615 -0.7747
 2426SOL     OW10808   0.179  11.112   2.806  0.0803  0.1895  0.4966
 2426SOL    HW110809   0.096  11.078   2.772  0.6394 -0.6223 -0.0971
 2426SOL    HW210810   0.224  11.035   2.840  1.3189  0.3374 -0.7537
 2427SOL     OW10811   2.321   5.929   8.132  0.1978 -0.6401  0.5209
 2427SOL    HW110812   2.234   5.909   8.096  0.1244 -1.0240  0.9133
 2427SOL    HW210813   2.382   5.897   8.065  0.0317  0.4118 -0.1602
 2428SOL     OW10814  10.237  10.399   0.060 -0.3186 -0.4672  0.1357
 2428SOL    HW110815  10.219  10.333   0.127 -0.6424  0.1048  0.6141
 2428SOL    HW210816  10.153  10.415   0.018  0.2670 -2.5914 -2.0919
 2429SOL     OW10817   4.157   8.405   8.057  0.0489  0.3696  0.0002
 2429SOL    HW110818   4.191   8.469   7.995  1.2454 -0.4552 -0.2495
 2429SOL    HW210819   4.203   8.425   8.139  0.3545 -0.0948 -0.0537
 2430SOL     OW10820   4.361   5.128   1.762  0.0802  0.3045 -0.0289
 2430SOL    HW110821   4.404   5.057   1.715  1.2633  0.0543  1.3409
 2430SOL    HW210822   4.296   5.163   1.701  1.2941 -0.2355 -1.6824
 2431SOL     OW10823   8.216  10.726   7.231 -0.0360  0.7316  0.4808
 2431SOL    HW110824   8.132  10.687   7.207  0.7976 -1.1703  0.4574
 2431SOL    HW210825   8.227  10.703   7.323  1.6554 -1.4832 -0.1920
 2432SOL     OW10826   2.842   2.681   4.303  0.0340 -0.1477  0.1942
 2432SOL    HW110827   2.882   2.707   4.386 -0.7032 -0.3279  0.6130
 2432SOL    HW210828   2.773   2.618   4.327 -0.3581 -0.0118 -0.5262
 2433SOL     OW10829   0.203   2.090   7.455 -0.2758  0.5199 -0.1011
 2433SOL    HW110830   0.196   2.061   7.546 -0.7520  0.4257 -0.1643
 2433SOL    HW210831   0.195   2.186   7.460  1.3721  0.6685  0.1134
 2434SOL     OW10832   0.960   1.511   6.845 -0.0128  0.0894  0.3901
 2434SOL    HW110833   0.932   1.602   6.852 -3.0119 -0.4901 -2.1648
 2434SOL    HW210834   0.897   1.462   6.897 -0.6861 -0.8134 -1.2118
 2435SOL     OW10835   9.330   2.088   9.354  0.6769  0.5124  0.0377
 2435SOL    HW110836   9.312   2.022   9.421  1.8022  0.7797  0.6362
 2435SOL    HW210837   9.289   2.053   9.275  1.0642 -0.8237  0.3882
 2436SOL     OW10838   7.897   3.251   6.638 -0.6973  0.3348  0.7676
 2436SOL    HW110839   7.838   3.176   6.627  0.7874 -0.6300 -1.2368
 2436SOL    HW210840   7.866   3.315   6.573 -0.6111  0.5469  0.9375
 2437SOL     OW10841   1.332   8.097   4.453  0.5568 -0.1044 -0.2497
 2437SOL    HW110842   1.386   8.164   4.494  1.3638 -1.1233  0.4202
 2437SOL    HW210843   1.396   8.034   4.419 -0.0831  0.5290 -2.8192
 2438SOL     OW10844   7.214   2.911  10.739  0.4665  0.6690 -0.7402
 2438SOL    HW110845   7.284   2.969  10.709  0.6078 -0.0984 -1.9850
 2438SOL    HW210846   7.258   2.841  10.787  0.3128  1.4542  0.5951
 2439SOL     OW10847   6.200   5.928   9.189  0.5539 -0.9054 -0.2558
 2439SOL    HW110848   6.133   5.908   9.254  0.6304 -0.7618 -0.1320
 2439SOL    HW210849   6.260   5.853   9.192  1.4812 -0.1538  1.0326
 2440SOL     OW10850   0.703   6.393   4.473  0.7475  0.3754 -0.4836
 2440SOL    HW110851   0.668   6.348   4.550  0.5879  0.6757 -0.3835
 2440SOL    HW210852   0.769   6.453   4.508  0.5279  0.6619 -0.5626
 2441SOL     OW10853   0.094   2.785   0.459  0.1809  0.1307  0.2525
 2441SOL    HW110854   0.152   2.859   0.480 -0.7456  0.8540  0.2909
 2441SOL    HW210855   0.127   2.753   0.375  0.5169  0.6614  0.1749
 2442SOL     OW10856   3.047   5.105   4.006 -0.0042  0.4742  0.2171
 2442SOL    HW110857   3.059   5.011   3.996 -1.0199  0.2811  0.6769
 2442SOL    HW210858   3.134   5.142   3.994  0.6848 -0.6547  1.5066
 2443SOL     OW10859   1.581   5.606   2.152  0.0673 -0.3073  0.1719
 2443SOL    HW110860   1.540   5.692   2.142 -1.7698 -1.0340  0.9627
 2443SOL    HW210861   1.646   5.618   2.221 -0.6057  0.3365  0.7144
 2444SOL     OW10862   0.416   7.001   4.745  0.8260 -0.0848  0.6280
 2444SOL    HW110863   0.332   7.019   4.787  1.0851  0.9680  0.7245
 2444SOL    HW210864   0.463   7.084   4.749  0.0431  0.8487 -3.7323
 2445SOL     OW10865   7.234   4.043   6.064 -0.0988 -0.4205  0.1960
 2445SOL    HW110866   7.183   4.103   6.010  1.2549  0.4879 -0.1257
 2445SOL    HW210867   7.318   4.035   6.019  0.6376 -0.5706  1.5452
 2446SOL     OW10868   1.149   8.891  10.729 -0.6284  0.3468 -0.4364
 2446SOL    HW110869   1.126   8.818  10.786 -2.8834  1.2124 -0.1170
 2446SOL    HW210870   1.143   8.968  10.785  2.3669  0.8192 -0.5910
 2447SOL     OW10871   6.398   8.941   3.120  0.3481  0.0164 -0.0310
 2447SOL    HW110872   6.392   8.921   3.214 -2.2236 -0.5608 -0.2228
 2447SOL    HW210873   6.444   8.866   3.083  3.1705  1.1347  0.9151
 2448SOL     OW10874   5.610   9.964   9.682  0.8095 -0.2058 -0.4799
 2448SOL    HW110875   5.636   9.878   9.715 -0.9692 -0.6687 -0.1852
 2448SOL    HW210876   5.624   9.958   9.587 -2.6380 -2.1798 -1.0167
 2449SOL     OW10877   5.897   2.544   4.897 -0.0730  0.3511  0.6139
 2449SOL    HW110878   5.926   2.533   4.988 -1.4091 -0.3670  0.9788
 2449SOL    HW210879   5.886   2.455   4.865  0.5125  0.6006 -0.3039
 2450SOL     OW10880   9.647   4.503   0.943  0.3025 -0.1105  0.3413
 2450SOL    HW110881   9.676   4.571   0.883  0.5649 -0.1539  0.4178
 2450SOL    HW210882   9.576   4.544   0.993  0.8471  0.3063  0.7952
 2451SOL     OW10883   7.676  10.234  10.734  0.0172 -0.0096 -0.0261
 2451SOL    HW110884   7.762  10.270  10.758  0.8050 -1.0532 -1.1615
 2451SOL    HW210885   7.690  10.140  10.732 -1.5316 -0.2904  1.0709
 2452SOL     OW10886   3.193   3.886   8.822  0.3605 -0.0436 -0.0907
 2452SOL    HW110887   3.185   3.944   8.898  2.1384 -1.7110  1.4893
 2452SOL    HW210888   3.215   3.944   8.750 -0.2786  1.4900  0.8938
 2453SOL     OW10889   4.033  10.436  11.039  0.4088  0.2632  0.1762
 2453SOL    HW110890   4.093  10.477  10.977 -0.6232 -0.4921 -1.3880
 2453SOL    HW210891   3.998  10.509  11.091 -0.3085  1.2199 -1.5755
 2454SOL     OW10892   0.876   4.651   4.413  0.4945 -0.0346 -0.0272
 2454SOL    HW110893   0.786   4.624   4.430  0.7992 -0.5789  0.7779
 2454SOL    HW210894   0.900   4.607   4.332  0.2093 -0.3040  0.0350
 2455SOL     OW10895  10.616  10.917   2.204  0.1870  0.0428 -0.1477
 2455SOL    HW110896  10.542  10.856   2.197 -0.7962  1.1595  0.1009
 2455SOL    HW210897  10.691  10.868   2.172 -1.1097 -0.3539 -2.9195
 2456SOL     OW10898   8.975   8.857   9.177  0.6066  0.7758 -0.5265
 2456SOL    HW110899   8.986   8.790   9.244  1.1805  0.1916 -1.1858
 2456SOL    HW210900   9.064   8.886   9.158  0.3819  1.5666 -0.4215
 2457SOL     OW10901  10.728   5.400   9.310  0.4948  0.0243 -0.2675
 2457SOL    HW110902  10.777   5.342   9.253 -0.0935 -1.1604  0.3838
 2457SOL    HW210903  10.752   5.372   9.399  0.6325  1.1555  0.0619
 2458SOL     OW10904   1.834   8.338   3.855  0.3787  0.4820 -0.3764
 2458SOL    HW110905   1.876   8.347   3.941 -0.7848 -0.6220  0.3522
 2458SOL    HW210906   1.832   8.427   3.820  1.7306  0.8151  0.3085
 2459SOL     OW10907   2.841   5.519  10.279  0.0040 -0.4860 -0.2138
 2459SOL    HW110908   2.859   5.467  10.358 -0.8418 -2.1974 -1.0978
 2459SOL    HW210909   2.766   5.572  10.303  2.1452  2.0794  1.4230
 2460SOL     OW10910   1.396   3.615   2.188 -0.0664 -0.1032  0.2086
 2460SOL    HW110911   1.358   3.607   2.276 -0.1598 -1.0196  0.0897
 2460SOL    HW210912   1.369   3.535   2.143 -1.5090  1.1407 -1.2411
 2461SOL     OW10913   1.357   8.977   9.044 -1.1227 -0.0507  0.1637
 2461SOL    HW110914   1.377   8.884   9.032  2.3815  0.7213 -1.0814
 2461SOL    HW210915   1.281   8.992   8.988 -1.2381 -1.9655 -0.2875
 2462SOL     OW10916   8.203   1.966   2.700 -0.2927 -0.1609  0.4915
 2462SOL    HW110917   8.285   1.998   2.737 -0.8673  1.0485  0.7621
 2462SOL    HW210918   8.225   1.944   2.609  0.7568 -1.6778  1.0915
 2463SOL     OW10919   1.321  10.933  10.527  0.4211  0.1083 -0.1315
 2463SOL    HW110920   1.346  10.841  10.513  0.7795  0.3727 -1.2663
 2463SOL    HW210921   1.272  10.957  10.449 -0.0237  0.7855  0.3406
 2464SOL     OW10922   2.327   1.741   8.636  0.3239  0.3644  0.1944
 2464SOL    HW110923   2.265   1.796   8.683 -1.2771 -1.2820  0.0863
 2464SOL    HW210924   2.357   1.796   8.563 -1.2401  1.0889  0.0678
 2465SOL     OW10925   1.994  10.177   8.979 -0.2499  0.2034 -0.4733
 2465SOL    HW110926   1.952  10.160   9.063 -2.9799 -0.4651 -1.8514
 2465SOL    HW210927   2.032  10.264   8.988  0.5351 -0.3111  1.7734
 2466SOL     OW10928   2.288   5.108   9.737 -0.3421 -0.3211 -0.0832
 2466SOL    HW110929   2.229   5.177   9.707  0.5378  0.4129 -0.1714
 2466SOL    HW210930   2.308   5.058   9.658  2.5217  2.0241 -1.0158
 2467SOL     OW10931   6.903  10.482   8.117 -0.1239 -0.3578 -0.1904
 2467SOL    HW110932   6.912  10.389   8.098  0.5804 -0.1802 -0.7333
 2467SOL    HW210933   6.992  10.517   8.111 -0.2650  0.2053  0.7853
 2468SOL     OW10934   4.278   4.941   3.132 -0.2762 -0.1586 -0.3718
 2468SOL    HW110935   4.221   4.909   3.203 -1.8283 -0.7776 -1.8426
 2468SOL    HW210936   4.265   5.036   3.133  0.9515  0.0421  1.1536
 2469SOL     OW10937   2.230   2.868   7.739 -0.0003 -0.0521 -0.5835
 2469SOL    HW110938   2.304   2.807   7.731  0.2980  0.2098  0.1222
 2469SOL    HW210939   2.268   2.954   7.718  0.3700  0.3793  1.6115
 2470SOL     OW10940   4.826   7.406   1.805  0.0671  0.0485 -0.4807
 2470SOL    HW110941   4.754   7.405   1.742 -0.1535  1.1035 -0.2475
 2470SOL    HW210942   4.884   7.475   1.774 -0.7728  1.6024  1.2697
 2471SOL     OW10943  10.942   8.050  11.043  0.6313  0.0041 -0.0009
 2471SOL    HW110944  10.985   8.132  11.016 -0.2110  0.5424  0.2614
 2471SOL    HW210945  10.956   7.991  10.969  0.2945  0.7464 -0.6720
 2472SOL     OW10946   2.345   8.968   1.620 -0.0004  0.0948  0.1658
 2472SOL    HW110947   2.264   8.952   1.668  0.3757  0.2697  0.8769
 2472SOL    HW210948   2.375   8.881   1.594 -0.1199 -0.0200  0.4075
 2473SOL     OW10949   6.346   8.207  10.993 -0.0194  0.3447 -0.1032
 2473SOL    HW110950   6.395   8.163  10.923  0.9102  0.6587  0.3282
 2473SOL    HW210951   6.257   8.216  10.958 -0.0816 -1.2803 -0.4491
 2474SOL     OW10952   7.775   3.756   3.252 -0.1334 -0.3803  0.7249
 2474SOL    HW110953   7.789   3.806   3.172  2.8464 -2.2192 -0.0677
 2474SOL    HW210954   7.774   3.821   3.322  0.2699  1.0379 -0.5397
 2475SOL     OW10955  10.996   4.052   6.063 -0.0974  0.1275 -0.3567
 2475SOL    HW110956  10.933   4.116   6.095 -0.1828 -0.7164  1.2527
 2475SOL    HW210957  10.945   3.994   6.007 -0.6825 -0.2881  0.5871
 2476SOL     OW10958   7.438   0.948   3.075  0.1540 -0.6080  0.1314
 2476SOL    HW110959   7.461   0.927   3.165 -1.5506  1.2717  1.0819
 2476SOL    HW210960   7.343   0.960   3.077  0.1788  0.1934 -1.7606
 2477SOL     OW10961   3.813   3.049  10.260 -0.3533  0.2529  0.2911
 2477SOL    HW110962   3.773   3.101  10.190  0.4949  1.2549  0.5308
 2477SOL    HW210963   3.881   2.999  10.215 -2.7740 -2.7008 -0.4310
 2478SOL     OW10964   6.834   7.852   3.473 -0.4311  0.0970 -0.3057
 2478SOL    HW110965   6.878   7.781   3.425 -0.6939  1.0804 -2.0907
 2478SOL    HW210966   6.743   7.825   3.478 -0.2370 -0.4486  0.5303
 2479SOL     OW10967   5.045   7.545   9.430  0.3707  0.3762  0.5225
 2479SOL    HW110968   5.098   7.478   9.386 -1.8554  0.4734 -2.7072
 2479SOL    HW210969   5.080   7.628   9.397  0.6240  0.6452  1.4361
 2480SOL     OW10970   6.274  10.844   2.456 -0.3095 -0.0228  0.3352
 2480SOL    HW110971   6.319  10.815   2.376 -1.9458  0.2270 -0.7208
 2480SOL    HW210972   6.245  10.762   2.498 -0.0742 -0.1279  0.2941
 2481SOL     OW10973   8.024   1.938   8.067 -0.1219 -0.1392 -0.5760
 2481SOL    HW110974   8.010   1.843   8.069 -0.3080 -0.1145 -0.6682
 2481SOL    HW210975   7.985   1.966   7.984 -0.2650  0.0475 -0.4463
 2482SOL     OW10976  10.129   0.698   1.859 -0.2468  0.1438  0.3956
 2482SOL    HW110977  10.148   0.623   1.803 -0.7911 -0.0388  0.4568
 2482SOL    HW210978  10.204   0.703   1.919 -0.0848 -0.1870  0.2227
 2483SOL     OW10979   2.805   4.571   7.448  0.1868 -0.1519 -0.3330
 2483SOL    HW110980   2.722   4.564   7.496 -0.0146  2.4151 -0.1361
 2483SOL    HW210981   2.785   4.534   7.362 -1.0889  0.0880 -0.1697
 2484SOL     OW10982   1.919   5.635   6.978  0.0082 -0.2946 -0.3290
 2484SOL    HW110983   1.989   5.573   6.957 -0.4954 -0.7598 -0.6664
 2484SOL    HW210984   1.850   5.617   6.914  0.0563  0.9774 -0.7656
 2485SOL     OW10985   5.508   6.320   3.912  0.1131  0.2838 -0.2950
 2485SOL    HW110986   5.422   6.294   3.945  0.5018 -1.2239 -0.3811
 2485SOL    HW210987   5.564   6.324   3.989  0.0650  0.8825 -0.2861
 2486SOL     OW10988   0.607   8.519   2.944  0.2131  0.9701 -0.5161
 2486SOL    HW110989   0.690   8.473   2.932  0.9617  2.3008 -0.7102
 2486SOL    HW210990   0.619   8.601   2.896 -0.7894  1.6918  0.4250
 2487SOL     OW10991  10.594   0.853   5.155  0.2055 -0.3772  0.0534
 2487SOL    HW110992  10.653   0.862   5.080  1.7142 -1.7211  1.0280
 2487SOL    HW210993  10.580   0.942   5.185  1.0916  0.0346 -0.7010
 2488SOL     OW10994   6.252   8.599   2.671  0.0264  0.1624  0.0038
 2488SOL    HW110995   6.229   8.595   2.763  2.4387 -0.2271  0.6645
 2488SOL    HW210996   6.284   8.511   2.650  2.3560  1.0033 -0.3109
 2489SOL     OW10997   0.328   7.884  10.221  0.0126  0.4345 -0.6100
 2489SOL    HW110998   0.403   7.824  10.230  0.9429  1.8889  2.7886
 2489SOL    HW210999   0.253   7.833  10.253  0.3723  0.3039  0.0501
 2490SOL     OW11000   8.977   5.509   4.142 -0.4473 -0.3863 -0.1633
 2490SOL    HW111001   9.022   5.528   4.059 -1.4080 -0.6494 -0.7568
 2490SOL    HW211002   9.043   5.464   4.194  0.0390 -0.6277 -0.9587
 2491SOL     OW11003   5.002  10.968   0.518 -0.0220 -0.1392 -0.2122
 2491SOL    HW111004   5.023  10.938   0.606  0.2503 -1.3690 -0.6742
 2491SOL    HW211005   4.915  10.931   0.499  0.2008 -0.4313 -0.6959
 2492SOL     OW11006   0.112   2.220   1.676  0.3991 -0.3284  0.4178
 2492SOL    HW111007   0.084   2.135   1.640 -0.1542  0.5473 -1.3488
 2492SOL    HW211008   0.185   2.246   1.620  0.1616  0.6466  0.5520
 2493SOL     OW11009   2.361  10.252   2.548  0.1313 -0.3830 -0.0990
 2493SOL    HW111010   2.360  10.162   2.580 -0.5144 -0.5914 -0.6636
 2493SOL    HW211011   2.362  10.306   2.627  2.8737 -0.8469  0.2930
 2494SOL     OW11012   4.572   4.343  10.026 -0.4316  0.2718 -0.2980
 2494SOL    HW111013   4.663   4.346   9.994  0.3809  2.2843  1.8705
 2494SOL    HW211014   4.519   4.352   9.947  1.2537 -0.2937 -1.5640
 2495SOL     OW11015  10.766   8.675   1.022  0.2904 -0.0784  0.9827
 2495SOL    HW111016  10.752   8.609   1.090 -0.7845 -1.0429 -0.1209
 2495SOL    HW211017  10.849   8.650   0.981  1.4568  1.0780  2.5077
 2496SOL     OW11018   7.499   6.274   6.847  0.0658  0.1698 -0.3596
 2496SOL    HW111019   7.511   6.269   6.941  1.0010 -0.0563 -0.4859
 2496SOL    HW211020   7.530   6.361   6.823  0.8361 -0.1637 -0.5964
 2497SOL     OW11021   0.753   7.849  10.851 -0.6649 -0.0081  0.1491
 2497SOL    HW111022   0.679   7.901  10.820 -0.9506  0.6403  1.8009
 2497SOL    HW211023   0.827   7.880  10.800 -1.5426 -0.9233 -1.8098
 2498SOL     OW11024   0.229   5.542   7.857  0.0582  0.3616  0.3460
 2498SOL    HW111025   0.281   5.569   7.782 -0.2718 -0.2447 -0.1191
 2498SOL    HW211026   0.273   5.580   7.933  0.4557  0.8954 -0.1461
 2499SOL     OW11027   7.050   0.692   0.614  0.0783 -0.0316  0.2447
 2499SOL    HW111028   7.075   0.600   0.604  0.5184 -0.4290  3.8160
 2499SOL    HW211029   6.954   0.691   0.617  0.1062 -0.5563  1.3099
 2500SOL     OW11030   6.342   5.227   9.335 -0.1120  0.0692  0.6355
 2500SOL    HW111031   6.430   5.189   9.324  0.1726  0.7835  0.4107
 2500SOL    HW211032   6.332   5.287   9.261 -1.3104 -0.9583 -0.0781
 2501SOL     OW11033   1.382   7.080   9.803 -0.4131 -0.0544  0.4747
 2501SOL    HW111034   1.352   7.154   9.750  3.1908  0.9170 -0.4966
 2501SOL    HW211035   1.365   7.106   9.893  2.5320  3.0305  0.3253
 2502SOL     OW11036  10.564   4.307   7.691  0.3479  0.0497  0.1027
 2502SOL    HW111037  10.582   4.357   7.771 -0.0237 -1.3747  1.1288
 2502SOL    HW211038  10.636   4.244   7.687  1.3621  1.2498 -1.7184
 2503SOL     OW11039   5.414   6.882   4.896  0.2733 -0.7766  0.4740
 2503SOL    HW111040   5.341   6.827   4.867  0.2362 -0.0701 -0.8271
 2503SOL    HW211041   5.373   6.959   4.935  0.2077  0.7762 -2.4033
 2504SOL     OW11042   8.624   6.626   9.991 -0.3316 -0.3918  0.6230
 2504SOL    HW111043   8.681   6.616  10.067  0.9696  0.3775 -0.2167
 2504SOL    HW211044   8.676   6.593   9.918 -0.5265  1.3109 -0.3296
 2505SOL     OW11045   0.694   9.212  10.710 -0.0169 -0.5351 -0.6639
 2505SOL    HW111046   0.714   9.165  10.629  0.7906 -2.0808  0.3715
 2505SOL    HW211047   0.720   9.302  10.692  2.8834 -1.3725 -1.2433
 2506SOL     OW11048  10.096  10.968   5.059 -0.0017  0.2495 -0.2603
 2506SOL    HW111049  10.079  10.975   4.965  0.3586  1.8467 -0.2281
 2506SOL    HW211050  10.055  11.045   5.097 -0.2165 -0.4236  0.9213
 2507SOL     OW11051   1.158   8.071   6.052 -0.1403  0.7209  0.2252
 2507SOL    HW111052   1.154   8.011   5.977  1.1127  1.5769 -0.5643
 2507SOL    HW211053   1.084   8.045   6.107  0.8510 -2.1130  0.3785
 2508SOL     OW11054   9.191   2.835   2.017  0.1668 -0.0856  0.0976
 2508SOL    HW111055   9.108   2.801   2.049  0.2020  1.3784  1.9053
 2508SOL    HW211056   9.257   2.796   2.073  0.6521 -0.7130 -0.8948
 2509SOL     OW11057   0.181   2.650   1.467 -0.1606 -0.1070 -0.1100
 2509SOL    HW111058   0.095   2.693   1.469 -0.6252 -1.0113  2.2646
 2509SOL    HW211059   0.238   2.709   1.515 -0.2622 -1.0194  1.1719
 2510SOL     OW11060   1.405   9.507   6.320  0.1671  0.1032  1.1160
 2510SOL    HW111061   1.398   9.593   6.362  0.3210 -1.3597  4.4114
 2510SOL    HW211062   1.499   9.492   6.312  0.1400  0.2447  0.4899
 2511SOL     OW11063   7.032   3.593  10.157 -0.2564 -0.0362 -0.3965
 2511SOL    HW111064   7.048   3.524  10.093  1.2692 -0.6188  0.5485
 2511SOL    HW211065   6.939   3.585  10.178 -0.5522 -0.4695 -1.7916
 2512SOL     OW11066   7.415   3.065  10.620 -0.2049 -0.3337  0.0783
 2512SOL    HW111067   7.478   3.099  10.682  1.2519 -0.5588 -1.2101
 2512SOL    HW211068   7.467   3.039  10.544 -1.9996  1.2303 -1.8269
 2513SOL     OW11069   2.941   5.346   0.090  0.2080  0.1786  0.7132
 2513SOL    HW111070   2.943   5.354  -0.005  0.6183 -1.1885  0.5795
 2513SOL    HW211071   2.873   5.407   0.118 -0.5586 -0.0644 -0.5352
 2514SOL     OW11072   6.850   9.599   3.079  0.3628  0.2115 -0.1449
 2514SOL    HW111073   6.847   9.688   3.113  0.3239  0.5432 -0.9929
 2514SOL    HW211074   6.853   9.609   2.984 -0.2462 -0.7004 -0.2806
 2515SOL     OW11075   7.316   9.622   9.824 -0.4975  0.0409  0.1637
 2515SOL    HW111076   7.392   9.669   9.859 -0.0836 -1.4356  1.3585
 2515SOL    HW211077   7.243   9.683   9.836  0.6432  2.0150 -2.2366
 2516SOL     OW11078   3.288   4.974   6.472  0.1743  0.0336 -0.2565
 2516SOL    HW111079   3.271   5.068   6.464 -0.8007 -0.2260 -1.4556
 2516SOL    HW211080   3.364   4.969   6.531 -1.3078  1.4194  1.9013
 2517SOL     OW11081   1.586   7.584  10.762  0.3646 -0.4498 -0.5198
 2517SOL    HW111082   1.621   7.660  10.716  1.2434 -0.2487  0.4443
 2517SOL    HW211083   1.570   7.616  10.851  0.0820 -1.2132 -0.2901
 2518SOL     OW11084   6.539   2.361   5.254  0.2658  0.0210  0.5313
 2518SOL    HW111085   6.606   2.300   5.287  2.1613  2.1848  0.9382
 2518SOL    HW211086   6.555   2.365   5.160 -0.7970 -1.1089  0.2715
 2519SOL     OW11087   1.925   9.267   1.619  0.0354 -0.0536 -0.2239
 2519SOL    HW111088   1.867   9.324   1.670  0.8524  0.1406  0.4922
 2519SOL    HW211089   1.868   9.195   1.590 -0.5451  0.0849  0.5535
 2520SOL     OW11090   0.939   3.387   8.030  0.4359 -0.0610 -0.3620
 2520SOL    HW111091   0.942   3.411   7.938 -0.6983  0.6983 -0.2206
 2520SOL    HW211092   0.860   3.333   8.039  2.0879 -2.6726 -0.3652
 2521SOL     OW11093   9.926   1.082  10.443 -0.0402 -0.3379 -0.1013
 2521SOL    HW111094   9.929   0.989  10.465 -0.5865 -0.3963 -0.2750
 2521SOL    HW211095   9.895   1.125  10.523  0.4669 -0.2705  0.0653
 2522SOL     OW11096   6.457   2.728   2.921  0.8450  0.3802  0.1631
 2522SOL    HW111097   6.490   2.667   2.854 -1.4643  1.4121 -2.0700
 2522SOL    HW211098   6.390   2.779   2.876 -0.5223  1.4874  3.1950
 2523SOL     OW11099   0.146  10.763   6.864 -0.3558 -0.0521 -0.1971
 2523SOL    HW111100   0.088  10.746   6.938  1.8018 -0.9977  1.4057
 2523SOL    HW211101   0.188  10.846   6.884 -0.1621 -0.0418 -0.6273
 2524SOL     OW11102   4.356   2.500   8.726 -0.2327  0.2968  0.0823
 2524SOL    HW111103   4.396   2.479   8.810 -0.8363 -0.4441  0.2046
 2524SOL    HW211104   4.410   2.570   8.690  0.0024  0.6608  1.1066
 2525SOL     OW11105   5.456   0.886   9.700 -0.0134  0.2131  0.0027
 2525SOL    HW111106   5.479   0.794   9.693  0.0138  0.3122 -1.3615
 2525SOL    HW211107   5.365   0.891   9.673 -0.0927  0.5524  0.3189
 2526SOL     OW11108   3.474   5.177   5.222 -0.3353 -0.4085 -0.3406
 2526SOL    HW111109   3.500   5.092   5.188  0.1694 -0.2996 -0.2371
 2526SOL    HW211110   3.509   5.180   5.311  0.0137  0.0692 -0.4872
 2527SOL     OW11111   0.367  10.251   5.317  0.0761 -0.2268  0.0677
 2527SOL    HW111112   0.376  10.255   5.221  0.1381 -0.5011  0.0610
 2527SOL    HW211113   0.390  10.161   5.339 -2.4604 -0.9161  0.0909
 2528SOL     OW11114   3.788   1.112   3.885 -0.1975 -0.5798 -0.0003
 2528SOL    HW111115   3.853   1.043   3.871 -0.9715 -1.0530 -1.4981
 2528SOL    HW211116   3.714   1.087   3.829 -0.3104  1.7444 -0.9940
 2529SOL     OW11117  10.699  10.122   7.858 -0.0057 -0.2262 -0.2319
 2529SOL    HW111118  10.757  10.161   7.924 -0.9244 -0.1982  0.5968
 2529SOL    HW211119  10.719  10.169   7.777  0.5001  0.3966  0.2413
 2530SOL     OW11120   4.826   5.388   5.422  0.0013 -0.7706  0.0153
 2530SOL    HW111121   4.737   5.413   5.394 -0.3864 -1.0702  0.9475
 2530SOL    HW211122   4.847   5.311   5.368 -0.5966 -1.1361  0.2899
 2531SOL     OW11123   4.874   5.211   8.198  0.5564  0.8409 -0.0225
 2531SOL    HW111124   4.862   5.306   8.203  1.4621  0.9155  1.8843
 2531SOL    HW211125   4.785   5.176   8.198  0.2024  1.6718 -1.0780
 2532SOL     OW11126   7.916   0.605   0.127 -0.2442 -0.5425  0.3293
 2532SOL    HW111127   7.902   0.515   0.098  1.0889 -0.5222 -0.4384
 2532SOL    HW211128   7.991   0.636   0.077 -2.2183  1.9020 -1.3846
 2533SOL     OW11129   6.638   1.620   3.153 -0.1268 -0.6280 -0.0507
 2533SOL    HW111130   6.569   1.624   3.087 -0.7276  0.4004  0.6210
 2533SOL    HW211131   6.593   1.607   3.236  0.4161  0.5532  0.4641
 2534SOL     OW11132  10.264   7.912   9.122  0.2812 -0.0159 -0.3646
 2534SOL    HW111133  10.280   7.968   9.197 -0.7096  0.5358 -0.5557
 2534SOL    HW211134  10.177   7.937   9.091  0.1016 -1.1982 -0.8549
 2535SOL     OW11135   0.628   9.914  10.576 -0.0508 -0.0073  0.2454
 2535SOL    HW111136   0.712   9.939  10.539 -0.3831 -0.7965 -1.0857
 2535SOL    HW211137   0.593   9.995  10.613  1.0705  0.4260  0.3831
 2536SOL     OW11138   6.413   5.156   5.721  0.4362 -0.1128  0.5537
 2536SOL    HW111139   6.319   5.167   5.704  0.8311  1.4250 -0.9423
 2536SOL    HW211140   6.447   5.119   5.640  1.2442  0.1710  0.7615
 2537SOL     OW11141   8.444   6.478   4.297 -0.0139 -0.1582 -0.2558
 2537SOL    HW111142   8.521   6.457   4.350 -0.7314  0.8388  1.2589
 2537SOL    HW211143   8.453   6.423   4.219  2.2023 -0.1041 -0.1198
 2538SOL     OW11144   0.524   9.228   6.814 -0.3257 -0.0484 -0.2643
 2538SOL    HW111145   0.545   9.310   6.858  0.7272 -0.1663 -0.5132
 2538SOL    HW211146   0.429   9.227   6.807 -0.2899  2.0935 -2.0171
 2539SOL     OW11147   4.631  10.835   1.090 -0.1363 -0.3022  0.2810
 2539SOL    HW111148   4.560  10.895   1.113 -0.0154 -0.2362  0.4886
 2539SOL    HW211149   4.710  10.877   1.126  0.1614  0.1647 -0.8828
 2540SOL     OW11150   9.024   1.418   4.611  0.2994 -0.1425  0.2184
 2540SOL    HW111151   8.990   1.374   4.690  1.2070 -0.8512  0.2353
 2540SOL    HW211152   8.977   1.502   4.609 -1.5587 -1.1201  0.1363
 2541SOL     OW11153   0.363   3.086   4.224  0.2402  0.3261 -0.5356
 2541SOL    HW111154   0.279   3.043   4.209 -0.4388  1.9659 -1.7753
 2541SOL    HW211155   0.394   3.110   4.136  1.0398  1.4798  0.0317
 2542SOL     OW11156   1.554   7.088   2.957 -0.6036 -0.5556  0.0594
 2542SOL    HW111157   1.581   7.177   2.980 -0.1933 -0.6737  0.0540
 2542SOL    HW211158   1.470   7.076   3.001 -0.1224 -0.5648  1.0208
 2543SOL     OW11159   8.584  10.887   0.893  0.2301  0.2778  0.3817
 2543SOL    HW111160   8.489  10.887   0.880  0.4078 -0.2479 -1.2116
 2543SOL    HW211161   8.598  10.944   0.969 -1.3533  0.3100  0.6921
 2544SOL     OW11162   7.023   6.937   2.530  0.0730 -0.0934  0.6657
 2544SOL    HW111163   7.065   6.981   2.605 -1.1462  1.8365  0.2777
 2544SOL    HW211164   7.094   6.926   2.467  0.1102  3.1675 -0.0065
 2545SOL     OW11165   8.598   3.844   7.367  0.3328  0.3492 -0.3666
 2545SOL    HW111166   8.594   3.792   7.287 -0.3150  0.2939 -0.3023
 2545SOL    HW211167   8.622   3.781   7.435 -1.1845 -0.0352 -0.1562
 2546SOL     OW11168   4.785   6.209   9.456 -0.7679  0.1415 -0.3393
 2546SOL    HW111169   4.780   6.153   9.534  0.6585  1.3360  0.6851
 2546SOL    HW211170   4.872   6.191   9.420 -1.7630 -1.1048 -2.2787
 2547SOL     OW11171   8.203   6.308   5.986 -0.2797  0.3181 -0.0722
 2547SOL    HW111172   8.252   6.358   6.051 -0.6317 -0.1165  0.5413
 2547SOL    HW211173   8.114   6.344   5.989 -0.2106  0.5524 -0.5947
 2548SOL     OW11174  10.183   5.429   7.700  0.2083  0.4546  0.1298
 2548SOL    HW111175  10.137   5.346   7.716 -1.7471  0.9207 -2.3862
 2548SOL    HW211176  10.150   5.488   7.769 -1.0817  0.0469 -0.1053
 2549SOL     OW11177   3.864   0.399   5.878  0.5052  0.1496  0.1682
 2549SOL    HW111178   3.897   0.486   5.902 -1.4280  1.7647 -2.4649
 2549SOL    HW211179   3.901   0.382   5.791 -0.0243 -1.1641  0.1733
 2550SOL     OW11180   9.028   7.757   1.068 -0.5384 -0.2182  0.0228
 2550SOL    HW111181   8.949   7.726   1.023 -0.2865 -0.0110 -0.5707
 2550SOL    HW211182   9.001   7.840   1.107 -0.1371  0.7661 -1.6998
 2551SOL     OW11183   8.828   5.884   3.910 -0.3695  0.2420  0.1564
 2551SOL    HW111184   8.758   5.897   3.975 -0.8190 -2.1078  0.2360
 2551SOL    HW211185   8.803   5.940   3.836 -2.7482 -0.9996 -0.0811
 2552SOL     OW11186   9.673  10.554   0.254  0.0364  0.0975  0.1848
 2552SOL    HW111187   9.643  10.463   0.262  0.5146 -0.1268 -0.5035
 2552SOL    HW211188   9.736  10.565   0.325 -1.7584  0.6305  1.7734
 2553SOL     OW11189   1.606   7.203  10.957 -0.6330 -0.2415 -0.1885
 2553SOL    HW111190   1.533   7.157  10.999  0.5794 -1.8505  0.2854
 2553SOL    HW211191   1.610   7.164  10.869  0.7089 -1.4953  0.3812
 2554SOL     OW11192   3.186   0.640   5.130 -0.3126  0.4172  0.3210
 2554SOL    HW111193   3.260   0.667   5.185  0.8584  1.0458 -1.4516
 2554SOL    HW211194   3.211   0.669   5.042 -1.4359 -1.8476 -0.8095
 2555SOL     OW11195   3.292   7.726   6.962  0.4637  0.9768  1.1967
 2555SOL    HW111196   3.208   7.772   6.960 -0.0286  0.0711 -0.5823
 2555SOL    HW211197   3.322   7.736   7.053 -1.5506  1.3292  1.8764
 2556SOL     OW11198   9.479   5.476   7.665  0.3214  0.1448 -0.2501
 2556SOL    HW111199   9.400   5.526   7.642  0.8095  0.4720 -1.2729
 2556SOL    HW211200   9.469   5.393   7.618 -0.0684 -0.3878  0.7453
 2557SOL     OW11201  10.196   5.896   3.499 -0.3421 -0.2491  0.2303
 2557SOL    HW111202  10.264   5.863   3.558 -0.0916 -2.5630 -1.2022
 2557SOL    HW211203  10.171   5.981   3.535  2.9024  0.4430  1.1279
 2558SOL     OW11204   0.413   7.321   5.831 -0.2772  0.0465  0.0764
 2558SOL    HW111205   0.356   7.253   5.794  0.3832 -0.0417 -0.8028
 2558SOL    HW211206   0.355   7.372   5.888 -1.2909  0.1192 -0.9955
 2559SOL     OW11207   0.227   9.249   3.507  0.9173 -0.5062  0.2988
 2559SOL    HW111208   0.135   9.263   3.529  1.2065  2.3867  0.1404
 2559SOL    HW211209   0.271   9.239   3.591  0.7923  1.0786  0.5897
 2560SOL     OW11210   7.045  10.965   7.965  0.3336 -0.2801  0.3909
 2560SOL    HW111211   6.979  10.920   8.019  0.6901 -0.1828  0.9184
 2560SOL    HW211212   6.993  11.014   7.901 -0.0575 -1.5130 -0.2692
 2561SOL     OW11213   5.578   3.952   8.611 -0.6545  0.6486  0.3331
 2561SOL    HW111214   5.544   3.949   8.522 -1.1518 -0.6056  0.5438
 2561SOL    HW211215   5.660   3.902   8.607 -0.4270  1.0035  0.4868
 2562SOL     OW11216   6.213   7.938   1.195 -0.2829  0.2737  0.0719
 2562SOL    HW111217   6.219   7.991   1.116  0.9566  0.4680  0.2801
 2562SOL    HW211218   6.194   8.000   1.265 -0.2486  0.2594  0.0943
 2563SOL     OW11219   4.190   3.277   6.689 -0.0918  0.2065 -0.4564
 2563SOL    HW111220   4.170   3.221   6.765  1.9398  0.1044  0.0825
 2563SOL    HW211221   4.152   3.231   6.615 -0.3239 -0.7895  0.2522
 2564SOL     OW11222   4.886  10.545   0.335 -0.6224 -0.0180  0.6527
 2564SOL    HW111223   4.910  10.552   0.243 -1.4672  0.2704  0.4417
 2564SOL    HW211224   4.839  10.462   0.341 -0.0052 -0.3478  0.9597
 2565SOL     OW11225   5.456   6.053   9.759 -0.5900  0.0030  0.2048
 2565SOL    HW111226   5.406   6.001   9.696 -1.5744  0.0368  0.9344
 2565SOL    HW211227   5.503   5.988   9.811  1.5840  0.0227 -1.5995
 2566SOL     OW11228   5.485   2.765   8.825  0.9487  0.8290 -0.5955
 2566SOL    HW111229   5.568   2.722   8.806 -0.0201 -0.5258 -2.0600
 2566SOL    HW211230   5.457   2.802   8.741 -1.3667 -1.4618 -0.9760
 2567SOL     OW11231   8.255   6.202   8.274 -0.3297 -0.5249  0.1808
 2567SOL    HW111232   8.339   6.220   8.231 -0.5029 -1.9518 -0.8020
 2567SOL    HW211233   8.276   6.138   8.341 -0.6295 -0.8707 -0.0550
 2568SOL     OW11234   7.573   0.215   7.011  0.2747 -0.3271  0.6541
 2568SOL    HW111235   7.600   0.298   6.972 -0.6822 -0.2260  0.1860
 2568SOL    HW211236   7.578   0.231   7.105 -0.4937  0.4627  0.5721
 2569SOL     OW11237   7.784   8.305   3.334 -0.0672 -0.0213 -0.2964
 2569SOL    HW111238   7.828   8.225   3.305 -0.7197 -0.0488 -1.2485
 2569SOL    HW211239   7.848   8.375   3.318  0.4282 -0.3199  0.3492
 2570SOL     OW11240   5.198   7.759   7.494 -0.0293  0.0675  0.0601
 2570SOL    HW111241   5.216   7.843   7.535 -0.1873  0.4119 -0.5686
 2570SOL    HW211242   5.280   7.736   7.450 -0.7149  1.0578 -1.7893
 2571SOL     OW11243   7.720   8.081  10.203  0.3483  0.2068  0.0075
 2571SOL    HW111244   7.714   8.067  10.108 -1.0631  1.1618 -0.0765
 2571SOL    HW211245   7.743   7.995  10.238  0.2937 -0.3107 -1.1560
 2572SOL     OW11246  10.375   2.470   3.772 -0.2717 -0.0198  0.2079
 2572SOL    HW111247  10.326   2.549   3.797 -2.0193 -0.4754 -1.5830
 2572SOL    HW211248  10.365   2.412   3.848  0.5596  1.2045  1.3159
 2573SOL     OW11249   3.214   6.741   5.777 -0.1856  0.1321 -0.1902
 2573SOL    HW111250   3.184   6.797   5.849 -0.4216 -0.8739  0.5048
 2573SOL    HW211251   3.301   6.711   5.803 -0.1307  0.0288 -0.4817
 2574SOL     OW11252   7.285  10.871   6.192 -0.7162 -0.0371 -0.3301
 2574SOL    HW111253   7.307  10.787   6.231 -1.5430  0.0779  0.4011
 2574SOL    HW211254   7.190  10.874   6.192 -0.6971  0.8807 -0.3897
 2575SOL     OW11255   7.235   0.486   4.908  0.2641  0.4209  0.6827
 2575SOL    HW111256   7.267   0.568   4.944 -0.9087  0.8648  0.7726
 2575SOL    HW211257   7.306   0.423   4.923  0.8565  1.2259  1.3296
 2576SOL     OW11258   3.903   5.673   7.043 -0.4975 -0.2641 -0.2711
 2576SOL    HW111259   3.834   5.718   7.091 -0.1625  0.4410 -0.4292
 2576SOL    HW211260   3.933   5.604   7.102 -0.5643  0.1542  0.2575
 2577SOL     OW11261   9.495   5.185   4.606  0.0514  0.3570  0.1132
 2577SOL    HW111262   9.512   5.261   4.661  0.8520 -0.3995  0.9291
 2577SOL    HW211263   9.581   5.157   4.575 -0.4450  1.9188 -3.2063
 2578SOL     OW11264   1.180   7.062   2.623 -0.2543 -0.4258 -0.4213
 2578SOL    HW111265   1.133   7.083   2.703  0.0838  1.4064 -0.6575
 2578SOL    HW211266   1.269   7.042   2.652  0.1114  1.1719 -0.4033
 2579SOL     OW11267   9.259   3.188   5.018 -0.6808  0.3765 -0.2141
 2579SOL    HW111268   9.351   3.195   5.043 -0.6449  0.1002 -0.2617
 2579SOL    HW211269   9.250   3.246   4.943  0.1542 -1.7527 -2.0979
 2580SOL     OW11270   3.383   7.375   6.039 -0.2576 -0.1704 -0.3994
 2580SOL    HW111271   3.412   7.426   5.964 -0.2152  0.3999 -0.0037
 2580SOL    HW211272   3.316   7.317   6.004 -0.4628  0.3111 -0.8244
 2581SOL     OW11273   8.654   6.817   2.052  0.2030 -0.2725 -0.0841
 2581SOL    HW111274   8.677   6.795   1.962  1.1930  0.1034  0.0578
 2581SOL    HW211275   8.734   6.799   2.102 -0.4039 -0.7024  0.7674
 2582SOL     OW11276   1.620   1.374   8.220  0.2778 -0.3837 -0.4419
 2582SOL    HW111277   1.604   1.296   8.273  1.6901 -0.6550 -0.3747
 2582SOL    HW211278   1.562   1.365   8.145 -2.1842  0.2732  1.2572
 2583SOL     OW11279   5.532   4.282   0.976  0.1246  0.2088  0.0620
 2583SOL    HW111280   5.534   4.277   0.880  0.0378 -1.3981  0.1052
 2583SOL    HW211281   5.448   4.324   0.996  0.7479  1.8282 -0.5658
 2584SOL     OW11282   0.281   8.111   6.258 -0.3572  0.2974  0.4750
 2584SOL    HW111283   0.369   8.110   6.220 -1.4222 -2.4097 -2.2340
 2584SOL    HW211284   0.277   8.031   6.310 -0.7302  1.2939  2.0603
 2585SOL     OW11285  10.371   9.452   3.759  0.2473 -0.3232  0.8692
 2585SOL    HW111286  10.356   9.397   3.836  2.4761  0.5676  2.0552
 2585SOL    HW211287  10.386   9.540   3.795  0.4371  0.3039 -0.6588
 2586SOL     OW11288   8.093   8.190   0.545 -0.2028 -0.0215  0.6206
 2586SOL    HW111289   8.179   8.193   0.504  0.0301 -2.4073  0.7721
 2586SOL    HW211290   8.101   8.247   0.621  0.7324  1.0307 -0.2443
 2587SOL     OW11291   6.342   4.227   4.147  0.3874 -0.7589  0.4473
 2587SOL    HW111292   6.268   4.188   4.099  0.4824 -2.1761  1.3807
 2587SOL    HW211293   6.305   4.251   4.232  0.3529  1.2182 -0.0881
 2588SOL     OW11294   3.819   6.590   8.262 -0.1215  0.0606  0.5372
 2588SOL    HW111295   3.797   6.599   8.354 -1.0926 -0.6909  0.3840
 2588SOL    HW211296   3.782   6.506   8.236  1.7119 -0.6113 -0.0917
 2589SOL     OW11297   6.120   2.914   9.984  0.1175 -0.0347  0.6121
 2589SOL    HW111298   6.131   2.901  10.078 -1.5764 -0.9604  0.7288
 2589SOL    HW211299   6.203   2.888   9.945  0.4384 -0.7630  1.7615
 2590SOL     OW11300   2.954   5.308   6.425 -0.0100  0.2260 -0.6447
 2590SOL    HW111301   2.921   5.394   6.452 -0.5111 -0.5050  1.2664
 2590SOL    HW211302   3.018   5.285   6.493  1.0456 -0.4093 -1.7939
 2591SOL     OW11303   1.412   3.893  10.620  0.3425 -0.2853 -0.6250
 2591SOL    HW111304   1.341   3.831  10.638  0.0210  0.4261  0.7390
 2591SOL    HW211305   1.449   3.864  10.536 -0.3280 -1.8077 -0.4368
 2592SOL     OW11306   6.620   6.268   1.157  0.1065  0.2882  0.0599
 2592SOL    HW111307   6.711   6.275   1.126 -0.6455 -0.6920 -2.6222
 2592SOL    HW211308   6.582   6.354   1.136 -0.3287 -0.2851 -1.6816
 2593SOL     OW11309   7.011   5.357   9.278  0.1276 -0.1940  0.0003
 2593SOL    HW111310   7.075   5.313   9.222 -0.4666  0.3000 -1.0994
 2593SOL    HW211311   7.006   5.302   9.356  0.0649 -1.6041 -0.9552
 2594SOL     OW11312   9.605   0.441   7.704 -0.1000  0.3415 -0.5467
 2594SOL    HW111313   9.533   0.419   7.645 -0.2756 -1.6398  0.3008
 2594SOL    HW211314   9.583   0.527   7.738 -0.8175  0.8225 -2.1212
 2595SOL     OW11315   2.927   6.573   5.386 -0.5790  0.4790  0.0310
 2595SOL    HW111316   3.012   6.602   5.355 -0.2653  1.6394  1.8325
 2595SOL    HW211317   2.946   6.505   5.450 -0.7958  2.2883  2.1324
 2596SOL     OW11318   1.544   5.180   4.749 -0.5910  0.0969  0.3863
 2596SOL    HW111319   1.488   5.257   4.738 -0.8461  0.5014  3.5345
 2596SOL    HW211320   1.487   5.106   4.727 -1.7689  0.6224  1.5328
 2597SOL     OW11321   9.008   8.212   3.048 -0.2676 -0.2893  0.4534
 2597SOL    HW111322   9.086   8.265   3.029  0.1017 -0.6171  1.0226
 2597SOL    HW211323   8.934   8.268   3.026  0.1015  0.7510  1.7676
 2598SOL     OW11324  10.736   2.657   0.144 -0.1450  0.1087 -0.3690
 2598SOL    HW111325  10.774   2.726   0.089 -0.3451 -0.0472 -0.7122
 2598SOL    HW211326  10.745   2.689   0.233 -1.2991  1.1192 -0.5868
 2599SOL     OW11327   7.908   5.759   9.798 -0.0360 -0.5447 -0.5275
 2599SOL    HW111328   7.882   5.759   9.890 -0.1051 -0.4762 -0.5468
 2599SOL    HW211329   7.856   5.829   9.759 -0.0288 -0.5941 -0.6247
 2600SOL     OW11330   7.341   3.151   5.862 -0.3827  0.2484 -0.4982
 2600SOL    HW111331   7.417   3.099   5.837  0.7920  0.8959  1.5130
 2600SOL    HW211332   7.360   3.239   5.828  0.1509  0.5838  0.6178
 2601SOL     OW11333  10.461   0.755   9.615  0.8250 -0.0737 -0.0898
 2601SOL    HW111334  10.375   0.780   9.648  1.5369 -0.2741  2.1214
 2601SOL    HW211335  10.522   0.812   9.662  1.8863  0.8120 -2.3906
 2602SOL     OW11336   3.858   8.605   0.293  0.1633  0.4580 -0.4435
 2602SOL    HW111337   3.863   8.646   0.207 -2.4132  1.3643 -0.2472
 2602SOL    HW211338   3.785   8.544   0.286  0.9737 -0.6970  0.6587
 2603SOL     OW11339   9.184   5.087   9.430 -0.5634  0.7400  0.1031
 2603SOL    HW111340   9.181   5.109   9.337  0.4852  1.0672  0.1229
 2603SOL    HW211341   9.260   5.029   9.438 -0.9825  0.2729  0.6651
 2604SOL     OW11342   1.231   7.787   3.140 -0.4520 -0.5406 -0.4317
 2604SOL    HW111343   1.314   7.827   3.166 -1.6630  1.8603 -0.0300
 2604SOL    HW211344   1.189   7.765   3.223 -1.2795  0.5744 -0.5446
 2605SOL     OW11345   4.961   0.811   0.512  0.3803  0.3468 -0.4616
 2605SOL    HW111346   4.948   0.747   0.442 -0.1871 -0.3849  0.2839
 2605SOL    HW211347   4.897   0.786   0.579 -0.1941  1.9863 -0.3456
 2606SOL     OW11348   3.710   5.885   9.812 -0.3969 -0.1876 -0.3033
 2606SOL    HW111349   3.623   5.869   9.775  0.0967 -0.8363 -1.2224
 2606SOL    HW211350   3.696   5.953   9.877 -1.6721 -0.6030 -0.1126
 2607SOL     OW11351   4.356   5.788   1.191 -0.1402  0.4812  0.0797
 2607SOL    HW111352   4.372   5.880   1.213  0.1128  0.6735 -0.8792
 2607SOL    HW211353   4.304   5.792   1.110  1.3086 -0.2228 -0.9235
 2608SOL     OW11354   2.420   4.491   4.899  0.1831 -0.9134 -0.5860
 2608SOL    HW111355   2.473   4.433   4.955  0.7756 -0.4227 -0.6229
 2608SOL    HW211356   2.386   4.556   4.960  0.4684 -0.6333 -0.7254
 2609SOL     OW11357  10.220   0.845   3.276  0.4606 -0.4242 -0.1067
 2609SOL    HW111358  10.297   0.836   3.332 -0.1409  2.4348  1.4090
 2609SOL    HW211359  10.229   0.931   3.236 -1.5851 -0.3089 -0.4450
 2610SOL     OW11360   8.878   0.380   9.141  0.0298  0.9060 -0.3630
 2610SOL    HW111361   8.884   0.465   9.099  0.2451  0.1512 -1.9098
 2610SOL    HW211362   8.925   0.320   9.083  1.7061  0.0667  1.7336
 2611SOL     OW11363   1.233   2.057   5.076 -0.0121  0.0534 -0.3517
 2611SOL    HW111364   1.287   2.062   4.997  0.0720 -2.2118 -0.5299
 2611SOL    HW211365   1.160   2.001   5.051 -1.0324  0.8922  0.6500
 2612SOL     OW11366  10.734   6.351   7.039  0.4165  0.0803  0.3790
 2612SOL    HW111367  10.661   6.358   7.099 -1.2494 -0.3163 -1.5033
 2612SOL    HW211368  10.801   6.304   7.088 -0.5127  0.5675  2.1921
 2613SOL     OW11369   6.830   4.435   1.435 -0.2117 -0.4836  0.2801
 2613SOL    HW111370   6.742   4.469   1.446  0.1568  1.4130 -1.7406
 2613SOL    HW211371   6.863   4.421   1.524 -1.8405  0.7327  1.1207
 2614SOL     OW11372   1.080   5.642   6.342 -0.2332 -0.0597  0.2492
 2614SOL    HW111373   1.005   5.699   6.327 -1.3915 -1.5574  0.1655
 2614SOL    HW211374   1.140   5.662   6.269 -0.7598  0.7742  0.0291
 2615SOL     OW11375   2.165   3.101   2.649 -1.0346  0.7896  0.4493
 2615SOL    HW111376   2.082   3.055   2.650 -0.7702  0.2132 -1.0891
 2615SOL    HW211377   2.230   3.035   2.625 -0.4062  1.5992 -0.1838
 2616SOL     OW11378  10.931   1.538   9.157  0.0089 -0.3924 -0.2872
 2616SOL    HW111379  10.866   1.553   9.225 -1.5903 -1.8708 -1.3918
 2616SOL    HW211380  10.947   1.624   9.119 -1.2233  0.0188  0.1016
 2617SOL     OW11381   5.769   7.750  10.638  0.1392  0.4732 -0.2259
 2617SOL    HW111382   5.706   7.784  10.574 -0.9983  0.0116  0.6041
 2617SOL    HW211383   5.768   7.655  10.624  0.7775  0.4748 -0.3089
 2618SOL     OW11384   5.339   1.079   8.904  0.7885 -0.5648  0.7625
 2618SOL    HW111385   5.398   1.043   8.838 -0.0078 -0.9777  0.2585
 2618SOL    HW211386   5.263   1.109   8.854  1.5934  2.3022  1.0709
 2619SOL     OW11387  10.865   6.202   9.995  0.1558  0.3810  0.2874
 2619SOL    HW111388  10.818   6.276  10.034  0.8414  1.7823 -1.4189
 2619SOL    HW211389  10.815   6.181   9.916  0.5768 -0.2866  0.1937
 2620SOL     OW11390   1.900  10.014  11.105 -0.6544 -0.3252  0.2157
 2620SOL    HW111391   1.940  10.000  11.191  2.8059  6.0207  0.2197
 2620SOL    HW211392   1.807  10.026  11.124 -0.3694 -1.2816  2.6184
 2621SOL     OW11393   9.592   7.356   1.121 -0.4004 -0.0350 -0.3940
 2621SOL    HW111394   9.601   7.301   1.198  1.4774  0.5958 -0.1048
 2621SOL    HW211395   9.507   7.398   1.130 -1.7213 -2.5472 -0.4357
 2622SOL     OW11396   3.639   0.317   0.266  0.1452 -0.3993 -0.1101
 2622SOL    HW111397   3.632   0.253   0.338  0.3303 -0.0119  0.2551
 2622SOL    HW211398   3.548   0.340   0.246  0.1039 -0.2935  0.1959
 2623SOL     OW11399   2.073   3.873  10.883  0.7624 -0.3287  0.2669
 2623SOL    HW111400   2.144   3.915  10.835 -0.8316  0.8155 -1.2435
 2623SOL    HW211401   2.051   3.796  10.831  1.4283 -1.1738  1.1974
 2624SOL     OW11402   1.538   5.069   1.244 -0.1923  0.1628 -0.1847
 2624SOL    HW111403   1.630   5.078   1.217 -0.3453  0.2362 -0.6788
 2624SOL    HW211404   1.488   5.094   1.167 -0.6334  0.5356  0.2220
 2625SOL     OW11405   8.890   2.364  10.933  0.1373 -0.3754 -0.0038
 2625SOL    HW111406   8.979   2.334  10.955 -0.4158 -1.4341  0.9062
 2625SOL    HW211407   8.862   2.304  10.864 -0.5325 -1.2251  0.9842
 2626SOL     OW11408   7.409  10.080   9.392 -0.6756  0.5833 -0.3180
 2626SOL    HW111409   7.318  10.110   9.388 -0.9465  0.0445  1.2782
 2626SOL    HW211410   7.403   9.987   9.414  0.2740  0.6438  0.2516
 2627SOL     OW11411   4.149   7.474   1.247 -0.5327 -0.3421 -0.2842
 2627SOL    HW111412   4.070   7.526   1.231 -0.4659 -0.2745 -0.3854
 2627SOL    HW211413   4.198   7.524   1.312 -0.8381 -0.6514  0.1993
 2628SOL     OW11414   9.728   2.703   8.629 -0.3198  0.3157  0.7196
 2628SOL    HW111415   9.802   2.675   8.574 -1.8301  0.5594 -1.5523
 2628SOL    HW211416   9.680   2.622   8.647 -1.7139  0.6251 -1.3105
 2629SOL     OW11417   2.512   2.418  10.542 -0.6764  0.0356 -0.1932
 2629SOL    HW111418   2.605   2.440  10.532 -1.1669  1.1842 -3.2222
 2629SOL    HW211419   2.477   2.487  10.597  0.2978 -0.6593  1.3641
 2630SOL     OW11420   8.976   6.701   2.930  0.0481  0.3775  0.0085
 2630SOL    HW111421   8.899   6.752   2.953  0.3911  0.4419  1.0733
 2630SOL    HW211422   8.953   6.611   2.951  0.0544  0.3212 -0.2267
 2631SOL     OW11423  10.979   2.852   3.392 -0.3440 -0.1826 -0.1444
 2631SOL    HW111424  10.908   2.863   3.328  0.1424 -0.5023 -0.7427
 2631SOL    HW211425  11.029   2.777   3.361 -0.8026 -1.1221  1.2790
 2632SOL     OW11426  10.579   1.729   0.455 -0.0191 -0.2853 -0.1458
 2632SOL    HW111427  10.630   1.782   0.516  1.9672 -0.6391 -1.3962
 2632SOL    HW211428  10.546   1.792   0.391 -0.7648 -0.1214  0.3858
 2633SOL     OW11429   6.792   0.911   5.717 -0.8499  0.3334 -0.2454
 2633SOL    HW111430   6.795   0.815   5.713  0.1437  0.3360  0.2176
 2633SOL    HW211431   6.872   0.940   5.672  0.1334  0.8590  1.7273
 2634SOL     OW11432   2.071   0.333   5.667  0.7878  0.1925 -0.5633
 2634SOL    HW111433   2.058   0.402   5.602  1.5072  1.7241  0.8472
 2634SOL    HW211434   2.089   0.255   5.615 -0.4021  0.9495 -2.2275
 2635SOL     OW11435   4.466   8.821   3.540 -0.4834  0.0552 -0.0345
 2635SOL    HW111436   4.513   8.758   3.486 -1.4211 -0.7136  0.0152
 2635SOL    HW211437   4.531   8.888   3.561  0.7225 -1.1951  0.4260
 2636SOL     OW11438   2.223   2.292  10.662 -0.1194 -0.2417  0.7259
 2636SOL    HW111439   2.220   2.328  10.573 -0.2760  0.6420  1.0864
 2636SOL    HW211440   2.192   2.362  10.718  1.2847 -0.3037  1.6378
 2637SOL     OW11441   7.042  10.591  10.312  0.5020 -0.1922  0.2798
 2637SOL    HW111442   7.119  10.613  10.260 -0.4534 -0.2184 -1.2153
 2637SOL    HW211443   7.041  10.655  10.383  1.4219  0.3525 -0.1887
 2638SOL     OW11444   5.952   9.942   9.486 -0.2716 -0.1794 -0.0271
 2638SOL    HW111445   5.862   9.964   9.460  0.6832  1.9986 -1.8698
 2638SOL    HW211446   6.004   9.959   9.408  1.8306 -0.9314  1.1387
 2639SOL     OW11447  10.076   8.207   5.813  1.0023  0.8734  0.2016
 2639SOL    HW111448  10.095   8.244   5.900  3.3127  0.2995  0.0053
 2639SOL    HW211449  10.126   8.263   5.753 -0.5187  1.2196 -0.7880
 2640SOL     OW11450   6.273   3.123   2.744  0.2075  0.4541 -0.2528
 2640SOL    HW111451   6.279   3.097   2.836 -0.8079 -1.6714 -0.7124
 2640SOL    HW211452   6.337   3.194   2.734  0.9783  0.1167  1.8690
 2641SOL     OW11453   0.435   7.610   8.334 -0.2007  0.0840 -1.1254
 2641SOL    HW111454   0.396   7.601   8.421  1.5127  0.7556 -0.2270
 2641SOL    HW211455   0.489   7.689   8.341  1.8629 -1.1675 -2.0176
 2642SOL     OW11456   5.899   0.393   6.088  0.3841 -0.1652 -0.2814
 2642SOL    HW111457   5.957   0.451   6.137  0.4064  1.3155 -1.9631
 2642SOL    HW211458   5.881   0.440   6.007 -1.9939 -1.2418 -0.4584
 2643SOL     OW11459   8.543   4.816  10.304 -0.1155 -0.2528  0.3674
 2643SOL    HW111460   8.623   4.823  10.252  0.1129 -3.5547  0.0592
 2643SOL    HW211461   8.482   4.769  10.248 -1.7646  0.7839  1.2078
 2644SOL     OW11462   7.282   2.230   5.257  0.4383  0.3648  0.3491
 2644SOL    HW111463   7.302   2.296   5.190  3.5928 -0.1278  0.6996
 2644SOL    HW211464   7.288   2.147   5.211  1.9198  0.0627  1.0409
 2645SOL     OW11465   5.773   8.159   3.712  0.1951  0.2150 -0.2671
 2645SOL    HW111466   5.823   8.101   3.654  1.2201 -0.5821  1.3606
 2645SOL    HW211467   5.824   8.240   3.713  0.1270  0.2641 -0.5333
 2646SOL     OW11468   1.427   6.890   4.127  0.3245 -0.6505  0.0198
 2646SOL    HW111469   1.466   6.955   4.068 -1.2677  1.8216  1.4959
 2646SOL    HW211470   1.477   6.898   4.208 -1.9046  1.3265  1.3499
 2647SOL     OW11471  10.202   0.961   2.049 -0.1405 -0.0323  0.2429
 2647SOL    HW111472  10.126   0.953   1.990 -0.1921 -1.3944  0.4671
 2647SOL    HW211473  10.268   0.904   2.010  0.0381 -0.4763  1.1745
 2648SOL     OW11474   8.123   0.596   7.193  0.6070 -0.3998 -0.1554
 2648SOL    HW111475   8.170   0.584   7.276 -0.5893  0.1042  0.6254
 2648SOL    HW211476   8.140   0.515   7.144  3.7006  0.4510 -0.6926
 2649SOL     OW11477   9.803   8.249   9.591 -0.5586 -0.7151  0.3842
 2649SOL    HW111478   9.847   8.318   9.642 -0.3625 -0.5193 -0.0518
 2649SOL    HW211479   9.710   8.271   9.597 -0.4840 -0.2946  0.0826
 2650SOL     OW11480   7.390   6.291   6.189  0.3748 -0.6352 -0.7135
 2650SOL    HW111481   7.297   6.286   6.168  0.2040 -3.7847  0.3145
 2650SOL    HW211482   7.394   6.343   6.269 -0.0774  2.1920 -2.4069
 2651SOL     OW11483   8.607   8.284   0.958  0.5010 -0.1143 -0.0886
 2651SOL    HW111484   8.534   8.233   0.923  0.7826  0.5904 -1.7907
 2651SOL    HW211485   8.685   8.238   0.928  0.7696  1.4417 -1.9886
 2652SOL     OW11486   4.645  10.687   9.884  0.1431 -0.1447  0.1969
 2652SOL    HW111487   4.724  10.645   9.917 -0.2320 -0.9657  0.0948
 2652SOL    HW211488   4.649  10.674   9.789  0.1057  0.1958  0.1493
 2653SOL     OW11489   1.405   9.723   7.607 -0.1435  0.0810  0.5012
 2653SOL    HW111490   1.409   9.636   7.568  0.9743  0.3711 -0.0643
 2653SOL    HW211491   1.330   9.765   7.565  1.5126  0.6811 -2.0660
 2654SOL     OW11492   7.384   1.810   7.816 -0.1763 -0.2325  0.1269
 2654SOL    HW111493   7.312   1.870   7.797 -0.2459 -0.3326  0.0728
 2654SOL    HW211494   7.373   1.739   7.752  1.4514  0.9910 -1.6424
 2655SOL     OW11495   1.237   4.319   8.696  0.1749 -0.6474 -0.0935
 2655SOL    HW111496   1.284   4.304   8.614  1.3395 -0.1162  0.4585
 2655SOL    HW211497   1.303   4.353   8.756 -1.0592  0.8053  0.5051
 2656SOL     OW11498  11.045  11.020   7.535  0.4959  0.1404 -0.0114
 2656SOL    HW111499  10.998  10.978   7.607  0.2523 -0.2312 -0.3748
 2656SOL    HW211500  10.978  11.072   7.490  0.8742  1.2403  0.6546
 2657SOL     OW11501   5.876   3.836   4.279  0.1848 -0.3756  0.0364
 2657SOL    HW111502   5.843   3.900   4.342 -2.6931 -1.4702 -0.1843
 2657SOL    HW211503   5.842   3.866   4.194  1.5646 -0.4823 -0.5811
 2658SOL     OW11504   7.789   7.060  10.453 -0.3424 -0.2076  0.4327
 2658SOL    HW111505   7.859   7.104  10.501 -0.5560 -0.0610  0.6098
 2658SOL    HW211506   7.718   7.124  10.449 -0.8970 -0.7586  1.2488
 2659SOL     OW11507   2.512   1.558   7.535 -0.1845  0.3879 -0.2149
 2659SOL    HW111508   2.584   1.588   7.480  0.7701 -2.8128 -0.9191
 2659SOL    HW211509   2.543   1.571   7.625  0.2992  1.0902 -0.4752
 2660SOL     OW11510   5.306   8.653   2.893 -0.3858  0.0736  0.5429
 2660SOL    HW111511   5.297   8.566   2.856 -1.0360  0.6843 -0.8417
 2660SOL    HW211512   5.238   8.658   2.960  0.8508 -1.0749  1.9313
 2661SOL     OW11513  10.145   0.061   7.955  0.5368 -0.1543  0.1587
 2661SOL    HW111514  10.159   0.116   8.032  1.7785 -0.6984  0.3360
 2661SOL    HW211515  10.144   0.122   7.882 -1.6775  0.4954  0.6474
 2662SOL     OW11516   3.673   5.929   0.930  0.0890  0.3665 -0.8154
 2662SOL    HW111517   3.627   5.922   0.847  1.7964 -2.4169 -1.6503
 2662SOL    HW211518   3.720   5.847   0.939  1.7554  1.4630  1.8647
 2663SOL     OW11519  10.262   0.112   3.347  0.2793 -0.0531 -1.2476
 2663SOL    HW111520  10.170   0.139   3.345 -0.2004 -1.3712  0.4464
 2663SOL    HW211521  10.296   0.149   3.428  0.2655 -2.3403 -0.1245
 2664SOL     OW11522   5.953   7.041   7.301 -0.4871 -0.2127  0.0645
 2664SOL    HW111523   5.925   6.959   7.342 -0.3901  0.3737  1.3462
 2664SOL    HW211524   5.928   7.109   7.364 -0.3309  0.7203 -0.8642
 2665SOL     OW11525   9.273  10.632   5.400 -0.5580  0.1241 -0.1764
 2665SOL    HW111526   9.221  10.711   5.388 -0.6207  0.2295  0.7886
 2665SOL    HW211527   9.314  10.642   5.485 -1.8708 -1.6012  0.7258
 2666SOL     OW11528   7.445   4.575  10.996  0.2478  0.3355  0.7925
 2666SOL    HW111529   7.475   4.500  10.944  1.2705 -0.2056  2.0976
 2666SOL    HW211530   7.454   4.650  10.937  1.0054 -0.3066  0.0586
 2667SOL     OW11531   9.321   1.340  10.568 -0.3061 -1.2759  0.1924
 2667SOL    HW111532   9.390   1.343  10.634  1.1331 -0.1872 -1.2634
 2667SOL    HW211533   9.345   1.409  10.506 -2.8291 -0.7234 -0.2912
 2668SOL     OW11534   1.970   7.697   0.881  0.4639 -0.5115  0.3590
 2668SOL    HW111535   1.894   7.753   0.862  1.0929  0.4978  0.7467
 2668SOL    HW211536   1.934   7.628   0.937  0.0189  0.5673  1.4521
 2669SOL     OW11537  10.717   3.107   0.716 -0.5256 -0.1011 -0.7067
 2669SOL    HW111538  10.663   3.032   0.743 -1.3798  0.8809  0.4475
 2669SOL    HW211539  10.802   3.090   0.756 -1.0687  0.1088  0.6068
 2670SOL     OW11540   4.158   8.734   5.042 -0.1411  0.0684 -0.2470
 2670SOL    HW111541   4.140   8.641   5.057  0.1573  0.1629  0.8002
 2670SOL    HW211542   4.243   8.735   4.997 -0.4936 -0.1892 -0.9243
 2671SOL     OW11543   7.428   0.803  10.513  0.2563  0.2241 -0.3890
 2671SOL    HW111544   7.410   0.757  10.431  0.5794  0.8499 -0.8162
 2671SOL    HW211545   7.389   0.889  10.502 -2.7015 -0.7536  1.4185
 2672SOL     OW11546   1.820   1.006  10.094 -0.0449  0.1297  0.7399
 2672SOL    HW111547   1.887   1.001  10.162  0.1184  0.9615  0.6560
 2672SOL    HW211548   1.867   0.992  10.012 -0.1898 -0.5674  0.7764
 2673SOL     OW11549   9.406   1.476   7.065 -0.2807 -0.3935 -0.4843
 2673SOL    HW111550   9.492   1.450   7.096  0.0353  1.8422  0.7388
 2673SOL    HW211551   9.423   1.532   6.990 -0.4827  1.5691  0.8615
 2674SOL     OW11552   1.442   5.865   8.473  0.1665 -0.1045 -0.5025
 2674SOL    HW111553   1.448   5.948   8.426 -0.9891  0.3867  0.1644
 2674SOL    HW211554   1.487   5.802   8.417  0.3523  0.8036 -1.4107
 2675SOL     OW11555   1.123   6.246   8.211  0.5566  0.7639 -0.3266
 2675SOL    HW111556   1.048   6.306   8.215 -0.9478 -1.0077 -0.8835
 2675SOL    HW211557   1.113   6.188   8.286  2.0468  1.1940  0.2565
 2676SOL     OW11558   3.381   0.052   3.103  0.1102  0.1710 -0.2922
 2676SOL    HW111559   3.464   0.013   3.078  0.7729  1.6701 -0.5334
 2676SOL    HW211560   3.392   0.080   3.193  0.1598  1.0770 -0.5659
 2677SOL     OW11561   0.920   1.799  10.714  0.0828 -0.5204  0.0388
 2677SOL    HW111562   0.998   1.774  10.763  0.1225 -1.3722 -0.4451
 2677SOL    HW211563   0.907   1.891  10.737  1.9997  0.0404 -0.8839
 2678SOL     OW11564   9.514   7.327   0.113  0.2987  0.1386 -0.3642
 2678SOL    HW111565   9.444   7.268   0.084 -0.9653  0.8885  0.9995
 2678SOL    HW211566   9.475   7.414   0.107  1.2639  0.6048  0.0386
 2679SOL     OW11567   8.070   9.051   2.362  0.2714  0.1182  0.6376
 2679SOL    HW111568   7.984   9.009   2.365  0.7987 -0.9832  0.9406
 2679SOL    HW211569   8.110   9.018   2.282 -0.2148  1.9828 -0.4448
 2680SOL     OW11570   9.049  10.228   7.032  0.1097 -0.0731 -0.6748
 2680SOL    HW111571   9.128  10.231   6.978 -0.4096  2.4992 -1.4291
 2680SOL    HW211572   8.976  10.228   6.969 -0.5491 -2.1097  0.0139
 2681SOL     OW11573   4.303   5.267   5.175 -0.4889  0.4492 -0.5570
 2681SOL    HW111574   4.274   5.322   5.247 -1.4640 -2.5350  1.5121
 2681SOL    HW211575   4.225   5.253   5.122 -0.5126  0.1581 -0.4460
 2682SOL     OW11576   3.330   7.838   1.695  0.1868 -0.8439  0.3059
 2682SOL    HW111577   3.401   7.774   1.692  0.6651 -0.3906  1.3151
 2682SOL    HW211578   3.287   7.821   1.779  0.2579  0.0821  0.5363
 2683SOL     OW11579  10.124   3.507   4.606 -0.2416  0.6706  0.4032
 2683SOL    HW111580  10.093   3.596   4.585  0.3738  1.1323  1.3905
 2683SOL    HW211581  10.133   3.465   4.520  0.5170  1.9211 -0.1691
 2684SOL     OW11582   8.882   5.096   4.184  0.5581  0.3253  0.0631
 2684SOL    HW111583   8.870   5.145   4.102  0.6610  0.5214  0.1666
 2684SOL    HW211584   8.869   5.160   4.253 -1.1947 -0.1874  0.2418
 2685SOL     OW11585   5.320   5.518   3.676 -0.0597  0.2568 -0.2538
 2685SOL    HW111586   5.365   5.602   3.683 -1.4973  1.0343 -0.1279
 2685SOL    HW211587   5.372   5.459   3.732  1.6609  0.7137 -1.2838
 2686SOL     OW11588   5.886   5.541   3.302  0.3730  0.4825  0.0154
 2686SOL    HW111589   5.818   5.483   3.336  1.0677 -0.6588 -0.4793
 2686SOL    HW211590   5.959   5.529   3.363  1.0832 -0.3982 -0.9867
 2687SOL     OW11591  10.498   3.416   1.171  1.1121 -0.1141  0.5301
 2687SOL    HW111592  10.448   3.498   1.177  0.5513 -0.2711 -1.3073
 2687SOL    HW211593  10.446   3.353   1.222  0.7205  0.3244  0.6800
 2688SOL     OW11594   1.303   5.675   0.330  0.4511 -0.0423  0.5749
 2688SOL    HW111595   1.244   5.722   0.388  0.3427 -2.3039  2.4420
 2688SOL    HW211596   1.375   5.736   0.314  0.1466  0.9069  2.5658
 2689SOL     OW11597   0.324   6.773   3.848 -0.2396 -0.6036 -0.0067
 2689SOL    HW111598   0.296   6.773   3.757 -0.6619 -1.3470  0.1212
 2689SOL    HW211599   0.409   6.729   3.848 -0.6110 -1.3226  0.0697
 2690SOL     OW11600   5.232   0.487   1.990 -0.2051 -0.6409 -0.1335
 2690SOL    HW111601   5.252   0.414   2.049 -0.4005 -1.3824 -0.9679
 2690SOL    HW211602   5.306   0.489   1.930  0.3948  0.6362  0.6145
 2691SOL     OW11603   0.039   3.285   1.424 -0.2037 -0.5985 -0.1652
 2691SOL    HW111604  -0.033   3.348   1.431 -0.3467 -0.8074  0.2539
 2691SOL    HW211605   0.010   3.210   1.476 -0.7496 -1.6881 -1.9333
 2692SOL     OW11606   4.069   7.886   7.881  0.0217 -0.0674  0.1893
 2692SOL    HW111607   4.100   7.972   7.908  0.2495 -0.4038  1.0168
 2692SOL    HW211608   4.147   7.830   7.884 -0.2888 -0.4954  0.5044
 2693SOL     OW11609   0.679   4.997   6.600  0.0580  0.3606  0.1790
 2693SOL    HW111610   0.684   5.067   6.535 -0.2480  2.2677  2.1103
 2693SOL    HW211611   0.586   4.983   6.614  0.1193  0.4937  0.7396
 2694SOL     OW11612   8.394   8.357   9.637 -0.0448  0.1597  0.0067
 2694SOL    HW111613   8.463   8.343   9.702 -1.4732 -0.2452  1.5022
 2694SOL    HW211614   8.400   8.450   9.616  1.5906 -0.0649 -0.6818
 2695SOL     OW11615   5.464   9.838   9.094  0.5482  0.5217  0.2081
 2695SOL    HW111616   5.443   9.789   9.173 -0.0602 -0.5259 -0.5802
 2695SOL    HW211617   5.428   9.926   9.110 -2.9419 -0.6601 -0.3238
 2696SOL     OW11618   0.615   4.957   4.756  0.0296  0.1125  0.7381
 2696SOL    HW111619   0.600   5.013   4.679  2.0090 -1.0503 -0.6045
 2696SOL    HW211620   0.552   4.886   4.747  0.4174 -0.1505  0.0241
 2697SOL     OW11621   3.759   7.327   9.264  0.0283 -0.3584  0.3266
 2697SOL    HW111622   3.775   7.421   9.260 -0.5184 -0.2169  1.1933
 2697SOL    HW211623   3.800   7.300   9.347  2.1390 -1.3001 -0.9354
 2698SOL     OW11624   0.559  10.505   6.467  0.2965  0.8675  0.0064
 2698SOL    HW111625   0.543  10.510   6.561  0.9595 -1.3741  0.3039
 2698SOL    HW211626   0.494  10.442   6.435  1.7923 -0.5044 -0.5083
 2699SOL     OW11627   8.494   2.424   8.657 -0.0293  0.2282 -0.0986
 2699SOL    HW111628   8.529   2.427   8.568  1.3672  1.6297  0.4570
 2699SOL    HW211629   8.532   2.345   8.695  1.8512  1.2127  0.1804
 2700SOL     OW11630   3.459   6.208   8.890 -0.1239  0.1397 -0.9104
 2700SOL    HW111631   3.418   6.161   8.817 -1.1842 -1.5562  0.6762
 2700SOL    HW211632   3.547   6.171   8.896 -0.4390 -0.5915 -0.6256
 2701SOL     OW11633   0.268   6.256  10.275  1.0220  0.1524  0.0572
 2701SOL    HW111634   0.204   6.231  10.209  0.1076 -1.3192  1.4279
 2701SOL    HW211635   0.353   6.244  10.231  0.4464  2.1789 -1.7899
 2702SOL     OW11636   5.898   2.749  10.309 -0.7255  0.2535 -0.2246
 2702SOL    HW111637   5.885   2.839  10.278  0.1347  0.3333 -0.3797
 2702SOL    HW211638   5.850   2.695  10.245 -3.1775  0.6977  1.1153
 2703SOL     OW11639   9.396   3.740   4.926  0.1271  0.1040  0.1528
 2703SOL    HW111640   9.418   3.700   5.011 -2.0191  0.1892  0.8086
 2703SOL    HW211641   9.328   3.804   4.947  0.2651  0.8405 -1.5274
 2704SOL     OW11642   3.666   9.629   7.221 -0.5799 -0.5302 -0.0623
 2704SOL    HW111643   3.708   9.625   7.307 -0.4634  0.7340 -0.0421
 2704SOL    HW211644   3.717   9.694   7.172 -1.0244 -0.7776 -0.8816
 2705SOL     OW11645  10.377   0.671   1.959 -0.2686 -0.2258 -0.3968
 2705SOL    HW111646  10.442   0.645   2.024 -1.2245 -1.1745  0.2191
 2705SOL    HW211647  10.426   0.681   1.878  0.7042 -0.5061  0.1496
 2706SOL     OW11648   2.348  11.002  10.564 -0.4287 -0.2669 -0.3012
 2706SOL    HW111649   2.287  11.056  10.513 -0.6981 -0.5581 -0.2875
 2706SOL    HW211650   2.371  11.057  10.639  2.0677  1.2896 -2.0319
 2707SOL     OW11651  10.043   0.615  10.595 -0.2735  0.2517  0.0074
 2707SOL    HW111652  10.008   0.614  10.684 -3.3400  0.6919 -1.0899
 2707SOL    HW211653  10.070   0.524  10.579 -4.6433 -1.2435 -0.2762
 2708SOL     OW11654   3.803   9.883   5.642 -0.0782  0.0929  0.1928
 2708SOL    HW111655   3.827   9.975   5.628  0.7652 -0.2390 -0.6528
 2708SOL    HW211656   3.708   9.885   5.655 -0.0138  1.1219  0.5940
 2709SOL     OW11657   1.091   6.698   9.924  0.5208  0.0702  0.5461
 2709SOL    HW111658   1.116   6.720  10.014  1.6800  0.0787  0.2359
 2709SOL    HW211659   1.117   6.774   9.872 -0.1018  0.0453  0.1915
 2710SOL     OW11660   2.555   9.013   3.201 -0.8255  0.4298  0.0243
 2710SOL    HW111661   2.518   9.100   3.190  1.6186  1.5149 -0.3173
 2710SOL    HW211662   2.523   8.963   3.126 -0.9752  1.5136 -0.6487
 2711SOL     OW11663   9.969   1.345  10.005  0.6784 -0.2339  0.1190
 2711SOL    HW111664   9.998   1.352  10.096  1.0364 -0.8768  0.0578
 2711SOL    HW211665   9.874   1.333  10.012  0.7988 -1.0528  0.4495
 2712SOL     OW11666   5.035   3.777   1.209 -0.4387  0.2520  0.0525
 2712SOL    HW111667   5.088   3.809   1.282 -0.7099 -1.1016  0.8922
 2712SOL    HW211668   5.094   3.721   1.159 -0.6725 -0.0593  0.1246
 2713SOL     OW11669   0.421   5.502   3.589  0.3096  0.1564 -0.0162
 2713SOL    HW111670   0.512   5.483   3.613  0.4286  0.1788 -0.4402
 2713SOL    HW211671   0.407   5.592   3.619  0.5011  0.2347 -0.1621
 2714SOL     OW11672   3.003   2.959   5.430  0.4509 -0.1850  0.2939
 2714SOL    HW111673   3.091   2.995   5.420  0.6936 -1.2404 -2.0672
 2714SOL    HW211674   3.013   2.866   5.409 -1.0726 -0.5324  0.9656
 2715SOL     OW11675   5.408   9.049   6.129  0.3604  0.0865  0.3618
 2715SOL    HW111676   5.319   9.062   6.162  0.0532 -0.4135 -0.2394
 2715SOL    HW211677   5.420   9.118   6.064  0.6585  0.5564  0.9067
 2716SOL     OW11678   9.937   6.066   2.329  0.2250  0.2918  0.5340
 2716SOL    HW111679   9.911   6.135   2.268  0.1541 -1.2372 -1.2738
 2716SOL    HW211680  10.009   6.104   2.379  1.8445  0.9480 -2.0760
 2717SOL     OW11681   3.363   0.751   8.882  0.1839 -0.0914 -0.4579
 2717SOL    HW111682   3.311   0.801   8.819  0.4655  0.2498 -0.4159
 2717SOL    HW211683   3.333   0.660   8.870 -0.8047  0.1644 -0.0705
 2718SOL     OW11684   8.726   1.894   9.441  0.8842  0.2219  0.0287
 2718SOL    HW111685   8.691   1.962   9.498 -0.0278  1.1714 -1.5846
 2718SOL    HW211686   8.762   1.829   9.500 -0.9004  0.6740  1.7176
 2719SOL     OW11687   1.968   5.688   2.049  0.4520 -0.2725  0.2508
 2719SOL    HW111688   1.915   5.656   2.122  0.5817  0.1423  0.5295
 2719SOL    HW211689   1.904   5.713   1.982  0.2879  0.2747  0.6040
 2720SOL     OW11690   5.670   3.883   1.390 -0.3996  0.4318 -0.3011
 2720SOL    HW111691   5.588   3.867   1.437  0.6863 -0.2183  1.4961
 2720SOL    HW211692   5.684   3.804   1.339 -0.3298  0.0422  0.3080
 2721SOL     OW11693   6.567   4.616   0.664  0.0924 -0.0083  0.2510
 2721SOL    HW111694   6.656   4.604   0.631 -0.1867  0.4587 -0.7512
 2721SOL    HW211695   6.568   4.580   0.752  1.7451  1.5828  0.9491
 2722SOL     OW11696   0.274   1.913   4.607  0.3737 -0.4577  0.2896
 2722SOL    HW111697   0.231   1.919   4.692 -0.5702  0.4757 -0.2307
 2722SOL    HW211698   0.212   1.866   4.552  1.4884 -2.1545  0.3952
 2723SOL     OW11699   6.080   5.595  11.019 -0.2947  0.0773  0.1752
 2723SOL    HW111700   6.165   5.614  11.057  0.2468  0.5081 -1.1974
 2723SOL    HW211701   6.097   5.527  10.954 -1.1473 -0.4638  0.5074
 2724SOL     OW11702   8.877   0.634   0.039 -0.1082  0.2799 -0.2061
 2724SOL    HW111703   8.955   0.673  -0.001  0.0275 -0.4461 -0.6692
 2724SOL    HW211704   8.865   0.684   0.120  1.6856 -0.5047  0.6012
 2725SOL     OW11705   6.340   0.913   7.905  0.2532 -0.0066 -0.0149
 2725SOL    HW111706   6.315   0.826   7.873  0.3369 -0.1840  0.3963
 2725SOL    HW211707   6.435   0.908   7.917  0.7887  1.0843 -2.8833
 2726SOL     OW11708   8.318   7.681   5.048 -0.1673 -0.1756 -0.3102
 2726SOL    HW111709   8.264   7.749   5.008  2.6726  0.7520 -2.9597
 2726SOL    HW211710   8.407   7.715   5.044  1.1394 -3.1695  0.2625
 2727SOL     OW11711   6.738   6.248   7.553  0.0279  0.3173  0.0749
 2727SOL    HW111712   6.696   6.306   7.618 -0.8102 -2.5697  2.3308
 2727SOL    HW211713   6.805   6.202   7.603 -2.1358 -3.6706 -0.3491
 2728SOL     OW11714   9.353   7.340   5.198 -0.2896 -0.0884  0.1012
 2728SOL    HW111715   9.267   7.326   5.238  1.1757  1.2211  4.3222
 2728SOL    HW211716   9.392   7.252   5.193 -1.2691 -0.5063 -0.2742
 2729SOL     OW11717   7.120   8.917   9.793 -0.1007  0.6050 -0.1792
 2729SOL    HW111718   7.126   9.011   9.810  1.3748  0.7394 -1.3013
 2729SOL    HW211719   7.206   8.883   9.815  0.1539 -0.0769 -2.1017
 2730SOL     OW11720   3.361   4.440   9.048  0.2037  0.3491 -0.3101
 2730SOL    HW111721   3.305   4.402   8.981 -0.2851  0.6763 -0.0896
 2730SOL    HW211722   3.301   4.480   9.110  0.6174 -0.4311  0.6285
 2731SOL     OW11723   5.607   8.570   1.249  0.0204 -0.0019  0.2362
 2731SOL    HW111724   5.699   8.576   1.223  0.1567 -1.2085  0.3744
 2731SOL    HW211725   5.563   8.531   1.174 -0.2710  0.0033  0.4007
 2732SOL     OW11726   6.175   3.436   8.277  0.0986 -0.1330 -0.4526
 2732SOL    HW111727   6.248   3.407   8.331  0.3553 -1.4248 -1.4593
 2732SOL    HW211728   6.098   3.393   8.316  0.4023 -1.8165 -1.5954
 2733SOL     OW11729   2.954   0.529   3.883  0.4541 -0.3942  0.2793
 2733SOL    HW111730   2.907   0.497   3.806  0.8589 -1.4614  0.4533
 2733SOL    HW211731   3.038   0.560   3.848  0.3001 -0.0651  0.1912
 2734SOL     OW11732   5.732   1.842   0.798 -0.0345  0.1767  0.6556
 2734SOL    HW111733   5.809   1.897   0.780  0.2287 -0.3691  0.0494
 2734SOL    HW211734   5.762   1.753   0.780 -0.5551 -0.1356  1.2934
 2735SOL     OW11735   0.767   5.325   6.134  0.6320  0.4514 -0.5033
 2735SOL    HW111736   0.849   5.322   6.183  1.2793 -2.2604 -1.5475
 2735SOL    HW211737   0.794   5.328   6.042 -0.5104  1.8032 -0.8319
 2736SOL     OW11738   4.358   3.511   3.596 -0.1537 -0.5591  0.0857
 2736SOL    HW111739   4.449   3.493   3.575 -0.6572 -1.0831 -1.9291
 2736SOL    HW211740   4.335   3.587   3.542 -1.1237 -0.9722 -0.1190
 2737SOL     OW11741   8.833   8.693   9.399  0.0874 -0.2745  0.4708
 2737SOL    HW111742   8.850   8.766   9.459  1.3078  0.1743 -0.4017
 2737SOL    HW211743   8.737   8.688   9.395 -0.0532  1.9651 -0.2485
 2738SOL     OW11744   8.095   9.162   8.932 -0.2470  0.1468 -0.2173
 2738SOL    HW111745   8.103   9.212   9.013 -0.4437  0.8168 -0.6033
 2738SOL    HW211746   8.002   9.165   8.911 -0.2396 -0.2661 -0.3227
 2739SOL     OW11747  10.252   6.089   1.738  0.3944  0.1178  0.4078
 2739SOL    HW111748  10.231   6.106   1.830 -1.3035  1.6727 -0.1927
 2739SOL    HW211749  10.179   6.035   1.707  1.7437 -1.7205  0.3112
 2740SOL     OW11750   3.935   3.058   3.606  0.4970 -0.6081  0.1902
 2740SOL    HW111751   3.916   2.978   3.656 -0.7630 -0.7108 -0.3988
 2740SOL    HW211752   3.979   3.116   3.668 -0.8108 -0.8286  1.3669
 2741SOL     OW11753   7.432   9.331   7.848  0.5541 -0.2629  0.3476
 2741SOL    HW111754   7.361   9.314   7.911  0.1945 -1.0241 -0.2360
 2741SOL    HW211755   7.458   9.244   7.818 -0.4283  0.1096 -1.7874
 2742SOL     OW11756  11.064   6.799   3.903  0.2508 -0.2581  0.3036
 2742SOL    HW111757  10.973   6.797   3.932  0.2974 -0.7978  0.4400
 2742SOL    HW211758  11.105   6.869   3.954 -0.0115 -0.2390  0.4875
 2743SOL     OW11759   7.302   8.243   3.014  0.0997  0.0738  0.0203
 2743SOL    HW111760   7.252   8.223   3.093 -0.1269  0.2626 -0.0751
 2743SOL    HW211761   7.387   8.271   3.046 -0.2084  0.7925  0.2251
 2744SOL     OW11762   5.518   6.948   8.832 -0.3656  0.4512 -0.7827
 2744SOL    HW111763   5.568   6.902   8.765 -0.7943 -0.0722 -0.7472
 2744SOL    HW211764   5.442   6.893   8.848 -0.6103  0.9037 -0.3457
 2745SOL     OW11765   9.039   6.591   7.159 -0.1944 -0.2727  0.5875
 2745SOL    HW111766   9.076   6.599   7.246  1.4789 -0.0855 -0.1070
 2745SOL    HW211767   9.106   6.545   7.108 -0.9242  0.0457 -0.7184
 2746SOL     OW11768   5.627  10.062   3.372  0.3481  0.1865  0.4806
 2746SOL    HW111769   5.721  10.066   3.354  0.3192  0.1408  0.3212
 2746SOL    HW211770   5.593   9.999   3.309  0.1928  0.2851  0.4659
 2747SOL     OW11771   4.837   6.263   4.357  0.3162 -0.8425  0.2952
 2747SOL    HW111772   4.911   6.205   4.374  1.4765  0.6843  0.7201
 2747SOL    HW211773   4.792   6.224   4.282  1.1146 -2.1995  0.4909
 2748SOL     OW11774   9.787  11.080   8.677 -0.3087  0.4789 -0.6630
 2748SOL    HW111775   9.736  11.068   8.596 -1.1526 -0.9497  0.0546
 2748SOL    HW211776   9.878  11.066   8.651 -0.6605 -0.9228 -1.1914
 2749SOL     OW11777  10.169   4.082   1.564  0.1474 -0.5915  0.2577
 2749SOL    HW111778  10.197   4.057   1.652 -2.1081  0.5179  1.3866
 2749SOL    HW211779  10.240   4.136   1.530  0.9325 -0.7954  1.5166
 2750SOL     OW11780   6.551   7.304   8.146  0.4825  0.2284 -0.0236
 2750SOL    HW111781   6.529   7.262   8.229  2.0337  0.2410  0.4277
 2750SOL    HW211782   6.486   7.373   8.136  0.2878  0.2504  1.2200
 2751SOL     OW11783   3.732   2.987   5.794  0.4642 -0.1709 -0.1032
 2751SOL    HW111784   3.764   2.979   5.884  1.0601 -0.2885 -0.3221
 2751SOL    HW211785   3.668   3.058   5.799  3.4627  2.8270 -0.3215
 2752SOL     OW11786   2.791   8.932   3.520 -0.5048 -0.4882 -0.1012
 2752SOL    HW111787   2.732   9.005   3.541  0.4019  0.2306 -0.0191
 2752SOL    HW211788   2.843   8.965   3.446  0.5791 -0.6860  0.5664
 2753SOL     OW11789   1.962   2.683   4.397  0.2331  0.3224  0.0867
 2753SOL    HW111790   1.987   2.756   4.453  3.0965 -1.5591  1.4841
 2753SOL    HW211791   1.866   2.689   4.391  0.3002  4.1971 -0.0558
 2754SOL     OW11792   2.470   5.919   0.131  0.1585 -0.0018 -0.1639
 2754SOL    HW111793   2.457   5.995   0.075 -1.5980  1.0557  1.5904
 2754SOL    HW211794   2.507   5.954   0.212 -1.3297 -0.8462  0.9430
 2755SOL     OW11795   2.964   2.915   2.071 -0.1668  0.2387  0.1902
 2755SOL    HW111796   2.910   2.927   2.150 -2.5121 -0.1877 -1.2406
 2755SOL    HW211797   3.001   3.002   2.055  0.5130  0.2971  1.8327
 2756SOL     OW11798   5.561   4.794   6.329  0.4796  0.0582 -0.3568
 2756SOL    HW111799   5.559   4.707   6.370  1.3548  0.8819  1.5447
 2756SOL    HW211800   5.608   4.781   6.247  0.6994 -1.2375 -0.0494
 2757SOL     OW11801   7.998   6.979   9.793  0.6231  0.8707 -0.1805
 2757SOL    HW111802   7.975   6.982   9.701  1.9551  1.1593 -0.5214
 2757SOL    HW211803   8.028   6.889   9.808  1.6624  1.1707 -0.3672
 2758SOL     OW11804   8.005   5.062   8.094 -0.0178  0.2268 -0.2924
 2758SOL    HW111805   7.996   4.980   8.046 -0.6651  0.9762 -1.5123
 2758SOL    HW211806   7.916   5.088   8.116  0.2007  0.4664  0.3471
 2759SOL     OW11807   8.642   6.374   1.599 -1.1459 -0.1866 -0.0831
 2759SOL    HW111808   8.700   6.377   1.523 -1.5233  1.3280 -0.3516
 2759SOL    HW211809   8.687   6.317   1.661  0.6664  0.9563 -0.2628
 2760SOL     OW11810   4.749  10.853   0.528  0.2718  0.6016  0.1256
 2760SOL    HW111811   4.730  10.830   0.619 -0.3183  2.3692  0.4942
 2760SOL    HW211812   4.687  10.801   0.477  0.5160 -0.3053  0.7243
 2761SOL     OW11813   2.154   6.652   0.409  0.0928  0.6943 -0.2550
 2761SOL    HW111814   2.223   6.704   0.450 -0.7917  0.3685  1.7626
 2761SOL    HW211815   2.183   6.562   0.418 -0.5119  0.5625  0.5103
 2762SOL     OW11816   8.249  10.495   9.044 -0.5883  0.2933  0.1092
 2762SOL    HW111817   8.306  10.563   9.008 -0.7101  0.0763 -0.4976
 2762SOL    HW211818   8.267  10.417   8.991 -0.3771 -0.1841  0.8605
 2763SOL     OW11819   6.937   8.516   4.214  0.1814 -0.1569 -0.1263
 2763SOL    HW111820   7.023   8.515   4.173  0.6020  0.0130  0.7354
 2763SOL    HW211821   6.876   8.530   4.141  0.6684 -2.4758 -1.0850
 2764SOL     OW11822   8.707   5.662   6.700 -0.3094 -0.1943  0.5375
 2764SOL    HW111823   8.645   5.624   6.638 -0.4375 -1.5946  1.4978
 2764SOL    HW211824   8.662   5.659   6.784  0.8913 -0.8101  1.1699
 2765SOL     OW11825   1.921   1.054   9.820  0.0270 -0.2649 -0.1185
 2765SOL    HW111826   1.951   1.129   9.870  0.8114 -0.2121 -0.6426
 2765SOL    HW211827   1.859   1.091   9.757  0.2141 -0.0875 -0.2029
 2766SOL     OW11828   3.326   9.043   6.354 -0.2724  0.6178 -0.6063
 2766SOL    HW111829   3.343   9.131   6.321  0.3637 -0.3980 -3.2583
 2766SOL    HW211830   3.301   8.993   6.276  3.3230 -2.5173 -0.0039
 2767SOL     OW11831   9.963   5.674   3.246 -0.1770 -0.9252 -0.0917
 2767SOL    HW111832   9.907   5.694   3.172 -1.3396 -1.3305  0.6553
 2767SOL    HW211833   9.952   5.747   3.307  3.5067  1.2943 -1.7289
 2768SOL     OW11834   8.610   2.064   2.174  0.2167 -0.3432 -0.3191
 2768SOL    HW111835   8.672   2.079   2.103  0.8281 -1.0455  0.0477
 2768SOL    HW211836   8.589   1.971   2.168  1.2977 -0.7175  1.2036
 2769SOL     OW11837   5.491   1.291  10.164  0.2186 -0.0704 -0.7210
 2769SOL    HW111838   5.454   1.229  10.101  1.0249  0.7508 -2.0550
 2769SOL    HW211839   5.523   1.363  10.110  2.6044 -0.1689  0.4378
 2770SOL     OW11840   5.562   9.590   6.057 -0.7633 -0.5333  0.1545
 2770SOL    HW111841   5.501   9.663   6.072  0.1321  0.0272  1.2848
 2770SOL    HW211842   5.596   9.604   5.969  0.3090  1.1557  0.7931
 2771SOL     OW11843   0.514   6.552  10.146 -0.2851 -0.1941  0.3258
 2771SOL    HW111844   0.555   6.608  10.080 -1.1739  1.3303  1.0293
 2771SOL    HW211845   0.454   6.496  10.096 -1.3638  1.3239 -0.1475
 2772SOL     OW11846   5.428   3.745   1.393 -0.0015  0.2975  0.5271
 2772SOL    HW111847   5.360   3.677   1.395  1.8088 -1.6015  1.5588
 2772SOL    HW211848   5.395   3.810   1.331 -2.1644 -1.1504  0.0374
 2773SOL     OW11849   9.975   5.462   9.470  0.2474 -0.6765  0.4738
 2773SOL    HW111850  10.045   5.513   9.512  0.5713 -1.4212  0.8666
 2773SOL    HW211851   9.996   5.463   9.377  1.2890 -1.6326  0.6825
 2774SOL     OW11852   3.599   4.363   9.226  0.1999 -0.0452 -0.9764
 2774SOL    HW111853   3.541   4.408   9.165 -0.0887 -2.0844 -2.3108
 2774SOL    HW211854   3.541   4.310   9.280  0.6562 -0.5812 -0.9973
 2775SOL     OW11855   7.874   2.010   3.259 -0.1780  0.0332 -0.8284
 2775SOL    HW111856   7.879   1.933   3.315  0.5049  1.4079  1.0979
 2775SOL    HW211857   7.782   2.014   3.233 -0.7745 -0.0867  1.0929
 2776SOL     OW11858   6.535   1.035   6.337  0.3109  0.3005 -0.2021
 2776SOL    HW111859   6.615   1.024   6.387 -0.3398  0.6223  0.9406
 2776SOL    HW211860   6.557   1.003   6.249  1.3480 -0.6816  0.3873
 2777SOL     OW11861   0.259   5.942   6.538  0.1441 -0.0525  0.1030
 2777SOL    HW111862   0.318   5.867   6.544 -1.2249 -1.0728  3.0998
 2777SOL    HW211863   0.295   6.006   6.600 -1.5263 -0.5422  1.6956
 2778SOL     OW11864  10.075   7.105   6.205 -0.2793  0.0549  0.2632
 2778SOL    HW111865  10.009   7.156   6.157  0.4693  0.8775  0.0778
 2778SOL    HW211866  10.150   7.164   6.211 -0.0275 -0.3763  1.6371
 2779SOL     OW11867   7.168  10.429   5.288 -0.4112 -0.6052  0.8846
 2779SOL    HW111868   7.109  10.409   5.215 -2.0236  2.2296  1.2642
 2779SOL    HW211869   7.111  10.434   5.365  0.2535  1.8923  1.3237
 2780SOL     OW11870   4.814   1.892   8.958  0.2576  0.6423 -0.4132
 2780SOL    HW111871   4.889   1.907   9.015  1.2315 -1.8051 -0.9299
 2780SOL    HW211872   4.744   1.944   8.997  1.7299  1.5731  1.1280
 2781SOL     OW11873   0.670   9.880   7.134  0.0152  0.1984  0.0273
 2781SOL    HW111874   0.579   9.907   7.121  0.0344  0.0384 -0.4431
 2781SOL    HW211875   0.670   9.838   7.220 -0.4001  0.0159 -0.0580
 2782SOL     OW11876  10.343   3.954   7.199 -0.0744 -0.0952  0.1003
 2782SOL    HW111877  10.347   3.936   7.293  0.6257 -1.2443 -0.1360
 2782SOL    HW211878  10.271   3.898   7.167  0.4221 -0.5634 -0.2193
 2783SOL     OW11879   2.319   2.522   3.350 -0.3737  0.5837  0.1538
 2783SOL    HW111880   2.224   2.524   3.352 -0.4043 -0.6209  1.7304
 2783SOL    HW211881   2.344   2.479   3.431  1.5831  2.5012  0.6778
 2784SOL     OW11882   8.526   4.433   8.779 -0.2646 -0.1646 -0.2061
 2784SOL    HW111883   8.602   4.389   8.818  0.7823  1.8715  0.1421
 2784SOL    HW211884   8.551   4.448   8.688 -0.3394  0.3023 -0.1515
 2785SOL     OW11885   1.746   3.555   8.186 -0.1809 -0.6976 -0.3551
 2785SOL    HW111886   1.662   3.555   8.232 -0.3444 -0.7210 -0.6503
 2785SOL    HW211887   1.795   3.483   8.225  0.0561 -0.1239  0.4523
 2786SOL     OW11888   0.944   1.657   8.112  0.0050 -0.0722 -0.1449
 2786SOL    HW111889   0.934   1.584   8.051 -0.1005 -0.4790  0.3502
 2786SOL    HW211890   1.020   1.704   8.080 -0.2446 -0.0899 -0.7821
 2787SOL     OW11891   9.184   3.299   6.561  0.7082  0.0998  0.7267
 2787SOL    HW111892   9.122   3.232   6.534  0.9307  0.5467 -1.0486
 2787SOL    HW211893   9.140   3.382   6.540  1.2829  0.4555  0.8863
 2788SOL     OW11894   5.901   1.720   6.596  0.2304  0.3706  0.1815
 2788SOL    HW111895   5.832   1.749   6.536  2.6923  2.0409 -2.0594
 2788SOL    HW211896   5.942   1.646   6.552  0.1260 -0.3987  1.3375
 2789SOL     OW11897   8.906   0.139   5.339  0.2013 -0.2928  0.7723
 2789SOL    HW111898   8.900   0.057   5.389  2.5582 -1.0295 -0.0155
 2789SOL    HW211899   8.997   0.168   5.351  0.4308  0.2912 -1.8386
 2790SOL     OW11900   2.297   8.371   3.702  0.4263 -0.6347 -0.2265
 2790SOL    HW111901   2.341   8.439   3.652  0.0845 -0.4535 -0.2875
 2790SOL    HW211902   2.316   8.392   3.794  1.3952 -1.2013 -0.2844
 2791SOL     OW11903   2.735   8.737   4.816 -0.7307  1.0116  0.4654
 2791SOL    HW111904   2.787   8.803   4.770 -1.0029  1.1597  0.3676
 2791SOL    HW211905   2.762   8.653   4.778 -1.2543  1.1656 -0.2692
 2792SOL     OW11906   1.930  10.277   7.161 -0.2201 -0.4244 -0.1944
 2792SOL    HW111907   1.951  10.206   7.222  0.8516 -1.1409 -1.3247
 2792SOL    HW211908   2.012  10.293   7.114 -1.0732 -0.1772 -1.6944
 2793SOL     OW11909   1.776   5.462   1.925  0.6424 -0.1856 -0.1363
 2793SOL    HW111910   1.686   5.439   1.899  0.2227  0.2494  0.8895
 2793SOL    HW211911   1.802   5.392   1.986  0.6796  0.1509  0.2357
 2794SOL     OW11912   6.399   4.409   9.428  0.0149 -0.3622  0.3892
 2794SOL    HW111913   6.337   4.355   9.478 -0.1138 -0.1065  0.5086
 2794SOL    HW211914   6.372   4.398   9.337  0.7040 -1.4165  0.2959
 2795SOL     OW11915   5.998   2.846   5.490 -0.3857 -0.2680 -0.5391
 2795SOL    HW111916   6.072   2.829   5.431 -0.6026 -1.1031 -0.5837
 2795SOL    HW211917   5.960   2.928   5.457 -0.3581 -0.5948 -1.4173
 2796SOL     OW11918  10.085   6.822   0.981 -0.2207  0.8979  0.2058
 2796SOL    HW111919  10.176   6.850   0.983 -0.2989  1.2715 -0.9319
 2796SOL    HW211920  10.043   6.878   0.916 -1.2167  0.5849  0.5522
 2797SOL     OW11921   1.178   2.898   5.880  0.1064 -0.2263  0.1679
 2797SOL    HW111922   1.186   2.949   5.800  1.8010  0.6437  0.8515
 2797SOL    HW211923   1.086   2.906   5.906 -0.3921 -0.2947 -1.5157
 2798SOL     OW11924   9.879   4.833   4.770  0.3009  0.1871  0.3016
 2798SOL    HW111925   9.793   4.815   4.733  1.0228  0.2819 -1.5392
 2798SOL    HW211926   9.910   4.910   4.722  1.4530  0.1044  0.8755
 2799SOL     OW11927   7.419   9.564   5.452 -0.4430  0.2679  0.2616
 2799SOL    HW111928   7.498   9.534   5.498  0.0220  1.1198  0.0526
 2799SOL    HW211929   7.451   9.632   5.393 -0.7695 -1.8049 -2.4632
 2800SOL     OW11930   0.932   3.563   4.292  0.6493 -0.0161  0.3178
 2800SOL    HW111931   0.944   3.621   4.216  0.6164  0.8363  0.9470
 2800SOL    HW211932   1.009   3.577   4.346  1.6888 -2.1489 -0.5015
 2801SOL     OW11933   6.948  10.000   6.314  0.1706  0.2215  0.5266
 2801SOL    HW111934   6.928   9.924   6.259 -0.0800 -0.7577  1.9297
 2801SOL    HW211935   6.888  10.068   6.282  1.1833  0.2407 -1.5086
 2802SOL     OW11936   0.245   4.314   1.395  0.5053  0.0145  0.0874
 2802SOL    HW111937   0.336   4.324   1.370 -0.1925  0.9842 -2.3059
 2802SOL    HW211938   0.218   4.400   1.427  0.6401 -0.5170  1.7393
 2803SOL     OW11939   3.178   5.427   1.799  0.4312  0.0477  1.0193
 2803SOL    HW111940   3.251   5.406   1.857  0.2629 -0.9692  0.8698
 2803SOL    HW211941   3.112   5.360   1.817  1.5783 -2.3405 -2.5119
 2804SOL     OW11942   9.788   7.931   2.579 -0.6109 -0.2347 -0.0763
 2804SOL    HW111943   9.718   7.959   2.519 -0.0512  2.3249  0.3536
 2804SOL    HW211944   9.764   7.841   2.602 -1.1030 -1.2194 -3.7179
 2805SOL     OW11945   5.517   7.816   3.810 -0.1263 -0.0445 -0.0673
 2805SOL    HW111946   5.469   7.753   3.864  1.3577 -1.3184 -0.1518
 2805SOL    HW211947   5.551   7.764   3.737 -0.1733  1.1975 -1.0185
 2806SOL     OW11948   8.568   8.548  10.463 -0.4354 -0.2407  0.1655
 2806SOL    HW111949   8.510   8.543  10.539  0.9342  2.0549  1.4920
 2806SOL    HW211950   8.516   8.593  10.397 -0.4927  1.0891  1.0722
 2807SOL     OW11951   1.914  10.073   6.563 -0.7679 -0.0971  0.2850
 2807SOL    HW111952   1.929   9.982   6.588  0.6699 -0.3736 -1.4081
 2807SOL    HW211953   1.834  10.071   6.510 -0.0032 -0.6281 -0.8880
 2808SOL     OW11954   6.683   7.472   3.644  0.0450  0.0519  0.6209
 2808SOL    HW111955   6.717   7.441   3.728  1.2831 -1.4290 -0.3731
 2808SOL    HW211956   6.591   7.445   3.644  0.4211 -1.3368  0.8940
 2809SOL     OW11957   1.422   5.462   0.160 -0.1380  0.4654  0.3324
 2809SOL    HW111958   1.402   5.506   0.242  0.7117  3.4469 -0.9247
 2809SOL    HW211959   1.337   5.443   0.120 -0.5496 -0.8990  1.7934
 2810SOL     OW11960   1.543   3.571   6.208  0.3705 -0.2570 -0.2234
 2810SOL    HW111961   1.491   3.595   6.131  1.5239 -1.9637 -1.6023
 2810SOL    HW211962   1.577   3.655   6.240  0.3262  0.4598 -1.9320
 2811SOL     OW11963   4.108   2.143   4.026 -0.1170  0.0847  0.6988
 2811SOL    HW111964   4.174   2.211   4.006 -1.8330  1.1778 -1.7031
 2811SOL    HW211965   4.043   2.152   3.957 -1.6622 -2.4819  1.6990
 2812SOL     OW11966   3.453  10.825   9.643 -0.2304 -0.4771 -0.4300
 2812SOL    HW111967   3.492  10.831   9.555 -1.2926 -2.0114 -1.0388
 2812SOL    HW211968   3.402  10.744   9.641 -0.0811 -0.6635  1.6984
 2813SOL     OW11969   3.758   2.576   7.792  0.4068  0.2576  0.0526
 2813SOL    HW111970   3.722   2.653   7.836 -0.2691  1.0110 -1.7192
 2813SOL    HW211971   3.792   2.521   7.863 -0.8764  1.2634  1.5048
 2814SOL     OW11972   1.804   7.513   1.018  0.3079 -0.0436  1.3740
 2814SOL    HW111973   1.836   7.439   1.069  0.9226 -0.1767  0.8111
 2814SOL    HW211974   1.724   7.480   0.977  0.3140 -0.2383  1.5177
 2815SOL     OW11975   1.484   5.819   4.363 -0.0279  0.1375 -0.0732
 2815SOL    HW111976   1.422   5.875   4.410  0.9383  1.0118  0.2093
 2815SOL    HW211977   1.469   5.840   4.270 -1.0622 -0.6520 -0.1001
 2816SOL     OW11978   6.882   8.209   6.933 -0.4586 -0.0042 -0.1942
 2816SOL    HW111979   6.965   8.171   6.904 -0.2597  1.0551 -1.0797
 2816SOL    HW211980   6.893   8.303   6.920 -1.0734  0.3529  1.5730
 2817SOL     OW11981   0.716   3.855   3.031 -0.4338  0.1106  1.1184
 2817SOL    HW111982   0.707   3.949   3.012  0.2999  0.4109  2.1364
 2817SOL    HW211983   0.637   3.815   2.994 -1.2891  1.2807  1.6202
 2818SOL     OW11984   3.690   8.245   7.439 -0.1465  0.2782 -0.5231
 2818SOL    HW111985   3.620   8.305   7.414  0.1197  0.2624 -1.3107
 2818SOL    HW211986   3.760   8.261   7.376  0.3466 -0.1048 -0.0851
 2819SOL     OW11987   0.672   3.324   5.434 -0.4369 -0.1250  0.2169
 2819SOL    HW111988   0.714   3.303   5.517  0.8143 -1.7149 -0.7454
 2819SOL    HW211989   0.643   3.239   5.400  2.3515 -0.1079 -2.6238
 2820SOL     OW11990   9.490   6.848   4.720 -0.5602  0.4323 -0.3637
 2820SOL    HW111991   9.486   6.753   4.729  0.0059  0.4840  0.5152
 2820SOL    HW211992   9.550   6.863   4.647  0.7272  0.1287  0.5906
 2821SOL     OW11993   5.741   0.035   4.332 -0.2748  0.8686 -0.3798
 2821SOL    HW111994   5.672   0.057   4.396 -0.5783  1.3190 -0.8518
 2821SOL    HW211995   5.696  -0.018   4.266 -0.0086  0.5801 -0.3318
 2822SOL     OW11996   2.387   3.938   2.349  0.5092  0.0793 -0.1979
 2822SOL    HW111997   2.304   3.982   2.367  0.8432  1.2803 -1.4253
 2822SOL    HW211998   2.425   3.924   2.435 -0.2724  0.9212  0.3129
 2823SOL     OW11999   6.877   2.141   9.755  0.2040  0.7521 -0.7609
 2823SOL    HW112000   6.867   2.135   9.660  0.0606 -0.8648 -0.6716
 2823SOL    HW212001   6.788   2.134   9.790  0.3768 -0.1133 -0.4675
 2824SOL     OW12002   9.542   7.660  11.113  0.5223 -0.0102  0.1245
 2824SOL    HW112003   9.579   7.745  11.133  0.5963 -0.2848  1.2167
 2824SOL    HW212004   9.617   7.607  11.085  1.1982 -0.8175  3.1551
 2825SOL     OW12005   6.458   0.509   8.463  0.6318 -0.4290  0.3399
 2825SOL    HW112006   6.539   0.472   8.429  1.3587 -0.3321  1.8938
 2825SOL    HW212007   6.434   0.452   8.536  0.9015  1.2054  1.7655
 2826SOL     OW12008   7.994   1.332   4.477  0.1688  0.1479  0.2010
 2826SOL    HW112009   8.084   1.333   4.444  1.5280  0.8682  3.5110
 2826SOL    HW212010   7.968   1.424   4.479  0.0695  0.1110  0.9095
 2827SOL     OW12011   5.672   3.884   0.534 -0.7523 -0.2210 -0.1845
 2827SOL    HW112012   5.714   3.812   0.582 -0.6246 -0.1377 -0.1725
 2827SOL    HW212013   5.595   3.843   0.493 -1.2950 -0.1323  0.7081
 2828SOL     OW12014   9.989   5.773   6.909  0.1870 -0.4481 -0.0262
 2828SOL    HW112015   9.937   5.853   6.912  0.1587 -0.4864  1.0168
 2828SOL    HW212016   9.991   5.749   6.816 -0.9335  0.0224 -0.1924
 2829SOL     OW12017   0.527   8.423   6.129 -0.1305 -0.0166 -0.1227
 2829SOL    HW112018   0.565   8.488   6.070 -1.8159  1.7655  0.6325
 2829SOL    HW212019   0.433   8.429   6.114 -0.4209 -1.3779  0.9060
 2830SOL     OW12020   0.165  10.093   4.005 -0.3294 -0.5227  0.1224
 2830SOL    HW112021   0.224  10.018   3.994 -1.0564 -1.2918  1.2988
 2830SOL    HW212022   0.185  10.127   4.092 -1.2145 -0.4355  0.3020
 2831SOL     OW12023   0.900  10.876   3.896  0.1998 -0.3554 -0.0922
 2831SOL    HW112024   0.833  10.886   3.828  0.4205 -1.0132 -0.4190
 2831SOL    HW212025   0.941  10.792   3.876 -1.5287 -1.9368  2.4363
 2832SOL     OW12026   7.172  10.365   9.507  0.7030  0.1433 -0.1568
 2832SOL    HW112027   7.141  10.285   9.549 -2.7966  0.8690 -1.0189
 2832SOL    HW212028   7.196  10.424   9.579 -1.3036 -0.0486  0.7261
 2833SOL     OW12029   0.544   4.428   1.938  1.0376  0.1629  0.4029
 2833SOL    HW112030   0.571   4.516   1.963  0.9923  0.7674 -1.4931
 2833SOL    HW212031   0.515   4.437   1.847 -1.9066 -1.2091  1.0944
 2834SOL     OW12032   2.011   8.760   3.633  0.5159 -0.3050 -0.1152
 2834SOL    HW112033   2.092   8.777   3.585  0.3238  0.7140 -0.1147
 2834SOL    HW212034   1.944   8.756   3.565  0.4573 -0.3610 -0.0541
 2835SOL     OW12035   8.626   0.880   5.897 -0.0646 -0.0637 -0.5351
 2835SOL    HW112036   8.590   0.793   5.880  2.7731 -1.8975  1.8413
 2835SOL    HW212037   8.574   0.914   5.970 -0.3919 -0.3066 -0.6557
 2836SOL     OW12038   9.592   1.700   5.969  0.1513 -0.4493 -0.9064
 2836SOL    HW112039   9.674   1.750   5.974 -1.1560  1.7236  0.7752
 2836SOL    HW212040   9.618   1.610   5.985  1.9457  0.5586  2.9359
 2837SOL     OW12041   8.266   3.328  10.649  0.1495  0.8364 -0.5065
 2837SOL    HW112042   8.286   3.344  10.742 -1.4675  0.2631 -0.0217
 2837SOL    HW212043   8.344   3.285  10.614  1.2748  2.1810  0.2584
 2838SOL     OW12044   1.127   1.933   9.265  0.5916 -0.3308  0.0927
 2838SOL    HW112045   1.031   1.934   9.262  0.5341 -0.4003  1.4273
 2838SOL    HW212046   1.150   2.006   9.322  1.1846 -2.0022  2.1382
 2839SOL     OW12047   8.041   2.433   9.589  0.1883 -0.1875 -0.0009
 2839SOL    HW112048   7.953   2.408   9.560 -0.4152  2.1714 -0.4121
 2839SOL    HW212049   8.099   2.376   9.540 -1.0432 -0.3069 -1.4044
 2840SOL     OW12050   7.172   0.817   1.903 -0.1783 -0.2261  0.6639
 2840SOL    HW112051   7.150   0.885   1.967 -0.9450  0.5847 -0.4174
 2840SOL    HW212052   7.117   0.742   1.928 -0.5071  0.0959  0.9245
 2841SOL     OW12053   8.451   0.833   2.150  0.3709 -0.0312 -0.3266
 2841SOL    HW112054   8.514   0.895   2.115 -1.3755  1.6044 -0.7309
 2841SOL    HW212055   8.480   0.815   2.239 -0.7265  3.8821  0.9898
 2842SOL     OW12056   1.384   9.326   3.061  0.9680  0.1037  0.9198
 2842SOL    HW112057   1.445   9.381   3.110  0.2999  1.5822  0.1423
 2842SOL    HW212058   1.360   9.378   2.985 -0.4501 -0.8791  0.6542
 2843SOL     OW12059   0.218   7.099   6.364  0.1583  0.2442  0.0659
 2843SOL    HW112060   0.174   7.038   6.424  2.0700 -0.1788  1.1117
 2843SOL    HW212061   0.170   7.181   6.376 -1.6432 -0.6794 -0.4046
 2844SOL     OW12062   7.786  10.508   6.740  0.5561  0.4511  0.0697
 2844SOL    HW112063   7.796  10.422   6.700 -1.3751  0.6649 -0.9837
 2844SOL    HW212064   7.723  10.494   6.811 -0.4765  1.1121 -0.6811
 2845SOL     OW12065  10.144   4.536   5.539  0.0217 -0.1721 -0.1567
 2845SOL    HW112066  10.098   4.619   5.554  0.2618 -0.3223  1.5957
 2845SOL    HW212067  10.210   4.532   5.607  1.3050 -0.9416 -1.3873
 2846SOL     OW12068   5.225   1.645  10.008  0.5721  0.4022 -0.1078
 2846SOL    HW112069   5.227   1.563  10.057  1.1834  0.5367  0.0926
 2846SOL    HW212070   5.145   1.638   9.955 -0.2757  0.3797  1.1175
 2847SOL     OW12071   3.448   2.113   9.206 -0.0000 -0.3086 -0.1834
 2847SOL    HW112072   3.447   2.184   9.270 -1.3291 -1.7693  1.4648
 2847SOL    HW212073   3.364   2.120   9.160  0.9173  0.6998 -1.8254
 2848SOL     OW12074   7.111   5.797   1.063 -0.4009  0.3212 -0.0647
 2848SOL    HW112075   7.194   5.808   1.016 -0.6017  0.7823 -0.3150
 2848SOL    HW212076   7.134   5.810   1.155  0.1706 -1.5200  0.0910
 2849SOL     OW12077   9.060   4.529   7.228 -0.1694  0.5228  0.2788
 2849SOL    HW112078   9.139   4.515   7.176 -0.0188 -1.8942  1.0206
 2849SOL    HW212079   9.023   4.442   7.238 -1.2039  1.1548  2.6345
 2850SOL     OW12080   4.828   1.037   2.805 -0.2008  0.1311  0.7148
 2850SOL    HW112081   4.787   0.956   2.775 -0.6585  0.8442 -0.6826
 2850SOL    HW212082   4.850   1.084   2.724  0.5404  1.1672  1.4879
 2851SOL     OW12083   6.301   2.594   9.717  0.2597  0.3940  0.4418
 2851SOL    HW112084   6.265   2.550   9.794  0.9140  0.8325  1.0041
 2851SOL    HW212085   6.229   2.649   9.685  0.0221  0.3003  0.8068
 2852SOL     OW12086  11.051   0.170   8.243 -0.8801  0.4017  0.2039
 2852SOL    HW112087  11.051   0.178   8.148 -2.6257  1.3821  0.2554
 2852SOL    HW212088  11.002   0.090   8.261 -1.2934  0.6743  0.3002
 2853SOL     OW12089   7.111   2.882   7.068  0.0522  0.0474  0.0173
 2853SOL    HW112090   7.059   2.957   7.040  2.5321  1.0660 -2.3571
 2853SOL    HW212091   7.173   2.918   7.132 -1.4649 -0.9822  2.2012
 2854SOL     OW12092   1.944   9.273   9.059 -0.7890  0.2117  0.5102
 2854SOL    HW112093   2.014   9.225   9.015 -1.6032 -1.0783  0.5839
 2854SOL    HW212094   1.928   9.349   9.003  0.0313  0.0363  0.0231
 2855SOL     OW12095   0.133   3.256  10.827 -0.6899 -0.3132 -0.0259
 2855SOL    HW112096   0.133   3.164  10.801  0.3193 -0.5364  0.7278
 2855SOL    HW212097   0.194   3.299  10.767  1.5988 -0.8185  1.8018
 2856SOL     OW12098   3.264   5.070  10.798  0.1977  0.7118  0.5404
 2856SOL    HW112099   3.217   5.145  10.760  0.5485 -0.1558 -1.7747
 2856SOL    HW212100   3.231   4.995  10.749  1.4761 -0.3622  1.2893
 2857SOL     OW12101   9.332  10.830   3.120 -0.3094  0.2498  0.0160
 2857SOL    HW112102   9.383  10.758   3.157  0.7533  1.9314  2.0565
 2857SOL    HW212103   9.380  10.856   3.042 -0.3801 -0.8521 -0.4033
 2858SOL     OW12104   1.755  10.870   1.442  0.0840 -0.0767 -0.3921
 2858SOL    HW112105   1.782  10.832   1.359  3.3888 -1.0511  0.9860
 2858SOL    HW212106   1.824  10.932   1.464 -0.1037 -0.6731  2.1501
 2859SOL     OW12107   1.774   6.019   7.465  0.0232 -0.0620  0.0325
 2859SOL    HW112108   1.707   5.978   7.520  0.5855 -2.0117 -0.6533
 2859SOL    HW212109   1.818   6.081   7.523 -1.3391  0.1237  0.9210
 2860SOL     OW12110   5.652   3.633   1.667  0.3535  0.3073 -0.1617
 2860SOL    HW112111   5.665   3.584   1.748 -1.2887  0.3048  0.1440
 2860SOL    HW212112   5.567   3.603   1.635 -0.0804  1.9930 -0.6563
 2861SOL     OW12113   8.094   1.911   1.669 -0.5408  0.6083  0.3245
 2861SOL    HW112114   8.181   1.898   1.632  0.3160  0.3769  2.3081
 2861SOL    HW212115   8.038   1.851   1.619  0.3162  1.0190 -1.2229
 2862SOL     OW12116   8.757   6.060   3.703 -0.6860  0.2526  0.2851
 2862SOL    HW112117   8.693   6.125   3.734 -1.1572  0.5374 -1.1966
 2862SOL    HW212118   8.842   6.096   3.729 -0.8553  2.0030 -1.2929
 2863SOL     OW12119   7.564   3.056   6.367 -0.2106  0.5809  0.4006
 2863SOL    HW112120   7.626   3.021   6.304 -1.8907 -0.3783 -0.8008
 2863SOL    HW212121   7.525   2.978   6.408  0.2332  1.1759  2.0226
 2864SOL     OW12122   0.871   6.969   1.755 -0.0583 -0.3171  0.6949
 2864SOL    HW112123   0.858   6.894   1.697 -0.6738  0.9647 -0.8835
 2864SOL    HW212124   0.783   6.995   1.782  0.0202  0.8690 -0.1436
 2865SOL     OW12125   9.871   4.727   6.573 -0.7081  0.3904  0.0999
 2865SOL    HW112126   9.887   4.636   6.548 -0.1322  0.7117 -0.7307
 2865SOL    HW212127   9.775   4.735   6.569 -0.7359 -0.0501 -0.2917
 2866SOL     OW12128  10.495   9.071   3.800  0.0515  0.2853 -0.3042
 2866SOL    HW112129  10.403   9.085   3.822 -0.5871 -0.2435 -2.3709
 2866SOL    HW212130  10.531   9.023   3.875 -0.5186  3.0898  1.9006
 2867SOL     OW12131   2.259   2.258   9.019 -0.2854 -1.0394  0.0192
 2867SOL    HW112132   2.175   2.302   9.008 -0.2401 -1.1887 -1.0806
 2867SOL    HW212133   2.287   2.237   8.929  0.9557 -0.9248  0.3507
 2868SOL     OW12134   5.252   1.793   1.519  0.3431 -0.4107  0.5178
 2868SOL    HW112135   5.343   1.819   1.508 -0.0664  0.3674 -1.5341
 2868SOL    HW212136   5.252   1.698   1.502  0.9206 -0.6503  1.7539
 2869SOL     OW12137  10.630   5.750   1.895  0.0903 -0.3031 -0.8127
 2869SOL    HW112138  10.636   5.816   1.964  1.7374 -1.3307  0.1025
 2869SOL    HW212139  10.718   5.746   1.858 -0.1030 -1.6150 -1.1813
 2870SOL     OW12140   8.939   9.507   1.515  0.0593 -0.0193 -0.0251
 2870SOL    HW112141   8.959   9.601   1.508  0.3146  0.0226  1.1242
 2870SOL    HW212142   9.018   9.464   1.481 -0.5764  0.1599 -1.8322
 2871SOL     OW12143  10.873   4.573   3.276  0.3186 -0.1165 -0.1321
 2871SOL    HW112144  10.892   4.635   3.206  1.7527 -1.0216 -0.5943
 2871SOL    HW212145  10.943   4.588   3.340 -2.6622  2.9300  2.8027
 2872SOL     OW12146   2.944   9.072   6.120 -0.3012  0.1769  0.2603
 2872SOL    HW112147   2.968   9.113   6.037 -0.0736 -0.6026 -0.0683
 2872SOL    HW212148   2.876   9.129   6.157 -1.2467 -0.0899 -1.0098
 2873SOL     OW12149   7.843   5.131   4.502 -0.6075 -0.2115 -0.3395
 2873SOL    HW112150   7.854   5.201   4.566  0.1519 -2.0949  1.7437
 2873SOL    HW212151   7.811   5.175   4.423  0.8593  2.5708  0.4950
 2874SOL     OW12152   9.582   8.228   5.799  0.7762 -0.6585 -0.1072
 2874SOL    HW112153   9.557   8.320   5.794  0.7477 -0.7239 -2.1012
 2874SOL    HW212154   9.663   8.227   5.851  0.7290  0.4737  0.0007
 2875SOL     OW12155   8.855   7.958   0.565  0.2164  0.4651 -0.4106
 2875SOL    HW112156   8.893   7.915   0.642 -1.8397  2.5241  1.9106
 2875SOL    HW212157   8.859   7.891   0.496  0.2825 -2.2412  2.0292
 2876SOL     OW12158   5.261   7.290   6.646 -0.2795 -0.4339 -0.3538
 2876SOL    HW112159   5.174   7.298   6.685  0.1361 -1.5180  0.8457
 2876SOL    HW212160   5.309   7.367   6.678 -0.7816  0.1904 -1.0526
 2877SOL     OW12161   2.245   5.545   7.145 -0.5963  0.1808  0.3540
 2877SOL    HW112162   2.163   5.532   7.097 -1.1170  0.5941  1.1214
 2877SOL    HW212163   2.258   5.463   7.193 -0.8263  0.2994  0.6227
 2878SOL     OW12164   7.462   0.023   0.554  0.1128  0.1409 -0.1158
 2878SOL    HW112165   7.473   0.093   0.617 -1.8165  1.9865 -1.6945
 2878SOL    HW212166   7.378  -0.017   0.576  0.5447 -0.8067 -0.0931
 2879SOL     OW12167   0.051   0.486   3.720  0.0576 -0.8078 -0.1525
 2879SOL    HW112168  -0.012   0.427   3.680 -0.0650 -0.7678 -0.0193
 2879SOL    HW212169   0.118   0.428   3.756 -1.1429 -1.0439  1.9052
 2880SOL     OW12170   0.605   3.032  10.879 -0.0231  1.0095 -0.0487
 2880SOL    HW112171   0.624   3.123  10.854 -0.4533  2.4442  4.0822
 2880SOL    HW212172   0.514   3.033  10.906 -0.0175 -0.6993  0.1478
 2881SOL     OW12173   5.644   2.020   3.209  0.1405 -0.8843 -0.0307
 2881SOL    HW112174   5.734   2.042   3.186  0.1236 -2.2463 -1.5545
 2881SOL    HW212175   5.633   1.929   3.181 -1.6441 -0.8246  0.3217
 2882SOL     OW12176  10.450   7.420   0.137  0.3244 -0.2945 -0.3370
 2882SOL    HW112177  10.455   7.437   0.044  0.5409 -1.4378 -0.5583
 2882SOL    HW212178  10.525   7.362   0.155 -0.3119 -0.9303  0.3350
 2883SOL     OW12179   8.540   2.551   9.853 -0.4204  0.1856 -0.0563
 2883SOL    HW112180   8.581   2.501   9.923  0.4388  1.0684  0.0887
 2883SOL    HW212181   8.505   2.629   9.896 -0.7573  0.2545 -0.4505
 2884SOL     OW12182   0.822   1.241   5.323  0.4406  0.2262 -0.4769
 2884SOL    HW112183   0.750   1.302   5.309  1.9330  1.9101 -1.1826
 2884SOL    HW212184   0.791   1.158   5.286 -2.2762 -0.0064  1.9859
 2885SOL     OW12185   3.307   3.488  10.807 -0.2595  0.2860  0.0106
 2885SOL    HW112186   3.373   3.542  10.762  1.5116 -1.3794  0.4958
 2885SOL    HW212187   3.358   3.421  10.852 -2.3981 -2.2272 -1.0981
 2886SOL     OW12188   5.536   9.986   8.219 -0.2470  0.8731 -0.4268
 2886SOL    HW112189   5.530  10.004   8.125 -2.8818 -0.7047 -0.6664
 2886SOL    HW212190   5.604   9.919   8.226 -0.5073  0.4962 -1.3194
 2887SOL     OW12191   5.086  10.672   7.683 -0.2444 -0.4536  0.2811
 2887SOL    HW112192   5.175  10.636   7.692  0.5769  1.0772 -1.1655
 2887SOL    HW212193   5.098  10.753   7.633 -2.3579  0.3234  0.9357
 2888SOL     OW12194   8.039   9.196   6.784 -0.3494 -0.1412 -0.4558
 2888SOL    HW112195   8.073   9.197   6.695  1.5535 -0.1078  0.2310
 2888SOL    HW212196   8.115   9.216   6.840 -1.7165  0.9574  1.1102
 2889SOL     OW12197   9.713   3.710   1.882  0.0924  0.4230  0.0655
 2889SOL    HW112198   9.626   3.671   1.886  0.4562 -0.5396 -1.0273
 2889SOL    HW212199   9.721   3.757   1.965 -1.0833 -0.2936  0.6200
 2890SOL     OW12200   0.593   2.029   3.999  0.5057 -0.0768 -0.2305
 2890SOL    HW112201   0.560   2.113   4.030  0.5184  0.2293 -1.0239
 2890SOL    HW212202   0.688   2.034   4.010  0.7317  0.8615 -2.2309
 2891SOL     OW12203   4.908   7.742   5.825  0.5857  0.2246  0.2492
 2891SOL    HW112204   4.831   7.794   5.845  0.6765  0.7285 -0.6701
 2891SOL    HW212205   4.976   7.806   5.801  0.8112 -0.2801 -0.5153
 2892SOL     OW12206  10.253   6.219   9.238  0.0890 -0.1025  0.0162
 2892SOL    HW112207  10.307   6.171   9.301 -0.9901  0.6626  1.5814
 2892SOL    HW212208  10.196   6.274   9.292  0.1066  1.6797 -1.6654
 2893SOL     OW12209   2.256  10.755   4.097 -0.6802 -0.1583 -0.0320
 2893SOL    HW112210   2.312  10.736   4.022 -1.2337 -1.6597 -0.0911
 2893SOL    HW212211   2.293  10.835   4.135 -0.2382  0.4890 -1.7372
 2894SOL     OW12212   6.309   0.137   8.364  0.0576  0.4054 -0.0597
 2894SOL    HW112213   6.217   0.114   8.378 -0.1217  0.0726 -1.6079
 2894SOL    HW212214   6.357   0.078   8.421 -0.6675  0.1355  0.2868
 2895SOL     OW12215   0.563   9.876   0.632 -0.1749  0.2823  0.6242
 2895SOL    HW112216   0.500   9.838   0.570 -0.0104 -0.2100  0.7486
 2895SOL    HW212217   0.509   9.911   0.703 -0.4542  2.0927 -0.4277
 2896SOL     OW12218   2.456  10.534   8.816 -0.4928  0.4352  0.2026
 2896SOL    HW112219   2.532  10.544   8.759 -0.3219 -2.1162 -0.1427
 2896SOL    HW212220   2.381  10.550   8.759 -0.2644  1.1521  0.0972
 2897SOL     OW12221   9.913   7.138   0.095  0.6082 -0.1255  0.5204
 2897SOL    HW112222   9.883   7.197   0.164 -0.9272 -0.0496 -0.1688
 2897SOL    HW212223   9.834   7.115   0.047  1.4865 -1.0513 -0.5488
 2898SOL     OW12224   6.835   2.359   5.249 -0.2388 -0.2956 -0.5538
 2898SOL    HW112225   6.773   2.428   5.271 -0.4427 -0.6696  0.0863
 2898SOL    HW212226   6.920   2.402   5.245 -0.2961 -0.0909  0.3181
 2899SOL     OW12227   1.562   7.220   6.081 -0.2178  0.0310  0.1241
 2899SOL    HW112228   1.528   7.276   6.150  1.6562  1.1132  0.2539
 2899SOL    HW212229   1.647   7.189   6.114 -1.3827 -3.3922  0.2729
 2900SOL     OW12230   2.300   3.833   3.149  0.0264  0.2237 -0.0755
 2900SOL    HW112231   2.317   3.740   3.163  1.4126  0.5801  0.8694
 2900SOL    HW212232   2.384   3.869   3.121 -0.2374  1.3336  0.4858
 2901SOL     OW12233   1.329   3.031   4.356 -0.0529 -0.1569  0.3838
 2901SOL    HW112234   1.268   3.019   4.283  1.0407  1.0329 -0.7940
 2901SOL    HW212235   1.275   3.024   4.434 -1.2815 -1.4229 -0.5291
 2902SOL     OW12236  10.781   7.170   8.804 -0.0106  0.0036  0.2412
 2902SOL    HW112237  10.729   7.181   8.883  0.3803  0.0382  0.4958
 2902SOL    HW212238  10.820   7.084   8.813 -0.4145 -0.2293 -0.1833
 2903SOL     OW12239   5.979   0.517   3.913 -0.3972 -0.2130 -0.2741
 2903SOL    HW112240   5.946   0.428   3.904  0.9424 -0.6892 -0.6513
 2903SOL    HW212241   5.900   0.572   3.910 -1.2344 -1.3649 -0.0545
 2904SOL     OW12242   1.390   0.124   0.361  0.3987 -0.1891 -0.4830
 2904SOL    HW112243   1.315   0.069   0.383 -0.2332  0.4176 -1.0500
 2904SOL    HW212244   1.449   0.067   0.312  1.4345 -1.3326  1.9054
 2905SOL     OW12245   5.403   0.658   5.530 -0.1753  0.8944  0.3680
 2905SOL    HW112246   5.439   0.746   5.522  0.4448  0.6496  0.4439
 2905SOL    HW212247   5.425   0.615   5.447 -0.7936  0.9178  0.1815
 2906SOL     OW12248   5.803   1.589   9.105  1.0429  0.0978  0.1320
 2906SOL    HW112249   5.859   1.659   9.072  1.1405 -0.8234 -1.8247
 2906SOL    HW212250   5.837   1.510   9.064 -0.2794 -0.8144  0.7176
 2907SOL     OW12251  10.115   7.534  10.063  0.1028 -0.2663  0.4768
 2907SOL    HW112252  10.174   7.596  10.107 -1.0883  1.1489  0.1386
 2907SOL    HW212253  10.168   7.497   9.992  0.9149  0.1655  0.8439
 2908SOL     OW12254   1.662   9.206   8.647  0.1740 -0.7891  0.2966
 2908SOL    HW112255   1.653   9.160   8.563 -0.9807 -1.1335  0.5943
 2908SOL    HW212256   1.751   9.185   8.676  0.2948 -1.3516 -0.4473
 2909SOL     OW12257   7.684   9.263   0.887  0.5775 -0.5139  0.3301
 2909SOL    HW112258   7.696   9.239   0.979  1.3092 -1.2659  0.0567
 2909SOL    HW212259   7.687   9.179   0.841  1.3874 -0.0519 -0.4848
 2910SOL     OW12260   1.604   5.932   1.037  0.0257 -0.0783 -0.7372
 2910SOL    HW112261   1.561   6.000   0.985 -0.0726  0.1472 -0.3647
 2910SOL    HW212262   1.534   5.896   1.091 -0.1180 -1.0888 -1.5605
 2911SOL     OW12263   1.479   8.519   6.074  0.6609  0.3826  0.3868
 2911SOL    HW112264   1.507   8.506   6.164  0.1499  0.3352  0.5437
 2911SOL    HW212265   1.437   8.436   6.050 -0.4991  0.8917  0.5961
 2912SOL     OW12266   3.075   9.497   7.145 -0.3468 -0.0908  0.1127
 2912SOL    HW112267   3.040   9.583   7.169 -2.0344 -0.6332 -0.2982
 2912SOL    HW212268   3.034   9.436   7.206  1.9118 -0.5014  1.3324
 2913SOL     OW12269   5.415   7.698   7.316  0.1049  0.0111 -0.0688
 2913SOL    HW112270   5.466   7.671   7.240 -1.3874 -1.0206 -0.7586
 2913SOL    HW212271   5.363   7.772   7.285 -1.5358 -1.2706 -0.5351
 2914SOL     OW12272   7.943   3.904   9.696 -0.1912 -0.1221 -0.3572
 2914SOL    HW112273   7.941   3.965   9.622 -0.5802 -0.6335 -0.7804
 2914SOL    HW212274   8.015   3.844   9.676 -0.6615 -0.6125 -0.6206
 2915SOL     OW12275   1.517   2.134   9.701  0.2729 -0.1512 -0.2676
 2915SOL    HW112276   1.541   2.043   9.684 -1.9934 -0.5559 -1.6614
 2915SOL    HW212277   1.505   2.172   9.614 -1.7999  0.6166  0.3112
 2916SOL     OW12278   3.618   0.677   9.932 -0.2323 -0.6255  0.0017
 2916SOL    HW112279   3.707   0.643   9.925  0.9099  2.1230 -0.3425
 2916SOL    HW212280   3.595   0.667  10.024  1.8070  1.5276  0.8387
 2917SOL     OW12281   7.834  10.996   0.990  0.2535 -0.4361  0.2557
 2917SOL    HW112282   7.741  11.011   1.005  0.2858 -0.6159  0.6386
 2917SOL    HW212283   7.877  11.031   1.068  0.5197 -0.2202  0.0160
 2918SOL     OW12284   5.870  10.947   1.994  0.1008 -0.1387 -0.0903
 2918SOL    HW112285   5.855  10.858   1.962  0.5048  0.4772 -2.1348
 2918SOL    HW212286   5.917  10.935   2.076  0.9086 -1.8200 -0.7488
 2919SOL     OW12287   4.461   8.670   9.398 -0.5785  0.6027  0.2944
 2919SOL    HW112288   4.435   8.678   9.306 -2.9176  0.1522  0.8530
 2919SOL    HW212289   4.546   8.627   9.395 -0.3996  0.9992 -1.6766
 2920SOL     OW12290   5.324   9.579   4.403  0.0653  0.1816 -0.3104
 2920SOL    HW112291   5.391   9.532   4.354  1.8640 -0.5438  2.5953
 2920SOL    HW212292   5.372   9.641   4.457 -1.3076 -1.2332  2.8353
 2921SOL     OW12293   1.664   5.815  10.976 -0.2434  0.0220 -0.2808
 2921SOL    HW112294   1.579   5.794  11.015 -0.2287 -0.1570 -0.3454
 2921SOL    HW212295   1.728   5.782  11.039 -0.2208  0.4734 -0.0617
 2922SOL     OW12296   2.703   1.158   2.907  0.2727 -0.4281 -0.0457
 2922SOL    HW112297   2.761   1.127   2.838 -0.4540 -4.4015  0.9173
 2922SOL    HW212298   2.615   1.137   2.875 -0.2097 -0.3058  1.1528
 2923SOL     OW12299   9.808   1.005   6.973 -0.1267 -0.0459  0.4263
 2923SOL    HW112300   9.717   1.000   6.945 -0.1519 -1.0354  0.6206
 2923SOL    HW212301   9.804   1.025   7.067 -0.2426 -1.9403  0.8764
 2924SOL     OW12302   6.485   9.343   6.133  0.0826  0.5131  0.4630
 2924SOL    HW112303   6.531   9.419   6.098  1.7532 -0.0503  1.3573
 2924SOL    HW212304   6.436   9.376   6.208 -1.7613  1.2838 -0.9806
 2925SOL     OW12305   3.355   1.711   9.658  0.3567 -1.2870 -0.4225
 2925SOL    HW112306   3.334   1.618   9.667  1.8288 -1.5964  0.0124
 2925SOL    HW212307   3.445   1.719   9.690  0.3320  0.2538 -0.6592
 2926SOL     OW12308   4.165   2.857   5.832 -0.0243  0.6317  0.0915
 2926SOL    HW112309   4.177   2.915   5.907  0.2908  0.4128  0.2112
 2926SOL    HW212310   4.127   2.777   5.870 -1.8905  1.2863 -0.2621
 2927SOL     OW12311   7.763   6.725   1.925 -0.0206  0.1005 -0.4161
 2927SOL    HW112312   7.683   6.713   1.874  0.0866  0.0185 -0.5693
 2927SOL    HW212313   7.780   6.819   1.923 -1.3711  0.4304  1.5642
 2928SOL     OW12314   5.930  10.046   0.336 -0.4413  0.0724  0.4887
 2928SOL    HW112315   5.907  10.137   0.352 -0.0506  0.1240  0.8008
 2928SOL    HW212316   5.871  10.017   0.267 -0.4102  0.6319  0.2184
 2929SOL     OW12317   9.664   1.235   1.831 -0.4464 -0.0176 -0.4393
 2929SOL    HW112318   9.718   1.248   1.909  0.5654  0.2697 -1.1645
 2929SOL    HW212319   9.620   1.152   1.847 -0.0087 -0.1220  0.3061
 2930SOL     OW12320   7.216   4.882  10.458 -0.4618  0.3358 -0.2651
 2930SOL    HW112321   7.255   4.945  10.397 -1.3614  0.8831 -0.2855
 2930SOL    HW212322   7.284   4.868  10.525 -1.0103  3.0149  0.9583
 2931SOL     OW12323   7.198   4.064   0.539 -0.2467  0.3468 -0.0401
 2931SOL    HW112324   7.139   4.128   0.498 -1.3768  0.2685  1.3818
 2931SOL    HW212325   7.253   4.115   0.597  0.0701  0.2329 -0.2368
 2932SOL     OW12326   8.302   5.278   0.256 -0.4400  0.1898 -0.1046
 2932SOL    HW112327   8.226   5.314   0.211 -0.3783 -0.3805 -0.6800
 2932SOL    HW212328   8.377   5.311   0.207 -0.3647 -0.2585 -0.3008
 2933SOL     OW12329   9.822   8.080   3.251 -0.1337  0.1551 -0.4725
 2933SOL    HW112330   9.728   8.064   3.243 -0.3318  0.9892  0.0456
 2933SOL    HW212331   9.839   8.077   3.345  0.7938 -2.2245 -0.6463
 2934SOL     OW12332   2.554   3.620   4.020  0.3311 -0.0872 -0.3999
 2934SOL    HW112333   2.528   3.702   4.064 -1.0003  1.3658 -3.5887
 2934SOL    HW212334   2.480   3.562   4.032 -1.9549  1.7673 -3.9232
 2935SOL     OW12335   3.761   1.832   3.853 -0.1751 -0.3184  0.0846
 2935SOL    HW112336   3.792   1.757   3.802  1.9659 -0.2983  1.2484
 2935SOL    HW212337   3.684   1.863   3.805  0.4497 -1.6121 -1.8952
 2936SOL     OW12338  10.862   1.314  10.028 -0.0488 -0.3712  0.2493
 2936SOL    HW112339  10.922   1.383  10.001  0.2217 -1.2865 -1.6537
 2936SOL    HW212340  10.827   1.279   9.946 -1.9305 -0.9671  1.2557
 2937SOL     OW12341   9.720   8.515   5.998 -0.3122 -0.2679  0.1660
 2937SOL    HW112342   9.654   8.508   5.929  1.1054 -0.2032 -1.2602
 2937SOL    HW212343   9.745   8.424   6.015 -0.2535 -0.2486  0.1786
 2938SOL     OW12344   0.128   5.827   9.786  0.4340  0.4990 -0.4208
 2938SOL    HW112345   0.099   5.917   9.769 -0.6771  0.3182  0.3489
 2938SOL    HW212346   0.046   5.777   9.793  1.0056 -0.3931  0.0550
 2939SOL     OW12347   6.734   7.414   5.552 -0.4455  0.3373  0.2654
 2939SOL    HW112348   6.710   7.350   5.619  1.2038 -0.6912 -0.0576
 2939SOL    HW212349   6.689   7.494   5.578  1.1018  0.3490  3.3363
 2940SOL     OW12350   3.457   9.570   1.180 -0.1310  0.2737  0.0544
 2940SOL    HW112351   3.460   9.499   1.116  1.5370 -0.2410  0.6583
 2940SOL    HW212352   3.513   9.541   1.251 -0.2404  1.7648  0.7878
 2941SOL     OW12353   0.699   6.043  10.555 -0.1552  0.6293 -0.2288
 2941SOL    HW112354   0.781   6.061  10.509  0.0042  1.4389  0.3680
 2941SOL    HW212355   0.646   6.122  10.543  0.2321  1.2343  1.7061
 2942SOL     OW12356   7.404   6.038   7.504  0.7066  0.0053  0.0315
 2942SOL    HW112357   7.352   5.968   7.543  0.3258  1.8219  3.1672
 2942SOL    HW212358   7.375   6.042   7.413 -1.7931 -1.5996  0.6629
 2943SOL     OW12359  10.708   3.925   7.941  0.2293 -0.4612 -0.2335
 2943SOL    HW112360  10.777   3.977   7.983  0.9440 -0.9110 -0.8220
 2943SOL    HW212361  10.748   3.839   7.928 -0.8220 -1.0673  0.4117
 2944SOL     OW12362   1.949   3.917   9.696 -0.0952  0.3208  0.2229
 2944SOL    HW112363   1.994   3.918   9.611  1.4136  0.8218  0.9839
 2944SOL    HW212364   1.882   3.985   9.688  0.1301  0.4741 -0.5211
 2945SOL     OW12365   0.978   0.824   0.002 -0.0670 -0.7737 -0.0151
 2945SOL    HW112366   0.929   0.879   0.063  0.1139  0.0266 -0.5719
 2945SOL    HW212367   1.068   0.854   0.010  0.3611 -2.2144  0.9770
 2946SOL     OW12368   8.888   7.389   9.239 -0.2622 -0.7640 -0.4017
 2946SOL    HW112369   8.871   7.348   9.323 -0.1457 -0.3507 -0.1741
 2946SOL    HW212370   8.841   7.334   9.175 -2.6091  0.3860  0.2023
 2947SOL     OW12371  10.710  10.471   1.014 -0.3142  0.1226  0.3485
 2947SOL    HW112372  10.630  10.421   1.000 -0.4609  0.7888 -1.5084
 2947SOL    HW212373  10.765  10.415   1.069 -1.3596 -1.0785  0.1969
 2948SOL     OW12374   8.321   9.634   9.423 -0.0662  0.2308 -0.5329
 2948SOL    HW112375   8.292   9.653   9.512  0.8116 -0.7367 -0.0151
 2948SOL    HW212376   8.320   9.538   9.418  0.3394  0.2651 -1.4081
 2949SOL     OW12377   5.760   3.725   8.842  0.0028 -0.3144 -0.6463
 2949SOL    HW112378   5.824   3.669   8.886 -1.2627 -1.3041  0.0120
 2949SOL    HW212379   5.806   3.758   8.765  1.0866 -1.5189 -0.5572
 2950SOL     OW12380   8.261   0.256   8.397  0.0533 -0.1991 -0.0510
 2950SOL    HW112381   8.170   0.235   8.379  0.1713 -1.5187  0.7376
 2950SOL    HW212382   8.262   0.283   8.488  0.1566  1.9284 -0.6245
 2951SOL     OW12383   4.951   6.452   0.057  0.1782  0.3702  0.1222
 2951SOL    HW112384   4.994   6.461   0.142  0.8659  0.8736 -0.2709
 2951SOL    HW212385   4.913   6.538   0.040  1.2510  0.7082 -0.7086
 2952SOL     OW12386   5.948   9.695   6.814  0.0341 -0.3827 -0.7764
 2952SOL    HW112387   5.893   9.668   6.888  0.2177  1.4692  0.0830
 2952SOL    HW212388   6.036   9.667   6.838  0.2512  1.0447  0.1833
 2953SOL     OW12389   3.791   2.802   9.686 -0.2512  0.0829  0.7252
 2953SOL    HW112390   3.719   2.811   9.624  0.6221 -0.7301 -0.4547
 2953SOL    HW212391   3.838   2.724   9.657 -0.3613 -0.9156  3.0158
 2954SOL     OW12392  10.382   2.423   9.658  0.3885 -0.6145  0.1553
 2954SOL    HW112393  10.314   2.483   9.624 -0.0504 -0.7036  0.8517
 2954SOL    HW212394  10.354   2.337   9.628  0.0751 -0.6769  0.6250
 2955SOL     OW12395   3.240   9.848   0.167  0.1008  0.2809 -0.0294
 2955SOL    HW112396   3.255   9.816   0.256  1.0686 -1.4041 -0.7458
 2955SOL    HW212397   3.303   9.801   0.114  0.4788  2.2794 -1.4533
 2956SOL     OW12398   3.494  10.785   0.233  0.4888  0.7475  0.4568
 2956SOL    HW112399   3.524  10.850   0.297  1.8694 -0.5856  1.2382
 2956SOL    HW212400   3.478  10.706   0.285  2.6523 -0.6871 -0.9252
 2957SOL     OW12401   6.351   0.055   5.526 -0.6182 -0.4313  0.1725
 2957SOL    HW112402   6.406   0.130   5.502 -1.3963  0.3769  0.8400
 2957SOL    HW212403   6.404  -0.022   5.505  1.2281  0.3112  1.7658
 2958SOL     OW12404   0.575   0.002   6.244 -0.3631 -0.3310  0.0446
 2958SOL    HW112405   0.527  -0.046   6.311  0.0393 -3.9973 -2.0377
 2958SOL    HW212406   0.666   0.000   6.273 -0.3734 -0.7349  0.0570
 2959SOL     OW12407   4.060   1.281   6.692  0.7110 -0.3066  0.3068
 2959SOL    HW112408   4.121   1.232   6.637 -1.8407 -1.2915 -1.8515
 2959SOL    HW212409   4.091   1.371   6.688  1.7750 -0.7074 -1.1024
 2960SOL     OW12410   6.206  10.581   9.079  0.0464 -0.4295  0.0879
 2960SOL    HW112411   6.285  10.617   9.118  0.9676  0.2686 -2.2244
 2960SOL    HW212412   6.135  10.608   9.137  1.4737 -1.1336  2.2595
 2961SOL     OW12413   9.031   7.737  10.027  0.3268 -0.4137 -0.3891
 2961SOL    HW112414   8.947   7.745  10.073  0.6610  0.4470  0.0826
 2961SOL    HW212415   9.062   7.649  10.049  0.0276 -0.3635  0.2573
 2962SOL     OW12416   2.562   3.645   2.448  0.4825  0.3296 -0.8323
 2962SOL    HW112417   2.582   3.734   2.477  3.4975 -0.6299  0.4895
 2962SOL    HW212418   2.524   3.657   2.361 -1.0508  2.9430  0.0656
 2963SOL     OW12419   9.780   4.206  10.225  0.6538 -0.5778 -0.0789
 2963SOL    HW112420   9.756   4.295  10.201 -0.3457 -0.5733  0.8755
 2963SOL    HW212421   9.776   4.204  10.320  2.5094 -1.1537  0.0233
 2964SOL     OW12422   4.525   0.855  10.346 -0.4769 -0.1538 -0.4560
 2964SOL    HW112423   4.454   0.891  10.293 -0.7660  1.7699  1.0955
 2964SOL    HW212424   4.541   0.768  10.310 -2.5695 -0.0396 -1.8214
 2965SOL     OW12425   0.819   6.680  10.473  0.7810  0.4615  0.3283
 2965SOL    HW112426   0.816   6.731  10.392  1.2067  1.5032  0.9438
 2965SOL    HW212427   0.803   6.745  10.542 -1.7105 -0.7162  0.9825
 2966SOL     OW12428   8.917   6.838   1.362 -0.2087  0.7076  0.6598
 2966SOL    HW112429   8.863   6.916   1.363 -2.6611 -0.8821  0.0174
 2966SOL    HW212430   8.991   6.861   1.305 -2.1229  1.7973 -1.5125
 2967SOL     OW12431   3.118   3.659   8.006  0.0303  0.4420 -0.2746
 2967SOL    HW112432   3.028   3.629   7.990  0.1393  0.7888 -1.6810
 2967SOL    HW212433   3.137   3.717   7.932  1.7902 -0.4784 -0.5984
 2968SOL     OW12434   1.149   1.110   8.929 -0.0361 -0.1386 -0.4022
 2968SOL    HW112435   1.186   1.049   8.993  0.1938 -0.3458 -0.7340
 2968SOL    HW212436   1.166   1.069   8.844  1.6760  1.2016 -0.7613
 2969SOL     OW12437   4.311   2.187   4.585  0.2103  0.5844  0.5361
 2969SOL    HW112438   4.362   2.149   4.656  2.0455 -1.3448 -1.6404
 2969SOL    HW212439   4.229   2.138   4.585  1.6165 -1.9663 -0.7630
 2970SOL     OW12440   2.046   7.712   4.587 -0.0027 -0.2402 -0.7264
 2970SOL    HW112441   2.044   7.640   4.650  0.5393 -0.4223 -0.9103
 2970SOL    HW212442   2.009   7.787   4.634  0.0481 -0.4702 -0.3183
 2971SOL     OW12443   8.264   8.009   2.792 -0.6443 -0.2208 -0.2300
 2971SOL    HW112444   8.284   8.021   2.885 -1.0262  0.2193 -0.1979
 2971SOL    HW212445   8.168   8.005   2.789 -0.6081 -0.9906 -0.5233
 2972SOL     OW12446   3.331   6.988   6.703  0.1113  0.4853  0.3964
 2972SOL    HW112447   3.419   6.973   6.670 -0.5123  0.1389 -1.1823
 2972SOL    HW212448   3.287   6.903   6.694 -0.1611  0.4229  1.9677
 2973SOL     OW12449   4.921   0.287   4.555 -0.3630 -0.2012  0.2424
 2973SOL    HW112450   4.970   0.241   4.487 -0.7790  0.4186 -0.4966
 2973SOL    HW212451   4.848   0.328   4.508 -1.4309 -0.8615  1.2771
 2974SOL     OW12452   0.532   3.976  10.619  0.4246  0.3833  0.4758
 2974SOL    HW112453   0.586   3.932  10.554 -0.0090 -1.2847  1.1844
 2974SOL    HW212454   0.442   3.948  10.598  0.1716  0.6966  1.1253
 2975SOL     OW12455  10.920   8.614  10.545 -0.4957  0.2262  0.2007
 2975SOL    HW112456  10.852   8.565  10.591  1.4286 -0.2316  2.7921
 2975SOL    HW212457  10.913   8.585  10.454 -3.2430 -0.3114  0.5056
 2976SOL     OW12458   6.997   3.092   7.588  0.0840  0.2309  0.0478
 2976SOL    HW112459   7.070   3.062   7.534  0.7433  0.3344  0.8693
 2976SOL    HW212460   6.976   3.017   7.644 -0.0433  0.3983  0.2254
 2977SOL     OW12461   4.327   6.275  10.309 -0.3913 -0.2562  0.0788
 2977SOL    HW112462   4.251   6.240  10.355 -1.1311  2.2899  0.9480
 2977SOL    HW212463   4.302   6.274  10.217 -0.9391 -0.6791  0.2276
 2978SOL     OW12464   2.701   7.400   3.709 -0.0518 -0.8951  0.0548
 2978SOL    HW112465   2.653   7.334   3.760 -0.3387 -0.2850  0.5976
 2978SOL    HW212466   2.642   7.423   3.637  0.7238 -2.4290 -1.1276
 2979SOL     OW12467   0.643   4.451   5.109 -0.2484  1.0365 -0.5982
 2979SOL    HW112468   0.722   4.436   5.057  0.2279  2.0405 -0.1967
 2979SOL    HW212469   0.675   4.475   5.196 -1.0133  0.5994 -0.1852
 2980SOL     OW12470   5.950  10.151   6.685 -0.2065  0.3730  0.1415
 2980SOL    HW112471   5.956  10.058   6.663  0.5168  0.2168  0.9434
 2980SOL    HW212472   6.021  10.192   6.634 -1.4690  0.7576 -1.4161
 2981SOL     OW12473  11.087   9.525   1.052  0.0632  0.3079  0.1688
 2981SOL    HW112474  11.082   9.538   1.147 -0.5389 -0.0321  0.1896
 2981SOL    HW212475  11.131   9.603   1.019  1.6304 -0.2214  0.8823
 2982SOL     OW12476   5.607   2.703  10.887 -0.2320  0.7235  0.0588
 2982SOL    HW112477   5.633   2.618  10.853  0.5041  0.6177  0.8540
 2982SOL    HW212478   5.555   2.742  10.817 -0.7388 -0.4481 -0.2417
 2983SOL     OW12479   4.167   1.537   8.472  0.3430  0.7756 -0.0626
 2983SOL    HW112480   4.151   1.620   8.427  1.4472 -0.7021 -3.5539
 2983SOL    HW212481   4.261   1.537   8.489  0.2466  0.5027  0.4695
 2984SOL     OW12482   6.975   5.629   7.171  0.2272 -0.0690 -0.9199
 2984SOL    HW112483   7.010   5.581   7.246 -2.7732 -1.4681 -0.2623
 2984SOL    HW212484   6.919   5.565   7.126 -0.5952  1.6621 -2.4653
 2985SOL     OW12485   0.047   3.605   6.214  0.3104  0.3593  0.1667
 2985SOL    HW112486   0.007   3.661   6.149  0.1400  0.0430 -0.0054
 2985SOL    HW212487   0.007   3.631   6.297  1.1518  1.3473  0.2798
 2986SOL     OW12488   4.720  10.528   1.702  0.0638  0.1398 -0.0212
 2986SOL    HW112489   4.640  10.525   1.650  0.5306  1.3002 -0.8574
 2986SOL    HW212490   4.702  10.472   1.777 -0.9458 -0.8880 -0.9932
 2987SOL     OW12491   3.420   4.404   5.563 -0.2091 -0.1883 -0.1726
 2987SOL    HW112492   3.504   4.379   5.602  0.1323  1.8025  0.4834
 2987SOL    HW212493   3.375   4.321   5.547  1.0274 -1.2086  1.3825
 2988SOL     OW12494   9.937   7.493   7.835 -0.2310 -0.7006 -0.2636
 2988SOL    HW112495   9.945   7.483   7.740  0.5285  1.4775 -0.4887
 2988SOL    HW212496  10.014   7.448   7.869  0.1639 -0.4525 -0.7927
 2989SOL     OW12497   8.467   0.731   3.129 -0.1154  0.3551  0.3005
 2989SOL    HW112498   8.541   0.740   3.190 -0.0664  0.6104  0.2071
 2989SOL    HW212499   8.460   0.817   3.088  1.4502 -0.4651 -1.8742
 2990SOL     OW12500   6.219   3.960   2.095  0.2968 -0.2027 -0.2702
 2990SOL    HW112501   6.133   3.996   2.077  0.3103  0.5967  1.1576
 2990SOL    HW212502   6.211   3.917   2.181  1.1204 -0.7851 -0.4625
 2991SOL     OW12503   0.964   4.525   1.482  0.5243  0.0851  0.2062
 2991SOL    HW112504   1.042   4.496   1.529  1.5463 -0.0821 -1.5286
 2991SOL    HW212505   0.985   4.613   1.452 -0.0195  0.1048 -0.1232
 2992SOL     OW12506   1.721   0.967  10.747 -0.0189  0.2219  0.3154
 2992SOL    HW112507   1.680   0.930  10.824 -1.1744  1.0196  0.1178
 2992SOL    HW212508   1.687   0.915  10.674 -1.6304  1.5687  0.0400
 2993SOL     OW12509  10.159   8.719   5.384 -0.1944 -0.0860  0.0198
 2993SOL    HW112510  10.130   8.733   5.294  0.7008  0.3044 -0.2219
 2993SOL    HW212511  10.136   8.627   5.402 -0.4446 -0.1494 -0.5771
 2994SOL     OW12512   9.492   5.506   2.257  0.0181 -0.3996 -0.2178
 2994SOL    HW112513   9.509   5.521   2.349  0.1006  0.7661 -0.4125
 2994SOL    HW212514   9.534   5.422   2.238 -0.2571 -0.7883  0.8655
 2995SOL     OW12515   1.561   8.300   3.422  0.0045 -0.6582 -0.4343
 2995SOL    HW112516   1.566   8.247   3.501  2.4044  0.7301  0.4482
 2995SOL    HW212517   1.561   8.390   3.454  0.2879 -0.0756 -1.9968
 2996SOL     OW12518   4.213   1.778   1.900  0.3119 -0.2313  0.1249
 2996SOL    HW112519   4.139   1.718   1.908 -1.6968  1.9773 -0.8755
 2996SOL    HW212520   4.202   1.841   1.971  1.0478  0.3554 -0.2641
 2997SOL     OW12521   5.272   6.006   2.184 -1.0003 -0.0282 -0.4580
 2997SOL    HW112522   5.364   6.030   2.177 -1.0696  0.6143  0.7712
 2997SOL    HW212523   5.247   5.983   2.094 -0.2937  2.1445 -1.2687
 2998SOL     OW12524  10.881  10.966   3.063 -0.6730  0.3366 -0.7017
 2998SOL    HW112525  10.846  11.055   3.067 -0.5006  0.3897 -0.2762
 2998SOL    HW212526  10.974  10.978   3.043 -0.2897  0.3451  0.9542
 2999SOL     OW12527   9.565   2.518   7.020 -0.0451 -0.3813  0.0689
 2999SOL    HW112528   9.575   2.608   7.051 -1.2795 -0.5365  1.0081
 2999SOL    HW212529   9.471   2.506   7.012  0.1473 -1.2943 -1.0081
 3000SOL     OW12530   5.289   0.792   1.895 -0.0581 -0.2310 -0.6443
 3000SOL    HW112531   5.319   0.729   1.962 -0.8422 -1.1112 -1.0968
 3000SOL    HW212532   5.278   0.739   1.816  2.1432  1.0143 -1.8964
 3001SOL     OW12533  10.341   1.600   3.451  0.6090  0.5062 -0.1960
 3001SOL    HW112534  10.253   1.621   3.483  0.5442  1.1455 -0.7661
 3001SOL    HW212535  10.387   1.685   3.450  0.9144  0.3407 -0.8447
 3002SOL     OW12536  10.855   7.338   5.727 -0.3535  0.0013 -0.6499
 3002SOL    HW112537  10.947   7.315   5.717 -0.0769  0.8894 -0.1853
 3002SOL    HW212538  10.849   7.380   5.813 -1.2852 -0.5062 -0.4468
 3003SOL     OW12539   0.241   7.264   4.612  0.0012  0.2870  0.4324
 3003SOL    HW112540   0.291   7.243   4.533 -0.5179  0.0713  0.1529
 3003SOL    HW212541   0.306   7.293   4.675  0.2442  3.0616 -0.9130
 3004SOL     OW12542   3.970   9.127  10.950  0.4057 -0.3717 -0.2882
 3004SOL    HW112543   4.018   9.183  11.010 -0.0904  0.5288 -0.7135
 3004SOL    HW212544   4.038   9.083  10.898  0.7986 -0.3307  0.1843
 3005SOL     OW12545   4.831   8.208   2.913  0.0815 -0.1005 -0.8164
 3005SOL    HW112546   4.919   8.243   2.907  0.7023 -1.7857 -2.3799
 3005SOL    HW212547   4.793   8.252   2.990  1.9994  1.1750 -0.5258
 3006SOL     OW12548   8.690   5.825   2.854  0.2915 -0.1083  0.5894
 3006SOL    HW112549   8.760   5.861   2.799 -0.2074  1.1838  0.7616
 3006SOL    HW212550   8.687   5.882   2.930 -1.6959  0.6010  0.0608
 3007SOL     OW12551   9.953   3.193   2.295 -0.0331 -0.3577 -0.3004
 3007SOL    HW112552   9.931   3.137   2.220  1.1528 -2.4071  0.7893
 3007SOL    HW212553  10.043   3.221   2.278 -0.3387  0.5685 -0.4304
 3008SOL     OW12554   4.284   8.742   1.364 -0.0093 -0.2235 -0.5606
 3008SOL    HW112555   4.373   8.771   1.346 -0.7261  1.9780 -0.9092
 3008SOL    HW212556   4.294   8.663   1.417  2.1591  0.6512  0.4586
 3009SOL     OW12557   0.023   8.191   3.432 -0.5446  0.3630  0.2697
 3009SOL    HW112558  -0.050   8.131   3.446 -0.5468  0.3004 -0.0085
 3009SOL    HW212559   0.100   8.143   3.464 -0.4251 -0.1169 -0.7051
 3010SOL     OW12560   4.638   3.420   9.231 -0.0015  0.0958  0.2281
 3010SOL    HW112561   4.695   3.345   9.247 -0.5937 -0.4431 -0.1299
 3010SOL    HW212562   4.696   3.490   9.202  0.6448 -0.0071  1.2335
 3011SOL     OW12563   1.702   9.374   9.156  0.3477  0.5422  0.8807
 3011SOL    HW112564   1.645   9.357   9.081 -1.3975  0.5825  2.1463
 3011SOL    HW212565   1.790   9.352   9.124 -0.3697  0.3014 -1.0766
 3012SOL     OW12566   8.124   8.185   4.960  0.3377  0.6144 -0.1198
 3012SOL    HW112567   8.117   8.268   4.913  1.7207  2.5026  2.6934
 3012SOL    HW212568   8.045   8.136   4.936 -2.3456  4.1736  0.6501
 3013SOL     OW12569   1.978  10.443   4.978  0.3452  0.6032  0.1781
 3013SOL    HW112570   2.066  10.479   4.971  0.5572 -0.1658 -1.8252
 3013SOL    HW212571   1.920  10.518   4.969  0.7943  0.8621 -0.5995
 3014SOL     OW12572  10.114   4.066   1.125 -0.0449  0.0988  0.6545
 3014SOL    HW112573  10.074   4.025   1.202 -2.2033  1.4940  0.3499
 3014SOL    HW212574  10.170   4.135   1.161  1.9794 -1.6517  1.0687
 3015SOL     OW12575  10.913   1.980   8.503  0.3550  0.0603  0.0648
 3015SOL    HW112576  10.823   1.950   8.518 -0.0221  1.0715 -0.0502
 3015SOL    HW212577  10.968   1.907   8.530 -0.5279 -1.0507 -1.0740
 3016SOL     OW12578   0.291   0.464   6.409 -0.7554  1.0256  0.4267
 3016SOL    HW112579   0.344   0.538   6.439 -0.5949  0.9743  0.2702
 3016SOL    HW212580   0.351   0.389   6.413  0.4062  1.5411 -3.3557
 3017SOL     OW12581   2.570  10.782   9.752  0.0413 -0.9727 -0.2846
 3017SOL    HW112582   2.596  10.700   9.794  2.4675 -2.2217 -3.7394
 3017SOL    HW212583   2.489  10.761   9.706  1.0114 -1.7409 -1.7179
 3018SOL     OW12584   0.591   0.429   4.843 -0.3861  0.1807 -0.7077
 3018SOL    HW112585   0.521   0.372   4.875 -0.3000  0.0656 -0.7250
 3018SOL    HW212586   0.655   0.370   4.803 -0.1546  0.2592 -0.4623
 3019SOL     OW12587   6.272   9.349   0.961 -0.2042 -0.1519  0.6118
 3019SOL    HW112588   6.356   9.392   0.945  0.5777 -1.2936  1.3895
 3019SOL    HW212589   6.279   9.266   0.914 -0.5845 -0.5793  1.2855
 3020SOL     OW12590   0.871   3.367  10.860 -0.1821  0.7496 -0.1732
 3020SOL    HW112591   0.887   3.276  10.886 -0.4507  1.0547  1.1145
 3020SOL    HW212592   0.907   3.372  10.771 -0.2589 -0.6349 -0.3127
 3021SOL     OW12593   9.359   5.860   8.121 -0.2482 -0.6005  0.1814
 3021SOL    HW112594   9.429   5.859   8.187  0.5547  1.0382 -0.6082
 3021SOL    HW212595   9.369   5.777   8.075  0.9189 -0.5705  0.3459
 3022SOL     OW12596  11.012   8.847   4.620 -0.0654 -0.0430 -0.1129
 3022SOL    HW112597  11.019   8.808   4.707 -0.4063  2.5352  1.1603
 3022SOL    HW212598  10.921   8.835   4.595 -0.4219  0.8336  0.7292
 3023SOL     OW12599   5.993  10.266   2.393 -0.6417  0.2705  0.2242
 3023SOL    HW112600   6.053  10.311   2.333  0.8090 -1.2625  0.4679
 3023SOL    HW212601   5.974  10.183   2.350 -0.7751 -0.2155  1.1901
 3024SOL     OW12602   9.716   7.099  10.010 -0.1678 -0.5299  0.3164
 3024SOL    HW112603   9.791   7.053   9.972  0.6265 -0.6701  1.9980
 3024SOL    HW212604   9.735   7.104  10.103 -1.8262  0.2644  0.6464
 3025SOL     OW12605   6.524   5.203   9.621  0.4660 -0.3848 -0.1377
 3025SOL    HW112606   6.543   5.199   9.714  1.5173  1.2585 -0.2488
 3025SOL    HW212607   6.435   5.235   9.615  0.1731 -1.0985  0.2913
 3026SOL     OW12608   3.502  10.207   8.171 -0.5943 -0.0264 -0.5880
 3026SOL    HW112609   3.475  10.186   8.261  1.5689 -0.0809  0.0990
 3026SOL    HW212610   3.444  10.154   8.116  0.7674 -3.3844  0.9259
 3027SOL     OW12611   8.891   5.641   7.631 -0.1036 -0.4798 -0.2363
 3027SOL    HW112612   8.800   5.618   7.650 -0.6549  0.2827 -1.7676
 3027SOL    HW212613   8.890   5.735   7.618  0.8858 -0.4810 -0.3942
 3028SOL     OW12614   0.580  10.121   8.642  0.2068  0.0748 -0.7025
 3028SOL    HW112615   0.599  10.215   8.641 -1.7057  0.6018  2.0691
 3028SOL    HW212616   0.655  10.081   8.685  0.5490  0.4650 -0.9362
 3029SOL     OW12617   9.057   3.758   9.824 -0.3794 -0.0905  0.4888
 3029SOL    HW112618   9.049   3.755   9.728  0.1627 -0.0283  0.4367
 3029SOL    HW212619   9.001   3.688   9.855 -0.3593 -0.2764  0.1110
 3030SOL     OW12620   6.612  10.366  10.144  0.2519 -0.0375  0.4889
 3030SOL    HW112621   6.698  10.358  10.104  0.0283 -0.3899  0.0656
 3030SOL    HW212622   6.551  10.365  10.070 -0.0565  1.4344  0.6745
 3031SOL     OW12623   0.467   8.166   3.122  0.4881 -0.1007  0.5463
 3031SOL    HW112624   0.416   8.242   3.097  1.2276  0.6308  1.2013
 3031SOL    HW212625   0.408   8.092   3.108 -0.4852  0.6513  0.5662
 3032SOL     OW12626   8.427  10.575  10.496 -0.7065 -0.1295 -0.1919
 3032SOL    HW112627   8.340  10.607  10.523  0.1570  2.5399 -0.2780
 3032SOL    HW212628   8.408  10.516  10.422 -2.4818 -0.0990  0.1789
 3033SOL     OW12629   9.686   7.872   4.479  0.4013  0.4743 -0.2975
 3033SOL    HW112630   9.606   7.868   4.532  0.3283 -0.0308 -0.4468
 3033SOL    HW212631   9.705   7.966   4.472  0.1268  0.5678  0.1963
 3034SOL     OW12632   1.940   4.651   1.658 -0.2082  0.1649  0.3361
 3034SOL    HW112633   1.954   4.734   1.703  0.9220  0.2221 -0.0780
 3034SOL    HW212634   1.851   4.625   1.681 -0.2768  1.0770  1.1417
 3035SOL     OW12635   6.594   5.626   9.507  0.0485  0.0738  0.8374
 3035SOL    HW112636   6.528   5.614   9.575 -1.4888  0.4866 -0.5228
 3035SOL    HW212637   6.669   5.665   9.553 -2.1753  3.7076  1.7796
 3036SOL     OW12638   2.214   0.193   9.629 -0.7364 -0.2846 -0.6856
 3036SOL    HW112639   2.170   0.265   9.674 -0.2851 -0.3771 -0.0857
 3036SOL    HW212640   2.278   0.161   9.692  0.2127 -0.1310 -1.5532
 3037SOL     OW12641   8.533   0.606   3.537  0.0525  0.3346  0.2749
 3037SOL    HW112642   8.441   0.622   3.560 -0.0452 -0.2013  0.2711
 3037SOL    HW212643   8.551   0.669   3.467 -0.5703 -0.1378 -0.3278
 3038SOL     OW12644   9.324   5.559   3.823  0.3374  0.0874 -0.0958
 3038SOL    HW112645   9.367   5.565   3.909  1.4770 -0.3953 -0.6143
 3038SOL    HW212646   9.242   5.513   3.841  0.5801 -0.0529  0.7222
 3039SOL     OW12647   5.699   3.904   5.258 -0.3162 -0.6745 -0.1716
 3039SOL    HW112648   5.778   3.896   5.205 -0.0018 -0.1178  0.2026
 3039SOL    HW212649   5.678   3.815   5.285 -0.4450 -0.9565 -1.1777
 3040SOL     OW12650   8.139   2.724   4.189 -0.0911  0.6633 -0.2749
 3040SOL    HW112651   8.161   2.709   4.097 -1.8722  0.0865 -0.6405
 3040SOL    HW212652   8.195   2.797   4.215  0.9814  0.3603 -1.5920
 3041SOL     OW12653   1.563   3.141   9.450  0.4939 -0.3405  0.0835
 3041SOL    HW112654   1.574   3.053   9.487  1.5088  0.3336  1.4626
 3041SOL    HW212655   1.628   3.145   9.379 -0.0798 -0.9386 -0.4959
 3042SOL     OW12656   4.840   9.674   0.536  0.3094  0.6701 -0.2722
 3042SOL    HW112657   4.824   9.672   0.630 -2.6790 -0.5698 -0.6932
 3042SOL    HW212658   4.863   9.583   0.514 -0.5571  0.5843 -0.8994
 3043SOL     OW12659   9.865   6.200   7.298  0.5951  0.4480 -0.2526
 3043SOL    HW112660   9.915   6.280   7.317 -0.2309  1.0462 -0.5652
 3043SOL    HW212661   9.914   6.158   7.227 -0.2403  1.9044 -1.7518
 3044SOL     OW12662   0.639   9.550   8.639 -0.3336  0.3192 -0.8146
 3044SOL    HW112663   0.580   9.569   8.712  0.2847 -1.4669  0.2050
 3044SOL    HW212664   0.711   9.500   8.679 -0.4618 -1.5696 -2.7816
 3045SOL     OW12665   8.640   9.075   3.094  0.4048 -0.2562 -0.4895
 3045SOL    HW112666   8.651   9.101   3.003  2.0904  0.2255 -0.1889
 3045SOL    HW212667   8.562   9.121   3.123 -0.6643 -1.0998 -1.9112
 3046SOL     OW12668   6.906   3.114   1.602 -0.2048 -0.0491  0.3183
 3046SOL    HW112669   6.979   3.076   1.651  0.4510  0.5201 -0.2000
 3046SOL    HW212670   6.922   3.087   1.511  0.3840  1.5724 -0.0958
 3047SOL     OW12671   8.842   9.994   4.270  0.5412 -0.3126  0.2415
 3047SOL    HW112672   8.810   9.926   4.210  1.8288 -0.4408 -0.3269
 3047SOL    HW212673   8.820  10.076   4.226 -0.3005 -0.3534  0.5553
 3048SOL     OW12674   9.716   2.120   2.627  0.4477  0.2833  0.1484
 3048SOL    HW112675   9.757   2.034   2.617  0.3387  0.3516 -0.9762
 3048SOL    HW212676   9.737   2.145   2.717  1.1798 -0.5554  0.2342
 3049SOL     OW12677   7.658   5.176   1.292  0.1123  0.3821 -0.6904
 3049SOL    HW112678   7.582   5.118   1.286  0.1120  0.1166  1.1901
 3049SOL    HW212679   7.728   5.128   1.248 -0.4323 -0.0672 -1.0799
 3050SOL     OW12680  11.069   7.338   9.711 -0.3256 -0.2505 -0.1067
 3050SOL    HW112681  11.162   7.357   9.701 -0.4135  0.2847  0.0693
 3050SOL    HW212682  11.064   7.289   9.794 -0.2267 -0.0696  0.0075
 3051SOL     OW12683   6.616   3.227   8.270  0.5285 -0.2355  0.4464
 3051SOL    HW112684   6.623   3.134   8.291 -1.1952 -0.4300  0.3209
 3051SOL    HW212685   6.648   3.233   8.179  0.9966 -0.6291  0.5798
 3052SOL     OW12686   1.151   2.443   4.223 -0.1604 -0.2328 -0.0753
 3052SOL    HW112687   1.239   2.479   4.209  0.2726 -0.8196  1.0160
 3052SOL    HW212688   1.160   2.389   4.301 -1.5294 -0.2305  0.0971
 3053SOL     OW12689   0.366   7.638   5.694  0.1989  0.1898  0.5508
 3053SOL    HW112690   0.450   7.684   5.693  0.6768 -0.6711 -0.7625
 3053SOL    HW212691   0.389   7.547   5.709 -0.5934  0.0918  1.2191
 3054SOL     OW12692   5.118   1.720   2.709 -0.0747 -0.3078 -0.1619
 3054SOL    HW112693   5.085   1.630   2.698  0.7405 -0.5530 -0.7541
 3054SOL    HW212694   5.213   1.709   2.714 -0.0226  0.4610  0.5435
 3055SOL     OW12695   3.038   0.159   3.235  0.0151  0.4928 -0.5276
 3055SOL    HW112696   3.120   0.176   3.190 -0.1740 -1.5449 -1.7886
 3055SOL    HW212697   3.040   0.065   3.253 -1.8916  0.4508 -0.3033
 3056SOL     OW12698  10.763   3.052   1.110 -0.1009  1.0083 -0.5656
 3056SOL    HW112699  10.675   3.022   1.131 -0.2708  1.9491  0.1282
 3056SOL    HW212700  10.756   3.148   1.109  0.8530  1.0841 -0.7816
 3057SOL     OW12701   9.464   5.348   3.642  0.7647  0.0369  0.5821
 3057SOL    HW112702   9.462   5.441   3.665 -1.2851 -0.1229  1.2711
 3057SOL    HW212703   9.474   5.303   3.726 -0.1962 -0.4026  0.4711
 3058SOL     OW12704   8.982   9.866   1.884 -0.0023 -0.6404  0.0975
 3058SOL    HW112705   9.012   9.879   1.974 -0.1902 -0.3390  0.1186
 3058SOL    HW212706   8.887   9.864   1.890 -0.0609  0.3516 -0.2056
 3059SOL     OW12707   9.338   9.631   7.480 -0.7718  0.0171 -0.0200
 3059SOL    HW112708   9.278   9.616   7.553 -0.6912  2.9156  0.7873
 3059SOL    HW212709   9.389   9.708   7.506  0.9017 -0.2446 -2.1675
 3060SOL     OW12710   4.593   5.576   8.102  0.2319 -0.4241  0.1095
 3060SOL    HW112711   4.585   5.622   8.186  1.2808  1.2155 -0.6323
 3060SOL    HW212712   4.507   5.535   8.089 -1.7464  3.3721 -0.2927
 3061SOL     OW12713   5.257   1.487   7.120  0.0122  0.0485 -0.1810
 3061SOL    HW112714   5.184   1.429   7.141  0.9637 -0.5205  1.7711
 3061SOL    HW212715   5.303   1.500   7.203  1.6826  1.0346 -1.1859
 3062SOL     OW12716   4.871   1.970   1.548 -0.0924 -0.5711 -0.3726
 3062SOL    HW112717   4.932   1.949   1.618 -1.6752 -3.1692  0.3526
 3062SOL    HW212718   4.919   2.033   1.493  2.6633 -1.3884  0.9008
 3063SOL     OW12719   8.863   7.326   8.695  0.3964  0.1395  0.1494
 3063SOL    HW112720   8.776   7.284   8.690  0.7762 -0.5702 -0.8005
 3063SOL    HW212721   8.923   7.260   8.660  1.2933  0.7163  0.5767
 3064SOL     OW12722   9.830   8.036   0.986 -0.0742  0.3255  0.1676
 3064SOL    HW112723   9.784   7.967   1.034 -0.4390  0.7576  0.4553
 3064SOL    HW212724   9.904   7.992   0.945 -1.8122 -0.8440 -1.9879
 3065SOL     OW12725   4.565   5.306   6.434  0.5543  0.7982  0.0477
 3065SOL    HW112726   4.577   5.280   6.343 -1.4433  1.0980 -0.3504
 3065SOL    HW212727   4.617   5.386   6.442  0.6362  0.8583 -0.8843
 3066SOL     OW12728   4.633   0.491   2.126 -0.5606 -0.0305  0.0066
 3066SOL    HW112729   4.614   0.566   2.182 -0.7252 -1.0522  1.3846
 3066SOL    HW212730   4.711   0.451   2.165  0.5890  0.3954 -1.7503
 3067SOL     OW12731   8.115   1.994   9.641 -0.4458  0.4891  0.4806
 3067SOL    HW112732   8.098   2.016   9.550  1.3559  0.3631  0.0760
 3067SOL    HW212733   8.044   2.036   9.690 -1.6605  0.2392 -0.9911
 3068SOL     OW12734   4.753   6.388   6.442  0.9198  0.0261 -0.0852
 3068SOL    HW112735   4.844   6.379   6.415  0.9016 -0.2496 -0.0621
 3068SOL    HW212736   4.725   6.298   6.462  0.5142  0.0505 -0.5241
 3069SOL     OW12737   0.989   7.607   2.544 -0.2219 -0.3054  0.1014
 3069SOL    HW112738   0.928   7.641   2.479 -0.6514 -0.7377  0.2742
 3069SOL    HW212739   1.041   7.542   2.497 -0.4871 -0.5689  0.1672
 3070SOL     OW12740   8.666   5.434   1.042 -0.4442 -0.0426  0.0733
 3070SOL    HW112741   8.579   5.426   1.081 -0.8100  0.2119 -0.6923
 3070SOL    HW212742   8.726   5.425   1.117 -1.1294  0.1505  0.6575
 3071SOL     OW12743   4.239   1.177   4.798 -0.1873 -0.0727 -0.2520
 3071SOL    HW112744   4.203   1.184   4.710  1.3257  1.2191 -0.8125
 3071SOL    HW212745   4.331   1.202   4.789 -0.0368  0.2905  1.7262
 3072SOL     OW12746   0.132   5.248   0.439  0.0782 -0.4489 -0.6763
 3072SOL    HW112747   0.225   5.266   0.446 -0.4070  1.8881  1.3614
 3072SOL    HW212748   0.115   5.182   0.506  0.1369 -0.0922 -0.3017
 3073SOL     OW12749   5.832   1.570   8.247  0.3228  0.1725 -0.3166
 3073SOL    HW112750   5.802   1.632   8.314  1.1610 -1.6529  1.9200
 3073SOL    HW212751   5.870   1.625   8.178 -2.5621  2.2561 -0.4226
 3074SOL     OW12752   1.838   5.636   2.309  0.2065 -0.0899  0.3006
 3074SOL    HW112753   1.893   5.558   2.323  1.2402  0.3843 -0.8801
 3074SOL    HW212754   1.891   5.708   2.343  0.7880  0.4978 -1.7326
 3075SOL     OW12755  10.345   9.980   8.492 -0.3430 -0.3157  0.8021
 3075SOL    HW112756  10.262   9.970   8.446  0.9169 -1.8802 -1.2852
 3075SOL    HW212757  10.374   9.891   8.509  1.3451  0.1665  0.6358
 3076SOL     OW12758   1.415   3.753   7.141  0.2272  0.1185  0.1102
 3076SOL    HW112759   1.415   3.672   7.193 -0.7243  1.0648  1.6753
 3076SOL    HW212760   1.377   3.819   7.200  2.4037  2.0816 -0.5566
 3077SOL     OW12761   9.342   8.712   7.333 -0.1895  0.4499 -0.2706
 3077SOL    HW112762   9.288   8.659   7.274  0.6397 -0.0835 -0.5701
 3077SOL    HW212763   9.373   8.784   7.277  0.3056  0.1425 -0.3925
 3078SOL     OW12764   2.975   8.667   4.392  0.9711 -0.1001 -0.0547
 3078SOL    HW112765   2.947   8.671   4.300  1.4897  3.0542 -0.1854
 3078SOL    HW212766   2.934   8.587   4.426 -2.3404  0.5681 -2.0399
 3079SOL     OW12767   9.031   6.351  10.512 -0.3447  0.0900  0.6700
 3079SOL    HW112768   9.115   6.325  10.551 -1.3155 -0.4407  2.5137
 3079SOL    HW212769   9.040   6.445  10.497  0.0900  0.3303  2.2238
 3080SOL     OW12770   8.656   0.043   2.055 -0.7396  0.4664 -0.7846
 3080SOL    HW112771   8.672   0.062   1.963 -1.4530  2.3688 -0.5558
 3080SOL    HW212772   8.729  -0.014   2.081  0.8227  1.8777 -1.8979
 3081SOL     OW12773   1.866   8.159   3.581 -0.2515 -0.1167 -0.3633
 3081SOL    HW112774   1.869   8.237   3.525 -0.9965 -0.2215 -0.5565
 3081SOL    HW212775   1.933   8.175   3.648 -1.0613  1.1319  0.1759
 3082SOL     OW12776   3.671   7.905   3.362  0.0531 -0.2437  0.5112
 3082SOL    HW112777   3.642   7.916   3.271 -0.7620  1.5759  0.9322
 3082SOL    HW212778   3.746   7.847   3.356  1.0592  1.1109 -1.5365
 3083SOL     OW12779   5.873   4.721   8.968 -0.5340  1.1456 -0.3747
 3083SOL    HW112780   5.811   4.752   8.902  0.7695  0.7732 -1.8344
 3083SOL    HW212781   5.959   4.747   8.935  0.2517 -0.1048  0.5742
 3084SOL     OW12782   8.744   3.046   5.153 -0.0095  0.1726  0.1807
 3084SOL    HW112783   8.689   3.100   5.097 -1.7141 -0.7085  0.9220
 3084SOL    HW212784   8.753   2.963   5.105  1.1596  0.4940 -0.1823
 3085SOL     OW12785   7.264   3.417   3.505 -0.0710  0.2202  0.0282
 3085SOL    HW112786   7.242   3.334   3.548  0.1366  0.0714 -0.1480
 3085SOL    HW212787   7.310   3.391   3.425  0.3059  0.5124  0.1490
 3086SOL     OW12788   9.111   7.804  10.867 -0.0267  0.3420 -0.2807
 3086SOL    HW112789   9.100   7.710  10.854 -0.0307  0.3627 -0.4252
 3086SOL    HW212790   9.191   7.825  10.819  0.3889  0.2766  0.3683
 3087SOL     OW12791   8.582  10.592   9.419  0.0870 -0.0358 -0.0010
 3087SOL    HW112792   8.588  10.498   9.400  0.6071  0.3996 -2.2714
 3087SOL    HW212793   8.492  10.615   9.398 -0.8004 -0.4131  2.9283
 3088SOL     OW12794   9.113   1.582   7.768 -0.4445 -0.0663 -0.7890
 3088SOL    HW112795   9.037   1.639   7.781 -0.9488 -0.5513 -1.5798
 3088SOL    HW212796   9.078   1.502   7.729  0.6137  0.2112 -2.4136
 3089SOL     OW12797   1.897   1.848   8.879  0.2303 -0.2306 -0.3796
 3089SOL    HW112798   1.911   1.942   8.888 -0.4500  0.0159 -1.6046
 3089SOL    HW212799   1.804   1.835   8.898  0.3650 -0.6898 -0.0130
 3090SOL     OW12800   1.282   9.375   9.592  0.1776  0.3127 -0.0923
 3090SOL    HW112801   1.296   9.386   9.498  2.0135  1.9448  0.2989
 3090SOL    HW212802   1.226   9.449   9.617  2.0661  1.6001  0.5154
 3091SOL     OW12803   6.180  10.235  10.828  0.4755 -0.1988  0.3128
 3091SOL    HW112804   6.115  10.166  10.838  0.9677 -0.6493  0.4444
 3091SOL    HW212805   6.155  10.301  10.893 -0.4027  0.0786 -0.2881
 3092SOL     OW12806   0.878   8.490  10.984  0.1054 -0.0896  0.3264
 3092SOL    HW112807   0.902   8.422  10.920 -0.7878 -0.6234  0.5425
 3092SOL    HW212808   0.782   8.492  10.982  0.1246  1.8352 -0.3647
 3093SOL     OW12809   3.720   0.260   9.884  0.3959  0.2663 -0.3366
 3093SOL    HW112810   3.727   0.354   9.903  0.0416 -0.0860  1.7803
 3093SOL    HW212811   3.670   0.225   9.958  0.6598 -1.6212 -1.0201
 3094SOL     OW12812   0.917   1.814   2.149  0.0322  0.1302 -0.4324
 3094SOL    HW112813   0.821   1.815   2.145  0.0416 -0.4274 -0.9715
 3094SOL    HW212814   0.938   1.871   2.223 -0.7583 -0.6111  0.3993
 3095SOL     OW12815   1.325   6.793   0.845 -0.1656  0.4759 -0.7924
 3095SOL    HW112816   1.280   6.795   0.761 -0.8716  0.1675 -0.4270
 3095SOL    HW212817   1.262   6.828   0.907 -0.3708 -1.0963 -0.0686
 3096SOL     OW12818   7.751   6.255   5.116 -0.2338 -0.5026 -0.0881
 3096SOL    HW112819   7.656   6.254   5.121 -0.3058  0.3261 -1.0824
 3096SOL    HW212820   7.779   6.206   5.193 -1.4555 -0.6753  0.2692
 3097SOL     OW12821   8.747   2.977   4.483 -0.4676 -0.2703  0.3738
 3097SOL    HW112822   8.832   2.964   4.440 -0.4415  0.7886  0.0736
 3097SOL    HW212823   8.768   2.982   4.576 -0.1217  0.5343  0.2605
 3098SOL     OW12824   8.864  10.430   5.766 -0.1443  0.4495  0.3697
 3098SOL    HW112825   8.787  10.414   5.821 -1.5550 -1.2557 -1.9071
 3098SOL    HW212826   8.835  10.496   5.703  0.0664 -0.5403 -0.7982
 3099SOL     OW12827   3.681   7.627   5.399 -0.0101  0.0211  0.2299
 3099SOL    HW112828   3.625   7.637   5.322  0.1257 -0.8110  0.0130
 3099SOL    HW212829   3.762   7.589   5.365  0.4040  0.5085  0.6526
 3100SOL     OW12830   0.174   2.455   0.685  0.2908 -0.0974 -0.2976
 3100SOL    HW112831   0.199   2.493   0.769 -2.0024  0.5800  0.1379
 3100SOL    HW212832   0.143   2.530   0.634  0.2713 -0.7140 -1.2139
 3101SOL     OW12833   1.596   5.357   1.734 -0.0975  0.8114  0.0939
 3101SOL    HW112834   1.615   5.418   1.662  0.4673  2.0129  1.2116
 3101SOL    HW212835   1.659   5.286   1.723 -0.3849  0.7032 -0.9067
 3102SOL     OW12836   5.125   1.408   3.290  0.2556 -0.3782 -0.0939
 3102SOL    HW112837   5.082   1.493   3.302  0.4948 -0.3475  0.5829
 3102SOL    HW212838   5.150   1.408   3.198  1.5394  0.9167  0.2072
 3103SOL     OW12839   8.785   9.502   8.537 -0.3776 -0.0330 -0.0193
 3103SOL    HW112840   8.837   9.481   8.615  0.1746  2.5505  0.4024
 3103SOL    HW212841   8.838   9.565   8.489 -1.2486 -0.6718 -1.9039
 3104SOL     OW12842  11.122   2.513   4.710  0.0296 -0.6981 -0.4933
 3104SOL    HW112843  11.032   2.505   4.742  0.0791  1.7328  0.4568
 3104SOL    HW212844  11.113   2.530   4.616 -0.4929 -0.5403 -0.4151
 3105SOL     OW12845   4.459   0.403  10.452 -0.5711  0.7024  0.0347
 3105SOL    HW112846   4.540   0.447  10.478  0.3858 -2.0755  2.3595
 3105SOL    HW212847   4.409   0.470  10.406  1.4407  3.6270  1.7281
 3106SOL     OW12848   7.365  10.443   6.840  0.1888  0.4097 -0.4378
 3106SOL    HW112849   7.436  10.506   6.833  1.3345 -0.7685  0.1054
 3106SOL    HW212850   7.310  10.474   6.912  0.3852  1.1021 -0.5864
 3107SOL     OW12851   5.814   4.579   1.367 -0.5318 -0.1449 -0.3007
 3107SOL    HW112852   5.755   4.504   1.376  1.1314 -1.4288  0.3662
 3107SOL    HW212853   5.764   4.642   1.316 -2.1574 -1.5148 -0.5035
 3108SOL     OW12854   7.200   7.073  11.006 -0.0385 -0.0498  0.1241
 3108SOL    HW112855   7.235   7.104  11.089 -1.2731 -0.0963  0.6883
 3108SOL    HW212856   7.105   7.085  11.014 -0.0837  1.4570 -1.8961
 3109SOL     OW12857   4.119   7.747  10.467  0.7525 -0.3331 -0.4405
 3109SOL    HW112858   4.089   7.700  10.545 -0.7924  1.0146 -0.1760
 3109SOL    HW212859   4.084   7.696  10.394 -1.3019  0.5748 -0.1489
 3110SOL     OW12860   3.162   3.179   1.488 -0.4192  0.2777  0.3612
 3110SOL    HW112861   3.236   3.233   1.516  0.6479 -2.1727  2.6686
 3110SOL    HW212862   3.163   3.184   1.392  0.8735  2.6023  0.4262
 3111SOL     OW12863   6.711   3.739   9.741  0.3551  0.2573  0.4204
 3111SOL    HW112864   6.762   3.661   9.761  2.3750  1.4211  0.0417
 3111SOL    HW212865   6.753   3.809   9.791 -0.7344  1.3181 -0.0989
 3112SOL     OW12866   6.575   2.682   0.108  0.0579  0.1547 -0.2884
 3112SOL    HW112867   6.517   2.753   0.133  0.5121 -0.1635  1.8179
 3112SOL    HW212868   6.635   2.673   0.181  2.0131 -0.3429 -1.8775
 3113SOL     OW12869   2.794   9.669   9.546  0.4868 -0.0216 -0.2864
 3113SOL    HW112870   2.761   9.601   9.604 -2.5494  0.8238 -0.8161
 3113SOL    HW212871   2.811   9.624   9.463  0.1065 -0.4314 -0.1448
 3114SOL     OW12872   7.569   1.964   1.781 -0.7548 -0.3865  0.0270
 3114SOL    HW112873   7.661   1.957   1.756 -0.8113 -0.9386 -0.0459
 3114SOL    HW212874   7.551   1.882   1.829 -0.7019  0.5363  1.7176
 3115SOL     OW12875   4.860   5.591   0.496 -0.5688  0.0581  0.6480
 3115SOL    HW112876   4.949   5.617   0.519  0.1328 -1.4856 -0.2070
 3115SOL    HW212877   4.805   5.637   0.560  0.9411 -0.1388  2.1546
 3116SOL     OW12878   5.858   5.973   2.597  0.1551  0.6677 -0.3617
 3116SOL    HW112879   5.796   5.900   2.595 -0.3509  1.0939 -0.5024
 3116SOL    HW212880   5.942   5.934   2.571 -0.2988  0.3093 -1.3495
 3117SOL     OW12881   6.194   9.111   4.868 -0.2675 -0.0317  0.0860
 3117SOL    HW112882   6.269   9.170   4.876  0.3811 -0.9639  1.1196
 3117SOL    HW212883   6.218   9.034   4.920 -1.4929 -0.8065 -0.4529
 3118SOL     OW12884   2.497   9.056  10.531 -0.3926  0.1459 -0.7309
 3118SOL    HW112885   2.523   9.147  10.516  0.5022 -0.2998 -2.0803
 3118SOL    HW212886   2.465   9.026  10.446  0.2200 -1.0732 -0.5546
 3119SOL     OW12887   8.444   1.823   8.212  0.2507  0.0786  0.1555
 3119SOL    HW112888   8.379   1.885   8.245  0.3717  0.6980 -0.7346
 3119SOL    HW212889   8.521   1.837   8.266 -0.3854 -0.7814  1.3369
 3120SOL     OW12890   8.582   0.761   0.879 -0.4808  0.5396  0.1738
 3120SOL    HW112891   8.626   0.726   0.957 -1.7861  0.9728  1.1429
 3120SOL    HW212892   8.497   0.790   0.911 -0.4836  2.0977 -1.1430
 3121SOL     OW12893   7.386   2.649   3.688  0.8641 -0.2575  0.5341
 3121SOL    HW112894   7.455   2.588   3.714  3.0844  1.3137 -1.3214
 3121SOL    HW212895   7.330   2.597   3.630  0.1306 -1.6765  2.4076
 3122SOL     OW12896   3.955   3.191   5.467  0.3777 -0.2940 -0.1704
 3122SOL    HW112897   4.044   3.168   5.442  0.5757  2.6446 -2.8599
 3122SOL    HW212898   3.966   3.251   5.541  0.5715 -0.7196  0.1441
 3123SOL     OW12899   8.022   4.297   1.844 -0.2908  0.0763 -0.2237
 3123SOL    HW112900   8.082   4.281   1.918 -0.1320  1.0389 -0.1300
 3123SOL    HW212901   7.937   4.308   1.885 -0.4736 -0.9021 -0.3237
 3124SOL     OW12902   1.723   5.129   2.843  0.2689  0.3515  0.6457
 3124SOL    HW112903   1.790   5.061   2.849  0.3400  0.4500  0.9553
 3124SOL    HW212904   1.670   5.104   2.767  0.0799 -0.2463  0.9685
 3125SOL     OW12905   0.009   3.828   3.057 -0.4717  0.0275 -0.3632
 3125SOL    HW112906  -0.023   3.754   3.107 -2.7095  0.8014 -0.5455
 3125SOL    HW212907   0.090   3.796   3.016 -1.5262 -2.4359 -0.7229
 3126SOL     OW12908   8.153   2.100   6.328 -0.2935  0.0612  0.8469
 3126SOL    HW112909   8.105   2.017   6.322  0.5474 -0.4231  0.6190
 3126SOL    HW212910   8.195   2.096   6.414  2.5792 -1.3735 -0.4975
 3127SOL     OW12911   8.647   9.882   5.908 -0.1144 -0.1888  0.4995
 3127SOL    HW112912   8.625   9.822   5.836 -0.5946 -1.4291  1.6339
 3127SOL    HW212913   8.587   9.955   5.897  1.1672  0.6392 -1.5133
 3128SOL     OW12914   8.508   7.528   5.345 -0.6650 -0.1530  0.2270
 3128SOL    HW112915   8.457   7.526   5.264  0.0410  0.0181 -0.2309
 3128SOL    HW212916   8.481   7.450   5.392 -1.7567  0.2214  0.2515
 3129SOL     OW12917   8.006  10.519   8.502  0.2949  0.0556  0.0397
 3129SOL    HW112918   7.987  10.462   8.427 -0.8828 -0.4338  0.6805
 3129SOL    HW212919   7.922  10.562   8.521  0.2855 -0.6738  1.7686
 3130SOL     OW12920   9.679   7.221   9.752  0.1530 -0.1971  0.2342
 3130SOL    HW112921   9.597   7.266   9.732 -0.3150 -1.2961 -0.4592
 3130SOL    HW212922   9.677   7.206   9.846 -0.1910  0.2490  0.2973
 3131SOL     OW12923  10.432   1.027   9.192  0.5520  0.9809  0.3152
 3131SOL    HW112924  10.424   0.933   9.212  0.1699  0.7990 -0.6323
 3131SOL    HW212925  10.469   1.065   9.272 -0.0377  0.1528  1.0129
 3132SOL     OW12926  10.313  10.168   2.821 -0.1467  0.1590  0.5273
 3132SOL    HW112927  10.248  10.130   2.880 -2.9491  1.0922 -1.7185
 3132SOL    HW212928  10.309  10.262   2.838  1.5293  0.1455  1.1487
 3133SOL     OW12929   8.631   5.868   7.157 -0.1023 -0.0650  0.0639
 3133SOL    HW112930   8.539   5.859   7.132  0.6521  0.7349 -3.4441
 3133SOL    HW212931   8.655   5.957   7.133  1.4688 -0.0338  1.5193
 3134SOL     OW12932   8.235   7.062  10.535 -0.2464 -0.2612 -0.6416
 3134SOL    HW112933   8.324   7.028  10.522 -0.1797 -0.3678  0.0468
 3134SOL    HW212934   8.228   7.073  10.630 -0.3462  1.4355 -0.8203
 3135SOL     OW12935   3.056   3.531  10.717  0.0525 -0.5199  0.2969
 3135SOL    HW112936   3.141   3.492  10.734  0.2955 -0.7166 -1.2367
 3135SOL    HW212937   3.064   3.621  10.749  0.9195 -0.4575 -0.0813
 3136SOL     OW12938  11.089   4.774   3.451  0.1479  0.8843  0.7101
 3136SOL    HW112939  11.134   4.703   3.406 -1.1173  2.4408 -3.4978
 3136SOL    HW212940  11.041   4.732   3.522  1.6786 -1.9420  0.2138
 3137SOL     OW12941   5.890   1.823   8.662 -0.0164 -0.2452  0.5351
 3137SOL    HW112942   5.876   1.732   8.688  1.7644 -0.6739  0.1244
 3137SOL    HW212943   5.852   1.874   8.734 -1.2447 -1.2885  0.6595
 3138SOL     OW12944   4.600   9.285   4.214  0.0253  0.1717 -1.0105
 3138SOL    HW112945   4.653   9.246   4.284 -0.3144  1.9946  0.3331
 3138SOL    HW212946   4.555   9.211   4.174 -0.9012 -0.8425  1.6838
 3139SOL     OW12947   8.811   8.613   9.726 -0.0918 -0.2133  0.5825
 3139SOL    HW112948   8.784   8.576   9.810 -0.8976  1.1407  0.9471
 3139SOL    HW212949   8.884   8.558   9.698  0.1049 -0.7706  2.0991
 3140SOL     OW12950   8.580   4.743   3.593 -0.6358  0.3933 -0.3966
 3140SOL    HW112951   8.596   4.746   3.687 -1.6478 -0.6096 -0.1734
 3140SOL    HW212952   8.665   4.763   3.553  0.0617 -0.2371  0.7274
 3141SOL     OW12953   4.557  10.343   7.603 -0.4536  0.2666  0.6006
 3141SOL    HW112954   4.616  10.305   7.538  0.4571  1.4904  0.6866
 3141SOL    HW212955   4.542  10.271   7.665  2.1171  0.2804  1.3675
 3142SOL     OW12956   5.158   6.046   2.450 -0.8022  0.3944 -0.4973
 3142SOL    HW112957   5.185   6.134   2.476 -3.2605  1.0752  0.0257
 3142SOL    HW212958   5.181   6.040   2.357  0.3877  1.1402 -0.2733
 3143SOL     OW12959   5.946   9.056   5.381  0.2085 -0.1085  0.5282
 3143SOL    HW112960   5.858   9.021   5.390  0.5990 -0.8657  1.6464
 3143SOL    HW212961   5.936   9.151   5.387 -0.5821 -0.1511  0.0404
 3144SOL     OW12962   8.194   0.715   8.987 -0.3779  0.3867  0.2674
 3144SOL    HW112963   8.218   0.773   9.058  0.8470  0.7029 -0.3767
 3144SOL    HW212964   8.107   0.683   9.010 -0.6845  1.7446  1.0860
 3145SOL     OW12965   2.078   4.473   5.193  0.0187  0.0213 -0.2252
 3145SOL    HW112966   2.132   4.394   5.185 -0.9053 -0.5817 -0.6389
 3145SOL    HW212967   2.064   4.502   5.103 -1.0884 -0.3436 -0.1800
 3146SOL     OW12968   5.780   2.353   0.259 -0.7551  0.1518 -0.1883
 3146SOL    HW112969   5.872   2.381   0.253 -0.5389  0.0162  1.8067
 3146SOL    HW212970   5.746   2.365   0.171  1.5867 -1.2054 -1.3931
 3147SOL     OW12971  10.336   5.534   1.476 -0.1107 -0.1309  0.6171
 3147SOL    HW112972  10.382   5.498   1.400  0.3694 -0.1355  0.9055
 3147SOL    HW212973  10.355   5.627   1.474 -0.1528 -0.1206  0.6951
 3148SOL     OW12974   3.339   1.143   6.292  0.2330  0.1094 -0.3899
 3148SOL    HW112975   3.283   1.161   6.216  0.4186 -0.9917 -0.8077
 3148SOL    HW212976   3.325   1.217   6.350 -2.9887 -0.8595  0.3021
 3149SOL     OW12977   3.529   4.512   4.541  0.6632 -0.4806  0.3422
 3149SOL    HW112978   3.485   4.548   4.463  0.6590 -1.1012  0.0495
 3149SOL    HW212979   3.604   4.570   4.555  1.8455 -1.5078 -1.3578
 3150SOL     OW12980   1.075   6.528   7.701  0.1885  0.3246  0.6380
 3150SOL    HW112981   1.096   6.579   7.623  2.1109  2.1186  2.1956
 3150SOL    HW212982   1.087   6.437   7.675  0.4160  0.8507 -1.2221
 3151SOL     OW12983   8.021   8.128   9.161 -0.1966 -0.3826  0.0908
 3151SOL    HW112984   8.057   8.091   9.242  2.2066  0.9616 -0.2641
 3151SOL    HW212985   8.060   8.075   9.092 -0.6000 -0.2402 -0.2423
 3152SOL     OW12986   9.587   9.986   7.203 -0.1533 -0.3185  0.1059
 3152SOL    HW112987   9.572  10.063   7.147 -0.3892  0.5809  1.3506
 3152SOL    HW212988   9.674  10.001   7.241 -0.3252 -0.5128  0.5792
 3153SOL     OW12989   3.813   2.467   3.595  0.4181  0.2250  0.0929
 3153SOL    HW112990   3.758   2.392   3.618 -0.1532  0.5813 -0.1004
 3153SOL    HW212991   3.753   2.540   3.588  0.4940  0.1318 -2.6448
 3154SOL     OW12992   4.486   8.487   3.155 -0.3095  0.3059  0.2152
 3154SOL    HW112993   4.419   8.421   3.172 -1.7354  1.7177  0.3316
 3154SOL    HW212994   4.448   8.543   3.087  1.5711  0.0478 -1.1228
 3155SOL     OW12995  10.070   9.432   2.515 -0.0526 -0.2258 -0.0416
 3155SOL    HW112996  10.061   9.340   2.490 -0.3193 -0.5902  1.2939
 3155SOL    HW212997   9.997   9.447   2.575  0.4552  0.6315  0.3776
 3156SOL     OW12998   5.032   3.773  11.057  0.3404 -0.5975  0.1283
 3156SOL    HW112999   5.102   3.724  11.099 -1.2836 -1.9840  1.3350
 3156SOL    HW213000   5.013   3.724  10.977  0.3335 -0.5377  0.0926
 3157SOL     OW13001   0.826  11.122  10.746 -0.0568  0.0503  0.3189
 3157SOL    HW113002   0.820  11.096  10.838 -2.7621  0.0737  0.2250
 3157SOL    HW213003   0.891  11.192  10.745  2.6990 -2.2689  1.5782
 3158SOL     OW13004   3.790   3.657   0.781  0.2490  0.5143  0.4256
 3158SOL    HW113005   3.777   3.648   0.686 -0.4331  2.2053  0.3252
 3158SOL    HW213006   3.843   3.736   0.791 -0.3674  0.8180  1.4850
 3159SOL     OW13007   6.098   4.716   2.310 -0.0120 -0.2306 -0.2456
 3159SOL    HW113008   6.089   4.638   2.364  0.8931  0.1939  0.5341
 3159SOL    HW213009   6.156   4.773   2.359 -1.3691  1.3277 -0.3624
 3160SOL     OW13010   8.373   3.950   1.174  0.6634  0.3712  0.0881
 3160SOL    HW113011   8.330   4.025   1.132  0.3088  0.7490  1.0903
 3160SOL    HW213012   8.462   3.980   1.193 -0.0027  1.2633  2.1814
 3161SOL     OW13013   1.558   3.277   7.525  0.0433  0.5094  0.1115
 3161SOL    HW113014   1.620   3.349   7.519  0.1426  0.4273  0.1367
 3161SOL    HW213015   1.599   3.206   7.475 -0.7180  0.9239 -1.1169
 3162SOL     OW13016   7.605   3.402   9.083 -0.2685  0.2608 -0.3833
 3162SOL    HW113017   7.622   3.328   9.142 -2.9314  1.6245  2.3555
 3162SOL    HW213018   7.537   3.370   9.024 -1.1810  0.3578  0.5846
 3163SOL     OW13019   6.149   1.116   2.471  0.3899 -0.4812 -0.2300
 3163SOL    HW113020   6.160   1.039   2.416  2.4441  0.7429 -1.6691
 3163SOL    HW213021   6.117   1.184   2.411  0.3419  0.2643  0.6152
 3164SOL     OW13022   1.068  10.608   7.793  0.3520  0.4642  0.2104
 3164SOL    HW113023   1.038  10.610   7.883  0.0754  0.5897  0.1163
 3164SOL    HW213024   1.001  10.655   7.744 -0.1704 -0.7619 -0.2687
 3165SOL     OW13025  10.810   6.880   8.843  0.1616  0.2234  0.6387
 3165SOL    HW113026  10.826   6.852   8.933 -0.5996  0.2463  0.7874
 3165SOL    HW213027  10.746   6.818   8.810  1.5768 -0.7461 -0.4156
 3166SOL     OW13028   9.294   3.685   9.365 -0.1168  0.9537  0.3430
 3166SOL    HW113029   9.287   3.741   9.288  0.5606  0.4941 -0.0697
 3166SOL    HW213030   9.351   3.732   9.425 -0.5350  1.2516  0.5072
 3167SOL     OW13031   0.434   0.233   0.305 -0.3427 -0.0328  0.1324
 3167SOL    HW113032   0.527   0.215   0.304 -0.5759 -1.2593 -0.4895
 3167SOL    HW213033   0.395   0.159   0.351 -1.2584 -0.8647 -1.8958
 3168SOL     OW13034   0.551   0.870   5.571 -0.4838 -0.3476 -0.4849
 3168SOL    HW113035   0.639   0.862   5.607 -0.2364  1.1364 -0.7154
 3168SOL    HW213036   0.495   0.828   5.636  0.2754 -0.3542  0.1816
 3169SOL     OW13037   0.416   0.870   0.153 -0.2900  0.2039  0.0170
 3169SOL    HW113038   0.351   0.931   0.188  0.1877  0.2050  0.9383
 3169SOL    HW213039   0.477   0.857   0.225 -0.1398 -1.0173 -0.3086
 3170SOL     OW13040   2.866   9.225   5.085  0.4745  0.0589  0.1470
 3170SOL    HW113041   2.884   9.255   5.175 -0.1048  0.8512  0.0160
 3170SOL    HW213042   2.813   9.147   5.096  1.0571 -0.2904  0.5016
 3171SOL     OW13043   6.331  10.916  10.848  0.2262 -0.0266  0.6723
 3171SOL    HW113044   6.289  10.994  10.885  0.2193  0.2206  0.1412
 3171SOL    HW213045   6.393  10.888  10.916  0.9946  1.0530  0.4331
 3172SOL     OW13046   9.342   5.460   6.716  0.1446  0.6031  0.2901
 3172SOL    HW113047   9.403   5.387   6.726  0.1477  0.7697  1.5708
 3172SOL    HW213048   9.256   5.420   6.721  0.1123  0.3863 -1.3903
 3173SOL     OW13049   7.277  10.923   1.010 -0.2319 -0.6598  0.0745
 3173SOL    HW113050   7.226  10.917   0.929  0.2757 -0.5879 -0.2561
 3173SOL    HW213051   7.216  10.959   1.074  0.0108  1.6319 -0.8870
 3174SOL     OW13052   8.390   3.303   2.917 -0.0986 -0.2919 -0.0925
 3174SOL    HW113053   8.390   3.224   2.863 -1.2165  0.4095 -1.1927
 3174SOL    HW213054   8.440   3.279   2.995  2.0533 -1.1839 -1.6439
 3175SOL     OW13055   8.895  10.418  10.205 -0.2464  0.0379 -0.1458
 3175SOL    HW113056   8.850  10.396  10.287 -1.0132  1.0164 -0.2806
 3175SOL    HW213057   8.959  10.485  10.230  0.0579 -0.2245 -0.2197
 3176SOL     OW13058   8.344   9.822   1.055  0.2225  0.0248  0.0967
 3176SOL    HW113059   8.365   9.858   0.969 -0.4154  0.4472  0.1074
 3176SOL    HW213060   8.261   9.864   1.078 -1.1586 -2.2709 -0.3666
 3177SOL     OW13061   3.586   6.518   1.700 -0.2450 -0.3287 -0.0950
 3177SOL    HW113062   3.539   6.446   1.742 -1.9673  0.6116 -0.3028
 3177SOL    HW213063   3.679   6.496   1.710 -0.7059 -2.0977  0.6444
 3178SOL     OW13064   2.078  10.291   5.250  0.1974  0.4465  0.1429
 3178SOL    HW113065   2.002  10.301   5.308 -0.8253 -2.2008 -0.6193
 3178SOL    HW213066   2.075  10.368   5.194 -1.4853  0.7735  0.6175
 3179SOL     OW13067   1.166   0.392   0.610  0.5542 -0.2510  0.0772
 3179SOL    HW113068   1.118   0.366   0.689  1.7399  0.7668  1.1719
 3179SOL    HW213069   1.119   0.468   0.577  0.0922 -0.6394 -0.1633
 3180SOL     OW13070   9.666   0.527   1.726 -0.2185  0.2024  0.3151
 3180SOL    HW113071   9.682   0.441   1.767  2.2136  0.4297 -0.0311
 3180SOL    HW213072   9.673   0.589   1.799 -0.2762  0.2416  0.2866
 3181SOL     OW13073  10.610   4.759   6.440 -0.2192  0.8331 -0.0578
 3181SOL    HW113074  10.575   4.835   6.393 -0.6491  0.0216 -1.0789
 3181SOL    HW213075  10.555   4.751   6.517 -0.6945  1.0781 -0.3670
 3182SOL     OW13076   4.135   1.216   5.897  0.4012  0.3713 -0.4212
 3182SOL    HW113077   4.065   1.281   5.903 -1.7562 -1.6938 -1.7902
 3182SOL    HW213078   4.198   1.255   5.836 -0.3265  1.5623 -0.4503
 3183SOL     OW13079   5.563   2.014   5.944 -0.0811  0.6230  0.1636
 3183SOL    HW113080   5.598   2.025   5.855  1.0208  1.0602  0.6290
 3183SOL    HW213081   5.519   2.097   5.962 -1.0663  0.2159 -0.2770
 3184SOL     OW13082   6.535  10.670   5.536  0.4229 -0.9567 -0.1211
 3184SOL    HW113083   6.532  10.687   5.630  0.6275  0.8396 -0.4085
 3184SOL    HW213084   6.629  10.673   5.515  0.2483  2.7667 -0.9980
 3185SOL     OW13085   8.652  11.029   5.118  0.6322 -0.5219 -0.1818
 3185SOL    HW113086   8.626  11.004   5.206 -3.9365  0.1334 -1.0901
 3185SOL    HW213087   8.650  10.947   5.068 -0.4426 -0.4160 -0.3430
 3186SOL     OW13088  10.780   1.691   0.231  0.1007  0.2371  0.4049
 3186SOL    HW113089  10.801   1.708   0.323 -0.3146  0.2416  0.5031
 3186SOL    HW213090  10.704   1.632   0.235 -0.9366  1.5155  0.0722
 3187SOL     OW13091   5.190   4.261   2.927  0.3381 -0.6279 -0.2097
 3187SOL    HW113092   5.227   4.339   2.885  1.4746 -0.6430  0.7258
 3187SOL    HW213093   5.211   4.272   3.019 -1.9808 -0.6764  0.3689
 3188SOL     OW13094  10.840   3.603   0.103  0.4119  0.1729  0.2846
 3188SOL    HW113095  10.851   3.681   0.049  1.0485  0.4223  0.7582
 3188SOL    HW213096  10.779   3.548   0.054 -0.5452  1.2360  0.2468
 3189SOL     OW13097   5.347   5.572  10.062  0.3110  0.1153 -0.8284
 3189SOL    HW113098   5.365   5.479  10.070  0.1100  0.2553  2.0915
 3189SOL    HW213099   5.430   5.615  10.085 -0.4452  0.6460  1.0631
 3190SOL     OW13100   7.393   3.324   8.903  0.0738  0.8275 -0.5396
 3190SOL    HW113101   7.311   3.371   8.916 -0.6019 -0.5924  0.7047
 3190SOL    HW213102   7.407   3.323   8.809  0.3871  3.8829 -0.6017
 3191SOL     OW13103   2.937   8.544  10.062  0.5020  0.1795 -0.7173
 3191SOL    HW113104   2.938   8.633  10.025 -0.6714  1.0574  1.1817
 3191SOL    HW213105   2.949   8.558  10.156  1.9348 -1.8364 -0.5601
 3192SOL     OW13106   9.048   8.078   1.791 -0.1276 -0.2390 -0.1446
 3192SOL    HW113107   9.003   8.161   1.778 -1.9463 -0.8803  1.6094
 3192SOL    HW213108   9.078   8.053   1.703 -0.6177  1.6489 -0.8869
 3193SOL     OW13109   8.694   7.092   3.742  0.2283  0.1681  0.0948
 3193SOL    HW113110   8.739   7.084   3.658  0.1556  0.9396 -0.0177
 3193SOL    HW213111   8.614   7.042   3.731 -0.1441  0.8952 -0.5578
 3194SOL     OW13112   2.882   3.871   3.002 -0.0938  0.0557 -0.6579
 3194SOL    HW113113   2.859   3.946   2.947  0.5378  1.3869  0.7830
 3194SOL    HW213114   2.839   3.796   2.961 -1.3150  1.3206 -1.7898
 3195SOL     OW13115   8.908   4.410   2.185  0.4685  0.3550 -0.4696
 3195SOL    HW113116   8.985   4.400   2.129  0.0001  0.7823 -1.2010
 3195SOL    HW213117   8.834   4.415   2.124  0.1234  2.8311  0.0521
 3196SOL     OW13118   3.042   3.305  10.898 -0.4459  0.4246 -0.2338
 3196SOL    HW113119   2.984   3.290  10.972  2.0385  1.0635  1.9892
 3196SOL    HW213120   3.012   3.388  10.860 -2.5718 -0.5696 -0.8723
 3197SOL     OW13121   2.207   7.375   3.511  0.3351  0.0209  0.2862
 3197SOL    HW113122   2.162   7.427   3.578  0.7422 -1.1815  1.5276
 3197SOL    HW213123   2.237   7.440   3.447 -2.3700  0.9702 -0.1745
 3198SOL     OW13124   7.106   3.306   6.566  0.7730  0.0318  0.5031
 3198SOL    HW113125   7.146   3.219   6.572 -0.0914 -0.3243  1.2388
 3198SOL    HW213126   7.127   3.336   6.477 -1.0444 -2.0125 -0.7198
 3199SOL     OW13127   2.598   0.452   9.012  0.2996  0.4816  0.1797
 3199SOL    HW113128   2.641   0.379   8.969 -0.4327  0.3066 -0.2737
 3199SOL    HW213129   2.550   0.413   9.084 -0.2358  0.4853 -0.1700
 3200SOL     OW13130   1.820   8.552   4.497 -0.5664  0.5509  0.1736
 3200SOL    HW113131   1.753   8.588   4.438  2.3614  1.3178 -3.0043
 3200SOL    HW213132   1.863   8.629   4.534 -0.0387  0.1347  0.4399
 3201SOL     OW13133   3.836   1.396   1.899 -0.3597 -0.5952 -0.4112
 3201SOL    HW113134   3.799   1.439   1.976 -0.3362  1.1310 -1.2991
 3201SOL    HW213135   3.902   1.458   1.867 -0.7006 -1.0440 -2.0702
 3202SOL     OW13136   0.813   2.645   1.084  0.1386  0.0232 -0.3883
 3202SOL    HW113137   0.744   2.585   1.110  0.3327 -0.3995 -0.8209
 3202SOL    HW213138   0.882   2.634   1.150  0.5078 -0.8247 -0.9013
 3203SOL     OW13139   4.702   4.932   2.029  0.4402  0.0667  0.3663
 3203SOL    HW113140   4.612   4.949   2.056 -0.1254  0.0762 -1.3541
 3203SOL    HW213141   4.731   5.014   1.990  0.9888 -0.1087  0.3959
 3204SOL     OW13142   2.306   9.048   4.502 -0.0952  0.0956  0.4803
 3204SOL    HW113143   2.260   9.132   4.496 -0.8189 -0.3585 -0.5695
 3204SOL    HW213144   2.354   9.053   4.585 -0.1193  1.5464  0.4387
 3205SOL     OW13145   7.891   3.536   0.660  0.3408  0.0894 -0.3450
 3205SOL    HW113146   7.883   3.510   0.568  0.6538  0.1724 -0.3946
 3205SOL    HW213147   7.980   3.571   0.668 -0.3876  2.1273 -0.5244
 3206SOL     OW13148   7.298   5.196   5.311 -0.3546  0.4462  0.5014
 3206SOL    HW113149   7.331   5.198   5.221 -0.3780 -0.9703  0.4484
 3206SOL    HW213150   7.375   5.213   5.365  0.1428 -1.0054  0.2940
 3207SOL     OW13151  10.931   7.889   7.000 -0.7023 -0.5395 -0.0585
 3207SOL    HW113152  10.849   7.926   7.034 -0.5401 -0.8507  0.6946
 3207SOL    HW213153  10.922   7.894   6.905 -0.9191  0.9306  0.0093
 3208SOL     OW13154   7.009   4.868   0.281 -0.2270 -0.2954  0.5099
 3208SOL    HW113155   6.995   4.774   0.270  1.7682 -0.5264 -0.5739
 3208SOL    HW213156   6.940   4.909   0.230 -1.1135 -1.1515  0.9909
 3209SOL     OW13157  10.627   2.601   5.987 -0.0704 -0.0817 -0.4156
 3209SOL    HW113158  10.603   2.522   5.938 -1.1333  1.4367 -2.4681
 3209SOL    HW213159  10.723   2.606   5.979 -0.0837 -0.6839 -1.0498
 3210SOL     OW13160   6.372   5.723   9.207 -0.2733  0.4312  0.1261
 3210SOL    HW113161   6.369   5.630   9.187 -1.7777  0.4664  0.0498
 3210SOL    HW213162   6.392   5.727   9.301 -0.5708  0.0083  0.2095
 3211SOL     OW13163   4.866   3.283   9.089  0.1047 -0.4506 -0.0261
 3211SOL    HW113164   4.834   3.213   9.146 -1.7588  1.7138  1.8036
 3211SOL    HW213165   4.956   3.298   9.118 -0.2060 -0.6327  1.0784
 3212SOL     OW13166   6.040   0.762   2.452  0.6658  0.2197  0.4400
 3212SOL    HW113167   5.990   0.789   2.375  1.9106  2.9106  0.4561
 3212SOL    HW213168   6.105   0.700   2.418 -2.1318 -2.9273  0.3410
 3213SOL     OW13169   9.321   0.883  11.057 -0.2140  0.1996  0.2931
 3213SOL    HW113170   9.409   0.884  11.095 -0.6105 -2.1968  1.4428
 3213SOL    HW213171   9.327   0.941  10.981  2.5653 -0.4923 -0.1220
 3214SOL     OW13172   3.508   6.642   8.525 -0.3284  0.0750  0.0776
 3214SOL    HW113173   3.567   6.693   8.469 -0.3773 -1.1996 -1.1913
 3214SOL    HW213174   3.535   6.663   8.614  0.5614  1.2317 -0.4464
 3215SOL     OW13175   5.348   8.239   5.382  0.2682  0.7687 -0.1116
 3215SOL    HW113176   5.398   8.169   5.340  0.4794  0.3276  0.8412
 3215SOL    HW213177   5.402   8.317   5.371  2.2310 -0.0561  2.6186
 3216SOL     OW13178   1.714   4.686   9.828  0.2223  0.9285  0.4732
 3216SOL    HW113179   1.678   4.748   9.891 -1.3712  0.7619 -0.2378
 3216SOL    HW213180   1.698   4.727   9.743  0.2150  0.0701  0.0552
 3217SOL     OW13181  10.384   3.431   8.307 -0.1602 -0.3333 -0.6138
 3217SOL    HW113182  10.460   3.472   8.266 -0.1124 -0.8017 -1.0155
 3217SOL    HW213183  10.371   3.478   8.389 -0.5550  0.9664 -1.4007
 3218SOL     OW13184   5.380   2.378   9.489 -0.6440  0.2841  0.1146
 3218SOL    HW113185   5.449   2.311   9.495  0.5789  1.4010 -1.0135
 3218SOL    HW213186   5.315   2.340   9.430 -0.8953 -0.6761  0.9845
 3219SOL     OW13187   0.898   4.072   5.696  0.1678 -0.0787 -0.1930
 3219SOL    HW113188   0.990   4.097   5.687  0.1265  0.7456  1.2779
 3219SOL    HW213189   0.888   3.993   5.643  2.1006 -1.0528  0.8181
 3220SOL     OW13190   7.244   5.436   4.658  0.5233 -0.0066  0.9514
 3220SOL    HW113191   7.283   5.376   4.721 -0.7351 -0.9069  0.9179
 3220SOL    HW213192   7.225   5.515   4.709  2.3111  0.4509  0.9633
 3221SOL     OW13193   3.554   4.822   4.911  0.2693  0.3820 -0.6392
 3221SOL    HW113194   3.513   4.780   4.835 -0.0118 -0.2941 -0.1197
 3221SOL    HW213195   3.508   4.786   4.987 -0.9227  2.6183 -0.2002
 3222SOL     OW13196   1.549  10.504   7.707  0.0512  1.0325 -0.5750
 3222SOL    HW113197   1.497  10.566   7.759  0.6413 -0.3166  1.7843
 3222SOL    HW213198   1.485  10.445   7.668 -0.3432  0.5571  0.7258
 3223SOL     OW13199   7.131   1.427   8.997  0.1133  0.1007 -0.3759
 3223SOL    HW113200   7.097   1.441   8.909 -2.5776  2.1132  0.8202
 3223SOL    HW213201   7.108   1.337   9.017 -1.0602  0.2189 -1.0637
 3224SOL     OW13202   0.143   5.406   2.765 -0.5050 -0.1490  0.2311
 3224SOL    HW113203   0.128   5.372   2.853  0.9897 -2.5488 -0.3361
 3224SOL    HW213204   0.195   5.485   2.778  0.3661 -0.8986  1.4725
 3225SOL     OW13205   6.522   1.061   1.127 -0.0889 -0.4249 -0.2103
 3225SOL    HW113206   6.470   1.140   1.136  2.2388  1.2774 -0.8326
 3225SOL    HW213207   6.583   1.063   1.200  1.8110 -0.1258 -1.7107
 3226SOL     OW13208   9.719   4.968   3.937  0.3991 -0.2319  0.4656
 3226SOL    HW113209   9.765   4.885   3.945 -1.9648 -1.9617 -1.8892
 3226SOL    HW213210   9.742   5.000   3.849 -0.8128  0.1610  0.2681
 3227SOL     OW13211   3.224   7.592   9.178  0.3537 -0.2517 -0.0732
 3227SOL    HW113212   3.198   7.641   9.256  2.0176  0.8420 -0.1763
 3227SOL    HW213213   3.235   7.658   9.110 -2.4626 -1.3053 -1.7168
 3228SOL     OW13214   2.779   2.153   9.454  0.3525  0.6010  0.3769
 3228SOL    HW113215   2.818   2.117   9.374 -0.4090  0.6021 -0.0063
 3228SOL    HW213216   2.728   2.228   9.423 -1.3003 -0.3793  0.6121
 3229SOL     OW13217   2.301   7.208   9.425 -0.1119 -0.2402  0.1000
 3229SOL    HW113218   2.388   7.247   9.432  0.2458 -0.9743 -0.1443
 3229SOL    HW213219   2.249   7.274   9.379  0.4139  0.0553 -0.0767
 3230SOL     OW13220   5.336   2.304   8.268  0.4506 -0.2940 -0.0093
 3230SOL    HW113221   5.385   2.222   8.272 -0.4504 -0.8486  0.0108
 3230SOL    HW213222   5.343   2.332   8.177  0.1252 -0.8127 -0.2033
 3231SOL     OW13223   1.641   7.708   1.784 -0.6839  0.2892  0.1780
 3231SOL    HW113224   1.630   7.774   1.853 -0.1214  0.0513  0.5036
 3231SOL    HW213225   1.557   7.663   1.780 -1.2198  1.3067 -0.3480
 3232SOL     OW13226   4.582   6.464   5.128 -0.2608 -0.0754 -0.1445
 3232SOL    HW113227   4.544   6.381   5.100  0.2652 -0.1137 -0.7784
 3232SOL    HW213228   4.669   6.465   5.088  0.1160  0.3450  0.6608
 3233SOL     OW13229   0.885   0.685   9.616  1.0219 -0.3765 -0.0824
 3233SOL    HW113230   0.894   0.718   9.526 -2.0182 -0.6509 -0.5976
 3233SOL    HW213231   0.868   0.592   9.605  0.2872 -0.3520  0.7331
 3234SOL     OW13232   7.185   7.291   4.084  0.6708  0.5933  0.2726
 3234SOL    HW113233   7.166   7.268   3.993  0.8871  0.8411  0.1639
 3234SOL    HW213234   7.258   7.235   4.108  2.4464  2.4030 -0.5814
 3235SOL     OW13235   4.871   7.961   0.017 -0.1762 -0.0818 -0.1794
 3235SOL    HW113236   4.928   8.032  -0.011 -0.1693  0.2092  0.5553
 3235SOL    HW213237   4.787   7.979  -0.027 -0.4088  0.8233  0.5986
 3236SOL     OW13238   1.735   1.455   5.632  0.3527 -0.0599  0.2562
 3236SOL    HW113239   1.671   1.482   5.698 -0.0315  0.7762 -0.4323
 3236SOL    HW213240   1.778   1.536   5.605  0.5850 -0.3992 -0.4349
 3237SOL     OW13241   1.522  10.341   5.584 -0.3277 -0.3144 -0.5595
 3237SOL    HW113242   1.463  10.390   5.526  0.0988 -0.2498 -0.9435
 3237SOL    HW213243   1.502  10.374   5.672  0.8134  1.4898 -0.9202
 3238SOL     OW13244   1.526   8.944   9.439  0.0826  0.0621 -0.3882
 3238SOL    HW113245   1.571   8.882   9.381  0.4995 -0.8446  0.8445
 3238SOL    HW213246   1.585   9.018   9.446  0.0672  0.1408 -1.0467
 3239SOL     OW13247  10.063   1.685   9.325  0.6257 -0.1309  0.5035
 3239SOL    HW113248   9.971   1.659   9.330  0.8075 -1.0671 -0.6888
 3239SOL    HW213249  10.060   1.781   9.325 -0.2511 -0.1346  1.7848
 3240SOL     OW13250   8.960   2.870  10.986  0.1140  1.0258 -0.2214
 3240SOL    HW113251   8.985   2.808  10.918 -1.3482  0.9497 -0.7140
 3240SOL    HW213252   9.021   2.943  10.976  1.4907 -0.0548  0.0055
 3241SOL     OW13253   7.630   9.155  10.453  0.2223 -0.1520  0.1743
 3241SOL    HW113254   7.580   9.135  10.374 -0.5996 -1.7019  1.0180
 3241SOL    HW213255   7.665   9.070  10.481 -2.1205 -0.3227  3.1442
 3242SOL     OW13256   3.813   4.009   9.944  0.1474 -0.0278  0.5494
 3242SOL    HW113257   3.772   4.095   9.942  2.2967  1.0551 -1.1659
 3242SOL    HW213258   3.844   3.999  10.034 -0.1580  0.9979  0.7798
 3243SOL     OW13259   4.128   6.775   2.419  0.3772  0.3169  0.1536
 3243SOL    HW113260   4.043   6.762   2.460 -0.0621 -0.3307 -0.9293
 3243SOL    HW213261   4.109   6.814   2.334  1.3176  2.2904  0.7812
 3244SOL     OW13262   0.489   0.141   3.223 -0.3039  0.0817 -0.7308
 3244SOL    HW113263   0.573   0.147   3.177  1.1247  1.3715  1.8408
 3244SOL    HW213264   0.424   0.138   3.152  1.8457 -0.9247 -2.8197
 3245SOL     OW13265   0.396   4.191   2.205 -0.2353  0.9328 -0.1875
 3245SOL    HW113266   0.357   4.266   2.158 -0.8681  0.0440 -1.1281
 3245SOL    HW213267   0.466   4.161   2.147  0.2323  0.9773  0.3430
 3246SOL     OW13268   1.521   2.360   0.643  0.2342 -0.5922  0.2050
 3246SOL    HW113269   1.599   2.387   0.594  0.7565 -1.6575  0.4115
 3246SOL    HW213270   1.504   2.271   0.613 -0.3016 -0.7301  0.8946
 3247SOL     OW13271   3.422   2.822   5.292  0.3560 -0.4144  0.1426
 3247SOL    HW113272   3.482   2.748   5.304 -1.1309 -1.4392  1.8831
 3247SOL    HW213273   3.435   2.875   5.371 -0.1085  0.0445 -0.0885
 3248SOL     OW13274   9.720   1.367   6.742 -0.5354 -0.4292  0.1406
 3248SOL    HW113275   9.725   1.308   6.667 -0.7036 -0.5624  0.2332
 3248SOL    HW213276   9.681   1.314   6.812 -0.6249 -0.2297  0.2444
 3249SOL     OW13277   6.262   0.889   8.487 -0.5305  0.5728  0.5809
 3249SOL    HW113278   6.184   0.917   8.535  0.1602  0.7663  1.6094
 3249SOL    HW213279   6.236   0.807   8.445 -1.1915  0.4765  1.1603
 3250SOL     OW13280   0.310   4.911   9.655  0.6357  0.4779 -0.0682
 3250SOL    HW113281   0.313   4.971   9.581  2.9912 -0.8458 -1.1372
 3250SOL    HW213282   0.262   4.959   9.723 -1.7741  1.6614 -2.4306
 3251SOL     OW13283   5.701   5.261   6.420 -0.0056  0.0749  0.5243
 3251SOL    HW113284   5.664   5.175   6.438 -2.8505  1.4648  1.9548
 3251SOL    HW213285   5.687   5.274   6.326  0.7166 -1.0785  0.2350
 3252SOL     OW13286  10.774   7.165   7.076  0.1038  0.6967  0.5000
 3252SOL    HW113287  10.720   7.192   7.003 -0.1647  0.3546  0.5683
 3252SOL    HW213288  10.725   7.190   7.154 -0.1680 -0.0194  0.5627
 3253SOL     OW13289   0.075   0.667   5.226  0.0387  0.1876  0.8141
 3253SOL    HW113290   0.059   0.674   5.320  0.7712 -0.1308  0.9617
 3253SOL    HW213291   0.169   0.652   5.218 -0.3352 -2.1225  0.1415
 3254SOL     OW13292   8.589   5.182   0.861 -0.5107  0.0296  0.1003
 3254SOL    HW113293   8.604   5.257   0.918 -0.0230  1.9710 -2.3999
 3254SOL    HW213294   8.500   5.153   0.882 -1.0106  1.8281  0.5766
 3255SOL     OW13295   6.772   8.792   3.317  1.2973  0.4679 -0.1922
 3255SOL    HW113296   6.774   8.885   3.296 -0.9114  0.3658 -1.1286
 3255SOL    HW213297   6.717   8.786   3.395  2.6144  0.0493  0.7371
 3256SOL     OW13298   4.373   3.386   7.806  0.6057  0.4745  0.4182
 3256SOL    HW113299   4.289   3.365   7.766  0.2716  0.6671  1.0094
 3256SOL    HW213300   4.436   3.381   7.734  0.2433 -0.6228  0.1566
 3257SOL     OW13301   4.060   9.140   2.229 -0.5692  0.4409 -0.1472
 3257SOL    HW113302   4.018   9.055   2.242 -0.7630  0.6701  0.8446
 3257SOL    HW213303   4.107   9.156   2.311  0.4422  0.7598 -0.7683
 3258SOL     OW13304   6.689   0.587   4.546  0.3991  0.2452  0.3774
 3258SOL    HW113305   6.594   0.581   4.553  0.3414 -3.0960 -1.2491
 3258SOL    HW213306   6.716   0.638   4.623 -2.6057  0.2518  1.5376
 3259SOL     OW13307   4.398   1.354   6.224  0.1115  0.2530  0.3967
 3259SOL    HW113308   4.412   1.272   6.176  0.7705  0.8361 -0.4500
 3259SOL    HW213309   4.314   1.343   6.267 -0.3899 -0.4160 -0.7030
 3260SOL     OW13310   3.873   1.604   8.184  0.2319 -0.0356 -0.2604
 3260SOL    HW113311   3.811   1.582   8.115  3.1645  0.0255 -3.1424
 3260SOL    HW213312   3.889   1.522   8.229 -2.3389  0.0785  1.0887
 3261SOL     OW13313  10.259   2.772   9.886 -0.3061  0.1939 -0.0753
 3261SOL    HW113314  10.227   2.856   9.855  1.2762  1.3490  1.1937
 3261SOL    HW213315  10.188   2.737   9.941  0.2256  2.3929  2.2017
 3262SOL     OW13316   1.101   7.325   7.265  0.0925 -0.6002 -0.1124
 3262SOL    HW113317   1.107   7.229   7.261 -0.4611 -0.6411 -0.0357
 3262SOL    HW213318   1.026   7.347   7.210  0.1198 -0.2212  0.0001
 3263SOL     OW13319   8.335   6.348   7.067  0.5785 -0.3764  0.4738
 3263SOL    HW113320   8.387   6.420   7.032  1.0865 -0.4002  1.1523
 3263SOL    HW213321   8.369   6.335   7.156 -0.7399 -0.2422  1.0226
 3264SOL     OW13322   5.321   1.704   5.178  0.0935 -0.0771  0.3689
 3264SOL    HW113323   5.278   1.619   5.191  1.5424 -1.3008 -2.1642
 3264SOL    HW213324   5.344   1.732   5.266  0.1100 -2.6126  1.2572
 3265SOL     OW13325   4.228   6.297   8.781 -0.5559 -0.2217 -0.4501
 3265SOL    HW113326   4.145   6.321   8.740 -2.9867 -4.6834  1.2309
 3265SOL    HW213327   4.270   6.238   8.719 -0.1057 -0.3115 -0.0641
 3266SOL     OW13328   9.855   6.610   7.237 -0.1734 -0.2680 -0.0227
 3266SOL    HW113329   9.878   6.676   7.302 -0.6007 -0.3898  0.2577
 3266SOL    HW213330   9.887   6.527   7.273 -1.0073 -0.4352  0.3619
 3267SOL     OW13331   9.313   1.799   6.186  0.2833  0.3780 -0.1160
 3267SOL    HW113332   9.334   1.892   6.181  1.2193  0.2543  1.1047
 3267SOL    HW213333   9.223   1.793   6.154  0.2935  1.6671 -0.4226
 3268SOL     OW13334   3.584   0.761   5.896  0.0810 -0.1253  0.7381
 3268SOL    HW113335   3.585   0.801   5.984  0.3187  1.0164  0.2325
 3268SOL    HW213336   3.578   0.667   5.913 -1.4236  0.1520  1.9553
 3269SOL     OW13337   3.371   5.203  10.537  0.2760 -0.1475  0.1660
 3269SOL    HW113338   3.408   5.248  10.612 -2.0844  0.4166  1.0746
 3269SOL    HW213339   3.293   5.159  10.571 -0.5661 -0.3065 -1.8324
 3270SOL     OW13340  10.144   9.878   1.453  0.0565  0.2113 -1.4263
 3270SOL    HW113341  10.052   9.873   1.479  0.8862  0.3328  2.0142
 3270SOL    HW213342  10.144   9.938   1.379 -2.7786 -1.1815 -2.7288
 3271SOL     OW13343   8.840   3.689   6.625  0.1327 -0.1107 -0.5621
 3271SOL    HW113344   8.747   3.702   6.610 -0.7678 -4.6822 -0.2380
 3271SOL    HW213345   8.848   3.668   6.718  1.9228  2.2395 -0.0641
 3272SOL     OW13346   5.676   8.230   5.641 -0.2895 -0.1623  0.7069
 3272SOL    HW113347   5.591   8.258   5.674 -0.6516  0.5459 -0.7672
 3272SOL    HW213348   5.722   8.197   5.719 -1.7459 -0.1899  1.5837
 3273SOL     OW13349   5.901   6.999   8.059  0.5397 -0.8038 -0.1266
 3273SOL    HW113350   5.895   7.037   8.146 -1.0187 -1.8995  0.2745
 3273SOL    HW213351   5.911   6.905   8.074 -0.3488 -1.0736 -1.1155
 3274SOL     OW13352   6.831   2.636   2.270  0.1810 -0.4187 -0.0074
 3274SOL    HW113353   6.903   2.689   2.236 -1.1679  0.9084 -0.9166
 3274SOL    HW213354   6.839   2.642   2.365  0.3577  1.0366 -0.0913
 3275SOL     OW13355   7.528   9.525   2.516  0.0578 -0.2742  0.0868
 3275SOL    HW113356   7.567   9.610   2.498  0.3488 -0.6765 -1.2603
 3275SOL    HW213357   7.559   9.503   2.604 -0.4997  1.2546  0.7037
 3276SOL     OW13358  10.705   1.933  10.177 -0.3164 -0.7127  0.1424
 3276SOL    HW113359  10.634   1.972  10.126  0.1934 -1.9424 -1.6055
 3276SOL    HW213360  10.668   1.852  10.212  0.2725 -1.5429 -1.0738
 3277SOL     OW13361   2.721   4.478   0.673 -0.4775 -0.5395  0.1197
 3277SOL    HW113362   2.816   4.471   0.688 -0.6429 -0.2029  1.4669
 3277SOL    HW213363   2.686   4.393   0.699 -0.5791 -0.5731 -0.1248
 3278SOL     OW13364  10.663   5.360   0.289 -0.3909 -0.1879 -0.1347
 3278SOL    HW113365  10.645   5.375   0.197 -0.1125 -0.1914 -0.1897
 3278SOL    HW213366  10.585   5.314   0.322 -0.9715  0.7925 -0.1081
 3279SOL     OW13367   3.188   6.294   3.679 -0.2902  0.1951  0.3213
 3279SOL    HW113368   3.263   6.237   3.697 -1.1884 -0.9814  0.4886
 3279SOL    HW213369   3.149   6.258   3.600 -0.0440  1.4913 -0.4120
 3280SOL     OW13370   1.049   2.128   8.988  0.0991  0.7350  0.0828
 3280SOL    HW113371   1.046   2.166   9.076 -2.0842 -0.8902  0.7836
 3280SOL    HW213372   1.133   2.083   8.984  0.8186  1.9437  0.7871
 3281SOL     OW13373   6.274   4.010  10.344 -0.1847  0.4036 -0.1587
 3281SOL    HW113374   6.354   4.049  10.379  0.5783 -1.1549 -0.0865
 3281SOL    HW213375   6.255   4.060  10.265  0.5272  1.1730  0.1421
 3282SOL     OW13376   0.336   1.067   1.516 -1.0758 -0.0580 -0.3391
 3282SOL    HW113377   0.346   1.045   1.423 -0.9364 -1.3262 -0.0394
 3282SOL    HW213378   0.375   0.994   1.563 -0.4215  0.9347  0.7315
 3283SOL     OW13379   6.560   6.062   1.519  0.0472  0.3052 -0.3938
 3283SOL    HW113380   6.612   6.143   1.526  4.0137 -1.8696 -1.4429
 3283SOL    HW213381   6.562   6.042   1.425  0.2666 -1.6404  0.0046
 3284SOL     OW13382   2.696   4.298   2.570  0.2264  0.8482 -0.5841
 3284SOL    HW113383   2.687   4.203   2.563 -2.4888  1.0886 -1.8158
 3284SOL    HW213384   2.745   4.312   2.651  1.5407 -1.5979 -0.8723
 3285SOL     OW13385   2.190   4.667  10.922  0.1645 -0.0329  0.0635
 3285SOL    HW113386   2.176   4.621  11.005 -2.3368 -1.3420 -0.9949
 3285SOL    HW213387   2.261   4.619  10.880  0.9247  0.1651  1.0843
 3286SOL     OW13388   5.506   0.628   4.467 -0.2986 -0.4164 -0.5971
 3286SOL    HW113389   5.544   0.678   4.539 -0.2071 -1.0778 -0.1741
 3286SOL    HW213390   5.550   0.661   4.389 -0.7401  0.6451 -0.4176
 3287SOL     OW13391   7.814   6.304   9.528  0.2466 -0.3286 -0.3131
 3287SOL    HW113392   7.747   6.257   9.477 -3.0961  0.7685  2.6039
 3287SOL    HW213393   7.789   6.396   9.520  1.3732  0.1159  0.9360
 3288SOL     OW13394   9.358   4.783   5.183 -0.0417  0.4482  0.0999
 3288SOL    HW113395   9.332   4.694   5.157 -0.8791  0.8292 -0.4473
 3288SOL    HW213396   9.422   4.809   5.116 -0.1878  0.4449 -0.0429
 3289SOL     OW13397   9.281   6.500   9.712 -0.2739  0.3419  0.3121
 3289SOL    HW113398   9.362   6.452   9.696  0.6930  0.7707  3.2708
 3289SOL    HW213399   9.240   6.453   9.785 -1.5107  1.4670  0.3718
 3290SOL     OW13400   9.848   6.052   1.382  0.1524  0.0178  0.8401
 3290SOL    HW113401   9.941   6.045   1.359 -0.2975  0.1844 -1.2119
 3290SOL    HW213402   9.810   6.107   1.313 -1.8248 -1.5999  0.5505
 3291SOL     OW13403   1.402   8.003   9.616 -0.1395  0.0187  0.3822
 3291SOL    HW113404   1.308   7.988   9.602  0.1321 -1.1541 -0.3515
 3291SOL    HW213405   1.432   7.923   9.659  0.9453 -0.6566 -1.5018
 3292SOL     OW13406   8.868   9.916   0.217 -0.4509  0.4389  0.6692
 3292SOL    HW113407   8.952   9.873   0.200 -0.1352  1.5121 -0.6723
 3292SOL    HW213408   8.805   9.844   0.225  0.0448 -0.3305 -1.5978
 3293SOL     OW13409   9.998   9.268  10.805 -0.0393  1.1522 -0.2952
 3293SOL    HW113410   9.938   9.202  10.841 -0.5661  0.9140 -1.5720
 3293SOL    HW213411   9.950   9.350  10.812 -0.2892  1.0501 -0.7868
 3294SOL     OW13412   9.037   5.146   8.785  0.1359 -1.0886 -0.7878
 3294SOL    HW113413   9.016   5.072   8.728 -1.4960 -2.1074  1.0063
 3294SOL    HW213414   8.955   5.165   8.832  0.7593  1.2704 -0.5078
 3295SOL     OW13415   8.559   2.613   0.216 -0.2627  0.2066 -0.5086
 3295SOL    HW113416   8.528   2.650   0.133 -0.6748  2.2877  0.5082
 3295SOL    HW213417   8.646   2.651   0.228 -0.0663 -0.3496 -0.1392
 3296SOL     OW13418   0.343   1.142   6.426  0.1262 -0.5975  0.3066
 3296SOL    HW113419   0.405   1.215   6.413 -0.6534  0.1352  0.5951
 3296SOL    HW213420   0.265   1.169   6.378  0.1747 -1.7379 -0.4609
 3297SOL     OW13421   6.830   4.059   6.581 -0.0189 -0.8020 -0.2898
 3297SOL    HW113422   6.788   3.973   6.586 -0.9048 -0.2955  2.1458
 3297SOL    HW213423   6.868   4.072   6.668 -0.5560  1.5930 -0.3674
 3298SOL     OW13424   0.689   6.413   1.894 -0.2947  0.0598  0.8429
 3298SOL    HW113425   0.750   6.341   1.882 -1.1913 -0.6110  0.2220
 3298SOL    HW213426   0.743   6.485   1.927  1.1469 -0.0381 -1.0939
 3299SOL     OW13427   3.263   5.279   4.027 -0.2530  0.2250  0.1174
 3299SOL    HW113428   3.356   5.261   4.040 -1.0504 -3.7537  1.6056
 3299SOL    HW213429   3.235   5.321   4.108  0.3946  2.9708 -0.9477
 3300SOL     OW13430   5.676   7.983   6.743  1.0367 -0.0194 -0.5861
 3300SOL    HW113431   5.626   8.053   6.700  0.6746 -0.6092 -1.1404
 3300SOL    HW213432   5.689   7.917   6.675  1.6862 -0.3339 -0.1639
 3301SOL     OW13433   2.760   1.023   9.744  0.0913 -0.1242 -0.3673
 3301SOL    HW113434   2.794   1.109   9.719 -0.4020  0.4796  0.9241
 3301SOL    HW213435   2.828   0.961   9.717  0.9370  0.7730 -0.3429
 3302SOL     OW13436   7.425   4.828   7.054 -0.0071 -0.4105 -0.0860
 3302SOL    HW113437   7.462   4.900   7.104  0.5586 -0.7733  0.0235
 3302SOL    HW213438   7.462   4.837   6.966 -2.2219  1.1803 -0.9728
 3303SOL     OW13439   7.381   3.336  10.388  0.3319 -0.3404  0.1746
 3303SOL    HW113440   7.319   3.284  10.337  0.0608 -0.2122  0.3644
 3303SOL    HW213441   7.451   3.359  10.327  0.4741 -0.9607  0.1028
 3304SOL     OW13442   5.685   1.168   7.359 -0.2805  0.5108 -0.3956
 3304SOL    HW113443   5.631   1.245   7.377  1.2870  1.6121 -0.1835
 3304SOL    HW213444   5.744   1.161   7.435  0.1113 -0.4538 -0.7639
 3305SOL     OW13445   8.781   2.934   9.037  0.2986  0.1316  0.3391
 3305SOL    HW113446   8.821   3.015   9.007  0.0762  0.8230  1.8170
 3305SOL    HW213447   8.707   2.920   8.977 -0.0062  1.3444  0.4058
 3306SOL     OW13448   8.849   4.734  10.823 -0.5583  0.2124  0.0290
 3306SOL    HW113449   8.801   4.810  10.790 -0.8296  0.1353  0.2440
 3306SOL    HW213450   8.860   4.678  10.746  0.7649  1.0470 -0.4053
 3307SOL     OW13451   4.144   8.786  11.068 -0.4632  0.2987 -0.1045
 3307SOL    HW113452   4.182   8.873  11.057 -0.8110  0.5848  0.8359
 3307SOL    HW213453   4.168   8.760  11.156 -1.7345  0.1457  0.2179
 3308SOL     OW13454   1.272   8.060   3.751 -0.4887 -0.2547  0.3503
 3308SOL    HW113455   1.331   8.075   3.677  0.5851 -0.9706  1.0321
 3308SOL    HW213456   1.253   8.148   3.785 -0.8412  0.0676 -0.6301
 3309SOL     OW13457   5.772   8.530   2.918 -0.1315  0.4595 -0.4231
 3309SOL    HW113458   5.761   8.608   2.864  1.1991  0.8856 -0.1170
 3309SOL    HW213459   5.770   8.562   3.008 -2.2294 -0.2290 -0.1604
 3310SOL     OW13460   3.528  10.021   3.115 -0.2884 -0.0019 -0.0324
 3310SOL    HW113461   3.441  10.012   3.153 -0.5858  1.6017 -0.2959
 3310SOL    HW213462   3.522   9.976   3.030 -0.3685 -1.2969  0.6340
 3311SOL     OW13463   8.725  10.791   5.012 -0.4905  0.0583 -0.4714
 3311SOL    HW113464   8.754  10.702   5.033  0.8113  0.7962  1.0114
 3311SOL    HW213465   8.661  10.779   4.941 -0.6923 -2.0868  0.0053
 3312SOL     OW13466   6.592   5.651   3.911 -0.0309 -0.1529  0.0374
 3312SOL    HW113467   6.581   5.706   3.834  0.3602  0.0301  0.1059
 3312SOL    HW213468   6.550   5.568   3.888 -0.5196  0.1330 -0.1102
 3313SOL     OW13469   9.557   4.653   1.587  0.5242 -0.7028 -0.3799
 3313SOL    HW113470   9.519   4.583   1.641 -0.0440 -1.4361 -1.6744
 3313SOL    HW213471   9.649   4.627   1.577  0.5050 -0.8458 -0.2021
 3314SOL     OW13472   4.098  10.776   8.086  0.0286 -0.0394 -0.0727
 3314SOL    HW113473   4.107  10.716   8.012  2.0127  0.5608 -0.3939
 3314SOL    HW213474   4.100  10.863   8.047 -0.5187  0.2643  0.5581
 3315SOL     OW13475  10.608   6.572   8.495 -1.1356  0.7832  0.1627
 3315SOL    HW113476  10.628   6.481   8.474 -0.1481  0.8924  0.5649
 3315SOL    HW213477  10.513   6.575   8.504 -1.1115 -0.3946  0.9652
 3316SOL     OW13478   7.173   8.470   4.032  0.2895 -0.4259  0.1427
 3316SOL    HW113479   7.179   8.381   3.999  0.4654 -0.6681  0.8163
 3316SOL    HW213480   7.178   8.525   3.954 -0.2301 -1.0167 -0.3120
 3317SOL     OW13481   9.209   1.766  10.994 -0.5797 -0.2301 -0.1963
 3317SOL    HW113482   9.272   1.724  11.053 -0.7559  0.1745  0.2852
 3317SOL    HW213483   9.169   1.835  11.047  0.9305  1.7111 -1.4431
 3318SOL     OW13484  10.636   0.279   9.759  0.2722 -0.4691 -0.2542
 3318SOL    HW113485  10.566   0.336   9.790 -0.4151 -0.3469 -1.9006
 3318SOL    HW213486  10.628   0.281   9.663  1.7558 -1.4294 -0.4365
 3319SOL     OW13487   7.928   5.594   4.849 -0.5664  0.4800  0.3050
 3319SOL    HW113488   7.879   5.676   4.839  1.0734  1.8073  2.2582
 3319SOL    HW213489   7.994   5.597   4.780 -2.0529 -0.4627 -1.2139
 3320SOL     OW13490   4.668   0.077  10.976  0.1515 -0.5796  0.0956
 3320SOL    HW113491   4.626   0.084  11.062  0.3126  1.0386  0.0761
 3320SOL    HW213492   4.725   0.000  10.983 -1.6744 -1.9623  0.5948
 3321SOL     OW13493   3.723   4.673   9.434 -0.2984 -0.4754  0.2654
 3321SOL    HW113494   3.816   4.666   9.459 -0.0962  0.0906 -0.3151
 3321SOL    HW213495   3.684   4.726   9.505  0.1309  0.5240 -0.2189
 3322SOL     OW13496   3.942   5.462   9.233  0.8079  0.1548  0.2082
 3322SOL    HW113497   3.889   5.434   9.157 -0.5493  0.1607  1.1084
 3322SOL    HW213498   3.918   5.400   9.302  0.4466  1.3716  1.2139
 3323SOL     OW13499   2.465  10.691   1.681  0.5418 -0.1303  0.2829
 3323SOL    HW113500   2.501  10.635   1.612  2.7841 -0.2805  1.4977
 3323SOL    HW213501   2.399  10.637   1.724  1.3227 -1.1783  0.2108
 3324SOL     OW13502   2.532   6.021   5.331 -0.4254  0.5589 -0.0045
 3324SOL    HW113503   2.565   6.106   5.304 -0.3727  1.1214  1.7214
 3324SOL    HW213504   2.554   6.015   5.424  0.0581 -1.5692 -0.1916
 3325SOL     OW13505  11.030   7.728   3.949  0.7241  0.2476  0.8824
 3325SOL    HW113506  10.963   7.665   3.974 -0.5147  0.7223 -0.9846
 3325SOL    HW213507  11.022   7.799   4.013  0.8328 -0.6026  1.8592
 3326SOL     OW13508   2.739  10.304   1.489 -0.2005  0.2005  0.2245
 3326SOL    HW113509   2.807  10.257   1.440 -1.9793 -0.6164 -1.6558
 3326SOL    HW213510   2.734  10.258   1.573  1.7485  0.5080  0.5582
 3327SOL     OW13511   7.129  11.103   3.800  0.4397 -0.0254  0.2906
 3327SOL    HW113512   7.201  11.127   3.859  1.1889 -2.7025  0.6195
 3327SOL    HW213513   7.052  11.100   3.856  0.1624  2.0982  0.0944
 3328SOL     OW13514   0.846   2.043   3.510  0.1695  0.0122  0.2958
 3328SOL    HW113515   0.908   2.106   3.476 -0.8014 -0.5540 -2.7794
 3328SOL    HW213516   0.761   2.085   3.501 -0.4212 -1.3825 -1.1206
 3329SOL     OW13517   5.239   5.419   5.348 -0.3672  0.2124 -0.2889
 3329SOL    HW113518   5.197   5.370   5.278 -0.2739 -0.4528  0.1116
 3329SOL    HW213519   5.243   5.509   5.315  2.2502 -0.5340 -2.3955
 3330SOL     OW13520   5.900   5.561  10.722 -0.1337 -1.0265 -0.8298
 3330SOL    HW113521   5.970   5.502  10.751 -1.1248 -0.1392  4.3731
 3330SOL    HW213522   5.819   5.515  10.745 -0.9925  0.9005  0.2964
 3331SOL     OW13523   1.149   4.867   5.836 -1.0139 -0.4066 -0.5669
 3331SOL    HW113524   1.180   4.850   5.747 -1.8409 -1.9024 -0.6007
 3331SOL    HW213525   1.109   4.785   5.863 -1.8278  0.3985  0.7618
 3332SOL     OW13526   5.781   0.424   3.503  0.0840 -0.0960  0.2298
 3332SOL    HW113527   5.850   0.448   3.441  0.6381  0.2567  0.9810
 3332SOL    HW213528   5.764   0.505   3.552 -1.4081  0.0482 -0.4535
 3333SOL     OW13529   3.442   6.978   4.406  0.8877  0.5994 -0.0484
 3333SOL    HW113530   3.471   6.887   4.404 -0.0536  0.3023 -0.9709
 3333SOL    HW213531   3.499   7.020   4.470  2.9606 -0.0832 -1.3662
 3334SOL     OW13532  10.303   9.607   8.240 -0.0789 -0.4086 -0.5829
 3334SOL    HW113533  10.370   9.555   8.195 -0.7694 -0.9255 -1.0222
 3334SOL    HW213534  10.263   9.547   8.302  0.4248  0.1297  0.2970
 3335SOL     OW13535   1.938   7.162   1.349 -0.3586 -0.2565 -0.2374
 3335SOL    HW113536   1.921   7.087   1.406 -0.4463 -0.3206 -0.3470
 3335SOL    HW213537   1.989   7.222   1.403  0.2884 -0.6820 -0.3665
 3336SOL     OW13538   9.326   5.841   9.601  0.0207 -0.5321  0.0232
 3336SOL    HW113539   9.363   5.796   9.525 -0.1961 -1.7681  0.6171
 3336SOL    HW213540   9.240   5.871   9.571  0.0553 -0.7600 -0.3068
 3337SOL     OW13541   0.633   4.207   9.796  0.3451  0.6915 -0.0693
 3337SOL    HW113542   0.702   4.247   9.744  0.0395  1.5109  0.1507
 3337SOL    HW213543   0.609   4.128   9.747  0.1777  1.3545 -1.0644
 3338SOL     OW13544   3.463   4.918   3.069  0.0439 -0.2449 -0.0880
 3338SOL    HW113545   3.382   4.914   3.018 -0.1299 -1.2349  0.2465
 3338SOL    HW213546   3.448   4.861   3.144  1.6059 -1.7613 -0.8493
 3339SOL     OW13547   5.818   1.934   4.998  0.1036  0.2316  0.0250
 3339SOL    HW113548   5.754   1.983   4.947  1.2989 -0.9893 -2.8425
 3339SOL    HW213549   5.900   1.981   4.984  0.5929 -0.5444  0.2256
 3340SOL     OW13550   5.425   1.988   5.055  0.0452 -0.1665  0.0358
 3340SOL    HW113551   5.440   1.935   5.133 -0.7585 -2.5924 -1.3529
 3340SOL    HW213552   5.385   1.928   4.992 -1.7830  2.3448 -1.3792
 3341SOL     OW13553   2.505   6.990   8.071 -0.2096  0.0489 -0.7087
 3341SOL    HW113554   2.423   6.966   8.027 -0.9176 -0.2019  0.6525
 3341SOL    HW213555   2.476   7.040   8.148  1.0374  1.6816 -1.2504
 3342SOL     OW13556   2.898   1.481  10.416  0.1466 -0.3404 -0.7351
 3342SOL    HW113557   2.935   1.393  10.402  0.6650 -0.0096 -1.5192
 3342SOL    HW213558   2.823   1.466  10.473  0.5209 -1.2367 -0.4530
 3343SOL     OW13559   3.907   7.544   7.358  0.1956 -0.0871  0.1771
 3343SOL    HW113560   3.995   7.573   7.382  0.4525 -1.4512  0.9692
 3343SOL    HW213561   3.916   7.507   7.270  0.5953 -0.9695  0.5815
 3344SOL     OW13562  10.524   8.242   0.782 -0.6843  0.1304  0.2151
 3344SOL    HW113563  10.557   8.227   0.693 -1.1020 -0.5204  0.1631
 3344SOL    HW213564  10.461   8.171   0.796 -1.4468  0.8791  0.6202
 3345SOL     OW13565   9.789   1.365   7.748 -0.6285  0.3480  0.5247
 3345SOL    HW113566   9.790   1.275   7.716  1.6007  1.1532 -2.1535
 3345SOL    HW213567   9.839   1.363   7.830 -0.2903 -0.7976  0.2978
 3346SOL     OW13568  10.900  10.249   1.078  0.0727 -0.0539 -0.5971
 3346SOL    HW113569  10.862  10.162   1.091 -0.1016 -0.2736 -2.3642
 3346SOL    HW213570  10.973  10.253   1.140  0.4073 -1.6804 -0.8525
 3347SOL     OW13571   6.859   5.606   4.096 -0.0136  0.0541 -0.6448
 3347SOL    HW113572   6.898   5.520   4.080 -1.0080 -0.8603  1.5174
 3347SOL    HW213573   6.842   5.641   4.008 -0.2669 -2.2667 -1.5953
 3348SOL     OW13574  10.342   1.391   8.042 -0.0900 -1.1780 -0.2697
 3348SOL    HW113575  10.344   1.347   8.127  2.9588 -0.2820  0.2528
 3348SOL    HW213576  10.345   1.484   8.063 -1.3110 -0.8534 -1.3976
 3349SOL     OW13577   8.575   5.006   6.607 -0.4689  0.4949 -0.6631
 3349SOL    HW113578   8.549   5.010   6.515 -0.2328 -3.1395 -1.0300
 3349SOL    HW213579   8.512   4.947   6.647  0.4195  0.6988  1.1469
 3350SOL     OW13580   0.418   8.244   9.635 -0.2788  0.3745  0.4197
 3350SOL    HW113581   0.391   8.152   9.639  0.4122  0.2077  2.1861
 3350SOL    HW213582   0.420   8.264   9.541 -1.6302 -1.0338  0.0406
 3351SOL     OW13583   9.172   2.973   2.840 -0.9069 -0.3841 -0.5340
 3351SOL    HW113584   9.194   3.008   2.753  1.5009  0.1755  0.2290
 3351SOL    HW213585   9.193   3.044   2.900  0.1309 -1.6798  0.7100
 3352SOL     OW13586   3.458   2.234   9.815  0.0979 -0.0264 -0.4292
 3352SOL    HW113587   3.488   2.160   9.763 -0.3490  0.2101 -1.0426
 3352SOL    HW213588   3.363   2.223   9.820  0.0124  0.5623 -0.6402
 3353SOL     OW13589   9.468   1.301  11.078 -0.0728 -0.1011  0.0824
 3353SOL    HW113590   9.493   1.245  11.151 -1.5114  3.2098  3.3943
 3353SOL    HW213591   9.505   1.386  11.098 -1.8845  1.3708 -2.2510
 3354SOL     OW13592   9.007   6.151   3.826 -0.2028 -0.2491 -0.6896
 3354SOL    HW113593   8.994   6.098   3.905  2.2074 -3.2465 -2.0708
 3354SOL    HW213594   9.102   6.167   3.824 -0.5007  1.7526 -1.8600
 3355SOL     OW13595   8.632   8.497   3.288 -0.1808  0.5791  0.4418
 3355SOL    HW113596   8.672   8.412   3.269 -0.7126  0.6412 -1.0455
 3355SOL    HW213597   8.680   8.529   3.365 -2.9407 -3.0561  4.1674
 3356SOL     OW13598   0.938   9.379   7.241  0.5528 -0.1375 -0.1517
 3356SOL    HW113599   0.849   9.364   7.208  0.8640 -1.2227 -0.5247
 3356SOL    HW213600   0.938   9.471   7.267 -0.1757  0.3609 -1.7549
 3357SOL     OW13601   0.084   0.078  10.211 -0.0028  0.0341 -0.8866
 3357SOL    HW113602   0.013   0.083  10.146 -0.0490 -0.9063 -0.9142
 3357SOL    HW213603   0.164   0.078  10.158  0.0028  0.4055 -0.8841
 3358SOL     OW13604   1.933   4.392   3.001  0.3189 -0.1422 -0.1121
 3358SOL    HW113605   1.920   4.300   2.979  0.0271 -0.3789  0.9687
 3358SOL    HW213606   1.849   4.421   3.036  0.9815 -0.0644  1.5096
 3359SOL     OW13607   7.187   3.663   6.751  0.4945 -0.2386  0.2112
 3359SOL    HW113608   7.277   3.654   6.723  0.8849 -0.8518  1.5756
 3359SOL    HW213609   7.186   3.631   6.842 -1.1462 -0.5423  0.1283
 3360SOL     OW13610   1.827   0.202  10.183 -0.1529 -0.4720  0.2415
 3360SOL    HW113611   1.901   0.151  10.148 -0.3324  0.1319 -1.1152
 3360SOL    HW213612   1.750   0.153  10.156 -0.2780 -0.6912  0.9774
 3361SOL     OW13613   0.376   8.570   9.186 -0.0246  0.1989  0.3777
 3361SOL    HW113614   0.296   8.620   9.166  0.7429  1.5878  0.6394
 3361SOL    HW213615   0.408   8.541   9.101 -0.5159  0.0878  0.2270
 3362SOL     OW13616   8.037  10.039   2.776 -0.5872  0.0197  0.0388
 3362SOL    HW113617   8.024  10.086   2.859 -0.4670 -0.2780  0.2259
 3362SOL    HW213618   8.123  10.067   2.747 -1.1584  1.1411 -0.6507
 3363SOL     OW13619   0.100   9.358   0.686  0.0821 -0.4175  0.5457
 3363SOL    HW113620   0.149   9.434   0.716 -0.0149  0.1613 -0.6919
 3363SOL    HW213621   0.028   9.349   0.748  0.5188  0.0399  1.1236
 3364SOL     OW13622   8.220   6.062  10.456 -0.1116 -0.3326  0.1466
 3364SOL    HW113623   8.203   5.977  10.497  1.6665 -0.5052  0.6233
 3364SOL    HW213624   8.135   6.103  10.451 -0.4914  0.1143  5.0118
 3365SOL     OW13625   3.640   9.939   2.860  0.1840 -0.2643 -0.1533
 3365SOL    HW113626   3.604   9.862   2.904 -2.5120  1.6100  1.2158
 3365SOL    HW213627   3.587   9.948   2.781 -0.4289  0.8855  0.3699
 3366SOL     OW13628   6.157  10.825   5.520  0.2845 -0.0329 -0.2220
 3366SOL    HW113629   6.212  10.772   5.462  1.8550  1.9669 -0.7005
 3366SOL    HW213630   6.137  10.904   5.469 -1.3879  0.1908  0.6875
 3367SOL     OW13631   3.030   9.562  10.400 -0.0463 -0.2979 -0.5336
 3367SOL    HW113632   2.966   9.518  10.455 -0.3347 -0.0529 -0.6743
 3367SOL    HW213633   2.981   9.630  10.355  0.4491  0.3314 -0.1348
 3368SOL     OW13634   9.557   7.768   5.537  0.0604 -1.1069  0.8216
 3368SOL    HW113635   9.622   7.698   5.533  0.3466 -0.8237  0.4939
 3368SOL    HW213636   9.597   7.835   5.593  1.3216  0.3385 -1.6226
 3369SOL     OW13637   4.084   2.353   8.679 -0.6953 -0.0833 -0.3280
 3369SOL    HW113638   4.055   2.265   8.700  0.1185 -0.2645  0.0892
 3369SOL    HW213639   4.171   2.340   8.639 -1.1753  0.4273 -1.5821
 3370SOL     OW13640   5.262  11.028   8.124 -0.0353  0.0654 -0.3048
 3370SOL    HW113641   5.277  11.100   8.185  0.8701 -0.4101  0.0564
 3370SOL    HW213642   5.348  11.011   8.086 -0.5639  0.3034 -1.6769
 3371SOL     OW13643   1.803   6.199   8.390  0.0362 -0.3720 -0.6000
 3371SOL    HW113644   1.879   6.154   8.353 -0.0404 -0.5577 -0.5318
 3371SOL    HW213645   1.840   6.272   8.440  0.4233 -2.4419  2.4009
 3372SOL     OW13646  10.243   0.484   5.844 -0.2064 -0.5589  0.2770
 3372SOL    HW113647  10.173   0.439   5.796 -1.0075  0.8866  0.0477
 3372SOL    HW213648  10.210   0.573   5.857  1.1437 -0.1574  1.1320
 3373SOL     OW13649   9.759   2.370  10.885  0.2775  0.0173 -0.0018
 3373SOL    HW113650   9.690   2.436  10.892  0.3449  0.2244 -1.0068
 3373SOL    HW213651   9.830   2.404  10.938 -0.1387  0.1388  0.4915
 3374SOL     OW13652   1.916   0.051  10.949 -0.0955 -1.1873 -0.3690
 3374SOL    HW113653   1.924  -0.004  10.871 -1.3937 -1.4028 -0.3820
 3374SOL    HW213654   1.822   0.047  10.971 -0.1695  0.7378 -0.1690
 3375SOL     OW13655   1.240   8.847   2.441 -0.5844 -0.1882  0.6389
 3375SOL    HW113656   1.167   8.800   2.481  0.1435 -0.3012  1.8923
 3375SOL    HW213657   1.297   8.869   2.514 -0.2185  1.4471 -0.0789
 3376SOL     OW13658   7.861   2.161   4.690 -0.9252 -0.4016 -0.5719
 3376SOL    HW113659   7.955   2.156   4.674 -0.6628  0.7387  0.4416
 3376SOL    HW213660   7.840   2.254   4.677 -1.9166 -0.6379 -0.7656
 3377SOL     OW13661   7.507   1.991   6.110  0.0529 -0.3226 -0.4299
 3377SOL    HW113662   7.492   1.927   6.040 -0.1054 -1.0722  0.2719
 3377SOL    HW213663   7.440   1.971   6.176  0.5951 -0.0333  0.2182
 3378SOL     OW13664   5.917   6.437   1.419  0.9664  0.6476 -0.5728
 3378SOL    HW113665   5.899   6.375   1.490 -1.2821  0.6850 -1.0368
 3378SOL    HW213666   5.989   6.397   1.370  2.3027  0.4498  1.4869
 3379SOL     OW13667   3.147   4.573   4.557  0.2956  0.1981  0.1469
 3379SOL    HW113668   3.129   4.536   4.644  1.1437 -0.8842 -0.1129
 3379SOL    HW213669   3.093   4.652   4.553 -3.2084 -2.0024 -0.0435
 3380SOL     OW13670   6.910   0.536   5.238 -0.5326  0.5730  0.1004
 3380SOL    HW113671   6.939   0.446   5.248 -0.9145  0.4180 -0.1923
 3380SOL    HW213672   6.902   0.568   5.328  2.0479  1.1233  0.2083
 3381SOL     OW13673   4.884  11.070   6.080  0.0683 -0.2589 -0.1423
 3381SOL    HW113674   4.917  11.160   6.087  0.3188 -0.3054 -0.6245
 3381SOL    HW213675   4.941  11.019   6.138  0.8068 -0.3207 -0.8934
 3382SOL     OW13676   1.405   5.023   6.766 -0.0179  0.1562 -0.1330
 3382SOL    HW113677   1.346   4.952   6.742 -0.9667  0.4678  1.1564
 3382SOL    HW213678   1.352   5.081   6.821  1.2040  0.9723  0.2294
 3383SOL     OW13679  10.960   5.420   9.953 -0.6278 -0.4067  0.3254
 3383SOL    HW113680  11.022   5.347   9.941 -0.7434 -0.1128 -2.7694
 3383SOL    HW213681  10.880   5.390   9.911 -1.1574  0.9475  0.3298
 3384SOL     OW13682   3.379  10.799  11.114  0.3314  0.5215  0.0989
 3384SOL    HW113683   3.433  10.821  11.190 -0.3554 -1.1844  1.1520
 3384SOL    HW213684   3.440  10.756  11.054  0.5408  0.2683  0.4795
 3385SOL     OW13685   3.274   0.269   2.176  0.0480 -0.0144 -0.5226
 3385SOL    HW113686   3.281   0.173   2.175  0.5967  0.0233 -0.4690
 3385SOL    HW213687   3.328   0.297   2.102 -0.2356  0.2498 -0.6321
 3386SOL     OW13688   6.602   1.198   9.333  0.3422 -0.4212 -0.0805
 3386SOL    HW113689   6.632   1.283   9.303  0.6010 -0.3201  0.4459
 3386SOL    HW213690   6.660   1.135   9.290 -0.9741 -0.4753 -1.9039
 3387SOL     OW13691   2.201   3.987   4.782 -0.3706 -0.2300  0.0207
 3387SOL    HW113692   2.255   4.028   4.714  0.4407  0.4187  1.0249
 3387SOL    HW213693   2.161   3.912   4.738  0.5971 -0.1748 -1.0140
 3388SOL     OW13694   7.024   6.566   2.516  0.2349  0.1494  0.2891
 3388SOL    HW113695   7.065   6.626   2.454  1.2566 -0.1980  0.5995
 3388SOL    HW213696   7.088   6.557   2.587 -0.4382 -0.3172  0.8586
 3389SOL     OW13697   4.377   7.334   6.936 -0.3112  0.0342 -0.3904
 3389SOL    HW113698   4.294   7.289   6.921 -1.4478  1.2957  1.6249
 3389SOL    HW213699   4.351   7.424   6.958  1.6798  0.7371 -0.7440
 3390SOL     OW13700  10.604  10.848   9.441 -0.3513  0.0091  0.6307
 3390SOL    HW113701  10.597  10.755   9.418 -0.7051 -0.2777  1.8169
 3390SOL    HW213702  10.666  10.849   9.514 -1.3910  0.5425  1.5164
 3391SOL     OW13703   0.675   1.025   6.427  0.4301 -0.0684  0.1942
 3391SOL    HW113704   0.604   0.990   6.374 -1.3467  0.1659  2.2463
 3391SOL    HW213705   0.668   0.978   6.511  1.3438  1.4567  1.1830
 3392SOL     OW13706   2.551   4.038   5.113  0.5097 -0.6019 -0.1450
 3392SOL    HW113707   2.643   4.014   5.124  0.6808  0.0587 -0.1198
 3392SOL    HW213708   2.531   4.014   5.022  0.4733 -1.4969  0.0876
 3393SOL     OW13709   3.797   7.839  10.736  0.4023  0.1130 -0.0370
 3393SOL    HW113710   3.882   7.849  10.693  0.5286  0.8715  0.3751
 3393SOL    HW213711   3.757   7.764  10.692  0.7095  0.5939 -1.1746
 3394SOL     OW13712   8.286   5.772   0.220 -0.0325 -0.1459 -0.0845
 3394SOL    HW113713   8.366   5.825   0.217 -0.8767  1.1981  0.2844
 3394SOL    HW213714   8.215   5.835   0.204 -1.0677 -1.1614  0.3928
 3395SOL     OW13715   7.450   2.845   6.804 -0.2649  0.1664 -0.1811
 3395SOL    HW113716   7.495   2.829   6.722  0.5589  0.1245  0.2718
 3395SOL    HW213717   7.452   2.940   6.815  1.8162  0.0396  0.9763
 3396SOL     OW13718   1.052   3.398   1.706  0.0799 -0.3524 -0.0478
 3396SOL    HW113719   1.029   3.472   1.650 -0.3565  0.5842  1.2935
 3396SOL    HW213720   0.977   3.340   1.702 -0.4968  0.3302  0.5219
 3397SOL     OW13721   2.745   1.852   8.805 -0.0291  0.1769  0.8114
 3397SOL    HW113722   2.650   1.856   8.812 -0.3323 -1.7204 -1.1048
 3397SOL    HW213723   2.766   1.759   8.810  1.4477  0.3407 -1.0807
 3398SOL     OW13724   8.928   6.994   5.143 -0.2823 -0.4909 -0.1042
 3398SOL    HW113725   8.864   6.982   5.213 -0.6057 -2.1022 -0.6356
 3398SOL    HW213726   8.882   6.969   5.064  0.7267 -0.7535 -0.6226
 3399SOL     OW13727   1.439   6.376   9.209 -0.3223 -0.5687  0.0263
 3399SOL    HW113728   1.383   6.407   9.138 -0.8666 -0.3667  0.5420
 3399SOL    HW213729   1.516   6.340   9.164  0.4573  1.6964 -0.5880
 3400SOL     OW13730   0.237   7.035   2.751  0.1193 -0.0207 -0.5488
 3400SOL    HW113731   0.147   7.028   2.720  0.1624 -2.2644 -0.2815
 3400SOL    HW213732   0.251   6.958   2.805  1.6989  1.1470  0.8154
 3401SOL     OW13733   2.032   5.376   0.878  0.0811  0.5584 -0.5982
 3401SOL    HW113734   2.011   5.335   0.962 -1.0800  1.5630 -0.3642
 3401SOL    HW213735   2.073   5.307   0.827  0.9689 -0.0414  0.8427
 3402SOL     OW13736   1.732   6.034   7.184  0.5844 -0.3553  0.1953
 3402SOL    HW113737   1.748   6.013   7.276 -0.3481  2.3382  1.0802
 3402SOL    HW213738   1.722   5.949   7.141 -2.1391 -1.7888  3.1982
 3403SOL     OW13739   1.103   9.097   9.504 -0.6361 -0.1932 -0.3033
 3403SOL    HW113740   1.170   9.049   9.553 -1.1637  0.8367  1.5354
 3403SOL    HW213741   1.135   9.098   9.414  1.6959  0.0254  0.4654
 3404SOL     OW13742   8.366   3.339   1.065 -0.0761 -0.7499  0.2691
 3404SOL    HW113743   8.400   3.268   1.120  2.3232  0.0731 -0.0031
 3404SOL    HW213744   8.372   3.305   0.976  0.7123 -0.3864  0.1702
 3405SOL     OW13745   2.961   2.717   7.041 -0.3892  0.3526  0.2956
 3405SOL    HW113746   2.977   2.810   7.025  0.3171  0.0446 -0.9762
 3405SOL    HW213747   3.049   2.680   7.055 -0.6461 -0.1609  0.5910
 3406SOL     OW13748   5.878   8.258   4.224 -0.2671 -0.0197 -0.0948
 3406SOL    HW113749   5.858   8.293   4.311  0.0632  1.6656 -0.6445
 3406SOL    HW213750   5.916   8.172   4.240 -0.6533  0.0671  1.3965
 3407SOL     OW13751   2.680   6.742  10.792  0.5798 -0.3651 -0.8611
 3407SOL    HW113752   2.707   6.810  10.730 -0.5156  0.5152 -0.3996
 3407SOL    HW213753   2.598   6.774  10.829  2.7563  0.8473  3.6104
 3408SOL     OW13754   5.235   3.153   5.133  0.4508  0.3271 -0.0313
 3408SOL    HW113755   5.252   3.107   5.216 -1.3947  0.9025  0.7069
 3408SOL    HW213756   5.249   3.087   5.066 -2.9470 -1.7132  1.0147
 3409SOL     OW13757   8.039  10.289   1.671 -0.6309  0.6500 -0.5932
 3409SOL    HW113758   7.963  10.307   1.727 -0.9420  0.0973 -0.8335
 3409SOL    HW213759   8.011  10.217   1.615  0.5612 -0.5751  0.3087
 3410SOL     OW13760   4.235   0.163   2.701  0.3067 -0.2807  0.0822
 3410SOL    HW113761   4.257   0.224   2.631  1.2777 -1.6195 -0.8176
 3410SOL    HW213762   4.144   0.140   2.685  0.0260  0.6773  0.2479
 3411SOL     OW13763   6.815   1.722   2.775  0.3088 -0.0464 -0.4096
 3411SOL    HW113764   6.792   1.726   2.682  1.7765  0.2215 -0.7916
 3411SOL    HW213765   6.873   1.646   2.782  1.0989  0.5809  0.0641
 3412SOL     OW13766   4.670   0.192   8.347 -0.1277 -0.2461  0.7665
 3412SOL    HW113767   4.597   0.132   8.328 -0.8299 -0.2163  3.0394
 3412SOL    HW213768   4.706   0.160   8.430  0.9916  1.1096  0.8390
 3413SOL     OW13769   4.749   6.334  10.283  0.2872  0.0308  0.3807
 3413SOL    HW113770   4.771   6.319  10.191  0.8695  2.9665 -0.0541
 3413SOL    HW213771   4.793   6.416  10.305 -3.0236  1.5402  2.1151
 3414SOL     OW13772   3.581   6.737   9.303 -0.2752  0.0339  0.0393
 3414SOL    HW113773   3.649   6.670   9.314  1.2178  1.7186  1.6901
 3414SOL    HW213774   3.580   6.755   9.209  0.3983 -1.1833 -0.2262
 3415SOL     OW13775   8.853   1.646   3.782 -0.3030 -0.2245 -0.3739
 3415SOL    HW113776   8.944   1.670   3.797 -0.6275  0.7718  0.0589
 3415SOL    HW213777   8.857   1.560   3.741  0.8202 -0.3649  0.0114
 3416SOL     OW13778   1.730   9.541  10.413 -0.3091  0.4109 -0.0040
 3416SOL    HW113779   1.804   9.577  10.364 -0.0373 -0.5550 -0.3281
 3416SOL    HW213780   1.765   9.523  10.500 -0.0327 -0.4095 -0.2692
 3417SOL     OW13781   4.290   1.769   4.609  0.2715 -1.3990  0.0313
 3417SOL    HW113782   4.308   1.676   4.620  1.4787 -1.3785 -1.3720
 3417SOL    HW213783   4.357   1.799   4.547 -0.4956  0.2580 -0.0545
 3418SOL     OW13784   3.764   4.467   6.318  0.7266 -0.2359  0.5949
 3418SOL    HW113785   3.686   4.427   6.356  0.5634 -0.4772  0.0199
 3418SOL    HW213786   3.780   4.417   6.238  1.9780 -0.7427  1.1479
 3419SOL     OW13787   9.468   8.479   5.792 -0.0536  0.9695 -0.3066
 3419SOL    HW113788   9.503   8.543   5.731  1.5960  1.3386  0.9261
 3419SOL    HW213789   9.394   8.522   5.834 -1.2432  0.6822 -2.0501
 3420SOL     OW13790   1.147   2.493   7.885 -0.2897 -0.4427  0.4524
 3420SOL    HW113791   1.161   2.578   7.843 -0.3019  0.0381  1.3974
 3420SOL    HW213792   1.233   2.468   7.919  0.0476 -1.5343 -1.1132
 3421SOL     OW13793   5.376   3.502   3.036  0.0310 -0.2844  0.6721
 3421SOL    HW113794   5.361   3.407   3.036  1.9130 -0.6208 -0.3020
 3421SOL    HW213795   5.339   3.532   2.953  0.7567 -0.4037  0.3049
 3422SOL     OW13796   2.664   8.874   9.532  0.0901 -0.3370  0.5267
 3422SOL    HW113797   2.639   8.800   9.588 -1.1319  0.9505  1.7437
 3422SOL    HW213798   2.736   8.916   9.579 -1.2468  1.0267  1.4688
 3423SOL     OW13799   0.893   1.941   8.887 -0.2984  0.1291 -0.4153
 3423SOL    HW113800   0.883   1.882   8.962  0.8772 -0.0740 -0.4109
 3423SOL    HW213801   0.963   2.001   8.912  0.0955  0.0728 -1.3447
 3424SOL     OW13802   9.292   3.654   9.042  0.0809 -0.1824 -0.1032
 3424SOL    HW113803   9.200   3.629   9.052  0.2592 -0.7464  0.1335
 3424SOL    HW213804   9.289   3.747   9.021 -0.6055 -0.4608 -1.3441
 3425SOL     OW13805   1.040   2.985   7.031  1.0036 -0.4362 -0.2276
 3425SOL    HW113806   1.122   3.015   6.993  0.5048  0.6521 -0.4759
 3425SOL    HW213807   0.991   2.949   6.957  0.9073 -0.3096 -0.2243
 3426SOL     OW13808   0.384   4.096   6.710  0.2677  0.1333  0.1953
 3426SOL    HW113809   0.405   4.144   6.790 -2.6040  1.1353  0.4462
 3426SOL    HW213810   0.327   4.024   6.738  0.1447 -0.1965 -0.8227
 3427SOL     OW13811  11.035   8.926   9.544  0.0049  0.1326  0.1454
 3427SOL    HW113812  11.098   8.997   9.545  0.6583 -0.4352 -0.0626
 3427SOL    HW213813  11.029   8.897   9.635 -0.0679  0.2873  0.1897
 3428SOL     OW13814   4.999   0.220   5.846 -0.5618 -0.0278 -0.0841
 3428SOL    HW113815   4.927   0.271   5.808  0.3632  1.0851 -0.3939
 3428SOL    HW213816   5.048   0.188   5.771  0.9438  1.7016  0.0874
 3429SOL     OW13817   9.478   7.916   7.332  0.0437  0.1017 -0.0363
 3429SOL    HW113818   9.497   7.988   7.392 -2.0599  0.6357  0.0618
 3429SOL    HW213819   9.481   7.955   7.245  1.2887 -0.2617 -0.1698
 3430SOL     OW13820   1.850   8.864   2.573 -0.2999 -0.0746 -0.3514
 3430SOL    HW113821   1.834   8.889   2.664  2.6202 -0.5666  0.3907
 3430SOL    HW213822   1.852   8.947   2.525 -0.1049  0.3337  0.3551
 3431SOL     OW13823   0.060   1.515   3.871  0.3754 -0.0057  0.3085
 3431SOL    HW113824   0.091   1.470   3.792 -3.9651 -2.6806 -0.2016
 3431SOL    HW213825   0.033   1.602   3.840 -0.9776 -0.9115 -1.2170
 3432SOL     OW13826   6.567   8.457   0.750  0.2920  0.4833 -0.0532
 3432SOL    HW113827   6.578   8.499   0.664  0.5118  0.3860 -0.0742
 3432SOL    HW213828   6.563   8.364   0.731 -1.6423  0.5475 -0.1484
 3433SOL     OW13829   6.752   9.844   0.752  0.1585  0.0668  0.1877
 3433SOL    HW113830   6.810   9.891   0.693  0.5407 -0.3698  0.2138
 3433SOL    HW213831   6.737   9.905   0.825  0.6191  0.1609  0.2017
 3434SOL     OW13832   4.488   8.525  11.046 -0.1760 -0.1662  0.2418
 3434SOL    HW113833   4.436   8.462  10.997  0.8192 -1.0077  0.2224
 3434SOL    HW213834   4.434   8.548  11.122  0.1159 -2.3789  1.1776
 3435SOL     OW13835   6.792   8.577   5.042  0.6122  0.5208 -0.1246
 3435SOL    HW113836   6.725   8.621   5.093 -1.1341 -2.0275 -0.0318
 3435SOL    HW213837   6.744   8.530   4.974  1.9858 -3.0028  1.1090
 3436SOL     OW13838   5.808   1.541  10.425 -0.0457  0.1417  0.3056
 3436SOL    HW113839   5.877   1.498  10.476  0.6033  1.7451  0.8192
 3436SOL    HW213840   5.820   1.506  10.336  2.2996  1.3408  0.0914
 3437SOL     OW13841   4.991   1.426   8.444 -0.2649  0.3439  0.0189
 3437SOL    HW113842   5.006   1.508   8.491 -0.8851  0.2693  0.3657
 3437SOL    HW213843   4.973   1.453   8.354  0.4636  0.5205 -0.0775
 3438SOL     OW13844   5.876  10.137   1.211 -0.7392 -0.5552 -0.2174
 3438SOL    HW113845   5.821  10.066   1.178  0.9962 -1.4083 -1.4175
 3438SOL    HW213846   5.965  10.111   1.190 -0.0387  2.1031 -1.0202
 3439SOL     OW13847   3.691   6.149   4.577  0.4252  0.3448 -0.1322
 3439SOL    HW113848   3.615   6.205   4.595 -0.3949 -0.9672  0.6329
 3439SOL    HW213849   3.766   6.205   4.597 -0.3329  1.4296 -0.1745
 3440SOL     OW13850   6.250   4.972   3.537  0.0404  0.2335 -0.6386
 3440SOL    HW113851   6.251   5.002   3.628  0.8958  2.4768 -1.2968
 3440SOL    HW213852   6.226   5.050   3.487  0.2522 -0.7688 -2.3928
 3441SOL     OW13853  10.493   8.926   8.544  0.7054  0.0663  0.2138
 3441SOL    HW113854  10.583   8.917   8.575  0.2426 -0.0773  1.5607
 3441SOL    HW213855  10.472   8.841   8.506  0.8548 -0.1755  0.6728
 3442SOL     OW13856   1.982   6.334   5.765  0.0403  0.2921  0.0838
 3442SOL    HW113857   2.060   6.317   5.817 -0.5771 -0.3869  0.8291
 3442SOL    HW213858   1.916   6.275   5.802 -0.6442  0.3840 -0.9456
 3443SOL     OW13859   6.095   5.993  10.476 -0.2042 -0.6660  0.5673
 3443SOL    HW113860   6.093   5.898  10.477 -0.0804 -0.6823 -0.1312
 3443SOL    HW213861   6.188   6.015  10.471 -0.1884 -0.4872  1.4145
 3444SOL     OW13862   1.374   2.572   4.108 -0.1422 -0.5250 -0.7570
 3444SOL    HW113863   1.357   2.665   4.124  2.5114 -0.1427  0.4690
 3444SOL    HW213864   1.394   2.567   4.014  1.3825  0.5293 -0.5322
 3445SOL     OW13865   4.113   2.351   5.973 -0.0174  0.2835  0.3469
 3445SOL    HW113866   4.186   2.294   5.998  0.9396  2.1055  1.9402
 3445SOL    HW213867   4.101   2.410   6.048 -2.1204  1.0632 -0.5138
 3446SOL     OW13868   8.031  10.640   1.725  0.2273  0.0943  0.6510
 3446SOL    HW113869   7.940  10.656   1.751 -0.1334  0.3675 -0.7157
 3446SOL    HW213870   8.082  10.702   1.778 -0.4566  0.4742  0.8840
 3447SOL     OW13871   6.589   2.396   8.356 -0.2366  0.2827  0.2834
 3447SOL    HW113872   6.660   2.335   8.373 -0.0198  0.0519 -1.2963
 3447SOL    HW213873   6.632   2.480   8.339 -0.4123  0.4231  0.5276
 3448SOL     OW13874   5.415   7.764   6.250  0.2841  0.0592 -0.4294
 3448SOL    HW113875   5.507   7.769   6.273  0.5201  3.1194 -1.6513
 3448SOL    HW213876   5.381   7.852   6.263 -1.9036 -0.4089 -2.2428
 3449SOL     OW13877   2.780   3.577  11.043 -0.0340  0.4030  0.3768
 3449SOL    HW113878   2.757   3.553  11.133 -1.5082 -1.9990 -0.5431
 3449SOL    HW213879   2.869   3.611  11.050  0.1760 -0.4212  2.6489
 3450SOL     OW13880   9.211   0.268   0.645  0.1298  0.3510 -0.3496
 3450SOL    HW113881   9.142   0.239   0.704 -0.8260  1.3923 -0.9225
 3450SOL    HW213882   9.288   0.277   0.702  0.2557 -2.3100  0.0178
 3451SOL     OW13883   5.980   2.791   3.452 -0.1755 -0.3009  0.0147
 3451SOL    HW113884   5.930   2.849   3.510 -1.5962 -1.5269  0.0857
 3451SOL    HW213885   5.951   2.815   3.364  0.3568  0.0987 -0.0534
 3452SOL     OW13886   6.741   4.699  11.113 -0.2454  0.3025  0.2647
 3452SOL    HW113887   6.788   4.780  11.089 -0.5129  0.1524 -0.8176
 3452SOL    HW213888   6.667   4.729  11.166  0.3101  0.6573  0.8569
 3453SOL     OW13889   4.456   0.929   4.247 -0.1201  0.5453 -0.6775
 3453SOL    HW113890   4.397   0.883   4.308  0.8394 -1.6450 -1.2887
 3453SOL    HW213891   4.541   0.930   4.292  0.0806  0.9131 -1.0557
 3454SOL     OW13892  10.688   7.978   6.360  0.1869 -0.0235 -0.4010
 3454SOL    HW113893  10.607   7.931   6.381 -0.1955  1.4333  1.8222
 3454SOL    HW213894  10.659   8.068   6.342  1.3321  0.7883  1.5043
 3455SOL     OW13895   7.524  10.965  11.010  0.2160  0.0327 -0.3379
 3455SOL    HW113896   7.492  10.990  11.097 -1.0883  2.1824 -1.3556
 3455SOL    HW213897   7.583  11.036  10.985  1.5696 -1.1771 -0.7509
 3456SOL     OW13898   9.018   8.043   6.859 -0.0948  0.5638  0.5413
 3456SOL    HW113899   8.958   8.097   6.910  1.8084  1.0548  2.4263
 3456SOL    HW213900   9.076   8.106   6.816  0.9242  0.1040  1.1903
 3457SOL     OW13901   9.087   2.543   5.999 -0.2844 -0.7515 -0.0383
 3457SOL    HW113902   9.103   2.637   5.991  2.5262 -1.2069 -0.9271
 3457SOL    HW213903   9.146   2.515   6.070 -0.9712 -1.8843  0.1107
 3458SOL     OW13904   2.449   6.834   8.651 -0.6122  0.0098  0.3349
 3458SOL    HW113905   2.542   6.835   8.628 -0.6656 -0.5721  0.0679
 3458SOL    HW213906   2.426   6.741   8.652 -0.4881 -0.0802  3.3444
 3459SOL     OW13907   1.858   5.196   6.513 -0.0549  0.1486 -0.7901
 3459SOL    HW113908   1.798   5.266   6.486  1.2624  1.0558 -1.5017
 3459SOL    HW213909   1.889   5.158   6.431  1.0443  0.3353 -0.4828
 3460SOL     OW13910   1.008   9.007  10.495 -0.1987 -0.2411 -0.6049
 3460SOL    HW113911   1.069   8.972  10.430 -0.8928 -0.3156 -1.2348
 3460SOL    HW213912   1.037   8.969  10.578 -1.5712 -3.3900 -1.3747
 3461SOL     OW13913   0.046   8.196   0.382  0.4017 -0.2533  0.3067
 3461SOL    HW113914  -0.025   8.160   0.435  0.3099 -1.1724 -0.4215
 3461SOL    HW213915   0.011   8.199   0.293  1.2950 -0.8084 -0.0811
 3462SOL     OW13916   3.475   1.380   7.655  0.3656 -0.0161 -0.1645
 3462SOL    HW113917   3.421   1.445   7.610  2.7261  1.9576 -0.3916
 3462SOL    HW213918   3.413   1.325   7.702 -1.7886  2.8145  0.5834
 3463SOL     OW13919   5.896   0.772   2.229 -0.2003 -0.0242 -0.7587
 3463SOL    HW113920   5.820   0.794   2.174 -0.6103 -0.5919 -0.4275
 3463SOL    HW213921   5.916   0.682   2.207  0.4910  0.1729 -0.9571
 3464SOL     OW13922   8.851   5.367   6.887 -0.2388  0.0169  0.0429
 3464SOL    HW113923   8.768   5.376   6.839 -0.0646  2.2293  0.0604
 3464SOL    HW213924   8.824   5.356   6.978 -0.5381  0.6724  0.0413
 3465SOL     OW13925  10.696   2.727   4.267 -0.4303 -0.5074 -0.0225
 3465SOL    HW113926  10.759   2.769   4.326  1.2627 -2.4603 -0.3205
 3465SOL    HW213927  10.637   2.679   4.326  1.2024 -2.3849  0.2103
 3466SOL     OW13928  10.578   8.251   9.694  0.2944 -0.1677 -0.6288
 3466SOL    HW113929  10.596   8.328   9.640 -0.5787  0.9832  0.6457
 3466SOL    HW213930  10.633   8.182   9.656  1.1148  1.0679 -1.8054
 3467SOL     OW13931   9.576   1.289   5.116 -0.6712 -0.3277 -0.1166
 3467SOL    HW113932   9.568   1.206   5.070  0.2189  0.1073 -1.0944
 3467SOL    HW213933   9.621   1.266   5.198  0.4889 -0.6928 -0.8196
 3468SOL     OW13934   7.846   9.328   2.980  0.1404 -0.3440  0.4346
 3468SOL    HW113935   7.878   9.329   3.070  0.2490  2.3503  0.4477
 3468SOL    HW213936   7.910   9.381   2.931 -1.9178  1.5252 -0.3990
 3469SOL     OW13937   6.204   3.286   8.604 -0.3515 -0.0148  0.0147
 3469SOL    HW113938   6.247   3.286   8.519 -1.9270 -0.7836 -0.8311
 3469SOL    HW213939   6.130   3.226   8.594  0.4574 -1.5936  2.4897
 3470SOL     OW13940   0.149  10.438   7.976 -0.0571  0.3358  0.0121
 3470SOL    HW113941   0.071  10.424   7.923 -0.2925  1.0592  0.1550
 3470SOL    HW213942   0.117  10.484   8.054  0.4170  0.0876  0.3592
 3471SOL     OW13943   5.450   8.586   5.385 -0.3648  0.5431 -0.7473
 3471SOL    HW113944   5.530   8.539   5.360 -0.8449  0.7091 -2.7896
 3471SOL    HW213945   5.470   8.677   5.366 -0.3318  0.8589  0.7480
 3472SOL     OW13946   1.584   9.067   9.884  0.0908  0.3841  0.3447
 3472SOL    HW113947   1.542   9.093   9.966  1.6859  0.5972  1.1407
 3472SOL    HW213948   1.569   9.141   9.825  0.4899  1.0380  1.0483
 3473SOL     OW13949   9.354   6.241   3.990 -0.8354  0.1260 -0.3801
 3473SOL    HW113950   9.325   6.180   3.922  0.2636 -0.9761  0.0966
 3473SOL    HW213951   9.282   6.243   4.053 -0.7544 -0.9589 -0.2341
 3474SOL     OW13952  10.829   5.568   0.998  0.1044 -0.5079 -0.5094
 3474SOL    HW113953  10.900   5.605   1.050  1.6669 -1.7388 -1.6656
 3474SOL    HW213954  10.812   5.482   1.038 -0.2164 -0.5345 -0.7001
 3475SOL     OW13955   2.963   1.381   2.591  0.6017 -0.1091 -0.0266
 3475SOL    HW113956   2.975   1.286   2.599  3.9259  0.0064 -1.9198
 3475SOL    HW213957   2.952   1.396   2.497 -1.5247  1.3090  0.3946
 3476SOL     OW13958   4.818   6.999   0.150  0.2095  0.0825  0.1605
 3476SOL    HW113959   4.893   6.949   0.183  0.7947  0.3908 -0.6761
 3476SOL    HW213960   4.822   7.082   0.196  0.1357 -0.0611  0.4262
 3477SOL     OW13961   7.723   7.380   4.219 -0.4780 -0.3150  0.2877
 3477SOL    HW113962   7.792   7.395   4.155  0.3311  0.6141  1.3408
 3477SOL    HW213963   7.704   7.287   4.212 -0.7671 -0.1493 -1.6308
 3478SOL     OW13964   0.277   4.480   1.144 -0.5205 -0.1560  0.2802
 3478SOL    HW113965   0.365   4.443   1.143 -1.2640 -2.0244 -0.1263
 3478SOL    HW213966   0.274   4.531   1.225  1.4002  1.2722 -0.4570
 3479SOL     OW13967   1.718   8.362   5.152  0.1882  0.1953 -0.4100
 3479SOL    HW113968   1.641   8.417   5.162  0.9081  1.1564 -0.0203
 3479SOL    HW213969   1.788   8.410   5.196  0.8925 -0.9196 -0.2716
 3480SOL     OW13970   5.646   7.921   6.271  0.2208  0.2309 -0.0403
 3480SOL    HW113971   5.736   7.933   6.242  0.4262 -0.0185  0.4946
 3480SOL    HW213972   5.652   7.905   6.365 -0.3600 -0.0029 -0.0365
 3481SOL     OW13973   8.846   4.523  10.095  0.1962  0.3956 -0.4223
 3481SOL    HW113974   8.827   4.446  10.041 -0.0229  0.4959 -0.4911
 3481SOL    HW213975   8.942   4.526  10.100  0.2242 -1.4799  1.8799
 3482SOL     OW13976   3.426   8.863   9.000  0.2050 -0.0506  0.0381
 3482SOL    HW113977   3.456   8.940   8.952  0.2975  1.3531  2.2411
 3482SOL    HW213978   3.352   8.830   8.948  0.4173  1.2763 -1.1676
 3483SOL     OW13979   1.964   5.229   7.446 -0.1403  0.2498  0.2024
 3483SOL    HW113980   1.946   5.213   7.353 -2.3506  2.6330  0.0956
 3483SOL    HW213981   2.059   5.239   7.451  0.1286 -0.9952 -1.5707
 3484SOL     OW13982   7.536   2.172   6.588 -0.1289  0.7267 -0.4457
 3484SOL    HW113983   7.612   2.220   6.554  2.1593 -1.2414  1.4844
 3484SOL    HW213984   7.538   2.088   6.542  0.2042 -0.1472  1.0762
 3485SOL     OW13985   2.666   5.185  10.523 -0.3020  0.1638  0.3377
 3485SOL    HW113986   2.735   5.126  10.553 -0.2370  0.5743  1.0136
 3485SOL    HW213987   2.627   5.220  10.603 -1.4112 -0.1854 -0.0316
 3486SOL     OW13988   6.315   4.585   4.141 -0.3219  0.1448  0.1299
 3486SOL    HW113989   6.236   4.535   4.163 -0.1411 -0.7236 -1.0474
 3486SOL    HW213990   6.385   4.520   4.140  0.3658  0.8515  0.8494
 3487SOL     OW13991  10.227   6.087   7.058 -0.2243  0.4404 -0.0387
 3487SOL    HW113992  10.209   5.994   7.073  2.1002 -0.0370  0.1705
 3487SOL    HW213993  10.142   6.129   7.069 -1.5112 -1.7234 -0.8868
 3488SOL     OW13994   4.538   0.756   1.824 -0.1537 -0.1108 -0.1321
 3488SOL    HW113995   4.577   0.840   1.801  1.2538 -0.7911 -0.3861
 3488SOL    HW213996   4.540   0.706   1.742 -1.0991 -0.3425 -0.0189
 3489SOL     OW13997   4.641   6.570   4.736 -0.4113 -0.4805  0.1723
 3489SOL    HW113998   4.700   6.516   4.684  0.2880  0.3509  0.0905
 3489SOL    HW213999   4.691   6.650   4.755 -0.6785 -0.7095  2.0351
 3490SOL     OW14000   9.802   7.118   5.497  0.0499  0.1620  0.2730
 3490SOL    HW114001   9.865   7.100   5.568  0.9752 -1.1907 -0.8308
 3490SOL    HW214002   9.781   7.032   5.462 -0.8391  0.7709 -0.7347
 3491SOL     OW14003   8.432   4.269   9.850 -0.3559  0.0557  0.6846
 3491SOL    HW114004   8.445   4.227   9.766 -0.0155 -0.6622  1.0887
 3491SOL    HW214005   8.365   4.217   9.894  0.6102 -0.5545  1.4931
 3492SOL     OW14006   3.087   9.351   7.618  0.6494  0.0177 -0.1309
 3492SOL    HW114007   3.176   9.387   7.620  0.7126 -0.1611  0.4180
 3492SOL    HW214008   3.037   9.406   7.678  0.5288 -0.2442  0.0108
 3493SOL     OW14009   5.039   6.923  11.046 -0.3702 -0.2401  0.3696
 3493SOL    HW114010   5.018   7.016  11.033  3.1418  0.4806 -1.0914
 3493SOL    HW214011   5.059   6.890  10.959 -3.9360 -3.2231  0.4222
 3494SOL     OW14012   8.916   2.833   6.389 -0.4357  0.2876 -0.0353
 3494SOL    HW114013   8.838   2.884   6.409 -1.4834 -0.9651 -0.7275
 3494SOL    HW214014   8.888   2.742   6.400  0.9107 -0.1879 -0.3603
 3495SOL     OW14015   5.225   0.038   4.954 -0.4535  0.1416 -0.7955
 3495SOL    HW114016   5.205   0.022   4.862 -1.1102  1.1979 -0.8463
 3495SOL    HW214017   5.250   0.130   4.958  0.6940 -0.1760 -0.0947
 3496SOL     OW14018  10.492   9.256   4.916  0.0308 -0.4913  0.1031
 3496SOL    HW114019  10.549   9.183   4.937 -1.0573 -1.3412  0.1954
 3496SOL    HW214020  10.508   9.273   4.823 -1.1765 -2.2345 -0.4800
 3497SOL     OW14021   3.486   1.329   1.469  0.3956  0.3791 -0.1837
 3497SOL    HW114022   3.402   1.327   1.516  1.0097  0.5414  0.9557
 3497SOL    HW214023   3.551   1.342   1.537  1.3313  0.6086 -1.0975
 3498SOL     OW14024   4.051   3.030   7.465  0.2297 -0.3025 -0.4907
 3498SOL    HW114025   3.957   3.019   7.453  0.2009 -0.0193 -0.5210
 3498SOL    HW214026   4.061   3.055   7.557  0.1529  1.0638 -0.8293
 3499SOL     OW14027   7.501   5.043   5.719 -0.3343  0.5563  0.3180
 3499SOL    HW114028   7.504   4.948   5.707 -2.0112  0.3444  1.2167
 3499SOL    HW214029   7.553   5.058   5.798 -0.7263  0.2704  0.6375
 3500SOL     OW14030  11.005   5.784   8.938 -0.2890  0.6620 -0.3289
 3500SOL    HW114031  11.023   5.779   8.844  2.2373  0.7841  0.0904
 3500SOL    HW214032  11.065   5.721   8.977 -0.7176  1.2175  1.2854
 3501SOL     OW14033   6.018   5.777   5.377  0.1374 -0.0872 -0.1373
 3501SOL    HW114034   6.049   5.754   5.290 -0.5315  0.8467 -0.6469
 3501SOL    HW214035   5.923   5.761   5.374 -0.0955  1.1481 -0.0101
 3502SOL     OW14036   9.384   2.082   3.163 -0.2585  0.5120  0.6941
 3502SOL    HW114037   9.297   2.122   3.171 -1.4849 -2.1169  1.5697
 3502SOL    HW214038   9.390   2.058   3.070 -1.0830 -0.5365  0.8996
 3503SOL     OW14039   3.720   8.645   1.616  0.1752 -0.0373  0.1235
 3503SOL    HW114040   3.789   8.680   1.560 -0.3853  0.5554 -0.2096
 3503SOL    HW214041   3.648   8.707   1.606 -0.3698 -0.5976  0.5407
 3504SOL     OW14042   0.021   9.912  10.727  1.0276 -0.0984 -0.4647
 3504SOL    HW114043  -0.074   9.926  10.728  1.1614  1.0400 -1.7010
 3504SOL    HW214044   0.031   9.820  10.704  0.2277 -0.3784  0.2288
 3505SOL     OW14045   2.623   0.611   1.862 -1.0841 -0.6491  0.2402
 3505SOL    HW114046   2.706   0.591   1.819 -0.1106  0.2971  1.5878
 3505SOL    HW214047   2.634   0.574   1.950 -1.1561  1.4578  1.1843
 3506SOL     OW14048   5.529   9.954   1.948 -0.1610 -0.1205 -0.2316
 3506SOL    HW114049   5.560   9.954   1.858  2.4210 -0.2411  0.5789
 3506SOL    HW214050   5.571  10.030   1.988  1.3461 -1.7866  1.6152
 3507SOL     OW14051   8.747   3.343   5.370 -0.0411 -0.3552  0.1868
 3507SOL    HW114052   8.798   3.325   5.291 -0.7056  0.2004 -0.3750
 3507SOL    HW214053   8.812   3.372   5.434  0.5717 -1.2822  0.0107
 3508SOL     OW14054   7.649   8.796   4.167  0.2585  0.3197  0.4218
 3508SOL    HW114055   7.694   8.787   4.083 -0.5743  1.0809 -0.1263
 3508SOL    HW214056   7.558   8.814   4.144  0.0467  0.7005  1.4873
 3509SOL     OW14057   0.294   2.120   5.456 -0.1123 -0.5026 -0.0563
 3509SOL    HW114058   0.226   2.056   5.475  0.6733 -2.2302 -2.4794
 3509SOL    HW214059   0.362   2.104   5.521 -1.2208  0.0760  1.3011
 3510SOL     OW14060   3.282   7.411   9.805  0.5486  0.3070 -0.3337
 3510SOL    HW114061   3.324   7.388   9.888 -0.8534 -2.2661 -0.2175
 3510SOL    HW214062   3.199   7.451   9.831  0.9404  1.2680 -0.5309
 3511SOL     OW14063  11.117   8.754   2.832  0.4158 -0.0958 -0.2500
 3511SOL    HW114064  11.178   8.805   2.884 -0.0633  0.7412 -0.4819
 3511SOL    HW214065  11.167   8.726   2.755  0.5774  0.3483 -0.3054
 3512SOL     OW14066  10.947   4.712   5.215  0.2444  0.6715 -0.6922
 3512SOL    HW114067  11.039   4.687   5.214  0.3296  0.9844 -0.9174
 3512SOL    HW214068  10.902   4.639   5.171  0.2521  0.0434  0.3080
 3513SOL     OW14069   3.388   9.050   5.957  0.0524  0.0876  0.0542
 3513SOL    HW114070   3.314   9.072   6.014  1.2161  1.3948  1.1034
 3513SOL    HW214071   3.421   8.967   5.993 -0.8473 -0.4865 -0.3963
 3514SOL     OW14072   6.836   1.265   0.805 -0.2583 -0.3176  0.5639
 3514SOL    HW114073   6.932   1.268   0.801 -0.2430  0.7241  1.4403
 3514SOL    HW214074   6.816   1.266   0.899 -1.1677  0.8862  0.3720
 3515SOL     OW14075   3.927   2.416   5.273 -0.2068  0.1089 -0.3196
 3515SOL    HW114076   3.919   2.330   5.313 -2.4382  0.0530 -0.7625
 3515SOL    HW214077   3.948   2.475   5.346  2.2962 -0.8634 -0.1538
 3516SOL     OW14078   2.992   4.440   0.679 -0.1420 -0.1299 -0.5749
 3516SOL    HW114079   3.021   4.508   0.618  1.4571 -0.6842 -0.4786
 3516SOL    HW214080   3.065   4.378   0.683 -1.4550 -1.7753 -0.5040
 3517SOL     OW14081   8.385   3.284   3.894 -0.1668  0.1288 -0.1821
 3517SOL    HW114082   8.467   3.274   3.847  0.0385 -2.2155  0.5607
 3517SOL    HW214083   8.320   3.300   3.826  0.6580  0.4652 -0.9121
 3518SOL     OW14084   1.926   2.908   3.633  0.5664  0.3566 -0.1120
 3518SOL    HW114085   2.014   2.941   3.618  0.3279  0.7944 -0.5605
 3518SOL    HW214086   1.890   2.965   3.701  1.9143 -2.0834  2.9162
 3519SOL     OW14087   6.280   5.113   4.632  0.0683 -0.4388 -0.0908
 3519SOL    HW114088   6.222   5.154   4.567  0.1113  0.2091  0.2741
 3519SOL    HW214089   6.328   5.047   4.582 -1.8440 -1.8667 -0.1567
 3520SOL     OW14090   2.682   1.676   0.419  0.1395  0.0355  0.0039
 3520SOL    HW114091   2.690   1.625   0.500  0.4151  1.1921  0.7399
 3520SOL    HW214092   2.598   1.649   0.382 -0.1425 -0.3071  0.8526
 3521SOL     OW14093   0.653   3.054   9.943  0.0362  0.6599  0.0033
 3521SOL    HW114094   0.642   3.024  10.034  1.5440 -0.5466 -0.1747
 3521SOL    HW214095   0.672   2.974   9.894 -0.6562  1.3189 -1.3751
 3522SOL     OW14096   8.340   4.201   6.546 -0.3371 -0.3633 -0.3513
 3522SOL    HW114097   8.290   4.280   6.531  1.7516  0.8372 -1.4542
 3522SOL    HW214098   8.363   4.170   6.459 -0.1339 -1.5409  0.0967
 3523SOL     OW14099   0.360   2.481   6.029 -0.0823 -0.1940 -0.2271
 3523SOL    HW114100   0.313   2.552   5.985  0.9198 -0.5019 -1.8938
 3523SOL    HW214101   0.432   2.525   6.073 -0.7053  0.0456  0.5697
 3524SOL     OW14102   0.129   8.049   9.624  0.1213  0.4260  0.1996
 3524SOL    HW114103   0.066   8.100   9.572  0.0683  0.0841 -0.0781
 3524SOL    HW214104   0.130   8.092   9.709  0.4353  1.1839 -0.1767
 3525SOL     OW14105   8.817   0.853   4.811 -0.0874  0.2616 -0.0049
 3525SOL    HW114106   8.834   0.947   4.813 -0.9221  0.4162  1.4989
 3525SOL    HW214107   8.870   0.817   4.883 -0.0782 -0.3598 -0.3134
 3526SOL     OW14108   4.249  10.342   7.903 -0.1718  0.2019 -0.1277
 3526SOL    HW114109   4.340  10.347   7.932 -0.0364 -0.5742 -0.3964
 3526SOL    HW214110   4.251  10.283   7.827 -0.7203  1.1665 -0.9027
 3527SOL     OW14111  10.730   2.552   2.542  0.0757 -0.5671 -0.1516
 3527SOL    HW114112  10.781   2.539   2.622 -0.3327 -0.2625  0.1598
 3527SOL    HW214113  10.663   2.616   2.566  0.7180  0.4799 -1.0588
 3528SOL     OW14114   7.351   8.363   8.508  0.6424  0.1678 -0.2619
 3528SOL    HW114115   7.359   8.417   8.587 -1.0799  1.0291 -0.6377
 3528SOL    HW214116   7.420   8.395   8.450  2.3117 -0.8572  1.0518
 3529SOL     OW14117   7.280   4.480   9.873 -0.1836  0.5562  0.2523
 3529SOL    HW114118   7.198   4.450   9.834  0.1307  0.3872 -0.3075
 3529SOL    HW214119   7.334   4.401   9.878  0.1680  0.7748  0.0203
 3530SOL     OW14120   9.870   2.383   3.690 -0.2988 -0.0181 -0.5226
 3530SOL    HW114121   9.936   2.322   3.721  0.8190  0.4795 -1.8006
 3530SOL    HW214122   9.822   2.409   3.768  0.5034 -0.9852  0.3212
 3531SOL     OW14123   5.900   8.799   1.439 -0.0985 -0.3213 -0.1648
 3531SOL    HW114124   5.910   8.731   1.506  0.9100 -0.5215 -0.4882
 3531SOL    HW214125   5.965   8.776   1.372  0.9285  1.4432  0.1358
 3532SOL     OW14126   2.089   1.699   2.590 -0.5235  0.1961  0.2755
 3532SOL    HW114127   2.128   1.612   2.598 -0.4757  0.1387 -0.5371
 3532SOL    HW214128   2.075   1.727   2.681  2.5012  0.7061  0.7047
 3533SOL     OW14129   5.168   9.055   0.595 -0.4784 -0.0241 -0.5418
 3533SOL    HW114130   5.243   9.108   0.622 -1.6942  0.6148  1.9003
 3533SOL    HW214131   5.201   8.999   0.525  2.5788 -0.5539  1.1610
 3534SOL     OW14132   3.397  10.040   8.771  0.3283  0.0106  0.2625
 3534SOL    HW114133   3.470  10.029   8.710  0.8853 -0.5918  1.0218
 3534SOL    HW214134   3.319  10.041   8.715  0.7025 -2.0802 -0.3710
 3535SOL     OW14135   1.212   6.994   0.324 -0.1715 -0.1403  0.2148
 3535SOL    HW114136   1.174   6.907   0.309  0.2868 -0.2698 -0.2419
 3535SOL    HW214137   1.293   6.976   0.372 -1.0869  0.1941  1.9609
 3536SOL     OW14138   0.241   8.569   0.824  0.6251 -0.3834  0.7839
 3536SOL    HW114139   0.335   8.579   0.812  0.6375  0.8697  1.7309
 3536SOL    HW214140   0.211   8.523   0.746  1.7359  0.9261 -0.4642
 3537SOL     OW14141   8.167   9.150   6.530 -0.2930 -0.0183 -0.0875
 3537SOL    HW114142   8.217   9.197   6.463 -1.0096 -1.4678 -1.7395
 3537SOL    HW214143   8.197   9.059   6.523 -1.6214 -0.5178  0.3649
 3538SOL     OW14144   7.077   0.207   1.446  0.3330 -0.1061  0.3393
 3538SOL    HW114145   7.129   0.183   1.522 -0.2963  0.7648  1.0518
 3538SOL    HW214146   7.141   0.219   1.376  0.9680 -0.2846  0.8827
 3539SOL     OW14147   6.913   1.838   8.314 -0.3990 -1.1778 -0.6625
 3539SOL    HW114148   6.882   1.755   8.351 -0.0576 -0.7008  0.7818
 3539SOL    HW214149   6.846   1.901   8.338 -0.8757 -1.0928 -2.1427
 3540SOL     OW14150   2.841   1.093   1.770 -0.1020  0.1382  0.6857
 3540SOL    HW114151   2.786   1.032   1.721  0.1579 -0.9235  1.6713
 3540SOL    HW214152   2.779   1.143   1.823 -0.3112  0.7228 -0.0897
 3541SOL     OW14153   8.098   7.350   6.994  0.0194 -0.5160 -0.4980
 3541SOL    HW114154   8.168   7.415   6.992  0.0984 -0.5472  0.4902
 3541SOL    HW214155   8.122   7.292   7.067 -1.2899 -0.2044  0.2158
 3542SOL     OW14156   6.565  10.867   8.449 -0.3403  0.1231 -0.0754
 3542SOL    HW114157   6.600  10.832   8.531  0.4307  0.3630 -0.2948
 3542SOL    HW214158   6.511  10.797   8.414  3.2634 -2.0606 -1.8649
 3543SOL     OW14159   7.020   1.447   8.745  0.0212 -0.0699  0.7535
 3543SOL    HW114160   6.989   1.538   8.746  1.3739  0.4148  0.4930
 3543SOL    HW214161   6.946   1.397   8.710 -0.9734  0.8327  1.5115
 3544SOL     OW14162   3.834   3.019   4.236 -0.7160 -0.1797 -0.2689
 3544SOL    HW114163   3.819   3.050   4.147  0.3887  1.6977  0.1416
 3544SOL    HW214164   3.926   3.040   4.253 -0.5072 -1.8064  0.8377
 3545SOL     OW14165   3.621   7.349   1.341  0.4080  0.0232  0.0844
 3545SOL    HW114166   3.618   7.262   1.302 -0.2037 -0.1424  0.4795
 3545SOL    HW214167   3.555   7.346   1.411  2.3633 -0.1167  2.0491
 3546SOL     OW14168   5.263   4.992   4.313  0.3120  0.1592  0.3930
 3546SOL    HW114169   5.277   5.085   4.296  0.3494  0.0573 -0.1565
 3546SOL    HW214170   5.177   4.974   4.274  0.9576 -0.3654 -0.8594
 3547SOL     OW14171   7.648   9.116   2.580 -0.5140 -0.6480  0.0171
 3547SOL    HW114172   7.639   9.181   2.510 -1.4548 -1.2136 -0.4098
 3547SOL    HW214173   7.644   9.166   2.661  0.0201 -0.0436 -0.3240
 3548SOL     OW14174   2.589  10.020   0.578  0.0797  0.8040 -0.0432
 3548SOL    HW114175   2.682  10.037   0.568  0.2190  0.6398  0.8913
 3548SOL    HW214176   2.569  10.046   0.668 -0.7896  0.8916 -0.2460
 3549SOL     OW14177   2.838   0.953   6.569 -0.2329 -0.3488  0.4413
 3549SOL    HW114178   2.805   1.043   6.562  1.0577  0.2429  1.3986
 3549SOL    HW214179   2.771   0.899   6.528 -0.1753  1.2256 -1.9395
 3550SOL     OW14180   9.790   2.744   0.711 -0.3388 -0.4451  0.8673
 3550SOL    HW114181   9.803   2.653   0.684  0.4444 -0.0971  0.0212
 3550SOL    HW214182   9.716   2.775   0.658 -0.0005 -0.3128  0.4711
 3551SOL     OW14183   1.931   2.222   6.149 -0.6065 -0.0129  0.0647
 3551SOL    HW114184   1.927   2.132   6.116 -0.2179 -0.8836  2.2701
 3551SOL    HW214185   1.911   2.276   6.072 -0.2033 -1.9301 -1.4734
 3552SOL     OW14186   2.095   3.422   5.424 -0.0866  0.1344  0.3564
 3552SOL    HW114187   2.139   3.386   5.346  1.1496  1.6362  0.3124
 3552SOL    HW214188   2.012   3.456   5.390  0.1271  0.1360 -0.1839
 3553SOL     OW14189   5.197   6.604   0.851  0.6379 -0.1095 -0.0059
 3553SOL    HW114190   5.200   6.627   0.943  1.5998 -0.6654  0.1139
 3553SOL    HW214191   5.211   6.686   0.804  0.8117  0.0654  0.3564
 3554SOL     OW14192   9.754   5.252   1.857 -0.9140  0.3446 -0.8558
 3554SOL    HW114193   9.836   5.302   1.847 -1.1687  1.7198  2.5099
 3554SOL    HW214194   9.685   5.318   1.848 -1.4513 -0.0680  0.1406
 3555SOL     OW14195   8.606   9.024   7.206 -0.2686 -0.7821  0.5285
 3555SOL    HW114196   8.563   8.940   7.188 -0.8718 -0.2194 -0.7790
 3555SOL    HW214197   8.548   9.089   7.168  1.0847  0.1046 -0.1037
 3556SOL     OW14198   3.611   5.111  10.435  0.1758 -0.0924 -0.0150
 3556SOL    HW114199   3.525   5.144  10.462  0.3693  0.9448 -0.6279
 3556SOL    HW214200   3.673   5.177  10.466  0.6150 -0.0858 -0.8974
 3557SOL     OW14201   6.570   5.177   7.186  0.0762  0.0367  0.5029
 3557SOL    HW114202   6.594   5.099   7.237  1.3058  0.2497  0.2847
 3557SOL    HW214203   6.564   5.247   7.250  0.1512 -0.0016  0.5528
 3558SOL     OW14204   0.498   8.720   0.137  0.4818  0.0123 -0.3088
 3558SOL    HW114205   0.423   8.711   0.078 -0.2314  2.6082  0.0926
 3558SOL    HW214206   0.518   8.813   0.137  1.7964 -0.1913  1.9542
 3559SOL     OW14207   9.385   0.088   4.099  0.4075 -0.0709 -0.1935
 3559SOL    HW114208   9.356   0.173   4.067  2.1251  1.0020  0.9244
 3559SOL    HW214209   9.308   0.032   4.091 -1.2422  1.9544  0.4179
 3560SOL     OW14210   0.208   3.469   2.247  0.4556 -0.3739  0.0991
 3560SOL    HW114211   0.268   3.451   2.175  0.1671 -1.2691  0.0644
 3560SOL    HW214212   0.157   3.544   2.217 -1.9492 -2.6685 -2.1543
 3561SOL     OW14213   8.826  10.976   4.446 -0.2509  0.3201 -0.1949
 3561SOL    HW114214   8.793  10.905   4.501  1.1680 -0.4582 -0.2743
 3561SOL    HW214215   8.823  10.940   4.357 -1.9024  1.3204 -0.5684
 3562SOL     OW14216   3.873   0.690   3.042 -0.7515 -0.5653 -0.0350
 3562SOL    HW114217   3.860   0.750   3.116  2.2784 -0.4610  0.5397
 3562SOL    HW214218   3.883   0.604   3.083  0.9951 -0.4990 -0.2666
 3563SOL     OW14219  10.214   3.984   0.075  0.8336  0.1785 -0.9924
 3563SOL    HW114220  10.195   4.070   0.037  1.0817  0.4459 -0.5176
 3563SOL    HW214221  10.159   3.924   0.025 -1.8245  1.0031  0.7437
 3564SOL     OW14222   8.060   6.180   6.598 -0.5512  0.0902 -1.1033
 3564SOL    HW114223   8.075   6.274   6.602  1.0375 -0.1740  0.3025
 3564SOL    HW214224   8.126   6.148   6.537 -1.7380 -0.0286 -2.3626
 3565SOL     OW14225   1.276   0.084   9.571 -0.1647 -0.1222  0.1818
 3565SOL    HW114226   1.292   0.036   9.653 -0.9129 -1.7912 -0.6107
 3565SOL    HW214227   1.193   0.129   9.585  0.4955  0.9205  0.8969
 3566SOL     OW14228   2.536   9.006   4.118 -0.0399 -0.2521  0.1849
 3566SOL    HW114229   2.611   9.020   4.177 -1.0866 -0.6508  1.6600
 3566SOL    HW214230   2.503   9.094   4.100 -0.3074 -0.1765  1.0126
 3567SOL     OW14231   4.034   4.512   9.123  0.4552 -0.2994  0.1441
 3567SOL    HW114232   3.938   4.515   9.119  0.3765  1.2720  1.8825
 3567SOL    HW214233   4.056   4.556   9.205  2.7738  1.2801 -1.2180
 3568SOL     OW14234   0.827   4.252   1.234  0.2090  0.9820 -0.0594
 3568SOL    HW114235   0.828   4.205   1.318  1.7403  1.6517  0.3327
 3568SOL    HW214236   0.823   4.183   1.168 -0.3261  0.4207  0.5445
 3569SOL     OW14237   6.989   7.661   6.041  0.0274  0.2785 -0.2865
 3569SOL    HW114238   6.951   7.591   5.987 -0.1432  0.4500 -0.3920
 3569SOL    HW214239   7.078   7.631   6.060  0.0377  0.1444 -0.5350
 3570SOL     OW14240   7.629   8.308   8.955 -0.5820  0.3775 -0.5961
 3570SOL    HW114241   7.542   8.268   8.958 -0.5584  0.1832 -1.7577
 3570SOL    HW214242   7.685   8.238   8.921 -0.2154  0.8783 -1.0385
 3571SOL     OW14243   4.052   0.989   1.714 -0.4217 -0.2691  0.1426
 3571SOL    HW114244   4.046   1.020   1.624 -0.5844  1.5166  0.7240
 3571SOL    HW214245   3.962   0.997   1.748 -0.3931 -1.0785  0.4305
 3572SOL     OW14246   5.434   6.297   9.450 -0.0168  0.0907  0.4157
 3572SOL    HW114247   5.354   6.329   9.491 -0.1148 -0.8199  0.9483
 3572SOL    HW214248   5.465   6.228   9.507 -0.4668 -1.6136 -1.2904
 3573SOL     OW14249   4.598   1.851   2.748 -0.0411  0.3514 -0.6395
 3573SOL    HW114250   4.548   1.846   2.830  0.5035 -0.9460 -0.3603
 3573SOL    HW214251   4.689   1.854   2.775  0.1574 -0.3011 -1.1782
 3574SOL     OW14252   2.520   8.997  10.020  0.2161  0.1479  0.6289
 3574SOL    HW114253   2.498   9.041   9.938 -1.8714 -0.5514  0.7389
 3574SOL    HW214254   2.534   8.906   9.995 -0.7135 -0.1230  1.0641
 3575SOL     OW14255  10.335   9.277   5.988  0.2683  0.0731  0.8117
 3575SOL    HW114256  10.427   9.291   6.010  0.3134 -0.4908  1.0103
 3575SOL    HW214257  10.337   9.237   5.901  0.2283 -0.1968  0.9333
 3576SOL     OW14258   1.883  10.272   9.469  0.0997  0.4959  0.0717
 3576SOL    HW114259   1.845  10.359   9.455 -1.1130 -0.3317 -2.0344
 3576SOL    HW214260   1.972  10.291   9.501 -1.0503  2.4689  2.5103
 3577SOL     OW14261   9.648   3.951   1.330 -0.4494 -0.6642 -0.0599
 3577SOL    HW114262   9.618   4.036   1.296 -0.3139 -0.6460 -0.1351
 3577SOL    HW214263   9.653   3.964   1.425 -0.8982 -0.7370 -0.0220
 3578SOL     OW14264   5.791   7.585   3.028 -0.0757  0.1183  0.4710
 3578SOL    HW114265   5.876   7.598   3.069 -0.1337  0.1887  0.5707
 3578SOL    HW214266   5.731   7.639   3.080 -0.3507 -0.6766  1.0067
 3579SOL     OW14267   6.140   9.217   1.414  0.4379 -0.1922 -0.4898
 3579SOL    HW114268   6.206   9.174   1.468  0.5967  0.6584  0.0184
 3579SOL    HW214269   6.175   9.304   1.398 -0.5010  0.2325 -0.3218
 3580SOL     OW14270   4.681   9.219  10.888 -0.5600  0.0412  0.1509
 3580SOL    HW114271   4.742   9.293  10.884 -1.5173  0.8914  0.8917
 3580SOL    HW214272   4.733   9.147  10.925  0.1369  0.5953  0.2648
 3581SOL     OW14273   7.052   0.722   2.714 -0.3116  0.0261  0.0174
 3581SOL    HW114274   7.020   0.801   2.671  0.4262 -0.5265 -1.6372
 3581SOL    HW214275   6.976   0.688   2.761 -0.8482  1.2691  0.0914
 3582SOL     OW14276   1.014  10.386  10.578  0.2314  0.3124 -0.9366
 3582SOL    HW114277   0.953  10.435  10.633 -0.1291  2.3643 -2.9801
 3582SOL    HW214278   0.959  10.322  10.533  0.0779  0.3067 -0.7417
 3583SOL     OW14279   9.271  10.251   9.875 -0.5981  1.1148  0.3510
 3583SOL    HW114280   9.349  10.303   9.859 -0.2916  0.8065  0.8031
 3583SOL    HW214281   9.304  10.168   9.909 -1.1872  2.1299  3.7943
 3584SOL     OW14282   9.248   7.762   2.077 -0.1832 -0.4636  0.6210
 3584SOL    HW114283   9.275   7.763   1.985  0.0982 -0.4765  0.7049
 3584SOL    HW214284   9.225   7.853   2.096  0.3347 -0.3482  0.7088
 3585SOL     OW14285   7.464   7.457   0.155 -0.1892 -0.7744 -0.2063
 3585SOL    HW114286   7.424   7.541   0.132  1.5204  0.1878  0.2270
 3585SOL    HW214287   7.532   7.443   0.089  1.3609 -0.4470  1.2489
 3586SOL     OW14288   2.917   8.898   6.391  0.0691 -0.1209 -0.3624
 3586SOL    HW114289   2.953   8.886   6.303  1.9968  0.2142  0.3513
 3586SOL    HW214290   2.853   8.969   6.380  2.1681  1.8061 -1.0911
 3587SOL     OW14291   8.094   6.817   5.220  0.3224 -0.1451  0.0956
 3587SOL    HW114292   8.175   6.857   5.252 -0.4806  2.0914 -0.4449
 3587SOL    HW214293   8.091   6.840   5.127 -0.0400 -1.8294 -0.3374
 3588SOL     OW14294  10.625   1.312   8.009 -0.1212 -0.5243 -0.1623
 3588SOL    HW114295  10.659   1.374   7.945 -0.7087 -0.1090 -0.0771
 3588SOL    HW214296  10.536   1.341   8.027 -0.1563 -0.9591  0.4311
 3589SOL     OW14297   7.737   5.123   3.735  0.1335  0.0930  0.0140
 3589SOL    HW114298   7.787   5.093   3.659 -0.9457  0.6759 -0.9561
 3589SOL    HW214299   7.691   5.201   3.704  0.7898  1.2149  1.6916
 3590SOL     OW14300  10.583  10.751   8.487 -0.6129  0.4218  0.5690
 3590SOL    HW114301  10.560  10.668   8.528  0.0609  0.0846  0.2859
 3590SOL    HW214302  10.579  10.733   8.393 -0.7368  0.7843  0.5066
 3591SOL     OW14303   2.130   2.742   8.716 -0.0913 -0.4889 -0.4452
 3591SOL    HW114304   2.195   2.715   8.652  0.0076  1.4887 -1.2462
 3591SOL    HW214305   2.143   2.837   8.726 -1.9358 -0.2716  0.3894
 3592SOL     OW14306  10.832   4.670   5.511  0.3134  0.5651 -0.1934
 3592SOL    HW114307  10.863   4.662   5.421  4.3680 -1.1167  1.0839
 3592SOL    HW214308  10.849   4.761   5.534 -1.6768  1.2721 -1.3245
 3593SOL     OW14309   2.924   9.265  10.065 -0.6022 -0.4550 -0.0266
 3593SOL    HW114310   2.893   9.318  10.139  2.4127 -0.0531  1.0846
 3593SOL    HW214311   2.917   9.175  10.096  0.1419 -0.3185  0.5551
 3594SOL     OW14312   9.373   5.605  10.534 -0.3120  0.4567  0.2438
 3594SOL    HW114313   9.326   5.535  10.488  0.6851  1.1238 -1.9265
 3594SOL    HW214314   9.313   5.680  10.530 -0.3827  0.4078  0.3770
 3595SOL     OW14315   8.705   6.615   2.423 -0.3240  0.6201 -0.2220
 3595SOL    HW114316   8.777   6.656   2.376 -0.9140  0.8979 -0.8956
 3595SOL    HW214317   8.727   6.522   2.425 -0.6401  0.4893 -1.7048
 3596SOL     OW14318   4.184   1.529   0.443 -0.1735 -0.1391 -0.6703
 3596SOL    HW114319   4.208   1.437   0.433 -0.6589 -0.3123 -0.2983
 3596SOL    HW214320   4.257   1.568   0.491 -0.1134 -0.4003 -0.5485
 3597SOL     OW14321   9.048   8.223   2.373 -0.6347 -0.0243 -0.3557
 3597SOL    HW114322   9.019   8.132   2.383 -0.5193  0.0631  0.9942
 3597SOL    HW214323   9.143   8.219   2.386 -0.6743  0.3341  0.0573
 3598SOL     OW14324  10.521   3.491   3.391 -0.0963  0.1016  0.1259
 3598SOL    HW114325  10.603   3.538   3.403  1.3651 -2.1756 -0.2383
 3598SOL    HW214326  10.471   3.545   3.330  1.7931  0.8500 -0.8551
 3599SOL     OW14327   7.056   4.032  10.817  0.0597 -0.8234 -0.4955
 3599SOL    HW114328   7.111   4.110  10.829 -0.1072 -0.8654  0.6798
 3599SOL    HW214329   7.070   3.981  10.897 -0.4415 -1.6204 -0.9077
 3600SOL     OW14330   0.663   1.831   3.113  0.2749  0.1712 -0.3373
 3600SOL    HW114331   0.704   1.904   3.067  0.0096  1.0074  0.7018
 3600SOL    HW214332   0.614   1.873   3.184 -0.3737 -0.9828 -0.0868
 3601SOL     OW14333   7.948   3.210   4.870 -0.1797 -0.8727  0.3371
 3601SOL    HW114334   7.899   3.128   4.872 -2.4468  0.4131  2.4640
 3601SOL    HW214335   7.919   3.258   4.948  0.5143  2.2493 -1.1566
 3602SOL     OW14336   1.374   3.805   7.754 -0.2650  0.0882  0.0262
 3602SOL    HW114337   1.363   3.898   7.775  1.0575  0.4876 -0.9856
 3602SOL    HW214338   1.468   3.793   7.745 -0.3627 -1.5053  0.7337
 3603SOL     OW14339   1.216   2.856   5.072 -0.2500 -0.7942 -0.3183
 3603SOL    HW114340   1.249   2.811   4.995  1.7294 -0.0437  0.0185
 3603SOL    HW214341   1.238   2.799   5.146  0.5174 -0.1960 -0.0691
 3604SOL     OW14342   0.669   0.623   9.889 -0.3413  0.8916  0.1880
 3604SOL    HW114343   0.678   0.654   9.979  4.6361  1.7839 -0.3068
 3604SOL    HW214344   0.669   0.703   9.836 -1.0221  0.3295 -0.6789
 3605SOL     OW14345   7.181   7.135   0.676  0.1821  0.1643 -0.4836
 3605SOL    HW114346   7.125   7.194   0.626 -1.2457 -0.1209  0.7027
 3605SOL    HW214347   7.269   7.153   0.644 -0.2027  2.8574 -0.2556
 3606SOL     OW14348   9.370   5.209   0.317  0.2159  0.2488  0.3832
 3606SOL    HW114349   9.416   5.237   0.239 -0.5760 -1.2964 -0.6935
 3606SOL    HW214350   9.437   5.166   0.370  0.5611  0.4211  0.0861
 3607SOL     OW14351   8.748   6.055   4.795 -0.4900  0.4289  0.8077
 3607SOL    HW114352   8.779   6.014   4.876  0.1050  0.6845  0.7180
 3607SOL    HW214353   8.803   6.133   4.785  0.1647 -0.1502 -0.3736
 3608SOL     OW14354  10.371   5.479   8.028 -0.0153 -0.0425  0.0328
 3608SOL    HW114355  10.448   5.529   8.002  0.0765  0.3449  1.0314
 3608SOL    HW214356  10.301   5.544   8.035  0.2392  0.0863  1.9077
 3609SOL     OW14357   4.624   7.628   9.035 -0.5063  0.1725  0.1439
 3609SOL    HW114358   4.541   7.662   9.070  0.7273  0.1485  3.4788
 3609SOL    HW214359   4.611   7.533   9.031 -1.0721  0.2762 -0.7290
 3610SOL     OW14360   1.428   3.611   1.409 -0.8576  0.1948  0.3686
 3610SOL    HW114361   1.430   3.544   1.478  0.2857 -0.4349 -0.2490
 3610SOL    HW214362   1.379   3.570   1.337  0.5027 -0.3031 -0.3048
 3611SOL     OW14363   1.383   2.508   6.824  0.0903  0.0950  0.1663
 3611SOL    HW114364   1.436   2.536   6.750 -1.5942  2.5144 -0.2085
 3611SOL    HW214365   1.355   2.419   6.801  0.7597  0.2601 -1.4158
 3612SOL     OW14366   3.470   8.381   1.989 -0.3836 -0.3522 -0.3084
 3612SOL    HW114367   3.511   8.413   1.909  2.1084 -0.7637  0.7035
 3612SOL    HW214368   3.454   8.460   2.041 -2.7072  0.0032 -1.3906
 3613SOL     OW14369   7.483   4.190   7.896  0.1235 -0.1640  0.1952
 3613SOL    HW114370   7.524   4.126   7.837 -0.6425  0.1159 -0.6601
 3613SOL    HW214371   7.389   4.179   7.883 -0.1087 -0.6522  1.9948
 3614SOL     OW14372   6.056   6.789   8.732  0.3378 -0.1192  0.4177
 3614SOL    HW114373   5.972   6.829   8.709  0.9555  1.4884  0.8154
 3614SOL    HW214374   6.087   6.749   8.651  0.3008  1.3917 -0.3698
 3615SOL     OW14375   9.962  10.713   5.359 -0.2994 -0.2476 -0.0179
 3615SOL    HW114376   9.963  10.635   5.415 -2.1316  0.5648  1.2465
 3615SOL    HW214377   9.958  10.786   5.421  2.7779  1.0246 -1.0993
 3616SOL     OW14378   1.450   2.326   2.598 -0.4068 -0.2336  0.0850
 3616SOL    HW114379   1.472   2.401   2.542  0.2831  0.4323  1.2145
 3616SOL    HW214380   1.368   2.351   2.641  0.3345  0.3209  1.2125
 3617SOL     OW14381   6.899   3.436   6.856 -0.0299  0.4222  0.4157
 3617SOL    HW114382   6.932   3.353   6.890 -1.4461 -0.9172 -1.2916
 3617SOL    HW214383   6.920   3.500   6.924 -0.0219 -1.5429  2.3669
 3618SOL     OW14384   9.356   7.325  10.719 -1.0779 -0.6364 -0.0528
 3618SOL    HW114385   9.440   7.286  10.744 -0.2853 -0.3888 -2.1657
 3618SOL    HW214386   9.330   7.375  10.796  1.1949  0.0731  0.3372
 3619SOL     OW14387   7.189   7.362   7.740  0.1617  0.1374  0.5937
 3619SOL    HW114388   7.155   7.349   7.828  0.7247  1.5126  1.0517
 3619SOL    HW214389   7.283   7.377   7.753  0.9228 -2.9714 -0.5784
 3620SOL     OW14390   6.861   9.463   3.438  0.1619 -0.2783 -0.1123
 3620SOL    HW114391   6.945   9.507   3.434  1.0641 -1.7855  1.2295
 3620SOL    HW214392   6.822   9.491   3.521 -0.0428 -0.6459 -0.0815
 3621SOL     OW14393  10.847   3.944   3.240  0.6272  0.0608 -0.1176
 3621SOL    HW114394  10.823   3.896   3.320 -2.3753 -2.0708 -2.0836
 3621SOL    HW214395  10.916   3.891   3.201 -0.0359 -0.6076 -0.4064
 3622SOL     OW14396   2.054   8.023   2.468  0.1333  0.8963  0.0593
 3622SOL    HW114397   2.033   8.079   2.393 -0.2624  0.6384 -0.0259
 3622SOL    HW214398   2.143   8.048   2.493 -0.3130  2.0979  0.5035
 3623SOL     OW14399   0.372   6.659   2.665  0.2118 -0.0935 -0.2736
 3623SOL    HW114400   0.455   6.698   2.693 -0.3921  1.7650 -0.9684
 3623SOL    HW214401   0.369   6.575   2.712  1.9390  0.2896  0.6359
 3624SOL     OW14402   5.731   4.859   1.759  0.0134 -0.0628 -0.6114
 3624SOL    HW114403   5.787   4.934   1.736  1.0470 -0.6001  0.0734
 3624SOL    HW214404   5.709   4.873   1.851 -0.6155 -0.0993 -0.7501
 3625SOL     OW14405   7.912   3.806   0.544 -0.6113 -0.6874 -0.2079
 3625SOL    HW114406   7.849   3.758   0.597 -0.6666 -0.8695 -0.4387
 3625SOL    HW214407   7.997   3.776   0.575 -0.6045  0.3976  0.8929
 3626SOL     OW14408   6.514   0.195   7.251 -0.0484  0.3608  0.5760
 3626SOL    HW114409   6.601   0.191   7.291 -0.5342  0.7464  1.7174
 3626SOL    HW214410   6.459   0.235   7.318 -1.0324  0.4657 -0.2729
 3627SOL     OW14411   6.181   6.212   5.950 -0.0164 -0.2895 -0.3314
 3627SOL    HW114412   6.169   6.132   6.001 -1.2250  0.2189  0.1996
 3627SOL    HW214413   6.117   6.273   5.984  0.1577  0.5672 -1.4629
 3628SOL     OW14414   2.145   2.077   6.701  0.6046 -0.5292  0.1016
 3628SOL    HW114415   2.206   2.022   6.752  0.3495  0.4918  1.5593
 3628SOL    HW214416   2.058   2.052   6.733  0.4390  0.1135  0.1594
 3629SOL     OW14417   1.825   2.145   1.984  0.2535 -0.1306 -0.1113
 3629SOL    HW114418   1.917   2.158   2.007  0.6835 -0.0655 -1.7123
 3629SOL    HW214419   1.806   2.216   1.922 -0.7199 -0.4469 -0.1814
 3630SOL     OW14420  10.208   4.695   7.913 -0.2953  0.2917 -0.0902
 3630SOL    HW114421  10.142   4.764   7.904 -0.7531 -0.1577 -0.2336
 3630SOL    HW214422  10.246   4.686   7.826 -1.4243 -0.7962 -0.5003
 3631SOL     OW14423  10.608   3.139  10.665  0.8753 -0.4947 -0.7319
 3631SOL    HW114424  10.578   3.081  10.595  1.7892  0.9118 -2.3566
 3631SOL    HW214425  10.530   3.153  10.719  0.6369 -3.2319 -0.2122
 3632SOL     OW14426  10.310   4.864   7.142  0.3233  0.0011 -0.1104
 3632SOL    HW114427  10.254   4.823   7.076  0.3273  1.7356 -1.2540
 3632SOL    HW214428  10.359   4.930   7.094  0.3967  1.2660  1.6168
 3633SOL     OW14429   6.179   8.348   6.744 -0.4001 -0.2972 -0.0732
 3633SOL    HW114430   6.118   8.281   6.713 -2.8384  1.0948  1.4275
 3633SOL    HW214431   6.149   8.429   6.704  1.8501  0.1753 -0.9880
 3634SOL     OW14432   0.082   3.244   5.650  0.7445 -0.3351  0.1998
 3634SOL    HW114433   0.048   3.291   5.726  1.5084  1.4426 -0.4849
 3634SOL    HW214434   0.168   3.284   5.634  1.4332 -2.0052 -0.4467
 3635SOL     OW14435   3.789   1.097  10.809  0.2145 -0.1780 -0.1606
 3635SOL    HW114436   3.872   1.145  10.802 -0.3839  0.7878 -0.7981
 3635SOL    HW214437   3.802   1.020  10.753  0.1366  0.8048 -1.6061
 3636SOL     OW14438   3.007   1.909   2.275 -0.3520  0.1067  0.0452
 3636SOL    HW114439   3.085   1.963   2.263 -0.2709 -0.2488 -1.2339
 3636SOL    HW214440   2.994   1.867   2.190  0.0055 -2.4880  1.1999
 3637SOL     OW14441   3.244   1.160   7.271 -0.2270  0.2971  0.0805
 3637SOL    HW114442   3.284   1.074   7.285 -2.4085 -0.8504 -0.1974
 3637SOL    HW214443   3.316   1.215   7.239  0.9056 -1.8895 -1.4213
 3638SOL     OW14444  10.066   4.291  10.864  0.6294  0.1811 -0.4464
 3638SOL    HW114445  10.085   4.332  10.780  1.0754  0.3724 -0.2536
 3638SOL    HW214446  10.141   4.312  10.919 -0.0132  0.7345  0.2508
 3639SOL     OW14447   9.573   2.973   1.944  0.0145  0.4502  0.6539
 3639SOL    HW114448   9.549   2.999   2.033 -0.6353  0.0817  0.5922
 3639SOL    HW214449   9.640   3.036   1.918  1.8079 -0.6929  2.2116
 3640SOL     OW14450   1.071   5.440   6.837  0.5275 -0.6561 -0.1983
 3640SOL    HW114451   1.067   5.535   6.822  0.1892 -0.4224  1.1942
 3640SOL    HW214452   1.112   5.405   6.758 -1.1630  0.4155 -1.6228
 3641SOL     OW14453  10.601   7.923   1.371  0.6282  0.3728  0.7654
 3641SOL    HW114454  10.562   8.010   1.375 -0.0079  0.1641 -0.3809
 3641SOL    HW214455  10.570   7.878   1.450  0.2674  0.8995  0.9247
 3642SOL     OW14456   5.965   4.334  10.190  0.1144 -0.6629 -0.4061
 3642SOL    HW114457   5.994   4.423  10.209 -0.4756 -0.4162 -0.6240
 3642SOL    HW214458   5.915   4.343  10.108  0.6611 -1.3142 -0.8180
 3643SOL     OW14459   3.666   0.558   7.304 -0.2746  0.6870 -0.1818
 3643SOL    HW114460   3.702   0.615   7.371 -0.5829 -0.9311  1.4342
 3643SOL    HW214461   3.702   0.591   7.222  0.2433  2.6135  0.7790
 3644SOL     OW14462  10.021   6.249   8.029 -0.3271  0.9466 -0.1739
 3644SOL    HW114463  10.040   6.341   8.013 -0.2702  1.0655  0.5288
 3644SOL    HW214464   9.991   6.215   7.945 -2.5135  2.1606  0.0251
 3645SOL     OW14465   0.080   6.844   2.062  0.2337 -0.2872  0.2885
 3645SOL    HW114466   0.018   6.793   2.009 -1.5033  1.5176  0.4540
 3645SOL    HW214467   0.161   6.793   2.060 -0.9256 -2.2083 -0.8598
 3646SOL     OW14468   4.011   5.419   5.825  0.2180 -0.5070  0.0034
 3646SOL    HW114469   4.087   5.364   5.844 -1.3182 -3.1406 -0.8895
 3646SOL    HW214470   4.004   5.417   5.729 -1.3994 -0.9801  0.1119
 3647SOL     OW14471   4.644  10.562  10.436  0.5292  1.0033 -0.1936
 3647SOL    HW114472   4.654  10.473  10.402 -0.2729  0.2550  1.4020
 3647SOL    HW214473   4.654  10.618  10.360 -0.7762 -0.5337 -1.5697
 3648SOL     OW14474   1.655   2.844   5.677  0.1945  0.0446  0.0189
 3648SOL    HW114475   1.660   2.939   5.686 -1.8574  0.1589  0.6521
 3648SOL    HW214476   1.715   2.810   5.743 -0.0590  0.9262  0.7239
 3649SOL     OW14477   5.602   3.346  10.391 -0.6497 -0.2446 -0.0081
 3649SOL    HW114478   5.696   3.344  10.372 -0.7039 -2.7783 -0.4347
 3649SOL    HW214479   5.596   3.330  10.485 -0.6305 -2.6540 -0.3540
 3650SOL     OW14480   7.999   2.329   3.099  0.4677  0.0343 -0.4408
 3650SOL    HW114481   7.961   2.382   3.029  0.0076  0.2632 -0.0267
 3650SOL    HW214482   8.091   2.357   3.103  0.7643 -0.6909 -1.6051
 3651SOL     OW14483   1.277   6.515   1.925  0.3584  0.5677  0.3884
 3651SOL    HW114484   1.254   6.479   2.011  0.2623 -1.9653 -0.6309
 3651SOL    HW214485   1.212   6.584   1.910  1.5003  2.4141  3.0947
 3652SOL     OW14486   4.129   6.933   1.676 -0.1235 -0.5531  0.0901
 3652SOL    HW114487   4.207   6.974   1.712 -1.1453  0.0344  1.7581
 3652SOL    HW214488   4.093   6.998   1.616 -1.3524  0.8618  2.1974
 3653SOL     OW14489   5.219   5.377   4.013 -0.4039 -0.3498  0.0260
 3653SOL    HW114490   5.306   5.356   3.979 -0.0989  0.4746  0.2813
 3653SOL    HW214491   5.161   5.313   3.971 -0.0188  0.5492 -1.9692
 3654SOL     OW14492   1.572   0.387   7.877 -0.2778 -0.0794  0.0157
 3654SOL    HW114493   1.600   0.476   7.857 -0.5382  0.5712  2.2115
 3654SOL    HW214494   1.600   0.374   7.968 -1.4075 -1.7725  0.1613
 3655SOL     OW14495  10.549   6.087  10.266 -0.1812  0.1646  0.5921
 3655SOL    HW114496  10.626   6.121  10.219  0.5685  0.4549  1.9597
 3655SOL    HW214497  10.552   6.131  10.351 -1.1278 -0.8122  1.1558
 3656SOL     OW14498   5.691   2.440   0.011 -0.1844  0.2038 -0.2555
 3656SOL    HW114499   5.627   2.510   0.002 -0.8736 -0.4055 -0.1428
 3656SOL    HW214500   5.673   2.380  -0.061 -1.3048 -1.1896  1.1038
 3657SOL     OW14501   2.424   1.512   0.312 -0.0507 -0.3324 -0.2593
 3657SOL    HW114502   2.407   1.591   0.260  0.4670  0.4773  0.7667
 3657SOL    HW214503   2.423   1.441   0.248 -2.0083  0.2990 -1.0008
 3658SOL     OW14504   1.742   5.727   1.878  0.3454 -0.0491  0.6136
 3658SOL    HW114505   1.773   5.638   1.860  2.3190  1.0857 -2.4161
 3658SOL    HW214506   1.647   5.721   1.867  0.6735 -1.0146 -5.0132
 3659SOL     OW14507   2.124   4.536   4.331 -0.1152 -0.2209  0.1189
 3659SOL    HW114508   2.198   4.475   4.330  0.1907  0.1408  0.2972
 3659SOL    HW214509   2.085   4.527   4.244  0.4497 -0.0470 -0.1586
 3660SOL     OW14510   4.419   9.765   9.929  0.0887 -0.2639  0.1074
 3660SOL    HW114511   4.489   9.706   9.957 -0.2750 -0.8705 -0.2415
 3660SOL    HW214512   4.457   9.814   9.856  0.3296 -0.1942  0.2780
 3661SOL     OW14513   8.483   6.972  10.435 -0.1642  0.2053  0.0137
 3661SOL    HW114514   8.559   6.949  10.488 -0.0686 -0.3597 -0.3598
 3661SOL    HW214515   8.476   6.901  10.371 -2.1812 -0.7998  1.2515
 3662SOL     OW14516  11.064   2.330   6.554 -0.0104 -0.8156  0.9487
 3662SOL    HW114517  11.088   2.240   6.532 -1.8207 -0.9959 -0.4863
 3662SOL    HW214518  10.974   2.323   6.586 -0.3281  0.5226  0.4007
 3663SOL     OW14519   2.498   9.410   2.641 -0.2656 -0.2207  0.1452
 3663SOL    HW114520   2.438   9.359   2.696 -0.6862  0.0314 -0.0764
 3663SOL    HW214521   2.576   9.355   2.633 -0.3436 -0.4208  0.6877
 3664SOL     OW14522   2.333   3.427   2.414  0.5878  0.1315  0.1298
 3664SOL    HW114523   2.377   3.512   2.409 -0.5688  0.9590  2.3183
 3664SOL    HW214524   2.247   3.447   2.453  0.5000 -2.0925  1.2514
 3665SOL     OW14525   9.978   2.099   8.620  0.4266  0.1477 -0.5785
 3665SOL    HW114526  10.036   2.052   8.680 -0.2650 -0.3978 -0.3187
 3665SOL    HW214527   9.927   2.031   8.577  1.4190  0.4673 -2.3804
 3666SOL     OW14528   5.635   8.571   5.682 -0.4232 -0.3375  0.1566
 3666SOL    HW114529   5.671   8.656   5.659  1.3603 -0.7447  1.2685
 3666SOL    HW214530   5.711   8.513   5.687 -1.5891 -1.9971 -0.5442
 3667SOL     OW14531   6.730  10.743  10.839  0.1014 -0.2044 -0.5180
 3667SOL    HW114532   6.759  10.832  10.818  1.5167 -0.3503  0.6793
 3667SOL    HW214533   6.703  10.747  10.930  0.8612 -1.1339 -0.2276
 3668SOL     OW14534  10.323   4.572   1.884 -0.1885 -0.5578  0.0213
 3668SOL    HW114535  10.416   4.591   1.869 -0.5044  0.5032 -0.7054
 3668SOL    HW214536  10.279   4.656   1.869 -1.1304 -0.7055  1.7252
 3669SOL     OW14537  10.267   3.035   4.300  0.5014 -0.0558 -0.4181
 3669SOL    HW114538  10.312   3.100   4.354  1.4581 -2.2608  1.6300
 3669SOL    HW214539  10.264   2.956   4.354  0.1127 -1.9977 -3.0264
 3670SOL     OW14540   3.776   7.813   2.601 -0.1280 -0.0819  0.3264
 3670SOL    HW114541   3.754   7.746   2.666 -1.6690  0.8572  0.8334
 3670SOL    HW214542   3.837   7.770   2.542 -0.3741 -1.6506  1.1582
 3671SOL     OW14543   8.953  10.551   4.777  0.5816 -0.6932 -0.7077
 3671SOL    HW114544   8.945  10.629   4.723  1.2528  0.9587  1.4289
 3671SOL    HW214545   8.871  10.548   4.827  0.8637 -0.8913 -0.2426
 3672SOL     OW14546   8.762   6.184   2.775  0.3036 -0.1705  0.0870
 3672SOL    HW114547   8.753   6.196   2.869  1.1620  0.0603  0.1481
 3672SOL    HW214548   8.702   6.112   2.754 -0.8490  0.6059  0.5918
 3673SOL     OW14549   3.323   4.026  10.202 -0.1664  0.0658  0.1609
 3673SOL    HW114550   3.389   4.075  10.251 -0.8222 -0.5131  1.6874
 3673SOL    HW214551   3.244   4.080  10.207  0.0272  0.5216 -1.2354
 3674SOL     OW14552   4.181  10.621   7.873 -0.4103 -0.1714 -0.1955
 3674SOL    HW114553   4.268  10.653   7.897 -0.0424 -1.2984  0.0754
 3674SOL    HW214554   4.192  10.526   7.865 -1.5068 -0.2802 -0.6583
 3675SOL     OW14555   3.030   3.550   1.119  0.7707  1.3366  0.0214
 3675SOL    HW114556   3.035   3.456   1.104  1.8699  1.3241  0.3837
 3675SOL    HW214557   3.118   3.582   1.098 -0.0810  2.5863 -2.0512
 3676SOL     OW14558   6.791   7.422   5.904 -0.1343 -0.0346  0.0882
 3676SOL    HW114559   6.851   7.383   5.840  2.3607  1.9988  1.0141
 3676SOL    HW214560   6.723   7.463   5.851  0.7551 -0.1185 -1.1805
 3677SOL     OW14561  11.015   4.165   4.961 -0.1031  0.8113  0.3705
 3677SOL    HW114562  10.981   4.096   4.903 -3.2957  2.1418  0.4773
 3677SOL    HW214563  11.088   4.203   4.911  1.3408 -2.0993  0.0326
 3678SOL     OW14564   8.198   4.606   7.917 -0.2108  0.2492 -0.3896
 3678SOL    HW114565   8.261   4.541   7.948 -0.7755  0.2933  0.9161
 3678SOL    HW214566   8.238   4.691   7.938 -0.5530  0.2807  0.1621
 3679SOL     OW14567   4.694   3.740   6.667  0.2089 -0.2242 -0.2521
 3679SOL    HW114568   4.744   3.792   6.604 -0.1060 -0.4991 -0.7265
 3679SOL    HW214569   4.755   3.727   6.740  0.3220  0.7320 -0.1651
 3680SOL     OW14570   9.670   1.546   6.423 -0.2765 -0.1566 -0.3515
 3680SOL    HW114571   9.634   1.483   6.485  0.2348  0.7175  0.8846
 3680SOL    HW214572   9.602   1.557   6.357 -0.9493 -0.9247  0.2015
 3681SOL     OW14573   8.467   4.530   9.764 -0.4247 -0.1803 -0.1006
 3681SOL    HW114574   8.494   4.445   9.799  1.1869  0.5083  0.4204
 3681SOL    HW214575   8.489   4.592   9.833  0.6797  0.9297 -1.3904
 3682SOL     OW14576   0.525   9.728  10.392  0.0594 -0.0809  0.4042
 3682SOL    HW114577   0.612   9.698  10.367  0.0992 -1.2518  1.7993
 3682SOL    HW214578   0.541   9.802  10.451  0.2189 -1.4841  2.1870
 3683SOL     OW14579  10.034   1.120   5.876  0.3269  0.3796 -0.7036
 3683SOL    HW114580   9.954   1.160   5.843 -0.1051 -0.7263 -1.0397
 3683SOL    HW214581  10.069   1.070   5.802  0.5888 -0.2541 -0.1685
 3684SOL     OW14582   8.928  10.552   3.864  0.5480 -0.5585  0.3268
 3684SOL    HW114583   8.937  10.464   3.902 -1.2063 -0.4524  1.0916
 3684SOL    HW214584   8.899  10.606   3.937 -0.3960  0.2137 -0.5966
 3685SOL     OW14585   5.538   4.636  10.909  0.1617 -0.4039  0.1376
 3685SOL    HW114586   5.465   4.591  10.866 -0.4881  1.4890 -0.8734
 3685SOL    HW214587   5.615   4.611  10.860 -0.0835 -0.9664  0.0376
 3686SOL     OW14588  11.054   2.782   7.472  0.0766  0.3939 -0.4580
 3686SOL    HW114589  11.012   2.706   7.432 -0.2034  1.2814 -1.9214
 3686SOL    HW214590  11.049   2.850   7.406  1.7813  1.2263  0.1935
 3687SOL     OW14591   1.611   1.036   5.859 -0.1607 -0.5996 -0.2496
 3687SOL    HW114592   1.558   1.080   5.793  0.5390  1.9521  0.7619
 3687SOL    HW214593   1.701   1.052   5.832  0.1201 -1.2793  0.2601
 3688SOL     OW14594   3.070   8.308   6.566 -0.5860 -0.4565  0.4995
 3688SOL    HW114595   3.153   8.328   6.609 -0.1394 -2.8287  0.8887
 3688SOL    HW214596   3.091   8.305   6.473 -0.6364  0.5810  0.4402
 3689SOL     OW14597   6.078   9.208  10.961 -0.2973 -0.0080 -0.1121
 3689SOL    HW114598   6.084   9.113  10.973  1.0388  0.1329  0.5552
 3689SOL    HW214599   6.104   9.223  10.870  1.3569 -0.1617  0.2996
 3690SOL     OW14600   1.306   7.875   6.234  0.5174  0.5435  0.5117
 3690SOL    HW114601   1.337   7.949   6.181  1.5746  0.8448  1.4972
 3690SOL    HW214602   1.372   7.866   6.303 -0.0557 -0.7736  0.9194
 3691SOL     OW14603   4.908   1.261   2.938 -0.4333 -0.3479 -0.0659
 3691SOL    HW114604   4.876   1.189   2.884 -0.6841  0.0520 -0.4568
 3691SOL    HW214605   4.854   1.258   3.017 -0.1428 -0.8630  0.1204
 3692SOL     OW14606   1.482   1.041   7.849  0.7310  0.2876  0.0257
 3692SOL    HW114607   1.395   1.006   7.833 -0.4501  1.4787  3.0546
 3692SOL    HW214608   1.521   1.053   7.762 -1.0802 -2.6850 -1.3160
 3693SOL     OW14609   9.002   1.546   7.428  0.3195  0.0848 -0.5545
 3693SOL    HW114610   9.079   1.526   7.375  0.0674 -0.6640 -0.6568
 3693SOL    HW214611   8.999   1.475   7.493 -0.5834 -0.1898 -0.8904
 3694SOL     OW14612   4.273   5.403   6.884  0.0126  0.2268 -0.4608
 3694SOL    HW114613   4.224   5.359   6.954 -0.2446  3.0759  1.2920
 3694SOL    HW214614   4.311   5.480   6.926  1.5404  0.9940 -3.0449
 3695SOL     OW14615   4.212   5.429   0.386  0.2258 -0.1963 -0.2513
 3695SOL    HW114616   4.250   5.517   0.396 -2.7150  1.6123 -2.9462
 3695SOL    HW214617   4.223   5.409   0.294 -2.8318 -0.6906 -0.6014
 3696SOL     OW14618   1.480  10.438   9.717 -0.0821  0.0033  1.0695
 3696SOL    HW114619   1.455  10.475   9.801 -1.1515  0.8286  0.4142
 3696SOL    HW214620   1.490  10.514   9.659 -2.4926 -0.6376 -0.3494
 3697SOL     OW14621   9.096   1.568   1.683 -0.0990  0.2893  0.2006
 3697SOL    HW114622   9.075   1.508   1.755  2.3536  0.3883  1.1117
 3697SOL    HW214623   9.114   1.511   1.608 -2.6706  0.1841 -0.4213
 3698SOL     OW14624   3.674   8.005   9.379 -0.0556  0.0655 -0.1321
 3698SOL    HW114625   3.650   7.913   9.391  1.1775 -0.1105  1.1747
 3698SOL    HW214626   3.727   8.005   9.299 -3.2805  0.3133 -2.4800
 3699SOL     OW14627   4.142   3.829   9.575  0.0171  0.5627  0.2601
 3699SOL    HW114628   4.088   3.891   9.623  1.4848  1.7131  0.4974
 3699SOL    HW214629   4.156   3.870   9.490 -0.8226 -0.4976 -0.4259
 3700SOL     OW14630   5.913   3.642   1.572 -0.3809 -0.3429  0.0507
 3700SOL    HW114631   5.930   3.548   1.566  2.3476  0.0708  0.1527
 3700SOL    HW214632   5.823   3.648   1.603 -0.9983 -2.8912 -0.9950
 3701SOL     OW14633   8.169   5.175   7.868  0.1559  0.1064  0.1780
 3701SOL    HW114634   8.240   5.120   7.838  0.8507  1.7384 -1.3963
 3701SOL    HW214635   8.137   5.133   7.948  1.3891 -1.8712 -0.3093
 3702SOL     OW14636   5.447   3.036   8.993  0.2460 -0.2233  0.1032
 3702SOL    HW114637   5.439   3.084   8.911  4.0685 -0.9115 -0.8619
 3702SOL    HW214638   5.417   2.947   8.971 -0.4763  0.0339  0.0137
 3703SOL     OW14639  10.193  10.906   6.392  0.1844 -0.1808 -0.1536
 3703SOL    HW114640  10.114  10.852   6.383 -0.4199  0.3709  1.5102
 3703SOL    HW214641  10.161  10.989   6.426  1.5707 -0.1881  1.2536
 3704SOL     OW14642   7.095   2.290   7.237  0.6034 -0.0552  0.4444
 3704SOL    HW114643   7.162   2.230   7.270  1.4454  1.7844  2.3563
 3704SOL    HW214644   7.102   2.285   7.142  1.5665 -1.9295  0.5762
 3705SOL     OW14645   5.811   9.743   0.659 -0.2950 -0.1801 -0.8199
 3705SOL    HW114646   5.760   9.672   0.618  0.1096 -1.1073  0.2420
 3705SOL    HW214647   5.773   9.823   0.623 -1.2023 -0.9067 -1.5450
 3706SOL     OW14648   1.833   4.431   6.172 -0.3119 -0.5128  0.2997
 3706SOL    HW114649   1.758   4.438   6.231 -0.5978  0.6264 -0.1757
 3706SOL    HW214650   1.885   4.509   6.190 -1.2296  0.7256 -2.0731
 3707SOL     OW14651   9.627   9.956   4.508 -0.1095 -0.3644  0.2097
 3707SOL    HW114652   9.588   9.989   4.427 -0.7181  0.4327  0.8127
 3707SOL    HW214653   9.566   9.983   4.577 -0.0503 -1.8007  0.8493
 3708SOL     OW14654   1.213   4.840  10.699 -0.3826 -0.1512 -0.4956
 3708SOL    HW114655   1.125   4.807  10.719 -0.2952 -1.1904 -1.6859
 3708SOL    HW214656   1.271   4.770  10.729  0.0299  0.3428 -0.1159
 3709SOL     OW14657   1.960   8.814   7.206  0.2784 -0.1496 -0.6230
 3709SOL    HW114658   1.972   8.724   7.234  0.7758 -0.2470 -1.1266
 3709SOL    HW214659   1.969   8.866   7.286  0.9441 -0.4723 -0.4816
 3710SOL     OW14660   2.636   3.803   6.699  0.4467 -0.4374  0.2047
 3710SOL    HW114661   2.685   3.731   6.739 -0.0906  0.0943  1.8637
 3710SOL    HW214662   2.691   3.880   6.712 -0.1735 -0.0920  0.7803
 3711SOL     OW14663   7.555   8.090   1.738 -1.0775  0.1831  0.5362
 3711SOL    HW114664   7.492   8.162   1.742 -1.4011 -0.1660  2.6165
 3711SOL    HW214665   7.504   8.015   1.705 -1.3257  0.3019  0.6498
 3712SOL     OW14666   0.795   3.542  11.043 -0.1829 -0.0251  0.3107
 3712SOL    HW114667   0.808   3.483  10.969 -0.5826 -0.1083  0.3030
 3712SOL    HW214668   0.880   3.583  11.057 -0.2138  0.3307 -0.4925
 3713SOL     OW14669   5.898   2.073   2.811 -0.2009 -0.0719  0.1267
 3713SOL    HW114670   5.833   2.007   2.788 -0.1855 -0.3882  0.9675
 3713SOL    HW214671   5.945   2.036   2.886 -2.0779  2.0246  2.5278
 3714SOL     OW14672   4.858   9.062   5.004 -0.1368  0.1416 -0.3732
 3714SOL    HW114673   4.839   8.971   5.023  0.4595  0.0074 -0.4020
 3714SOL    HW214674   4.777   9.096   4.965 -0.3353 -0.3914 -0.4317
 3715SOL     OW14675   8.069   7.243   6.738 -0.2958  0.1102  0.0600
 3715SOL    HW114676   8.161   7.235   6.714  0.1782  2.0503  1.0241
 3715SOL    HW214677   8.070   7.276   6.828 -1.8898  1.3760 -0.3239
 3716SOL     OW14678   2.946   9.805   6.039  0.5373 -0.0781  0.0422
 3716SOL    HW114679   2.942   9.776   6.131  2.7024 -1.0738 -0.1140
 3716SOL    HW214680   2.893   9.741   5.992 -0.8968  0.6482  0.6086
 3717SOL     OW14681   1.559  10.736  10.261  0.4099 -0.1209  0.8023
 3717SOL    HW114682   1.573  10.742  10.355  0.5262 -0.1718  0.7887
 3717SOL    HW214683   1.635  10.779  10.222  0.9744 -1.1726  0.7122
 3718SOL     OW14684   7.411   5.080   0.613  0.2288 -0.0935  0.0888
 3718SOL    HW114685   7.407   5.097   0.707  2.1597  0.2424  0.1472
 3718SOL    HW214686   7.419   5.166   0.573  0.4817 -0.2941 -0.2997
 3719SOL     OW14687  10.991   5.824   7.073  0.0818  0.3090 -0.4795
 3719SOL    HW114688  10.929   5.751   7.081 -0.4742  0.8375  0.1490
 3719SOL    HW214689  11.046   5.818   7.152  0.7206 -0.0488 -0.9445
 3720SOL     OW14690   0.812   6.998   2.126  0.9325 -0.0178 -0.0622
 3720SOL    HW114691   0.729   6.976   2.169  0.8576 -1.1291 -0.7490
 3720SOL    HW214692   0.812   7.094   2.124  0.6300  0.0593  1.7869
 3721SOL     OW14693   9.865   2.841   4.040  0.9687 -0.6993  0.2054
 3721SOL    HW114694   9.888   2.882   4.123 -0.2771 -0.9472  0.6987
 3721SOL    HW214695   9.785   2.792   4.059 -2.0570  2.7547 -2.0349
 3722SOL     OW14696   5.952   3.579   9.237 -0.0153  0.0279  0.2902
 3722SOL    HW114697   5.943   3.575   9.141 -1.3394  0.1527  0.4006
 3722SOL    HW214698   5.939   3.488   9.266 -0.4648  0.1357  0.4218
 3723SOL     OW14699   9.482   1.575   2.498 -0.5031 -0.0440 -0.3576
 3723SOL    HW114700   9.478   1.660   2.541 -0.1177 -0.2048  0.0079
 3723SOL    HW214701   9.466   1.512   2.568  1.2391 -0.3581 -0.1967
 3724SOL     OW14702   7.906  10.813   0.811 -0.0941 -0.2303 -0.4564
 3724SOL    HW114703   7.840  10.766   0.759  0.0834  0.8099 -1.6797
 3724SOL    HW214704   7.856  10.876   0.862 -0.1119  0.0092 -0.7704
 3725SOL     OW14705   7.744   9.776   6.780 -0.4087  0.2465  0.1305
 3725SOL    HW114706   7.666   9.830   6.765 -1.8944 -1.0707  2.5117
 3725SOL    HW214707   7.790   9.778   6.696 -1.0659  3.9979 -0.3036
 3726SOL     OW14708   8.381   7.485   8.175  0.2972  0.6192 -0.2213
 3726SOL    HW114709   8.451   7.491   8.240  1.6462  0.3429 -1.5864
 3726SOL    HW214710   8.358   7.577   8.157  0.0294  0.7004  0.5233
 3727SOL     OW14711   0.691   8.918   9.693 -0.6189 -0.3822  0.0397
 3727SOL    HW114712   0.643   8.893   9.772 -2.6408  1.1175 -0.6486
 3727SOL    HW214713   0.776   8.949   9.726 -1.4211  0.2260  1.6290
 3728SOL     OW14714   9.086   5.373   6.720 -0.3638 -0.1458 -0.3291
 3728SOL    HW114715   9.020   5.357   6.787  0.1620 -1.7066 -0.1553
 3728SOL    HW214716   9.056   5.322   6.644 -0.7502  1.2911 -1.1814
 3729SOL     OW14717   8.414  11.046   2.008 -0.4764 -0.2364  0.1086
 3729SOL    HW114718   8.380  11.045   2.098 -0.7264 -0.0446  0.0174
 3729SOL    HW214719   8.501  11.084   2.015  0.2036 -1.7920  0.5142
 3730SOL     OW14720   4.641   7.858   5.867 -0.4524 -0.4208  0.2670
 3730SOL    HW114721   4.591   7.879   5.945 -0.4308  1.6658 -0.2398
 3730SOL    HW214722   4.579   7.869   5.795  0.1219 -0.0592 -0.1793
 3731SOL     OW14723   9.774   6.022   7.482 -0.3599  0.6880 -0.0730
 3731SOL    HW114724   9.780   6.091   7.416 -0.7104  0.5846 -0.2173
 3731SOL    HW214725   9.861   5.983   7.484 -0.1233  1.2198  0.1070
 3732SOL     OW14726  10.355  10.814   6.096  0.4742  0.4132  0.3352
 3732SOL    HW114727  10.265  10.846   6.093  0.5981  0.6956 -1.5129
 3732SOL    HW214728  10.401  10.867   6.031  1.5398 -1.0094 -0.1162
 3733SOL     OW14729   5.721   9.639   1.225  0.1733 -0.5171  0.0836
 3733SOL    HW114730   5.752   9.551   1.202  1.9962  0.1651 -0.2520
 3733SOL    HW214731   5.794   9.697   1.201 -1.2571  1.1817 -0.3805
 3734SOL     OW14732   0.635   9.180   0.585 -0.5467 -0.1843 -0.2587
 3734SOL    HW114733   0.566   9.224   0.635  1.1945  0.0171  2.1371
 3734SOL    HW214734   0.627   9.216   0.496 -2.2370  1.2946  0.4350
 3735SOL     OW14735   5.348   1.143   3.942  0.3157 -0.9392 -0.0613
 3735SOL    HW114736   5.291   1.084   3.892  0.5451 -1.5256  0.3477
 3735SOL    HW214737   5.385   1.202   3.876  0.7297 -1.7891 -0.6155
 3736SOL     OW14738   5.162   4.988   2.510 -0.2888  0.4327 -1.1299
 3736SOL    HW114739   5.221   5.062   2.526  0.2615 -0.5573  2.0230
 3736SOL    HW214740   5.202   4.942   2.436  1.1142  1.5608 -1.1275
 3737SOL     OW14741   2.788   0.853   5.132  0.2911  0.3066  0.2243
 3737SOL    HW114742   2.716   0.881   5.189  1.2121  0.9331  1.1186
 3737SOL    HW214743   2.863   0.845   5.191  0.8154 -0.9321 -0.5878
 3738SOL     OW14744   3.086   7.328   5.985 -0.0173  0.1213  0.1339
 3738SOL    HW114745   3.048   7.253   6.031 -0.4381 -0.1352 -0.6049
 3738SOL    HW214746   3.015   7.358   5.927  0.2871  0.8306  0.1212
 3739SOL     OW14747   6.338   0.411  10.682 -0.3642 -0.0932  0.0050
 3739SOL    HW114748   6.358   0.483  10.742  1.0178 -0.5560  0.1439
 3739SOL    HW214749   6.401   0.421  10.611 -0.7062 -0.6820 -0.3856
 3740SOL     OW14750   8.667   9.702  10.530  0.1304  0.7600  0.9540
 3740SOL    HW114751   8.593   9.645  10.512 -0.3487  1.7971 -0.5416
 3740SOL    HW214752   8.629   9.779  10.572  0.3177  1.3568  0.0591
 3741SOL     OW14753   9.984   5.155   8.087 -0.4601 -1.2011  0.3577
 3741SOL    HW114754   9.990   5.238   8.134 -0.6796 -1.2394  0.4504
 3741SOL    HW214755   9.996   5.089   8.155  0.1720 -1.2401  0.2181
 3742SOL     OW14756   7.566   7.224   2.703 -0.0602  0.3254 -0.3564
 3742SOL    HW114757   7.559   7.223   2.799  0.1873 -0.5712 -0.3455
 3742SOL    HW214758   7.607   7.309   2.684  2.0810 -0.4596  0.5045
 3743SOL     OW14759   0.749   6.955   9.459 -0.1446  0.0167 -0.6905
 3743SOL    HW114760   0.829   6.959   9.406  1.0866  1.1551  1.1062
 3743SOL    HW214761   0.776   6.909   9.539 -1.1371  0.8446  0.1550
 3744SOL     OW14762  10.673   8.388   1.555  0.5589 -0.5034  0.3302
 3744SOL    HW114763  10.715   8.426   1.632  2.2010  1.0474 -1.2150
 3744SOL    HW214764  10.693   8.294   1.560 -0.9030 -0.7532  2.6379
 3745SOL     OW14765   2.878   6.174  10.518  0.1611  0.5402 -0.2644
 3745SOL    HW114766   2.833   6.094  10.489  1.2241  0.0083 -0.4892
 3745SOL    HW214767   2.933   6.145  10.591  0.2551  1.1531 -0.0896
 3746SOL     OW14768   1.487   4.899   1.559 -0.0729  0.0351 -0.3684
 3746SOL    HW114769   1.471   4.955   1.484 -0.0324  0.1679 -0.2791
 3746SOL    HW214770   1.528   4.821   1.523  0.1617  0.1980 -0.4566
 3747SOL     OW14771   7.559   0.114   3.891 -0.1044 -0.0662 -0.2932
 3747SOL    HW114772   7.517   0.039   3.847 -2.1799 -0.0078  1.3927
 3747SOL    HW214773   7.573   0.178   3.821  0.9352 -1.6694 -1.6290
 3748SOL     OW14774   4.515   8.841   0.602  0.3260 -0.2509 -0.0451
 3748SOL    HW114775   4.546   8.755   0.631  3.8419  0.3621 -1.4654
 3748SOL    HW214776   4.576   8.903   0.641 -2.3590  1.7635  1.2589
 3749SOL     OW14777   7.992   8.632   6.816 -0.2166 -0.8302 -0.1442
 3749SOL    HW114778   7.924   8.698   6.797  1.8690  1.0240 -1.7287
 3749SOL    HW214779   7.965   8.555   6.767 -1.2378 -0.1668 -0.6687
 3750SOL     OW14780   6.130   7.667   8.087  0.7061 -0.1960  0.0399
 3750SOL    HW114781   6.106   7.713   8.168  1.0924 -0.8709  0.5544
 3750SOL    HW214782   6.070   7.593   8.083  0.7274 -0.1955 -0.2592
 3751SOL     OW14783   3.483   2.419   5.638 -0.6805  0.3074 -0.0215
 3751SOL    HW114784   3.504   2.492   5.581 -1.0818  0.4273 -0.0235
 3751SOL    HW214785   3.468   2.346   5.578 -0.2223  0.2070 -0.0158
 3752SOL     OW14786   7.198  10.712   7.288  0.3706  0.5025  0.1761
 3752SOL    HW114787   7.120  10.764   7.270  0.1881  0.2610  0.2664
 3752SOL    HW214788   7.271  10.766   7.256  0.1881  0.8322  0.3127
 3753SOL     OW14789   3.678   5.886   6.116  0.4873 -1.1895  0.0921
 3753SOL    HW114790   3.756   5.915   6.163  0.6228 -0.2501 -0.6802
 3753SOL    HW214791   3.605   5.913   6.171  0.6308  0.2461 -0.3875
 3754SOL     OW14792   6.653   7.377   9.675  0.1222  0.0152  0.3463
 3754SOL    HW114793   6.637   7.399   9.583  2.1378  0.3116  0.0108
 3754SOL    HW214794   6.567   7.378   9.716 -0.7071  0.8953 -1.3301
 3755SOL     OW14795   7.275   1.092   1.528 -0.2579 -0.3335  0.2063
 3755SOL    HW114796   7.234   1.012   1.563 -0.6065  0.2184  1.1196
 3755SOL    HW214797   7.207   1.159   1.537  0.3072  0.2469  0.2281
 3756SOL     OW14798   4.363   9.769   8.947  0.3185  0.0409 -0.3331
 3756SOL    HW114799   4.373   9.678   8.921  1.7781  0.0929 -0.0558
 3756SOL    HW214800   4.354   9.766   9.042  0.5480  0.1771 -0.3044
 3757SOL     OW14801   8.166   8.831   0.648 -0.1196 -0.5230  0.2233
 3757SOL    HW114802   8.238   8.894   0.644 -0.9768  0.4583 -1.6481
 3757SOL    HW214803   8.145   8.823   0.741  3.0961 -1.7442  0.9582
 3758SOL     OW14804   8.616   0.707   5.121 -0.1356 -0.5279 -0.1173
 3758SOL    HW114805   8.613   0.785   5.177 -0.5679 -0.5915 -0.0491
 3758SOL    HW214806   8.696   0.662   5.147 -1.0298 -1.2905  1.4404
 3759SOL     OW14807   8.519   2.838   7.251  0.2472 -0.0368 -0.9371
 3759SOL    HW114808   8.510   2.930   7.278 -0.7524 -0.1314 -0.8970
 3759SOL    HW214809   8.452   2.826   7.183  0.5475 -0.6674 -1.1295
 3760SOL     OW14810   7.810   7.578   7.259 -0.2073 -0.4855  0.2609
 3760SOL    HW114811   7.734   7.581   7.200  0.1575  0.0343 -0.1983
 3760SOL    HW214812   7.818   7.667   7.293  0.1741 -0.5411  0.3258
 3761SOL     OW14813   3.513   8.105   3.484 -0.7818  0.1591 -0.0507
 3761SOL    HW114814   3.561   8.048   3.424  0.0078 -0.6353  1.2679
 3761SOL    HW214815   3.426   8.113   3.445 -0.3353 -0.4408 -1.2174
 3762SOL     OW14816   0.454   9.999   2.196  0.3419  0.4383  0.3090
 3762SOL    HW114817   0.498   9.933   2.249 -2.2716 -1.0014  0.8763
 3762SOL    HW214818   0.441  10.073   2.255 -0.2216 -0.1292  0.9095
 3763SOL     OW14819   8.230   3.179  10.971  0.1661 -0.0166  0.0271
 3763SOL    HW114820   8.245   3.115  10.902  0.0522  1.2667 -1.2157
 3763SOL    HW214821   8.274   3.258  10.941  0.7995  0.3584  1.8012
 3764SOL     OW14822   1.853   1.994   1.694 -0.0530  0.1421 -0.1340
 3764SOL    HW114823   1.918   1.993   1.764 -0.0272 -0.1311 -0.1593
 3764SOL    HW214824   1.794   1.921   1.715 -0.6662  0.7193  0.1814
 3765SOL     OW14825   6.980   2.161   1.679  0.1247  0.0736  0.7665
 3765SOL    HW114826   7.031   2.104   1.738  2.5825 -0.1176 -1.3653
 3765SOL    HW214827   6.965   2.107   1.601 -0.7616  1.1660  0.1590
 3766SOL     OW14828   9.200   8.114   9.921  0.2202  0.0889 -0.0132
 3766SOL    HW114829   9.116   8.147   9.890  0.4445 -0.1264 -0.8629
 3766SOL    HW214830   9.250   8.096   9.842  1.5472  1.4139  0.4762
 3767SOL     OW14831   9.980   5.439   8.479 -0.0280  0.0302 -0.2983
 3767SOL    HW114832  10.008   5.530   8.468 -0.2793  0.0906 -0.4659
 3767SOL    HW214833  10.018   5.393   8.404  1.0022 -0.2270  0.3611
 3768SOL     OW14834   5.392   6.714   2.916  0.3946  0.2701 -0.2461
 3768SOL    HW114835   5.398   6.697   2.822  1.0957  1.4237 -0.4294
 3768SOL    HW214836   5.458   6.782   2.933 -0.9391  1.3891  0.7460
 3769SOL     OW14837   5.037   9.826   1.213  0.8913  0.2846 -0.4709
 3769SOL    HW114838   4.995   9.843   1.129 -1.1685 -1.8477  0.0298
 3769SOL    HW214839   4.986   9.877   1.276  1.1345  0.2632 -0.2524
 3770SOL     OW14840   4.913   6.906  10.636 -0.1101 -0.2752  0.1652
 3770SOL    HW114841   4.909   6.989  10.684  2.1618 -0.6153  1.0781
 3770SOL    HW214842   5.006   6.885  10.632 -0.5995 -2.6811 -0.2528
 3771SOL     OW14843   9.493   4.928   1.112 -0.1615  0.3065 -0.1654
 3771SOL    HW114844   9.525   5.010   1.148 -1.1585  0.9261 -0.6567
 3771SOL    HW214845   9.534   4.860   1.167  1.5040  1.0599 -0.4256
 3772SOL     OW14846   0.937   7.780   8.314  0.9128 -0.0583 -0.6197
 3772SOL    HW114847   0.876   7.850   8.289 -1.7409 -0.3242  3.9222
 3772SOL    HW214848   1.011   7.826   8.353  1.3876  0.1966 -1.7737
 3773SOL     OW14849   1.555  10.621   0.015 -0.8113  0.6547  0.4014
 3773SOL    HW114850   1.555  10.717   0.019 -0.9544  0.8584 -2.4085
 3773SOL    HW214851   1.492  10.600  -0.054  0.6954 -1.3593 -0.4555
 3774SOL     OW14852   0.143   7.128   3.007 -0.6593 -0.1908 -0.3448
 3774SOL    HW114853   0.068   7.169   3.050 -0.1474 -0.2768  0.6423
 3774SOL    HW214854   0.111   7.106   2.919 -1.7313 -0.0657  0.0042
 3775SOL     OW14855   3.718   7.270   3.641 -0.1386 -0.4082  0.0581
 3775SOL    HW114856   3.624   7.278   3.657  0.2715  0.0430  2.6309
 3775SOL    HW214857   3.751   7.217   3.713  1.7240  0.1936 -0.2749
 3776SOL     OW14858   5.398  10.464   9.637  0.7176  0.4059  0.6782
 3776SOL    HW114859   5.384  10.535   9.700 -1.8430  0.1860  0.4846
 3776SOL    HW214860   5.340  10.394   9.667 -0.5844  0.2840 -1.8211
 3777SOL     OW14861   9.046  10.587   8.747 -0.5287 -0.1479 -0.1979
 3777SOL    HW114862   9.059  10.534   8.668  1.4329 -0.7735  0.4756
 3777SOL    HW214863   8.954  10.613   8.743 -1.0200 -1.8452 -1.6430
 3778SOL     OW14864   2.654   4.923   2.687 -0.3581 -0.9487  0.1581
 3778SOL    HW114865   2.582   4.866   2.659 -0.6466  0.4744 -2.2495
 3778SOL    HW214866   2.715   4.923   2.614  0.4641  0.4929  0.7963
 3779SOL     OW14867   2.263   6.215   0.187  0.4584 -0.0934  0.5720
 3779SOL    HW114868   2.311   6.190   0.108  1.2836 -0.3246  1.1332
 3779SOL    HW214869   2.213   6.137   0.210  0.4356 -0.1195  0.4391
 3780SOL     OW14870   7.916   6.973   7.608 -0.1805 -0.2363  0.1312
 3780SOL    HW114871   7.951   6.941   7.691  1.7756 -1.5455 -1.1137
 3780SOL    HW214872   7.825   6.993   7.627  0.6081  1.1654  3.0128
 3781SOL     OW14873   2.087   5.883   8.000  1.0642  0.5973  0.5974
 3781SOL    HW114874   2.089   5.800   7.952 -3.1640 -0.1338  1.3227
 3781SOL    HW214875   2.071   5.949   7.933 -1.2768  0.0180  0.5094
 3782SOL     OW14876   7.744   5.923   7.889  0.0016 -0.1808  0.4665
 3782SOL    HW114877   7.715   5.838   7.858 -0.1386  0.4812 -1.3307
 3782SOL    HW214878   7.664   5.970   7.911 -0.0732  0.1999 -0.5576
 3783SOL     OW14879   9.840   7.018   6.697 -0.4648  0.3412 -0.1285
 3783SOL    HW114880   9.828   7.097   6.750  0.2858  0.7043 -0.4843
 3783SOL    HW214881   9.935   7.004   6.695 -0.6455 -1.3695  1.0826
 3784SOL     OW14882   6.613   4.958   0.523  0.1492 -0.3050  0.1309
 3784SOL    HW114883   6.707   4.968   0.510  0.1395 -1.5798 -1.1958
 3784SOL    HW214884   6.578   5.047   0.515  0.7664 -0.2082 -4.4075
 3785SOL     OW14885   3.858   0.987   1.477  0.0970 -0.3901 -0.4029
 3785SOL    HW114886   3.786   0.946   1.524 -1.1182 -1.9155 -3.3440
 3785SOL    HW214887   3.821   1.067   1.441  0.8859  0.5261  0.7411
 3786SOL     OW14888   7.854   2.739   9.550 -0.0528 -0.2172  0.0727
 3786SOL    HW114889   7.948   2.729   9.565 -0.1157 -1.1506 -0.0693
 3786SOL    HW214890   7.814   2.669   9.602 -0.6610  0.0890  0.0288
 3787SOL     OW14891   8.925   4.284   7.282  0.4266 -0.2375  0.0464
 3787SOL    HW114892   8.867   4.307   7.210  0.3680  2.7218  0.9102
 3787SOL    HW214893   8.871   4.292   7.361  1.2233 -0.4344  0.6267
 3788SOL     OW14894   6.360   8.855   3.646  0.2947 -0.0357 -0.7255
 3788SOL    HW114895   6.387   8.894   3.729  1.5160 -0.9838 -0.6554
 3788SOL    HW214896   6.428   8.791   3.626  0.1409  0.3111 -2.5626
 3789SOL     OW14897   9.350   7.848   9.251  0.4950  0.5969  0.1127
 3789SOL    HW114898   9.389   7.896   9.325  1.2025 -1.4574  1.1304
 3789SOL    HW214899   9.345   7.758   9.280 -1.5346  0.1263 -1.4698
 3790SOL     OW14900   5.281   1.897   3.877  0.3889  0.3126  0.2327
 3790SOL    HW114901   5.284   1.832   3.947 -1.3205 -0.3216 -0.2323
 3790SOL    HW214902   5.196   1.883   3.835  1.6292  0.1656 -2.4517
 3791SOL     OW14903   1.640   3.118  10.259  0.8444 -0.3230 -0.0382
 3791SOL    HW114904   1.692   3.044  10.229  2.0053 -0.0266  1.1555
 3791SOL    HW214905   1.701   3.192  10.262 -0.1665  0.5910 -0.7063
 3792SOL     OW14906   5.188   2.504   6.129  0.3089 -0.6155  0.1516
 3792SOL    HW114907   5.167   2.425   6.080 -0.2738  0.0299 -0.6668
 3792SOL    HW214908   5.151   2.575   6.077  4.0484  0.6019 -1.1226
 3793SOL     OW14909   8.323  10.676   4.820 -0.1773  0.1711 -0.2581
 3793SOL    HW114910   8.280  10.710   4.742 -2.0569 -1.3614  0.0099
 3793SOL    HW214911   8.296  10.735   4.890 -1.2882 -0.3340 -0.2340
 3794SOL     OW14912   1.182   5.472   3.395  0.5996  0.2441 -0.0164
 3794SOL    HW114913   1.271   5.471   3.360  1.1167 -0.3223  1.2620
 3794SOL    HW214914   1.128   5.500   3.321  1.7526 -0.0216 -0.9965
 3795SOL     OW14915   8.073   1.227  10.474 -0.2835  0.2508 -0.1376
 3795SOL    HW114916   8.110   1.227  10.385 -1.2966  0.1244 -0.5741
 3795SOL    HW214917   8.114   1.152  10.517  2.4720  1.9717  0.5113
 3796SOL     OW14918   7.901   1.893   6.024  0.1859 -0.8380 -0.5934
 3796SOL    HW114919   7.851   1.951   6.081 -1.0602 -1.6595 -0.7978
 3796SOL    HW214920   7.883   1.805   6.058 -0.4237 -1.3288 -2.0855
 3797SOL     OW14921   8.900   0.017   7.610 -0.1356  0.0255 -0.0617
 3797SOL    HW114922   8.862   0.063   7.684 -0.8455  2.6053 -1.9059
 3797SOL    HW214923   8.986   0.057   7.598  0.6185 -1.4362  0.2556
 3798SOL     OW14924   6.210   8.636   2.156  0.1052  0.4283 -0.3537
 3798SOL    HW114925   6.123   8.675   2.148  0.4012  1.6528  1.7459
 3798SOL    HW214926   6.193   8.542   2.162 -1.2839  0.7371  1.6691
 3799SOL     OW14927   5.097   5.760   8.198  0.0249 -0.4337 -0.0660
 3799SOL    HW114928   5.192   5.757   8.183  0.2944  1.0015  1.1040
 3799SOL    HW214929   5.089   5.763   8.294 -1.1657  0.2499 -0.1781
 3800SOL     OW14930   5.688   0.141  10.729  0.5219  0.6876  0.6993
 3800SOL    HW114931   5.726   0.158  10.643  0.3385 -0.3901  0.3792
 3800SOL    HW214932   5.764   0.131  10.787  0.6369  2.0102  0.8091
 3801SOL     OW14933   8.672   2.735   4.213  0.2608  0.1885 -0.4585
 3801SOL    HW114934   8.714   2.725   4.299 -0.3907 -0.6732 -0.2285
 3801SOL    HW214935   8.595   2.678   4.217 -0.3036  0.8726 -1.2786
 3802SOL     OW14936   5.842   3.795   6.387  0.0861 -0.3879 -0.6517
 3802SOL    HW114937   5.810   3.875   6.344 -0.6938  1.4113  2.8728
 3802SOL    HW214938   5.937   3.800   6.379 -0.0247 -0.0205 -1.9228
 3803SOL     OW14939   6.080   5.400   5.488 -0.0802 -0.5280  0.2477
 3803SOL    HW114940   6.059   5.382   5.580  1.0327  0.3742  0.7064
 3803SOL    HW214941   6.061   5.318   5.442 -0.0832 -1.1786  1.3769
 3804SOL     OW14942   8.181   2.497   7.131 -0.2326 -0.2358 -0.0537
 3804SOL    HW114943   8.255   2.550   7.102  0.9006 -0.6761  1.8387
 3804SOL    HW214944   8.134   2.475   7.051  1.8315 -0.1532 -1.3624
 3805SOL     OW14945   2.598  10.230   6.560 -0.2432  0.2577 -0.2200
 3805SOL    HW114946   2.634  10.234   6.471  0.4488  0.0233  0.0370
 3805SOL    HW214947   2.561  10.317   6.575  0.4896  0.6063 -0.3906
 3806SOL     OW14948   4.990   6.678   9.874  0.5939  0.2909  0.4048
 3806SOL    HW114949   5.066   6.725   9.839  1.0332 -0.2271  0.6445
 3806SOL    HW214950   4.935   6.661   9.798  0.8531  0.4248  0.1876
 3807SOL     OW14951   9.991   7.523   8.430  1.0176  0.0466  0.3815
 3807SOL    HW114952  10.043   7.443   8.428 -0.5171 -0.9978 -0.9711
 3807SOL    HW214953   9.924   7.506   8.496  0.8261  0.3105  0.2586
 3808SOL     OW14954   6.654   4.951   9.530  0.0962  0.2566 -0.7877
 3808SOL    HW114955   6.695   4.978   9.448  0.0097  0.3375 -0.8053
 3808SOL    HW214956   6.613   5.031   9.564 -1.7679 -0.2112 -1.7708
 3809SOL     OW14957   4.238   5.841   2.168 -0.4485 -0.5973 -0.1088
 3809SOL    HW114958   4.153   5.830   2.126 -0.2178 -1.3717 -0.3978
 3809SOL    HW214959   4.241   5.772   2.235 -0.4261  0.0215  0.5372
 3810SOL     OW14960   1.812   6.481   3.807 -0.0631 -0.6273 -0.3175
 3810SOL    HW114961   1.782   6.566   3.839 -0.5524 -1.0642  0.4174
 3810SOL    HW214962   1.749   6.418   3.842 -0.2983 -1.1968 -1.6949
 3811SOL     OW14963   6.948   4.556   0.066  0.0656 -0.1672 -0.3918
 3811SOL    HW114964   6.886   4.616   0.023 -0.9186 -0.3785  0.6998
 3811SOL    HW214965   7.032   4.576   0.025 -0.7060  0.1345 -1.9024
 3812SOL     OW14966   0.892   9.875   3.416 -0.0042 -0.6046  0.4052
 3812SOL    HW114967   0.942   9.932   3.358  0.2355 -1.0296  0.1843
 3812SOL    HW214968   0.958   9.838   3.475 -0.3052  0.1708  1.2511
 3813SOL     OW14969   8.531   0.647   8.715 -0.2366  0.5152 -0.2550
 3813SOL    HW114970   8.534   0.722   8.774 -0.3098 -0.6503  1.3133
 3813SOL    HW214971   8.617   0.605   8.724 -1.1445 -1.1988  1.1961
 3814SOL     OW14972   1.556   8.154   8.042  0.5785 -0.2039 -0.2951
 3814SOL    HW114973   1.592   8.242   8.050  1.8608 -0.6697 -0.7646
 3814SOL    HW214974   1.581   8.126   7.954  1.3603 -1.5423  0.3277
 3815SOL     OW14975  10.595   2.064   5.407  0.4436  0.3408  0.3360
 3815SOL    HW114976  10.618   2.093   5.495  0.2991 -0.1999  0.5587
 3815SOL    HW214977  10.499   2.065   5.406  0.4293 -0.4134  0.4517
 3816SOL     OW14978   5.836   1.158  10.895 -0.0282  0.4138 -0.2652
 3816SOL    HW114979   5.841   1.141  10.990  0.7952 -1.1095 -0.5448
 3816SOL    HW214980   5.767   1.099  10.864 -0.2053  0.8179 -0.6371
 3817SOL     OW14981   2.864   6.401   6.310  0.1120 -0.3762  0.8280
 3817SOL    HW114982   2.826   6.464   6.248 -0.5479 -0.4496  1.1434
 3817SOL    HW214983   2.789   6.348   6.338  0.5892 -1.0361  0.8795
 3818SOL     OW14984   7.975   1.974  10.381  0.1857 -0.1022 -0.0876
 3818SOL    HW114985   7.892   2.012  10.351  0.6613  0.1788 -1.0676
 3818SOL    HW214986   8.039   2.044  10.368  0.5820 -0.3007  0.7150
 3819SOL     OW14987   8.937  10.098   8.599 -0.2868 -0.0754  0.3515
 3819SOL    HW114988   8.986  10.121   8.520 -1.1626 -0.6676 -0.3838
 3819SOL    HW214989   8.866  10.162   8.602  0.8056  1.1320  1.7170
 3820SOL     OW14990   7.869   3.786   8.569 -0.2416 -0.0569  0.4850
 3820SOL    HW114991   7.830   3.731   8.637  2.0666  0.4198  2.2897
 3820SOL    HW214992   7.938   3.835   8.614  1.5685  0.0933 -2.2564
 3821SOL     OW14993   5.007   7.909   6.568 -0.0757  0.5791  0.4422
 3821SOL    HW114994   4.913   7.892   6.555  0.0681 -0.7693  0.9146
 3821SOL    HW214995   5.012   7.999   6.601 -1.0869  1.1282 -0.8501
 3822SOL     OW14996   6.773   1.411   9.654  0.1521  0.2364  0.0849
 3822SOL    HW114997   6.700   1.398   9.593  0.8935 -0.2229 -0.7211
 3822SOL    HW214998   6.820   1.327   9.654 -0.0938  0.0614  1.6584
 3823SOL     OW14999   7.300   7.430   0.910 -0.3332 -0.3411  0.0028
 3823SOL    HW115000   7.306   7.526   0.910 -0.6065 -0.3088  1.0895
 3823SOL    HW215001   7.391   7.401   0.921 -0.0589 -0.2640 -1.7102
 3824SOL     OW15002   9.520   2.872   2.304  0.2133 -0.3949 -0.2756
 3824SOL    HW115003   9.496   2.956   2.343 -0.3266  0.3053 -2.0562
 3824SOL    HW215004   9.612   2.881   2.281  0.5927 -0.8852  0.9471
 3825SOL     OW15005   5.665   9.840   4.220  0.3740 -0.4702  0.3235
 3825SOL    HW115006   5.647   9.789   4.141  0.7324 -0.1736  0.0482
 3825SOL    HW215007   5.580   9.879   4.243  0.7832  1.7310 -1.5315
 3826SOL     OW15008   8.860   3.443   8.795  0.1998  0.0656  0.1229
 3826SOL    HW115009   8.826   3.357   8.771  1.8990 -0.4878 -0.5067
 3826SOL    HW215010   8.817   3.464   8.878  1.0980 -2.2946  1.2999
 3827SOL     OW15011   5.460   5.692   9.042  0.0345 -0.4492 -0.3593
 3827SOL    HW115012   5.396   5.640   8.993 -0.7576 -0.9203  1.0941
 3827SOL    HW215013   5.407   5.761   9.083  0.2454 -1.4046  1.6353
 3828SOL     OW15014   8.411   1.301  10.487  0.3303 -0.3104 -0.8876
 3828SOL    HW115015   8.451   1.306  10.574  1.8605 -0.6689 -1.5379
 3828SOL    HW215016   8.366   1.217  10.486  0.7891 -0.5650 -0.6302
 3829SOL     OW15017   3.756   7.868   5.575 -0.2914 -0.5475  0.9492
 3829SOL    HW115018   3.747   7.947   5.522 -1.6136 -0.4232  1.3090
 3829SOL    HW215019   3.746   7.796   5.513 -0.2830 -0.4201  0.7994
 3830SOL     OW15020   3.171   5.948   7.340 -0.1493  0.2700  0.1256
 3830SOL    HW115021   3.134   5.901   7.265  0.7681  1.2814 -1.0071
 3830SOL    HW215022   3.130   5.908   7.417 -0.2359 -1.5864 -0.8490
 3831SOL     OW15023   8.092   5.513   4.097  0.3201  0.0177 -0.9580
 3831SOL    HW115024   8.184   5.501   4.116  0.2369 -0.2230 -0.7129
 3831SOL    HW215025   8.072   5.602   4.127 -0.3668 -1.1161  2.2645
 3832SOL     OW15026   2.923   6.792   9.268  0.6339 -0.1387  0.0235
 3832SOL    HW115027   2.893   6.883   9.263  0.6933 -0.1411 -0.3286
 3832SOL    HW215028   2.885   6.750   9.191  0.1388 -0.5480  0.4826
 3833SOL     OW15029   0.195  10.948   1.848 -0.2190 -0.4025 -0.2707
 3833SOL    HW115030   0.173  11.014   1.913 -1.9974 -0.5522 -0.6519
 3833SOL    HW215031   0.140  10.873   1.870  1.5435 -1.6704 -0.0264
 3834SOL     OW15032   9.099   5.319   2.759 -0.5998  0.1988 -0.3764
 3834SOL    HW115033   9.094   5.391   2.697 -2.3548  1.9785  1.6637
 3834SOL    HW215034   9.187   5.324   2.796 -0.3944  0.6973 -0.9379
 3835SOL     OW15035   4.610   0.511   3.676  0.2705  0.2550 -0.0119
 3835SOL    HW115036   4.633   0.588   3.624  0.9063  0.7945  1.0193
 3835SOL    HW215037   4.693   0.477   3.708  0.0294 -1.1309 -0.7795
 3836SOL     OW15038   2.522   5.056  10.301 -0.1274  0.2165  0.2920
 3836SOL    HW115039   2.549   5.083  10.388  0.3719  0.5272  0.0487
 3836SOL    HW215040   2.438   5.100  10.287  0.4195  1.2305  0.1111
 3837SOL     OW15041   3.770   8.280   4.900  0.1488 -0.0515  0.0914
 3837SOL    HW115042   3.761   8.372   4.874  0.6118  0.1974  0.7780
 3837SOL    HW215043   3.826   8.283   4.978 -0.8580 -0.7948  0.8692
 3838SOL     OW15044   6.544   9.786   6.442 -0.0788  0.1819  0.3171
 3838SOL    HW115045   6.588   9.871   6.436 -0.6091  0.3999 -0.7324
 3838SOL    HW215046   6.453   9.807   6.466 -0.1757 -0.0948  0.2056
 3839SOL     OW15047   8.884   5.004   6.392 -0.2473  0.1392 -0.3890
 3839SOL    HW115048   8.875   4.953   6.312  1.9649  1.1831 -1.4089
 3839SOL    HW215049   8.849   5.090   6.369 -0.4437  0.1802  0.0640
 3840SOL     OW15050   6.075   5.342   0.609  0.1997  0.1626  0.0915
 3840SOL    HW115051   6.069   5.383   0.523  1.0926 -3.1459 -1.7363
 3840SOL    HW215052   6.167   5.348   0.633  0.4188 -1.0040 -0.3860
 3841SOL     OW15053   2.594   9.410   1.265 -0.3435  0.0340  0.3103
 3841SOL    HW115054   2.520   9.362   1.227  0.0178 -0.1220 -0.2052
 3841SOL    HW215055   2.555   9.491   1.298 -0.6808  0.1427 -0.3318
 3842SOL     OW15056  10.127   3.720   8.900 -0.3751 -0.1610 -0.2671
 3842SOL    HW115057  10.163   3.761   8.822 -0.2799  0.6458  0.1833
 3842SOL    HW215058  10.182   3.643   8.915  2.6608  2.1408  1.6180
 3843SOL     OW15059   2.513   1.205  11.018 -0.2266  0.3585  0.2916
 3843SOL    HW115060   2.455   1.145  10.972 -0.4212  0.3305  0.5746
 3843SOL    HW215061   2.582   1.149  11.053  0.1505  0.4306 -0.3157
 3844SOL     OW15062   4.272   1.376   8.227  0.0457  0.6520  0.1404
 3844SOL    HW115063   4.333   1.448   8.244  0.7094  0.2531 -0.4762
 3844SOL    HW215064   4.209   1.412   8.164 -0.1250  0.9485  0.4810
 3845SOL     OW15065   4.550   9.558   5.901 -0.1272 -0.1346  0.2896
 3845SOL    HW115066   4.621   9.496   5.914  0.5888  0.5611 -0.2425
 3845SOL    HW215067   4.534   9.595   5.988  1.0110  0.6049  0.2082
 3846SOL     OW15068   4.349  10.373   1.656 -0.1668 -0.3870 -0.6450
 3846SOL    HW115069   4.409  10.444   1.631 -0.2202  0.1520  0.6716
 3846SOL    HW215070   4.311  10.344   1.573 -0.5532  1.4983 -1.1694
 3847SOL     OW15071  10.562  10.924   1.074 -0.0156 -0.1403 -0.4743
 3847SOL    HW115072  10.530  10.921   1.164  0.4380 -0.7401 -0.3346
 3847SOL    HW215073  10.646  10.969   1.080 -0.0252 -0.1024 -0.6125
 3848SOL     OW15074   4.899   6.213   1.885 -0.5515  0.1006  0.2675
 3848SOL    HW115075   4.970   6.275   1.869 -0.1217 -0.5687 -0.4527
 3848SOL    HW215076   4.932   6.154   1.952 -0.9552  0.6194  0.9414
 3849SOL     OW15077   2.696  10.736   2.838 -0.0458  0.5331 -0.3845
 3849SOL    HW115078   2.669  10.756   2.927  2.4059 -0.0256  0.5553
 3849SOL    HW215079   2.641  10.662   2.812 -2.7739  2.4496 -0.4928
 3850SOL     OW15080   8.429  10.483   6.623 -0.2142 -0.0172  0.1332
 3850SOL    HW115081   8.363  10.548   6.646 -0.2246 -0.5131  1.6026
 3850SOL    HW215082   8.419  10.414   6.688 -0.3104 -1.5999 -1.4918
 3851SOL     OW15083   9.206   9.075   9.846 -0.2866  0.2127  0.5071
 3851SOL    HW115084   9.280   9.015   9.850 -1.2971 -1.0739  0.4838
 3851SOL    HW215085   9.239   9.151   9.798  0.8805 -0.5179  0.1288
 3852SOL     OW15086   6.076  10.505   6.843  0.5050  0.0644  0.2149
 3852SOL    HW115087   6.066  10.589   6.888 -0.4415 -0.7033  1.5004
 3852SOL    HW215088   6.085  10.441   6.913  0.4293 -1.0146 -0.7308
 3853SOL     OW15089   0.578   7.905   3.913  0.5975 -0.6684 -0.1389
 3853SOL    HW115090   0.611   7.815   3.920  1.4225 -0.6024 -2.4035
 3853SOL    HW215091   0.646   7.959   3.952 -0.2314 -1.0085  1.9266
 3854SOL     OW15092   1.915   7.412   9.866  0.0546 -0.4345  0.4098
 3854SOL    HW115093   1.966   7.479   9.821 -2.1878  0.2597 -1.2395
 3854SOL    HW215094   1.976   7.338   9.874  1.7511  0.8212 -0.1543
 3855SOL     OW15095   8.383   5.168   4.374 -0.2470  0.2411  0.2551
 3855SOL    HW115096   8.448   5.213   4.320 -0.7731  0.7664  0.0505
 3855SOL    HW215097   8.303   5.219   4.363 -0.4846  0.0826  1.1638
 3856SOL     OW15098   7.695   2.520   8.306 -0.0501  0.4783  0.0103
 3856SOL    HW115099   7.772   2.486   8.260  0.6557  1.2850  0.5858
 3856SOL    HW215100   7.661   2.444   8.354  0.6923  0.2446  0.1785
 3857SOL     OW15101   7.964   9.978   0.488 -0.0068 -0.1332 -0.1421
 3857SOL    HW115102   7.952   9.970   0.393 -0.6476  1.9640 -0.2955
 3857SOL    HW215103   8.009   9.898   0.513  1.6689 -0.0397 -2.4885
 3858SOL     OW15104   9.913   9.817   7.143 -0.1680  0.5321  0.1256
 3858SOL    HW115105   9.921   9.860   7.228 -1.1728 -0.4870  0.7785
 3858SOL    HW215106   9.854   9.743   7.160  2.0660 -1.5774 -0.7303
 3859SOL     OW15107  10.280   9.258   8.809  0.3820 -0.7137  0.3707
 3859SOL    HW115108  10.341   9.271   8.882  1.9774  1.3386 -1.1995
 3859SOL    HW215109  10.292   9.166   8.784 -0.9949 -1.8167  3.2397
 3860SOL     OW15110   1.018   1.673   8.984  0.0712 -0.4019 -0.2582
 3860SOL    HW115111   1.100   1.692   9.030  0.4539 -1.2895 -0.5499
 3860SOL    HW215112   1.025   1.581   8.960 -0.2924 -0.0631 -1.7454
 3861SOL     OW15113   6.845   3.190   6.711  0.1344  0.3089 -0.1026
 3861SOL    HW115114   6.922   3.160   6.758  0.6636 -0.3052 -1.3188
 3861SOL    HW215115   6.839   3.132   6.635 -2.3011 -0.5474  0.6429
 3862SOL     OW15116   8.296   1.398   9.972  0.0623  0.1584 -0.2231
 3862SOL    HW115117   8.348   1.386  10.052 -0.4138  2.6024  0.5334
 3862SOL    HW215118   8.214   1.436  10.003  0.0943  1.7214 -1.8827
 3863SOL     OW15119   6.377   5.645   7.075  0.2970 -0.3670 -0.4107
 3863SOL    HW115120   6.294   5.691   7.059  2.1635  3.1935 -0.6375
 3863SOL    HW215121   6.369   5.565   7.023 -1.7363  1.4252 -3.1481
 3864SOL     OW15122   2.583   8.751   9.996  0.6822  0.2993 -0.1209
 3864SOL    HW115123   2.635   8.720  10.070  1.7644  0.3313 -0.8473
 3864SOL    HW215124   2.517   8.683   9.983 -0.0352  0.6562  1.3380
 3865SOL     OW15125   9.782   6.852   8.014  0.0551 -0.0221  0.1711
 3865SOL    HW115126   9.767   6.789   8.084 -1.7989 -2.4533 -2.2374
 3865SOL    HW215127   9.819   6.801   7.942  0.6241  2.0908 -1.1482
 3866SOL     OW15128   4.103   8.520   1.179  0.1194  0.7325 -0.2503
 3866SOL    HW115129   4.186   8.533   1.226  0.7963  2.0157 -1.6938
 3866SOL    HW215130   4.055   8.602   1.193 -0.3030  0.5428 -0.5768
 3867SOL     OW15131   7.811   5.292   6.566  0.2106  0.1841 -0.4811
 3867SOL    HW115132   7.875   5.361   6.551 -1.3144  1.2869 -2.2586
 3867SOL    HW215133   7.794   5.255   6.480  0.3885 -1.9005  0.3261
 3868SOL     OW15134   2.189   4.806   5.547 -0.2664  0.1162 -0.1518
 3868SOL    HW115135   2.171   4.872   5.613  0.1314 -0.1209  0.2010
 3868SOL    HW215136   2.113   4.748   5.548 -0.7116  0.6894 -0.6150
 3869SOL     OW15137   6.643   6.674   8.339  0.5952  0.1273 -0.1465
 3869SOL    HW115138   6.673   6.639   8.423  0.6457 -0.0160 -0.2238
 3869SOL    HW215139   6.548   6.683   8.349  0.4241 -1.0719 -0.4963
 3870SOL     OW15140   0.691   1.185   7.671  0.4962 -0.8775 -0.4031
 3870SOL    HW115141   0.630   1.153   7.737  0.5047  0.8293  0.4719
 3870SOL    HW215142   0.637   1.235   7.610  0.9773  0.5531  0.3168
 3871SOL     OW15143   1.369  10.650   7.850 -0.1322 -0.3292 -0.2525
 3871SOL    HW115144   1.278  10.626   7.862  0.0511 -1.4490 -0.9607
 3871SOL    HW215145   1.408  10.642   7.937 -0.7010  0.1350  0.0445
 3872SOL     OW15146   6.485   5.938   4.067 -0.3106  0.5102  0.0411
 3872SOL    HW115147   6.521   5.897   3.988  0.0935 -2.0231  1.4053
 3872SOL    HW215148   6.390   5.928   4.058 -0.2184 -0.8979  0.3659
 3873SOL     OW15149  10.967   0.244   0.977  0.0836 -0.3033  0.1387
 3873SOL    HW115150  11.015   0.167   1.006  2.5999  1.5659  1.2951
 3873SOL    HW215151  11.028   0.291   0.921 -2.3788 -0.4635 -3.0050
 3874SOL     OW15152  11.081   9.199   3.562  0.3025  0.0484 -0.2416
 3874SOL    HW115153  11.066   9.128   3.624  1.7207 -0.6408 -0.6354
 3874SOL    HW215154  11.010   9.191   3.498 -0.8437  0.4230  0.9535
 3875SOL     OW15155   1.376   2.080  10.867  0.6711  0.0729  0.1080
 3875SOL    HW115156   1.457   2.096  10.817  1.2459  1.9225  1.5092
 3875SOL    HW215157   1.390   1.995  10.909  2.0473  0.4873  0.5452
 3876SOL     OW15158   5.074   4.782   8.710  0.2970 -0.2225 -0.2246
 3876SOL    HW115159   5.068   4.730   8.790 -1.2639 -0.3824 -0.4175
 3876SOL    HW215160   5.126   4.859   8.735 -0.8058  0.1062  1.1499
 3877SOL     OW15161   7.186  10.940   7.086  0.3290  0.7089  0.0980
 3877SOL    HW115162   7.117  10.891   7.042 -0.8166  1.9884  0.3824
 3877SOL    HW215163   7.263  10.928   7.032 -0.5051  0.4927 -1.0743
 3878SOL     OW15164   1.540   2.727   7.376  0.3154  0.2982  0.2425
 3878SOL    HW115165   1.558   2.748   7.467 -1.0952  0.8636  0.4230
 3878SOL    HW215166   1.446   2.707   7.374  0.0935  1.3109 -1.2521
 3879SOL     OW15167  10.091   5.885   1.618  0.3520  0.2821 -0.1362
 3879SOL    HW115168  10.010   5.835   1.630  1.7062 -2.3114 -0.9635
 3879SOL    HW215169  10.074   5.940   1.542 -0.7091 -0.0350 -0.1508
 3880SOL     OW15170  10.869   1.711   1.438  0.1741  0.1149  0.2130
 3880SOL    HW115171  10.889   1.630   1.392 -1.2698 -0.0995 -0.0712
 3880SOL    HW215172  10.850   1.684   1.527 -1.2081  0.0081 -0.0969
 3881SOL     OW15173   3.246   0.106   1.651  0.0060 -0.2892 -0.1083
 3881SOL    HW115174   3.256   0.011   1.661 -1.7068 -0.6866 -1.5800
 3881SOL    HW215175   3.335   0.140   1.652  0.6139 -1.8264  1.1051
 3882SOL     OW15176   0.076   4.060   7.719  0.2374  0.3731 -0.3471
 3882SOL    HW115177   0.064   4.142   7.672 -2.5824  0.6107  0.5715
 3882SOL    HW215178   0.032   4.074   7.803  0.6494 -1.7089  0.2776
 3883SOL     OW15179   7.427   6.106   4.084  0.4945  0.4770  0.3447
 3883SOL    HW115180   7.366   6.047   4.038 -0.2447  1.2778  0.2736
 3883SOL    HW215181   7.392   6.110   4.173  1.2056 -0.0884  0.6535
 3884SOL     OW15182   4.924   0.010   5.274 -0.4823  0.8885 -0.1499
 3884SOL    HW115183   4.984  -0.003   5.201  1.4466  2.0001  1.1417
 3884SOL    HW215184   4.864  -0.064   5.270  0.4003  0.2263 -2.0436
 3885SOL     OW15185  10.193   1.731   7.560 -0.1131  0.3080 -0.1830
 3885SOL    HW115186  10.149   1.734   7.475 -0.4108 -0.7209 -0.0820
 3885SOL    HW215187  10.129   1.693   7.619 -0.9784  3.6268  1.2307
 3886SOL     OW15188  10.861   8.486   3.663  0.2337  1.1781  0.5394
 3886SOL    HW115189  10.894   8.396   3.669 -1.9151  0.3359  0.5862
 3886SOL    HW215190  10.766   8.476   3.653 -0.5403  3.4751  3.9186
 3887SOL     OW15191   3.474   0.017   6.498  0.3510  0.0367 -0.0592
 3887SOL    HW115192   3.410   0.029   6.568 -0.4171  0.6027 -0.8362
 3887SOL    HW215193   3.540   0.085   6.514  0.2498  0.0796  0.1815
 3888SOL     OW15194   6.699   6.703   9.807  0.6386  0.1817 -0.2863
 3888SOL    HW115195   6.649   6.743   9.736  0.9954  1.1362 -0.0279
 3888SOL    HW215196   6.777   6.668   9.765  1.0149  1.0529 -0.3320
 3889SOL     OW15197   3.990  10.716   3.752 -0.0373  0.0891  0.0756
 3889SOL    HW115198   3.975  10.685   3.841  0.2817  0.3391  0.2167
 3889SOL    HW215199   4.085  10.727   3.745 -0.1643  1.3949  0.1551
 3890SOL     OW15200   9.603   1.637   0.564  0.5541 -0.5896 -0.0489
 3890SOL    HW115201   9.578   1.722   0.527  1.7561 -0.5105 -0.7110
 3890SOL    HW215202   9.559   1.635   0.649  0.4928  0.6933 -0.0238
 3891SOL     OW15203  10.707   4.103   5.209 -0.3310  0.0399 -0.1854
 3891SOL    HW115204  10.664   4.058   5.281  0.3296 -3.3401 -1.7277
 3891SOL    HW215205  10.641   4.107   5.139  0.1831 -0.2166 -0.6983
 3892SOL     OW15206  10.041   9.292   5.448 -0.3711  0.0922  0.1199
 3892SOL    HW115207  10.050   9.330   5.360  0.2353 -0.1696  0.0633
 3892SOL    HW215208  10.055   9.365   5.508  1.6378 -0.1622  0.0271
 3893SOL     OW15209   4.056   4.082   7.281 -0.3934  0.2337  0.0597
 3893SOL    HW115210   4.073   4.000   7.236 -0.9894  0.1367  0.0106
 3893SOL    HW215211   4.072   4.062   7.374 -1.7634 -0.2914  0.2074
 3894SOL     OW15212   7.637   2.344   7.792  0.3540 -0.7070  0.0765
 3894SOL    HW115213   7.652   2.368   7.701 -0.2394  0.2104  0.2063
 3894SOL    HW215214   7.585   2.416   7.828  1.1726 -0.6963  1.3249
 3895SOL     OW15215   3.097   5.595   4.724 -0.2463 -0.0874  0.3272
 3895SOL    HW115216   3.119   5.684   4.750  1.8556 -0.1736 -0.8948
 3895SOL    HW215217   3.135   5.540   4.793  2.3621 -0.1610 -1.0386
 3896SOL     OW15218   2.562   6.534   4.771  0.6909 -0.0607 -0.0706
 3896SOL    HW115219   2.648   6.522   4.732  0.3971 -0.2743 -0.6841
 3896SOL    HW215220   2.505   6.474   4.722  0.2402 -0.0952  0.4769
 3897SOL     OW15221  10.285   4.778   4.225 -0.5537  0.9675  0.3523
 3897SOL    HW115222  10.216   4.717   4.198  0.1960 -0.4191  1.4099
 3897SOL    HW215223  10.261   4.805   4.314 -0.5529  1.7349  0.1275
 3898SOL     OW15224   9.883   2.000   3.453 -0.4027 -0.3001  0.2346
 3898SOL    HW115225   9.948   2.070   3.441  0.0906 -0.4343  1.7913
 3898SOL    HW215226   9.836   1.996   3.370  0.8817  0.5283 -0.5738
 3899SOL     OW15227   3.126   3.168   6.059 -0.5963  0.0643 -0.0099
 3899SOL    HW115228   3.045   3.117   6.065 -0.6333  0.2017  0.7347
 3899SOL    HW215229   3.160   3.169   6.149  0.6902 -0.7513 -0.4606
 3900SOL     OW15230  10.933   9.785   1.421 -0.3370 -0.4741 -0.7076
 3900SOL    HW115231  10.879   9.724   1.371  1.0263 -1.1748 -1.3927
 3900SOL    HW215232  11.023   9.754   1.408  0.1094 -0.7031  2.2014
 3901SOL     OW15233   8.799   6.228   4.189 -0.1173 -0.3279 -0.4522
 3901SOL    HW115234   8.756   6.165   4.247 -0.4865  0.1381 -0.2045
 3901SOL    HW215235   8.836   6.294   4.248 -0.7574  0.3125 -0.7418
 3902SOL     OW15236   7.200   0.303   9.755 -0.7049 -0.8266 -0.1129
 3902SOL    HW115237   7.210   0.220   9.708 -4.1246 -1.4036 -0.0385
 3902SOL    HW215238   7.145   0.282   9.831 -0.1430  1.1947  0.9406
 3903SOL     OW15239   8.005   8.765   7.343 -0.5375 -0.1654 -0.5061
 3903SOL    HW115240   7.928   8.817   7.367  0.5127  0.6702  1.2475
 3903SOL    HW215241   7.998   8.754   7.248 -0.3933  3.9606 -1.1896
 3904SOL     OW15242   1.499   7.871   5.154  0.5095 -0.1813  0.2859
 3904SOL    HW115243   1.534   7.796   5.106  0.9101 -0.9686  1.7414
 3904SOL    HW215244   1.524   7.855   5.245  0.6147  1.7328  0.6446
 3905SOL     OW15245   6.991   1.125   2.316 -0.3479  0.2431 -0.0328
 3905SOL    HW115246   6.938   1.198   2.349  0.7362  1.0340  0.0126
 3905SOL    HW215247   7.079   1.142   2.350  0.0126 -0.8684 -0.3732
 3906SOL     OW15248   9.385   2.737  10.800 -0.0332  0.5619  0.0816
 3906SOL    HW115249   9.299   2.764  10.831 -0.3015 -0.7187  0.5321
 3906SOL    HW215250   9.441   2.743  10.877 -0.1534 -0.3415  0.2512
 3907SOL     OW15251   9.985   8.146   6.304 -0.2385  0.1406 -0.1202
 3907SOL    HW115252  10.064   8.194   6.328 -1.5773  2.9524 -0.8389
 3907SOL    HW215253   9.928   8.152   6.381 -0.7754  0.5830 -0.5362
 3908SOL     OW15254   0.730   5.935   1.483 -0.2901  1.0352 -0.5095
 3908SOL    HW115255   0.818   5.907   1.506 -0.9810 -1.6470 -0.7937
 3908SOL    HW215256   0.698   5.979   1.562  0.7269  0.6116  0.1621
 3909SOL     OW15257  11.101   6.488   2.116 -0.4018  0.0546  0.2057
 3909SOL    HW115258  11.190   6.521   2.106 -0.6154  1.1573  1.5695
 3909SOL    HW215259  11.053   6.525   2.042  0.4640 -1.4652 -1.1949
 3910SOL     OW15260   5.277   4.661   4.892 -0.4823 -0.0452 -0.4947
 3910SOL    HW115261   5.301   4.678   4.983  0.7839  1.4650 -1.0761
 3910SOL    HW215262   5.285   4.566   4.882  0.4937 -0.1053  0.6641
 3911SOL     OW15263   6.902   5.335   4.035  0.0632 -0.3391 -0.5962
 3911SOL    HW115264   6.823   5.325   4.087  1.8204  0.9994  2.5707
 3911SOL    HW215265   6.968   5.283   4.080  1.9589  1.7600 -0.7682
 3912SOL     OW15266   3.280   9.532   2.114  0.2063 -0.5958  0.5777
 3912SOL    HW115267   3.336   9.582   2.175 -0.9786  0.1852  1.0673
 3912SOL    HW215268   3.336   9.461   2.083  2.6927  2.1241 -1.7270
 3913SOL     OW15269   9.589   9.560   5.958  0.1430  0.1012  0.2053
 3913SOL    HW115270   9.641   9.558   6.038  2.2824  0.2224 -1.1204
 3913SOL    HW215271   9.585   9.653   5.934  0.7689 -0.0658 -0.5858
 3914SOL     OW15272  10.988   8.608   3.185  0.3212 -0.0699 -0.1324
 3914SOL    HW115273  11.024   8.528   3.147  0.0727  0.0033 -0.5290
 3914SOL    HW215274  11.065   8.662   3.203  0.4187  0.0658 -0.9318
 3915SOL     OW15275   1.946   5.268   2.903 -0.3153 -0.1196  0.2692
 3915SOL    HW115276   1.864   5.220   2.914 -0.8865  1.1111  1.6244
 3915SOL    HW215277   2.000   5.242   2.978  0.3628 -0.5308 -0.3405
 3916SOL     OW15278   2.991   4.798   2.137 -0.2144  0.4927 -0.8309
 3916SOL    HW115279   2.951   4.815   2.222  0.0696 -0.6091 -0.4609
 3916SOL    HW215280   3.030   4.882   2.112 -0.8830  1.0100 -0.1984
 3917SOL     OW15281   1.307   7.060   5.318  0.0963 -0.2258 -0.4509
 3917SOL    HW115282   1.216   7.038   5.335  0.5991 -0.3529  2.9594
 3917SOL    HW215283   1.354   6.977   5.328  0.8106  0.2898  0.8050
 3918SOL     OW15284   3.679   1.561   1.366  0.2560 -0.3433  0.0693
 3918SOL    HW115285   3.668   1.510   1.285  3.0610 -2.3805  0.7765
 3918SOL    HW215286   3.631   1.512   1.432 -0.9395  0.6007 -0.0637
 3919SOL     OW15287   8.088   1.845   7.507 -0.2355  0.3874  0.1895
 3919SOL    HW115288   8.033   1.900   7.452  0.2226  0.3945 -0.2679
 3919SOL    HW215289   8.123   1.904   7.574  1.4377  1.0029 -1.1618
 3920SOL     OW15290  10.803   5.539   6.575 -0.2913 -0.0407 -0.2959
 3920SOL    HW115291  10.759   5.547   6.491  0.5063  0.7910 -0.6403
 3920SOL    HW215292  10.742   5.487   6.629  0.0015 -2.2102 -1.9273
 3921SOL     OW15293   1.519   3.906   9.590 -0.0026  0.3129  0.2960
 3921SOL    HW115294   1.483   3.830   9.545  0.0179  0.5813 -0.1860
 3921SOL    HW215295   1.586   3.871   9.648 -0.9472 -0.1805  1.1065
 3922SOL     OW15296   1.906   1.308  10.811 -0.0461 -0.1429  0.1352
 3922SOL    HW115297   1.943   1.323  10.898  2.3420 -0.4635 -0.7513
 3922SOL    HW215298   1.926   1.388  10.762  0.4755 -0.7570 -0.6850
 3923SOL     OW15299   1.175   5.179   1.278 -0.3429  0.0571 -0.4008
 3923SOL    HW115300   1.258   5.193   1.324 -0.7437 -1.8678  1.0342
 3923SOL    HW215301   1.195   5.197   1.186  1.7045 -0.5024 -0.1132
 3924SOL     OW15302   9.264   0.520   3.621  0.0567  0.5392 -0.1589
 3924SOL    HW115303   9.190   0.505   3.562 -0.6024  2.0956  0.2184
 3924SOL    HW215304   9.234   0.588   3.681  1.5873  0.7708  0.4057
 3925SOL     OW15305   0.082   3.444   5.862 -0.0120  0.1325 -0.0109
 3925SOL    HW115306  -0.002   3.482   5.887 -0.3219 -0.7386  0.3217
 3925SOL    HW215307   0.140   3.519   5.850 -0.7672  0.7294  0.0145
 3926SOL     OW15308   1.768   9.063   1.539 -0.2197  0.8349 -0.1763
 3926SOL    HW115309   1.679   9.031   1.553  0.5345 -1.2043  0.3635
 3926SOL    HW215310   1.782   9.056   1.444 -1.2252  3.0210 -0.5529
 3927SOL     OW15311   3.581   9.027   7.215 -0.6371  0.0896  0.0336
 3927SOL    HW115312   3.658   9.083   7.217  0.7630 -1.7472  0.8978
 3927SOL    HW215313   3.507   9.087   7.228  0.7232  1.7571  0.4215
 3928SOL     OW15314   1.373   9.041   0.516  0.0990  0.2251  0.0197
 3928SOL    HW115315   1.441   9.005   0.573 -0.9656 -0.5152  0.8726
 3928SOL    HW215316   1.327   9.105   0.571 -0.6991 -0.2134 -0.1228
 3929SOL     OW15317   6.785   7.942  10.052  0.3867 -0.0206  0.4837
 3929SOL    HW115318   6.692   7.968  10.048  0.4346 -0.0023 -1.9160
 3929SOL    HW215319   6.790   7.884  10.128 -2.0768 -1.7083 -0.4833
 3930SOL     OW15320   8.029   7.498   1.122 -0.3004  0.4242 -0.1142
 3930SOL    HW115321   7.995   7.586   1.117 -0.7231  0.3264  0.8995
 3930SOL    HW215322   8.037   7.480   1.216  0.9314 -0.1696 -0.3030
 3931SOL     OW15323   5.228   9.065   9.782  0.3708  0.0343  0.4813
 3931SOL    HW115324   5.140   9.044   9.751 -0.8613  2.4288  2.0974
 3931SOL    HW215325   5.260   8.983   9.819 -0.7381 -1.1368 -1.0200
 3932SOL     OW15326   5.618   8.602   6.255  0.1349  0.0544 -0.7322
 3932SOL    HW115327   5.629   8.695   6.278 -0.9554  0.1235 -0.4460
 3932SOL    HW215328   5.704   8.576   6.222  0.5630  1.0711 -0.4776
 3933SOL     OW15329   2.195   4.279   7.801 -0.0999  0.0377 -0.3178
 3933SOL    HW115330   2.215   4.337   7.727  1.9446 -0.1234  0.0566
 3933SOL    HW215331   2.173   4.195   7.761  0.5821  0.0660 -0.7590
 3934SOL     OW15332  10.117   5.551   7.448  0.5408 -0.6850 -0.2047
 3934SOL    HW115333  10.112   5.469   7.399  1.7623 -0.5133 -0.6429
 3934SOL    HW215334  10.121   5.524   7.539 -2.9964 -0.9852  0.0068
 3935SOL     OW15335   1.502   1.296   0.626  0.4142  0.4405 -0.2363
 3935SOL    HW115336   1.544   1.355   0.689 -1.4030  2.2060 -0.6225
 3935SOL    HW215337   1.457   1.231   0.681  1.0783  0.3466  0.2134
 3936SOL     OW15338   4.605   1.413  10.538 -0.0266  0.3200  0.6234
 3936SOL    HW115339   4.683   1.365  10.566 -0.0501  0.1355  0.3851
 3936SOL    HW215340   4.559   1.436  10.619  0.3440  0.5458  0.7700
 3937SOL     OW15341   8.537   1.188   3.077  0.0152 -0.3145 -0.3612
 3937SOL    HW115342   8.578   1.200   3.162 -0.7186 -2.3918  0.3526
 3937SOL    HW215343   8.455   1.143   3.096 -0.2581 -0.6444 -2.1410
 3938SOL     OW15344   7.829   0.751   6.040 -0.5367 -0.5698  0.4282
 3938SOL    HW115345   7.758   0.808   6.012  0.2488  0.2373  0.0503
 3938SOL    HW215346   7.879   0.732   5.960 -0.1395 -0.8641  0.7379
 3939SOL     OW15347  10.523  10.394   5.695 -0.0586 -0.2453 -0.0535
 3939SOL    HW115348  10.437  10.351   5.694 -1.1967  1.8392  1.0546
 3939SOL    HW215349  10.542  10.411   5.603 -0.2347 -1.8129 -0.4054
 3940SOL     OW15350   4.037   1.395   4.100  0.2160 -0.3011  0.3058
 3940SOL    HW115351   4.040   1.490   4.115 -0.3331 -0.4808  1.6471
 3940SOL    HW215352   3.958   1.382   4.047  0.5617  0.0283 -0.3082
 3941SOL     OW15353   6.070  10.830   1.688  0.2876  0.3611 -0.1682
 3941SOL    HW115354   6.123  10.904   1.718  1.1076 -0.2186 -0.1854
 3941SOL    HW215355   6.075  10.766   1.760 -1.5337  0.8448  0.4631
 3942SOL     OW15356   4.811   9.081   4.683  0.2230  0.3330  0.0852
 3942SOL    HW115357   4.755   9.157   4.663 -0.5867 -0.6443 -1.6961
 3942SOL    HW215358   4.900   9.114   4.674 -0.1069  0.8789 -1.8457
 3943SOL     OW15359   2.600   1.763  10.456  0.5578  0.3651 -0.5939
 3943SOL    HW115360   2.535   1.718  10.510  1.1750  0.6159  0.3967
 3943SOL    HW215361   2.624   1.700  10.388  0.3412 -0.2630 -0.0925
 3944SOL     OW15362  10.158   3.250   9.637 -0.1430  0.1480  0.0541
 3944SOL    HW115363  10.181   3.322   9.695 -0.4512  0.0137  0.3455
 3944SOL    HW215364  10.241   3.227   9.594  0.0667  0.3119  0.3636
 3945SOL     OW15365  10.932  10.638   8.031  0.4988  0.0319  0.5048
 3945SOL    HW115366  10.852  10.586   8.028  0.7801 -0.4214  0.6022
 3945SOL    HW215367  10.971  10.628   7.944  1.6771 -1.7749  1.1750
 3946SOL     OW15368   2.554   2.019   7.166  0.2629 -0.7074  0.0144
 3946SOL    HW115369   2.486   2.071   7.210  0.7033 -1.3922  1.5626
 3946SOL    HW215370   2.574   1.949   7.227  0.9594 -1.6804 -1.2862
 3947SOL     OW15371   8.999   2.420   3.737 -0.4886  0.8141 -0.2562
 3947SOL    HW115372   9.071   2.424   3.673  0.5544  0.6524  0.8711
 3947SOL    HW215373   8.981   2.326   3.746 -0.4836  0.8235 -0.1523
 3948SOL     OW15374   5.807  10.486  10.554 -0.1131 -0.3962 -0.6509
 3948SOL    HW115375   5.763  10.410  10.592 -2.0411 -0.0451 -2.0353
 3948SOL    HW215376   5.739  10.530  10.503  0.8403  2.4908  0.3774
 3949SOL     OW15377   1.056  10.072   1.236  0.4837 -0.1879 -0.5875
 3949SOL    HW115378   1.024  10.076   1.146  0.2365 -0.6892 -0.5267
 3949SOL    HW215379   0.976  10.073   1.289  0.6658  1.6830 -0.2995
 3950SOL     OW15380   7.837   2.391   5.839  0.3438 -0.2614  0.3419
 3950SOL    HW115381   7.883   2.446   5.902 -0.0051  0.1864  0.2005
 3950SOL    HW215382   7.908   2.352   5.786  0.5700  0.3723  0.1701
 3951SOL     OW15383   6.136   8.891   7.359 -0.0882  0.1613 -0.0627
 3951SOL    HW115384   6.183   8.951   7.418 -0.5313  0.0711  0.3911
 3951SOL    HW215385   6.075   8.845   7.416 -1.7790  1.3155 -0.8556
 3952SOL     OW15386   5.157  10.789   3.805 -0.1946  0.4551  0.3769
 3952SOL    HW115387   5.170  10.707   3.759  1.9961 -0.1249  1.8586
 3952SOL    HW215388   5.230  10.844   3.778 -0.8060  1.3631  0.5330
 3953SOL     OW15389   0.929   6.078   0.726 -0.1194 -0.1222  0.4418
 3953SOL    HW115390   0.885   6.149   0.772 -1.1085  0.4998 -1.3691
 3953SOL    HW215391   0.979   6.122   0.657  0.9948 -1.0590  0.6126
 3954SOL     OW15392   2.957   1.932  10.221  0.5007  0.0812  0.3430
 3954SOL    HW115393   2.956   1.842  10.188 -0.0717  0.1620  0.1331
 3954SOL    HW215394   2.865   1.951  10.242  0.6254  0.6009  0.4237
 3955SOL     OW15395   5.868   4.717   7.231 -0.3468  0.3058 -0.4435
 3955SOL    HW115396   5.809   4.650   7.265  0.6564 -0.7005 -0.6491
 3955SOL    HW215397   5.928   4.670   7.174  0.8613  1.2558  0.0113
 3956SOL     OW15398   4.447   7.167   0.301 -0.3382 -0.3539 -0.3555
 3956SOL    HW115399   4.530   7.148   0.257 -1.4945  0.0138 -2.9020
 3956SOL    HW215400   4.407   7.237   0.248 -1.0464  1.5316  2.4545
 3957SOL     OW15401   2.191   5.840   9.186  0.6547 -0.4751 -0.8480
 3957SOL    HW115402   2.243   5.838   9.106 -0.3890 -0.4000 -1.5492
 3957SOL    HW215403   2.230   5.910   9.238  1.2194 -0.3929 -1.3660
 3958SOL     OW15404   8.237   2.285   9.435  0.0158 -0.1441 -0.2768
 3958SOL    HW115405   8.287   2.219   9.482  0.1310 -0.0864 -0.3184
 3958SOL    HW215406   8.205   2.239   9.357  0.1443 -0.1364 -0.3352
 3959SOL     OW15407   8.974   1.896   2.863 -0.7753 -0.5426  0.8788
 3959SOL    HW115408   8.982   1.818   2.808  1.5454 -1.1396  1.9806
 3959SOL    HW215409   8.932   1.865   2.943  0.0788 -0.6603  1.2868
 3960SOL     OW15410   8.153   6.527   2.369 -0.4066 -0.1825  0.0346
 3960SOL    HW115411   8.137   6.452   2.311  0.8573 -0.6824  0.3129
 3960SOL    HW215412   8.234   6.565   2.337  0.4983 -0.6695  1.6731
 3961SOL     OW15413   5.147   1.704   6.820  0.3203  0.2546  0.1866
 3961SOL    HW115414   5.176   1.795   6.823  0.3151  0.2540  0.2703
 3961SOL    HW215415   5.127   1.682   6.911 -0.1706  0.3321  0.1036
 3962SOL     OW15416   6.949   9.702   5.747  0.5129 -0.5445  0.2734
 3962SOL    HW115417   6.974   9.784   5.790  0.9126 -1.6552  2.2985
 3962SOL    HW215418   6.903   9.729   5.667 -2.1173  1.7157  2.3764
 3963SOL     OW15419   0.593   5.550   4.374  0.5607  0.5103  0.1733
 3963SOL    HW115420   0.657   5.495   4.329  0.3181 -0.2412  0.7294
 3963SOL    HW215421   0.645   5.599   4.438  0.7214  0.6659 -0.0712
 3964SOL     OW15422   3.511   9.046  10.037  0.3517 -0.9733 -0.2668
 3964SOL    HW115423   3.581   9.038  10.102  0.7801 -1.9356 -0.8229
 3964SOL    HW215424   3.542   8.994   9.962  0.5494  1.2816 -1.8383
 3965SOL     OW15425  10.700   1.961   6.554 -1.1095 -0.4065  0.5786
 3965SOL    HW115426  10.620   1.996   6.514 -1.7376 -0.0606  2.0629
 3965SOL    HW215427  10.682   1.963   6.648  0.9284  0.3829  1.0034
 3966SOL     OW15428   0.520   2.369   7.823  0.0849  0.2817 -0.8828
 3966SOL    HW115429   0.593   2.426   7.801 -0.4926  1.3840 -0.0174
 3966SOL    HW215430   0.458   2.381   7.751  0.0552  0.5814 -0.8077
 3967SOL     OW15431   6.464   1.903   3.641  0.3337  0.1944  0.3232
 3967SOL    HW115432   6.413   1.939   3.569  1.4708  0.6011 -0.3068
 3967SOL    HW215433   6.502   1.980   3.685 -2.2052  0.1620  2.8784
 3968SOL     OW15434   9.074   1.139   4.290 -0.0606 -0.8080 -0.0694
 3968SOL    HW115435   9.125   1.065   4.257  1.3068  0.7148 -1.5930
 3968SOL    HW215436   8.986   1.127   4.253  0.9146 -0.2119 -2.8470
 3969SOL     OW15437   2.020   7.265   2.633  0.4335 -0.0177  0.1042
 3969SOL    HW115438   2.061   7.232   2.712  0.5005  0.5740  0.3195
 3969SOL    HW215439   2.047   7.357   2.627  1.0842 -0.2620 -1.0275
 3970SOL     OW15440   2.208   1.692   7.203 -0.2987  0.1218  0.0255
 3970SOL    HW115441   2.181   1.703   7.111 -0.1697  1.7826  0.1425
 3970SOL    HW215442   2.170   1.609   7.230 -2.1463  0.6004 -0.9302
 3971SOL     OW15443   5.104   6.015   9.795 -0.3656  0.6938 -0.3928
 3971SOL    HW115444   5.091   6.108   9.778 -0.5878  0.6636 -0.3881
 3971SOL    HW215445   5.119   6.010   9.889 -0.0015  0.7632 -0.4440
 3972SOL     OW15446   5.139   2.631  10.214  0.8400 -0.2550 -0.4722
 3972SOL    HW115447   5.049   2.603  10.196  0.7916  0.8910 -2.2279
 3972SOL    HW215448   5.131   2.724  10.236  1.5193 -0.3593  0.2706
 3973SOL     OW15449   9.924   0.960  11.097  0.1686  0.0396  0.1120
 3973SOL    HW115450   9.907   0.953  11.003  1.5572  0.0872 -0.1601
 3973SOL    HW215451   9.839   0.983  11.134 -0.7529 -1.4928 -0.9368
 3974SOL     OW15452   8.669   7.975  10.069 -0.1103 -0.3394  0.5083
 3974SOL    HW115453   8.652   7.881  10.057  1.0952 -0.4077 -0.8387
 3974SOL    HW215454   8.763   7.985  10.055 -0.1500  1.0230  1.0575
 3975SOL     OW15455   1.695   1.886   5.776 -0.0440  0.2243 -0.6705
 3975SOL    HW115456   1.654   1.972   5.772 -0.5769 -0.0576 -1.3473
 3975SOL    HW215457   1.651   1.841   5.848 -0.9947 -0.0951 -1.4223
 3976SOL     OW15458   8.812   8.494   4.445 -0.4559  0.5314  0.4065
 3976SOL    HW115459   8.725   8.477   4.408 -0.5707 -0.2865  1.0360
 3976SOL    HW215460   8.864   8.417   4.422  0.3706  1.3763 -0.6949
 3977SOL     OW15461   1.992   7.399  10.442 -0.4629 -0.5243 -0.1990
 3977SOL    HW115462   2.024   7.350  10.366  0.7368 -1.4215  0.8378
 3977SOL    HW215463   2.044   7.479  10.442  0.1606 -0.9223  0.1592
 3978SOL     OW15464  10.483   2.506   3.203  0.3948  0.1406 -0.5723
 3978SOL    HW115465  10.405   2.562   3.209  1.1865  1.3860 -1.2620
 3978SOL    HW215466  10.508   2.490   3.293  1.2848  2.6191 -0.3066
 3979SOL     OW15467   6.654   2.374   6.519  0.3762  0.2670 -0.0813
 3979SOL    HW115468   6.604   2.454   6.537 -0.0369  0.1834 -0.8347
 3979SOL    HW215469   6.631   2.315   6.591 -1.7996 -0.3117 -1.1433
 3980SOL     OW15470   2.937   3.522   9.941  0.3793 -0.3680  0.1092
 3980SOL    HW115471   2.942   3.447   9.882  2.4594 -2.4477  2.6833
 3980SOL    HW215472   3.028   3.539   9.965 -0.0083  3.0106 -0.2480
 3981SOL     OW15473   5.858   8.337   1.441 -0.0266  0.3317  0.4811
 3981SOL    HW115474   5.892   8.329   1.352  2.1955 -1.8433  1.4015
 3981SOL    HW215475   5.800   8.413   1.438 -0.2812  0.1599 -2.8554
 3982SOL     OW15476   1.189  10.537   6.428  0.1076 -0.2357  0.0932
 3982SOL    HW115477   1.205  10.628   6.405  0.5326 -0.4517 -0.4995
 3982SOL    HW215478   1.129  10.505   6.361  0.7873 -0.6734 -0.3205
 3983SOL     OW15479   6.387   4.708   0.972  0.0443  0.4082 -0.4584
 3983SOL    HW115480   6.322   4.639   0.958  0.5146  0.3463 -2.6792
 3983SOL    HW215481   6.336   4.788   0.978 -0.2977  0.3135 -1.8143
 3984SOL     OW15482   8.477   5.228   1.446  0.2848 -0.1358 -0.6417
 3984SOL    HW115483   8.549   5.291   1.455 -0.6025  0.7865  0.3781
 3984SOL    HW215484   8.505   5.152   1.496 -0.2906  1.0429  1.6272
 3985SOL     OW15485   0.435  10.991  10.393  0.2145  0.4194  0.2075
 3985SOL    HW115486   0.446  11.069  10.339  1.1807 -0.0346 -0.2738
 3985SOL    HW215487   0.428  11.025  10.483  0.2679  1.0800 -0.0325
 3986SOL     OW15488   8.007   2.650   4.428  0.3054 -0.8452  0.2046
 3986SOL    HW115489   8.040   2.716   4.367  1.6949 -0.7177  1.0375
 3986SOL    HW215490   8.049   2.568   4.400  0.3894 -0.9218  0.5446
 3987SOL     OW15491   6.454   5.958   6.167  0.0202  0.5345 -0.3533
 3987SOL    HW115492   6.547   5.976   6.181 -0.4050  1.9249  0.8757
 3987SOL    HW215493   6.409   6.010   6.233 -1.4931 -2.8734  1.5417
 3988SOL     OW15494   1.251   3.994   1.516 -0.0806 -0.2805  0.1690
 3988SOL    HW115495   1.201   3.965   1.440 -0.0318 -0.3178  0.1513
 3988SOL    HW215496   1.280   3.913   1.559 -0.3837 -0.2656  0.4116
 3989SOL     OW15497   1.264   5.193   0.497 -0.2656 -0.4492 -0.4795
 3989SOL    HW115498   1.248   5.128   0.429 -0.7492  0.0954 -0.8927
 3989SOL    HW215499   1.179   5.232   0.514 -0.7240 -2.3397  2.3252
 3990SOL     OW15500   1.871   7.924   2.649 -0.3948  0.0387  0.1959
 3990SOL    HW115501   1.790   7.898   2.606  0.2183 -0.5220 -0.6461
 3990SOL    HW215502   1.930   7.949   2.578 -0.2892  1.8587  0.8704
 3991SOL     OW15503   1.652   1.241  10.867  0.7750  0.4240 -0.5351
 3991SOL    HW115504   1.739   1.274  10.847 -0.4871  2.9613 -2.4504
 3991SOL    HW215505   1.644   1.161  10.815  1.9262  0.2313 -0.4295
 3992SOL     OW15506   6.783   2.534   3.256  0.0523 -0.1272  0.2797
 3992SOL    HW115507   6.719   2.484   3.306 -1.1346 -0.0246 -1.0946
 3992SOL    HW215508   6.732   2.600   3.209  1.0796 -0.3543 -1.2365
 3993SOL     OW15509   0.359   6.268   1.009 -0.1312 -0.3854  0.3592
 3993SOL    HW115510   0.333   6.359   1.022  1.8229  0.1504  0.9317
 3993SOL    HW215511   0.300   6.217   1.063 -1.5744  0.4839 -0.3491
 3994SOL     OW15512   4.068   7.287   4.305  0.2252  0.0959 -0.4727
 3994SOL    HW115513   4.049   7.355   4.241 -0.8029  0.1164 -0.1530
 3994SOL    HW215514   4.030   7.208   4.267 -1.7887  0.3956  0.7896
 3995SOL     OW15515   9.978   5.365   6.628 -0.4363 -0.0897  0.4830
 3995SOL    HW115516   9.920   5.408   6.565 -0.3372 -0.4234  0.1641
 3995SOL    HW215517   9.965   5.414   6.709 -1.8940 -0.7591  0.6846
 3996SOL     OW15518   5.242  10.296   6.054 -0.4387 -0.1725  0.1894
 3996SOL    HW115519   5.299  10.292   6.131  0.4008 -0.4204 -0.4316
 3996SOL    HW215520   5.290  10.349   5.991 -0.7822 -0.5798 -0.4315
 3997SOL     OW15521   1.899   2.630   1.523 -0.0118  0.1477  0.2469
 3997SOL    HW115522   1.863   2.542   1.513  0.0279  0.1536  0.0520
 3997SOL    HW215523   1.928   2.654   1.435 -1.8651  1.1735 -0.1157
 3998SOL     OW15524   7.079   5.477   8.102 -0.4505  0.0105  0.0217
 3998SOL    HW115525   7.155   5.424   8.077 -0.9085 -0.8563  0.4045
 3998SOL    HW215526   7.022   5.475   8.025 -0.3881  0.0911 -0.0264
 3999SOL     OW15527   8.846   8.409   9.022 -0.1280  0.0487 -0.0535
 3999SOL    HW115528   8.842   8.419   9.118 -3.0539 -1.5150  0.0851
 3999SOL    HW215529   8.814   8.492   8.988 -2.1784 -0.4765  0.4694
 4000SOL     OW15530   4.887   3.086   5.730  0.2412 -0.0329  0.0526
 4000SOL    HW115531   4.859   3.035   5.654 -0.0632  0.6760 -0.3184
 4000SOL    HW215532   4.953   3.146   5.695  0.3390  0.0685  0.4123
 4001SOL     OW15533   6.963   6.333   8.224 -0.0024  0.4152 -0.5847
 4001SOL    HW115534   6.948   6.407   8.165 -0.4476  0.7314 -0.0876
 4001SOL    HW215535   7.049   6.349   8.262 -0.1853  0.7866 -0.3255
 4002SOL     OW15536   9.681   8.867   8.805  0.0331  0.4039 -0.0929
 4002SOL    HW115537   9.681   8.852   8.710 -0.6396  2.5515 -0.4785
 4002SOL    HW215538   9.745   8.937   8.818 -0.4007  0.6226  0.9491
 4003SOL     OW15539   0.478   7.709   5.391  0.2459 -0.2805  0.1874
 4003SOL    HW115540   0.432   7.626   5.401 -1.3231  0.6333  0.8959
 4003SOL    HW215541   0.516   7.726   5.477  1.8184 -0.9437 -0.3472
 4004SOL     OW15542   9.961   2.441   3.047 -0.0323 -0.2482 -0.1238
 4004SOL    HW115543  10.044   2.476   3.079 -0.9036  1.8998 -0.0644
 4004SOL    HW215544   9.936   2.499   2.975 -1.0139 -1.4504 -0.8008
 4005SOL     OW15545   1.489   5.785   1.888  0.3704 -0.1414  0.1746
 4005SOL    HW115546   1.419   5.720   1.893  0.1152  0.1803  0.8165
 4005SOL    HW215547   1.472   5.845   1.960  0.7620  0.4858 -0.2467
 4006SOL     OW15548   6.324   6.566   9.377  0.2323  1.0787 -0.3278
 4006SOL    HW115549   6.318   6.484   9.328  0.9092  1.4434 -1.0559
 4006SOL    HW215550   6.238   6.606   9.368 -0.0911  0.4691  0.0028
 4007SOL     OW15551   2.667   7.572   2.337  0.4736 -0.1332 -0.4059
 4007SOL    HW115552   2.646   7.479   2.332  1.6383 -0.4800  0.5756
 4007SOL    HW215553   2.586   7.617   2.314  0.2670 -1.3782 -2.2782
 4008SOL     OW15554   3.353   9.443   3.441  0.1949 -0.5690  0.0867
 4008SOL    HW115555   3.304   9.522   3.418  1.9525  1.6413  3.3131
 4008SOL    HW215556   3.285   9.376   3.453 -1.4444  0.7217 -1.3877
 4009SOL     OW15557   5.408   4.282   5.352  0.5180 -0.6642  0.1922
 4009SOL    HW115558   5.447   4.338   5.284 -0.0845 -0.9888 -0.4334
 4009SOL    HW215559   5.460   4.300   5.430 -0.5133  1.8561  0.4174
 4010SOL     OW15560   9.932   5.994   0.016  0.3570 -0.1617  0.5409
 4010SOL    HW115561   9.952   6.034   0.100 -1.1183 -0.7757  1.2139
 4010SOL    HW215562  10.018   5.985  -0.027  1.1953 -0.2287  2.1417
 4011SOL     OW15563   7.625   4.377   3.167  0.2533 -0.3565  0.0334
 4011SOL    HW115564   7.683   4.314   3.125 -0.2131  0.2628 -1.6079
 4011SOL    HW215565   7.656   4.462   3.137 -0.1343  0.1145  0.9215
 4012SOL     OW15566  10.398   1.837   6.840  0.0204 -0.0879 -0.2967
 4012SOL    HW115567  10.464   1.816   6.906  1.5972  0.5205 -1.6200
 4012SOL    HW215568  10.316   1.804   6.877  0.8938 -0.0795  1.8016
 4013SOL     OW15569   6.688   2.079   2.191  0.1568 -0.1145  0.5668
 4013SOL    HW115570   6.602   2.095   2.151 -0.0531  1.4584  1.5972
 4013SOL    HW215571   6.726   2.166   2.203  0.5713 -0.5745  3.0095
 4014SOL     OW15572  10.409   4.820  10.646  0.0952 -0.2862  0.4381
 4014SOL    HW115573  10.326   4.805  10.691 -0.0434 -0.8286  0.0175
 4014SOL    HW215574  10.475   4.816  10.715 -0.2118 -0.0311  0.7466
 4015SOL     OW15575   9.957   6.791   7.429 -0.0177  0.9439 -0.0589
 4015SOL    HW115576  10.051   6.808   7.425  0.1043  1.6207  3.3091
 4015SOL    HW215577   9.917   6.878   7.426 -0.4559  0.7480  0.0669
 4016SOL     OW15578   8.609   6.980   6.927 -0.5084 -0.8336  0.3076
 4016SOL    HW115579   8.577   7.049   6.869 -1.0389 -1.4180 -0.1061
 4016SOL    HW215580   8.578   7.006   7.014 -0.9321 -0.6875  0.1166
 4017SOL     OW15581   9.231   2.181   7.573  0.1304 -0.3771  0.1858
 4017SOL    HW115582   9.197   2.115   7.512  0.5730  0.3155 -0.8284
 4017SOL    HW215583   9.224   2.264   7.525  2.2713 -0.0650  0.3451
 4018SOL     OW15584   4.931  10.258   8.138 -0.0125 -0.0277 -0.6700
 4018SOL    HW115585   4.961  10.258   8.047  0.5337  0.9350 -0.5029
 4018SOL    HW215586   4.925  10.351   8.161 -1.2603 -0.2294 -0.0779
 4019SOL     OW15587   3.367   2.271   0.876 -0.1071  0.0595 -0.0145
 4019SOL    HW115588   3.277   2.282   0.907 -0.3576  0.0372 -0.7277
 4019SOL    HW215589   3.420   2.311   0.945 -0.7650  1.8992 -0.5015
 4020SOL     OW15590  10.075   5.307   7.096 -0.0200  0.8599 -0.4414
 4020SOL    HW115591  10.054   5.318   7.189  2.9300  0.2161  0.4025
 4020SOL    HW215592  10.096   5.214   7.087 -1.3111  0.6719 -2.0656
 4021SOL     OW15593   8.616   0.313   3.673  0.5292  0.0762 -0.0681
 4021SOL    HW115594   8.611   0.240   3.611 -0.2562 -0.0512  0.1255
 4021SOL    HW215595   8.585   0.389   3.624  2.1910  0.4762 -0.5335
 4022SOL     OW15596   6.863   1.635   8.478 -0.6136  0.2464  0.1874
 4022SOL    HW115597   6.890   1.557   8.429 -0.1231 -0.7271  1.9215
 4022SOL    HW215598   6.768   1.635   8.474 -0.6432 -0.7812  0.6462
 4023SOL     OW15599   8.194   3.361  10.081  0.5366 -0.3816 -0.1218
 4023SOL    HW115600   8.266   3.334  10.024 -0.4933  0.0259 -1.6820
 4023SOL    HW215601   8.139   3.283  10.090  0.0650 -0.1142 -0.6824
 4024SOL     OW15602   4.534   8.131   7.464  0.5121  0.5349 -0.7552
 4024SOL    HW115603   4.550   8.139   7.558  0.6027  0.9997 -0.8072
 4024SOL    HW215604   4.621   8.140   7.424  0.6554 -0.9323 -0.8174
 4025SOL     OW15605   6.888   1.070   1.602  0.7123  0.0058  0.5045
 4025SOL    HW115606   6.965   1.030   1.642 -0.3127  0.3362  2.9988
 4025SOL    HW215607   6.841   0.997   1.562  2.0766 -0.2467 -0.7558
 4026SOL     OW15608   2.783   5.188   0.582  0.0619 -0.0883 -0.1042
 4026SOL    HW115609   2.798   5.212   0.673  0.0745  0.5511 -0.2691
 4026SOL    HW215610   2.866   5.150   0.553  0.0101 -0.4297  0.1910
 4027SOL     OW15611   7.061   8.209   3.512  0.1243 -0.3767  0.3620
 4027SOL    HW115612   7.029   8.143   3.451  2.2655 -0.9735 -0.2088
 4027SOL    HW215613   7.034   8.177   3.598  1.2359 -2.1212  0.1153
 4028SOL     OW15614   0.172   5.841   7.274  0.2429  0.7373  0.0243
 4028SOL    HW115615   0.243   5.859   7.337  0.1971  0.1753  0.2410
 4028SOL    HW215616   0.159   5.746   7.279  0.9204  0.5241 -1.5634
 4029SOL     OW15617   5.303   2.322   0.539  0.0314  0.5256  0.4005
 4029SOL    HW115618   5.261   2.252   0.490 -0.8940  0.8028  0.7860
 4029SOL    HW215619   5.393   2.324   0.505 -0.5591  0.6773 -1.2357
 4030SOL     OW15620   6.913   5.904   9.493 -0.3324  0.7642  0.7934
 4030SOL    HW115621   6.946   5.896   9.403  0.1675 -1.1594  1.1039
 4030SOL    HW215622   6.856   5.981   9.491 -2.0129 -0.4180 -1.7100
 4031SOL     OW15623   1.461   5.506   5.519 -0.8247 -0.0452 -0.1376
 4031SOL    HW115624   1.374   5.533   5.549 -1.3788 -1.4158 -0.4718
 4031SOL    HW215625   1.520   5.535   5.589 -1.4942  1.1580 -0.0379
 4032SOL     OW15626   9.098   8.736   1.974  0.3224  0.0345 -0.0882
 4032SOL    HW115627   9.133   8.801   2.035  1.6260 -1.9920  1.4668
 4032SOL    HW215628   9.024   8.697   2.020  0.2864 -0.3767 -0.4912
 4033SOL     OW15629   0.729   7.717   9.327  0.2291 -0.2063  0.4025
 4033SOL    HW115630   0.733   7.812   9.315  2.3970 -0.3751 -0.8119
 4033SOL    HW215631   0.640   7.700   9.358 -1.0189  1.9745 -1.6306
 4034SOL     OW15632   0.783   1.644   7.627  0.4040 -0.2462 -0.6863
 4034SOL    HW115633   0.818   1.568   7.674  0.1831  0.0640 -0.0075
 4034SOL    HW215634   0.839   1.653   7.550 -0.6965 -2.2575 -1.8267
 4035SOL     OW15635   3.737   2.631   6.409  0.3302  0.3869 -0.2107
 4035SOL    HW115636   3.796   2.599   6.478 -1.8139 -1.2281  1.0116
 4035SOL    HW215637   3.703   2.714   6.443 -0.0157  0.0472  0.2970
 4036SOL     OW15638   5.927   5.815  10.654 -0.5860 -0.4621 -0.0859
 4036SOL    HW115639   5.893   5.860  10.731  0.7391 -0.6542  0.6446
 4036SOL    HW215640   5.908   5.723  10.669  0.7654 -0.6558  0.6552
 4037SOL     OW15641   6.989   8.018   0.447  0.8050 -0.1605 -0.0818
 4037SOL    HW115642   7.030   8.103   0.466 -0.8809  0.8643 -0.7760
 4037SOL    HW215643   6.979   8.017   0.352 -1.1455 -0.1642  0.0966
 4038SOL     OW15644   2.671  10.462   2.705 -1.4815 -0.0732 -0.1021
 4038SOL    HW115645   2.747  10.501   2.660 -1.7330  0.5767  0.0236
 4038SOL    HW215646   2.705  10.382   2.745 -0.3921  1.1393  1.5373
 4039SOL     OW15647   4.084   6.089   7.854 -0.3715  0.0911  0.1823
 4039SOL    HW115648   4.138   6.029   7.803  1.0187  1.2088  0.2585
 4039SOL    HW215649   4.000   6.092   7.808  0.5433  0.3813 -1.5589
 4040SOL     OW15650   5.386   1.892   9.073 -0.0208  0.2864 -0.0498
 4040SOL    HW115651   5.317   1.839   9.032  0.5853  0.3894 -1.2577
 4040SOL    HW215652   5.455   1.829   9.095 -0.1056  0.3126  0.2976
 4041SOL     OW15653   6.333   1.040   7.450  0.3306 -0.3654 -0.3345
 4041SOL    HW115654   6.370   0.990   7.378 -0.7200 -0.2210 -0.9998
 4041SOL    HW215655   6.311   0.975   7.516  1.8899 -0.4356  0.1512
 4042SOL     OW15656   2.256   6.449   1.133 -0.1786  0.5122  0.5005
 4042SOL    HW115657   2.305   6.471   1.053  1.1980 -0.5886  0.9956
 4042SOL    HW215658   2.177   6.405   1.102  0.7360 -0.6524 -0.2678
 4043SOL     OW15659   5.980   6.666   3.268 -0.2171  0.1628  0.0497
 4043SOL    HW115660   5.992   6.598   3.201 -0.4256  1.9530 -1.9275
 4043SOL    HW215661   5.898   6.708   3.244  0.1529  1.4318  0.9185
 4044SOL     OW15662   0.697   0.766   7.184  0.4042  1.0071 -0.2416
 4044SOL    HW115663   0.623   0.726   7.138 -0.7909  2.2005  0.5828
 4044SOL    HW215664   0.765   0.698   7.182 -1.3630 -0.9021  0.6873
 4045SOL     OW15665   2.709   9.876   8.828  0.0514  0.5312 -0.2388
 4045SOL    HW115666   2.632   9.878   8.771 -0.0289  0.9963 -0.1147
 4045SOL    HW215667   2.764   9.807   8.791  0.0010  0.8335 -0.8886
 4046SOL     OW15668   0.543   7.302   9.070  0.3855  0.1868  0.0653
 4046SOL    HW115669   0.566   7.290   8.978  1.4113 -1.8700  0.5368
 4046SOL    HW215670   0.626   7.320   9.114  0.0444  0.1568  0.7420
 4047SOL     OW15671   5.021   2.377   1.284 -0.0720  0.1888 -0.5876
 4047SOL    HW115672   5.092   2.388   1.222 -0.1494  1.0102 -0.5426
 4047SOL    HW215673   4.976   2.462   1.285  0.8065  0.7095  1.6549
 4048SOL     OW15674   2.598   0.028   6.086  0.3156 -0.4907  0.4051
 4048SOL    HW115675   2.630  -0.055   6.120  0.2721 -0.0931  1.4400
 4048SOL    HW215676   2.577   0.010   5.994  1.7161 -1.2394  0.2086
 4049SOL     OW15677   2.605   8.650   6.821 -0.5563  0.0260 -0.4665
 4049SOL    HW115678   2.602   8.654   6.725  0.0826  0.0986 -0.4903
 4049SOL    HW215679   2.681   8.704   6.844 -0.3427 -0.4914  0.0450
 4050SOL     OW15680   7.684  10.311   0.179  0.4588 -0.7870  0.1812
 4050SOL    HW115681   7.642  10.396   0.190  1.5907  0.2234 -2.3550
 4050SOL    HW215682   7.774  10.332   0.153  1.1314 -2.8022  0.6851
 4051SOL     OW15683   2.479   3.855   9.718 -0.2202  0.1771 -0.4433
 4051SOL    HW115684   2.530   3.785   9.760 -0.1878  0.2560 -0.3515
 4051SOL    HW215685   2.521   3.936   9.747  0.3720  0.2074 -1.3470
 4052SOL     OW15686   1.270   8.100   6.521  0.0936 -0.0323  0.0384
 4052SOL    HW115687   1.332   8.036   6.555 -0.2421 -0.9313 -0.9737
 4052SOL    HW215688   1.272   8.172   6.584  2.2985  0.0620 -0.0615
 4053SOL     OW15689   9.745   7.093   9.317 -0.7463  0.0007 -0.2211
 4053SOL    HW115690   9.705   7.052   9.241  2.0641 -1.6168 -0.9763
 4053SOL    HW215691   9.786   7.021   9.365  1.1867  1.4682  0.4774
 4054SOL     OW15692   3.347   7.711   9.487 -0.1599 -0.3829 -0.2603
 4054SOL    HW115693   3.286   7.742   9.554  1.2989  0.6233  0.6701
 4054SOL    HW215694   3.408   7.655   9.535 -0.5716 -1.7313 -1.2502
 4055SOL     OW15695   1.665   0.479   5.090 -0.7018  0.0567  0.2728
 4055SOL    HW115696   1.735   0.510   5.148  0.4030 -0.5813 -0.6799
 4055SOL    HW215697   1.696   0.394   5.059 -2.0730 -0.3953  0.0984
 4056SOL     OW15698   8.240   6.221  10.154  0.1827 -1.0212 -0.7837
 4056SOL    HW115699   8.272   6.136  10.186 -0.5106 -0.4948  1.4570
 4056SOL    HW215700   8.204   6.202  10.067  2.5747 -2.4497 -1.5521
 4057SOL     OW15701  10.886   6.696   5.601  0.5394 -0.3293 -0.0222
 4057SOL    HW115702  10.917   6.614   5.640  0.6344  0.0242  0.6664
 4057SOL    HW215703  10.904   6.762   5.668 -2.0368 -0.1445  0.5961
 4058SOL     OW15704   3.732  11.042   7.157 -0.3932 -0.0318  0.1098
 4058SOL    HW115705   3.652  11.034   7.106 -0.8423  2.0791  0.3943
 4058SOL    HW215706   3.799  11.064   7.092 -0.1907 -1.0010 -0.0222
 4059SOL     OW15707   6.288   0.391   9.098 -0.0962 -0.3169 -0.4097
 4059SOL    HW115708   6.195   0.371   9.086  0.0995 -1.0645 -0.7232
 4059SOL    HW215709   6.320   0.323   9.157  0.2624 -0.0679 -0.3091
 4060SOL     OW15710   2.302  10.206   9.062  0.2463 -0.3445  0.7180
 4060SOL    HW115711   2.220  10.249   9.038 -0.4229 -0.9056  1.9398
 4060SOL    HW215712   2.283  10.162   9.144  0.7616 -3.4219 -0.6711
 4061SOL     OW15713   8.109   6.509   3.572 -0.2387  0.4888 -0.0031
 4061SOL    HW115714   8.180   6.455   3.605  0.4263  1.9946  1.1816
 4061SOL    HW215715   8.066   6.455   3.506  0.5401 -1.3450  0.9194
 4062SOL     OW15716   6.497   6.098   6.685  0.1893 -0.1457 -0.0543
 4062SOL    HW115717   6.580   6.141   6.706  0.7490 -0.6797 -1.0836
 4062SOL    HW215718   6.507   6.008   6.716 -0.4410  0.0787  0.8246
 4063SOL     OW15719   8.793  11.075   8.130 -0.0427  0.0056  0.1187
 4063SOL    HW115720   8.771  11.098   8.040  0.0458  0.4787  0.2116
 4063SOL    HW215721   8.766  10.984   8.140  1.4195 -0.5604 -0.8779
 4064SOL     OW15722   8.238   1.174  10.193 -0.0951  0.5935  0.1337
 4064SOL    HW115723   8.302   1.104  10.177 -0.6131  0.3690 -1.0531
 4064SOL    HW215724   8.167   1.157  10.131 -0.7899  1.4915  0.6524
 4065SOL     OW15725   8.193   1.202   1.841  0.1856 -0.0625  0.5002
 4065SOL    HW115726   8.259   1.267   1.865 -1.6178  1.6798  1.0644
 4065SOL    HW215727   8.235   1.149   1.773  2.4684  0.3234  1.5137
 4066SOL     OW15728   5.774   2.038   0.003  0.1373  0.4513 -0.1029
 4066SOL    HW115729   5.759   2.022  -0.091  1.3849 -2.4646  0.0708
 4066SOL    HW215730   5.862   2.073   0.007 -0.0508  0.9212 -0.0290
 4067SOL     OW15731   9.036   5.130  10.374  0.1406  0.0160  0.1081
 4067SOL    HW115732   9.014   5.074  10.449 -3.0663 -1.0990 -1.4614
 4067SOL    HW215733   8.993   5.213  10.393  0.7513  0.3148  0.2179
 4068SOL     OW15734   0.079   0.812   6.009  0.5117 -0.0977  0.3128
 4068SOL    HW115735   0.020   0.816   6.084  0.5200 -0.2299  0.3271
 4068SOL    HW215736   0.163   0.783   6.046  0.3999 -0.5836  0.1863
 4069SOL     OW15737   9.608   7.049   2.440  0.1446 -0.3171  0.7227
 4069SOL    HW115738   9.655   7.114   2.492  0.2303  0.2423 -0.0372
 4069SOL    HW215739   9.543   7.012   2.500  1.0301 -0.5420  1.5551
 4070SOL     OW15740   5.467   1.184   7.629  0.6290  0.0403  0.2000
 4070SOL    HW115741   5.423   1.177   7.544  1.0034 -1.5608  0.1096
 4070SOL    HW215742   5.505   1.098   7.644 -0.1810 -0.0105  2.4147
 4071SOL     OW15743   3.257   2.535   7.751 -0.6451  0.0153 -0.2546
 4071SOL    HW115744   3.352   2.531   7.762 -0.6883  0.1649  0.2144
 4071SOL    HW215745   3.242   2.511   7.660 -0.1208  0.4244 -0.4562
 4072SOL     OW15746   7.827   4.515   1.915  0.1865  0.1098  0.4534
 4072SOL    HW115747   7.855   4.477   1.998 -0.9598  1.7612  1.6668
 4072SOL    HW215748   7.736   4.541   1.930  0.2729  1.3705 -0.9775
 4073SOL     OW15749  10.658   6.672   7.438 -0.5262  0.2322  0.1352
 4073SOL    HW115750  10.601   6.698   7.510 -3.4599 -1.3689 -1.3938
 4073SOL    HW215751  10.650   6.576   7.435  3.2471 -0.2281  0.4831
 4074SOL     OW15752  11.010   1.525   9.957  0.0432  0.7934  0.2079
 4074SOL    HW115753  10.996   1.618   9.975 -1.1608  0.6602  0.0510
 4074SOL    HW215754  11.076   1.524   9.888 -1.3559  1.6307 -1.2003
 4075SOL     OW15755   2.172   9.267   8.313  0.6390  0.5552  0.7415
 4075SOL    HW115756   2.250   9.290   8.263  0.8398 -0.4584  0.5617
 4075SOL    HW215757   2.195   9.286   8.404  1.4849 -0.6853  0.8113
 4076SOL     OW15758  10.780   0.145   6.000 -0.4527 -0.0061 -0.3688
 4076SOL    HW115759  10.822   0.062   5.978 -1.4372 -0.4085 -0.7897
 4076SOL    HW215760  10.852   0.207   6.008  0.1668 -0.5272 -1.7211
 4077SOL     OW15761   7.537   2.063   9.418  0.1987  0.2271 -0.5998
 4077SOL    HW115762   7.591   2.111   9.355  1.1290 -0.4631 -0.3531
 4077SOL    HW215763   7.488   2.130   9.465  0.5371  0.8363 -1.1151
 4078SOL     OW15764   2.539   5.490   9.959  0.1899 -0.7635  0.1810
 4078SOL    HW115765   2.535   5.462   9.868  1.0749 -0.4550  0.0318
 4078SOL    HW215766   2.450   5.515   9.981 -0.1815 -1.6072 -0.3500
 4079SOL     OW15767   9.194   9.337  10.642  0.1135 -0.3456 -0.2064
 4079SOL    HW115768   9.167   9.416  10.689  0.8279  0.0401 -0.4394
 4079SOL    HW215769   9.276   9.310  10.683  0.6327 -0.1320 -1.0764
 4080SOL     OW15770   2.316   8.310  11.013 -0.0601  0.2271  0.1654
 4080SOL    HW115771   2.309   8.249  11.086 -0.4673  1.4221  1.1651
 4080SOL    HW215772   2.407   8.341  11.017 -0.8284  2.5684  2.1470
 4081SOL     OW15773   2.191  11.019   6.406  0.3591  0.5923  0.8239
 4081SOL    HW115774   2.276  11.037   6.447  0.5341 -0.8923  1.1435
 4081SOL    HW215775   2.211  11.015   6.313  0.7187 -0.0731  0.9200
 4082SOL     OW15776   1.741   6.945   2.790 -0.2524  0.0372  0.0917
 4082SOL    HW115777   1.711   7.014   2.849  1.6817  1.3734 -0.3715
 4082SOL    HW215778   1.746   6.988   2.704 -0.0735 -0.9953 -0.4236
 4083SOL     OW15779   2.501   3.825  10.440 -0.1841 -0.6303 -0.5754
 4083SOL    HW115780   2.521   3.733  10.423  1.2959 -0.7061  1.2988
 4083SOL    HW215781   2.539   3.872  10.366  0.6370 -1.3848 -0.6426
 4084SOL     OW15782   3.594   1.457   1.153  0.3369 -0.0698  0.1611
 4084SOL    HW115783   3.657   1.430   1.087  0.0152 -0.1287 -0.1286
 4084SOL    HW215784   3.534   1.383   1.161  1.2353 -0.6657  1.6175
 4085SOL     OW15785   1.262   3.384   2.104 -0.3495 -0.2561  0.2915
 4085SOL    HW115786   1.237   3.293   2.088 -2.4171  0.4057 -0.6105
 4085SOL    HW215787   1.189   3.420   2.154  0.6246  0.8270  0.9886
 4086SOL     OW15788   3.590   8.564   7.738  0.2536 -0.4028  0.3930
 4086SOL    HW115789   3.579   8.509   7.816  3.9999  0.3858  1.7090
 4086SOL    HW215790   3.566   8.652   7.767  0.5973 -0.2930  0.3522
 4087SOL     OW15791   3.490  10.256   1.779 -0.1698 -0.0224 -0.9035
 4087SOL    HW115792   3.401  10.257   1.744 -0.9182  0.1477  0.8510
 4087SOL    HW215793   3.541  10.309   1.718 -2.1876  3.4598  0.1639
 4088SOL     OW15794  10.939  11.075   5.683  0.4562  0.5203  0.8021
 4088SOL    HW115795  10.859  11.031   5.712  0.2372 -1.6758 -2.6249
 4088SOL    HW215796  10.998  11.069   5.758 -1.2633 -1.2364  2.1353
 4089SOL     OW15797  10.486   7.216   2.690  0.3162  0.2089 -0.1551
 4089SOL    HW115798  10.514   7.213   2.781 -1.1809  0.8266  0.3688
 4089SOL    HW215799  10.390   7.219   2.695  0.2278  1.1948 -1.7111
 4090SOL     OW15800   1.007   7.456   8.590 -0.4483 -0.1717 -0.1187
 4090SOL    HW115801   1.003   7.472   8.496 -3.2727 -0.5023 -0.1712
 4090SOL    HW215802   0.915   7.457   8.617  0.1488 -2.0007  2.2890
 4091SOL     OW15803   8.320   8.008   7.950 -0.1302  0.0284  0.6181
 4091SOL    HW115804   8.246   8.067   7.936 -1.6931 -1.8374  0.6364
 4091SOL    HW215805   8.372   8.014   7.870 -1.1955  0.1747 -0.0738
 4092SOL     OW15806   8.494   2.847   3.396 -0.3034 -0.1210  0.0899
 4092SOL    HW115807   8.422   2.801   3.439  0.1652  1.5449  2.8947
 4092SOL    HW215808   8.572   2.816   3.441  0.3776  0.6671 -0.5151
 4093SOL     OW15809   6.108   2.804   5.791 -0.4384  0.5671 -0.4622
 4093SOL    HW115810   6.099   2.891   5.827 -2.8044  0.4675 -0.6857
 4093SOL    HW215811   6.076   2.811   5.701 -1.9923 -0.7825 -0.0599
 4094SOL     OW15812   0.158   5.995   1.829 -0.1394  0.0558  0.4051
 4094SOL    HW115813   0.123   5.913   1.865 -1.6436  0.4071 -0.2317
 4094SOL    HW215814   0.178   5.975   1.738 -0.3870  0.3606  0.2829
 4095SOL     OW15815   3.916   0.024  10.333  0.3202 -0.3156 -0.0420
 4095SOL    HW115816   3.871   0.106  10.309 -1.3196 -0.8108  1.1159
 4095SOL    HW215817   3.877  -0.042  10.276 -3.6534 -1.5147  3.4645
 4096SOL     OW15818   5.807   2.421   9.674 -0.1981  0.4706 -0.0504
 4096SOL    HW115819   5.715   2.399   9.681  0.3200 -1.3768  2.2908
 4096SOL    HW215820   5.849   2.342   9.639  0.5567  1.1665 -0.7792
 4097SOL     OW15821   8.499   2.416   0.394  0.0798  0.4878  0.1942
 4097SOL    HW115822   8.562   2.345   0.380 -0.0567  0.4900 -0.4269
 4097SOL    HW215823   8.501   2.467   0.314 -0.1072  0.9717  0.4915
 4098SOL     OW15824   3.721  10.639   7.377  0.3961 -0.0314  0.0073
 4098SOL    HW115825   3.808  10.652   7.415  0.0731  1.2095  0.3590
 4098SOL    HW215826   3.665  10.616   7.451  0.4302 -0.9730 -0.2390
 4099SOL     OW15827   8.139  10.866   0.348 -0.7001  0.1683  0.4227
 4099SOL    HW115828   8.150  10.779   0.385 -0.7828 -0.2696 -0.5490
 4099SOL    HW215829   8.209  10.874   0.283 -1.2177  0.4806 -0.1054
 4100SOL     OW15830   4.362  10.270   5.994 -0.6416  0.5153  0.6921
 4100SOL    HW115831   4.323  10.297   6.078 -1.9580 -1.1020  0.6494
 4100SOL    HW215832   4.301  10.206   5.959  0.9909 -0.4718 -0.4816
 4101SOL     OW15833   6.260   5.519   3.971  0.7072 -0.1259  0.1989
 4101SOL    HW115834   6.210   5.445   4.004  0.4442 -0.7347 -1.4801
 4101SOL    HW215835   6.335   5.480   3.926  1.1166  0.6721  0.1717
 4102SOL     OW15836   3.127   0.341   1.589 -0.1686 -0.0957 -0.1288
 4102SOL    HW115837   3.135   0.330   1.494 -1.9895  0.4406 -0.3884
 4102SOL    HW215838   3.152   0.256   1.625  0.7470 -0.2419 -1.0666
 4103SOL     OW15839   9.075   0.340   9.536  0.2286  0.5889 -0.2618
 4103SOL    HW115840   9.020   0.299   9.602  0.4624 -1.7838 -1.4567
 4103SOL    HW215841   9.120   0.411   9.583 -1.0728  0.2484  1.6033
 4104SOL     OW15842  10.799   9.587   4.565 -0.1362 -0.0547 -0.2291
 4104SOL    HW115843  10.866   9.527   4.598 -0.1635 -0.0881 -0.2358
 4104SOL    HW215844  10.839   9.628   4.488 -0.5668 -0.9567 -0.9440
 4105SOL     OW15845  10.554   3.156   1.925 -0.4995 -0.0480 -0.2275
 4105SOL    HW115846  10.581   3.140   1.834 -0.2149 -0.6213 -0.0512
 4105SOL    HW215847  10.576   3.247   1.941  1.4439 -0.4901 -0.0858
 4106SOL     OW15848   7.360   2.274   4.757  0.1105  0.5869 -0.3293
 4106SOL    HW115849   7.339   2.182   4.742  1.9982 -0.2173  1.4657
 4106SOL    HW215850   7.395   2.305   4.673 -5.4075  1.3919 -2.7549
 4107SOL     OW15851   4.373   0.127   6.206 -0.2674 -0.4815  0.4826
 4107SOL    HW115852   4.340   0.105   6.120 -0.7757 -1.3296  0.8853
 4107SOL    HW215853   4.313   0.193   6.240  0.6965  0.8640 -0.3290
 4108SOL     OW15854   8.662   9.565   2.903  0.0085  0.5250 -0.1382
 4108SOL    HW115855   8.754   9.592   2.909  0.2555 -0.3657  0.1622
 4108SOL    HW215856   8.660   9.500   2.833 -0.1849 -0.3067  0.6342
 4109SOL     OW15857   4.078   3.680  10.369  0.8866 -0.4598 -0.1969
 4109SOL    HW115858   4.138   3.606  10.356 -0.0753 -1.2615 -0.2433
 4109SOL    HW215859   4.009   3.645  10.426 -0.4496 -0.1081 -1.5080
 4110SOL     OW15860   1.067   0.448   5.356  0.3726  0.3587  0.4616
 4110SOL    HW115861   1.017   0.369   5.376  0.0478  0.5333  0.3394
 4110SOL    HW215862   1.003   0.519   5.361  0.7671  0.6783  1.0753
 4111SOL     OW15863  10.508   8.280   9.301  0.0838 -0.0608 -0.5637
 4111SOL    HW115864  10.597   8.260   9.330  0.3604 -1.0803 -1.9790
 4111SOL    HW215865  10.520   8.314   9.212 -0.9435 -0.0485 -0.7011
 4112SOL     OW15866   3.511   8.934   6.821 -0.1563 -0.5750  0.3372
 4112SOL    HW115867   3.558   8.851   6.831 -1.0254 -1.0244  0.7305
 4112SOL    HW215868   3.483   8.934   6.729 -0.0267 -0.6448  0.2970
 4113SOL     OW15869   7.450   6.202   9.457  0.2492  0.3838 -0.0856
 4113SOL    HW115870   7.374   6.181   9.511 -0.8247 -1.5817 -2.1639
 4113SOL    HW215871   7.519   6.145   9.490 -0.4420 -0.9197 -0.8048
 4114SOL     OW15872   6.737   9.951   4.654 -0.2356 -0.1076 -0.0405
 4114SOL    HW115873   6.771   9.863   4.675 -1.4414  0.1134  3.4479
 4114SOL    HW215874   6.662   9.934   4.596 -1.0276 -1.5044  1.3180
 4115SOL     OW15875   4.816   1.898   7.147  0.5507  0.0512  0.3616
 4115SOL    HW115876   4.732   1.852   7.151  0.7085 -0.1735  1.2864
 4115SOL    HW215877   4.817   1.939   7.061 -0.6244  0.2754  0.4417
 4116SOL     OW15878   1.546  10.367   4.489 -0.5775  0.7999  0.8085
 4116SOL    HW115879   1.542  10.447   4.541  0.0358  1.8680 -0.7201
 4116SOL    HW215880   1.639  10.345   4.485 -0.5699  0.9606 -0.1365
 4117SOL     OW15881   6.951   9.845   9.244 -0.5038  0.1019  0.2395
 4117SOL    HW115882   6.993   9.928   9.221  2.1603 -0.9389  0.8897
 4117SOL    HW215883   6.939   9.850   9.339 -0.4924 -0.1785  0.2559
 4118SOL     OW15884   2.872   5.642   9.844  0.8926  0.1460  0.2296
 4118SOL    HW115885   2.908   5.599   9.921 -0.2383 -1.2518  0.0201
 4118SOL    HW215886   2.944   5.645   9.782  0.9138 -1.8905  0.0905
 4119SOL     OW15887   7.232  10.527   7.480  0.3681 -0.1689  0.3773
 4119SOL    HW115888   7.299  10.582   7.520  0.9479 -0.7039  0.1523
 4119SOL    HW215889   7.220  10.565   7.393  0.0888  0.1696  0.5625
 4120SOL     OW15890   8.351   3.454   4.856  0.0564  0.3475 -0.0752
 4120SOL    HW115891   8.408   3.498   4.920 -1.9359  1.4006  1.0701
 4120SOL    HW215892   8.315   3.380   4.904  2.4366 -1.9881 -1.6221
 4121SOL     OW15893   8.363  10.777   8.360  0.5811 -0.2482 -0.8563
 4121SOL    HW115894   8.379  10.845   8.295 -1.7223  0.1853 -1.0867
 4121SOL    HW215895   8.444  10.771   8.410  0.8556  2.7912 -0.7336
 4122SOL     OW15896   3.709   4.263   7.809  0.3269  0.3159  0.4171
 4122SOL    HW115897   3.715   4.183   7.758  1.0471  0.8753 -0.4181
 4122SOL    HW215898   3.767   4.324   7.764 -0.8897  1.5897  0.4981
 4123SOL     OW15899   0.587  10.487  10.823 -0.0840  0.3102 -0.1544
 4123SOL    HW115900   0.502  10.497  10.867  1.1333  0.6407  2.2669
 4123SOL    HW215901   0.572  10.418  10.758 -1.5032 -1.6838  2.1409
 4124SOL     OW15902  10.066   1.403   7.901  0.7053  0.4711  0.2447
 4124SOL    HW115903  10.096   1.336   7.963 -0.5565 -2.6227 -2.2213
 4124SOL    HW215904  10.134   1.405   7.834 -0.8930 -1.1289 -1.5466
 4125SOL     OW15905   6.522   8.386   2.075  0.3202 -0.4758  0.1365
 4125SOL    HW115906   6.519   8.315   2.138  0.9501 -0.0232  0.6946
 4125SOL    HW215907   6.551   8.345   1.993  0.8545 -0.8288  0.4970
 4126SOL     OW15908   3.267   3.753  10.607  0.3878 -0.0693  0.3644
 4126SOL    HW115909   3.308   3.834  10.578  1.0272  0.1115  1.7039
 4126SOL    HW215910   3.340   3.699  10.637 -0.1509 -0.6444  0.6591
 4127SOL     OW15911   2.088   3.576   4.390  0.2194 -0.3933 -0.1984
 4127SOL    HW115912   2.096   3.665   4.425  0.7200  0.1419 -1.5831
 4127SOL    HW215913   2.033   3.530   4.453  0.0874  0.8552  0.6343
 4128SOL     OW15914   4.686  10.528   7.774 -0.2673 -0.6615  0.0617
 4128SOL    HW115915   4.707  10.609   7.728  0.3535 -1.0699 -0.3732
 4128SOL    HW215916   4.649  10.471   7.707  0.3449 -1.1442  0.1328
 4129SOL     OW15917   6.903   3.262   5.132 -0.1258 -0.8626  0.2389
 4129SOL    HW115918   6.990   3.293   5.159  0.1407 -1.8423  0.5291
 4129SOL    HW215919   6.852   3.262   5.213  0.5293 -3.3120  0.7383
 4130SOL     OW15920   2.879   1.247   1.455 -0.8865  0.2005 -0.3226
 4130SOL    HW115921   2.931   1.199   1.520 -2.6777 -1.0282  0.2723
 4130SOL    HW215922   2.915   1.335   1.456 -0.0088 -0.1378  1.3872
 4131SOL     OW15923   8.788   8.428   2.681 -0.5460  0.1179  0.2858
 4131SOL    HW115924   8.700   8.463   2.674 -0.9220 -0.6928  0.7827
 4131SOL    HW215925   8.845   8.497   2.647 -1.3354  0.7999  0.3358
 4132SOL     OW15926   8.839   0.730   9.358 -0.0436 -0.4157 -0.0898
 4132SOL    HW115927   8.907   0.787   9.393  1.1136 -1.1118 -1.1259
 4132SOL    HW215928   8.881   0.645   9.349 -1.0480 -0.8617 -0.7400
 4133SOL     OW15929   1.133   1.571   1.087 -0.3152  0.3060 -0.4213
 4133SOL    HW115930   1.099   1.489   1.123 -0.0940 -0.7690 -2.4965
 4133SOL    HW215931   1.056   1.628   1.082 -0.6078 -0.0011  0.4200
 4134SOL     OW15932   7.216   2.334   8.604  0.4076  0.0161 -1.1529
 4134SOL    HW115933   7.291   2.356   8.660  0.6154  0.8830 -1.7446
 4134SOL    HW215934   7.238   2.249   8.567  1.3164  0.4632 -1.6639
 4135SOL     OW15935   9.310   5.567   1.277 -0.0437  0.2585  0.0174
 4135SOL    HW115936   9.311   5.660   1.300 -0.0635 -0.2501  2.2748
 4135SOL    HW215937   9.395   5.534   1.307 -0.1276 -0.5128 -0.5675
 4136SOL     OW15938   3.028   7.694   3.056  0.0624  0.1278  0.4222
 4136SOL    HW115939   2.989   7.782   3.053  0.5419  0.3599  0.9023
 4136SOL    HW215940   3.100   7.702   3.118 -0.9185 -1.0388  1.7497
 4137SOL     OW15941   2.562   8.336   5.946 -0.1131  0.2148 -0.2424
 4137SOL    HW115942   2.625   8.396   5.906  0.1371  1.0862  1.3866
 4137SOL    HW215943   2.499   8.393   5.990  0.5406 -0.6630  1.9807
 4138SOL     OW15944   6.407   0.798   9.574 -0.8271 -0.7014  0.3753
 4138SOL    HW115945   6.318   0.832   9.563  0.0183  1.6344  0.1000
 4138SOL    HW215946   6.398   0.730   9.641 -2.7517 -0.1898  0.7118
 4139SOL     OW15947   7.124  10.620   5.995 -0.1452 -0.0149 -0.5866
 4139SOL    HW115948   7.044  10.662   6.026  0.3170  0.6196 -0.2265
 4139SOL    HW215949   7.094  10.552   5.935 -0.9125  1.1328 -1.5497
 4140SOL     OW15950   8.237   6.479  10.239  0.1235 -0.0673  0.2579
 4140SOL    HW115951   8.274   6.398  10.203  1.0793  0.0903  0.8671
 4140SOL    HW215952   8.170   6.505  10.175  0.3072 -0.9421 -0.3097
 4141SOL     OW15953   8.290   7.193   6.536 -0.1609  0.4810 -0.3139
 4141SOL    HW115954   8.341   7.219   6.613  2.1018  0.5154 -1.7321
 4141SOL    HW215955   8.312   7.257   6.469 -1.0341 -0.3029 -1.3956
 4142SOL     OW15956   1.559   6.765   8.854 -0.3273  0.4021  0.3323
 4142SOL    HW115957   1.570   6.722   8.939  0.6642  0.6089  0.3160
 4142SOL    HW215958   1.474   6.734   8.823 -0.7104  0.3299  1.3978
 4143SOL     OW15959   7.608   5.543   1.791 -0.1557 -0.2067 -0.1033
 4143SOL    HW115960   7.641   5.625   1.753 -1.5043 -0.3010 -1.5677
 4143SOL    HW215961   7.680   5.481   1.781 -0.3475 -0.1585 -2.3603
 4144SOL     OW15962   1.258   4.786   6.133 -0.2136  0.7511  0.3683
 4144SOL    HW115963   1.190   4.792   6.066  0.6644  0.1368 -0.5963
 4144SOL    HW215964   1.322   4.724   6.098  0.3739  0.5763  1.6822
 4145SOL     OW15965  10.269  11.034   9.294  0.0624  0.1030 -0.0879
 4145SOL    HW115966  10.315  11.088   9.230 -1.0028 -0.4194 -1.3426
 4145SOL    HW215967  10.228  11.096   9.354  0.1008  0.6439 -0.6192
 4146SOL     OW15968   1.850   8.656   2.113  0.3957 -0.5458 -0.2267
 4146SOL    HW115969   1.786   8.726   2.102  1.5135  0.8817  1.6484
 4146SOL    HW215970   1.854   8.642   2.208  1.1591 -2.2432 -0.4664
 4147SOL     OW15971   0.607   2.317  11.069 -0.3752  0.2884 -0.3089
 4147SOL    HW115972   0.521   2.342  11.035 -0.7874 -1.1511 -0.3507
 4147SOL    HW215973   0.653   2.279  10.995 -0.4248 -0.7211  0.1631
 4148SOL     OW15974   0.646   9.563   1.773 -0.0334 -0.2617  0.2319
 4148SOL    HW115975   0.597   9.639   1.741  0.0393 -0.3030  0.0209
 4148SOL    HW215976   0.736   9.594   1.781 -0.0310 -0.2830  0.2833
 4149SOL     OW15977   8.831   7.929   5.807 -0.8676  0.1516 -0.0022
 4149SOL    HW115978   8.880   7.921   5.726  0.9065 -0.6060  1.1001
 4149SOL    HW215979   8.745   7.890   5.788 -1.2033  1.7449 -2.0315
 4150SOL     OW15980   1.020   0.726   6.682 -0.4141  0.0433  0.4372
 4150SOL    HW115981   1.002   0.699   6.592 -1.4233  0.3278  0.5355
 4150SOL    HW215982   1.101   0.777   6.676 -1.9116  2.4852 -0.8105
 4151SOL     OW15983   1.287   6.964   1.587 -0.0550  0.3034 -0.4441
 4151SOL    HW115984   1.298   6.890   1.646 -2.0197 -0.0582 -0.4734
 4151SOL    HW215985   1.368   7.013   1.595  0.1005 -0.2261  1.8762
 4152SOL     OW15986   9.235   2.803   3.615 -0.4226 -0.2958 -0.4044
 4152SOL    HW115987   9.213   2.883   3.664 -0.4516  0.3476 -1.4276
 4152SOL    HW215988   9.167   2.741   3.638 -0.4750  0.0183  0.3149
 4153SOL     OW15989   1.400   5.236   1.435  0.4050  0.5320 -0.4830
 4153SOL    HW115990   1.462   5.211   1.366 -0.1951  0.8799 -1.1713
 4153SOL    HW215991   1.390   5.330   1.425 -0.2905  0.4700 -0.4424
 4154SOL     OW15992   1.331   2.860   5.381 -0.0802  0.1342 -0.4210
 4154SOL    HW115993   1.329   2.953   5.359  0.5749 -0.0454 -1.2587
 4154SOL    HW215994   1.380   2.819   5.310 -0.3839 -0.8586 -0.0729
 4155SOL     OW15995   9.902   8.872   7.979 -0.2925  0.3333  0.1778
 4155SOL    HW115996   9.875   8.904   7.893 -0.3610  1.9384  0.7600
 4155SOL    HW215997   9.974   8.812   7.961  0.4129  1.4678 -0.9516
 4156SOL     OW15998   5.741   6.433   6.599 -0.6464 -0.0681 -0.4498
 4156SOL    HW115999   5.706   6.435   6.688 -1.0411 -1.1856 -0.5583
 4156SOL    HW216000   5.811   6.367   6.602 -0.6050 -0.0503 -0.9451
 4157SOL     OW16001   4.394   6.043   5.049  0.0860  0.3797  0.3100
 4157SOL    HW116002   4.404   5.978   4.979  0.5904  1.2069 -0.4067
 4157SOL    HW216003   4.330   6.004   5.109 -2.1694  0.6164 -1.7764
 4158SOL     OW16004   9.336   2.245   6.004  0.1112  0.1961  0.0411
 4158SOL    HW116005   9.253   2.197   6.011 -0.7220  1.6282  0.2868
 4158SOL    HW216006   9.316   2.318   5.946  1.0083  0.9750  0.6901
 4159SOL     OW16007   0.029   7.167   3.260 -0.2524  1.1817  0.4431
 4159SOL    HW116008  -0.034   7.132   3.323 -0.8399  0.6884 -0.3937
 4159SOL    HW216009   0.102   7.105   3.262  0.6781  2.2752  2.1250
 4160SOL     OW16010  10.340   0.095  10.813  0.1243  0.1739 -0.2522
 4160SOL    HW116011  10.369   0.009  10.842  2.2569  1.1767  0.8422
 4160SOL    HW216012  10.400   0.118  10.743 -0.3547  0.8173 -0.4633
 4161SOL     OW16013  10.760   7.214   6.178 -0.5859 -0.1783 -0.2093
 4161SOL    HW116014  10.707   7.242   6.103 -1.3756  0.8898  0.7083
 4161SOL    HW216015  10.847   7.199   6.141 -0.6852  1.3786 -1.1713
 4162SOL     OW16016   5.279   9.218   8.143  0.3743  0.3945 -0.5638
 4162SOL    HW116017   5.220   9.288   8.172 -1.9253 -1.7602  0.3007
 4162SOL    HW216018   5.231   9.173   8.074  1.1628 -1.1870 -0.1284
 4163SOL     OW16019   3.381   4.417   4.027 -0.3380  0.2320 -0.3508
 4163SOL    HW116020   3.331   4.377   4.099  1.7306  0.1227  1.1147
 4163SOL    HW216021   3.366   4.511   4.037  0.6966  0.2923  0.8799
 4164SOL     OW16022   9.143   1.334   4.953 -0.2264  0.0444 -0.7220
 4164SOL    HW116023   9.233   1.360   4.935 -0.4955  1.7052  0.1089
 4164SOL    HW216024   9.134   1.340   5.048 -0.9846 -0.9224 -0.7160
 4165SOL     OW16025   2.551  10.038   0.846 -0.0795  0.5242  0.0770
 4165SOL    HW116026   2.508  10.006   0.926 -0.6241 -0.3075 -0.5315
 4165SOL    HW216027   2.618  10.098   0.878 -0.9198  0.9574  1.1186
 4166SOL     OW16028   4.400   4.956   9.390 -0.2548  0.6689  0.4446
 4166SOL    HW116029   4.312   4.950   9.353  0.3765 -1.8583 -0.8781
 4166SOL    HW216030   4.442   5.026   9.340 -0.9558  0.6488 -0.1931
 4167SOL     OW16031   2.455   7.464   3.023 -0.4662 -0.3215 -0.4072
 4167SOL    HW116032   2.542   7.477   3.061 -1.3336  0.2397  1.5059
 4167SOL    HW216033   2.446   7.534   2.959  0.1046  0.2343  0.1070
 4168SOL     OW16034   4.274   9.503   2.966 -0.6974  0.0018 -0.3139
 4168SOL    HW116035   4.344   9.547   2.918 -0.5034  1.6047  1.3320
 4168SOL    HW216036   4.225   9.574   3.007 -2.1368 -1.1971  0.1183
 4169SOL     OW16037   1.858   6.002   1.114 -0.4343 -0.6009 -0.0400
 4169SOL    HW116038   1.833   6.094   1.107 -0.9911 -0.5938  1.7333
 4169SOL    HW216039   1.777   5.954   1.098 -0.0415 -0.8295 -1.4750
 4170SOL     OW16040   2.020   8.447   6.303 -0.2351 -0.5923  0.3840
 4170SOL    HW116041   1.929   8.421   6.284 -1.0728  2.0896  0.2763
 4170SOL    HW216042   2.066   8.434   6.220 -1.0654  0.1156 -0.1969
 4171SOL     OW16043   8.148   8.441   4.867 -0.2154 -0.8637  0.4258
 4171SOL    HW116044   8.134   8.426   4.774  1.5124  0.9215 -0.1850
 4171SOL    HW216045   8.087   8.512   4.889 -0.2233 -0.9046  0.5367
 4172SOL     OW16046   2.713   6.559   3.947  0.3801 -0.0119  0.0422
 4172SOL    HW116047   2.634   6.610   3.964 -0.0585  0.6936 -3.3219
 4172SOL    HW216048   2.785   6.622   3.959  0.1648  0.2392  0.0316
 4173SOL     OW16049   3.932  11.008   7.353 -0.6089  0.3113  0.7140
 4173SOL    HW116050   3.953  11.096   7.383 -1.9395  0.8312  0.1592
 4173SOL    HW216051   3.868  11.020   7.284 -0.7026 -1.0898  0.5230
 4174SOL     OW16052  10.438   3.157   8.992  0.6005  0.4517  0.3090
 4174SOL    HW116053  10.367   3.200   9.039 -0.4027 -1.0972  0.2732
 4174SOL    HW216054  10.407   3.151   8.901  1.6634  1.5919 -0.1617
 4175SOL     OW16055   8.283   7.519   4.556  0.5559 -0.2258  0.5585
 4175SOL    HW116056   8.226   7.590   4.587 -0.0600 -1.2941  1.9894
 4175SOL    HW216057   8.226   7.464   4.503  0.6287 -0.5074  0.7727
 4176SOL     OW16058   3.709   7.752   0.941 -0.0734 -0.1273  0.1832
 4176SOL    HW116059   3.688   7.795   0.858  0.7459  0.4545  0.2680
 4176SOL    HW216060   3.636   7.692   0.956 -0.3811 -0.0116 -0.7999
 4177SOL     OW16061   3.516   5.323   7.804 -0.5000  0.6740  0.6601
 4177SOL    HW116062   3.546   5.263   7.735 -0.6405 -1.0784  2.0509
 4177SOL    HW216063   3.547   5.409   7.776 -1.7175  0.2871 -2.2802
 4178SOL     OW16064   3.090   4.552   4.174  0.0361 -0.1046 -0.4959
 4178SOL    HW116065   3.080   4.503   4.255 -0.8171  1.3600  0.3252
 4178SOL    HW216066   3.000   4.570   4.145  0.3300  0.3202 -1.1699
 4179SOL     OW16067   4.866   3.793   6.872  0.3325  0.5814 -0.0985
 4179SOL    HW116068   4.903   3.705   6.875 -1.1031 -0.0578 -0.3501
 4179SOL    HW216069   4.931   3.848   6.916  0.8843 -0.7317  0.7852
 4180SOL     OW16070   2.074   9.196   2.463 -0.4966 -0.6636 -0.2044
 4180SOL    HW116071   2.044   9.188   2.372 -0.7181 -1.2863 -0.0780
 4180SOL    HW216072   2.168   9.208   2.456 -0.2397 -2.5527 -0.4593
 4181SOL     OW16073   5.087   9.825   4.678  0.3360  0.2201  0.1382
 4181SOL    HW116074   5.020   9.887   4.648  0.5220 -0.1319 -1.0645
 4181SOL    HW216075   5.169   9.874   4.673  0.4813 -0.1062 -0.8002
 4182SOL     OW16076   7.228   0.318   9.247  0.1751 -0.2643  0.1405
 4182SOL    HW116077   7.292   0.279   9.306  2.5235  0.6651 -1.6310
 4182SOL    HW216078   7.258   0.295   9.159 -1.7516  0.4972 -0.7835
 4183SOL     OW16079   9.920   8.307   4.714  0.0282 -0.0179 -0.0447
 4183SOL    HW116080   9.863   8.263   4.776  0.3132  0.3841  0.5154
 4183SOL    HW216081   9.987   8.242   4.693 -0.8468 -0.6295 -1.0196
 4184SOL     OW16082   3.949   4.757   8.511  0.1862  0.2243 -0.0945
 4184SOL    HW116083   3.886   4.761   8.439 -2.3906 -0.0077  1.9861
 4184SOL    HW216084   3.994   4.841   8.507 -0.1066  0.3523 -1.7661
 4185SOL     OW16085   5.837   3.322   1.204  0.0399 -0.1633  0.0844
 4185SOL    HW116086   5.922   3.349   1.239 -0.2811  1.6274 -0.4411
 4185SOL    HW216087   5.775   3.344   1.274 -0.1022 -0.6442  0.1108
 4186SOL     OW16088   4.373   2.744   1.131 -0.0380 -1.1822 -0.4641
 4186SOL    HW116089   4.437   2.691   1.179 -0.6112 -0.8303  0.7286
 4186SOL    HW216090   4.289   2.716   1.166 -0.3051  1.4226  1.2300
 4187SOL     OW16091   3.508   8.863   6.078  0.6215 -0.2305  0.5179
 4187SOL    HW116092   3.434   8.806   6.056  1.5880 -0.9159 -1.1528
 4187SOL    HW216093   3.569   8.805   6.124  0.1625  0.3217  1.8557
 4188SOL     OW16094   7.093   9.585   3.375 -0.1024 -0.1489 -0.8492
 4188SOL    HW116095   7.097   9.680   3.366 -2.1011  0.0549 -0.1095
 4188SOL    HW216096   7.090   9.552   3.285 -1.6207  0.6414 -1.1092
 4189SOL     OW16097   8.758   0.269   0.729 -0.0978 -0.1099  0.1357
 4189SOL    HW116098   8.749   0.363   0.710 -0.2661 -0.0648  0.4285
 4189SOL    HW216099   8.713   0.226   0.657  1.2530 -0.0165 -0.8060
 4190SOL     OW16100   1.097   9.483   4.653 -0.1124 -0.4059 -0.0687
 4190SOL    HW116101   1.008   9.509   4.673  0.3036  0.2023  1.1007
 4190SOL    HW216102   1.117   9.415   4.717 -0.1025 -1.3600 -1.0508
 4191SOL     OW16103   8.515   8.058  10.660  0.2274 -0.1781 -0.1665
 4191SOL    HW116104   8.508   7.987  10.596 -0.7630 -0.7483  0.5388
 4191SOL    HW216105   8.425   8.071  10.690  0.1069  2.4735 -1.4107
 4192SOL     OW16106   6.438   4.046   7.029 -0.8345  0.2577  0.1740
 4192SOL    HW116107   6.403   4.035   6.941  0.3686  0.3209 -0.3322
 4192SOL    HW216108   6.396   4.126   7.062 -2.2261 -0.4381  0.1475
 4193SOL     OW16109   2.136   0.347   5.241 -0.3932 -0.0219 -0.3324
 4193SOL    HW116110   2.216   0.295   5.230  0.1173  0.2864  1.5009
 4193SOL    HW216111   2.111   0.374   5.153  2.4742  1.2456 -0.8599
 4194SOL     OW16112   9.467   0.357   4.370  0.3053 -0.3421 -0.1879
 4194SOL    HW116113   9.483   0.448   4.395 -0.8055 -0.0831 -0.3821
 4194SOL    HW216114   9.479   0.357   4.275 -2.6205  0.3060 -0.6482
 4195SOL     OW16115   1.029   8.102   0.847  0.0788 -0.2823 -0.4721
 4195SOL    HW116116   1.082   8.102   0.768 -0.5288  0.9492 -0.8870
 4195SOL    HW216117   0.939   8.087   0.817 -0.4579  2.1906 -0.2634
 4196SOL     OW16118   9.946   4.238   3.142  0.1918  0.2825  0.3594
 4196SOL    HW116119   9.877   4.271   3.086 -0.8558 -1.9521  0.1982
 4196SOL    HW216120  10.025   4.241   3.088 -0.3305  0.3500 -0.4097
 4197SOL     OW16121   6.801   0.218   5.907  0.2814  0.3625  0.5524
 4197SOL    HW116122   6.751   0.282   5.958 -0.3177 -0.0328  0.4661
 4197SOL    HW216123   6.890   0.254   5.904 -0.5497  2.4266 -1.5496
 4198SOL     OW16124   3.691  10.201   9.224 -0.2396  0.3456  0.4806
 4198SOL    HW116125   3.743  10.216   9.303 -0.1117 -3.9240  1.4647
 4198SOL    HW216126   3.600  10.196   9.255 -0.0778 -2.7103  0.8202
 4199SOL     OW16127   8.817   6.965   4.514 -0.2575 -0.0033  0.5652
 4199SOL    HW116128   8.848   7.010   4.436  0.5662  0.2215  1.0109
 4199SOL    HW216129   8.891   6.912   4.543 -0.9356 -0.9942  0.5311
 4200SOL     OW16130   9.184   1.573   3.176  0.3128  0.4038  0.2987
 4200SOL    HW116131   9.119   1.642   3.165  0.0660  0.1409  0.0741
 4200SOL    HW216132   9.260   1.616   3.213  0.0458  0.7385  0.4582
 4201SOL     OW16133   3.529   5.856   3.031  0.0080 -0.2569  0.3231
 4201SOL    HW116134   3.574   5.832   3.112 -0.2161 -0.4344  0.3947
 4201SOL    HW216135   3.487   5.775   3.002  0.4939 -0.3094 -0.2336
 4202SOL     OW16136   4.885   7.076   5.711  0.2309 -0.1465  0.5932
 4202SOL    HW116137   4.835   7.096   5.631  0.3719  1.0271  0.7737
 4202SOL    HW216138   4.818   7.052   5.775  0.1621 -1.6517 -0.0221
 4203SOL     OW16139  10.190   6.467   5.651  0.3694 -0.1552  0.6318
 4203SOL    HW116140  10.096   6.472   5.668  0.4187 -0.3105  0.9412
 4203SOL    HW216141  10.217   6.558   5.640  0.5894  0.0577  2.6914
 4204SOL     OW16142   4.894   3.383   4.023 -0.2323 -0.3270  0.3710
 4204SOL    HW116143   4.968   3.434   4.054 -0.7409  0.2167  0.7240
 4204SOL    HW216144   4.884   3.313   4.087 -0.7604  0.3033  1.0015
 4205SOL     OW16145   7.073   5.163   8.023  0.0758 -0.1870 -0.1761
 4205SOL    HW116146   7.143   5.170   7.958  0.8990 -0.3137  0.6744
 4205SOL    HW216147   6.992   5.166   7.972  0.6925  0.2622 -1.1528
 4206SOL     OW16148   4.048   5.305   2.523  0.0542 -0.5044 -0.2004
 4206SOL    HW116149   4.082   5.385   2.563 -0.8863 -0.4832  0.5872
 4206SOL    HW216150   4.120   5.273   2.469  0.6303  0.5823 -0.1032
 4207SOL     OW16151   1.271   0.655   0.340  0.2303  0.6178  0.2161
 4207SOL    HW116152   1.223   0.738   0.344 -1.7058 -0.4927  1.5502
 4207SOL    HW216153   1.227   0.605   0.271  1.1321  0.5312 -0.3065
 4208SOL     OW16154   6.278   6.461   8.914 -0.1768  0.0425 -0.2058
 4208SOL    HW116155   6.319   6.376   8.898 -1.0604 -0.2708 -0.8627
 4208SOL    HW216156   6.187   6.450   8.886 -0.7337  0.7266  1.1951
 4209SOL     OW16157   2.046   0.049   2.596 -0.2097 -0.1761 -0.0161
 4209SOL    HW116158   1.993   0.078   2.670 -0.7594 -0.6960 -0.2031
 4209SOL    HW216159   2.050   0.124   2.538 -2.3127 -0.6770 -0.8923
 4210SOL     OW16160   4.397   1.819   5.604 -0.7523 -0.3527  0.1603
 4210SOL    HW116161   4.305   1.793   5.596 -1.1572  1.2802 -1.1807
 4210SOL    HW216162   4.399   1.879   5.678 -0.2514 -2.2985  1.7894
 4211SOL     OW16163   4.936   1.664   7.031  0.4159 -0.0336 -0.3044
 4211SOL    HW116164   4.873   1.665   6.958  0.6947  0.4373 -0.5424
 4211SOL    HW216165   4.915   1.742   7.081  0.0819 -0.4738  0.2535
 4212SOL     OW16166   0.169   0.413  10.013  0.1304 -0.2301 -0.5370
 4212SOL    HW116167   0.257   0.441   9.985  0.3878  1.7709  1.9299
 4212SOL    HW216168   0.174   0.318  10.015  1.9748 -0.1966 -1.2954
 4213SOL     OW16169   1.834  10.815   8.134  0.7147  0.1628 -0.3033
 4213SOL    HW116170   1.742  10.828   8.159  1.4048  0.5286  2.2883
 4213SOL    HW216171   1.833  10.734   8.083 -1.5935  2.3628 -4.2241
 4214SOL     OW16172   9.675   8.855   5.901 -0.2123  0.0643 -0.0586
 4214SOL    HW116173   9.722   8.920   5.848 -0.7585  0.8037  0.3338
 4214SOL    HW216174   9.734   8.837   5.975  0.0017  0.0028 -0.2415
 4215SOL     OW16175   7.530   8.485   5.545  0.0835 -0.5683 -0.1013
 4215SOL    HW116176   7.490   8.515   5.463  0.7631  0.5491 -0.0398
 4215SOL    HW216177   7.617   8.454   5.520 -0.5924 -2.5905 -0.1647
 4216SOL     OW16178   1.479   1.880   9.176 -0.1389  0.2948  0.2214
 4216SOL    HW116179   1.522   1.966   9.181  2.0267 -0.7035 -0.0702
 4216SOL    HW216180   1.546   1.822   9.140 -1.4169 -1.6137  0.7802
 4217SOL     OW16181   3.226  10.137   1.160 -0.0339  0.1364 -0.3305
 4217SOL    HW116182   3.166  10.136   1.234 -0.7070  0.4020 -0.8597
 4217SOL    HW216183   3.300  10.190   1.189 -1.0836  1.7357 -0.4387
 4218SOL     OW16184   2.331   0.335   1.990  0.1127  0.1070 -0.4839
 4218SOL    HW116185   2.386   0.260   2.010  0.1922  0.4192  0.5217
 4218SOL    HW216186   2.359   0.363   1.903 -1.0260 -2.0041 -1.6007
 4219SOL     OW16187   6.884   7.534   3.471 -0.2813 -0.0815  0.2507
 4219SOL    HW116188   6.824   7.508   3.541  0.2117 -1.2960  0.2501
 4219SOL    HW216189   6.914   7.451   3.434  1.9746  0.4611  0.7225
 4220SOL     OW16190  10.825   8.671   9.630 -0.5298 -0.6181 -0.3221
 4220SOL    HW116191  10.758   8.640   9.691 -0.2537  0.3735  0.5169
 4220SOL    HW216192  10.873   8.737   9.679 -0.9131  0.9182 -1.8997
 4221SOL     OW16193   3.580   8.038   0.841 -0.7682 -0.3700  0.0704
 4221SOL    HW116194   3.513   7.970   0.830  0.0876 -1.6199  2.0246
 4221SOL    HW216195   3.583   8.053   0.935  0.6672  0.7461 -0.1198
 4222SOL     OW16196   7.922   9.499   5.526  0.2643 -0.0002 -0.0293
 4222SOL    HW116197   7.971   9.562   5.473  0.1648  0.2146  0.1361
 4222SOL    HW216198   7.987   9.465   5.587  0.1088  0.6063  0.4784
 4223SOL     OW16199   4.878  10.259   9.386  0.0311  0.1592 -0.1176
 4223SOL    HW116200   4.835  10.340   9.358 -1.9205 -0.8116 -0.1292
 4223SOL    HW216201   4.808  10.193   9.383  1.3415 -1.3359  0.7778
 4224SOL     OW16202  10.905   2.451   0.071 -0.2619  0.1196  0.4626
 4224SOL    HW116203  10.851   2.387   0.026  1.0363  0.3591 -1.5532
 4224SOL    HW216204  10.842   2.514   0.108 -1.4222  0.7685 -2.3431
 4225SOL     OW16205   7.761   2.815  10.764  0.0050 -0.1101 -0.1162
 4225SOL    HW116206   7.803   2.745  10.814 -1.6947 -0.7383  0.4978
 4225SOL    HW216207   7.710   2.770  10.697 -0.0225  0.6129 -0.6017
 4226SOL     OW16208   7.945   7.220  10.885 -0.5605  0.4325  0.4166
 4226SOL    HW116209   8.017   7.176  10.930 -2.3875 -1.3939  1.7691
 4226SOL    HW216210   7.962   7.204  10.792  1.0959  0.6056  0.6712
 4227SOL     OW16211   0.121   7.363   0.546  0.0949 -0.7976  0.3149
 4227SOL    HW116212   0.029   7.379   0.530  0.5101  1.7387  0.0788
 4227SOL    HW216213   0.122   7.293   0.612 -1.8429 -3.2454 -2.0366
 4228SOL     OW16214   3.677   1.053   2.558  0.2412 -0.3074  0.3362
 4228SOL    HW116215   3.581   1.056   2.563 -0.0588  0.4029 -3.1706
 4228SOL    HW216216   3.698   0.961   2.549  0.2625 -0.7874  3.7781
 4229SOL     OW16217   8.020   3.200   1.980  0.3153  0.0107 -0.5362
 4229SOL    HW116218   8.033   3.105   1.973  0.3853 -0.0582  0.5062
 4229SOL    HW216219   7.940   3.210   2.032  0.0709  0.5278 -0.9979
 4230SOL     OW16220   9.848   8.132   4.903 -0.2693  0.0146  0.0928
 4230SOL    HW116221   9.927   8.152   4.954 -0.6086 -0.3085  0.7525
 4230SOL    HW216222   9.831   8.040   4.921 -0.7837  0.0769 -0.0735
 4231SOL     OW16223   9.429   8.880   9.934 -0.1642  0.2723 -0.3516
 4231SOL    HW116224   9.443   8.952   9.996 -0.0722  0.2026 -0.2931
 4231SOL    HW216225   9.471   8.804   9.975 -1.8128 -0.2625  0.4653
 4232SOL     OW16226   7.518   9.142   7.003 -0.3350 -0.0336  0.0651
 4232SOL    HW116227   7.479   9.102   7.082 -0.2104  1.3796  0.8724
 4232SOL    HW216228   7.453   9.127   6.934 -0.6516 -0.9010  0.5318
 4233SOL     OW16229   1.360  10.926   5.679 -0.1392 -0.1494  0.0673
 4233SOL    HW116230   1.387  11.006   5.633 -0.6708  0.0184  0.0483
 4233SOL    HW216231   1.326  10.869   5.611 -2.2046  0.6217  0.3913
 4234SOL     OW16232   8.539   7.633   1.913  0.4725 -0.4853 -0.6365
 4234SOL    HW116233   8.484   7.555   1.908  0.1911 -0.6207  2.4918
 4234SOL    HW216234   8.487   7.703   1.874 -0.4327 -1.3034 -0.9193
 4235SOL     OW16235   3.623   6.489   6.764 -0.2024 -0.2848  0.1852
 4235SOL    HW116236   3.645   6.403   6.729 -0.4611 -0.4466  0.4157
 4235SOL    HW216237   3.593   6.539   6.688 -2.6755 -1.2492  0.4465
 4236SOL     OW16238   6.572   6.289   0.096  0.0354  0.4067  0.5815
 4236SOL    HW116239   6.512   6.314   0.166  0.4585  0.7856  0.8162
 4236SOL    HW216240   6.653   6.336   0.117  0.0936  0.7116 -0.2894
 4237SOL     OW16241   5.195   9.750   7.328  0.0931  0.0951  0.0263
 4237SOL    HW116242   5.145   9.699   7.264  1.7495 -0.3646 -0.9552
 4237SOL    HW216243   5.271   9.695   7.348  1.5374  1.8386 -0.4781
 4238SOL     OW16244   3.617   0.984   3.247  0.1943 -0.9244 -0.0699
 4238SOL    HW116245   3.713   0.983   3.254  0.1624 -1.5632  0.2814
 4238SOL    HW216246   3.591   0.893   3.256 -0.5549 -0.5943  1.3185
 4239SOL     OW16247   6.125   7.229   0.750 -0.3513 -0.6848  0.5789
 4239SOL    HW116248   6.040   7.226   0.705 -0.9067 -3.7086  1.5870
 4239SOL    HW216249   6.190   7.228   0.680 -1.0285  2.6755 -0.2442
 4240SOL     OW16250   0.978  10.703   4.403 -0.5728 -0.0743  0.4631
 4240SOL    HW116251   1.025  10.620   4.392 -0.0174  0.5318 -2.9142
 4240SOL    HW216252   1.029  10.766   4.351 -1.7839  2.0516  1.7224
 4241SOL     OW16253   9.780   9.664  10.598 -0.0780 -0.2065 -0.0387
 4241SOL    HW116254   9.706   9.622  10.642  0.2650 -1.0618 -0.2608
 4241SOL    HW216255   9.750   9.679  10.509 -0.2227  0.0717  0.0567
 4242SOL     OW16256   7.922   6.984  10.234 -0.1120 -0.1400  0.6904
 4242SOL    HW116257   8.003   7.034  10.221 -0.3105 -0.1911 -0.9325
 4242SOL    HW216258   7.880   7.027  10.309  1.3330 -0.0250  1.4759
 4243SOL     OW16259   1.662   0.192   7.580 -0.0390 -0.3607  0.4312
 4243SOL    HW116260   1.581   0.190   7.529  1.6123 -0.6469 -2.3872
 4243SOL    HW216261   1.680   0.100   7.600 -0.2242 -0.3200  0.8046
 4244SOL     OW16262   2.691   0.916   4.284 -0.3143  0.3998 -0.1553
 4244SOL    HW116263   2.661   0.828   4.307 -1.6986  0.4975 -1.4172
 4244SOL    HW216264   2.685   0.966   4.365 -0.7926 -0.3285  0.2662
 4245SOL     OW16265   9.838   3.173   9.962 -0.2453 -0.1108  0.1506
 4245SOL    HW116266   9.846   3.187   9.868 -0.7992  1.1974  0.2802
 4245SOL    HW216267   9.849   3.079   9.973 -0.4965 -0.3266 -1.2504
 4246SOL     OW16268   7.533   8.629   0.695  0.9961  0.4951  0.1372
 4246SOL    HW116269   7.459   8.620   0.635  0.9335 -0.8035  0.3953
 4246SOL    HW216270   7.563   8.540   0.711  2.6146  0.9909  0.0650
 4247SOL     OW16271   9.327   6.490   0.394  0.0058 -0.5216 -0.5066
 4247SOL    HW116272   9.351   6.439   0.471 -1.8824 -2.2539 -1.0037
 4247SOL    HW216273   9.232   6.494   0.395 -0.1092 -0.9328 -2.9305
 4248SOL     OW16274   7.225  10.273   5.935  0.1022  0.0489 -0.5709
 4248SOL    HW116275   7.142  10.307   5.902 -0.6871 -2.2083 -1.0995
 4248SOL    HW216276   7.281  10.269   5.857  0.6022  1.1967 -0.2878
 4249SOL     OW16277   9.029   3.104   0.028  0.0238 -0.1526  0.5647
 4249SOL    HW116278   9.110   3.155   0.023 -0.2950  0.4207  1.1929
 4249SOL    HW216279   9.055   3.023   0.071  0.6256 -0.7408 -0.8412
 4250SOL     OW16280   4.587   8.817   0.311 -0.1063 -0.6005  0.3710
 4250SOL    HW116281   4.570   8.838   0.403  0.2549  1.5472  0.0099
 4250SOL    HW216282   4.535   8.882   0.262  1.6747 -0.0451 -0.8732
 4251SOL     OW16283   1.715   7.624   0.221  0.3633 -0.4549 -0.0238
 4251SOL    HW116284   1.799   7.630   0.175 -0.2811  0.9673 -1.1213
 4251SOL    HW216285   1.663   7.564   0.167  1.0835 -2.5188  1.4430
 4252SOL     OW16286   1.320   2.670   9.598  0.0210 -0.4571 -0.2131
 4252SOL    HW116287   1.387   2.734   9.622 -0.3251  0.0742 -0.6299
 4252SOL    HW216288   1.245   2.723   9.573 -0.7010 -1.0372  0.6246
 4253SOL     OW16289   0.287   9.901   9.465 -0.2372  0.2611 -0.1997
 4253SOL    HW116290   0.369   9.855   9.482 -0.1821 -0.6076 -2.4693
 4253SOL    HW216291   0.310   9.994   9.471  0.3891  0.0453  1.2649
 4254SOL     OW16292   0.813   4.022   3.328 -0.1793  0.4516 -0.0625
 4254SOL    HW116293   0.718   4.014   3.313  0.0354 -0.6001 -1.0175
 4254SOL    HW216294   0.838   3.939   3.369  0.2991  0.8190  0.4037
 4255SOL     OW16295   3.668   2.986   8.880 -0.3462 -0.5113 -0.7490
 4255SOL    HW116296   3.617   2.953   8.954 -0.0712  0.7692  0.0409
 4255SOL    HW216297   3.652   2.923   8.810 -1.2697 -1.3076  0.1484
 4256SOL     OW16298   4.897   4.122   4.962  0.3243 -0.2537 -0.3623
 4256SOL    HW116299   4.846   4.140   5.041  0.1113 -2.2735 -0.0101
 4256SOL    HW216300   4.987   4.118   4.993  0.2181 -1.2794 -0.1570
 4257SOL     OW16301   7.346   2.635   4.923  0.0563  0.6644  0.2272
 4257SOL    HW116302   7.323   2.633   4.830  1.3911  0.2796 -0.1178
 4257SOL    HW216303   7.309   2.717   4.956 -2.0729 -0.0811 -0.1792
 4258SOL     OW16304   4.011   5.449   1.554  0.4339  0.5677  0.4382
 4258SOL    HW116305   4.066   5.498   1.616  1.4659  0.8476 -0.6519
 4258SOL    HW216306   4.035   5.485   1.468 -1.3200  0.5432 -0.0923
 4259SOL     OW16307   5.481   3.425   8.019  0.1378 -0.1754 -0.3119
 4259SOL    HW116308   5.552   3.488   8.034 -0.3684  0.6788 -1.3049
 4259SOL    HW216309   5.403   3.480   8.007 -0.5255 -1.0517 -0.1162
 4260SOL     OW16310  10.272  10.823  10.184  0.0399  0.4324 -0.1818
 4260SOL    HW116311  10.364  10.835  10.161 -0.0663  0.5120 -0.5704
 4260SOL    HW216312  10.249  10.737  10.147 -0.2038  0.6789 -0.6096
 4261SOL     OW16313   5.828   1.556   9.366 -0.0944  0.5530  0.3896
 4261SOL    HW116314   5.762   1.496   9.399 -0.1167 -0.5400 -1.4945
 4261SOL    HW216315   5.800   1.576   9.276  0.6757  2.2757  0.4821
 4262SOL     OW16316   0.598   6.918   0.799  0.1873 -0.4593 -0.0474
 4262SOL    HW116317   0.534   6.942   0.865  0.2688 -2.2047  0.6978
 4262SOL    HW216318   0.581   6.826   0.779  2.7024 -1.1329  0.5118
 4263SOL     OW16319   0.626   7.132  10.766 -0.1975  0.6208 -0.0075
 4263SOL    HW116320   0.544   7.093  10.798 -0.2692  1.2341  0.5935
 4263SOL    HW216321   0.681   7.138  10.844  0.4414  0.1741 -0.4207
 4264SOL     OW16322   7.261   7.189  10.124  0.1856 -0.0226  0.1661
 4264SOL    HW116323   7.171   7.193  10.090  0.2969  3.0938 -0.0213
 4264SOL    HW216324   7.253   7.141  10.206 -1.6703  0.1999  0.1611
 4265SOL     OW16325   9.601   5.395   2.842 -0.2164 -0.2458  0.9126
 4265SOL    HW116326   9.692   5.368   2.835  0.2785  0.9945  2.1948
 4265SOL    HW216327   9.562   5.332   2.903 -0.6487 -1.6849 -0.7582
 4266SOL     OW16328   5.769   4.015   6.803 -0.0939  0.6396 -0.2763
 4266SOL    HW116329   5.740   4.106   6.805 -1.0581  0.3437 -0.3167
 4266SOL    HW216330   5.689   3.964   6.787  0.5367 -0.1631 -0.9894
 4267SOL     OW16331  10.668   4.473   2.945 -0.2437 -0.3013  0.1147
 4267SOL    HW116332  10.666   4.512   2.858 -1.6282 -0.8586 -0.1387
 4267SOL    HW216333  10.601   4.520   2.994  0.9266  0.4035  1.0795
 4268SOL     OW16334   0.385   0.170   2.759  0.7902 -0.6245 -0.1251
 4268SOL    HW116335   0.332   0.090   2.757  0.9996 -0.7779  0.2846
 4268SOL    HW216336   0.322   0.241   2.747  0.2173 -0.6917  2.0271
 4269SOL     OW16337   8.589   6.507   0.413 -0.1556 -0.5018  0.2894
 4269SOL    HW116338   8.667   6.455   0.429  1.1760  1.6222  1.0761
 4269SOL    HW216339   8.518   6.443   0.406  1.5065 -2.4318  0.3643
 4270SOL     OW16340  10.989   4.635   3.674  0.9672 -0.2603  0.1187
 4270SOL    HW116341  11.005   4.612   3.765 -0.5447  0.9736  0.7352
 4270SOL    HW216342  10.929   4.568   3.642  0.5430 -0.0152  0.4002
 4271SOL     OW16343   5.248   7.953   3.860  0.0734 -0.5907 -0.1546
 4271SOL    HW116344   5.329   7.904   3.846  0.3126  0.1592 -1.5110
 4271SOL    HW216345   5.193   7.931   3.784 -0.7785 -0.6451  0.4602
 4272SOL     OW16346   3.409   8.499   7.486  0.8735 -0.2744 -0.4862
 4272SOL    HW116347   3.458   8.477   7.407 -1.5298  1.7040 -2.6662
 4272SOL    HW216348   3.456   8.575   7.523  0.2946  0.7654 -1.8104
 4273SOL     OW16349   6.962   5.460   1.928  0.6248 -0.3608  0.0089
 4273SOL    HW116350   6.876   5.487   1.895  0.0466 -0.7707  1.1330
 4273SOL    HW216351   6.947   5.373   1.965  1.8036 -0.9623 -0.8659
 4274SOL     OW16352   0.898   1.080   9.938 -0.2911  0.0898  0.0730
 4274SOL    HW116353   0.952   1.008   9.905 -0.4675  0.4817 -1.1262
 4274SOL    HW216354   0.817   1.074   9.888 -1.2065 -0.1979  1.5241
 4275SOL     OW16355   5.258   8.794   1.302  0.2215  0.6528 -0.1812
 4275SOL    HW116356   5.331   8.758   1.251  1.1150  0.1340  1.3936
 4275SOL    HW216357   5.267   8.753   1.388 -0.8787  1.9419  0.5755
 4276SOL     OW16358   1.393   6.710   0.370  0.0469  0.3698  0.0829
 4276SOL    HW116359   1.337   6.632   0.372 -0.5126  0.7410 -0.5171
 4276SOL    HW216360   1.430   6.710   0.282  1.3488 -0.1023  0.6062
 4277SOL     OW16361   6.008   2.078   3.865 -0.1516 -0.1416  0.0483
 4277SOL    HW116362   6.005   2.004   3.925  0.4439  0.1444  0.4434
 4277SOL    HW216363   6.037   2.151   3.919  2.5133 -0.3292 -1.0019
 4278SOL     OW16364   2.585   7.671  10.903  0.3346 -0.1303  0.7182
 4278SOL    HW116365   2.663   7.727  10.905 -0.4332  1.1143 -1.0520
 4278SOL    HW216366   2.527   7.709  10.970 -0.1214  1.1778 -0.3701
 4279SOL     OW16367  10.663   7.071   8.573  0.5462 -0.0321  0.0682
 4279SOL    HW116368  10.711   7.133   8.627  0.3630 -0.5216  0.8118
 4279SOL    HW216369  10.571   7.091   8.590  0.4861 -0.5709  0.3954
 4280SOL     OW16370   2.585   5.153   7.807  0.2794 -0.6255 -0.0111
 4280SOL    HW116371   2.668   5.109   7.829  0.2432 -1.1630 -0.9047
 4280SOL    HW216372   2.567   5.125   7.718  0.1241  1.0405 -0.5265
 4281SOL     OW16373  10.687   4.314   8.268  0.1180 -0.1506  0.4198
 4281SOL    HW116374  10.665   4.387   8.326  0.7487  0.3988 -0.0271
 4281SOL    HW216375  10.672   4.236   8.322  2.0029  0.3757  1.8178
 4282SOL     OW16376  10.550   4.019  11.027 -0.3419 -0.3433 -0.2562
 4282SOL    HW116377  10.638   4.029  10.991  0.2559  0.5875  1.3392
 4282SOL    HW216378  10.540   3.925  11.040  0.6820 -0.4256  0.1018
 4283SOL     OW16379  10.655   9.886  10.259 -0.7818 -0.0123 -0.2998
 4283SOL    HW116380  10.632   9.860  10.170 -0.7297 -0.3975 -0.2051
 4283SOL    HW216381  10.571   9.904  10.301 -0.8529 -0.4408 -0.2483
 4284SOL     OW16382   7.507   6.207  10.855 -0.4213  0.1439  0.2495
 4284SOL    HW116383   7.496   6.294  10.816 -0.0083 -0.2679 -0.8536
 4284SOL    HW216384   7.429   6.159  10.828 -0.2764 -0.0586  0.1901
 4285SOL     OW16385   9.579   5.237   5.385 -0.2345 -0.0023  1.0106
 4285SOL    HW116386   9.607   5.326   5.364  2.6532 -1.2327 -1.0810
 4285SOL    HW216387   9.658   5.183   5.371 -2.5410 -3.2854 -0.7588
 4286SOL     OW16388  10.018   1.218   9.680  0.2686 -0.2423  0.0175
 4286SOL    HW116389   9.973   1.149   9.631  0.3985  0.8130 -1.7046
 4286SOL    HW216390   9.977   1.218   9.766 -0.8166 -1.4032 -0.4715
 4287SOL     OW16391   6.330   2.437   2.060 -0.0074  0.2970  0.1602
 4287SOL    HW116392   6.250   2.408   2.104  0.1015  2.9961  2.4580
 4287SOL    HW216393   6.400   2.418   2.122  0.7278  0.6365 -0.5390
 4288SOL     OW16394   4.115   0.446   5.301  0.0398 -0.2453  0.0151
 4288SOL    HW116395   4.123   0.517   5.365  0.9181  0.8596 -1.2573
 4288SOL    HW216396   4.203   0.435   5.266 -0.6002 -0.0844 -1.7510
 4289SOL     OW16397   2.228  10.349   7.876 -0.4073  0.5594 -0.3689
 4289SOL    HW116398   2.243  10.355   7.781  0.6625 -0.5117 -0.2833
 4289SOL    HW216399   2.133  10.341   7.885 -0.4465 -0.3378 -1.4164
 4290SOL     OW16400   3.053   1.230   8.118 -0.5812 -0.4673 -0.3528
 4290SOL    HW116401   3.052   1.313   8.072 -0.5086  0.9484  2.0458
 4290SOL    HW216402   2.983   1.237   8.183  0.3178 -1.7029  0.8255
 4291SOL     OW16403   2.083  10.945   2.497 -0.0445  0.0796 -0.0201
 4291SOL    HW116404   2.060  11.023   2.548 -1.1563 -0.8132  0.8925
 4291SOL    HW216405   2.105  10.979   2.410 -1.8512  1.2917 -0.0479
 4292SOL     OW16406   0.905   3.514   6.752  0.0146 -0.1346  0.2811
 4292SOL    HW116407   0.936   3.452   6.686  1.9792  0.3130  0.7220
 4292SOL    HW216408   0.845   3.572   6.704  1.4527  0.2333 -1.1705
 4293SOL     OW16409   0.019   5.395   4.482 -0.4653  0.4718 -0.4280
 4293SOL    HW116410   0.022   5.305   4.515 -0.2065 -0.6561 -3.2862
 4293SOL    HW216411  -0.063   5.431   4.517 -2.2455 -2.0016 -1.7608
 4294SOL     OW16412   1.399   1.849   9.515  0.0291 -1.0010 -0.4744
 4294SOL    HW116413   1.397   1.855   9.420  1.1740  0.4648 -0.4444
 4294SOL    HW216414   1.307   1.835   9.540 -0.5983  0.6037 -1.6980
 4295SOL     OW16415  10.114   8.300   3.612 -0.1343 -0.3610 -0.2723
 4295SOL    HW116416  10.109   8.217   3.659  0.4762 -0.1964  0.1055
 4295SOL    HW216417  10.082   8.280   3.524  1.5043 -1.3925 -0.6785
 4296SOL     OW16418   8.613   7.502   4.254  0.4787  0.2314  0.3181
 4296SOL    HW116419   8.708   7.506   4.259  0.4340  2.3092  0.7013
 4296SOL    HW216420   8.583   7.559   4.325 -1.0434 -0.2308  0.0841
 4297SOL     OW16421   7.824   2.658  11.000 -0.1930 -0.4156 -0.1861
 4297SOL    HW116422   7.885   2.681  11.070  1.5208 -0.8659 -1.4865
 4297SOL    HW216423   7.856   2.574  10.966 -0.9328 -0.1722 -1.5615
 4298SOL     OW16424   1.859   0.223   2.674  0.0489 -0.0736 -0.0926
 4298SOL    HW116425   1.826   0.254   2.589 -0.8479 -2.9129 -0.8763
 4298SOL    HW216426   1.889   0.303   2.718 -0.0973  1.6034 -2.7737
 4299SOL     OW16427   1.906   0.627   4.120 -0.0030 -0.0252 -0.5651
 4299SOL    HW116428   1.859   0.563   4.174  2.0216 -1.7491 -0.6991
 4299SOL    HW216429   1.845   0.648   4.050 -0.9568 -1.3885 -0.1945
 4300SOL     OW16430   5.569   8.467   3.294  0.0067 -0.3280  0.0325
 4300SOL    HW116431   5.588   8.455   3.387 -1.1157 -0.5438  0.2462
 4300SOL    HW216432   5.644   8.517   3.260  1.0855 -1.4179  0.7492
 4301SOL     OW16433   1.964   0.755   9.200 -0.2979  0.4918 -0.2585
 4301SOL    HW116434   1.967   0.840   9.158 -0.3717  1.3402  1.3759
 4301SOL    HW216435   2.018   0.699   9.145  0.0098  1.6605 -1.1827
 4302SOL     OW16436   0.638   3.242   0.944  0.1594 -0.5058  0.3440
 4302SOL    HW116437   0.568   3.226   1.007  0.4786 -0.1072  0.8037
 4302SOL    HW216438   0.629   3.171   0.880  0.1330 -1.1987  1.0986
 4303SOL     OW16439   4.363   5.998   4.002  0.0353 -0.2739 -0.0912
 4303SOL    HW116440   4.452   5.964   4.015  0.2521  0.5434  0.7177
 4303SOL    HW216441   4.376   6.089   3.975 -0.5303  0.6110  2.3619
 4304SOL     OW16442   9.141   0.783  10.410  0.4775  0.2002 -0.5873
 4304SOL    HW116443   9.176   0.729  10.481 -1.5398 -1.7994 -0.9718
 4304SOL    HW216444   9.198   0.766  10.335  1.3977  0.6949 -0.0075
 4305SOL     OW16445   5.084  10.030   8.216  0.2719 -0.1865 -0.3680
 4305SOL    HW116446   5.010  10.090   8.205 -0.2416 -0.6705  0.3575
 4305SOL    HW216447   5.086   9.979   8.135 -1.0180 -1.0580  0.1148
 4306SOL     OW16448   0.674   4.848   5.277 -0.3775  0.1637  0.2124
 4306SOL    HW116449   0.592   4.859   5.229  1.6457  1.4742 -3.2974
 4306SOL    HW216450   0.693   4.935   5.312  0.3711  0.2890 -0.5005
 4307SOL     OW16451   4.211   5.875   7.698 -0.2101  0.6028 -0.2784
 4307SOL    HW116452   4.174   5.818   7.631  0.0534  0.4605 -0.3005
 4307SOL    HW216453   4.282   5.921   7.655 -0.0003  0.4663 -0.0812
 4308SOL     OW16454   8.615   8.907  10.517  0.3615  0.1082 -0.5701
 4308SOL    HW116455   8.644   8.939  10.432  0.0281  2.0473 -0.0071
 4308SOL    HW216456   8.534   8.860  10.498  0.7743 -0.2781 -1.4330
 4309SOL     OW16457   4.613   4.386   7.993 -0.0037 -0.1883  0.2991
 4309SOL    HW116458   4.683   4.326   7.968 -0.2545  0.0295 -1.0177
 4309SOL    HW216459   4.658   4.458   8.038  0.9934  1.0288 -2.3963
 4310SOL     OW16460   6.869  10.395   1.793 -0.1095  0.7345 -0.1388
 4310SOL    HW116461   6.830  10.348   1.867  0.2403 -0.6456 -0.7821
 4310SOL    HW216462   6.818  10.364   1.717  0.7367  0.6833 -0.6956
 4311SOL     OW16463   7.229   0.481   1.335  0.4672  0.9584  0.4593
 4311SOL    HW116464   7.232   0.398   1.286 -0.9895  1.1298  0.0297
 4311SOL    HW216465   7.232   0.454   1.427 -1.7222  0.2419  0.3969
 4312SOL     OW16466   7.854   5.231   3.952 -0.0537 -0.3870 -0.0023
 4312SOL    HW116467   7.820   5.204   3.867 -0.7696 -0.7283  0.3850
 4312SOL    HW216468   7.893   5.152   3.989 -1.0355 -0.5996  0.5980
 4313SOL     OW16469   9.620   6.558   7.777  0.7000  0.5866 -0.3832
 4313SOL    HW116470   9.531   6.522   7.777  1.3613 -1.1199 -0.8973
 4313SOL    HW216471   9.632   6.591   7.688  1.0339 -0.3860 -0.7060
 4314SOL     OW16472   6.765   0.401   6.717 -0.4512 -0.3110  0.2447
 4314SOL    HW116473   6.836   0.340   6.738  0.3668  1.2418  2.3422
 4314SOL    HW216474   6.685   0.352   6.736  0.1787 -0.8968  1.5376
 4315SOL     OW16475   9.597   2.692   8.090 -0.0398  0.3708  0.5989
 4315SOL    HW116476   9.583   2.609   8.044  0.8873  1.1116 -1.0973
 4315SOL    HW216477   9.665   2.736   8.039 -1.3136  2.6824  0.7827
 4316SOL     OW16478   6.291   9.595   4.346  0.3276  0.1794  0.1979
 4316SOL    HW116479   6.199   9.573   4.332  0.0327  1.7768 -0.5690
 4316SOL    HW216480   6.290   9.667   4.409  1.2702 -1.7520  2.6269
 4317SOL     OW16481   5.544   5.721   3.743  0.1010  0.1032  0.9932
 4317SOL    HW116482   5.596   5.785   3.792  0.0127 -0.4878  1.8953
 4317SOL    HW216483   5.598   5.642   3.742 -0.0305  0.0177  0.3900
 4318SOL     OW16484  10.408   1.829   0.181 -0.1832 -0.2474  0.3218
 4318SOL    HW116485  10.364   1.907   0.214 -0.6273 -0.3689  0.0231
 4318SOL    HW216486  10.366   1.757   0.227  0.0795 -0.3259  0.4389
 4319SOL     OW16487   2.803   7.167   1.800  0.3451 -0.0503 -0.1683
 4319SOL    HW116488   2.842   7.247   1.835  1.7609 -0.2451 -1.2198
 4319SOL    HW216489   2.765   7.194   1.716 -0.2612 -0.2427  0.0347
 4320SOL     OW16490   7.472  10.751  10.251 -0.2403 -0.0260  0.5826
 4320SOL    HW116491   7.502  10.804  10.325  1.5244  0.6772 -0.5678
 4320SOL    HW216492   7.416  10.684  10.290  0.1679  0.6845  2.4728
 4321SOL     OW16493   0.546   6.933   0.087  0.0625 -0.3162  0.3890
 4321SOL    HW116494   0.484   7.001   0.113 -0.9052  0.0902 -2.6731
 4321SOL    HW216495   0.627   6.957   0.132 -0.7283  1.8683  0.7624
 4322SOL     OW16496   8.998   8.432   0.874  0.1921  0.3752  0.3220
 4322SOL    HW116497   9.079   8.414   0.921 -1.1796 -3.3185  1.5949
 4322SOL    HW216498   8.931   8.434   0.941 -1.1788  0.3479 -0.9889
 4323SOL     OW16499  10.989   4.641   4.748  0.0446  0.4676  0.0015
 4323SOL    HW116500  10.900   4.672   4.764 -0.3831 -0.5582 -0.3296
 4323SOL    HW216501  11.023   4.699   4.680  0.0707  1.6317  0.9704
 4324SOL     OW16502   4.232   6.564   8.026  0.4476  0.3319  0.5068
 4324SOL    HW116503   4.247   6.658   8.030 -1.1445  0.5488  2.2389
 4324SOL    HW216504   4.282   6.528   8.100  0.8941 -0.1906 -0.0302
 4325SOL     OW16505   2.241   3.759   2.578 -0.1526  0.3621 -0.5315
 4325SOL    HW116506   2.276   3.838   2.618  0.9559 -0.7471  0.7766
 4325SOL    HW216507   2.174   3.791   2.517 -0.2171  2.2548  0.4525
 4326SOL     OW16508  10.293   0.678   4.148  0.3282 -0.1270  0.3777
 4326SOL    HW116509  10.243   0.680   4.067 -0.7894 -0.1797  1.0492
 4326SOL    HW216510  10.340   0.594   4.145  1.9861  0.7997 -1.1706
 4327SOL     OW16511   8.120   3.352   0.475 -0.0418  0.3272 -0.2018
 4327SOL    HW116512   8.074   3.427   0.437 -0.7715  1.1747  2.1568
 4327SOL    HW216513   8.189   3.390   0.529  0.7220 -0.7823 -0.3575
 4328SOL     OW16514   7.875   8.467   3.784 -0.3310 -0.1034 -0.8698
 4328SOL    HW116515   7.914   8.391   3.742 -0.0507  0.4086 -1.5558
 4328SOL    HW216516   7.877   8.535   3.717  0.4413  0.8347  0.0697
 4329SOL     OW16517   0.995   1.500   5.247 -0.2314 -0.1214 -0.3932
 4329SOL    HW116518   0.984   1.578   5.302 -0.0204  0.2409 -0.8608
 4329SOL    HW216519   0.972   1.427   5.305 -1.7935  0.3671 -0.3601
 4330SOL     OW16520   3.909  10.952   0.229 -0.4562 -0.2833  0.5466
 4330SOL    HW116521   3.842  11.019   0.214  0.5254  0.6848  0.3228
 4330SOL    HW216522   3.942  10.932   0.141 -0.6268 -0.9493  0.6322
 4331SOL     OW16523   7.869   9.224   4.729 -0.7149  0.1939 -0.0400
 4331SOL    HW116524   7.852   9.154   4.791 -1.9108 -0.0392 -0.6021
 4331SOL    HW216525   7.952   9.262   4.757  0.0374 -1.5392  0.1812
 4332SOL     OW16526   7.519   7.757   1.144  0.1256  0.5432 -0.2817
 4332SOL    HW116527   7.478   7.748   1.230 -0.6286  1.7558 -0.4943
 4332SOL    HW216528   7.603   7.711   1.153  0.2297  0.9706  1.2180
 4333SOL     OW16529   3.498   7.029   8.955 -0.4345 -0.1449  0.2703
 4333SOL    HW116530   3.527   6.956   9.009 -2.0520 -0.8516  0.2354
 4333SOL    HW216531   3.568   7.039   8.890  0.5993 -0.5526  1.2654
 4334SOL     OW16532   5.130   3.257   5.679 -0.0901 -0.0058  0.0394
 4334SOL    HW116533   5.201   3.311   5.644 -0.2091 -0.6833 -1.3248
 4334SOL    HW216534   5.124   3.282   5.771  0.9884  1.0608 -0.1499
 4335SOL     OW16535  10.652   7.413   4.455  0.1336 -0.4733  0.4855
 4335SOL    HW116536  10.579   7.457   4.411 -1.0136 -0.4595  2.2937
 4335SOL    HW216537  10.708   7.485   4.485  1.1576 -0.4962 -1.2505
 4336SOL     OW16538   0.705   0.160   0.936  0.1276 -0.2826 -0.2055
 4336SOL    HW116539   0.738   0.181   1.024  1.5025 -1.8679 -0.2935
 4336SOL    HW216540   0.626   0.109   0.952  0.7299 -1.1282  0.1541
 4337SOL     OW16541   3.494   8.396   0.549  0.3052  0.3301  0.3005
 4337SOL    HW116542   3.535   8.461   0.492 -0.4198  0.4230 -0.1292
 4337SOL    HW216543   3.469   8.325   0.490  1.3949 -0.5145  0.8119
 4338SOL     OW16544   7.023   0.118  10.326 -0.0713  0.5764 -0.0012
 4338SOL    HW116545   6.941   0.127  10.278 -0.0588  0.9223  0.0406
 4338SOL    HW216546   6.997   0.105  10.417 -0.0720  1.8725  0.2068
 4339SOL     OW16547   0.823   9.508   4.787  0.2061  0.2223 -0.6765
 4339SOL    HW116548   0.785   9.596   4.789  0.4108  0.3372 -1.4734
 4339SOL    HW216549   0.757   9.453   4.830  0.0268  0.7427 -0.2744
 4340SOL     OW16550   6.067   0.318   6.293 -0.0809  0.1898 -0.5216
 4340SOL    HW116551   6.071   0.406   6.255 -0.3954  0.5394  0.2423
 4340SOL    HW216552   5.981   0.313   6.335 -0.1929 -0.5985 -0.8221
 4341SOL     OW16553   6.152   2.098   9.838 -0.0171 -0.1358 -0.3081
 4341SOL    HW116554   6.186   2.010   9.820 -0.3165  0.0662 -1.9746
 4341SOL    HW216555   6.222   2.141   9.887  0.8634 -0.7538 -0.9896
 4342SOL     OW16556   8.793   7.797   7.809  0.4255  0.0540  0.7267
 4342SOL    HW116557   8.869   7.825   7.861  1.8534 -1.3038 -0.5345
 4342SOL    HW216558   8.790   7.702   7.821 -0.9038  0.0554  0.5045
 4343SOL     OW16559   2.992   8.388   9.224  0.2112 -0.0753  0.1116
 4343SOL    HW116560   3.016   8.481   9.219 -1.7323  0.4626  0.0214
 4343SOL    HW216561   3.056   8.344   9.167  1.0053  1.2236 -0.0472
 4344SOL     OW16562   3.303   5.318   6.829  0.2676  0.2798 -0.2481
 4344SOL    HW116563   3.298   5.394   6.887 -0.9280  0.0463 -0.0222
 4344SOL    HW216564   3.282   5.352   6.742 -1.1619  0.0830 -0.0083
 4345SOL     OW16565   9.938   0.534   9.644  0.0588  0.0002  0.0053
 4345SOL    HW116566  10.002   0.464   9.661  0.3878  0.4597  0.6758
 4345SOL    HW216567   9.858   0.504   9.687 -0.3727 -0.8453 -1.3135
 4346SOL     OW16568   0.754   4.174   1.504  0.0058 -0.1314 -0.4337
 4346SOL    HW116569   0.812   4.133   1.568  0.1487 -2.0902 -1.7456
 4346SOL    HW216570   0.725   4.255   1.547  1.4532 -0.5042  1.3800
 4347SOL     OW16571   6.867   7.058   2.362 -0.1386  0.1859  0.3455
 4347SOL    HW116572   6.851   7.152   2.363  0.4837  0.3056 -0.1738
 4347SOL    HW216573   6.923   7.041   2.438  1.5121  0.5831 -0.7355
 4348SOL     OW16574   7.733   4.735   3.860  0.0232 -0.4065  0.1896
 4348SOL    HW116575   7.755   4.775   3.776 -0.1632  1.7302  1.0978
 4348SOL    HW216576   7.677   4.800   3.903 -0.6825 -1.8798  1.5706
 4349SOL     OW16577   7.768  10.036   1.632 -0.6578 -0.4188  0.5023
 4349SOL    HW116578   7.715  10.097   1.684  0.7169  0.5079  0.8501
 4349SOL    HW216579   7.782  10.082   1.549  0.6996 -0.0772  0.9051
 4350SOL     OW16580   3.729   4.010   4.476  1.0305 -0.3266  0.4402
 4350SOL    HW116581   3.747   4.024   4.383 -0.4292  1.3276  0.3631
 4350SOL    HW216582   3.663   3.941   4.478 -0.2072  0.8149  0.1141
 4351SOL     OW16583   9.714   9.019   2.030  0.3903 -0.3141  0.1903
 4351SOL    HW116584   9.720   9.107   1.994  2.0201 -0.9355 -1.2080
 4351SOL    HW216585   9.772   9.020   2.106 -1.9622  0.6038  2.0912
 4352SOL     OW16586   0.505   6.466   1.701 -0.5392 -0.1181 -0.7016
 4352SOL    HW116587   0.534   6.425   1.619 -0.3407 -0.6254 -0.3826
 4352SOL    HW216588   0.576   6.448   1.762 -0.6260  0.3810 -0.4552
 4353SOL     OW16589   2.571   3.264   0.395 -0.0954 -0.1722 -0.5342
 4353SOL    HW116590   2.510   3.316   0.447 -1.0407 -1.4710 -0.3153
 4353SOL    HW216591   2.649   3.257   0.449 -0.5436 -0.2986  0.1031
 4354SOL     OW16592   5.249   5.603   1.249  0.1519 -0.1511  0.3101
 4354SOL    HW116593   5.227   5.530   1.191  2.3437 -0.4981 -0.1334
 4354SOL    HW216594   5.216   5.575   1.335  0.3605 -1.3580  0.0140
 4355SOL     OW16595   5.802   3.037   1.106  0.4837 -0.3558 -0.4641
 4355SOL    HW116596   5.852   3.114   1.134  1.5896 -0.8336 -1.0955
 4355SOL    HW216597   5.720   3.074   1.072 -0.0556  0.3672  1.4728
 4356SOL     OW16598   5.863   2.203   5.905 -0.0566  0.3867 -0.1115
 4356SOL    HW116599   5.789   2.229   5.960 -0.2968  0.1462 -0.3217
 4356SOL    HW216600   5.824   2.179   5.821  0.1546 -0.6364  0.0703
 4357SOL     OW16601   4.606   5.750   5.388 -0.0409 -0.2378  0.1453
 4357SOL    HW116602   4.603   5.739   5.293  1.1861  1.2507 -0.1130
 4357SOL    HW216603   4.515   5.768   5.413 -0.0306  1.9629 -1.1533
 4358SOL     OW16604   2.887   8.688   9.743 -0.1818 -0.1709 -0.3777
 4358SOL    HW116605   2.956   8.643   9.791 -0.1581 -0.6160 -0.8283
 4358SOL    HW216606   2.827   8.619   9.717  0.6878 -0.1955 -2.4758
 4359SOL     OW16607   6.183   3.516   8.800 -0.1182 -0.4987  0.2849
 4359SOL    HW116608   6.163   3.447   8.737 -0.3526 -1.0184  0.9241
 4359SOL    HW216609   6.227   3.584   8.748 -0.6598 -0.7465 -0.5148
 4360SOL     OW16610   1.625   0.061   3.575 -0.3344 -0.2790 -0.2826
 4360SOL    HW116611   1.719   0.046   3.589 -0.1510  1.1802  0.1270
 4360SOL    HW216612   1.598  -0.013   3.520  1.3607  0.0112 -1.5937
 4361SOL     OW16613   6.064  10.540   5.349 -0.4801 -0.0691  0.1800
 4361SOL    HW116614   6.088  10.597   5.276 -1.8226 -0.4678 -0.6175
 4361SOL    HW216615   6.140  10.540   5.406  0.0616  1.4273 -0.4885
 4362SOL     OW16616   5.841   0.708   1.098  0.4009 -0.6455  0.4420
 4362SOL    HW116617   5.751   0.736   1.082  0.7227 -0.1773 -0.7038
 4362SOL    HW216618   5.850   0.707   1.193 -0.2247  1.3258  0.5679
 4363SOL     OW16619   6.043   1.364   3.537  0.0870 -0.6274 -0.2854
 4363SOL    HW116620   5.964   1.325   3.573 -0.1327  1.0718  1.2372
 4363SOL    HW216621   6.015   1.448   3.502  1.1206 -0.2463 -0.2472
 4364SOL     OW16622   3.429   6.321   7.085  0.3467 -0.2113  0.4308
 4364SOL    HW116623   3.426   6.253   7.151 -1.1936 -1.8982 -1.2494
 4364SOL    HW216624   3.518   6.318   7.051  0.2636 -1.5243  0.2848
 4365SOL     OW16625  11.084   8.644   5.544 -0.0895 -0.1713  0.8122
 4365SOL    HW116626  11.158   8.625   5.601  2.5146 -0.7884 -2.4793
 4365SOL    HW216627  11.108   8.724   5.498 -2.4879  0.8033  1.1169
 4366SOL     OW16628   9.295   9.068   7.435  0.3919  0.2124  0.5589
 4366SOL    HW116629   9.260   9.140   7.383  2.4886  2.0766  1.5914
 4366SOL    HW216630   9.365   9.032   7.381 -0.6512 -1.1560  0.0412
 4367SOL     OW16631   5.676   6.438   9.397  0.4147  0.0134 -0.3683
 4367SOL    HW116632   5.638   6.525   9.408 -1.0582 -0.7376  0.9671
 4367SOL    HW216633   5.600   6.380   9.392  1.3352 -1.1140 -2.3155
 4368SOL     OW16634   7.644  10.536  10.930  0.2381 -0.0605 -0.4480
 4368SOL    HW116635   7.736  10.544  10.906  0.5531  2.9593  1.3221
 4368SOL    HW216636   7.604  10.619  10.904 -1.3018 -0.1294  1.4337
 4369SOL     OW16637   5.823   6.726   0.355  0.7251 -0.0826 -0.3317
 4369SOL    HW116638   5.817   6.779   0.435  0.0965 -1.3929  0.5161
 4369SOL    HW216639   5.809   6.788   0.284 -1.8071  0.6124  0.6909
 4370SOL     OW16640   4.146   0.260   8.871  0.5176  0.0654 -0.0269
 4370SOL    HW116641   4.123   0.313   8.794 -0.4520 -0.4379 -0.0997
 4370SOL    HW216642   4.201   0.190   8.836  0.0465 -0.1858 -0.2692
 4371SOL     OW16643   7.009   6.208   4.967  0.4952 -0.7661  0.6578
 4371SOL    HW116644   6.987   6.154   5.042 -0.5037  0.3227  1.1837
 4371SOL    HW216645   7.090   6.252   4.992  0.2130 -0.4758  1.0619
 4372SOL     OW16646   5.915   9.784   4.839  0.3446  0.0339  0.2967
 4372SOL    HW116647   5.959   9.760   4.921 -1.8241  0.0662  1.5364
 4372SOL    HW216648   5.824   9.800   4.864 -0.0711  1.5533 -1.8798
 4373SOL     OW16649   5.741   8.182   4.787 -0.0172 -0.1203 -0.2471
 4373SOL    HW116650   5.721   8.266   4.745  1.5676  1.4660  1.9114
 4373SOL    HW216651   5.667   8.166   4.846  0.7762  1.1271  1.1657
 4374SOL     OW16652   3.526   6.424   9.065 -0.3460  0.4324  0.7138
 4374SOL    HW116653   3.610   6.398   9.104 -0.2074  0.7061  0.6034
 4374SOL    HW216654   3.486   6.342   9.036  0.2596  0.3632  0.0198
 4375SOL     OW16655   9.705   8.156   1.938 -0.0771  0.0748  0.1540
 4375SOL    HW116656   9.670   8.222   1.997 -1.1287 -1.0502  0.8285
 4375SOL    HW216657   9.765   8.204   1.881  0.9504  1.1975  2.0865
 4376SOL     OW16658   0.922   3.212   6.718  0.7711 -0.2359 -0.4391
 4376SOL    HW116659   0.943   3.238   6.808 -0.0964 -0.4098 -0.1757
 4376SOL    HW216660   0.870   3.132   6.727 -0.1314  0.2571 -1.0361
 4377SOL     OW16661   1.705   5.650   0.838 -0.1301  0.1095  0.1755
 4377SOL    HW116662   1.795   5.660   0.806  0.4625 -0.4256  1.6116
 4377SOL    HW216663   1.684   5.736   0.875  0.5830 -0.3313  1.7025
 4378SOL     OW16664   3.353  10.194   5.709  0.0399 -0.2024 -0.1786
 4378SOL    HW116665   3.356  10.225   5.619 -0.1591 -0.1788 -0.1787
 4378SOL    HW216666   3.263  10.211   5.737 -0.3080 -1.4988 -0.4369
 4379SOL     OW16667   1.001   0.467   1.236  0.5463 -0.0761 -0.6589
 4379SOL    HW116668   1.065   0.466   1.164  0.4111 -0.2290 -0.7763
 4379SOL    HW216669   1.053   0.451   1.314  0.4954 -1.4117 -0.8717
 4380SOL     OW16670   8.508   0.841   0.399  0.3726  0.2506 -0.5716
 4380SOL    HW116671   8.506   0.878   0.488 -0.6171 -1.1029 -0.0035
 4380SOL    HW216672   8.427   0.874   0.359 -1.1783 -2.1721  0.3591
 4381SOL     OW16673   2.910   8.980  10.125  0.2772 -0.2300  0.3758
 4381SOL    HW116674   2.942   8.901  10.082 -0.4594 -0.0619 -0.5153
 4381SOL    HW216675   2.835   8.951  10.177 -2.1109  0.3112 -2.5071
 4382SOL     OW16676   9.442   7.013   8.639 -0.2420  0.1937  0.3818
 4382SOL    HW116677   9.423   7.091   8.587  0.5272 -0.2581 -0.6324
 4382SOL    HW216678   9.492   7.045   8.714 -0.7011  0.7702  0.4443
 4383SOL     OW16679   1.205   5.296  10.786  0.2454 -0.8763  0.5170
 4383SOL    HW116680   1.171   5.358  10.851 -0.4228 -2.0575  1.3385
 4383SOL    HW216681   1.127   5.252  10.752  0.7237 -1.4758  0.1757
 4384SOL     OW16682   6.963   2.667   0.128  0.1301 -0.1268 -0.0884
 4384SOL    HW116683   6.915   2.692   0.207  0.0603 -1.5099  0.3252
 4384SOL    HW216684   7.051   2.703   0.142 -0.8620  3.1122 -1.1910
 4385SOL     OW16685   2.531   6.099   8.542  0.3919  0.1347 -0.4063
 4385SOL    HW116686   2.604   6.049   8.504  0.5330  0.8033 -1.0438
 4385SOL    HW216687   2.501   6.155   8.471  0.3165  1.0401  0.3203
 4386SOL     OW16688  10.133   1.039   2.977  0.0375 -0.0712 -0.3780
 4386SOL    HW116689  10.081   1.117   2.955  0.6060  0.5150  0.3068
 4386SOL    HW216690  10.081   0.993   3.043 -1.2286 -1.3383 -2.1810
 4387SOL     OW16691   2.977   3.391   5.540 -0.3319 -0.6053  1.0794
 4387SOL    HW116692   3.027   3.461   5.498 -2.5933  1.5451  1.6985
 4387SOL    HW216693   2.960   3.328   5.470 -1.4365  1.3793 -0.5548
 4388SOL     OW16694   4.736   2.928   1.348  0.1520  0.4856 -0.3417
 4388SOL    HW116695   4.828   2.902   1.355  0.1739  0.8583  1.1894
 4388SOL    HW216696   4.690   2.848   1.324  0.9752  0.5308 -2.2659
 4389SOL     OW16697   9.240   2.713   2.909  0.0162 -1.2659 -0.0885
 4389SOL    HW116698   9.240   2.808   2.894 -0.6689 -1.2781 -0.1637
 4389SOL    HW216699   9.153   2.684   2.882  1.0199 -2.3096 -2.5018
 4390SOL     OW16700   1.974   0.033   4.784  0.0418  0.1709 -0.6891
 4390SOL    HW116701   2.005  -0.044   4.833  0.0662  0.7304  0.2055
 4390SOL    HW216702   1.906  -0.001   4.726 -1.4126 -0.2407  1.1428
 4391SOL     OW16703   0.999   3.532   5.354  0.6450 -0.2387  0.6830
 4391SOL    HW116704   0.930   3.580   5.399 -0.3762  0.6865 -1.7134
 4391SOL    HW216705   0.991   3.557   5.262  2.1530 -2.5609 -0.2004
 4392SOL     OW16706   8.429  10.954   9.851 -0.0225 -0.0583 -0.2724
 4392SOL    HW116707   8.520  10.977   9.870  0.0255  0.7462 -1.4208
 4392SOL    HW216708   8.434  10.895   9.776 -0.4897  0.8227 -1.0215
 4393SOL     OW16709   0.821   4.632   3.106 -0.1850 -0.7939  0.2353
 4393SOL    HW116710   0.813   4.607   3.198  0.0090  1.1750  0.8193
 4393SOL    HW216711   0.907   4.599   3.079  0.6139  0.3052  1.3407
 4394SOL     OW16712   2.342   4.589   6.501  0.1240 -0.1209 -0.0552
 4394SOL    HW116713   2.259   4.633   6.519 -1.5406 -2.4692 -1.3809
 4394SOL    HW216714   2.384   4.582   6.587 -1.1751  0.8623  0.7068
 4395SOL     OW16715   3.577  10.679   6.274  0.0821  0.3280 -0.9181
 4395SOL    HW116716   3.636  10.637   6.337 -0.5693 -0.2359 -0.6711
 4395SOL    HW216717   3.554  10.762   6.315 -0.7797 -0.2724 -0.1250
 4396SOL     OW16718   5.812   4.723  11.120  0.0985  0.0690 -0.5545
 4396SOL    HW116719   5.786   4.752  11.033  0.0025  1.1790 -0.1753
 4396SOL    HW216720   5.886   4.665  11.105 -1.3481 -1.6569 -1.5248
 4397SOL     OW16721   2.853   5.248  10.971 -0.1027  0.2655  0.1376
 4397SOL    HW116722   2.835   5.323  10.913 -0.2447 -0.8912 -1.3606
 4397SOL    HW216723   2.897   5.184  10.915  0.4156 -0.6163  1.5096
 4398SOL     OW16724   4.363   7.263   8.632 -0.5908 -0.4154  0.4020
 4398SOL    HW116725   4.284   7.307   8.601 -0.0807 -0.4146 -1.0035
 4398SOL    HW216726   4.333   7.200   8.697 -1.8559 -1.0286 -0.7412
 4399SOL     OW16727   1.909   8.071   1.601 -0.3227 -0.2061 -0.0093
 4399SOL    HW116728   1.850   7.997   1.613  1.3704 -1.9155 -1.4830
 4399SOL    HW216729   1.985   8.050   1.656  1.9585 -1.7768 -3.4322
 4400SOL     OW16730  10.271   2.640   1.701  0.3782 -0.0602  0.3734
 4400SOL    HW116731  10.299   2.728   1.677 -2.3468  0.2240 -2.4106
 4400SOL    HW216732  10.306   2.584   1.632 -1.5978 -0.3779 -0.4573
 4401SOL     OW16733  10.570   1.451   7.102 -0.9483  0.5129 -0.0606
 4401SOL    HW116734  10.480   1.419   7.092 -0.6659 -0.2987 -0.1173
 4401SOL    HW216735  10.607   1.445   7.014 -1.1041  1.6976 -0.2157
 4402SOL     OW16736   7.939   0.446   8.743 -0.1949 -0.2035  0.3510
 4402SOL    HW116737   7.868   0.471   8.802 -0.0475  1.9635 -0.3216
 4402SOL    HW216738   7.897   0.433   8.659  0.1349  0.8099  0.0153
 4403SOL     OW16739   0.717   2.965   0.324 -0.3688  0.4510 -0.3809
 4403SOL    HW116740   0.659   3.010   0.262 -0.6960  0.4118 -0.1119
 4403SOL    HW216741   0.805   2.976   0.288 -0.7662 -1.8756 -2.3156
 4404SOL     OW16742   9.756   7.469   1.675  0.0295 -0.0129 -0.0656
 4404SOL    HW116743   9.787   7.478   1.585  0.8327 -0.0363  0.2020
 4404SOL    HW216744   9.696   7.394   1.673 -0.9254  0.7364 -0.8169
 4405SOL     OW16745   2.888   0.034   8.632 -0.2541 -0.5732  0.7069
 4405SOL    HW116746   2.829  -0.000   8.699 -1.4731 -1.0673 -0.5687
 4405SOL    HW216747   2.869   0.128   8.629 -1.9385 -0.8834 -0.5057
 4406SOL     OW16748   1.979   2.681   4.993 -0.2995 -0.1271  0.8968
 4406SOL    HW116749   2.074   2.687   4.993 -0.3067  0.0100  1.1617
 4406SOL    HW216750   1.955   2.669   5.085 -0.4739 -1.3087  0.7172
 4407SOL     OW16751   2.368   4.488  10.815 -0.4516 -0.7878 -0.2809
 4407SOL    HW116752   2.461   4.509  10.816 -0.6323  0.1120  1.5313
 4407SOL    HW216753   2.353   4.450  10.729  1.4945 -0.5447 -0.7728
 4408SOL     OW16754   9.992   6.772   5.459  0.5622  0.3462 -0.0310
 4408SOL    HW116755   9.933   6.790   5.386  0.8821 -1.2591 -0.7317
 4408SOL    HW216756   9.933   6.753   5.532  0.2054 -0.3873 -0.4988
 4409SOL     OW16757   4.751   3.603  10.265 -0.0338 -0.2120  0.2592
 4409SOL    HW116758   4.845   3.608  10.250 -0.3145  2.6098 -1.3617
 4409SOL    HW216759   4.739   3.632  10.355  0.6676 -1.4372  0.7668
 4410SOL     OW16760   2.800   1.042   8.408 -0.1058  0.5291  0.2204
 4410SOL    HW116761   2.816   0.981   8.337  0.3398  0.2800  0.5331
 4410SOL    HW216762   2.760   0.990   8.477 -1.6883  1.0103 -0.2973
 4411SOL     OW16763   0.762   6.270   0.266 -0.3520  0.4713 -0.6614
 4411SOL    HW116764   0.810   6.338   0.218  0.8186 -0.1316 -0.3747
 4411SOL    HW216765   0.780   6.189   0.218  2.3859 -0.4953  1.7040
 4412SOL     OW16766   0.762   2.315   6.768  0.6470  0.0959  0.2299
 4412SOL    HW116767   0.727   2.256   6.702  2.0037 -1.9360  1.2191
 4412SOL    HW216768   0.685   2.346   6.816 -0.1122 -0.7685 -0.4057
 4413SOL     OW16769   4.637   9.159   0.108  0.3882 -0.1944  0.4722
 4413SOL    HW116770   4.701   9.116   0.165  1.6363  0.9609  0.0011
 4413SOL    HW216771   4.655   9.123   0.021 -0.3209 -0.6352  0.4992
 4414SOL     OW16772   5.300   0.091   9.990 -0.5844  0.0517 -0.3851
 4414SOL    HW116773   5.255   0.012  10.019  0.4411  0.3274  2.2066
 4414SOL    HW216774   5.270   0.159  10.050  0.4160  1.0672 -1.0001
 4415SOL     OW16775   1.542   2.414   1.008  0.3590  0.2771  0.4902
 4415SOL    HW116776   1.586   2.346   1.060 -0.1442 -0.5816 -0.1720
 4415SOL    HW216777   1.467   2.369   0.968  0.5542  0.9731 -0.7297
 4416SOL     OW16778   7.275   7.522   0.405 -0.3283 -0.4127 -0.8919
 4416SOL    HW116779   7.263   7.523   0.310  0.5721  1.0119 -1.0265
 4416SOL    HW216780   7.367   7.547   0.418 -0.2414 -1.2829  0.3436
 4417SOL     OW16781  10.778   6.753   1.780  0.2162 -0.7209 -0.2171
 4417SOL    HW116782  10.706   6.695   1.802  0.4656 -0.8421  0.2922
 4417SOL    HW216783  10.790   6.743   1.685 -1.4038  0.4160 -0.5889
 4418SOL     OW16784   8.616   9.693   5.717 -0.5122 -0.5606  0.2995
 4418SOL    HW116785   8.634   9.750   5.641 -2.2487  2.2286  1.7809
 4418SOL    HW216786   8.683   9.626   5.713  0.9469  0.8655 -2.3551
 4419SOL     OW16787  11.066   7.373   3.670  0.5114  0.0559 -0.2878
 4419SOL    HW116788  11.006   7.310   3.631 -0.8083  0.9090  0.3299
 4419SOL    HW216789  11.104   7.326   3.745  0.1226 -0.2530 -0.2842
 4420SOL     OW16790   0.451   6.119   4.098 -0.0663  0.4856 -0.0049
 4420SOL    HW116791   0.407   6.041   4.064  0.6733 -0.5580  1.3485
 4420SOL    HW216792   0.432   6.118   4.192  3.3560 -0.4452  0.8280
 4421SOL     OW16793   7.967   9.880   4.816 -0.0689 -0.0235  0.2406
 4421SOL    HW116794   8.018   9.818   4.869  0.6329 -0.3545 -0.7923
 4421SOL    HW216795   7.939   9.947   4.878 -0.0190 -0.8641  1.1980
 4422SOL     OW16796   7.859  11.002   8.322 -0.2822  0.1945  0.4577
 4422SOL    HW116797   7.852  11.064   8.250  1.2100  0.2341  0.3027
 4422SOL    HW216798   7.854  11.056   8.401 -1.2722  0.2239  0.3899
 4423SOL     OW16799   2.304  10.934   5.156  0.4643  0.2582 -0.0098
 4423SOL    HW116800   2.352  10.852   5.145 -0.2519 -0.3440  1.2200
 4423SOL    HW216801   2.292  10.943   5.250 -0.2831  1.3016 -0.1874
 4424SOL     OW16802   8.636   8.025   9.438 -0.2092 -0.5048 -0.0631
 4424SOL    HW116803   8.661   7.937   9.410  0.4235 -0.3958  0.1384
 4424SOL    HW216804   8.689   8.083   9.384  0.2803 -0.2743  0.6499
 4425SOL     OW16805   2.492   5.208   7.306  0.0611 -0.3948 -0.1371
 4425SOL    HW116806   2.540   5.274   7.257 -0.7190  1.6125  1.6662
 4425SOL    HW216807   2.485   5.134   7.245 -0.4948  1.7506 -2.8943
 4426SOL     OW16808   9.234   5.939   6.094  0.3448  0.1099  0.7495
 4426SOL    HW116809   9.164   5.929   6.029 -0.2787 -2.2986  1.6855
 4426SOL    HW216810   9.248   6.033   6.099 -1.4910  0.5430 -0.8680
 4427SOL     OW16811   8.543   7.823   5.298 -0.1665  0.2590 -0.1947
 4427SOL    HW116812   8.620   7.836   5.243  0.9200  0.0391  1.2315
 4427SOL    HW216813   8.514   7.734   5.278 -1.1961  0.9492 -2.0702
 4428SOL     OW16814   8.634   4.763   9.075 -0.7922  0.0520  0.1804
 4428SOL    HW116815   8.714   4.779   9.025 -0.6657  0.2423  0.4403
 4428SOL    HW216816   8.646   4.676   9.113  0.0188  0.7489  1.5761
 4429SOL     OW16817   6.717   0.901   7.475 -0.4470  0.3218 -0.1383
 4429SOL    HW116818   6.710   0.964   7.404  1.6291  1.9753  0.9863
 4429SOL    HW216819   6.694   0.817   7.436 -0.3562  1.3141 -2.4853
 4430SOL     OW16820  10.509   1.241   1.206 -0.1798  0.0396  0.1559
 4430SOL    HW116821  10.452   1.206   1.138 -1.3322  0.9888  0.5887
 4430SOL    HW216822  10.453   1.301   1.256  0.4808 -0.9309  2.2141
 4431SOL     OW16823   0.463  10.023   4.237 -0.3697  0.0146  0.2450
 4431SOL    HW116824   0.472  10.113   4.207 -0.6201  0.5220  1.6453
 4431SOL    HW216825   0.400   9.984   4.177  0.1501  0.5911 -0.7123
 4432SOL     OW16826   4.505  10.399   7.977 -0.0378 -0.1245  0.0970
 4432SOL    HW116827   4.555  10.367   8.052  0.2730 -0.4273 -0.2363
 4432SOL    HW216828   4.568  10.400   7.904 -0.7989 -1.7176 -0.6381
 4433SOL     OW16829   1.004  10.020   4.957  0.6945  0.4072  0.3023
 4433SOL    HW116830   0.952  10.098   4.973 -2.8360 -1.6479 -0.1290
 4433SOL    HW216831   1.023   9.985   5.044 -0.3696  0.1988  0.4653
 4434SOL     OW16832   6.715   4.756   9.861  0.4002  0.0944  0.3120
 4434SOL    HW116833   6.803   4.720   9.872  0.0966 -1.1763 -1.1340
 4434SOL    HW216834   6.691   4.733   9.771 -1.3151  0.6487  0.5984
 4435SOL     OW16835   5.430   5.516   5.082  0.0386  0.4052  0.0695
 4435SOL    HW116836   5.445   5.425   5.059  5.8250  0.9977 -0.0473
 4435SOL    HW216837   5.450   5.565   5.002  0.7855  1.8713  1.1027
 4436SOL     OW16838   5.919   8.831   4.073  0.4189 -0.1960 -0.0303
 4436SOL    HW116839   5.846   8.890   4.090  0.6750  0.6205 -1.5543
 4436SOL    HW216840   5.882   8.764   4.015  0.8349  0.2019 -0.7786
 4437SOL     OW16841   1.923  10.406   8.234  0.1963 -0.0584 -0.2133
 4437SOL    HW116842   1.892  10.398   8.325 -0.9354 -0.3196 -0.6013
 4437SOL    HW216843   1.991  10.340   8.226  0.7117  0.3503  0.6039
 4438SOL     OW16844   7.249   8.466  11.061 -0.1708  0.1193 -0.3320
 4438SOL    HW116845   7.227   8.377  11.036 -0.1067  0.1441 -0.4779
 4438SOL    HW216846   7.184   8.520  11.016  0.0593  0.1771 -0.6026
 4439SOL     OW16847   4.914   4.438   7.830  1.1231  0.6487  0.4389
 4439SOL    HW116848   4.940   4.515   7.880  4.2688  0.5023 -0.7343
 4439SOL    HW216849   4.914   4.468   7.739 -1.9267  0.2601  0.2178
 4440SOL     OW16850   8.918   1.323   1.242 -0.3453  0.0021  0.3928
 4440SOL    HW116851   8.946   1.236   1.271 -0.3663 -0.2412 -0.3020
 4440SOL    HW216852   8.822   1.320   1.244 -0.3602 -0.2939 -0.4943
 4441SOL     OW16853   7.272   2.594   1.410  0.0493 -0.0755 -0.1016
 4441SOL    HW116854   7.181   2.563   1.412 -0.0397  0.0200 -1.4577
 4441SOL    HW216855   7.272   2.676   1.459 -0.5738 -0.1139 -0.0388
 4442SOL     OW16856   5.495   6.389   0.594  0.2490  0.6391 -0.4105
 4442SOL    HW116857   5.498   6.485   0.597  1.4131  0.6044  0.2412
 4442SOL    HW216858   5.524   6.367   0.506  0.9105  0.8853 -0.2683
 4443SOL     OW16859  10.789   9.413   2.673 -0.4478  0.0402 -0.1601
 4443SOL    HW116860  10.735   9.371   2.740  0.3285 -0.4014  0.2040
 4443SOL    HW216861  10.763   9.371   2.591 -0.4331 -0.3994  0.0585
 4444SOL     OW16862  10.717   8.871   8.196  0.3103  0.5156 -0.3285
 4444SOL    HW116863  10.752   8.919   8.272  0.3952  0.2260 -0.1821
 4444SOL    HW216864  10.630   8.910   8.182  0.6040  1.1028 -0.5700
 4445SOL     OW16865   4.045   3.089   0.996  0.6928  0.1958  0.7355
 4445SOL    HW116866   4.123   3.041   0.967  0.6331  1.7631 -2.4954
 4445SOL    HW216867   3.977   3.023   1.004  1.3392 -0.6848 -0.6124
 4446SOL     OW16868   0.812   0.163   8.490  0.2776  0.5533  0.5197
 4446SOL    HW116869   0.743   0.229   8.500  1.0170  1.6422 -1.0755
 4446SOL    HW216870   0.812   0.142   8.397  0.6757 -1.0519  0.8481
 4447SOL     OW16871   6.165   0.693   4.048  0.0475  0.5146  0.0665
 4447SOL    HW116872   6.102   0.642   3.998 -0.0590 -1.0839  1.7342
 4447SOL    HW216873   6.233   0.715   3.985  0.5395 -2.4433 -0.5798
 4448SOL     OW16874   5.433  10.301   1.806 -0.2580 -0.0487 -0.4008
 4448SOL    HW116875   5.515  10.294   1.855 -0.3143  2.4542  0.2003
 4448SOL    HW216876   5.460  10.312   1.715  0.1127  0.8135 -0.1969
 4449SOL     OW16877   4.186   9.449   0.275  0.4859  0.6837  0.2467
 4449SOL    HW116878   4.136   9.432   0.355 -2.4928  0.0239 -1.6087
 4449SOL    HW216879   4.154   9.534   0.244  0.3529  0.1688 -1.0835
 4450SOL     OW16880   2.818   2.106   9.926 -0.0659  0.2011  0.1626
 4450SOL    HW116881   2.735   2.097   9.972 -0.3846  1.6359 -0.1104
 4450SOL    HW216882   2.822   2.029   9.869 -1.8127  0.7402 -0.7548
 4451SOL     OW16883   0.192  10.945   1.523 -0.0653  0.1318 -0.2187
 4451SOL    HW116884   0.201  10.922   1.615  1.1298 -0.5700 -0.4863
 4451SOL    HW216885   0.098  10.961   1.511 -0.2129  0.4026  1.1436
 4452SOL     OW16886   9.367   8.542   1.302 -0.0590  0.0289 -0.1942
 4452SOL    HW116887   9.403   8.607   1.363  3.4489  0.1555 -2.1715
 4452SOL    HW216888   9.299   8.590   1.254  1.0024  1.6447 -0.1716
 4453SOL     OW16889   2.065   5.620   5.349  0.1334 -0.2779  0.0732
 4453SOL    HW116890   2.080   5.526   5.357  1.6134  0.0179  1.1015
 4453SOL    HW216891   2.142   5.661   5.388 -0.9826  1.3835  0.6694
 4454SOL     OW16892  10.122   9.063   8.240  0.4480 -0.1958  0.1290
 4454SOL    HW116893  10.038   9.107   8.256 -0.4372 -1.0987 -1.7388
 4454SOL    HW216894  10.101   8.970   8.247  1.0239 -0.4613 -1.4553
 4455SOL     OW16895   8.373   8.450   5.237 -0.2312  0.2097 -0.5001
 4455SOL    HW116896   8.406   8.482   5.154 -1.1158 -0.4438 -1.1306
 4455SOL    HW216897   8.427   8.374   5.257 -0.4148 -0.0042 -0.8032
 4456SOL     OW16898   7.607   3.043   1.003 -0.1143  0.0514  0.4586
 4456SOL    HW116899   7.559   3.094   1.069 -0.8758  1.2060 -0.9466
 4456SOL    HW216900   7.670   2.993   1.054 -0.3253  1.2986  2.0334
 4457SOL     OW16901   3.707   2.123   6.028 -0.0922 -0.7692 -0.3135
 4457SOL    HW116902   3.787   2.159   5.989  0.5024 -1.6802  0.0400
 4457SOL    HW216903   3.642   2.129   5.959 -1.1453  4.3426  0.6763
 4458SOL     OW16904   4.528   6.870   9.848 -0.4779 -0.0071 -0.1543
 4458SOL    HW116905   4.597   6.926   9.812  0.8391 -1.9000 -0.7619
 4458SOL    HW216906   4.463   6.865   9.778 -0.7574  0.9547  0.0185
 4459SOL     OW16907   9.304   6.390   3.590  0.1628 -0.3326  0.2994
 4459SOL    HW116908   9.373   6.371   3.526 -1.6752 -1.9725 -1.3455
 4459SOL    HW216909   9.235   6.432   3.538  0.1273  1.9180  2.0323
 4460SOL     OW16910   1.447   5.735  10.141 -0.2565  0.3770  0.3380
 4460SOL    HW116911   1.525   5.746  10.086 -0.7539  1.8080 -0.1294
 4460SOL    HW216912   1.393   5.672  10.093 -0.4454  1.2079 -0.5955
 4461SOL     OW16913   0.838   2.290  10.074 -0.2378  0.3306 -0.0525
 4461SOL    HW116914   0.904   2.287  10.143 -1.3562 -1.4914  1.0341
 4461SOL    HW216915   0.853   2.373  10.030  1.1474  1.1101  1.7619
 4462SOL     OW16916   7.653   9.435   3.343 -0.3588  0.1639 -0.2221
 4462SOL    HW116917   7.721   9.382   3.300 -1.0492 -0.1417 -0.9769
 4462SOL    HW216918   7.687   9.525   3.339 -0.5396  0.2039 -1.7656
 4463SOL     OW16919   4.923   8.878   1.654  0.1719 -0.3079 -0.6053
 4463SOL    HW116920   4.955   8.968   1.663  1.0886 -0.5001 -1.7275
 4463SOL    HW216921   4.916   8.847   1.744  0.9456  0.5212 -0.2302
 4464SOL     OW16922   4.392  11.066   2.672 -0.2888 -0.2195 -0.3186
 4464SOL    HW116923   4.337  11.144   2.679  0.4511  0.2142  0.8721
 4464SOL    HW216924   4.399  11.050   2.578 -1.5707  0.3359 -0.5329
 4465SOL     OW16925   7.552   5.493   2.055 -0.1287 -0.3160  0.4437
 4465SOL    HW116926   7.525   5.579   2.089  1.4314  0.3442  0.1365
 4465SOL    HW216927   7.577   5.511   1.964  3.3475 -0.3103  1.2543
 4466SOL     OW16928   1.524   5.438   8.568  0.8563 -0.0308  0.3247
 4466SOL    HW116929   1.580   5.477   8.500  0.5424 -0.8438 -0.4156
 4466SOL    HW216930   1.466   5.379   8.520 -1.4192  1.6022  0.8962
 4467SOL     OW16931   5.162  10.063   2.986  0.8825  0.3866  0.1101
 4467SOL    HW116932   5.191  10.151   3.010 -0.9878  0.8757  0.7505
 4467SOL    HW216933   5.160  10.015   3.069  0.4309  0.2064 -0.0006
 4468SOL     OW16934   9.927   7.323   6.088 -0.0878  0.1019  0.4456
 4468SOL    HW116935   9.837   7.293   6.077 -0.2314  0.2042  1.3179
 4468SOL    HW216936   9.920   7.417   6.102  0.2477  0.3080 -0.6656
 4469SOL     OW16937   1.300   7.158   8.353  0.6467  0.1422  0.6877
 4469SOL    HW116938   1.382   7.180   8.398 -0.6110  1.6129  2.3908
 4469SOL    HW216939   1.280   7.236   8.301  0.0713 -0.0126  0.6722
 4470SOL     OW16940   0.430   6.717   6.587  0.4008  0.5145 -0.3515
 4470SOL    HW116941   0.465   6.627   6.587  1.5610  0.9178  1.0846
 4470SOL    HW216942   0.353   6.712   6.643  2.7545  1.0943  3.3265
 4471SOL     OW16943   2.295   2.800   8.004  1.2314  0.5723 -0.1675
 4471SOL    HW116944   2.284   2.705   8.012  0.5699  0.6798  0.1997
 4471SOL    HW216945   2.281   2.818   7.911 -2.8207  0.8101  0.3101
 4472SOL     OW16946   3.564   5.612   1.169  0.3260 -0.4413 -0.8120
 4472SOL    HW116947   3.538   5.647   1.255 -0.7345 -0.3470 -1.1585
 4472SOL    HW216948   3.658   5.628   1.164 -0.1372  2.6202 -1.0708
 4473SOL     OW16949   7.640   4.537   2.702 -0.5238  0.1357  0.6665
 4473SOL    HW116950   7.629   4.607   2.766 -1.0252  1.7004 -1.0446
 4473SOL    HW216951   7.600   4.571   2.622  0.0680 -1.7433 -0.4937
 4474SOL     OW16952   4.073   5.939   4.855  0.4095  0.1043  0.5635
 4474SOL    HW116953   4.160   5.901   4.843  0.9731  1.6837 -0.7308
 4474SOL    HW216954   4.086   6.033   4.844 -1.4712  0.3745  0.3362
 4475SOL     OW16955   1.764   2.012   1.067  0.2150  0.2531  0.3244
 4475SOL    HW116956   1.693   1.989   1.006  1.3666 -2.8790 -0.0139
 4475SOL    HW216957   1.719   2.053   1.141 -1.9439 -1.2517 -0.0495
 4476SOL     OW16958   0.326   3.896   3.792  0.1643  0.5391 -0.0136
 4476SOL    HW116959   0.343   3.862   3.880  1.3665 -1.7145 -1.0422
 4476SOL    HW216960   0.364   3.984   3.792  2.1449 -0.2549  1.0983
 4477SOL     OW16961   6.530   9.790   7.065  0.4525  0.0731 -0.1380
 4477SOL    HW116962   6.452   9.815   7.114  0.7778 -0.0654  0.4684
 4477SOL    HW216963   6.528   9.694   7.064 -0.7324  0.0659 -2.3539
 4478SOL     OW16964   7.840   4.612   4.109 -0.2120 -0.3269 -0.6099
 4478SOL    HW116965   7.814   4.660   4.030 -0.6631  1.7513  0.7041
 4478SOL    HW216966   7.826   4.675   4.180 -0.1907 -2.2375  1.1812
 4479SOL     OW16967   4.748   3.823   0.927 -0.1043  0.2515  0.0274
 4479SOL    HW116968   4.787   3.824   1.014 -1.1235 -1.8022  0.5555
 4479SOL    HW216969   4.795   3.754   0.880 -1.4406 -0.5995 -0.1040
 4480SOL     OW16970   0.639  10.763   9.439 -0.2766 -0.0433  0.0493
 4480SOL    HW116971   0.581  10.805   9.503  2.0169  0.8337  1.7153
 4480SOL    HW216972   0.609  10.796   9.354 -1.6862  0.9785  0.8952
 4481SOL     OW16973   3.047   1.028   9.511 -0.1149 -0.0364 -0.2940
 4481SOL    HW116974   3.079   0.958   9.569  0.2951  0.5842  0.2474
 4481SOL    HW216975   3.053   0.991   9.423  0.1966 -0.6502 -0.0226
 4482SOL     OW16976   7.894  10.690   0.083  0.4496  0.5207  0.3292
 4482SOL    HW116977   7.966  10.704   0.021  1.4423  0.0714  1.3423
 4482SOL    HW216978   7.880  10.777   0.122 -0.7197  0.9917 -1.0381
 4483SOL     OW16979   3.164   7.345   7.242 -0.0455  0.3911  0.2755
 4483SOL    HW116980   3.172   7.372   7.333 -1.0458  3.3397 -0.3826
 4483SOL    HW216981   3.070   7.353   7.223  0.2030  0.2426 -1.1310
 4484SOL     OW16982  10.114   1.694   3.223 -0.4696  0.2570  0.0421
 4484SOL    HW116983  10.070   1.717   3.305 -0.7829 -1.6106  0.4480
 4484SOL    HW216984  10.187   1.755   3.217 -2.2696  2.5723  0.0432
 4485SOL     OW16985   6.649   6.025  10.471  0.4870 -0.0386 -0.3392
 4485SOL    HW116986   6.678   5.985  10.553  1.6258  0.6751 -0.3699
 4485SOL    HW216987   6.686   5.970  10.403  0.4179 -0.0410 -0.3746
 4486SOL     OW16988   5.357   1.724  10.391  0.2833  0.2008  0.1765
 4486SOL    HW116989   5.434   1.705  10.444  0.5236  0.8320  0.0575
 4486SOL    HW216990   5.392   1.762  10.310 -0.1006 -0.4170 -0.2956
 4487SOL     OW16991   2.092   6.526   9.415 -0.1655 -0.1393 -0.4142
 4487SOL    HW116992   2.164   6.463   9.414  1.1887  1.3250  0.1682
 4487SOL    HW216993   2.130   6.606   9.379 -1.7585  0.4493 -0.8862
 4488SOL     OW16994   4.555  10.681   0.418 -0.2371 -0.3937 -0.7267
 4488SOL    HW116995   4.492  10.662   0.488 -0.6995  0.2477 -0.9609
 4488SOL    HW216996   4.551  10.605   0.361 -1.6870  0.1416 -1.3767
 4489SOL     OW16997   9.619   4.729   6.636  0.2021  0.2658  0.1088
 4489SOL    HW116998   9.673   4.721   6.715 -0.4114 -1.6570  0.3822
 4489SOL    HW216999   9.543   4.673   6.652  0.6683 -1.2481 -2.2982
 4490SOL     OW17000   6.727   7.090   7.434 -0.2390 -0.7469  0.0537
 4490SOL    HW117001   6.814   7.062   7.405 -0.8464 -0.6077 -2.1114
 4490SOL    HW217002   6.671   7.013   7.419 -0.6555 -0.5449  0.5591
 4491SOL     OW17003   9.301   7.237  10.003  0.3359 -0.0417  0.1699
 4491SOL    HW117004   9.236   7.181   9.960  0.1653  0.6721 -0.5238
 4491SOL    HW217005   9.369   7.176  10.033  1.4959 -0.4411 -2.9169
 4492SOL     OW17006   5.753   2.921   9.677 -0.1708  0.4006 -0.0526
 4492SOL    HW117007   5.816   2.882   9.737  0.7726  1.6721 -0.1720
 4492SOL    HW217008   5.737   3.008   9.712 -2.8623 -0.2989  0.6828
 4493SOL     OW17009   0.766   5.763   2.244  0.5569  0.2202  0.8261
 4493SOL    HW117010   0.681   5.720   2.253  0.2734  0.5611 -0.0927
 4493SOL    HW217011   0.764   5.802   2.157  1.7884 -0.0502  0.6597
 4494SOL     OW17012   7.365   9.599   4.156  0.0037 -0.4809  0.0322
 4494SOL    HW117013   7.310   9.539   4.105 -0.4338 -0.2438  0.2144
 4494SOL    HW217014   7.309   9.626   4.229  0.1850  0.1722 -0.0659
 4495SOL     OW17015   1.155   1.917   6.008  0.0040  0.3434 -0.3768
 4495SOL    HW117016   1.133   1.894   5.918  0.4263  2.4078 -1.0656
 4495SOL    HW217017   1.081   1.886   6.060 -0.3004 -0.7803 -1.4388
 4496SOL     OW17018   3.982  10.252   6.275  0.5944 -0.0513 -0.0190
 4496SOL    HW117019   3.911  10.210   6.323  2.3288 -0.7829  2.0434
 4496SOL    HW217020   3.969  10.346   6.290 -0.9059 -0.0337 -1.1702
 4497SOL     OW17021   7.274   7.756   9.723  0.2452  0.6226 -0.1234
 4497SOL    HW117022   7.336   7.823   9.693  0.9501 -0.2575 -0.6500
 4497SOL    HW217023   7.318   7.673   9.708 -1.2185 -0.0511 -0.9008
 4498SOL     OW17024   4.679   3.323   4.226 -0.2926  0.1006  0.0733
 4498SOL    HW117025   4.705   3.406   4.265  2.0899 -0.3412 -0.4132
 4498SOL    HW217026   4.604   3.344   4.170 -0.5327  1.6515  0.9413
 4499SOL     OW17027   5.517   2.517   1.139 -0.5120  0.4674 -0.0323
 4499SOL    HW117028   5.596   2.464   1.148 -0.0669  1.0915 -0.1784
 4499SOL    HW217029   5.541   2.602   1.176 -0.9526  0.8168 -0.5339
 4500SOL     OW17030   7.175   8.454   0.660  0.5412 -0.0467  0.1290
 4500SOL    HW117031   7.199   8.485   0.748  0.4045  0.4403 -0.0028
 4500SOL    HW217032   7.258   8.423   0.623  0.6657  0.0775  0.2977
 4501SOL     OW17033   4.089   8.706   8.366  0.2560 -0.4007 -0.0745
 4501SOL    HW117034   4.074   8.615   8.393  1.1061 -0.7004 -0.5749
 4501SOL    HW217035   4.028   8.720   8.294 -0.6043 -0.2376  0.6725
 4502SOL     OW17036   3.873   5.886   3.624  0.4221 -0.1399  0.6264
 4502SOL    HW117037   3.888   5.943   3.549 -2.3397  0.3119  0.3003
 4502SOL    HW217038   3.903   5.800   3.595  2.6234  0.6508  0.3457
 4503SOL     OW17039   5.398   0.529   7.461  0.3538  0.4135  0.4057
 4503SOL    HW117040   5.458   0.531   7.387 -1.5041  3.3822 -1.1921
 4503SOL    HW217041   5.419   0.608   7.511 -1.9762  1.4316 -0.0867
 4504SOL     OW17042   0.946   6.956   5.791 -0.2437  0.6728  0.2554
 4504SOL    HW117043   1.006   6.914   5.730 -2.5944 -2.4917 -0.1716
 4504SOL    HW217044   0.991   6.953   5.875  0.9187  0.0804 -0.3605
 4505SOL     OW17045   4.074   0.745   8.571 -0.5624  0.1240  0.4029
 4505SOL    HW117046   4.046   0.836   8.564  1.2314  0.7145  0.2993
 4505SOL    HW217047   4.062   0.723   8.663 -0.9166  0.4996  0.4485
 4506SOL     OW17048   3.952   4.700  11.084 -0.1250 -0.0424 -0.5878
 4506SOL    HW117049   4.043   4.719  11.062 -0.3015 -0.6835 -1.9457
 4506SOL    HW217050   3.907   4.784  11.073  0.1735  0.1190 -0.5915
 4507SOL     OW17051   1.971   8.328  10.237 -0.6401 -0.3591 -0.3378
 4507SOL    HW117052   1.913   8.325  10.161 -1.2946 -0.3530  0.1538
 4507SOL    HW217053   1.998   8.238  10.251 -0.8765 -0.4250 -0.3046
 4508SOL     OW17054   4.149   7.542   3.242  0.4231  0.3061  0.1372
 4508SOL    HW117055   4.171   7.550   3.149  0.8028  0.5061  0.2418
 4508SOL    HW217056   4.197   7.464   3.271  1.0999  0.8057  0.3912
 4509SOL     OW17057   9.566   3.147  11.030  0.3749 -0.5748 -0.3177
 4509SOL    HW117058   9.651   3.183  11.055 -0.0140 -1.2570  2.3505
 4509SOL    HW217059   9.528   3.116  11.113 -1.7553 -1.8203 -1.6593
 4510SOL     OW17060   0.629   5.346  10.456  0.5682  0.3697 -0.3089
 4510SOL    HW117061   0.592   5.417  10.509  0.7329  0.8437 -0.8274
 4510SOL    HW217062   0.562   5.328  10.391 -0.1232 -0.9785  0.7167
 4511SOL     OW17063   6.010   8.133   7.760  0.2123 -0.1597 -0.3329
 4511SOL    HW117064   6.032   8.056   7.708 -2.9566 -1.2738 -0.2324
 4511SOL    HW217065   5.936   8.173   7.714 -1.5767 -0.2122  2.2537
 4512SOL     OW17066   8.074  10.670   6.047  0.4818 -0.1076  0.3122
 4512SOL    HW117067   8.047  10.702   6.133 -0.4519  0.2055 -0.0871
 4512SOL    HW217068   8.055  10.742   5.987 -1.2062 -1.1745 -0.5265
 4513SOL     OW17069   7.263  10.338   5.602  0.8722 -0.1201 -0.5258
 4513SOL    HW117070   7.287  10.248   5.577  1.4696 -0.2433  0.4647
 4513SOL    HW217071   7.316  10.357   5.679 -0.9658  0.2304  0.7154
 4514SOL     OW17072   8.820   9.760   4.116  0.2635  0.3057 -0.0514
 4514SOL    HW117073   8.767   9.721   4.185  0.0791  0.1453 -0.2838
 4514SOL    HW217074   8.910   9.745   4.143  0.1906  0.1307  0.0921
 4515SOL     OW17075   7.849   8.363   7.724  0.3394  0.3908 -0.2112
 4515SOL    HW117076   7.891   8.364   7.810  0.0800 -0.9753 -0.0572
 4515SOL    HW217077   7.891   8.435   7.677  0.5978  1.0628  0.9971
 4516SOL     OW17078   8.454  10.980   4.030  0.1089  0.1722  0.3411
 4516SOL    HW117079   8.402  10.980   4.110  0.6283  0.1485  0.6809
 4516SOL    HW217080   8.532  10.930   4.052 -0.0178 -0.3494 -0.3622
 4517SOL     OW17081   6.636   2.023   9.012  0.0788 -0.0128 -0.4753
 4517SOL    HW117082   6.603   2.052   8.927  0.8815  1.2562 -0.3807
 4517SOL    HW217083   6.587   2.074   9.076  0.3097 -0.1097 -0.2208
 4518SOL     OW17084   9.866   1.100   7.750 -0.2656  0.3759  0.0267
 4518SOL    HW117085   9.915   1.048   7.813 -1.6316 -1.4072 -0.3000
 4518SOL    HW217086   9.845   1.040   7.679 -0.6775  1.7569 -1.0861
 4519SOL     OW17087   6.235   5.307   7.729  0.0129  0.2992 -0.0041
 4519SOL    HW117088   6.193   5.344   7.651  1.3728  1.5021 -0.1910
 4519SOL    HW217089   6.202   5.217   7.732 -0.0386  0.1934 -2.0076
 4520SOL     OW17090   3.935   0.803   1.076  0.0576 -0.0533 -0.2850
 4520SOL    HW117091   4.018   0.849   1.086  0.3795 -0.6706 -0.0590
 4520SOL    HW217092   3.948   0.719   1.120 -1.2262  0.4858  1.2272
 4521SOL     OW17093   1.766   0.258   0.571  0.2306 -0.0649 -0.3988
 4521SOL    HW117094   1.735   0.184   0.519  1.4445 -1.0739  0.2700
 4521SOL    HW217095   1.756   0.334   0.513 -2.3243 -0.4860 -0.6306
 4522SOL     OW17096   6.301   2.303   1.168 -0.5029 -0.4159 -0.3760
 4522SOL    HW117097   6.395   2.295   1.151 -0.7201 -1.9536 -1.0377
 4522SOL    HW217098   6.272   2.372   1.108  0.2414  0.2753  0.0392
 4523SOL     OW17099   5.010   7.798   4.878  0.0211  0.2925  0.3095
 4523SOL    HW117100   4.920   7.793   4.911  0.1781  0.7013  0.8247
 4523SOL    HW217101   5.032   7.891   4.884  0.1007  0.3583 -0.8690
 4524SOL     OW17102   6.744   7.799   8.674 -0.1205 -0.1475 -0.4771
 4524SOL    HW117103   6.773   7.712   8.647 -0.9053 -0.3022 -0.8316
 4524SOL    HW217104   6.649   7.791   8.687 -0.2105  0.6601 -0.5476
 4525SOL     OW17105   4.004   9.445   4.863  0.3344 -0.0341 -0.6011
 4525SOL    HW117106   4.028   9.359   4.898  0.1398 -0.0255 -0.4441
 4525SOL    HW217107   3.937   9.478   4.923 -0.3371 -0.2116 -1.2364
 4526SOL     OW17108   1.789   3.929   6.563 -0.1360  0.6287  0.2197
 4526SOL    HW117109   1.735   4.003   6.589 -0.8517 -0.4104  1.9314
 4526SOL    HW217110   1.845   3.962   6.494 -0.7390  2.6315  0.6359
 4527SOL     OW17111   8.588   2.944   6.036 -0.6259 -0.0021  0.1520
 4527SOL    HW117112   8.675   2.915   6.008 -0.3003 -2.3892  3.1172
 4527SOL    HW217113   8.535   2.940   5.957  1.4248 -0.7505 -1.2749
 4528SOL     OW17114  11.043   6.689   8.210  0.2575  0.1803 -0.9557
 4528SOL    HW117115  10.953   6.677   8.179  0.1240 -3.2411  0.3595
 4528SOL    HW217116  11.041   6.774   8.254 -2.2880  0.3032 -1.1173
 4529SOL     OW17117   2.113   1.904   3.674 -0.1963 -0.0025  0.4118
 4529SOL    HW117118   2.086   1.825   3.627  2.3485  0.2072 -1.6168
 4529SOL    HW217119   2.200   1.884   3.708 -0.6738  0.9959  2.3530
 4530SOL     OW17120  10.290   3.995   6.059  0.1734  0.2529 -0.1405
 4530SOL    HW117121  10.210   4.045   6.077  0.3029  0.8109 -1.0401
 4530SOL    HW217122  10.337   4.048   5.994  0.4378 -0.9127 -0.9322
 4531SOL     OW17123   0.682   9.907   6.844  0.5501 -0.0836  0.5400
 4531SOL    HW117124   0.673   9.899   6.939  0.6902 -0.4990  0.5201
 4531SOL    HW217125   0.606   9.860   6.809  0.1052  0.6838  0.4552
 4532SOL     OW17126   1.603   3.658   1.692  0.3299 -0.3662 -0.4270
 4532SOL    HW117127   1.657   3.720   1.742 -1.6209  0.6076  0.5896
 4532SOL    HW217128   1.648   3.574   1.701  0.2733 -0.1879  2.7960
 4533SOL     OW17129   0.766   6.784   4.456  0.1539  0.1650  0.3419
 4533SOL    HW117130   0.820   6.832   4.518  0.6158 -2.0909  1.8087
 4533SOL    HW217131   0.698   6.845   4.430  2.0403  2.3542  0.2126
 4534SOL     OW17132   2.916   1.630   3.607  0.3818  0.0805 -0.1593
 4534SOL    HW117133   2.892   1.623   3.514  1.2098 -1.0596 -0.3017
 4534SOL    HW217134   3.000   1.584   3.614  0.7981  0.9762  0.9841
 4535SOL     OW17135   1.336   8.534   8.282 -0.2908 -0.3989 -0.1407
 4535SOL    HW117136   1.420   8.520   8.325  0.1492  1.3092 -0.3835
 4535SOL    HW217137   1.298   8.446   8.273  1.9104 -1.3309 -0.9404
 4536SOL     OW17138   9.780   2.864   2.234 -0.1543  0.2456  0.0563
 4536SOL    HW117139   9.782   2.772   2.207  1.1341 -0.1242  1.2934
 4536SOL    HW217140   9.846   2.907   2.181 -0.1823  0.2872  0.0537
 4537SOL     OW17141   8.702  10.840  10.773  0.1454 -0.6204  0.0539
 4537SOL    HW117142   8.688  10.934  10.769  0.8813 -0.4382  1.3438
 4537SOL    HW217143   8.675  10.808  10.687 -3.0741  0.3589  0.5627
 4538SOL     OW17144   0.096  10.641   8.932 -0.2013 -0.1743  0.2809
 4538SOL    HW117145   0.125  10.553   8.955 -1.0915 -1.1024 -1.8645
 4538SOL    HW217146   0.000  10.635   8.930 -0.2434  0.5413 -0.8942
 4539SOL     OW17147   2.569   4.671   1.501 -0.0780 -0.0745 -0.6051
 4539SOL    HW117148   2.605   4.714   1.579 -0.2289  0.3745 -0.7783
 4539SOL    HW217149   2.578   4.577   1.519  0.0069  0.0251 -0.1031
 4540SOL     OW17150   3.254   4.248  10.002  0.1720  0.2046  0.4981
 4540SOL    HW117151   3.213   4.215  10.082 -0.8107 -0.3345 -0.2042
 4540SOL    HW217152   3.256   4.343  10.013 -1.1232  0.2381  0.6494
 4541SOL     OW17153   6.111   7.653   3.898 -0.1658 -0.1657  0.0948
 4541SOL    HW117154   6.146   7.722   3.954 -2.0689 -0.9417  2.4104
 4541SOL    HW217155   6.051   7.697   3.839  0.0149  0.3721  0.3121
 4542SOL     OW17156   8.302  10.883  10.654  0.5716  0.6654 -0.2293
 4542SOL    HW117157   8.269  10.793  10.665  4.1462 -0.5595  2.7904
 4542SOL    HW217158   8.362  10.878  10.579 -1.0947  1.2677 -1.6579
 4543SOL     OW17159   2.104   8.743   2.066  0.4563  0.1989 -0.2136
 4543SOL    HW117160   2.143   8.814   2.117  2.4225 -1.0556  0.1317
 4543SOL    HW217161   2.013   8.738   2.097  0.7810  1.3982  1.0172
 4544SOL     OW17162  10.372   9.954   6.474 -0.1738 -0.2021 -0.1439
 4544SOL    HW117163  10.398   9.863   6.493  1.6242  0.1981 -0.4388
 4544SOL    HW217164  10.409  10.005   6.546  0.4499  0.4803 -0.9202
 4545SOL     OW17165  10.690   6.775   4.441  0.0152  0.2680 -0.5565
 4545SOL    HW117166  10.610   6.734   4.409  0.1009  0.2886 -0.7971
 4545SOL    HW217167  10.757   6.708   4.431 -0.1318 -0.0488  0.4411
 4546SOL     OW17168   6.034   6.270  10.953 -0.4738 -0.4744  0.2426
 4546SOL    HW117169   6.028   6.242  11.045  3.3461 -0.3307  0.7075
 4546SOL    HW217170   6.111   6.327  10.950 -2.0564  1.8439 -2.6200
 4547SOL     OW17171   1.331   5.035   3.318 -0.4276 -0.0733 -0.5863
 4547SOL    HW117172   1.360   5.087   3.393  1.5334 -1.1313 -0.5369
 4547SOL    HW217173   1.297   5.100   3.256 -0.8160  0.9508  0.6417
 4548SOL     OW17174  11.057   6.906   8.356 -0.3214  0.6107  0.1514
 4548SOL    HW117175  11.150   6.903   8.381 -0.6598  0.7411  1.5405
 4548SOL    HW217176  11.026   6.990   8.388 -1.3049 -0.1321  1.2525
 4549SOL     OW17177   5.414   5.848   4.505 -0.0885 -0.5514 -0.5815
 4549SOL    HW117178   5.421   5.927   4.451  1.9783 -0.1471  0.1696
 4549SOL    HW217179   5.490   5.796   4.480 -0.1687 -1.2365  0.5621
 4550SOL     OW17180   2.828   6.784   5.775 -0.4090 -0.3431  0.0835
 4550SOL    HW117181   2.776   6.721   5.725 -0.0199  0.0672 -0.8688
 4550SOL    HW217182   2.810   6.763   5.867 -0.4525 -1.6786 -0.2177
 4551SOL     OW17183   9.421   3.455   8.237 -0.3209  0.4505 -0.3297
 4551SOL    HW117184   9.409   3.428   8.328  0.7693  1.3815  0.1238
 4551SOL    HW217185   9.359   3.527   8.226 -0.6923  0.1167 -0.4312
 4552SOL     OW17186   4.050   8.485   3.806  0.0449  0.0682 -0.1756
 4552SOL    HW117187   3.962   8.447   3.810  0.7445 -1.5702  0.7040
 4552SOL    HW217188   4.048   8.542   3.729 -1.5652 -0.5025 -0.5995
 4553SOL     OW17189   0.622   6.682   2.049  0.4794  0.0824 -0.3825
 4553SOL    HW117190   0.619   6.595   2.090 -2.8128 -0.1176 -0.8094
 4553SOL    HW217191   0.637   6.741   2.123 -1.9340 -0.5581  0.7466
 4554SOL     OW17192   2.460   7.787  11.101  0.2596  0.1221 -0.0691
 4554SOL    HW117193   2.498   7.875  11.102 -0.3097  0.3742 -0.4382
 4554SOL    HW217194   2.480   7.751  11.187  0.5240  0.6003  0.0706
 4555SOL     OW17195   8.999  10.795   7.712  0.3161 -0.4087 -0.3410
 4555SOL    HW117196   8.995  10.783   7.617  0.7817 -0.6976 -0.3266
 4555SOL    HW217197   9.063  10.865   7.724  0.3840 -0.4897 -0.2324
 4556SOL     OW17198   8.562   1.214   0.500 -0.1293  0.3295 -0.0029
 4556SOL    HW117199   8.526   1.211   0.411  1.1110 -1.1486 -0.4972
 4556SOL    HW217200   8.577   1.307   0.517  0.6176  0.5575 -1.7687
 4557SOL     OW17201   2.530   7.327   4.787  0.0032 -0.2033  0.0713
 4557SOL    HW117202   2.601   7.355   4.729  0.5564  0.4098  1.0243
 4557SOL    HW217203   2.523   7.396   4.853 -1.5994 -0.1646 -0.0873
 4558SOL     OW17204   6.973  10.097  10.487 -0.3040 -0.6353  0.1482
 4558SOL    HW117205   7.065  10.093  10.515 -0.3419 -1.3337  0.1927
 4558SOL    HW217206   6.951  10.190  10.492 -0.3761 -0.7014  2.6488
 4559SOL     OW17207   9.598   4.143   1.684 -0.9231 -0.7028  0.4197
 4559SOL    HW117208   9.644   4.154   1.767  1.2301 -0.1042 -0.7732
 4559SOL    HW217209   9.598   4.049   1.668  1.5783 -0.6659 -0.3462
 4560SOL     OW17210   7.443   8.269   3.889  0.3582  0.4468 -0.3396
 4560SOL    HW117211   7.476   8.344   3.937 -1.3709 -0.1764  2.0006
 4560SOL    HW217212   7.413   8.305   3.805 -0.8802  2.4921  0.9000
 4561SOL     OW17213   6.455   1.764   9.490  0.2009  0.4679 -0.2461
 4561SOL    HW117214   6.447   1.675   9.456  1.0935  0.7820 -1.3718
 4561SOL    HW217215   6.434   1.820   9.415  2.0002  1.1882 -0.2805
 4562SOL     OW17216   3.386   9.597   8.298 -0.6913 -0.2866  0.1508
 4562SOL    HW117217   3.309   9.559   8.340  0.3226  0.1853  2.5880
 4562SOL    HW217218   3.390   9.686   8.333  2.1163 -0.9730  1.8172
 4563SOL     OW17219   7.022   6.973   8.345  0.1076 -0.0494  0.3670
 4563SOL    HW117220   7.046   6.882   8.325  0.2758  0.0490  0.1260
 4563SOL    HW217221   7.045   7.022   8.266 -1.5330 -0.0628 -0.1750
 4564SOL     OW17222   9.737   0.426   6.745 -0.0090 -0.3209  0.0161
 4564SOL    HW117223   9.807   0.469   6.795  0.3273  0.1852 -0.8846
 4564SOL    HW217224   9.775   0.341   6.722  0.9062  0.5180 -1.7447
 4565SOL     OW17225  10.358   0.050   5.605  0.8696 -0.4963 -0.4327
 4565SOL    HW117226  10.381   0.100   5.683  0.3583  0.2892 -0.7716
 4565SOL    HW217227  10.415  -0.027   5.608 -0.0978 -1.2006  1.4491
 4566SOL     OW17228   7.483   1.068   7.291  0.1279  0.1958  0.2878
 4566SOL    HW117229   7.415   1.048   7.227  0.7913  0.4555 -0.5081
 4566SOL    HW217230   7.554   1.007   7.270  2.1930  3.1607 -2.1672
 4567SOL     OW17231   3.285   6.817   7.962 -0.2387  0.5720  0.0296
 4567SOL    HW117232   3.265   6.908   7.983 -0.1793  0.1397  2.1220
 4567SOL    HW217233   3.201   6.772   7.965 -0.0413  0.2397  0.8016
 4568SOL     OW17234   9.043   3.865   5.352  0.7128 -0.1721 -0.5449
 4568SOL    HW117235   9.128   3.901   5.328  1.4797 -0.4387  1.5834
 4568SOL    HW217236   9.003   3.932   5.407 -1.3367  0.7761 -2.9461
 4569SOL     OW17237   2.398   4.843   9.198  0.2070  0.4026  0.3568
 4569SOL    HW117238   2.319   4.804   9.160 -0.0266  0.9147  0.3187
 4569SOL    HW217239   2.377   4.852   9.291  0.6271 -0.4697  0.5431
 4570SOL     OW17240   3.011   5.527   9.215  0.7159  0.2748 -0.4946
 4570SOL    HW117241   2.945   5.532   9.146  2.2651  2.3769 -1.9124
 4570SOL    HW217242   2.980   5.456   9.271 -1.7927 -0.0158 -2.0691
 4571SOL     OW17243   4.075   0.592  10.606 -0.3966 -0.0772 -0.3611
 4571SOL    HW117244   4.097   0.565  10.695  0.2731  1.9596  0.1428
 4571SOL    HW217245   3.991   0.551  10.589 -1.1351  0.4468  1.7028
 4572SOL     OW17246   9.543  10.783   8.143 -0.3186 -0.0665  0.2184
 4572SOL    HW117247   9.494  10.726   8.084 -0.0771 -0.1797  0.1299
 4572SOL    HW217248   9.486  10.860   8.154 -0.2660  0.0551 -0.3370
 4573SOL     OW17249   3.598   6.224   7.590 -0.1825 -0.0664 -0.3781
 4573SOL    HW117250   3.575   6.311   7.621  0.8471  0.0463  0.1270
 4573SOL    HW217251   3.514   6.178   7.583 -0.8435  1.2487 -1.6084
 4574SOL     OW17252   5.161   6.714   8.263  0.1237  0.0286  0.6245
 4574SOL    HW117253   5.166   6.784   8.198  0.9005  0.2264  0.8809
 4574SOL    HW217254   5.232   6.654   8.239  1.2055  0.7096  1.9577
 4575SOL     OW17255   7.924   8.989   9.833  0.0998 -0.2567  0.3887
 4575SOL    HW117256   7.924   9.083   9.813  2.3511 -0.0406  1.0863
 4575SOL    HW217257   7.895   8.984   9.925 -2.1485 -0.5098 -0.2620
 4576SOL     OW17258   3.958  10.194   8.286 -0.0683  0.2411 -0.5738
 4576SOL    HW117259   4.008  10.251   8.227 -1.0097  0.1656 -1.4696
 4576SOL    HW217260   4.021  10.169   8.354  1.4237 -0.6692 -2.2017
 4577SOL     OW17261   3.950   4.006   0.953 -0.0028 -0.3692  0.2887
 4577SOL    HW117262   3.896   3.943   1.000  0.7003 -0.7896  0.5534
 4577SOL    HW217263   4.040   3.977   0.969  0.3131  0.4598  0.0643
 4578SOL     OW17264   1.253   5.212   5.019 -0.1694 -0.7825 -0.2113
 4578SOL    HW117265   1.280   5.262   5.096 -1.2353  2.4152 -1.7130
 4578SOL    HW217266   1.159   5.229   5.012  0.0272 -0.3071 -2.5808
 4579SOL     OW17267   0.119   2.009   3.895  0.7803  0.5286  0.3415
 4579SOL    HW117268   0.060   2.021   3.821  1.4504 -0.1960 -0.3373
 4579SOL    HW217269   0.110   1.917   3.918  1.2920  0.5245  0.5376
 4580SOL     OW17270   8.050   1.659   8.091  0.5750  0.2075 -0.4116
 4580SOL    HW117271   8.010   1.575   8.114  1.3874 -0.0790 -0.0225
 4580SOL    HW217272   8.140   1.653   8.123  0.7045  1.1497 -0.5643
 4581SOL     OW17273  10.817   6.908   2.888 -0.6891 -0.0158 -0.3283
 4581SOL    HW117274  10.746   6.912   2.952 -0.5135  0.2733 -0.1519
 4581SOL    HW217275  10.773   6.896   2.804 -0.8978 -0.9343 -0.0967
 4582SOL     OW17276   5.622   9.260   2.789  0.2636  0.4295  0.1342
 4582SOL    HW117277   5.706   9.236   2.828  1.0628  1.0798 -1.1086
 4582SOL    HW217278   5.569   9.293   2.862  0.6930 -0.9687  1.1166
 4583SOL     OW17279   5.935   5.064   3.033  0.3548 -0.0356 -0.2790
 4583SOL    HW117280   5.934   5.088   3.125  1.1060  3.5038 -1.0752
 4583SOL    HW217281   5.843   5.049   3.011  0.1784 -1.0141  1.0042
 4584SOL     OW17282   3.265   0.086   0.937  0.3723  0.2320 -0.0116
 4584SOL    HW117283   3.227   0.041   1.013  1.0071 -0.8453 -0.3001
 4584SOL    HW217284   3.270   0.178   0.963 -2.0397  0.3626  0.1622
 4585SOL     OW17285   9.642   7.344   3.567 -0.0553 -0.1908 -0.0538
 4585SOL    HW117286   9.588   7.271   3.600  0.1979 -0.3442  0.0195
 4585SOL    HW217287   9.582   7.418   3.564 -0.0047 -0.0922  1.0583
 4586SOL     OW17288   4.169  10.084   2.393 -0.0906  0.5646 -0.2257
 4586SOL    HW117289   4.115  10.005   2.394 -0.7800  1.0300  0.1922
 4586SOL    HW217290   4.115  10.150   2.436  0.6281  1.1681 -0.2386
 4587SOL     OW17291   6.773   1.053   4.543  0.2076 -0.3795 -0.0715
 4587SOL    HW117292   6.761   0.969   4.498  0.2122 -0.5077  0.1624
 4587SOL    HW217293   6.690   1.067   4.589 -0.3778  0.5004 -1.3352
 4588SOL     OW17294   3.243   2.585   0.457  0.8559 -0.6062  0.3705
 4588SOL    HW117295   3.197   2.511   0.497 -1.6873 -1.3815 -3.4049
 4588SOL    HW217296   3.213   2.662   0.505  0.7750 -1.6601  2.1003
 4589SOL     OW17297   6.031   8.575   1.561  0.8181  0.3897  0.3175
 4589SOL    HW117298   6.089   8.650   1.573 -1.1269  2.0556 -0.1169
 4589SOL    HW217299   6.076   8.521   1.495  3.0016  0.2985  1.7823
 4590SOL     OW17300   5.993   4.799   5.142  0.0315 -0.1004  0.7443
 4590SOL    HW117301   6.006   4.829   5.052 -0.3459  0.5522  0.9068
 4590SOL    HW217302   5.971   4.706   5.134  1.5937 -0.4579  0.2578
 4591SOL     OW17303   0.881   6.788   3.195  0.0964  0.0480 -0.2966
 4591SOL    HW117304   0.938   6.725   3.239  0.2845  1.1546  1.0935
 4591SOL    HW217305   0.864   6.748   3.109  2.0569 -0.8267 -0.3419
 4592SOL     OW17306   1.347   1.326   5.091  0.2859  0.2169 -0.0671
 4592SOL    HW117307   1.289   1.386   5.044 -0.0399  1.0933  1.3964
 4592SOL    HW217308   1.372   1.261   5.025 -2.8187 -0.5562 -0.6819
 4593SOL     OW17309   0.239   6.800   6.407  0.4304 -0.3388 -0.6621
 4593SOL    HW117310   0.333   6.785   6.403  0.3493 -0.6558 -1.7685
 4593SOL    HW217311   0.204   6.722   6.452  0.5546 -0.9876 -1.6494
 4594SOL     OW17312   1.955   9.680  10.293 -0.0791 -0.1404 -0.1814
 4594SOL    HW117313   1.995   9.658  10.209  0.2289 -0.4803  0.0478
 4594SOL    HW217314   2.028   9.707  10.348 -0.5927  2.9700 -0.8800
 4595SOL     OW17315   9.290   5.926   0.918 -0.0702  0.3894  0.3833
 4595SOL    HW117316   9.247   5.890   0.996 -0.0836  2.6310  1.5008
 4595SOL    HW217317   9.310   5.849   0.864 -1.0427 -1.1495  2.0790
 4596SOL     OW17318   6.185   9.438   9.854  0.2887  0.0389  0.2998
 4596SOL    HW117319   6.255   9.484   9.901  0.2152 -0.2430  0.6925
 4596SOL    HW217320   6.122   9.414   9.922 -0.9323  1.5650 -0.2367
 4597SOL     OW17321   1.619   6.488  10.303  0.1970  0.8575 -0.4116
 4597SOL    HW117322   1.542   6.434  10.288 -0.1960  1.2194  0.2534
 4597SOL    HW217323   1.588   6.561  10.357  0.8204  1.4892 -0.8839
 4598SOL     OW17324  11.104   9.954   1.687  0.2137 -0.1253  0.5187
 4598SOL    HW117325  11.171  10.000   1.738 -0.6490  0.0931  1.4793
 4598SOL    HW217326  11.038   9.929   1.751 -0.6590 -0.2972 -0.4250
 4599SOL     OW17327  10.713   6.544   5.397 -0.0780 -0.5933  0.4203
 4599SOL    HW117328  10.636   6.492   5.420 -1.2204  0.0260 -1.7198
 4599SOL    HW217329  10.704   6.625   5.446 -0.8526 -0.4784  0.0932
 4600SOL     OW17330   2.813   0.816   3.411 -0.2917  0.2229 -0.0444
 4600SOL    HW117331   2.864   0.738   3.390 -0.8315  0.1041 -0.9649
 4600SOL    HW217332   2.791   0.806   3.503  0.2611 -0.3519  0.0328
 4601SOL     OW17333   1.467   4.834   7.035 -0.3413  0.7960  0.1415
 4601SOL    HW117334   1.434   4.848   7.124 -1.2603  0.6896 -0.1786
 4601SOL    HW217335   1.402   4.777   6.994 -0.3300  1.4774 -0.8463
 4602SOL     OW17336   6.643   3.165   9.464  0.2794  0.4423  0.0295
 4602SOL    HW117337   6.619   3.102   9.396  2.6312  0.4888 -0.9198
 4602SOL    HW217338   6.611   3.249   9.431 -0.8816  0.1103  0.2505
 4603SOL     OW17339   8.296   6.995   4.410 -0.2174 -0.1411  0.5261
 4603SOL    HW117340   8.259   6.996   4.498 -0.8789 -0.5315  0.2653
 4603SOL    HW217341   8.281   6.906   4.379 -0.0813  0.0195 -0.0152
 4604SOL     OW17342  11.035   8.669   1.817 -0.4341 -0.1246 -0.4281
 4604SOL    HW117343  11.060   8.711   1.735  1.0584 -1.4490 -0.6975
 4604SOL    HW217344  11.071   8.726   1.885  0.7552 -0.4311 -0.7703
 4605SOL     OW17345  10.395   9.720   8.515 -0.2877  0.6537 -0.1161
 4605SOL    HW117346  10.455   9.653   8.481 -0.5104  0.5172 -0.2428
 4605SOL    HW217347  10.322   9.670   8.550  0.8718  0.6388  2.5224
 4606SOL     OW17348   6.382   4.650   9.539 -0.0834  0.5312 -0.5921
 4606SOL    HW117349   6.385   4.562   9.501 -0.3579  0.3038 -0.0981
 4606SOL    HW217350   6.304   4.690   9.502 -0.1197  0.4589 -0.5931
 4607SOL     OW17351   1.880   3.973   5.860  0.2328 -0.5952 -0.8056
 4607SOL    HW117352   1.973   3.989   5.845  0.0267  0.5636 -0.9403
 4607SOL    HW217353   1.862   4.018   5.943  0.2199 -2.5435  0.3118
 4608SOL     OW17354  10.129   6.338   9.465  0.0925 -0.6806  0.3940
 4608SOL    HW117355  10.100   6.255   9.503 -0.2865 -0.1731  1.2697
 4608SOL    HW217356  10.049   6.392   9.463  0.4447 -0.1504  0.3858
 4609SOL     OW17357   7.380   5.075   8.371 -0.0955 -0.1812 -0.1774
 4609SOL    HW117358   7.345   5.123   8.296 -1.7585 -0.1847  0.5487
 4609SOL    HW217359   7.320   5.001   8.382 -0.9076  0.7191  2.1135
 4610SOL     OW17360   1.636   7.393   4.394 -0.2189  0.3372  0.2882
 4610SOL    HW117361   1.563   7.358   4.445 -0.4073  2.1025  1.3020
 4610SOL    HW217362   1.605   7.478   4.364  0.6458  0.1808 -1.1400
 4611SOL     OW17363   8.795   8.493   9.980  0.3878  0.5984 -0.1231
 4611SOL    HW117364   8.885   8.460   9.979  0.8833  1.9084 -0.5804
 4611SOL    HW217365   8.795   8.559  10.049 -0.5161 -0.1030  0.5756
 4612SOL     OW17366   1.274   9.497   2.425  0.1804  0.2677 -0.3504
 4612SOL    HW117367   1.238   9.487   2.514  0.4380 -1.1888 -0.3813
 4612SOL    HW217368   1.224   9.434   2.373 -0.1396  1.2869 -1.3125
 4613SOL     OW17369   8.739   3.604   9.402  0.3235 -0.3667  0.0306
 4613SOL    HW117370   8.650   3.634   9.387 -0.3247 -2.3643 -0.4516
 4613SOL    HW217371   8.729   3.514   9.434  2.1461 -0.3936  0.6374
 4614SOL     OW17372   9.222   6.223   4.533  0.3996  0.7986 -0.2362
 4614SOL    HW117373   9.227   6.310   4.493 -2.8594  0.4189 -1.8178
 4614SOL    HW217374   9.185   6.167   4.465  0.6743 -1.4229  1.3195
 4615SOL     OW17375   7.903   5.984   7.064  0.0194 -0.9460  0.0269
 4615SOL    HW117376   7.873   6.033   7.140  1.6623 -1.7282  1.2389
 4615SOL    HW217377   7.824   5.968   7.013 -1.0931 -0.1935  1.4393
 4616SOL     OW17378   1.239   8.733   5.979 -0.3479  0.0077 -0.2193
 4616SOL    HW117379   1.278   8.808   6.023 -1.7965  0.0522  1.0522
 4616SOL    HW217380   1.292   8.658   6.006 -0.7063  0.1609  0.9470
 4617SOL     OW17381   9.326  10.528   1.821 -0.0565  0.0716 -0.5685
 4617SOL    HW117382   9.251  10.532   1.762  0.1243  2.9959 -0.7665
 4617SOL    HW217383   9.387  10.467   1.779 -1.9247 -1.7036 -0.8244
 4618SOL     OW17384   5.111   4.470   6.389 -0.0032  0.4259  0.1155
 4618SOL    HW117385   5.084   4.542   6.447 -2.8451  0.3143 -0.8929
 4618SOL    HW217386   5.135   4.399   6.449  1.1623  1.6206  1.1267
 4619SOL     OW17387   1.751   3.594   2.563  0.2249 -0.0305  0.2581
 4619SOL    HW117388   1.777   3.660   2.499 -0.8480 -0.6766 -0.8683
 4619SOL    HW217389   1.825   3.591   2.624  0.6150  1.6807 -0.0625
 4620SOL     OW17390   8.747  10.392  10.435  0.3603 -0.3197  0.0721
 4620SOL    HW117391   8.818  10.359  10.490  1.2551 -0.8659 -1.3544
 4620SOL    HW217392   8.669  10.348  10.469  0.8069 -0.3206  1.1580
 4621SOL     OW17393   4.145   6.987   3.398 -0.4189 -0.7869 -0.4846
 4621SOL    HW117394   4.143   6.993   3.302 -0.4136  0.7572 -0.4196
 4621SOL    HW217395   4.205   7.057   3.425 -1.3279 -0.4221  0.6864
 4622SOL     OW17396   9.745   7.557   9.173 -0.2273 -0.3426  0.2778
 4622SOL    HW117397   9.692   7.622   9.220 -0.0225 -0.5461  0.7934
 4622SOL    HW217398   9.806   7.609   9.121 -0.3227 -0.1191  0.3881
 4623SOL     OW17399   2.433   3.879   4.566 -0.8054  0.4913 -0.1231
 4623SOL    HW117400   2.513   3.856   4.519 -0.5734 -1.3178  1.0403
 4623SOL    HW217401   2.402   3.960   4.525  0.6774  0.2833 -1.7253
 4624SOL     OW17402   6.022   8.051   3.637 -0.1897  0.7603 -0.2113
 4624SOL    HW117403   6.110   8.029   3.606 -0.3143  0.2582 -0.2284
 4624SOL    HW217404   6.035   8.090   3.723  0.0808  1.0956 -0.4053
 4625SOL     OW17405   0.571   8.313   4.115  0.0842 -0.1757  0.3221
 4625SOL    HW117406   0.666   8.316   4.123  0.1179 -0.2474 -0.0431
 4625SOL    HW217407   0.540   8.383   4.173  0.2927 -0.9800  1.4395
 4626SOL     OW17408   2.168  10.086   3.092  0.4615 -0.4099  0.1602
 4626SOL    HW117409   2.232  10.014   3.085  0.7789 -0.1115 -0.0128
 4626SOL    HW217410   2.222  10.165   3.094  0.1535 -0.2147  1.1183
 4627SOL     OW17411   2.390   7.260   5.617 -0.4791 -0.1440 -1.0636
 4627SOL    HW117412   2.372   7.289   5.707 -2.0618 -0.7022 -1.1717
 4627SOL    HW217413   2.485   7.258   5.612 -0.3478 -0.2820  0.6742
 4628SOL     OW17414   3.633  10.478   5.604 -0.3379 -0.4149 -0.2153
 4628SOL    HW117415   3.709  10.480   5.547 -0.6590 -2.6373 -0.8033
 4628SOL    HW217416   3.562  10.445   5.549 -1.9189  2.0554  0.1836
 4629SOL     OW17417   2.485   6.096   9.117  0.4446  0.2320  0.4576
 4629SOL    HW117418   2.462   6.023   9.060 -0.0083  0.2103  0.6655
 4629SOL    HW217419   2.575   6.118   9.092  0.8144 -0.8052  0.8268
 4630SOL     OW17420   7.290   1.851   6.681  0.1280  0.3468  1.2150
 4630SOL    HW117421   7.197   1.847   6.700 -0.9992 -1.3508 -3.3588
 4630SOL    HW217422   7.297   1.913   6.607  1.9748 -2.0572 -0.8173
 4631SOL     OW17423   2.720   7.862   8.656  0.5131  0.3884 -0.1924
 4631SOL    HW117424   2.816   7.865   8.663  0.7494 -0.8233 -2.1301
 4631SOL    HW217425   2.698   7.939   8.603  0.3799  0.7841  0.4300
 4632SOL     OW17426   6.806   6.509   6.798 -0.1509  0.0002  0.0706
 4632SOL    HW117427   6.832   6.596   6.828 -1.1720  0.0448  0.8990
 4632SOL    HW217428   6.840   6.450   6.865 -0.6872 -0.0949  0.2617
 4633SOL     OW17429   3.868   6.055  10.346  0.1761 -0.3734 -0.1031
 4633SOL    HW117430   3.824   6.102  10.417 -1.4512 -1.8112 -0.0901
 4633SOL    HW217431   3.847   5.963  10.362  1.5114 -0.9188 -1.3033
 4634SOL     OW17432   2.439   1.639   8.145 -0.0205 -0.4626  0.6049
 4634SOL    HW117433   2.356   1.675   8.177 -1.6094 -1.6420 -1.8779
 4634SOL    HW217434   2.495   1.715   8.132 -1.5943  0.6430  0.0003
 4635SOL     OW17435  10.266   0.970   6.337  0.5122  0.3575 -0.2484
 4635SOL    HW117436  10.245   0.997   6.426  0.1059 -0.2301 -0.1576
 4635SOL    HW217437  10.216   1.029   6.281  1.8352  1.6389 -0.1407
 4636SOL     OW17438   7.018  10.588   4.601 -0.2733  0.2838  0.3727
 4636SOL    HW117439   6.930  10.597   4.638  0.0456  1.8740  0.8099
 4636SOL    HW217440   7.068  10.659   4.641  0.6736  0.6732 -1.4097
 4637SOL     OW17441   9.979   9.938   6.059  0.4602  0.3461 -0.5893
 4637SOL    HW117442  10.056   9.928   6.116  0.7975  2.1176 -0.6564
 4637SOL    HW217443   9.966   9.851   6.021  0.4153 -0.8373  1.9199
 4638SOL     OW17444   2.120   2.095  10.072 -0.2116 -0.3434 -0.4338
 4638SOL    HW117445   2.152   2.185  10.068 -1.5716  0.1278 -1.4095
 4638SOL    HW217446   2.160   2.052   9.997 -0.0696 -0.3878 -0.3343
 4639SOL     OW17447   3.566  10.837   4.068  0.4951  0.8689  0.1708
 4639SOL    HW117448   3.622  10.886   4.007  0.4177  0.2416 -0.4255
 4639SOL    HW217449   3.549  10.754   4.022 -1.8379  1.4593 -0.1475
 4640SOL     OW17450   6.055   9.966   3.968 -0.2371  1.0144  0.0982
 4640SOL    HW117451   5.995  10.017   4.023 -0.5742 -0.1047  0.7984
 4640SOL    HW217452   5.999   9.908   3.918  0.2442 -0.2086  0.9247
 4641SOL     OW17453   4.823   8.830   8.258  0.2508  0.1380  0.4108
 4641SOL    HW117454   4.822   8.738   8.285 -0.3754 -0.9055 -2.8288
 4641SOL    HW217455   4.731   8.850   8.239  0.6114  0.9030 -0.5757
 4642SOL     OW17456   6.291   0.191   3.450 -0.3314 -0.1678  0.3492
 4642SOL    HW117457   6.210   0.218   3.493 -0.0086 -0.8713  1.4351
 4642SOL    HW217458   6.342   0.272   3.444 -0.4988 -0.0041  1.0442
 4643SOL     OW17459   3.589   4.553   2.225 -0.2822  0.7091  0.4454
 4643SOL    HW117460   3.526   4.583   2.159  0.6046  4.0853  0.9396
 4643SOL    HW217461   3.656   4.508   2.174 -0.7711  1.1967 -0.6782
 4644SOL     OW17462  10.260   3.026  10.517 -0.1776 -0.6231  0.3054
 4644SOL    HW117463  10.262   3.063  10.605  0.3737 -0.1605  0.1056
 4644SOL    HW217464  10.344   3.053  10.478  0.1856 -1.9700  0.1124
 4645SOL     OW17465   0.819   0.104   8.858 -0.3246  0.3784 -0.6721
 4645SOL    HW117466   0.795   0.075   8.770  0.9826 -3.8999  0.1543
 4645SOL    HW217467   0.739   0.093   8.910 -0.4157  0.4275 -0.8011
 4646SOL     OW17468   4.505   6.191   7.690 -0.5385 -0.4074 -0.8604
 4646SOL    HW117469   4.535   6.265   7.637 -1.6796  0.5873 -0.1669
 4646SOL    HW217470   4.437   6.228   7.746 -0.2103 -1.6976  0.4498
 4647SOL     OW17471   5.361   6.040   0.614 -0.1160 -0.0379  0.0840
 4647SOL    HW117472   5.360   6.107   0.682 -0.5601 -0.8805  0.9258
 4647SOL    HW217473   5.443   6.055   0.567  0.4630  0.2208  1.1437
 4648SOL     OW17474   9.087   5.960   4.018  0.1352  0.0023 -0.3141
 4648SOL    HW117475   9.016   5.905   3.985 -0.1125 -0.0419  0.2943
 4648SOL    HW217476   9.167   5.917   3.986 -0.0452 -0.8178  0.3110
 4649SOL     OW17477   2.436   4.960   1.869 -0.0890  0.6027 -0.3096
 4649SOL    HW117478   2.490   4.901   1.817  1.8397  1.7652  0.2676
 4649SOL    HW217479   2.358   4.909   1.891  1.8195 -2.0460  0.8125
 4650SOL     OW17480   2.785  10.869   2.185 -0.5253  0.0633 -0.1821
 4650SOL    HW117481   2.772  10.796   2.125 -0.1296 -0.7179  0.6456
 4650SOL    HW217482   2.795  10.945   2.129  1.5299 -0.8826 -1.2065
 4651SOL     OW17483   2.571   8.448  10.184 -0.2843 -0.3894  0.1072
 4651SOL    HW117484   2.591   8.360  10.216  1.6272  0.0242  0.1598
 4651SOL    HW217485   2.478   8.444  10.161 -0.0489 -2.6973 -0.7849
 4652SOL     OW17486   1.761   2.095   0.445 -0.2457  0.0679 -0.6119
 4652SOL    HW117487   1.835   2.064   0.394  1.2597 -2.1688  2.5729
 4652SOL    HW217488   1.789   2.181   0.478 -0.0711  0.2707 -1.2715
 4653SOL     OW17489  10.773   7.802   2.047  0.0245 -0.8167  0.0208
 4653SOL    HW117490  10.823   7.785   2.127 -0.5489  1.7357  1.0289
 4653SOL    HW217491  10.688   7.832   2.079 -0.1554  0.4099 -1.5264
 4654SOL     OW17492   4.231   6.649   3.837  0.5301 -0.2129 -0.5965
 4654SOL    HW117493   4.195   6.619   3.753  1.9994 -1.1288 -0.9416
 4654SOL    HW217494   4.325   6.632   3.830  0.7762  0.3381  0.9834
 4655SOL     OW17495   8.496   3.536   1.754  0.0092 -0.3951 -0.1451
 4655SOL    HW117496   8.480   3.532   1.848 -0.1751 -0.7594 -0.1916
 4655SOL    HW217497   8.558   3.609   1.743  1.4106 -1.4562  0.4455
 4656SOL     OW17498   3.387   9.713   3.980 -0.2918  0.4421 -0.3711
 4656SOL    HW117499   3.482   9.717   3.968 -0.2191 -0.8829 -0.4001
 4656SOL    HW217500   3.352   9.703   3.891 -0.2247 -2.0730 -0.1971
 4657SOL     OW17501  10.534   8.313  10.230 -0.3169  0.2280 -0.4601
 4657SOL    HW117502  10.509   8.331  10.139  1.7113  1.6450 -0.8036
 4657SOL    HW217503  10.628   8.329  10.233 -0.7039  2.8232  2.4796
 4658SOL     OW17504  10.917   6.522   9.938  0.4612 -0.0636  0.1935
 4658SOL    HW117505  10.964   6.456   9.887  1.1221  0.4032  0.2021
 4658SOL    HW217506  10.962   6.524  10.022 -1.1539 -1.4627  1.1648
 4659SOL     OW17507   9.634   4.836   2.511 -0.0176  0.2588 -0.2945
 4659SOL    HW117508   9.576   4.860   2.584 -0.0465  1.7972 -0.8033
 4659SOL    HW217509   9.709   4.894   2.520  1.0299 -1.0691 -0.2153
 4660SOL     OW17510   8.933   9.906  10.735 -0.1003  0.4249 -0.0801
 4660SOL    HW117511   8.852   9.884  10.782 -0.0287  0.1006 -0.1106
 4660SOL    HW217512   8.905   9.917  10.644 -0.1989  0.8235 -0.0065
 4661SOL     OW17513   1.234   3.858   6.542 -0.1511  0.0911  0.5126
 4661SOL    HW117514   1.171   3.926   6.517 -0.8827 -0.4485  0.8896
 4661SOL    HW217515   1.246   3.806   6.463  0.2490  0.5211  0.2835
 4662SOL     OW17516   7.899   0.394   0.661 -0.2008  0.2645 -0.0546
 4662SOL    HW117517   7.866   0.454   0.594  0.1556  0.5385  0.0081
 4662SOL    HW217518   7.896   0.308   0.620 -1.2180  0.2460  0.0384
 4663SOL     OW17519   5.588   2.629   3.721 -0.0548  0.2435  0.3148
 4663SOL    HW117520   5.649   2.680   3.775  0.8892 -0.6835  0.1545
 4663SOL    HW217521   5.596   2.667   3.634 -1.3478  1.5386  0.7272
 4664SOL     OW17522   3.803   5.675   0.892 -0.0510 -0.1726  0.6117
 4664SOL    HW117523   3.882   5.677   0.946 -0.1834 -1.2590  0.8693
 4664SOL    HW217524   3.829   5.718   0.810  0.5410  0.2836  1.0280
 4665SOL     OW17525   8.103   6.697   7.105  0.1173 -0.3221  0.3409
 4665SOL    HW117526   8.162   6.648   7.163  0.3327  0.0524  0.4397
 4665SOL    HW217527   8.138   6.786   7.104 -0.4041 -0.1137  0.3355
 4666SOL     OW17528  10.436   8.819   4.268 -0.3762  0.2882  0.0680
 4666SOL    HW117529  10.447   8.724   4.278  0.5453  0.2375 -1.1908
 4666SOL    HW217530  10.349   8.837   4.305 -0.5571 -1.0354  0.3472
 4667SOL     OW17531   5.619  10.586  10.027 -0.1771  0.2759 -0.4714
 4667SOL    HW117532   5.603  10.663  10.081  0.9628  0.1904  0.0268
 4667SOL    HW217533   5.687  10.614   9.966  0.8917 -0.5546  0.2912
 4668SOL     OW17534  10.054   5.245   4.398 -0.4606 -0.0294  0.0305
 4668SOL    HW117535  10.130   5.297   4.371  0.6813 -1.4827  0.2935
 4668SOL    HW217536   9.981   5.283   4.349  0.2746  1.8617  0.2911
 4669SOL     OW17537   8.979   4.771   7.121  0.3508  0.7262  0.3262
 4669SOL    HW117538   9.042   4.731   7.061 -0.2899  1.8136 -1.1163
 4669SOL    HW217539   8.947   4.698   7.174 -0.8566 -0.7595 -2.2777
 4670SOL     OW17540   8.105   6.311   3.062  0.1396  0.1891 -0.6114
 4670SOL    HW117541   8.198   6.331   3.062  0.0263  0.7949  0.5015
 4670SOL    HW217542   8.064   6.386   3.020  0.1838 -0.3618 -1.6858
 4671SOL     OW17543   5.598   6.893   2.082  0.2823 -0.0431  0.0118
 4671SOL    HW117544   5.670   6.894   2.019  0.6993  1.3281  0.4687
 4671SOL    HW217545   5.638   6.865   2.164  0.1983  0.3036  0.1702
 4672SOL     OW17546   1.973   8.008   9.647  0.3847 -0.3946 -0.3228
 4672SOL    HW117547   2.062   8.035   9.622  0.3001 -0.5513 -0.8228
 4672SOL    HW217548   1.927   7.998   9.563 -0.7817  1.8735 -0.0101
 4673SOL     OW17549   9.136   8.342   1.702  0.4182 -0.1592  0.4077
 4673SOL    HW117550   9.183   8.336   1.785  1.3256  0.8587 -0.0104
 4673SOL    HW217551   9.202   8.324   1.636  0.3410  1.6305 -0.2075
 4674SOL     OW17552   2.920   8.640   7.364  0.4001  0.4916 -0.5066
 4674SOL    HW117553   2.928   8.646   7.459  1.2623  1.7329 -0.6310
 4674SOL    HW217554   3.002   8.600   7.335 -0.0420 -0.2862 -0.7029
 4675SOL     OW17555   8.471   7.741   6.044  0.2651 -0.3716  0.0057
 4675SOL    HW117556   8.490   7.648   6.033  2.3546  0.2238 -2.1750
 4675SOL    HW217557   8.532   7.770   6.112 -1.3240 -0.7766  1.6981
 4676SOL     OW17558   5.080   9.677   3.730  0.0786  0.0909 -0.6410
 4676SOL    HW117559   5.062   9.584   3.738 -0.4118  0.1651 -0.8475
 4676SOL    HW217560   5.006   9.720   3.771  0.8127  0.3905  0.4053
 4677SOL     OW17561   8.142   1.072  10.717 -0.4517 -0.1885  0.2068
 4677SOL    HW117562   8.100   0.992  10.748  0.0008  0.1328  1.7526
 4677SOL    HW217563   8.190   1.105  10.793  0.8783  0.5746 -0.9005
 4678SOL     OW17564   9.564   1.713   1.382  0.0679  0.0515  0.0842
 4678SOL    HW117565   9.548   1.660   1.304  2.0591  1.8140 -1.6299
 4678SOL    HW217566   9.552   1.652   1.455 -0.5845 -1.9896 -1.6348
 4679SOL     OW17567   0.127   4.230   4.246  0.0427  0.1211  0.0636
 4679SOL    HW117568   0.060   4.287   4.283 -2.1973 -0.9227 -2.0668
 4679SOL    HW217569   0.080   4.150   4.222  1.9355 -0.4882 -2.0140
 4680SOL     OW17570   2.250   1.688   5.836  0.6577 -0.2824  0.7273
 4680SOL    HW117571   2.273   1.644   5.918 -2.4251 -1.3399  1.1581
 4680SOL    HW217572   2.162   1.655   5.815  0.9978  0.5563 -2.6081
 4681SOL     OW17573   1.154   4.454   3.781 -0.2078  0.0395 -0.1144
 4681SOL    HW117574   1.178   4.468   3.689 -0.0353 -0.1569 -0.1004
 4681SOL    HW217575   1.148   4.359   3.790 -2.0607  0.0956 -0.3914
 4682SOL     OW17576  10.248   5.710   5.392  0.0119  0.5169 -0.3575
 4682SOL    HW117577  10.336   5.727   5.358 -0.2404  0.8905 -0.8299
 4682SOL    HW217578  10.189   5.742   5.324 -0.5248  2.0610  0.7913
 4683SOL     OW17579   3.177   2.777   2.042  0.1005  0.4153 -0.4408
 4683SOL    HW117580   3.096   2.827   2.048  0.2870  0.8648 -1.5042
 4683SOL    HW217581   3.179   2.726   2.123 -0.7784  1.0857  0.0244
 4684SOL     OW17582   3.945   0.523   8.432 -0.9428  0.2937  0.3466
 4684SOL    HW117583   3.994   0.598   8.465 -1.2468 -0.3796  2.5087
 4684SOL    HW217584   3.981   0.448   8.479 -0.0705 -1.1084 -2.3566
 4685SOL     OW17585   1.501   7.612   4.354 -0.4350 -0.2573  0.3777
 4685SOL    HW117586   1.490   7.689   4.409  1.0822 -0.5171  1.0748
 4685SOL    HW217587   1.521   7.647   4.267  2.7168  0.2274  1.1786
 4686SOL     OW17588   7.133   3.739   0.170 -0.0842 -0.0702  1.3114
 4686SOL    HW117589   7.092   3.654   0.156  0.4164 -0.1672  0.3502
 4686SOL    HW217590   7.192   3.726   0.244 -0.4868 -0.3893  1.5748
 4687SOL     OW17591   2.667   0.373  10.141  0.0828 -0.2578  0.0984
 4687SOL    HW117592   2.666   0.299  10.202  2.0963 -0.5514 -0.1376
 4687SOL    HW217593   2.585   0.419  10.157 -0.6600 -1.8523  1.1131
 4688SOL     OW17594   1.253  10.068   7.707 -0.2514 -0.0567 -0.5604
 4688SOL    HW117595   1.338  10.087   7.746 -0.8467 -0.8490  1.2454
 4688SOL    HW217596   1.212  10.154   7.693 -1.3441  0.3699  3.8036
 4689SOL     OW17597   1.026   0.052   6.120  0.2991 -0.0766  0.2815
 4689SOL    HW117598   1.121   0.062   6.127  0.3952 -0.9051  0.3244
 4689SOL    HW217599   1.015  -0.023   6.061 -0.3479  0.7326 -0.6690
 4690SOL     OW17600   4.621   5.099   8.073  0.2280 -0.1983  0.4026
 4690SOL    HW117601   4.568   5.041   8.019 -0.3431 -2.4361  3.1442
 4690SOL    HW217602   4.664   5.158   8.010 -1.0097 -2.0306 -2.3503
 4691SOL     OW17603   5.182   7.505   3.394  0.2660 -0.0164 -0.2768
 4691SOL    HW117604   5.218   7.546   3.315 -0.5095  0.0344 -0.6150
 4691SOL    HW217605   5.088   7.501   3.377 -0.1618  1.6878  1.4150
 4692SOL     OW17606   2.750   8.137   7.718 -0.4854 -0.0255  1.0368
 4692SOL    HW117607   2.833   8.098   7.747  1.0347  2.3430  0.2280
 4692SOL    HW217608   2.762   8.149   7.623 -2.1065 -0.3614  0.7707
 4693SOL     OW17609   1.589   8.639   1.715 -0.4154 -0.1584  0.1836
 4693SOL    HW117610   1.558   8.661   1.803 -0.0516 -0.3901  0.3697
 4693SOL    HW217611   1.649   8.566   1.728 -0.0952  0.0300 -0.2185
 4694SOL     OW17612   6.077   4.166   3.467 -0.3274  0.1644 -0.6790
 4694SOL    HW117613   6.168   4.188   3.487 -0.1069  0.2964 -1.7349
 4694SOL    HW217614   6.034   4.159   3.552  0.5235  0.7325 -0.1883
 4695SOL     OW17615   2.957   4.503   6.707  0.2642  0.2561  0.6516
 4695SOL    HW117616   3.012   4.578   6.729  0.5410  1.4177 -3.3224
 4695SOL    HW217617   2.868   4.538   6.706  0.0729 -0.1796  1.3532
 4696SOL     OW17618   2.902   8.869   0.068 -0.2516  0.1724 -0.1447
 4696SOL    HW117619   2.844   8.831   0.002 -1.3028 -1.7738  1.8191
 4696SOL    HW217620   2.850   8.939   0.108  0.8101  2.2081 -2.0448
 4697SOL     OW17621   5.528   8.477   0.999  0.1594 -0.2674 -0.1788
 4697SOL    HW117622   5.595   8.497   0.934  1.7391 -0.8028  1.2057
 4697SOL    HW217623   5.540   8.383   1.017 -1.0433 -0.3909  0.0192
 4698SOL     OW17624   6.474   8.469   1.573 -0.7713 -0.2895  0.0259
 4698SOL    HW117625   6.495   8.536   1.508 -1.3595  1.6040  1.7089
 4698SOL    HW217626   6.544   8.403   1.562 -0.1978  0.5428 -1.6912
 4699SOL     OW17627   9.586   8.064  11.085 -0.1218  0.4213  0.1654
 4699SOL    HW117628   9.664   8.053  11.030  2.3490  5.1151  2.1705
 4699SOL    HW217629   9.534   8.130  11.040 -1.8268 -0.8860  0.0949
 4700SOL     OW17630   9.703   0.511   7.409 -0.0457  0.3327  0.2881
 4700SOL    HW117631   9.664   0.446   7.351 -1.1229  1.8297 -0.7699
 4700SOL    HW217632   9.717   0.466   7.491 -1.4990 -1.0133 -0.1653
 4701SOL     OW17633   9.968   9.522  10.337 -0.1242  0.0386 -0.1071
 4701SOL    HW117634   9.889   9.576  10.337 -0.8645 -1.0057 -0.7427
 4701SOL    HW217635  10.014   9.546  10.256  1.1474  1.8972  1.0787
 4702SOL     OW17636   3.986   0.209   5.238  0.6627 -0.4789 -0.6069
 4702SOL    HW117637   4.043   0.154   5.293  1.1427 -1.0916 -1.6915
 4702SOL    HW217638   4.018   0.298   5.253  0.1946 -0.5148  0.7927
 4703SOL     OW17639   2.196   0.921  10.649  0.3985  0.6576 -0.8334
 4703SOL    HW117640   2.108   0.958  10.656 -1.1066 -2.7852  1.2971
 4703SOL    HW217641   2.211   0.913  10.555 -1.7851  0.9004 -1.2660
 4704SOL     OW17642   0.733   3.182   8.125 -0.0824 -0.3089  0.3572
 4704SOL    HW117643   0.646   3.149   8.099  1.0961 -1.6400 -2.2997
 4704SOL    HW217644   0.790   3.105   8.120  1.2218  0.4236  2.5498
 4705SOL     OW17645   6.796   8.976   8.664 -0.3043  0.0247 -0.5638
 4705SOL    HW117646   6.836   9.039   8.604  0.1445  0.8948  0.6026
 4705SOL    HW217647   6.860   8.966   8.734 -1.3316 -0.0241  0.3982
 4706SOL     OW17648   5.827   5.331   5.962  0.0528  0.1674  0.0298
 4706SOL    HW117649   5.849   5.244   5.995  0.2036  0.7190  1.4500
 4706SOL    HW217650   5.815   5.384   6.041 -0.0126  1.4392 -0.8128
 4707SOL     OW17651   5.102   6.920   1.049 -0.1908 -0.1967 -0.3660
 4707SOL    HW117652   5.079   7.012   1.036 -0.5208 -0.4758 -2.0869
 4707SOL    HW217653   5.195   6.916   1.026 -0.0799 -0.2157  0.0945
 4708SOL     OW17654   5.687  11.035   4.628 -0.2584  0.4096 -0.3949
 4708SOL    HW117655   5.712  10.944   4.645  0.9464  0.8844  0.4797
 4708SOL    HW217656   5.607  11.028   4.576 -0.8797 -1.1581  0.6809
 4709SOL     OW17657   2.754   2.028   9.048  0.3023 -0.0247  0.1276
 4709SOL    HW117658   2.769   1.963   8.979  1.5910  0.3738 -0.0129
 4709SOL    HW217659   2.719   2.104   9.002  0.2998 -0.0780  0.0413
 4710SOL     OW17660   9.255   8.215   6.721  0.0671 -0.0254 -0.1006
 4710SOL    HW117661   9.211   8.289   6.681 -0.3713 -0.1681  0.1042
 4710SOL    HW217662   9.325   8.253   6.773 -1.1665  0.3905  1.3295
 4711SOL     OW17663   4.281   5.623   6.064  0.2494  0.4275  0.1684
 4711SOL    HW117664   4.334   5.688   6.111 -0.6760  1.0237  0.4218
 4711SOL    HW217665   4.191   5.646   6.086 -0.2014  0.4813 -1.5910
 4712SOL     OW17666   6.982   1.967   5.116 -0.2657 -0.4996 -0.0033
 4712SOL    HW117667   6.989   2.037   5.051  0.5122  1.1684  1.7724
 4712SOL    HW217668   6.947   2.010   5.194  1.1561 -1.8699  1.4619
 4713SOL     OW17669   4.163   5.220   2.311 -0.4250  0.1335  0.2368
 4713SOL    HW117670   4.119   5.170   2.242  0.3349  2.0949 -1.8072
 4713SOL    HW217671   4.255   5.195   2.303 -0.3027  0.5284  0.3867
 4714SOL     OW17672  10.291   0.267   1.003  0.1778  0.5956 -0.3542
 4714SOL    HW117673  10.383   0.293   0.996  0.4357 -0.1842  0.0271
 4714SOL    HW217674  10.291   0.196   1.067 -1.0539  2.3806  1.7354
 4715SOL     OW17675  10.528   6.266  11.040 -0.1751 -0.2905  0.0321
 4715SOL    HW117676  10.614   6.240  11.072  1.7294  1.4023 -3.2229
 4715SOL    HW217677  10.545   6.335  10.975 -3.9405 -0.2464 -1.1992
 4716SOL     OW17678   2.386   8.403   8.922  0.0860 -0.0525 -0.1871
 4716SOL    HW117679   2.376   8.499   8.918 -0.3888 -0.0386  1.0466
 4716SOL    HW217680   2.300   8.371   8.947 -0.1383 -0.9439 -1.9316
 4717SOL     OW17681   1.579  10.342   0.093  0.2923  0.1294 -0.5571
 4717SOL    HW117682   1.587  10.421   0.040  0.8703  0.6667  0.2920
 4717SOL    HW217683   1.599  10.372   0.182  0.1666 -0.9058 -0.1725
 4718SOL     OW17684   7.379   0.141   7.910  0.1946  0.7886  0.0033
 4718SOL    HW117685   7.291   0.135   7.873  0.7809  0.4096 -1.3763
 4718SOL    HW217686   7.430   0.187   7.843  1.0053  1.2087  0.8843
 4719SOL     OW17687   9.044  10.904  10.685 -0.0039 -0.3514  0.8579
 4719SOL    HW117688   9.033  10.889  10.779 -0.1251 -0.9977  0.7412
 4719SOL    HW217689   8.989  10.839  10.643 -1.4147  1.0984  0.3443
 4720SOL     OW17690   9.327   6.174   1.376  0.4662 -0.6949 -0.5652
 4720SOL    HW117691   9.237   6.173   1.342  0.4857 -0.9156 -0.6126
 4720SOL    HW217692   9.378   6.218   1.307  0.4742 -0.9734 -0.7389
 4721SOL     OW17693   0.401   9.060   4.595  0.4858  0.0999 -0.5500
 4721SOL    HW117694   0.419   8.979   4.547  1.9557  0.1079 -0.0487
 4721SOL    HW217695   0.458   9.126   4.554  0.8663  0.3802  0.4031
 4722SOL     OW17696  10.866  10.814   6.040 -0.6190  0.2263  0.1269
 4722SOL    HW117697  10.909  10.807   5.955 -0.5928 -1.4620  0.2338
 4722SOL    HW217698  10.898  10.737   6.089 -1.3118  0.6807  1.3460
 4723SOL     OW17699   1.404   9.807   5.780 -0.2181  0.0696 -1.1447
 4723SOL    HW117700   1.397   9.846   5.867  0.0375  3.3455 -2.4537
 4723SOL    HW217701   1.324   9.754   5.771  0.0507 -0.8887  1.2374
 4724SOL     OW17702   9.291   5.406   9.718 -0.1540 -0.0054  0.5915
 4724SOL    HW117703   9.227   5.455   9.667 -1.3251 -0.0500  1.9309
 4724SOL    HW217704   9.342   5.473   9.764  2.8862  0.2002 -2.6884
 4725SOL     OW17705   6.553  10.533   5.799 -0.6417  0.5164  0.3550
 4725SOL    HW117706   6.472  10.485   5.781 -0.7943  1.4588 -1.8986
 4725SOL    HW217707   6.534  10.582   5.878 -1.9539  0.0029  0.3920
 4726SOL     OW17708  10.770   4.600   1.731  0.3146  0.2528 -0.5644
 4726SOL    HW117709  10.810   4.619   1.646  1.6140 -1.2489 -0.3361
 4726SOL    HW217710  10.844   4.577   1.787 -0.3481  2.6186  1.4258
 4727SOL     OW17711   2.396   7.721   5.213  0.2537 -0.8619 -0.0301
 4727SOL    HW117712   2.399   7.677   5.298  1.6331 -5.3629 -2.1413
 4727SOL    HW217713   2.318   7.686   5.171 -0.4569  1.3644 -0.7348
 4728SOL     OW17714   1.812   6.506   9.164  0.5806 -0.0916 -0.4118
 4728SOL    HW117715   1.901   6.474   9.153  0.6628  0.5859 -1.9555
 4728SOL    HW217716   1.756   6.439   9.124  0.4994  0.0706 -0.5741
 4729SOL     OW17717   5.281  10.679   2.149 -0.3682  0.1761 -0.3865
 4729SOL    HW117718   5.375  10.694   2.161 -0.2852  0.9404 -1.8200
 4729SOL    HW217719   5.241  10.715   2.229  0.7210 -3.3880  2.0175
 4730SOL     OW17720   4.114  10.192   0.081  0.2356 -0.0998  0.3294
 4730SOL    HW117721   4.018  10.199   0.080  0.2619  0.2700  0.3982
 4730SOL    HW217722   4.139  10.187  -0.011  0.3144  2.0842  0.1887
 4731SOL     OW17723   5.006   6.082   3.409 -0.2972 -0.7015  0.0971
 4731SOL    HW117724   5.038   6.172   3.412  1.5806 -1.1710 -2.5948
 4731SOL    HW217725   5.083   6.028   3.427 -1.3721 -1.8229  1.5905
 4732SOL     OW17726   7.581  10.799   4.723 -0.4561  0.9749 -0.0097
 4732SOL    HW117727   7.675  10.817   4.721 -0.3775  0.6667  0.5946
 4732SOL    HW217728   7.541  10.879   4.689 -0.0118  1.4582  0.5793
 4733SOL     OW17729   2.139   3.474   1.350 -0.4617 -0.4541  0.1014
 4733SOL    HW117730   2.045   3.487   1.344 -0.0909  2.1464 -1.5754
 4733SOL    HW217731   2.171   3.548   1.401  0.6857 -1.3209  0.7004
 4734SOL     OW17732   7.340   0.908   6.616 -0.1374 -0.0100 -0.6432
 4734SOL    HW117733   7.250   0.933   6.600  0.3941  2.2399 -0.4609
 4734SOL    HW217734   7.380   0.985   6.657  1.8493 -0.9541 -0.6616
 4735SOL     OW17735   0.591   5.034   1.742 -0.3082  0.3273  0.6218
 4735SOL    HW117736   0.575   4.952   1.789  0.2012  0.0755  0.3533
 4735SOL    HW217737   0.652   5.011   1.672  1.1442  1.2487  1.5327
 4736SOL     OW17738   3.262   1.317   5.613 -0.5797 -0.1274 -0.8153
 4736SOL    HW117739   3.315   1.281   5.542 -0.2313 -0.4314 -0.4104
 4736SOL    HW217740   3.192   1.252   5.626  0.4640 -1.0753  0.4040
 4737SOL     OW17741   0.900   6.097   3.559  0.3501 -0.1675 -0.0801
 4737SOL    HW117742   0.805   6.096   3.544  0.5109  0.1684 -1.2568
 4737SOL    HW217743   0.936   6.055   3.481  1.0756 -2.4256  1.3742
 4738SOL     OW17744   9.986  10.827   2.206 -0.6564  0.0158 -0.8465
 4738SOL    HW117745   9.946  10.800   2.289 -0.7920  0.6001 -0.7220
 4738SOL    HW217746   9.917  10.815   2.141 -0.4760 -0.6751 -0.9240
 4739SOL     OW17747   8.681   7.097   0.883 -0.1963 -0.5596  0.7794
 4739SOL    HW117748   8.716   7.063   0.966 -0.3899 -0.7352  0.7892
 4739SOL    HW217749   8.754   7.086   0.821 -0.5038 -1.7345  0.5938
 4740SOL     OW17750   4.798   5.742   6.554  0.0464  0.2241  0.4617
 4740SOL    HW117751   4.814   5.783   6.639 -1.1047  2.1149 -0.1674
 4740SOL    HW217752   4.879   5.755   6.505  0.0209  0.9192  0.5985
 4741SOL     OW17753   0.767   9.525  10.096  0.0156 -0.4205 -0.5426
 4741SOL    HW117754   0.850   9.477  10.091 -0.5134 -1.5762  1.1292
 4741SOL    HW217755   0.706   9.464  10.136 -1.1015  1.1399  0.2263
 4742SOL     OW17756   2.487   9.148   7.913  0.4431  0.1218 -0.3357
 4742SOL    HW117757   2.503   9.088   7.986 -3.1525  0.3007  0.8101
 4742SOL    HW217758   2.498   9.094   7.834 -0.6609 -1.5563  0.5964
 4743SOL     OW17759   3.263   1.906   6.952  0.1632  0.5431 -0.3579
 4743SOL    HW117760   3.304   1.885   6.868  1.4635  2.2573 -0.2119
 4743SOL    HW217761   3.315   1.858   7.017  1.3641  1.8990 -0.2684
 4744SOL     OW17762  10.064   5.426  11.116 -0.9652  0.5892 -0.0455
 4744SOL    HW117763  10.127   5.471  11.172  0.0549 -0.5515 -0.2292
 4744SOL    HW217764  10.018   5.366  11.175  0.6292 -1.1626 -0.4753
 4745SOL     OW17765   6.321  10.054   1.723  0.0335  0.0284  0.9956
 4745SOL    HW117766   6.232  10.025   1.746 -0.9049  1.8524 -0.0701
 4745SOL    HW217767   6.318  10.068   1.629  1.4465  0.1896  0.9561
 4746SOL     OW17768  10.066   1.552   8.836  0.2698  0.0642 -0.3184
 4746SOL    HW117769  10.133   1.602   8.884 -1.6134  1.9979  0.4353
 4746SOL    HW217770   9.986   1.603   8.846 -0.9539 -1.2031 -2.7923
 4747SOL     OW17771   9.553   1.681   5.006  0.1022 -0.5798  0.0350
 4747SOL    HW117772   9.600   1.728   5.075 -1.3553 -2.2735  2.3061
 4747SOL    HW217773   9.473   1.732   4.993 -1.0288 -1.8057  1.8163
 4748SOL     OW17774   3.737   3.539   5.727  0.3290 -0.2831  0.7626
 4748SOL    HW117775   3.665   3.528   5.665  0.7938 -0.5151  0.2586
 4748SOL    HW217776   3.713   3.617   5.777  0.5901  0.7455 -0.6281
 4749SOL     OW17777   8.747   2.883   6.890  0.2035 -0.2467 -0.3173
 4749SOL    HW117778   8.751   2.806   6.947  1.2834  0.1347  0.1297
 4749SOL    HW217779   8.671   2.932   6.921  0.8480  0.0206  0.8952
 4750SOL     OW17780   7.570   2.852  10.104  0.1793 -0.0534 -0.0597
 4750SOL    HW117781   7.606   2.857  10.015  0.2829 -0.5280 -0.0504
 4750SOL    HW217782   7.609   2.772  10.140 -0.1611 -0.0678  0.2763
 4751SOL     OW17783   9.873   2.465   7.332 -0.0033  0.4870  0.4833
 4751SOL    HW117784   9.915   2.452   7.417  0.4186 -0.2836  0.1732
 4751SOL    HW217785   9.943   2.447   7.268 -0.7187 -0.5309 -0.0402
 4752SOL     OW17786   9.029   0.495   1.638 -0.0063 -0.2365  0.4557
 4752SOL    HW117787   8.948   0.475   1.592  0.2219  2.2479 -1.1930
 4752SOL    HW217788   9.011   0.577   1.684 -0.1995 -2.4893  4.9917
 4753SOL     OW17789   3.565   5.593   9.369  0.3390 -0.0628 -0.0399
 4753SOL    HW117790   3.645   5.566   9.415  0.1825  0.2853  0.4504
 4753SOL    HW217791   3.593   5.668   9.315  0.6864 -0.9358 -1.1001
 4754SOL     OW17792   8.636   3.882   2.881 -0.3772 -0.4854  0.0843
 4754SOL    HW117793   8.679   3.805   2.844  0.1800  0.3289 -1.0390
 4754SOL    HW217794   8.560   3.896   2.825  0.1546  0.4266 -0.4458
 4755SOL     OW17795   5.918   2.332   0.803  0.5488  0.0764  0.0315
 4755SOL    HW117796   5.868   2.413   0.788 -1.8717 -1.7572 -3.3334
 4755SOL    HW217797   5.960   2.314   0.719  1.5077 -1.8638  0.8591
 4756SOL     OW17798   2.049  10.242  10.628  0.5762 -0.2675 -0.5074
 4756SOL    HW117799   2.100  10.316  10.660 -0.3824 -0.1710  0.8896
 4756SOL    HW217800   2.009  10.274  10.547 -0.2313  0.9627  0.3355
 4757SOL     OW17801   6.076   4.401   8.196 -0.2094 -0.3362  0.7099
 4757SOL    HW117802   6.088   4.316   8.152 -0.2715 -0.8419  1.6471
 4757SOL    HW217803   6.047   4.378   8.284 -0.0804  0.6662  1.0199
 4758SOL     OW17804   6.116  10.140   0.123 -0.3832  0.0722 -0.2276
 4758SOL    HW117805   6.113  10.112   0.031 -1.0961 -0.3577 -0.0827
 4758SOL    HW217806   6.039  10.099   0.163 -0.0424  0.1982  0.5787
 4759SOL     OW17807   8.037   8.235   6.278  0.3671 -0.5179  0.0377
 4759SOL    HW117808   7.993   8.161   6.319 -0.7782  0.8548  1.3827
 4759SOL    HW217809   7.971   8.273   6.220  0.6463 -0.0389  0.0293
 4760SOL     OW17810   3.580   8.477   7.283  0.1267  0.0737  0.3529
 4760SOL    HW117811   3.539   8.427   7.212 -2.2107 -0.1741  1.7683
 4760SOL    HW217812   3.589   8.566   7.248  1.2458 -0.5472 -1.0338
 4761SOL     OW17813   9.615   9.275   7.966  0.1342  0.7952 -0.3123
 4761SOL    HW117814   9.639   9.187   7.997  1.2766  0.4231 -2.1039
 4761SOL    HW217815   9.526   9.264   7.932 -0.5798  0.8831  1.4042
 4762SOL     OW17816   9.194   9.545   2.690  0.3206  0.6128 -0.7665
 4762SOL    HW117817   9.214   9.621   2.745 -0.3684 -0.0500  0.4367
 4762SOL    HW217818   9.112   9.568   2.646 -1.2183 -0.3364  1.4495
 4763SOL     OW17819   2.474   2.545   6.987  0.0815 -0.2186 -0.0117
 4763SOL    HW117820   2.507   2.628   7.021 -0.5092  0.4071 -0.9088
 4763SOL    HW217821   2.505   2.542   6.897 -1.0462 -0.3182 -0.4114
 4764SOL     OW17822   3.852   6.780   2.487  0.7952  0.1241  0.6565
 4764SOL    HW117823   3.819   6.704   2.534 -2.3977  0.2491 -1.1491
 4764SOL    HW217824   3.838   6.853   2.547 -0.2590 -0.1451  0.7570
 4765SOL     OW17825   2.552   6.000   7.892  0.6335  0.3230 -0.2223
 4765SOL    HW117826   2.564   5.916   7.848  2.7807 -0.0927  1.0320
 4765SOL    HW217827   2.637   6.021   7.929 -0.3829  1.9937  1.3747
 4766SOL     OW17828   0.230   9.719   7.172 -0.2737  0.1963 -0.3474
 4766SOL    HW117829   0.317   9.691   7.200 -0.0321  0.3895 -0.9033
 4766SOL    HW217830   0.216   9.676   7.088 -0.1504  1.2523 -0.9237
 4767SOL     OW17831   4.805   8.368   5.523  0.1949  0.1098  0.6030
 4767SOL    HW117832   4.864   8.310   5.570  1.2037  0.7822  0.2091
 4767SOL    HW217833   4.852   8.391   5.443 -1.0003 -0.0753 -0.1833
 4768SOL     OW17834   4.106  10.580   8.825 -0.1401  0.6130 -0.2004
 4768SOL    HW117835   4.096  10.665   8.866 -0.3889  0.5429 -0.1172
 4768SOL    HW217836   4.104  10.598   8.731  0.6120  0.7947 -0.1873
 4769SOL     OW17837  10.455   0.064   4.929  0.5703  1.1540  0.0307
 4769SOL    HW117838  10.364   0.084   4.949  0.1442  0.5093 -1.1423
 4769SOL    HW217839  10.454  -0.030   4.907  1.8472  0.6713  1.8092
 4770SOL     OW17840   3.274   2.665   2.277  0.1972  0.2164 -0.2517
 4770SOL    HW117841   3.266   2.570   2.264 -1.4522  0.5563 -2.3561
 4770SOL    HW217842   3.363   2.678   2.308 -0.1273 -2.1682  2.0959
 4771SOL     OW17843   4.133   4.633  10.139  0.1431 -0.2671  0.5585
 4771SOL    HW117844   4.131   4.582  10.058 -2.5879 -0.7592  0.8381
 4771SOL    HW217845   4.162   4.720  10.112  2.7389 -1.2766 -0.2888
 4772SOL     OW17846   1.902   7.678   8.407  0.4526 -0.0443 -0.4105
 4772SOL    HW117847   1.812   7.692   8.375 -0.0496 -1.0852  0.4736
 4772SOL    HW217848   1.957   7.730   8.347 -0.5573 -0.8869 -2.1536
 4773SOL     OW17849   2.873   0.342   9.969  0.0073  0.6537 -0.1511
 4773SOL    HW117850   2.852   0.256   9.934  2.0445  0.1773 -0.3284
 4773SOL    HW217851   2.812   0.354  10.042  0.1387 -1.2702  0.3268
 4774SOL     OW17852   2.618   9.466   5.222  0.3705 -0.1895 -0.6349
 4774SOL    HW117853   2.612   9.480   5.127  1.1359 -1.8592 -0.9677
 4774SOL    HW217854   2.637   9.553   5.258 -1.0065  0.6908 -1.8728
 4775SOL     OW17855   7.596   3.571   2.956 -0.3752 -0.5736 -0.6681
 4775SOL    HW117856   7.598   3.479   2.930  0.5485 -0.1914 -2.0386
 4775SOL    HW217857   7.504   3.596   2.947 -0.3604 -0.9252 -1.9640
 4776SOL     OW17858   5.631   3.281   5.390 -0.7102  0.1689  0.2367
 4776SOL    HW117859   5.705   3.327   5.350 -0.0730  2.2575  3.4672
 4776SOL    HW217860   5.640   3.191   5.359  2.6171  0.5469 -0.3114
 4777SOL     OW17861   2.190   3.300   2.187  0.0480 -0.1308  0.1016
 4777SOL    HW117862   2.192   3.239   2.261  0.4105  0.4767  0.6022
 4777SOL    HW217863   2.099   3.331   2.183 -0.0849 -0.5361 -0.0176
 4778SOL     OW17864   4.347   9.679   4.876  0.4304 -0.3028 -0.3310
 4778SOL    HW117865   4.343   9.598   4.927 -3.8524  0.7257  1.4022
 4778SOL    HW217866   4.354   9.748   4.942 -0.5269  0.8834 -1.4120
 4779SOL     OW17867   4.242   2.698   3.349  0.4303  0.2657  0.0643
 4779SOL    HW117868   4.173   2.701   3.283 -2.1472 -0.1878  2.5370
 4779SOL    HW217869   4.226   2.776   3.403  2.7570  0.8964 -0.0518
 4780SOL     OW17870   9.986   2.201   5.228  0.0790  0.1671  0.3094
 4780SOL    HW117871  10.059   2.167   5.177 -0.3269 -0.1614 -0.0665
 4780SOL    HW217872   9.930   2.244   5.163  1.0924  2.5545  0.8845
 4781SOL     OW17873   7.370   2.153   9.740  0.4012  0.3037 -0.0679
 4781SOL    HW117874   7.280   2.157   9.706  0.4884 -0.6176 -0.4405
 4781SOL    HW217875   7.401   2.067   9.714  2.0395  1.2783 -1.5609
 4782SOL     OW17876   7.263   9.196  10.633  0.6358  0.2888  0.5196
 4782SOL    HW117877   7.260   9.248  10.552  2.6710  0.4393  0.4867
 4782SOL    HW217878   7.191   9.230  10.686 -1.9521 -1.0125 -1.8705
 4783SOL     OW17879   6.256   8.116   3.469 -0.0948 -0.4590  0.3719
 4783SOL    HW117880   6.329   8.140   3.525  0.6302 -0.6757 -0.4479
 4783SOL    HW217881   6.285   8.138   3.380 -0.9277 -0.7752  0.0015
 4784SOL     OW17882   8.160   0.416   6.037 -0.7187 -0.0524 -0.2993
 4784SOL    HW117883   8.168   0.504   5.999 -1.1216 -0.0134 -0.2922
 4784SOL    HW217884   8.170   0.357   5.963  0.0541 -0.0173 -0.2331
 4785SOL     OW17885   6.980   9.851   8.406  0.4010  0.3492  0.7321
 4785SOL    HW117886   7.070   9.826   8.386  0.4360  0.4724  0.7372
 4785SOL    HW217887   6.960   9.805   8.487  0.3474  0.0581  0.5564
 4786SOL     OW17888  10.066  11.127   2.290 -0.1751 -0.0910 -0.1324
 4786SOL    HW117889  10.002  11.189   2.256  1.1100  0.8298 -0.9617
 4786SOL    HW217890  10.078  11.063   2.220  0.8650  0.5706 -0.5798
 4787SOL     OW17891   5.578   6.957   8.533 -0.2445 -0.2725  0.1376
 4787SOL    HW117892   5.594   6.952   8.439  0.4624  0.7269  0.1952
 4787SOL    HW217893   5.521   7.033   8.543  0.7396  0.4120  0.6392
 4788SOL     OW17894   4.072   9.973   2.861 -0.5074 -0.0453 -0.4884
 4788SOL    HW117895   4.060   9.903   2.797 -1.2699  0.0677 -0.4890
 4788SOL    HW217896   4.163  10.001   2.850  0.0249 -1.5112  0.0119
 4789SOL     OW17897   2.721   9.355   3.479 -0.1651 -0.4131 -0.4254
 4789SOL    HW117898   2.763   9.369   3.394 -0.0566 -0.5158 -0.3896
 4789SOL    HW217899   2.788   9.379   3.542  0.0780 -1.2289 -0.3607
 4790SOL     OW17900   5.337   4.506   6.199 -0.0572 -0.2185 -0.3189
 4790SOL    HW117901   5.255   4.477   6.239  0.4432 -0.6809  0.3768
 4790SOL    HW217902   5.337   4.601   6.210 -0.4840 -0.2218 -0.2901
 4791SOL     OW17903   9.724   3.292   7.397  0.0178  0.1126  0.3629
 4791SOL    HW117904   9.702   3.380   7.427  0.9579  0.9459 -1.2392
 4791SOL    HW217905   9.661   3.235   7.441 -0.0954  1.4717  2.0721
 4792SOL     OW17906  10.661   6.949   0.790  0.3253 -0.3494 -0.0367
 4792SOL    HW117907  10.659   6.854   0.799 -0.0572 -0.3486 -0.0770
 4792SOL    HW217908  10.723   6.965   0.719 -0.1897 -0.6187 -0.5588
 4793SOL     OW17909   9.957   7.700   8.674  0.6769 -0.2047 -0.4227
 4793SOL    HW117910   9.884   7.638   8.680  0.0708  0.3874 -1.3289
 4793SOL    HW217911   9.982   7.697   8.581  0.8058  0.7154 -0.4231
 4794SOL     OW17912   6.051   8.727  10.397 -0.0425 -0.2413 -0.5309
 4794SOL    HW117913   5.982   8.746  10.462 -0.2573  0.9685 -1.0793
 4794SOL    HW217914   6.124   8.695  10.449 -1.2228 -2.2033  0.0121
 4795SOL     OW17915   2.444   7.711   3.213  0.4106  0.2369  0.6798
 4795SOL    HW117916   2.511   7.763   3.258  1.2885  0.6552 -1.0516
 4795SOL    HW217917   2.474   7.705   3.123 -1.7636  0.1735 -0.0944
 4796SOL     OW17918   9.578   3.637   0.777 -0.1564  0.2006  0.1335
 4796SOL    HW117919   9.593   3.672   0.689  0.0340 -0.9410 -0.3104
 4796SOL    HW217920   9.537   3.709   0.825  0.6563  1.1774 -0.5901
 4797SOL     OW17921   3.177   6.512  10.328  0.0372  0.1847 -0.4191
 4797SOL    HW117922   3.162   6.419  10.338  0.3998  0.0780 -0.8037
 4797SOL    HW217923   3.243   6.518  10.258  0.0774  0.7200 -0.3414
 4798SOL     OW17924   4.865  11.104   1.401  0.4745 -0.2581  0.1867
 4798SOL    HW117925   4.945  11.101   1.349  0.8360 -4.1931  0.6950
 4798SOL    HW217926   4.872  11.186   1.451  3.3516  0.3266 -1.0004
 4799SOL     OW17927   8.104   1.699   9.009 -0.1869  0.2419 -0.3329
 4799SOL    HW117928   8.092   1.611   8.972  0.4599 -0.5365  1.1885
 4799SOL    HW217929   8.194   1.722   8.986  1.1229 -1.3204  2.6945
 4800SOL     OW17930   2.919  11.043   0.670  0.0003  0.0513  0.3603
 4800SOL    HW117931   2.842  11.004   0.712  0.3840 -1.8628 -0.5977
 4800SOL    HW217932   2.883  11.096   0.598 -0.4316 -0.7609 -0.0288
 4801SOL     OW17933   8.784   1.483   6.678  0.3072  0.2597  0.3700
 4801SOL    HW117934   8.845   1.409   6.681 -0.4489 -0.4361 -0.6871
 4801SOL    HW217935   8.832   1.552   6.632 -0.6486 -1.3095 -3.3461
 4802SOL     OW17936   5.574   1.114   3.275 -0.1083  0.3122  0.1029
 4802SOL    HW117937   5.522   1.112   3.195 -0.5482 -0.8202  0.4011
 4802SOL    HW217938   5.612   1.026   3.281  0.5785  0.6425  0.7136
 4803SOL     OW17939   3.742   7.358   4.208  0.1752 -0.4750 -0.3560
 4803SOL    HW117940   3.781   7.270   4.214 -0.6668 -0.7470  2.3660
 4803SOL    HW217941   3.815   7.418   4.224  0.6680 -0.6410 -1.8006
 4804SOL     OW17942   7.718   9.553   6.938 -0.1548 -0.6712 -0.0161
 4804SOL    HW117943   7.717   9.605   6.857 -0.3667 -2.8440 -1.4712
 4804SOL    HW217944   7.800   9.505   6.935 -0.4710 -1.2763  0.7346
 4805SOL     OW17945   4.178   9.785   3.945 -0.1023 -0.3509  0.8283
 4805SOL    HW117946   4.122   9.861   3.927  0.7614  0.4097  1.2266
 4805SOL    HW217947   4.174   9.775   4.040 -0.1589 -0.7592  0.7811
 4806SOL     OW17948   0.391   9.615   6.203 -0.0712  0.0950 -0.2325
 4806SOL    HW117949   0.334   9.548   6.165  0.3081 -0.3117 -0.1067
 4806SOL    HW217950   0.452   9.637   6.133  0.0268  0.0481 -0.1627
 4807SOL     OW17951   1.429   8.719   8.699  0.1935 -0.3729 -0.8764
 4807SOL    HW117952   1.453   8.805   8.667 -0.2113  0.1199  0.1153
 4807SOL    HW217953   1.416   8.730   8.793 -0.9855 -1.2574 -0.9045
 4808SOL     OW17954   7.855   3.744   1.133  0.2223 -0.2073  0.2940
 4808SOL    HW117955   7.918   3.777   1.069 -1.2141  1.7372 -0.2122
 4808SOL    HW217956   7.883   3.781   1.216 -0.3161  0.8478  0.0315
 4809SOL     OW17957   5.704   9.361   8.641  0.1195  0.3498 -0.1081
 4809SOL    HW117958   5.629   9.306   8.618  0.2538 -0.1894  0.7244
 4809SOL    HW217959   5.693   9.439   8.587 -1.0408  0.2783 -0.0039
 4810SOL     OW17960   2.736  10.370   8.360  0.0543  0.1535 -0.1130
 4810SOL    HW117961   2.687  10.378   8.278 -1.4056  0.5472  0.7570
 4810SOL    HW217962   2.812  10.316   8.337 -0.8370 -0.5794 -1.5024
 4811SOL     OW17963   0.602   2.517   1.989 -0.3594 -0.0165 -0.4192
 4811SOL    HW117964   0.566   2.429   2.004 -0.4114  0.0508 -0.1432
 4811SOL    HW217965   0.569   2.569   2.062 -0.5161  0.2904 -0.7074
 4812SOL     OW17966   2.997   5.047   2.980 -0.1769 -0.3655  0.3472
 4812SOL    HW117967   2.931   5.093   3.033  0.3302 -0.3482  0.9770
 4812SOL    HW217968   2.948   4.980   2.933 -1.1045  1.3707 -1.3056
 4813SOL     OW17969   0.385   9.405   9.642  0.1221  0.5024  0.0850
 4813SOL    HW117970   0.480   9.410   9.653  0.1000 -1.6740  2.3594
 4813SOL    HW217971   0.349   9.448   9.719 -0.6002 -1.0540  0.6773
 4814SOL     OW17972   7.714   8.399   9.187 -0.0196  0.0869  0.0647
 4814SOL    HW117973   7.696   8.359   9.102  1.4624 -2.6567  0.9447
 4814SOL    HW217974   7.759   8.481   9.165  0.7955 -0.8026 -1.8245
 4815SOL     OW17975   1.098   7.804  10.346 -0.0682  0.7458  0.5729
 4815SOL    HW117976   1.112   7.896  10.366 -1.5805  1.2353 -0.4852
 4815SOL    HW217977   1.052   7.804  10.262 -2.4353 -0.8486  1.7571
 4816SOL     OW17978   5.132   2.081   1.847 -0.4188 -0.6190  0.2792
 4816SOL    HW117979   5.071   2.155   1.845 -0.8462 -0.9582 -1.4130
 4816SOL    HW217980   5.127   2.047   1.936 -0.8793  0.8413  0.8293
 4817SOL     OW17981   4.962   3.324   4.831 -0.3506 -0.3740  0.5035
 4817SOL    HW117982   4.869   3.303   4.825 -0.2909 -0.3603 -0.6034
 4817SOL    HW217983   4.964   3.413   4.866 -0.8919  0.7951 -2.1680
 4818SOL     OW17984   1.981   0.800   6.273 -0.6065  0.6758 -0.4091
 4818SOL    HW117985   1.992   0.842   6.188  1.8147  1.3840  0.1777
 4818SOL    HW217986   2.024   0.715   6.263 -0.1243  0.8509  0.1709
 4819SOL     OW17987   9.340   5.848   4.549 -0.2181 -0.4065 -0.0327
 4819SOL    HW117988   9.414   5.902   4.520 -0.8823  0.7346  0.3254
 4819SOL    HW217989   9.369   5.758   4.535  1.1941  0.0175 -0.0096
 4820SOL     OW17990   2.315   8.066   7.145 -0.2033 -0.2884 -0.2583
 4820SOL    HW117991   2.385   8.057   7.079  1.2614  2.2700  0.7922
 4820SOL    HW217992   2.361   8.091   7.225 -2.1204 -1.4309  1.2846
 4821SOL     OW17993   6.074   0.737  10.858 -0.3313 -0.1631  0.1001
 4821SOL    HW117994   6.155   0.691  10.880 -0.4229 -0.5609 -0.3714
 4821SOL    HW217995   6.101   0.824  10.831  0.0912 -0.7397 -1.4711
 4822SOL     OW17996   1.560   9.354   0.816  0.1766 -0.0448 -0.0974
 4822SOL    HW117997   1.619   9.378   0.744 -0.7734  0.1012 -0.8439
 4822SOL    HW217998   1.488   9.307   0.773 -0.2494 -0.2291  0.8024
 4823SOL     OW17999   8.092   9.596   1.722  0.3758 -0.1338  0.2605
 4823SOL    HW118000   8.010   9.642   1.704 -0.4267 -1.9420 -1.0244
 4823SOL    HW218001   8.066   9.524   1.780  1.6281  1.0336  2.3974
 4824SOL     OW18002   6.424   6.767   3.898  0.3223 -0.5053 -0.2357
 4824SOL    HW118003   6.402   6.756   3.805 -0.9729 -0.3967  0.0396
 4824SOL    HW218004   6.382   6.694   3.942 -0.2741  0.2243  0.4349
 4825SOL     OW18005   6.715   8.383  10.221 -0.0614  0.4230  0.9795
 4825SOL    HW118006   6.811   8.385  10.217 -0.0350 -0.7474  0.7096
 4825SOL    HW218007   6.691   8.468  10.256  0.8891  2.2682 -2.3883
 4826SOL     OW18008   0.004   4.706   6.633  0.6005  0.4802 -0.1480
 4826SOL    HW118009   0.054   4.778   6.593 -1.1462  1.4553 -0.6739
 4826SOL    HW218010  -0.001   4.731   6.726  0.9030  0.4768 -0.1270
 4827SOL     OW18011   1.953   3.137   4.268  0.0914 -0.6064  0.0864
 4827SOL    HW118012   1.903   3.123   4.349  0.6667  0.3359  0.6150
 4827SOL    HW218013   2.024   3.073   4.273  1.0731  0.5145  1.1321
 4828SOL     OW18014  10.285   7.848   0.047 -0.2945 -0.4022 -0.1880
 4828SOL    HW118015  10.348   7.920   0.035 -1.4192  0.7044  0.3233
 4828SOL    HW218016  10.209   7.889   0.089 -1.7351 -1.5100 -1.5774
 4829SOL     OW18017   5.323   3.902   1.670  0.6254 -0.5372  0.0647
 4829SOL    HW118018   5.417   3.888   1.658  0.6923 -0.7944  0.8563
 4829SOL    HW218019   5.289   3.916   1.581  1.2977 -1.1212 -0.2889
 4830SOL     OW18020  10.602   8.920   0.360  0.1152  0.1325  0.2027
 4830SOL    HW118021  10.643   8.923   0.273 -0.2408 -0.2138  0.0209
 4830SOL    HW218022  10.625   8.834   0.394  0.0528  0.1755  0.3549
 4831SOL     OW18023   6.419   4.635   1.960 -0.0503  0.0556 -0.1197
 4831SOL    HW118024   6.482   4.632   2.032 -0.9468  1.8714  0.8250
 4831SOL    HW218025   6.417   4.728   1.934  0.0234 -0.5060 -2.3157
 4832SOL     OW18026   5.260   1.758   7.071  0.0610 -0.4952 -0.1951
 4832SOL    HW118027   5.346   1.764   7.028 -0.2489  0.8795 -0.6738
 4832SOL    HW218028   5.250   1.665   7.091  1.1033 -0.8698 -1.2871
 4833SOL     OW18029   2.816   4.631   5.239 -0.3981  0.5243  0.2001
 4833SOL    HW118030   2.854   4.560   5.187 -0.5679  0.2143  0.4902
 4833SOL    HW218031   2.891   4.678   5.275 -0.2763 -0.2698  1.0220
 4834SOL     OW18032   1.305   7.301   1.709 -0.4627 -0.2534 -0.0301
 4834SOL    HW118033   1.360   7.254   1.646  1.8931  1.2511  0.7618
 4834SOL    HW218034   1.325   7.260   1.793 -1.2775 -0.2767  0.1618
 4835SOL     OW18035   0.131   2.254   5.057 -0.0251 -0.5611  1.0928
 4835SOL    HW118036   0.177   2.326   5.014  2.6560 -1.5061  2.1229
 4835SOL    HW218037   0.063   2.228   4.995  0.5559  1.2385 -0.3804
 4836SOL     OW18038   7.052   5.526   0.819  0.8046 -0.3827  0.3856
 4836SOL    HW118039   7.009   5.553   0.900 -0.6700  0.4494 -0.6160
 4836SOL    HW218040   7.063   5.431   0.828 -0.6549 -0.5221  0.9875
 4837SOL     OW18041   0.276   0.974   3.630  0.0863 -0.1478  0.2693
 4837SOL    HW118042   0.221   1.014   3.563 -0.8378 -0.1311  1.0306
 4837SOL    HW218043   0.310   0.894   3.588 -0.0192  0.1527 -0.4056
 4838SOL     OW18044   6.963   1.807   8.059  0.4442  0.3242 -0.4392
 4838SOL    HW118045   7.011   1.890   8.061  1.3359 -0.1793 -0.0875
 4838SOL    HW218046   6.928   1.798   8.148  1.2499 -0.1647 -0.1540
 4839SOL     OW18047   0.499   5.656   7.132 -0.2103 -0.1173  0.2954
 4839SOL    HW118048   0.492   5.668   7.227  1.6992 -1.4401  0.6612
 4839SOL    HW218049   0.516   5.562   7.121 -0.9345 -0.0848 -1.4097
 4840SOL     OW18050   3.981   2.573   9.863 -0.3382 -0.2873 -0.3461
 4840SOL    HW118051   3.990   2.667   9.851 -2.0243 -0.0346  0.0132
 4840SOL    HW218052   3.997   2.536   9.776  2.2183  0.1021 -0.1212
 4841SOL     OW18053  10.981   1.205   8.523  0.0160 -0.6192  0.3153
 4841SOL    HW118054  10.952   1.266   8.455 -0.7199 -1.5018 -0.1716
 4841SOL    HW218055  10.949   1.120   8.495 -1.1467 -0.8796  2.2457
 4842SOL     OW18056   5.437   5.598   8.684  0.2730 -0.3039  0.0345
 4842SOL    HW118057   5.445   5.523   8.624 -0.4893 -0.3693  0.0103
 4842SOL    HW218058   5.385   5.565   8.757  3.5995 -1.1608  2.2800
 4843SOL     OW18059   9.722   0.017   7.684 -0.2608 -0.1995 -0.3181
 4843SOL    HW118060   9.725   0.016   7.588 -0.9947 -0.1292 -0.3475
 4843SOL    HW218061   9.767   0.098   7.708 -2.4059  1.1720 -0.7282
 4844SOL     OW18062  10.827  10.218   1.964  0.1084  0.0370 -0.6074
 4844SOL    HW118063  10.873  10.298   1.938 -0.1811  0.4678  0.1618
 4844SOL    HW218064  10.882  10.180   2.033 -0.5168  0.3944  0.1037
 4845SOL     OW18065   0.164   7.046   9.637 -0.7268  0.5496 -0.4149
 4845SOL    HW118066   0.185   7.072   9.548 -0.3941 -0.3800 -0.6202
 4845SOL    HW218067   0.199   6.957   9.645 -1.1464  0.4538  0.4952
 4846SOL     OW18068   7.947  10.540   7.658 -0.2309  0.2979 -0.0544
 4846SOL    HW118069   7.918  10.450   7.668 -0.9704  0.4822 -0.4237
 4846SOL    HW218070   7.875  10.583   7.611  0.3020  0.9703 -0.2748
 4847SOL     OW18071  10.995   9.057   8.682  0.3197  0.0920 -0.1293
 4847SOL    HW118072  11.077   9.096   8.709  1.3121 -0.4817 -2.1149
 4847SOL    HW218073  10.956   9.023   8.763  1.4757  1.3562  0.9893
 4848SOL     OW18074   5.391  10.228   6.301 -0.3554  0.3654  0.2809
 4848SOL    HW118075   5.469  10.201   6.349 -0.3307 -1.4423 -0.6797
 4848SOL    HW218076   5.380  10.321   6.323  1.3912  0.3722  1.3254
 4849SOL     OW18077   9.492   2.577   6.696  0.4855  0.7139 -0.4894
 4849SOL    HW118078   9.497   2.647   6.630 -1.3822  0.1882 -1.2491
 4849SOL    HW218079   9.432   2.611   6.762 -0.4585 -0.1688 -0.8799
 4850SOL     OW18080   0.668   4.000   3.622  0.4433  0.2832  0.0575
 4850SOL    HW118081   0.643   4.088   3.649  0.0500  0.0774  0.3704
 4850SOL    HW218082   0.636   3.992   3.532 -1.8733 -0.4531  0.8912
 4851SOL     OW18083   8.157   6.577   2.651 -0.2253 -0.3604  0.2584
 4851SOL    HW118084   8.227   6.642   2.654 -0.9003  0.3606  0.7730
 4851SOL    HW218085   8.165   6.537   2.564 -0.2554  0.9277 -0.3629
 4852SOL     OW18086   6.645   7.377  10.569  0.0068  0.4046 -0.4244
 4852SOL    HW118087   6.646   7.286  10.537 -0.8833  1.0032 -2.3287
 4852SOL    HW218088   6.552   7.399  10.573  0.2407  1.9277 -2.1989
 4853SOL     OW18089   7.881  10.297   9.874 -0.1435 -0.3351  0.8659
 4853SOL    HW118090   7.901  10.259   9.960 -1.3365  0.5348  1.5412
 4853SOL    HW218091   7.965  10.295   9.828  1.0428  1.0867  2.7976
 4854SOL     OW18092   4.368   0.394   5.230 -0.1784  0.3047 -0.2839
 4854SOL    HW118093   4.451   0.404   5.275 -0.1407  2.0466 -0.6859
 4854SOL    HW218094   4.372   0.306   5.192  0.6343 -0.4047  1.3191
 4855SOL     OW18095   2.073   1.500   8.694 -0.2592  0.0155  0.2678
 4855SOL    HW118096   2.025   1.426   8.656 -1.6619  1.8744 -1.8344
 4855SOL    HW218097   2.149   1.511   8.637  0.9473 -0.8211  1.6293
 4856SOL     OW18098   0.728   1.676   9.722  0.3791 -0.5827 -0.2221
 4856SOL    HW118099   0.651   1.715   9.763 -0.8573 -2.4013 -0.7047
 4856SOL    HW218100   0.788   1.660   9.795  0.1407  0.4544  0.2222
 4857SOL     OW18101   4.306   9.211   4.581  0.0748 -0.2311 -0.4986
 4857SOL    HW118102   4.348   9.261   4.651  1.9114 -2.2361 -0.0372
 4857SOL    HW218103   4.317   9.265   4.502 -0.5078  1.2946  0.4311
 4858SOL     OW18104   4.606   0.033   0.115  0.3892  0.1282  0.3348
 4858SOL    HW118105   4.527   0.070   0.154  0.5777 -0.1364  0.9857
 4858SOL    HW218106   4.664   0.015   0.190  0.3257 -1.4357  0.0515
 4859SOL     OW18107   9.745   8.594   8.142 -0.1922  0.4477  0.5738
 4859SOL    HW118108   9.741   8.642   8.225 -1.4754  0.4124  0.5534
 4859SOL    HW218109   9.831   8.617   8.105 -0.2346  1.6687  1.1909
 4860SOL     OW18110   8.892   4.665   1.322  0.1615 -0.2079  0.4558
 4860SOL    HW118111   8.884   4.758   1.341  0.8395 -0.0426 -0.0349
 4860SOL    HW218112   8.883   4.622   1.407  0.2348  0.3294  0.7362
 4861SOL     OW18113   8.675   0.529   6.081  0.0490  0.4947  0.2789
 4861SOL    HW118114   8.660   0.443   6.121 -1.2569  0.3475 -0.4790
 4861SOL    HW218115   8.766   0.549   6.102  0.9286 -1.8508 -0.9106
 4862SOL     OW18116   9.819   7.556  11.058 -0.6803 -0.7285  0.5672
 4862SOL    HW118117   9.881   7.543  10.987  1.2113  0.0107  2.0009
 4862SOL    HW218118   9.840   7.488  11.122 -1.6126 -0.7072  0.9126
 4863SOL     OW18119   0.183   4.177   7.326 -0.4040 -0.3693  0.0401
 4863SOL    HW118120   0.206   4.216   7.410  0.5665 -1.7585  0.4450
 4863SOL    HW218121   0.186   4.250   7.264  3.1386 -0.0251  0.4485
 4864SOL     OW18122  10.356   8.984  10.963 -0.1121  0.1032  0.0931
 4864SOL    HW118123  10.299   8.986  10.885  0.3447  1.5924 -0.2321
 4864SOL    HW218124  10.437   9.024  10.934  0.9579 -1.5107  0.7133
 4865SOL     OW18125   4.808   9.753  10.396  0.2839  0.1024  0.5371
 4865SOL    HW118126   4.779   9.775  10.484  0.8468  2.5448  0.2045
 4865SOL    HW218127   4.894   9.795  10.388  0.1607  0.1008 -1.2335
 4866SOL     OW18128   4.716   0.608  10.485  0.0837  0.2361 -0.1388
 4866SOL    HW118129   4.767   0.689  10.475 -0.3348  0.5098 -0.0745
 4866SOL    HW218130   4.731   0.560  10.404  0.0412  0.5426 -0.3277
 4867SOL     OW18131   6.476   3.344   6.306  0.0419  0.3627 -0.2882
 4867SOL    HW118132   6.409   3.410   6.326  0.7547  1.0545 -0.1038
 4867SOL    HW218133   6.530   3.341   6.385  0.4587  0.1090 -0.5791
 4868SOL     OW18134   5.710   4.652   8.266  0.5006  0.3681  0.3323
 4868SOL    HW118135   5.704   4.657   8.361  1.0828  0.1352  0.3814
 4868SOL    HW218136   5.804   4.648   8.247  0.3618 -1.0773 -0.1743
 4869SOL     OW18137   8.291   0.655  10.827  0.0198 -0.0425 -0.2901
 4869SOL    HW118138   8.347   0.733  10.828  0.4794 -0.3665 -0.2848
 4869SOL    HW218139   8.344   0.588  10.871 -0.6557 -0.1586  0.3571
 4870SOL     OW18140   4.332   0.483   1.597 -0.0706  0.0704  0.1877
 4870SOL    HW118141   4.280   0.511   1.672  0.1531 -0.0555  0.3922
 4870SOL    HW218142   4.336   0.560   1.540 -1.4400 -0.2603 -0.3803
 4871SOL     OW18143   4.468   0.740   3.254 -0.0503 -0.3857  0.0072
 4871SOL    HW118144   4.485   0.671   3.318 -2.2575 -0.6917  0.3319
 4871SOL    HW218145   4.470   0.696   3.169  0.7082 -0.4004  0.0253
 4872SOL     OW18146   1.355   6.763   1.346  0.2138 -0.0536  0.1362
 4872SOL    HW118147   1.260   6.763   1.345  0.2015  1.0491  0.5413
 4872SOL    HW218148   1.380   6.750   1.254 -0.3113 -0.2252  0.0129
 4873SOL     OW18149  11.118   4.374   2.674 -0.2202 -0.2063  0.2454
 4873SOL    HW118150  11.127   4.315   2.600  1.3812 -0.0115  0.2517
 4873SOL    HW218151  11.207   4.385   2.708 -0.6749  1.0619  1.1343
 4874SOL     OW18152   0.985   6.064   4.893 -0.3483 -0.3427 -0.1161
 4874SOL    HW118153   1.013   5.992   4.949  0.4365  0.3297  0.3893
 4874SOL    HW218154   0.985   6.028   4.804  1.2062 -0.6547 -0.0167
 4875SOL     OW18155  10.517   7.831   3.614 -0.0270 -0.1316 -0.0851
 4875SOL    HW118156  10.559   7.808   3.697 -0.2317 -1.7528 -0.4099
 4875SOL    HW218157  10.423   7.827   3.633 -0.0710 -0.0834 -0.2984
 4876SOL     OW18158   1.211   4.963  11.068  0.2779  0.1861  0.4081
 4876SOL    HW118159   1.252   4.976  10.982 -0.2632 -0.2020  0.0837
 4876SOL    HW218160   1.192   4.869  11.072 -0.2861  0.3072  0.6811
 4877SOL     OW18161  10.412   1.002   4.857  0.7175 -0.0737  0.3220
 4877SOL    HW118162  10.380   0.917   4.828 -0.4152 -0.2225  1.8566
 4877SOL    HW218163  10.507   0.995   4.852  0.6183 -0.6107 -1.6977
 4878SOL     OW18164   2.235   2.679   4.343  0.6262  0.1836 -0.3343
 4878SOL    HW118165   2.144   2.668   4.371  1.1379  3.2141  3.4883
 4878SOL    HW218166   2.284   2.617   4.396  1.1744  2.9369  2.7461
 4879SOL     OW18167   2.782   5.572   7.627  0.1408  0.6877  0.4133
 4879SOL    HW118168   2.835   5.610   7.557 -1.3513  1.3921 -0.3840
 4879SOL    HW218169   2.755   5.487   7.593  0.7660  0.3143  0.8334
 4880SOL     OW18170   4.117   0.075   4.331 -0.4858 -0.0572  1.0093
 4880SOL    HW118171   4.056   0.017   4.286 -0.1566  0.3360  0.0302
 4880SOL    HW218172   4.074   0.095   4.414 -2.1132  0.9248 -0.0193
 4881SOL     OW18173  10.959   4.237   0.430  0.7890  0.0019  0.2666
 4881SOL    HW118174  11.019   4.242   0.356 -0.1972 -0.1052 -0.5585
 4881SOL    HW218175  10.929   4.146   0.430 -1.9632  0.7920 -1.4753
 4882SOL     OW18176   1.675  10.906  10.677  0.2327 -0.2093  0.1672
 4882SOL    HW118177   1.618  10.850  10.624 -1.5056  3.1342 -1.8644
 4882SOL    HW218178   1.630  10.912  10.762 -1.9460  1.3665 -1.0021
 4883SOL     OW18179   9.880   4.278   4.141  0.1869 -0.1890  0.5554
 4883SOL    HW118180   9.912   4.208   4.085 -1.7009  0.1074 -1.0067
 4883SOL    HW218181   9.823   4.234   4.204 -1.0340 -0.1138 -0.4527
 4884SOL     OW18182   7.717   0.015   8.921  0.0376  0.1882  0.1329
 4884SOL    HW118183   7.659  -0.058   8.898  1.6113 -0.4660 -2.1449
 4884SOL    HW218184   7.788  -0.026   8.970 -0.6331  0.7528  1.6340
 4885SOL     OW18185   9.582   6.834   5.167  0.1436  0.1289 -0.4176
 4885SOL    HW118186   9.498   6.795   5.191 -0.2775 -0.6449 -2.8878
 4885SOL    HW218187   9.587   6.825   5.072  1.8973  2.4731 -0.6459
 4886SOL     OW18188   4.674   8.471   2.905 -0.7454  0.4075  0.1899
 4886SOL    HW118189   4.640   8.493   2.992 -3.4216  0.6926 -0.8568
 4886SOL    HW218190   4.633   8.387   2.884 -1.3160  1.0558 -1.3802
 4887SOL     OW18191   6.711   9.420   7.414  0.5436  0.0626 -0.2891
 4887SOL    HW118192   6.765   9.422   7.493 -0.0392  1.3670  0.1059
 4887SOL    HW218193   6.706   9.327   7.390 -0.5089 -0.5522  2.0724
 4888SOL     OW18194  10.776   5.785  10.998  0.0980  0.4935 -0.3065
 4888SOL    HW118195  10.830   5.726  10.944 -4.4579 -4.2646 -0.5044
 4888SOL    HW218196  10.791   5.756  11.088 -2.6628 -1.9272 -0.4516
 4889SOL     OW18197   3.966   4.648   0.641  0.2800  0.1938  0.2189
 4889SOL    HW118198   3.931   4.562   0.616  1.2550 -0.8182  2.1458
 4889SOL    HW218199   3.891   4.694   0.679 -0.1566  0.0804 -0.4765
 4890SOL     OW18200   5.409   5.046   8.851 -0.1455 -0.4911  0.6932
 4890SOL    HW118201   5.331   5.025   8.800  0.7469  0.3955 -1.1060
 4890SOL    HW218202   5.407   5.142   8.858  0.8176 -0.4561  0.5607
 4891SOL     OW18203   6.796   5.285  10.595  0.1553  0.7573 -0.3141
 4891SOL    HW118204   6.797   5.241  10.510 -2.7287 -0.8815  0.3351
 4891SOL    HW218205   6.729   5.353  10.586  1.6013  2.2739 -0.0362
 4892SOL     OW18206   6.106   3.014   1.998 -0.1085 -0.2104 -0.5684
 4892SOL    HW118207   6.163   2.940   1.979  0.3337 -0.4622  1.5271
 4892SOL    HW218208   6.121   3.075   1.926  0.7658 -1.4303 -1.4607
 4893SOL     OW18209  10.822   9.153   3.391 -0.0853  0.2829  0.0958
 4893SOL    HW118210  10.764   9.162   3.466  1.0103 -0.5375  1.0943
 4893SOL    HW218211  10.810   9.063   3.361  0.1670  0.3137 -0.1098
 4894SOL     OW18212   2.310   7.033   9.206 -0.5226  0.0168  0.8450
 4894SOL    HW118213   2.319   7.100   9.273  0.7048 -0.3933  1.1036
 4894SOL    HW218214   2.232   7.059   9.157 -0.8887  0.8370  1.8269
 4895SOL     OW18215   9.772   9.324   0.815 -0.3532 -0.2043  0.0742
 4895SOL    HW118216   9.744   9.415   0.825 -2.5010 -0.8292  0.2916
 4895SOL    HW218217   9.865   9.326   0.834 -0.5379  1.7895  1.1377
 4896SOL     OW18218   1.165   9.183   7.531  0.3232 -0.0039 -0.0867
 4896SOL    HW118219   1.238   9.126   7.509  0.3387 -0.4217  0.9960
 4896SOL    HW218220   1.112   9.133   7.593 -1.9791 -0.4786 -2.2989
 4897SOL     OW18221   6.810   2.395   7.023  0.2664  0.1332 -0.7219
 4897SOL    HW118222   6.870   2.329   6.988  0.7480  1.0821 -1.7379
 4897SOL    HW218223   6.779   2.358   7.106  0.9549 -1.1096 -0.9991
 4898SOL     OW18224   6.154   1.279   1.803 -0.7016 -0.4980  0.2789
 4898SOL    HW118225   6.072   1.307   1.844 -0.0438  0.1527  1.1949
 4898SOL    HW218226   6.206   1.359   1.796 -1.2248 -0.3460 -2.9930
 4899SOL     OW18227   8.712   4.702   2.011 -0.1296  0.3615  0.7865
 4899SOL    HW118228   8.794   4.747   2.031  1.6654 -1.8246 -1.1945
 4899SOL    HW218229   8.646   4.772   2.015  1.5950  2.0486  3.2580
 4900SOL     OW18230   3.701  10.984   3.884 -0.0381 -0.4316  0.6759
 4900SOL    HW118231   3.634  11.014   3.823 -0.4557 -3.0177 -0.2566
 4900SOL    HW218232   3.784  10.998   3.839 -0.3110 -1.8356 -0.3181
 4901SOL     OW18233   2.472  10.671   9.069  0.0939 -0.1419  0.3527
 4901SOL    HW118234   2.465  10.636   8.981  0.7349  0.0310  0.2239
 4901SOL    HW218235   2.420  10.751   9.068  0.9947  0.4509 -0.1946
 4902SOL     OW18236  10.395   8.319   2.806 -0.3665 -0.0997 -0.0530
 4902SOL    HW118237  10.333   8.329   2.879  0.8980 -1.0894  1.1957
 4902SOL    HW218238  10.481   8.314   2.847  0.7514  2.3207 -1.8044
 4903SOL     OW18239   9.214   7.168   2.781 -0.3155 -0.4325 -0.3369
 4903SOL    HW118240   9.308   7.185   2.778 -0.0129 -1.7253  0.9177
 4903SOL    HW218241   9.199   7.102   2.714 -0.2681 -0.4717 -0.3088
 4904SOL     OW18242   6.652   6.496  11.052  0.2099  0.2297 -0.4161
 4904SOL    HW118243   6.689   6.431  10.992 -0.1167 -1.5419  1.1988
 4904SOL    HW218244   6.561   6.467  11.065  0.0115  1.0911  0.2402
 4905SOL     OW18245   4.714   6.774   3.179 -0.7248 -0.7373  0.2300
 4905SOL    HW118246   4.755   6.698   3.221  0.2586 -0.5338 -0.3426
 4905SOL    HW218247   4.711   6.750   3.086 -2.8013 -1.1513  0.3596
 4906SOL     OW18248   4.730   5.906   1.362  0.3872  0.0833  0.0858
 4906SOL    HW118249   4.738   5.838   1.295  0.0634  0.5468 -0.4242
 4906SOL    HW218250   4.817   5.908   1.403  0.5024 -0.4014 -0.1169
 4907SOL     OW18251  11.051   5.502   0.276  0.2110  0.3092  0.5645
 4907SOL    HW118252  11.010   5.415   0.276  1.3789 -0.2645  0.4609
 4907SOL    HW218253  11.028   5.539   0.361  1.0653 -0.7796  1.2988
 4908SOL     OW18254   6.923   1.216   3.638  0.4328 -0.1809 -0.3355
 4908SOL    HW118255   6.920   1.294   3.694 -2.1347  0.7200 -1.5382
 4908SOL    HW218256   6.949   1.145   3.696 -2.6567  0.5685  2.2658
 4909SOL     OW18257   2.267   7.903   6.659  0.0070  0.2820 -0.4385
 4909SOL    HW118258   2.346   7.947   6.627  0.5967 -0.9755 -0.7847
 4909SOL    HW218259   2.215   7.973   6.699  1.9630  0.9147  1.1721
 4910SOL     OW18260   8.016   6.391   5.717  0.6924  0.2259  0.2134
 4910SOL    HW118261   8.088   6.411   5.658  2.0220 -0.0877  1.6759
 4910SOL    HW218262   7.953   6.463   5.703  1.3320  0.5855 -0.9662
 4911SOL     OW18263   6.425   1.612   2.998  0.3160 -0.1991 -0.1387
 4911SOL    HW118264   6.349   1.558   3.019 -0.3354  1.2130  1.3190
 4911SOL    HW218265   6.388   1.692   2.961  1.2526 -0.6078 -2.0452
 4912SOL     OW18266   4.037  10.840   9.519 -0.2432  0.0567 -0.3675
 4912SOL    HW118267   4.130  10.854   9.498 -0.0150 -1.7064 -0.6909
 4912SOL    HW218268   4.032  10.748   9.546 -1.9070  0.1145 -0.3906
 4913SOL     OW18269   5.080   0.738   3.644  0.0913  0.1272  0.0244
 4913SOL    HW118270   5.088   0.688   3.563  0.1336 -0.0162  0.1161
 4913SOL    HW218271   5.000   0.790   3.633  0.3241  0.4294 -0.2844
 4914SOL     OW18272  11.004   8.756   0.831 -0.4022 -0.0348  0.6906
 4914SOL    HW118273  10.990   8.671   0.790 -0.3581  0.7441 -1.0166
 4914SOL    HW218274  11.092   8.782   0.803 -0.6047  0.7943  0.8115
 4915SOL     OW18275   5.507  10.348  10.937  0.3546 -0.1433  0.1796
 4915SOL    HW118276   5.504  10.343  10.842  1.1926  0.2056  0.1206
 4915SOL    HW218277   5.440  10.412  10.960  0.7712  0.4688 -0.2555
 4916SOL     OW18278   7.464   4.683   9.783  0.3488  0.1420  0.0601
 4916SOL    HW118279   7.386   4.628   9.787  0.2312  0.3445  0.6794
 4916SOL    HW218280   7.444   4.749   9.718 -0.3069  0.6521  0.7665
 4917SOL     OW18281   6.898   4.499   4.297  0.5641 -0.1649 -0.2301
 4917SOL    HW118282   6.948   4.514   4.216  1.3911  1.0245  0.4732
 4917SOL    HW218283   6.834   4.570   4.299  0.0134 -0.6615 -0.2427
 4918SOL     OW18284   8.211   8.042   7.511 -0.2520 -0.1244 -0.3598
 4918SOL    HW118285   8.151   8.102   7.556  1.2519  1.3102 -0.1720
 4918SOL    HW218286   8.278   8.020   7.576 -0.8509 -2.2042 -0.3716
 4919SOL     OW18287   2.026   9.725   9.990 -0.6181 -0.1179 -0.0936
 4919SOL    HW118288   1.961   9.794   9.974 -1.0527 -0.4087  0.4125
 4919SOL    HW218289   2.031   9.678   9.907 -0.4536  0.4005 -0.3887
 4920SOL     OW18290   7.275  10.856   5.908  1.0205  0.1829  0.4243
 4920SOL    HW118291   7.293  10.867   6.001  0.0193  0.7538  0.5656
 4920SOL    HW218292   7.258  10.763   5.898  0.1264  0.2736  1.0063
 4921SOL     OW18293   5.544   7.558   6.031  0.2882 -0.2384  0.1334
 4921SOL    HW118294   5.467   7.517   5.992  0.0011  1.1206 -0.7778
 4921SOL    HW218295   5.535   7.651   6.012  2.4368 -0.0975 -0.5230
 4922SOL     OW18296   2.913   5.377   5.722  0.2420 -0.2147 -0.1146
 4922SOL    HW118297   2.991   5.396   5.775 -0.8928  2.2073  0.8637
 4922SOL    HW218298   2.943   5.390   5.632  0.5908  2.8268  0.3209
 4923SOL     OW18299   4.257   2.148   9.374  0.1670 -0.0486  0.1248
 4923SOL    HW118300   4.167   2.130   9.346 -0.6116  0.6428  2.0287
 4923SOL    HW218301   4.256   2.240   9.400  1.4753  0.0098  0.0344
 4924SOL     OW18302   5.605  10.138   7.063 -0.5150  0.0017 -0.4536
 4924SOL    HW118303   5.685  10.100   7.101 -0.4421  1.6506  1.1906
 4924SOL    HW218304   5.541  10.066   7.066  0.1828 -0.6065  0.6432
 4925SOL     OW18305   9.996   8.122   8.645  0.4187 -0.1311  0.2382
 4925SOL    HW118306   9.999   8.168   8.561  1.5688  1.1894  0.9500
 4925SOL    HW218307   9.904   8.124   8.671  0.1771  0.1285 -0.6283
 4926SOL     OW18308   4.706   0.492   7.326  0.3152  0.3003 -0.0432
 4926SOL    HW118309   4.753   0.554   7.382  1.7991  0.8364 -1.7770
 4926SOL    HW218310   4.774   0.450   7.274 -0.8550 -1.3942 -0.2694
 4927SOL     OW18311  11.081   3.404   0.225 -0.5741 -0.5617 -0.2539
 4927SOL    HW118312  11.039   3.444   0.148  0.9840 -0.1217 -0.9126
 4927SOL    HW218313  11.144   3.343   0.188  2.0446  1.4936  0.5273
 4928SOL     OW18314   3.002   6.109   9.767 -0.3287  0.0954  0.3073
 4928SOL    HW118315   2.985   6.044   9.834 -0.2017 -0.0939  0.1555
 4928SOL    HW218316   2.915   6.129   9.731 -0.2437 -0.9571 -0.5448
 4929SOL     OW18317   1.006   0.184   0.237  0.8738  0.8041  0.2945
 4929SOL    HW118318   0.980   0.170   0.146  1.3873 -0.8202  0.3612
 4929SOL    HW218319   0.949   0.124   0.287  0.0755  2.2185  1.1412
 4930SOL     OW18320   0.187   5.972   6.105 -0.2769  0.1974  0.6350
 4930SOL    HW118321   0.275   5.942   6.080 -0.4690  0.1822 -0.0471
 4930SOL    HW218322   0.127   5.914   6.058 -0.6629  0.0482  1.2936
 4931SOL     OW18323   0.191   3.664   0.017 -0.1858  0.7634 -0.1053
 4931SOL    HW118324   0.188   3.757   0.041 -0.3747  0.5232  0.8172
 4931SOL    HW218325   0.129   3.656  -0.055  2.0853  1.9514 -2.3499
 4932SOL     OW18326   1.977   3.424   0.074  0.2810  0.5153  0.1514
 4932SOL    HW118327   2.032   3.349   0.096 -0.6509 -0.4075 -0.6061
 4932SOL    HW218328   1.900   3.387   0.031 -0.4954  1.8553  0.3178
 4933SOL     OW18329   3.780   6.840   5.149 -0.3800  0.1909 -0.1129
 4933SOL    HW118330   3.741   6.825   5.062  0.0805 -0.1166 -0.2703
 4933SOL    HW218331   3.811   6.930   5.145  0.3436 -0.0624 -0.5586
 4934SOL     OW18332   0.147   6.181   3.076  0.1702 -0.3389 -0.2591
 4934SOL    HW118333   0.108   6.196   2.989 -0.5715  1.0095  0.2667
 4934SOL    HW218334   0.226   6.131   3.059  1.2043  1.7026 -1.9767
 4935SOL     OW18335   1.421   5.481   6.384 -0.1514  0.3379  0.3509
 4935SOL    HW118336   1.436   5.405   6.328  2.6762  1.4483 -0.5578
 4935SOL    HW218337   1.407   5.554   6.323  0.7678  1.1718  1.0956
 4936SOL     OW18338   4.126   7.733   0.020  0.4302  1.0781  0.0350
 4936SOL    HW118339   4.126   7.776   0.106 -1.8212  0.7851  0.2341
 4936SOL    HW218340   4.141   7.640   0.041  1.8359  1.2430 -0.1050
 4937SOL     OW18341  10.471   0.905   6.640  0.4905  0.0662  0.0961
 4937SOL    HW118342  10.378   0.908   6.617  0.3702  0.2572  0.5824
 4937SOL    HW218343  10.476   0.952   6.723  1.1694  0.9085 -0.4062
 4938SOL     OW18344   9.741   9.319   2.209  0.3687 -0.3878 -0.5022
 4938SOL    HW118345   9.799   9.292   2.138  1.7742  0.1776  0.3919
 4938SOL    HW218346   9.780   9.280   2.288  0.1389  0.8561  0.2514
 4939SOL     OW18347  10.285   7.344   8.193 -0.4837  0.2676 -0.0931
 4939SOL    HW118348  10.253   7.315   8.278  2.0141 -0.9259  0.5540
 4939SOL    HW218349  10.342   7.418   8.214 -0.8441  0.7844 -0.8971
 4940SOL     OW18350   0.040   0.530   0.115  0.3741 -0.5937  0.7726
 4940SOL    HW118351   0.070   0.538   0.206  2.1723  0.1856  0.1464
 4940SOL    HW218352   0.119   0.541   0.062 -0.6766 -0.7885 -0.9129
 4941SOL     OW18353   2.667   5.719   6.319  0.1231 -0.2357  0.3506
 4941SOL    HW118354   2.671   5.632   6.279 -0.4206  0.6308 -1.7394
 4941SOL    HW218355   2.756   5.752   6.315  0.1980 -0.4221  0.4861
 4942SOL     OW18356   4.530   8.117   0.901  0.0408  0.2845  0.3627
 4942SOL    HW118357   4.490   8.029   0.905 -0.6692  0.5543 -0.4908
 4942SOL    HW218358   4.462   8.175   0.935 -0.2727  0.7422 -1.0109
 4943SOL     OW18359   1.280   9.359   6.111 -0.5639  1.2864 -0.1581
 4943SOL    HW118360   1.189   9.371   6.140 -0.5863 -2.0368  1.5930
 4943SOL    HW218361   1.333   9.399   6.181 -0.7084 -0.3210  0.9218
 4944SOL     OW18362   1.040   4.403   4.570  0.3322 -0.5930 -0.5840
 4944SOL    HW118363   1.093   4.436   4.497  0.1302  2.4429  0.4722
 4944SOL    HW218364   1.091   4.426   4.648 -1.0396 -0.5402  0.3226
 4945SOL     OW18365  10.592   0.197  10.083  0.5874  0.3135 -0.5456
 4945SOL    HW118366  10.551   0.280  10.057 -1.0274  0.2465  1.5722
 4945SOL    HW218367  10.528   0.130  10.061  0.8275 -0.1175  0.0404
 4946SOL     OW18368   2.368   7.352   1.017  0.2020 -0.3889 -0.3321
 4946SOL    HW118369   2.291   7.342   1.073  0.5388 -0.4724  0.1104
 4946SOL    HW218370   2.339   7.413   0.948 -0.3658 -0.6854 -0.3625
 4947SOL     OW18371   5.130   2.080   7.460 -0.0996  0.4833  0.6890
 4947SOL    HW118372   5.135   2.034   7.376  2.1943  1.2795  0.3177
 4947SOL    HW218373   5.166   2.017   7.523 -0.9718  0.2255  0.9468
 4948SOL     OW18374   0.958   6.428   1.705 -0.0042 -0.1286  0.0738
 4948SOL    HW118375   0.870   6.457   1.684  0.7764  2.0603 -0.4896
 4948SOL    HW218376   0.970   6.453   1.796  0.1087 -0.2450  0.0912
 4949SOL     OW18377   7.274   8.489   9.478 -0.6872 -0.5445 -0.5444
 4949SOL    HW118378   7.203   8.516   9.421 -0.8973 -1.3265 -0.6728
 4949SOL    HW218379   7.334   8.441   9.421 -0.4085 -0.4914 -0.3006
 4950SOL     OW18380   6.418  10.452   0.087  0.1008  0.2686 -0.5497
 4950SOL    HW118381   6.458  10.535   0.111 -0.0575 -0.0007  0.7151
 4950SOL    HW218382   6.360  10.473   0.013  0.6111  1.1259 -0.7140
 4951SOL     OW18383   0.713   6.167   2.670  0.1751 -0.2641 -0.2987
 4951SOL    HW118384   0.765   6.234   2.625  0.0963  0.4460  0.6300
 4951SOL    HW218385   0.627   6.171   2.628 -0.2261  1.1486  0.6017
 4952SOL     OW18386   3.447  10.581   0.431  0.0512  0.6363  0.0311
 4952SOL    HW118387   3.370  10.583   0.488 -0.1774 -1.6142 -0.1306
 4952SOL    HW218388   3.520  10.561   0.490  0.1470  0.3973 -0.1693
 4953SOL     OW18389   5.944   0.562  10.296  0.2669  1.1732  0.2380
 4953SOL    HW118390   5.944   0.634  10.360  0.6411  0.7172  0.7610
 4953SOL    HW218391   5.863   0.514  10.313  0.3923  1.0207  0.4073
 4954SOL     OW18392   6.504   6.192   4.366  0.3768 -0.0355 -0.4172
 4954SOL    HW118393   6.447   6.268   4.350 -0.9726 -0.9720 -0.2901
 4954SOL    HW218394   6.480   6.162   4.454  1.8477  0.1611  0.0771
 4955SOL     OW18395   2.404   4.666   3.779  0.0169 -0.2006 -0.3163
 4955SOL    HW118396   2.335   4.653   3.844  1.6028  0.1177  1.5204
 4955SOL    HW218397   2.472   4.604   3.804  0.5513 -0.2654 -1.8731
 4956SOL     OW18398   5.744   2.224   2.110  0.4043 -0.3281 -0.1219
 4956SOL    HW118399   5.781   2.207   2.196  0.0923 -0.6595 -0.0505
 4956SOL    HW218400   5.671   2.163   2.103 -1.2608  1.5039  0.4458
 4957SOL     OW18401   6.762   1.082   0.223  0.3743 -0.0602  0.3190
 4957SOL    HW118402   6.712   1.107   0.146  2.2477 -0.8423 -1.2551
 4957SOL    HW218403   6.701   1.031   0.276  0.0313 -3.2381 -2.7338
 4958SOL     OW18404   8.153   7.234  10.328 -0.2663 -0.1105 -0.0825
 4958SOL    HW118405   8.200   7.193  10.256 -2.4549 -1.4036 -0.8886
 4958SOL    HW218406   8.178   7.184  10.405  0.8777  0.2510 -0.2106
 4959SOL     OW18407   0.283   3.731   6.835 -0.4216 -0.1577  0.0615
 4959SOL    HW118408   0.329   3.673   6.774 -1.1801 -1.7033  0.8924
 4959SOL    HW218409   0.243   3.671   6.898 -2.1583  1.2317  0.3261
 4960SOL     OW18410   0.361   6.604   7.564  0.2126  1.3617  0.1788
 4960SOL    HW118411   0.323   6.556   7.638  1.8701 -0.1388  0.1213
 4960SOL    HW218412   0.374   6.693   7.597 -1.2084  1.3224  0.9127
 4961SOL     OW18413   6.719   2.606   4.462 -0.0332  0.3462 -0.4963
 4961SOL    HW118414   6.653   2.585   4.528  0.3117  0.1477 -0.2101
 4961SOL    HW218415   6.725   2.528   4.409 -0.3124  0.5073 -0.7673
 4962SOL     OW18416  10.766   4.821   1.289  0.0913  0.0973 -0.6553
 4962SOL    HW118417  10.721   4.742   1.258  0.6746 -1.2072  1.5363
 4962SOL    HW218418  10.700   4.867   1.342  0.3061  0.0242 -0.3169
 4963SOL     OW18419   1.008   2.234   6.880  0.3155  0.0817 -0.0327
 4963SOL    HW118420   0.925   2.238   6.832  1.6946 -0.3838 -2.6499
 4963SOL    HW218421   1.043   2.323   6.874  0.0806  0.2489  0.9669
 4964SOL     OW18422   0.558   4.771   3.795  0.0995 -0.3250  0.1954
 4964SOL    HW118423   0.493   4.748   3.862  0.6963  2.5918  1.9680
 4964SOL    HW218424   0.613   4.838   3.837  1.9761 -0.0210 -2.4770
 4965SOL     OW18425   0.244   9.097   5.199  0.1774 -0.1344 -0.1288
 4965SOL    HW118426   0.305   9.114   5.271  0.4070 -1.7005  0.0928
 4965SOL    HW218427   0.207   9.183   5.177  0.1407  0.3887  1.8177
 4966SOL     OW18428   9.298   6.762   9.792  0.4523 -0.1189  0.6472
 4966SOL    HW118429   9.299   6.672   9.759  1.5949 -0.0538  0.4450
 4966SOL    HW218430   9.325   6.754   9.883  0.5158  0.0154  0.6401
 4967SOL     OW18431   1.713   8.936   6.778  0.4288  0.5668 -0.5364
 4967SOL    HW118432   1.792   8.987   6.759 -0.0311  1.8987  0.9249
 4967SOL    HW218433   1.738   8.880   6.852  0.4817 -0.2732 -1.1697
 4968SOL     OW18434   7.830   6.742   9.907  0.0562  0.3337  0.1379
 4968SOL    HW118435   7.876   6.665   9.939  0.6692  1.0624  1.0536
 4968SOL    HW218436   7.792   6.714   9.823  2.8321 -0.0556 -1.0782
 4969SOL     OW18437  10.420   1.384   8.315  0.3102 -0.3555 -0.2448
 4969SOL    HW118438  10.395   1.295   8.338  1.2056 -0.3183  0.9319
 4969SOL    HW218439  10.514   1.387   8.328  0.3122  0.7155 -0.4409
 4970SOL     OW18440   0.968  10.598   2.577  0.9089  0.4654 -0.2979
 4970SOL    HW118441   0.879  10.615   2.606  0.2463 -1.1230 -1.2507
 4970SOL    HW218442   0.996  10.677   2.532  0.5641  1.5372  1.2992
 4971SOL     OW18443  10.517   3.384   1.708 -0.0775 -0.2295 -0.3780
 4971SOL    HW118444  10.449   3.328   1.670  0.3053 -2.1114  1.5282
 4971SOL    HW218445  10.485   3.403   1.796  1.3144 -0.1503  0.1247
 4972SOL     OW18446   7.411   1.482   1.889  0.0910 -0.0997 -0.1456
 4972SOL    HW118447   7.437   1.404   1.839 -0.5822 -0.7901  0.5596
 4972SOL    HW218448   7.471   1.484   1.963 -0.7508 -0.7358  0.5718
 4973SOL     OW18449   0.316   7.879   6.725 -0.3438 -0.1555  0.2052
 4973SOL    HW118450   0.311   7.954   6.666  1.8889  0.0132  0.1225
 4973SOL    HW218451   0.286   7.912   6.809  0.3388  0.7926  0.0992
 4974SOL     OW18452   2.560   7.750   9.399  0.4404  0.2052 -0.0453
 4974SOL    HW118453   2.640   7.794   9.427 -0.7908  2.0781  0.7756
 4974SOL    HW218454   2.528   7.705   9.478 -0.8891  2.0776  0.5607
 4975SOL     OW18455  10.332   1.659   8.104  0.3581 -0.2733 -0.8162
 4975SOL    HW118456  10.372   1.717   8.167  1.7470  0.1915 -2.0560
 4975SOL    HW218457  10.281   1.716   8.046 -0.1859 -0.5823 -0.6518
 4976SOL     OW18458   7.878  10.672   4.760 -0.1525  0.3475 -0.0384
 4976SOL    HW118459   7.838  10.672   4.847 -0.3979  0.6538 -0.1488
 4976SOL    HW218460   7.955  10.617   4.769  1.1379  2.1835  0.9797
 4977SOL     OW18461   4.931   3.980   7.741 -0.5380  0.3850 -0.0453
 4977SOL    HW118462   4.908   3.917   7.810 -2.2653  1.1308  0.1052
 4977SOL    HW218463   4.860   4.044   7.742 -0.1176  0.9377 -1.9052
 4978SOL     OW18464   9.640   5.476   3.132  0.1757  0.0341  0.4216
 4978SOL    HW118465   9.581   5.406   3.106 -1.3613  1.7761 -1.1276
 4978SOL    HW218466   9.592   5.525   3.199 -0.1308  1.3578 -0.7172
 4979SOL     OW18467   9.437   1.799   6.522  0.1887 -0.4925  0.6251
 4979SOL    HW118468   9.352   1.760   6.543  1.0772 -2.3659  0.9337
 4979SOL    HW218469   9.447   1.783   6.428 -0.2653  0.7108  0.3621
 4980SOL     OW18470   2.232   8.846   0.923 -0.2743 -0.4683 -0.3435
 4980SOL    HW118471   2.176   8.774   0.894 -0.3358 -0.6240  0.1472
 4980SOL    HW218472   2.312   8.803   0.953 -1.1588 -0.5799  2.0963
 4981SOL     OW18473   5.508   5.056   1.602  0.4759 -0.2020  0.4121
 4981SOL    HW118474   5.555   5.066   1.520 -0.2892 -1.4406 -0.2069
 4981SOL    HW218475   5.496   5.145   1.634  1.7153  0.2352 -0.2608
 4982SOL     OW18476   6.946   7.917   9.350 -0.5182  0.1965 -0.0768
 4982SOL    HW118477   7.011   7.880   9.410 -1.8303  1.3542  2.1905
 4982SOL    HW218478   6.891   7.843   9.324 -0.2321 -0.2442  0.5603
 4983SOL     OW18479   6.590   9.210   3.414 -0.1066 -0.4113 -0.2452
 4983SOL    HW118480   6.635   9.232   3.333  0.6020 -1.1123 -0.0565
 4983SOL    HW218481   6.562   9.294   3.450  3.4226  0.4282  0.9863
 4984SOL     OW18482   2.757  10.280   1.096  0.0657  0.3786 -0.1912
 4984SOL    HW118483   2.664  10.296   1.086  0.1118  0.8270  0.0764
 4984SOL    HW218484   2.797  10.319   1.019  0.0698  0.5260 -0.1134
 4985SOL     OW18485   3.297   4.515  10.139 -0.2565 -0.3077  0.2651
 4985SOL    HW118486   3.351   4.591  10.158 -1.2800  0.6696 -0.6148
 4985SOL    HW218487   3.274   4.480  10.225  0.7899 -0.0562  0.6694
 4986SOL     OW18488   9.087  10.744   1.634  0.3093  0.2674  0.0294
 4986SOL    HW118489   9.045  10.658   1.640  2.1769 -0.6025  1.9472
 4986SOL    HW218490   9.098  10.760   1.540 -0.0594 -1.5961 -0.3586
 4987SOL     OW18491   1.864   0.761   7.699  0.5901  0.4164  0.5110
 4987SOL    HW118492   1.794   0.708   7.660  0.3771  1.4836 -0.6219
 4987SOL    HW218493   1.835   0.778   7.788  0.6934 -1.4028  0.9193
 4988SOL     OW18494   1.438   4.213   8.472  0.2652 -0.1433 -0.0647
 4988SOL    HW118495   1.519   4.226   8.423  0.6931 -0.2713  0.5951
 4988SOL    HW218496   1.441   4.122   8.499 -0.1612 -0.1808 -0.1383
 4989SOL     OW18497   8.680   9.526  10.230  0.2175  0.3170 -1.0160
 4989SOL    HW118498   8.716   9.568  10.151  0.3360  0.8957 -0.6564
 4989SOL    HW218499   8.613   9.586  10.261  1.7573  1.2616  0.6444
 4990SOL     OW18500   1.295   0.646   6.278 -0.0722  0.3272 -0.3027
 4990SOL    HW118501   1.352   0.673   6.206 -1.4431 -0.2226 -1.6525
 4990SOL    HW218502   1.272   0.727   6.323  2.7924  0.4638  1.1563
 4991SOL     OW18503   6.515   6.034   8.467 -0.3028 -0.0857 -0.0802
 4991SOL    HW118504   6.569   6.112   8.454 -1.8661  0.8636 -1.2391
 4991SOL    HW218505   6.555   5.968   8.411 -0.5473  0.7367 -1.2768
 4992SOL     OW18506   3.454   1.317   7.153  0.4210  0.1039  0.0287
 4992SOL    HW118507   3.499   1.377   7.094 -0.0332  1.6063  1.1458
 4992SOL    HW218508   3.477   1.229   7.121  2.2843  0.8357 -0.7678
 4993SOL     OW18509   2.711   6.590   1.497  0.0620 -0.0852  0.2046
 4993SOL    HW118510   2.745   6.610   1.584  0.8037 -3.6054  0.8333
 4993SOL    HW218511   2.784   6.550   1.450 -0.5733  0.9596 -1.8180
 4994SOL     OW18512   6.685   3.158   4.760  0.1410  0.2877  0.2738
 4994SOL    HW118513   6.778   3.151   4.783  0.2218  1.8852  0.5966
 4994SOL    HW218514   6.661   3.247   4.788 -1.2772  0.1792 -0.5332
 4995SOL     OW18515   9.694   6.888   1.845 -0.4531 -0.0234 -0.1923
 4995SOL    HW118516   9.787   6.866   1.859 -0.0882  1.5260 -0.0577
 4995SOL    HW218517   9.676   6.858   1.756  0.3164  0.1078 -0.3988
 4996SOL     OW18518   2.220   8.918   0.119 -0.1939 -0.1606  0.4601
 4996SOL    HW118519   2.186   8.940   0.032 -0.9329  1.0903  1.0314
 4996SOL    HW218520   2.188   8.829   0.136 -1.2923  0.1354  0.0345
 4997SOL     OW18521   9.008   2.426   4.024 -0.3727  0.0529  0.1824
 4997SOL    HW118522   8.990   2.421   3.930 -1.2673 -1.7377  0.4125
 4997SOL    HW218523   9.051   2.511   4.035  1.8491 -0.6576 -2.1475
 4998SOL     OW18524  10.168   9.276   2.856  0.1323  0.1964 -0.7330
 4998SOL    HW118525  10.125   9.252   2.774 -0.8784  1.0368 -0.4700
 4998SOL    HW218526  10.261   9.261   2.839 -0.1576 -0.7347 -1.6413
 4999SOL     OW18527   3.720  10.531   6.445 -1.2367  0.2917 -0.5821
 4999SOL    HW118528   3.723  10.448   6.493 -1.2456  0.5666 -0.0998
 4999SOL    HW218529   3.792  10.524   6.381 -1.6990 -0.3765 -1.0400
 5000SOL     OW18530   1.649   6.622   5.314 -0.0501  0.5216 -0.4148
 5000SOL    HW118531   1.646   6.593   5.405  0.3921  3.6347  0.7059
 5000SOL    HW218532   1.616   6.547   5.264  0.0674 -1.4358  2.2252
 5001SOL     OW18533  11.033   2.933   2.161 -0.1350  0.0587 -0.1033
 5001SOL    HW118534  10.947   2.930   2.203 -0.7975  1.1688 -1.3198
 5001SOL    HW218535  11.094   2.901   2.228 -1.7429 -3.1009  0.0287
 5002SOL     OW18536   7.210   8.182   2.710 -0.2132  0.6529 -0.2584
 5002SOL    HW118537   7.122   8.195   2.747 -0.9569 -2.4821 -0.6461
 5002SOL    HW218538   7.268   8.224   2.773 -1.8605  1.0510  1.0852
 5003SOL     OW18539   7.181   3.362   5.242 -0.1457 -0.3450  0.4563
 5003SOL    HW118540   7.213   3.288   5.191  1.7633  0.9313 -0.3173
 5003SOL    HW218541   7.203   3.341   5.332  0.9264 -0.4872  0.1735
 5004SOL     OW18542   1.597   9.444   3.608 -0.1642  0.5576 -0.0617
 5004SOL    HW118543   1.515   9.488   3.629  0.3209  1.9110 -0.8745
 5004SOL    HW218544   1.665   9.509   3.627  0.5347  0.4251 -1.9309
 5005SOL     OW18545   1.728   1.307   0.438 -0.0985 -0.4847 -0.2224
 5005SOL    HW118546   1.801   1.283   0.494  1.1628 -2.5359 -2.5566
 5005SOL    HW218547   1.652   1.308   0.497  1.4091 -0.6518  1.8248
 5006SOL     OW18548   8.300   2.062  10.647 -0.1890  0.5893 -0.5615
 5006SOL    HW118549   8.354   2.115  10.705 -0.4399 -0.1570  0.3637
 5006SOL    HW218550   8.213   2.062  10.688 -0.5279  0.5397 -1.2475
 5007SOL     OW18551   7.549  10.583   0.461  0.1153 -0.0624 -0.4194
 5007SOL    HW118552   7.498  10.635   0.399  0.8957  1.7894  0.4211
 5007SOL    HW218553   7.489  10.570   0.535  0.2287  0.4833 -0.2275
 5008SOL     OW18554   9.555   0.116   1.635  0.1703  0.4502  0.0190
 5008SOL    HW118555   9.637   0.142   1.675  0.1647  1.1308 -0.3973
 5008SOL    HW218556   9.500   0.195   1.638 -0.5496 -0.0506  0.4902
 5009SOL     OW18557   9.834   5.840   1.630  0.0167 -0.4835 -0.1004
 5009SOL    HW118558   9.823   5.844   1.725 -1.7789 -0.6660 -0.2605
 5009SOL    HW218559   9.817   5.930   1.600  1.3408 -0.2510 -0.2061
 5010SOL     OW18560   0.995  10.380   3.214 -0.1313  0.4956 -0.5511
 5010SOL    HW118561   1.007  10.356   3.122  1.1372 -3.4094  0.4397
 5010SOL    HW218562   1.084  10.396   3.247 -0.4991  1.0957  0.1965
 5011SOL     OW18563   7.443   0.312   4.874  0.0853 -0.0336 -0.3993
 5011SOL    HW118564   7.479   0.390   4.832  0.2026  0.3080  0.3187
 5011SOL    HW218565   7.498   0.240   4.843  1.0638  0.4075  0.2710
 5012SOL     OW18566   5.399   1.955   6.887  0.1549 -0.0102  0.9389
 5012SOL    HW118567   5.479   2.002   6.865  1.0320 -1.6193  0.4947
 5012SOL    HW218568   5.358   1.937   6.803  1.5096 -2.7809  0.7573
 5013SOL     OW18569   0.101   8.836   0.598  0.2138 -0.0489  0.1157
 5013SOL    HW118570   0.105   8.816   0.692 -2.2433  0.8325  0.4881
 5013SOL    HW218571   0.077   8.928   0.594  4.0117  1.0923 -1.5015
 5014SOL     OW18572   6.121   9.655   7.336  0.0452  0.2107 -0.1852
 5014SOL    HW118573   6.093   9.665   7.427  0.3828 -0.2584 -0.0276
 5014SOL    HW218574   6.197   9.597   7.341 -0.8390 -1.0532 -0.9147
 5015SOL     OW18575   3.621   4.064   7.156 -1.0453  0.2370  0.2288
 5015SOL    HW118576   3.703   4.094   7.117 -1.1718 -0.2856 -0.4616
 5015SOL    HW218577   3.600   3.984   7.108 -1.5460 -0.0669  0.9455
 5016SOL     OW18578   5.826   8.279   0.511  0.3402  0.7025  0.1085
 5016SOL    HW118579   5.857   8.327   0.434  0.8732 -0.9789 -0.7634
 5016SOL    HW218580   5.827   8.187   0.485  2.6629 -0.1812  2.8471
 5017SOL     OW18581  10.260   8.980   0.098 -0.0884  0.1937  0.1989
 5017SOL    HW118582  10.307   9.036   0.159  0.7092  0.7492 -0.9004
 5017SOL    HW218583  10.313   8.980   0.018  0.0566 -2.2906  0.2112
 5018SOL     OW18584   1.729   1.094   1.775  0.1050  0.1139 -0.3325
 5018SOL    HW118585   1.776   1.150   1.837  0.5870  1.7815 -2.0980
 5018SOL    HW218586   1.639   1.093   1.807  0.5808 -0.1425  1.0886
 5019SOL     OW18587   9.527   5.889   6.781  0.1895  0.8309 -0.4582
 5019SOL    HW118588   9.490   5.972   6.811  0.9050  0.4706  1.5298
 5019SOL    HW218589   9.493   5.879   6.692 -2.4916  1.6852  0.3832
 5020SOL     OW18590   0.897  10.926   5.442  0.0574 -0.3264  0.3569
 5020SOL    HW118591   0.929  10.946   5.354 -0.4320 -0.8653  0.0473
 5020SOL    HW218592   0.860  11.009   5.473 -1.3707 -0.5447 -0.6557
 5021SOL     OW18593   6.325   7.422   9.468  0.8202 -0.1632  0.0048
 5021SOL    HW118594   6.361   7.508   9.445 -1.7536  1.8573  2.6819
 5021SOL    HW218595   6.230   7.434   9.462  0.3404 -2.3904  1.7809
 5022SOL     OW18596   6.771   1.445   0.466  0.3757  0.3443  0.1954
 5022SOL    HW118597   6.769   1.540   0.473  1.2328  0.4584 -0.8390
 5022SOL    HW218598   6.861   1.425   0.437  0.6269 -0.8749  1.7097
 5023SOL     OW18599   2.956   8.892   5.046  0.2492 -0.1011  0.2992
 5023SOL    HW118600   2.983   8.830   4.978  0.5132  0.7673 -0.4212
 5023SOL    HW218601   3.039   8.929   5.078  0.1453 -0.7874  1.3804
 5024SOL     OW18602   8.451   9.681   9.189  0.0212  0.2547  0.6040
 5024SOL    HW118603   8.429   9.661   9.280 -0.3617  0.4629  0.5604
 5024SOL    HW218604   8.487   9.600   9.154  1.7902  0.6373  1.4296
 5025SOL     OW18605   0.330   0.536   4.540  0.1355  0.3330  0.5589
 5025SOL    HW118606   0.409   0.541   4.593 -0.1681 -1.3498  1.2458
 5025SOL    HW218607   0.271   0.478   4.589 -0.9268  0.3030 -0.6725
 5026SOL     OW18608   9.410  10.626   2.606 -0.1055  0.1564 -0.2360
 5026SOL    HW118609   9.463  10.558   2.647  0.1020  0.1179 -0.5612
 5026SOL    HW218610   9.335  10.637   2.665 -1.6426 -2.3352 -1.5514
 5027SOL     OW18611   9.544   0.393   4.109  0.2388  0.0270  0.3691
 5027SOL    HW118612   9.577   0.357   4.026  0.3451  0.7055  0.1157
 5027SOL    HW218613   9.610   0.456   4.136  1.0650 -1.4232  1.8663
 5028SOL     OW18614   7.353   7.100   3.793  0.4563 -0.6965 -0.2261
 5028SOL    HW118615   7.409   7.131   3.864 -0.3614  1.8807 -0.5731
 5028SOL    HW218616   7.269   7.080   3.835  1.1357 -3.1040  0.0741
 5029SOL     OW18617   2.420  10.749   3.053 -0.0885 -0.2537  0.1816
 5029SOL    HW118618   2.335  10.727   3.091  0.2236  1.3526  1.9645
 5029SOL    HW218619   2.477  10.677   3.078 -0.6233 -0.7473  0.0119
 5030SOL     OW18620   1.786   5.454  10.855 -0.4427  0.2211 -0.0210
 5030SOL    HW118621   1.814   5.481  10.942 -0.9767 -2.5203  1.1013
 5030SOL    HW218622   1.814   5.526  10.797  0.7301  1.6986  2.2431
 5031SOL     OW18623   1.207   2.323   4.479 -0.2309  0.0750  0.2269
 5031SOL    HW118624   1.277   2.259   4.492 -0.4060 -0.0599  0.5226
 5031SOL    HW218625   1.130   2.283   4.520 -0.8830 -0.4732 -1.4276
 5032SOL     OW18626   5.263   2.677   5.254 -0.2188  0.3020 -0.3725
 5032SOL    HW118627   5.334   2.622   5.286 -0.4798 -0.3631 -0.9237
 5032SOL    HW218628   5.183   2.633   5.284 -0.4018  1.2943  0.6528
 5033SOL     OW18629   1.851   1.775  10.009 -0.4450  0.2294 -0.5492
 5033SOL    HW118630   1.895   1.759  10.092 -0.5509  0.3968 -0.4612
 5033SOL    HW218631   1.783   1.839  10.029 -1.7523 -1.1540 -0.3562
 5034SOL     OW18632  10.969   0.661   3.827 -0.3624  0.1273 -0.4507
 5034SOL    HW118633  11.010   0.742   3.797 -1.4363  0.9407  0.2015
 5034SOL    HW218634  11.027   0.629   3.896 -0.5781  1.0217  0.1590
 5035SOL     OW18635   4.227   0.402   1.271  0.2608 -0.3303 -0.1366
 5035SOL    HW118636   4.259   0.337   1.334  0.4698 -0.2328 -0.1431
 5035SOL    HW218637   4.279   0.480   1.289  0.9350 -0.5669 -1.0176
 5036SOL     OW18638   1.089   3.974   4.415 -0.4110 -0.2150  0.1148
 5036SOL    HW118639   1.130   3.911   4.356 -0.1910 -0.0939  0.1364
 5036SOL    HW218640   1.162   4.012   4.465 -0.4677  0.4876 -0.3157
 5037SOL     OW18641   0.007   2.747  10.793 -0.2865  0.1811  0.4547
 5037SOL    HW118642   0.065   2.687  10.745  0.6503  0.8717  0.6903
 5037SOL    HW218643  -0.041   2.690  10.853  0.9315 -0.3101  1.0125
 5038SOL     OW18644   5.321   5.190   2.028 -0.8439  0.3367  0.7917
 5038SOL    HW118645   5.386   5.128   2.062 -0.3620  1.0045  1.1073
 5038SOL    HW218646   5.367   5.274   2.028 -0.8488  0.3881 -1.4085
 5039SOL     OW18647   5.328   7.295   1.433  0.2179  0.2084 -0.3650
 5039SOL    HW118648   5.407   7.346   1.416  0.6803 -0.2889  0.2663
 5039SOL    HW218649   5.273   7.352   1.486 -0.6489  1.2539 -2.2909
 5040SOL     OW18650   3.418   1.226   1.212  0.2099  0.4959  0.1597
 5040SOL    HW118651   3.409   1.253   1.303 -1.4473  1.6167 -0.2912
 5040SOL    HW218652   3.370   1.143   1.206  1.9086 -0.5785  0.6687
 5041SOL     OW18653   8.776   5.139   9.516  0.5344  0.4812 -0.7244
 5041SOL    HW118654   8.829   5.101   9.586 -0.0959  1.0484  0.0875
 5041SOL    HW218655   8.742   5.063   9.468  0.2728  0.0442  0.1239
 5042SOL     OW18656   5.621   4.391   7.171  0.7859 -0.2286  0.1898
 5042SOL    HW118657   5.627   4.463   7.109 -0.3594  0.8055  1.2343
 5042SOL    HW218658   5.593   4.316   7.119 -1.5361  0.9363 -0.3616
 5043SOL     OW18659   7.589   4.003   2.870  0.0582 -0.4622 -0.0523
 5043SOL    HW118660   7.682   3.980   2.867  0.2543  0.3946 -1.0582
 5043SOL    HW218661   7.554   3.974   2.786 -0.6975 -1.2073  0.5074
 5044SOL     OW18662   2.365   1.845   4.596  0.4462 -0.7055  0.4472
 5044SOL    HW118663   2.273   1.822   4.612  0.0744 -1.0124 -1.7843
 5044SOL    HW218664   2.402   1.766   4.556  1.1274  0.1114 -0.5494
 5045SOL     OW18665   3.655   0.420   4.000 -0.1533  0.5070 -0.0008
 5045SOL    HW118666   3.707   0.448   4.075 -0.1521 -0.0205  0.1970
 5045SOL    HW218667   3.565   0.415   4.032 -0.9853  4.5873 -1.1189
 5046SOL     OW18668   8.179   9.964  10.007  0.0999  0.4365 -0.3334
 5046SOL    HW118669   8.243   9.962   9.937 -1.2144 -1.0174 -1.5654
 5046SOL    HW218670   8.170   9.873  10.034 -0.1030  0.8571  1.1076
 5047SOL     OW18671   7.164   1.033   2.705  0.3936  0.4205  0.4063
 5047SOL    HW118672   7.247   1.008   2.745  0.2079 -0.6619  0.1486
 5047SOL    HW218673   7.097   1.005   2.769  0.2155  1.3576  0.6513
 5048SOL     OW18674   7.941   5.457   2.448 -0.1258 -0.2456 -0.2889
 5048SOL    HW118675   8.019   5.401   2.442  0.4492  0.5886 -0.7747
 5048SOL    HW218676   7.908   5.460   2.358 -1.7591 -2.0130  0.1993
 5049SOL     OW18677   6.359   2.275   7.747 -0.1527 -0.3182  0.5694
 5049SOL    HW118678   6.442   2.316   7.724  0.4730 -0.7603  1.9458
 5049SOL    HW218679   6.353   2.284   7.842 -1.4627 -0.6975  0.5415
 5050SOL     OW18680   4.602   2.905   1.064  0.0508 -0.5687  0.5449
 5050SOL    HW118681   4.565   2.835   1.119 -0.2942 -1.4120 -0.7266
 5050SOL    HW218682   4.576   2.986   1.108 -0.4238 -1.2184  1.4974
 5051SOL     OW18683   7.685   9.683   3.408  0.0261 -0.2340 -0.3123
 5051SOL    HW118684   7.722   9.704   3.494 -1.5554  0.5382  0.2145
 5051SOL    HW218685   7.593   9.708   3.415 -0.5330 -1.7607 -1.6847
 5052SOL     OW18686   6.484   1.090   4.642 -0.2237 -0.1619 -0.4954
 5052SOL    HW118687   6.436   1.115   4.722  0.3703 -1.2860  0.2485
 5052SOL    HW218688   6.416   1.085   4.575 -0.6061  1.7255 -0.3146
 5053SOL     OW18689   4.094   1.997   4.569 -0.8332  0.1750  0.2951
 5053SOL    HW118690   4.012   1.963   4.534 -1.0309  0.8049  0.1279
 5053SOL    HW218691   4.136   1.922   4.610 -0.4653 -0.6791 -1.5311
 5054SOL     OW18692   8.012   7.847   2.063 -0.2304  0.6436  0.1217
 5054SOL    HW118693   8.100   7.810   2.062  0.9202  3.1117 -2.2684
 5054SOL    HW218694   7.976   7.826   1.977 -1.0974  1.5962  0.2285
 5055SOL     OW18695   0.656   1.850   9.344  0.5262 -0.0989  0.4186
 5055SOL    HW118696   0.636   1.774   9.399  0.0173  0.0123  0.3893
 5055SOL    HW218697   0.739   1.827   9.302 -1.5167 -2.5104 -2.8160
 5056SOL     OW18698   5.532   9.948   4.570 -0.6490  0.3392 -0.3436
 5056SOL    HW118699   5.439   9.967   4.588 -0.3377  1.2913  0.3367
 5056SOL    HW218700   5.554  10.004   4.496 -0.4955  0.4426 -0.2189
 5057SOL     OW18701   5.105   6.914   5.443 -0.5744 -0.5511 -0.0684
 5057SOL    HW118702   5.029   6.876   5.487 -0.0793 -2.0473 -0.4192
 5057SOL    HW218703   5.180   6.869   5.482 -0.0281 -0.7594 -1.2956
 5058SOL     OW18704   2.034   9.722   2.110  0.2198 -0.4580  0.1430
 5058SOL    HW118705   2.114   9.673   2.093  1.0149  1.7649 -3.5699
 5058SOL    HW218706   1.967   9.679   2.056 -0.1895 -0.1374  0.3852
 5059SOL     OW18707   7.560   9.075   5.539 -0.0727 -0.4169 -0.0736
 5059SOL    HW118708   7.572   9.169   5.553  0.1066 -0.5275  0.5916
 5059SOL    HW218709   7.465   9.064   5.529 -0.2003 -0.2701  0.8170
 5060SOL     OW18710   7.291   1.464   4.374  0.4501  0.0499 -0.2247
 5060SOL    HW118711   7.253   1.491   4.457  0.1538  1.0876 -0.6819
 5060SOL    HW218712   7.281   1.369   4.373  1.2478 -0.0771  1.2939
 5061SOL     OW18713   4.137   8.218   2.944  0.5873 -0.3243 -0.6757
 5061SOL    HW118714   4.055   8.169   2.957 -1.3705  3.1178  1.2854
 5061SOL    HW218715   4.146   8.224   2.849 -2.0009 -0.0395 -0.9823
 5062SOL     OW18716   3.730  10.289   7.665 -0.0571  0.1969 -0.0423
 5062SOL    HW118717   3.823  10.271   7.658 -0.0812 -0.5058  1.1218
 5062SOL    HW218718   3.698  10.224   7.728 -1.4233  0.1190 -0.7778
 5063SOL     OW18719   2.778   1.589   9.161  0.4970 -0.6782  0.4892
 5063SOL    HW118720   2.783   1.608   9.255 -0.4031  0.6622  0.3002
 5063SOL    HW218721   2.863   1.616   9.126  0.8903 -1.3293  0.9358
 5064SOL     OW18722   9.182   1.434   4.340 -0.5973  0.1549  0.0101
 5064SOL    HW118723   9.273   1.409   4.327  0.2068  1.8920  1.7683
 5064SOL    HW218724   9.156   1.476   4.258  0.7494  1.1286  0.0485
 5065SOL     OW18725   7.697   9.701   4.413  0.0696 -0.6830  0.0582
 5065SOL    HW118726   7.736   9.766   4.471  1.0135 -2.9378  2.1308
 5065SOL    HW218727   7.721   9.617   4.451 -2.4986 -2.2869 -1.5191
 5066SOL     OW18728   1.254  10.429   7.138 -0.3989 -0.4291  0.6388
 5066SOL    HW118729   1.192  10.416   7.210 -0.5943  1.9323  0.9683
 5066SOL    HW218730   1.326  10.480   7.177  0.0846 -0.1658 -0.5492
 5067SOL     OW18731  10.866   9.492   4.994 -0.9702  0.4158  0.3083
 5067SOL    HW118732  10.959   9.512   5.003 -0.5495 -0.3367 -1.7836
 5067SOL    HW218733  10.829   9.567   4.946 -1.2526  0.2775  0.3035
 5068SOL     OW18734   8.316   2.665   3.484 -0.3219 -0.3618  0.5451
 5068SOL    HW118735   8.243   2.722   3.505  1.1801  1.3926  1.2903
 5068SOL    HW218736   8.344   2.629   3.568  0.7006  0.3251  0.5172
 5069SOL     OW18737  10.246   3.875   3.285  0.1945 -0.4463 -0.2392
 5069SOL    HW118738  10.328   3.829   3.269  0.2028 -0.9765  1.1985
 5069SOL    HW218739  10.228   3.922   3.203  2.0882 -0.0534 -0.4586
 5070SOL     OW18740   4.649   2.992   6.947 -0.3380  0.1191 -0.0533
 5070SOL    HW118741   4.579   3.012   6.884 -0.7734 -2.2172 -0.3749
 5070SOL    HW218742   4.730   3.014   6.901 -0.6039 -2.1187 -1.7521
 5071SOL     OW18743   2.005  10.800   5.708 -0.0986  0.2275 -0.6527
 5071SOL    HW118744   2.091  10.819   5.672  0.6816  2.1093  1.9247
 5071SOL    HW218745   2.016  10.716   5.754 -0.1312 -0.3496 -1.6615
 5072SOL     OW18746  10.193   8.411   5.683  0.1599 -0.3986  0.1386
 5072SOL    HW118747  10.156   8.441   5.599  0.0566 -0.4879  0.1512
 5072SOL    HW218748  10.160   8.474   5.747 -3.2004 -2.5626  0.7835
 5073SOL     OW18749   7.503   7.134  10.015  0.2409  0.1588 -0.2613
 5073SOL    HW118750   7.411   7.129  10.041 -0.4294  0.4791 -2.3470
 5073SOL    HW218751   7.537   7.045  10.028 -0.1877  0.1695  1.0485
 5074SOL     OW18752   4.972   6.157   3.046  0.2594  0.2003  0.7534
 5074SOL    HW118753   5.019   6.214   3.108 -0.6485 -0.3881  2.0349
 5074SOL    HW218754   5.025   6.160   2.966  0.0663  3.0883  0.6398
 5075SOL     OW18755   8.532   9.940   2.645  0.2713  0.1362  0.7426
 5075SOL    HW118756   8.448   9.893   2.644  1.1135 -1.4179  0.5173
 5075SOL    HW218757   8.562   9.938   2.555  1.0694 -0.2788  1.0157
 5076SOL     OW18758   3.312   4.024   3.530  0.0208  0.0078  0.0497
 5076SOL    HW118759   3.250   4.096   3.521  1.8685  1.5396 -1.3897
 5076SOL    HW218760   3.395   4.060   3.499  1.7195 -1.8726  2.0690
 5077SOL     OW18761   5.179  10.289  10.769  0.4153 -0.1703 -0.4473
 5077SOL    HW118762   5.120  10.363  10.784 -0.5786 -0.6808 -1.5777
 5077SOL    HW218763   5.143  10.218  10.822  1.1165  0.0279  0.3052
 5078SOL     OW18764   6.598   7.426   4.967 -0.6408  0.2340 -0.3598
 5078SOL    HW118765   6.620   7.482   5.042 -1.2549  0.3486 -0.2585
 5078SOL    HW218766   6.640   7.469   4.892  1.4630 -0.8188  0.1466
 5079SOL     OW18767  10.411   0.648   8.405  0.2174  0.9848 -0.2406
 5079SOL    HW118768  10.481   0.681   8.462  1.5897 -0.6479 -0.9186
 5079SOL    HW218769  10.380   0.568   8.448 -0.4029  1.0302 -0.5831
 5080SOL     OW18770  10.289   6.246   5.788 -0.1207 -0.2600 -0.0397
 5080SOL    HW118771  10.307   6.333   5.752 -0.2601  0.2868  1.1751
 5080SOL    HW218772  10.315   6.251   5.880 -2.3964 -0.7376  0.7123
 5081SOL     OW18773   0.772   7.268   6.729 -0.0439 -0.6700  0.4867
 5081SOL    HW118774   0.701   7.261   6.664  0.1285  1.0795  0.0682
 5081SOL    HW218775   0.780   7.179   6.764 -1.3370 -1.2748 -0.6224
 5082SOL     OW18776   1.132   3.330   0.499  0.1892  0.5448  0.2672
 5082SOL    HW118777   1.048   3.303   0.462 -0.3590  1.8241  0.5089
 5082SOL    HW218778   1.120   3.423   0.519  0.9851  0.2682  2.2130
 5083SOL     OW18779   9.991   3.930   7.108 -0.1852 -0.0120 -0.1958
 5083SOL    HW118780   9.966   3.843   7.139 -0.6910 -0.8151 -2.6764
 5083SOL    HW218781   9.924   3.988   7.145 -0.8910 -0.9428  0.0366
 5084SOL     OW18782   9.028   1.165   3.603 -0.0524 -0.4930  0.3485
 5084SOL    HW118783   8.935   1.187   3.596  0.0206  0.0174  0.9366
 5084SOL    HW218784   9.052   1.190   3.692  1.2672  1.7313 -0.5600
 5085SOL     OW18785   0.035   4.409   2.968 -0.3623  0.5713 -0.9348
 5085SOL    HW118786   0.022   4.435   2.877  1.2505 -0.2856 -1.4495
 5085SOL    HW218787  -0.053   4.404   3.005 -1.2094 -0.8694 -2.9656
 5086SOL     OW18788   3.221   4.853   6.221  0.1839  0.0915  0.5650
 5086SOL    HW118789   3.145   4.805   6.255  0.7098  0.2437  2.0457
 5086SOL    HW218790   3.253   4.904   6.296  0.9878  1.0215 -0.3689
 5087SOL     OW18791   0.505   5.803   4.208 -0.1796 -0.0866  0.5086
 5087SOL    HW118792   0.517   5.722   4.258  0.8215  0.9121  1.9586
 5087SOL    HW218793   0.524   5.873   4.270 -0.2873  1.2593 -0.9106
 5088SOL     OW18794   7.219   1.879  10.855 -0.0040 -0.4336  0.0346
 5088SOL    HW118795   7.223   1.806  10.793 -1.7005 -0.6919  0.1679
 5088SOL    HW218796   7.229   1.837  10.941 -1.5934 -0.6333  0.1519
 5089SOL     OW18797  10.581   5.236   7.230 -0.2876 -0.0730 -0.2428
 5089SOL    HW118798  10.581   5.159   7.286 -1.5749  0.2812  0.2859
 5089SOL    HW218799  10.607   5.308   7.288  0.4555 -0.0336 -0.6191
 5090SOL     OW18800   4.738   3.845   1.578  0.0335 -0.4382  0.2310
 5090SOL    HW118801   4.709   3.876   1.492 -0.8441  1.5211  1.1774
 5090SOL    HW218802   4.683   3.769   1.596 -0.5299 -0.2077 -0.4740
 5091SOL     OW18803   1.937   0.607   0.615 -0.0894  0.0463  0.0265
 5091SOL    HW118804   1.887   0.623   0.535  1.1043 -0.8680 -0.9393
 5091SOL    HW218805   1.878   0.557   0.671 -1.2388  1.4091  0.0933
 5092SOL     OW18806  10.001   0.217   2.640  0.2267  0.0679 -0.3661
 5092SOL    HW118807   9.972   0.262   2.719 -0.8410 -1.5208  0.1974
 5092SOL    HW218808   9.972   0.273   2.568  0.3271  1.0386  0.3288
 5093SOL     OW18809   9.915   1.935   2.638 -0.0558 -0.2665 -0.2019
 5093SOL    HW118810   9.997   1.979   2.661  0.4740  0.6322 -3.3001
 5093SOL    HW218811   9.932   1.898   2.551 -2.4594 -1.4273 -0.2496
 5094SOL     OW18812   7.804  10.118   3.395  0.1639  0.6566  0.3901
 5094SOL    HW118813   7.794  10.122   3.491  0.8797  0.6355  0.4749
 5094SOL    HW218814   7.793  10.026   3.373 -1.6149  0.8784  0.2463
 5095SOL     OW18815   6.038   2.011   9.393 -0.6437  0.6983 -0.2928
 5095SOL    HW118816   6.027   1.925   9.432 -0.9855  0.8721 -0.0039
 5095SOL    HW218817   6.133   2.020   9.382 -0.6714 -0.2194 -1.4978
 5096SOL     OW18818   4.082   9.153   4.707  0.8183 -0.0209  0.3477
 5096SOL    HW118819   4.160   9.167   4.653 -0.0448  3.0106 -0.3262
 5096SOL    HW218820   4.107   9.184   4.794  1.4015 -2.4803  1.1345
 5097SOL     OW18821   4.366   7.323   4.671  0.2869  0.6132  0.2077
 5097SOL    HW118822   4.303   7.353   4.605  1.7784  3.3462 -0.1457
 5097SOL    HW218823   4.327   7.244   4.708 -1.7224  0.3017 -2.2843
 5098SOL     OW18824   1.442   9.593   6.909  0.4362  0.2916  0.5245
 5098SOL    HW118825   1.445   9.569   6.816  1.7060  1.9010  0.1056
 5098SOL    HW218826   1.469   9.514   6.955 -0.4348 -0.6125 -0.4360
 5099SOL     OW18827   5.909  11.075   6.468 -0.2559  0.0636  0.2430
 5099SOL    HW118828   5.970  11.094   6.398 -0.0504  1.4274  0.7631
 5099SOL    HW218829   5.832  11.128   6.449 -0.6848 -0.4852  0.4045
 5100SOL     OW18830   1.739   7.251   1.887  0.1382  0.0297  0.5655
 5100SOL    HW118831   1.698   7.164   1.887 -0.5676  0.3613  0.4191
 5100SOL    HW218832   1.693   7.300   1.955 -0.5119  0.7672 -0.3802
 5101SOL     OW18833   0.681   6.221   1.264  0.2583 -0.1322  0.7394
 5101SOL    HW118834   0.645   6.132   1.264  1.2328 -0.5601 -0.7331
 5101SOL    HW218835   0.693   6.243   1.172  1.8734  0.7373  1.1119
 5102SOL     OW18836   5.571   4.298  10.607 -0.3911  0.1886  0.0879
 5102SOL    HW118837   5.491   4.252  10.630  0.1485 -0.8990 -0.1172
 5102SOL    HW218838   5.591   4.352  10.683 -1.6285  0.9492 -0.0969
 5103SOL     OW18839   2.311   6.104   6.353 -0.2328  0.5700 -0.1619
 5103SOL    HW118840   2.349   6.016   6.359 -1.0962  0.1231 -0.9517
 5103SOL    HW218841   2.266   6.105   6.268  1.1012  2.3158 -0.9313
 5104SOL     OW18842   9.060   4.324   6.901 -0.1678 -0.0422 -0.2557
 5104SOL    HW118843   9.088   4.258   6.837 -1.6567 -0.1842 -0.7818
 5104SOL    HW218844   8.998   4.278   6.958  1.0359  0.1119  1.2521
 5105SOL     OW18845   4.589  10.064   2.846 -0.4153 -0.3977 -0.3595
 5105SOL    HW118846   4.628   9.978   2.862  0.5833  0.1191  0.1136
 5105SOL    HW218847   4.664  10.119   2.823 -0.7858  0.7391  1.0261
 5106SOL     OW18848   9.392  10.825  10.110 -0.2754 -0.1922  0.1617
 5106SOL    HW118849   9.354  10.810  10.024 -1.3643 -0.4047  0.6639
 5106SOL    HW218850   9.371  10.916  10.130  0.0598 -0.1135  0.1767
 5107SOL     OW18851   5.683   8.470   5.270  0.2634 -0.0927 -0.4740
 5107SOL    HW118852   5.651   8.437   5.186  0.0146  0.4373 -0.5929
 5107SOL    HW218853   5.760   8.417   5.289 -0.6359 -1.3569 -0.2106
 5108SOL     OW18854  10.914   0.489   1.969  0.2295  0.2014 -0.0586
 5108SOL    HW118855  10.858   0.419   2.001 -1.7272  0.8924 -1.7501
 5108SOL    HW218856  10.921   0.550   2.042  0.0650 -0.6392  0.6741
 5109SOL     OW18857   2.287   6.255   5.675  0.0967  0.4307 -0.0198
 5109SOL    HW118858   2.212   6.222   5.625 -0.2421  0.2175  0.6215
 5109SOL    HW218859   2.363   6.222   5.627 -0.1710  1.6280 -1.3542
 5110SOL     OW18860   7.015   2.815   8.456  0.1366 -0.3230  0.0572
 5110SOL    HW118861   7.018   2.720   8.465  0.4261 -0.3518 -0.2757
 5110SOL    HW218862   7.104   2.844   8.478 -0.0006 -0.1126  0.3369
 5111SOL     OW18863   5.418   3.023   2.057 -0.4709  0.0955 -0.4570
 5111SOL    HW118864   5.379   2.936   2.067 -0.8014  0.3004  0.0954
 5111SOL    HW218865   5.351   3.074   2.013 -0.5266  0.2409 -0.2036
 5112SOL     OW18866   4.536  11.065   4.123 -0.4559  0.5327 -0.2727
 5112SOL    HW118867   4.561  10.982   4.081  1.9064  0.5805  0.8549
 5112SOL    HW218868   4.496  11.116   4.053 -0.6536 -1.0323 -1.3544
 5113SOL     OW18869   2.839   6.775   0.001  1.1810  0.0862  0.5466
 5113SOL    HW118870   2.807   6.855  -0.041 -2.3355 -0.3895  1.9940
 5113SOL    HW218871   2.893   6.806   0.074  1.4122  1.0677 -0.0194
 5114SOL     OW18872   0.634   3.856   2.723 -0.6938  0.5023  0.0502
 5114SOL    HW118873   0.684   3.913   2.664 -0.1218  0.8498  0.8584
 5114SOL    HW218874   0.672   3.769   2.709 -1.2876  0.3794 -0.8780
 5115SOL     OW18875   8.757   6.843   3.014  0.2587 -0.6727  0.1849
 5115SOL    HW118876   8.801   6.922   2.981  1.2403 -1.7956 -1.3551
 5115SOL    HW218877   8.665   6.870   3.024  0.7150  0.8841  0.5197
 5116SOL     OW18878   3.949   1.372   3.779  0.1392  0.0877  0.4162
 5116SOL    HW118879   3.881   1.337   3.836 -0.4435 -1.0311 -0.9180
 5116SOL    HW218880   3.932   1.334   3.693  2.7013 -0.6071  0.1122
 5117SOL     OW18881   3.115   6.311   5.263 -1.1092  0.3503  0.0968
 5117SOL    HW118882   3.142   6.279   5.349  1.9851 -1.8000 -1.4830
 5117SOL    HW218883   3.164   6.393   5.253  0.2894 -0.5273 -0.4343
 5118SOL     OW18884   7.871   8.366   6.750  1.0726 -0.0314  0.2552
 5118SOL    HW118885   7.778   8.379   6.766  1.3148  1.8109  0.3242
 5118SOL    HW218886   7.877   8.341   6.658  0.4160 -1.6920  0.6286
 5119SOL     OW18887   4.307   8.266  10.625 -0.0993  0.2865  0.5443
 5119SOL    HW118888   4.358   8.243  10.703 -0.6269 -0.6549  0.6227
 5119SOL    HW218889   4.219   8.234  10.644 -0.4215  0.7802 -0.1109
 5120SOL     OW18890  10.997   4.492   1.886  0.0020  0.2184  0.3173
 5120SOL    HW118891  11.081   4.534   1.901 -1.0686  2.4495  0.4702
 5120SOL    HW218892  10.975   4.452   1.970  0.8670 -0.3163  0.2937
 5121SOL     OW18893   4.580   5.802   4.897  0.7111 -0.4533  0.3506
 5121SOL    HW118894   4.643   5.790   4.825  1.4942  0.4715  0.8559
 5121SOL    HW218895   4.606   5.885   4.938 -0.9495  0.0433  0.4773
 5122SOL     OW18896   2.373  11.009   2.986 -0.2749 -0.0589  0.3094
 5122SOL    HW118897   2.432  10.938   2.964 -1.2919 -0.6736 -0.4936
 5122SOL    HW218898   2.296  10.966   3.022 -1.7246  0.4580 -2.0001
 5123SOL     OW18899   2.472   9.906   1.100 -0.0446  0.6085 -0.1975
 5123SOL    HW118900   2.474   9.811   1.103 -0.7449  0.5989  0.3611
 5123SOL    HW218901   2.445   9.932   1.189  2.2777  1.4047  0.3283
 5124SOL     OW18902  10.595   6.305   9.108 -0.2059 -0.5280 -0.3361
 5124SOL    HW118903  10.690   6.301   9.115 -0.2085  0.3828  0.3398
 5124SOL    HW218904  10.570   6.218   9.076  0.6848 -1.4636  1.3876
 5125SOL     OW18905   9.490   6.752   9.578  0.6880 -0.2042  0.0964
 5125SOL    HW118906   9.548   6.809   9.627  0.2458  0.9768 -0.7156
 5125SOL    HW218907   9.402   6.785   9.596  0.5110  0.1776 -1.3684
 5126SOL     OW18908   1.097   5.425   9.632 -0.0230 -0.6302 -0.4595
 5126SOL    HW118909   1.163   5.494   9.633 -0.2454 -0.3999  1.1167
 5126SOL    HW218910   1.030   5.455   9.693 -0.7891 -1.6142 -0.7945
 5127SOL     OW18911   4.386   8.205  10.873  0.2684 -0.0021  0.0187
 5127SOL    HW118912   4.383   8.222  10.967 -3.1229 -0.8907  0.1971
 5127SOL    HW218913   4.336   8.124  10.861 -0.2025  0.5712 -2.6308
 5128SOL     OW18914   6.156   2.227   6.280 -0.5043  0.4687  1.2337
 5128SOL    HW118915   6.092   2.228   6.351  0.3196 -1.0553  2.0386
 5128SOL    HW218916   6.238   2.199   6.321  0.5032  1.5248  0.0595
 5129SOL     OW18917   0.610   8.476   8.032 -0.6045  0.2064 -0.3195
 5129SOL    HW118918   0.657   8.548   7.989 -1.1590  0.0719 -1.1605
 5129SOL    HW218919   0.662   8.399   8.012  0.1821  0.3975  0.8739
 5130SOL     OW18920   0.624   8.284   0.646 -0.0271 -0.0999  0.2740
 5130SOL    HW118921   0.619   8.284   0.551  0.3444  1.5884  0.2226
 5130SOL    HW218922   0.714   8.309   0.666 -0.0530 -0.5954  1.0795
 5131SOL     OW18923   4.482   6.218   6.912  0.2930 -0.1616 -0.2015
 5131SOL    HW118924   4.428   6.141   6.925 -3.2702  1.7171 -2.2317
 5131SOL    HW218925   4.442   6.285   6.968  1.9177  0.8093 -0.1247
 5132SOL     OW18926   1.196   8.449  11.054  0.3254 -0.8489  0.1510
 5132SOL    HW118927   1.102   8.461  11.040  0.4689 -0.7736 -0.7710
 5132SOL    HW218928   1.237   8.515  10.999  0.9490 -1.5668 -0.2545
 5133SOL     OW18929   4.083   4.892   5.115 -0.0565  0.2097 -0.4141
 5133SOL    HW118930   4.104   4.858   5.202  0.7636  0.9563 -0.3074
 5133SOL    HW218931   3.990   4.871   5.103 -0.0349 -0.3943  0.4082
 5134SOL     OW18932   2.824   3.352   6.958  0.2038  0.5055 -0.4885
 5134SOL    HW118933   2.868   3.337   6.875  2.3775 -0.2330  0.7349
 5134SOL    HW218934   2.879   3.415   7.003 -0.1043 -0.2619  1.0151
 5135SOL     OW18935   9.904  10.082   1.918  0.0521 -0.1461  0.0962
 5135SOL    HW118936   9.832  10.114   1.973 -0.1953  0.4471 -0.5672
 5135SOL    HW218937   9.894  10.129   1.835  2.2830  1.3518  0.5864
 5136SOL     OW18938   3.430   1.259   8.586 -0.3325  0.2906  0.6269
 5136SOL    HW118939   3.421   1.346   8.625  0.0268  0.5740  0.0833
 5136SOL    HW218940   3.344   1.219   8.597 -1.0110  1.3390 -0.6181
 5137SOL     OW18941   7.099   4.690   6.452  0.3141  0.0722  0.1493
 5137SOL    HW118942   7.090   4.608   6.501 -1.8795  0.5421  0.6451
 5137SOL    HW218943   7.077   4.758   6.516  0.1631  0.9053 -0.7771
 5138SOL     OW18944   5.428   1.296   5.177  0.0222 -0.4003  0.1714
 5138SOL    HW118945   5.466   1.379   5.150 -0.4732 -0.2688 -0.1461
 5138SOL    HW218946   5.451   1.288   5.269 -1.8442  1.2099  0.8492
 5139SOL     OW18947   9.213   9.777   0.001 -0.6156 -0.1990  0.2014
 5139SOL    HW118948   9.276   9.720  -0.045 -0.3489 -0.7342  1.1957
 5139SOL    HW218949   9.213   9.858  -0.050 -0.7096 -0.9432 -1.0292
 5140SOL     OW18950   6.611   0.821   0.054 -0.1571 -0.1226 -0.1569
 5140SOL    HW118951   6.599   0.831   0.148 -0.1605  0.6391 -0.2352
 5140SOL    HW218952   6.705   0.803   0.043  0.6241  3.3091 -0.2432
 5141SOL     OW18953   9.936   3.313   0.592  0.3905  0.0134  0.4745
 5141SOL    HW118954   9.946   3.394   0.543 -0.6456 -0.5425 -0.7372
 5141SOL    HW218955   9.866   3.331   0.655  0.0080  0.0133  0.0572
 5142SOL     OW18956   6.096   0.324   2.490 -0.6973 -0.0705 -0.0107
 5142SOL    HW118957   6.025   0.348   2.550  0.1398  0.6727  0.7264
 5142SOL    HW218958   6.060   0.255   2.435 -1.7616 -0.1864  0.8092
 5143SOL     OW18959   3.118   2.639   6.513  0.0517  0.0597 -0.5157
 5143SOL    HW118960   3.022   2.644   6.517  0.0411 -0.4679  0.1119
 5143SOL    HW218961   3.141   2.691   6.436 -0.6733  0.9961 -0.1257
 5144SOL     OW18962   4.462   2.735   8.089  0.7105  0.0786 -0.8269
 5144SOL    HW118963   4.425   2.792   8.156  3.2426  0.2017  0.5957
 5144SOL    HW218964   4.532   2.787   8.049  0.8390 -0.8617 -1.8782
 5145SOL     OW18965  10.506   7.927   5.549 -0.6215 -0.3710  0.5339
 5145SOL    HW118966  10.561   8.004   5.537  0.3631 -1.2307 -0.7317
 5145SOL    HW218967  10.566   7.858   5.577 -1.0007 -1.3454 -0.9271
 5146SOL     OW18968   7.662   9.648   0.028  0.1461  0.2553  0.4045
 5146SOL    HW118969   7.615   9.567   0.045 -0.3373  0.6302  0.8915
 5146SOL    HW218970   7.616   9.689  -0.046  0.0679  0.3382  0.4995
 5147SOL     OW18971   3.140   7.195  10.015  0.5258 -0.1472  0.5050
 5147SOL    HW118972   3.155   7.226   9.925  0.7203 -1.2244  0.1619
 5147SOL    HW218973   3.200   7.247  10.068 -0.4831  1.4131  0.1993
 5148SOL     OW18974   6.168   4.909   2.054 -0.3644  0.3830  0.2393
 5148SOL    HW118975   6.251   4.904   2.007  0.4548 -2.4753  1.7362
 5148SOL    HW218976   6.176   4.985   2.111  1.3580 -0.0045  0.5506
 5149SOL     OW18977   5.154   5.768   2.310 -0.2170  0.0258  0.3363
 5149SOL    HW118978   5.176   5.838   2.248  0.4846  0.4885  1.0831
 5149SOL    HW218979   5.174   5.805   2.396 -2.1593 -0.2428  0.9367
 5150SOL     OW18980   8.609   6.076   4.318 -0.3050  0.1008 -0.2498
 5150SOL    HW118981   8.667   6.010   4.357  0.5136  0.1805 -1.2875
 5150SOL    HW218982   8.523   6.059   4.358  0.5098  0.3261  1.7324
 5151SOL     OW18983   8.568   8.985  10.795  0.1854  0.4084  0.3229
 5151SOL    HW118984   8.580   8.982  10.700  0.0080 -0.8242  0.3325
 5151SOL    HW218985   8.583   8.895  10.824 -1.3584  0.4324  1.2657
 5152SOL     OW18986   9.525   1.962   3.357 -0.2176 -0.2574  0.1304
 5152SOL    HW118987   9.482   2.028   3.303 -1.1210 -1.1921 -0.3318
 5152SOL    HW218988   9.600   1.933   3.305  1.7518  2.1550  1.3914
 5153SOL     OW18989   1.044   1.871   0.112 -0.2525 -0.0538 -0.9716
 5153SOL    HW118990   0.960   1.915   0.127 -0.0739 -0.4709  1.8573
 5153SOL    HW218991   1.037   1.788   0.160  2.1301  0.4175  0.3694
 5154SOL     OW18992   6.953   3.111  10.025  0.3018 -0.2335  0.1332
 5154SOL    HW118993   6.940   3.142   9.936 -1.5584 -0.9573  0.1103
 5154SOL    HW218994   6.882   3.151  10.075 -0.8580 -2.6116  0.5346
 5155SOL     OW18995   4.685  10.872   0.066  0.0400 -0.4206  0.1232
 5155SOL    HW118996   4.594  10.900   0.056 -0.0621 -0.7031  0.2551
 5155SOL    HW218997   4.707  10.896   0.156 -0.3848 -1.7099  0.5920
 5156SOL     OW18998   0.188   2.546   0.938  0.2762  0.6572 -0.2224
 5156SOL    HW118999   0.217   2.628   0.900  1.1120  0.3451 -0.2754
 5156SOL    HW219000   0.111   2.569   0.989 -0.1162  1.2953 -1.0800
 5157SOL     OW19001   9.816   7.159   9.040 -0.5020 -0.1568 -0.2449
 5157SOL    HW119002   9.759   7.235   9.030 -1.4088 -0.7942 -0.0342
 5157SOL    HW219003   9.878   7.184   9.109 -1.0298  0.2527  0.0886
 5158SOL     OW19004   4.381   4.643   4.597 -0.5093  0.2107 -0.1190
 5158SOL    HW119005   4.470   4.654   4.564 -0.4299 -0.4045 -0.1288
 5158SOL    HW219006   4.339   4.585   4.533 -0.3734 -0.9383  0.7866
 5159SOL     OW19007   6.679   4.512   8.832  0.0059  0.1392 -0.1561
 5159SOL    HW119008   6.770   4.483   8.828 -0.5584 -1.7699 -0.1824
 5159SOL    HW219009   6.652   4.495   8.922 -1.0077 -1.6587 -0.7541
 5160SOL     OW19010   2.768   0.731   2.530 -0.4553 -0.4168  0.1596
 5160SOL    HW119011   2.736   0.795   2.466  0.0434  0.2198  0.5316
 5160SOL    HW219012   2.787   0.653   2.478  1.0094  0.4510 -0.6812
 5161SOL     OW19013   0.697   8.297   6.878  0.5944 -0.2202 -0.3242
 5161SOL    HW119014   0.663   8.313   6.790  0.8438  0.0934 -0.3682
 5161SOL    HW219015   0.620   8.286   6.933  0.3883  1.5631 -0.2184
 5162SOL     OW19016   8.124   9.941   8.330 -0.2681  0.1888 -0.0200
 5162SOL    HW119017   8.164   9.873   8.276  1.4800  1.4327 -0.4065
 5162SOL    HW219018   8.197   9.977   8.381 -1.3778  0.9315  1.1001
 5163SOL     OW19019   3.058   8.762   8.425  0.5178 -0.0622  0.4419
 5163SOL    HW119020   3.061   8.843   8.373  2.2240 -0.6086 -0.3789
 5163SOL    HW219021   3.041   8.693   8.360 -1.4411 -0.3477  1.2008
 5164SOL     OW19022   6.763   7.804  10.856  0.1425  0.4398  0.2439
 5164SOL    HW119023   6.728   7.719  10.830  1.3245 -0.1629  0.5240
 5164SOL    HW219024   6.856   7.799  10.832  0.4457  1.2579  1.2067
 5165SOL     OW19025   0.970   9.000   1.952  0.0663 -0.1661  0.0403
 5165SOL    HW119026   0.914   9.061   1.999  0.3707  0.5121 -0.4632
 5165SOL    HW219027   0.957   8.916   1.996 -1.7471 -0.1502 -0.3881
 5166SOL     OW19028   1.318   9.291   4.481 -0.1440 -0.3208 -0.1586
 5166SOL    HW119029   1.390   9.314   4.540 -2.5720  0.7439  2.6472
 5166SOL    HW219030   1.300   9.199   4.502  1.2584 -1.1091 -2.0228
 5167SOL     OW19031   1.020  10.552   1.151 -0.2527  0.2346  0.1458
 5167SOL    HW119032   0.962  10.534   1.224 -0.7983  0.0566 -0.3245
 5167SOL    HW219033   1.030  10.467   1.107  1.1765  0.0413  0.7995
 5168SOL     OW19034   0.595   6.003   4.857 -0.0836 -0.0896  0.1614
 5168SOL    HW119035   0.523   5.945   4.830  0.2008 -0.9938  1.2510
 5168SOL    HW219036   0.603   5.987   4.951  0.5121  1.1816  0.3388
 5169SOL     OW19037   8.458   8.569   2.926 -0.0511 -0.2009 -0.0875
 5169SOL    HW119038   8.415   8.511   2.989  0.1577  0.7010  0.9169
 5169SOL    HW219039   8.497   8.510   2.862 -0.8269 -1.1228  0.2599
 5170SOL     OW19040   9.476   5.360   4.097  0.2287 -0.0905 -0.1244
 5170SOL    HW119041   9.532   5.331   4.169 -1.3593 -1.8694  0.4943
 5170SOL    HW219042   9.410   5.415   4.140  1.9471  2.9092 -0.9882
 5171SOL     OW19043   4.835   5.349   0.050 -0.5195 -0.5176 -0.2122
 5171SOL    HW119044   4.756   5.372   0.001 -0.3505  1.1508  0.2251
 5171SOL    HW219045   4.857   5.429   0.099  0.1069 -1.6774  1.5020
 5172SOL     OW19046   5.380   6.779   7.561 -0.4162 -0.9210  0.1661
 5172SOL    HW119047   5.417   6.693   7.540 -2.3177 -1.5820 -0.7223
 5172SOL    HW219048   5.435   6.841   7.514  0.0471 -1.7942 -0.4852
 5173SOL     OW19049   3.388   7.797   8.865 -0.1664 -0.3948 -0.3331
 5173SOL    HW119050   3.383   7.737   8.791  0.7513 -0.3968 -0.4127
 5173SOL    HW219051   3.311   7.777   8.918 -0.6610 -0.6142 -1.1138
 5174SOL     OW19052   1.206   6.877   8.058 -0.6784  0.2234  0.4226
 5174SOL    HW119053   1.227   6.785   8.041 -2.0791 -0.3877  1.8654
 5174SOL    HW219054   1.291   6.918   8.074  0.0311 -0.6326 -0.9044
 5175SOL     OW19055   2.820   0.163   6.555  0.2403 -0.2088  0.1889
 5175SOL    HW119056   2.794   0.198   6.470 -0.8479  0.8535  0.9320
 5175SOL    HW219057   2.915   0.172   6.556  0.2853 -0.3592 -0.9583
 5176SOL     OW19058  10.289  10.229   3.400 -0.3574 -0.3018  0.5063
 5176SOL    HW119059  10.365  10.202   3.452 -0.4664 -1.3992  0.1162
 5176SOL    HW219060  10.234  10.151   3.395 -1.3458  0.3768  0.4732
 5177SOL     OW19061  11.054   7.032   2.837  0.0894  0.3134  0.5211
 5177SOL    HW119062  10.962   7.010   2.825  0.4847 -0.6047 -1.2113
 5177SOL    HW219063  11.090   7.035   2.748  2.3117 -2.0748  1.1990
 5178SOL     OW19064  10.413   6.062   9.386 -0.4371 -0.4318 -0.0243
 5178SOL    HW119065  10.378   5.973   9.397 -1.6925 -0.0152 -0.5095
 5178SOL    HW219066  10.507   6.049   9.374 -0.6584 -1.7341 -0.5153
 5179SOL     OW19067  10.384  10.447   1.682 -0.0809 -0.0118  0.1528
 5179SOL    HW119068  10.459  10.430   1.739  2.3769  3.2077 -1.7925
 5179SOL    HW219069  10.418  10.433   1.594 -1.8261  1.3595 -0.7830
 5180SOL     OW19070   4.467   0.316   1.446 -0.7025  0.4718 -0.0195
 5180SOL    HW119071   4.497   0.373   1.375 -0.3906  0.2169 -0.0926
 5180SOL    HW219072   4.435   0.377   1.513  1.1431  0.8242  0.5928
 5181SOL     OW19073   5.006   0.674   9.036 -0.1113  0.1560 -0.1211
 5181SOL    HW119074   4.930   0.651   8.982  1.6266 -0.9410 -2.2744
 5181SOL    HW219075   5.065   0.720   8.975  1.4833 -0.1398  1.1342
 5182SOL     OW19076   3.204   6.424   7.189  0.0832 -0.3684 -0.3576
 5182SOL    HW119077   3.292   6.389   7.176  0.0633 -0.4613 -0.2422
 5182SOL    HW219078   3.151   6.347   7.210  0.0870 -0.2397  0.1435
 5183SOL     OW19079   6.904   3.037   6.491  0.4548 -0.1108  0.1451
 5183SOL    HW119080   6.977   2.991   6.449 -0.0840  1.1964 -2.3865
 5183SOL    HW219081   6.830   3.024   6.432 -1.3986 -1.1972  2.5317
 5184SOL     OW19082   4.561   7.263   3.803 -0.1561 -0.0867 -0.2550
 5184SOL    HW119083   4.525   7.272   3.891 -0.9224  1.5314 -0.6991
 5184SOL    HW219084   4.600   7.349   3.784 -0.1930 -0.3410 -1.5775
 5185SOL     OW19085   8.578   7.515   9.357  0.1731  0.3438 -0.0554
 5185SOL    HW119086   8.641   7.520   9.429 -0.8219  1.5608  0.7744
 5185SOL    HW219087   8.548   7.605   9.346 -2.1785 -0.3382  0.2961
 5186SOL     OW19088   9.922  10.952   3.784 -0.4394 -0.0879  0.7163
 5186SOL    HW119089   9.837  10.948   3.741 -0.3670 -0.5397  0.6115
 5186SOL    HW219090   9.902  10.941   3.877 -0.2643 -3.2691  0.4692
 5187SOL     OW19091   1.004   3.552   6.336 -0.6219  0.4374  0.3692
 5187SOL    HW119092   0.921   3.578   6.377  0.3858 -0.9399  3.6164
 5187SOL    HW219093   1.023   3.466   6.373  1.0913 -0.4464 -2.2315
 5188SOL     OW19094   6.950   6.985   7.323 -0.1100  0.3427 -0.5110
 5188SOL    HW119095   6.981   7.018   7.238 -1.9447  0.2674 -1.2418
 5188SOL    HW219096   6.975   6.893   7.323  1.4597  0.7260 -0.1731
 5189SOL     OW19097  10.849   9.950   2.908 -0.5609 -0.3033  0.2733
 5189SOL    HW119098  10.908   9.880   2.939  0.6794  1.4242  2.0656
 5189SOL    HW219099  10.854   9.944   2.813  0.9796 -1.4907  0.3748
 5190SOL     OW19100   8.090   0.268   6.737 -0.6158  0.1648 -0.2657
 5190SOL    HW119101   8.174   0.286   6.778  0.4925 -1.4440 -1.6699
 5190SOL    HW219102   8.100   0.299   6.647 -1.0276 -1.2096 -0.8102
 5191SOL     OW19103   1.317   8.020   1.199  0.0299  0.0848  0.5821
 5191SOL    HW119104   1.398   7.991   1.242 -0.3697 -0.4268  1.0071
 5191SOL    HW219105   1.284   7.941   1.156 -0.6290  0.1080  1.0356
 5192SOL     OW19106   6.447   9.440   3.511 -0.3985 -0.6532 -0.7011
 5192SOL    HW119107   6.375   9.451   3.573 -0.3239  2.3928 -0.9961
 5192SOL    HW219108   6.405   9.444   3.425 -0.3924 -3.9654 -0.9675
 5193SOL     OW19109   7.785   1.535   4.264  0.3793  0.1041 -0.0394
 5193SOL    HW119110   7.762   1.442   4.259 -0.4941  0.3254 -0.3529
 5193SOL    HW219111   7.842   1.542   4.340  1.6639 -0.9316 -0.8418
 5194SOL     OW19112   9.758   4.204   3.474 -0.0493  0.2647  0.0543
 5194SOL    HW119113   9.664   4.219   3.466 -0.6081 -2.2601  1.0046
 5194SOL    HW219114   9.766   4.111   3.496  2.7441  0.1050 -1.2116
 5195SOL     OW19115   2.234   6.609   2.451 -0.2236  0.0565 -0.0891
 5195SOL    HW119116   2.153   6.611   2.501  0.6004 -2.8755  1.6368
 5195SOL    HW219117   2.220   6.541   2.385  0.6887 -0.3163  0.0715
 5196SOL     OW19118   3.414  10.518   5.777 -0.1126 -0.3723 -0.0575
 5196SOL    HW119119   3.424  10.585   5.845  0.2426 -1.6981  1.2609
 5196SOL    HW219120   3.498  10.517   5.731  0.2054 -0.5161  0.5144
 5197SOL     OW19121  10.245   0.213   9.889 -0.0991  0.0505 -0.1065
 5197SOL    HW119122  10.180   0.219   9.820  0.2990 -1.8869 -0.7072
 5197SOL    HW219123  10.256   0.120   9.905  1.5291  0.3609  0.9519
 5198SOL     OW19124   3.071   8.986   7.511 -0.3995 -0.0258 -0.1215
 5198SOL    HW119125   3.003   8.996   7.578  0.3238  0.2971  0.5843
 5198SOL    HW219126   3.035   9.030   7.434 -0.4822  1.2898  0.6216
 5199SOL     OW19127  10.937   9.416   8.222 -0.2040 -0.5225 -0.1019
 5199SOL    HW119128  10.967   9.418   8.312  1.0637  0.2112 -0.5210
 5199SOL    HW219129  10.986   9.485   8.178  0.7534 -2.1751 -1.8124
 5200SOL     OW19130   6.868  10.871   8.413 -0.6975 -0.3526  0.0496
 5200SOL    HW119131   6.788  10.828   8.446 -0.6576 -1.4686 -1.1915
 5200SOL    HW219132   6.935  10.849   8.477 -0.9320 -1.2306  0.0109
 5201SOL     OW19133   6.048   7.306  10.692 -0.2686  0.2309  0.4956
 5201SOL    HW119134   6.045   7.220  10.651 -0.7998  1.5703 -2.5918
 5201SOL    HW219135   6.142   7.328  10.694 -0.2725  0.5441 -1.1043
 5202SOL     OW19136   6.622   8.394   6.115 -0.2682  0.2838 -0.3629
 5202SOL    HW119137   6.630   8.488   6.100  0.4208  0.0391 -1.6169
 5202SOL    HW219138   6.617   8.385   6.210  0.9918  1.4880 -0.1646
 5203SOL     OW19139   0.261   1.335   9.662  0.3640 -0.3390  0.1848
 5203SOL    HW119140   0.168   1.326   9.684  0.0207  0.0016 -1.0940
 5203SOL    HW219141   0.295   1.246   9.667 -0.2481 -0.6041 -0.2860
 5204SOL     OW19142   8.951   3.749   5.109 -0.4769 -0.6952  0.0116
 5204SOL    HW119143   8.913   3.662   5.120 -1.5870 -0.1001  0.9969
 5204SOL    HW219144   8.958   3.785   5.197 -0.8241  0.5469 -0.4383
 5205SOL     OW19145   3.442   5.827   9.791 -0.1919 -0.0319 -0.5803
 5205SOL    HW119146   3.409   5.871   9.713 -1.3868 -2.0945 -1.3198
 5205SOL    HW219147   3.411   5.881   9.864 -0.2966  1.1445 -1.4646
 5206SOL     OW19148   7.632   8.762   6.307  0.8549 -0.1830  0.0426
 5206SOL    HW119149   7.632   8.670   6.281  0.4422 -0.5729  1.3412
 5206SOL    HW219150   7.547   8.795   6.279  0.4475 -0.5750  0.7962
 5207SOL     OW19151   5.241   0.812   0.198  0.2683 -0.0142  0.0225
 5207SOL    HW119152   5.249   0.751   0.272  0.7655  0.1123  0.0746
 5207SOL    HW219153   5.153   0.847   0.206  1.1297  1.9362  2.0688
 5208SOL     OW19154   5.238   0.388   8.156  0.4229 -0.2845 -0.3281
 5208SOL    HW119155   5.298   0.349   8.220 -1.4727 -2.1662  0.4245
 5208SOL    HW219156   5.196   0.460   8.203  1.1548  0.2328 -0.4499
 5209SOL     OW19157   1.640   1.607   2.641 -0.0550  0.1680  0.2282
 5209SOL    HW119158   1.662   1.695   2.609  1.7322 -0.5820 -0.7545
 5209SOL    HW219159   1.552   1.591   2.609 -2.0582  3.0219  3.6171
 5210SOL     OW19160  10.442   3.610  10.003  0.4407 -0.2347  0.3111
 5210SOL    HW119161  10.511   3.601   9.937  0.3389 -1.1218  0.3077
 5210SOL    HW219162  10.467   3.548  10.072  0.4835  0.5927  1.0556
 5211SOL     OW19163  10.324   2.071   5.412  0.3570  0.2033 -0.0789
 5211SOL    HW119164  10.295   1.988   5.376 -1.4970  0.7784  0.0023
 5211SOL    HW219165  10.252   2.132   5.394  0.9577  1.3884  1.3208
 5212SOL     OW19166   2.435   5.164   0.488 -0.0138 -0.2181 -0.6981
 5212SOL    HW119167   2.457   5.216   0.565 -0.4611  0.1034 -0.7843
 5212SOL    HW219168   2.516   5.164   0.436  0.8279 -1.7962  0.5008
 5213SOL     OW19169   9.098   5.292   2.243 -0.1091  0.5353  0.3094
 5213SOL    HW119170   9.142   5.237   2.309  1.7140 -0.1994 -1.4203
 5213SOL    HW219171   9.143   5.377   2.249  0.6319  0.2112 -0.5244
 5214SOL     OW19172   0.290   0.132   9.680 -0.4238 -0.0992  0.2412
 5214SOL    HW119173   0.208   0.134   9.630  0.6775 -0.5681 -1.6912
 5214SOL    HW219174   0.310   0.039   9.690 -0.2446  0.0082  0.9580
 5215SOL     OW19175   7.050   6.122   7.077  0.1541  0.4234 -0.8527
 5215SOL    HW119176   7.114   6.191   7.093 -0.0641  0.7767 -1.4692
 5215SOL    HW219177   7.009   6.107   7.162 -0.2683  1.5305 -0.8404
 5216SOL     OW19178   4.476  10.068  11.057  0.0869  0.1912 -0.1858
 5216SOL    HW119179   4.489  10.092  11.149 -1.0936 -0.9926  0.3356
 5216SOL    HW219180   4.559  10.028  11.031  0.5892  0.9485  0.2078
 5217SOL     OW19181  10.182   5.656   9.282 -0.0112 -1.1251 -1.0327
 5217SOL    HW119182  10.093   5.691   9.273  0.5718  0.7096 -0.2679
 5217SOL    HW219183  10.175   5.564   9.260 -2.6330 -1.6767  1.6109
 5218SOL     OW19184   2.140   6.248  10.657  0.1184  0.4298  0.0476
 5218SOL    HW119185   2.123   6.174  10.599  2.0558  0.3228 -0.4577
 5218SOL    HW219186   2.107   6.324  10.609 -0.6244  0.0594 -0.0406
 5219SOL     OW19187   3.729   7.111   5.941 -0.0515 -0.1334  0.1206
 5219SOL    HW119188   3.634   7.110   5.950 -0.1531 -0.9551 -0.8256
 5219SOL    HW219189   3.757   7.029   5.983  0.2591  0.1679  0.5120
 5220SOL     OW19190   4.304   0.629   6.666 -0.2590  0.8811 -0.2081
 5220SOL    HW119191   4.273   0.719   6.677  0.5923  0.9457  2.3546
 5220SOL    HW219192   4.399   0.637   6.658 -0.1461  0.2037  0.3762
 5221SOL     OW19193   0.484   5.389   6.102  0.1159  0.4306 -0.1908
 5221SOL    HW119194   0.476   5.418   6.011  2.3320  1.2399 -0.1810
 5221SOL    HW219195   0.517   5.466   6.149 -0.3615 -0.1740  1.1813
 5222SOL     OW19196   3.046   0.940   1.330  1.0262 -0.1921  0.2949
 5222SOL    HW119197   2.959   0.900   1.337  1.1566 -0.4895  0.2688
 5222SOL    HW219198   3.056   0.991   1.411 -0.1018  1.7680 -0.7343
 5223SOL     OW19199   7.645   0.765   1.296  0.1039  0.4186  0.2471
 5223SOL    HW119200   7.686   0.688   1.256  1.4780  0.4793  1.4344
 5223SOL    HW219201   7.580   0.729   1.356  0.4036  0.1997  0.4422
 5224SOL     OW19202   0.701  10.394   4.742 -0.3377 -0.0874 -0.0233
 5224SOL    HW119203   0.691  10.322   4.804  1.5740  1.3590  2.1120
 5224SOL    HW219204   0.636  10.458   4.770 -0.2047  0.1236 -0.1944
 5225SOL     OW19205   6.731   9.367   3.235 -0.1257 -0.1402  0.0830
 5225SOL    HW119206   6.762   9.427   3.168  1.6812 -1.5881 -0.4660
 5225SOL    HW219207   6.773   9.397   3.316  0.7936 -0.6218 -0.1952
 5226SOL     OW19208   7.536   0.350   6.193 -0.0071  0.0073 -0.2697
 5226SOL    HW119209   7.602   0.411   6.158 -0.6798  1.1074  0.3304
 5226SOL    HW219210   7.533   0.368   6.287 -2.0883  0.9589 -0.4496
 5227SOL     OW19211   1.323   2.526   7.586  0.1635  0.8393  0.0104
 5227SOL    HW119212   1.291   2.550   7.499 -2.7173  0.0152  0.7188
 5227SOL    HW219213   1.303   2.602   7.640  0.2958  0.6648  0.3052
 5228SOL     OW19214   1.756   1.824   4.431  0.1212  0.5787 -0.1180
 5228SOL    HW119215   1.795   1.904   4.466 -0.0721  0.3211  0.7020
 5228SOL    HW219216   1.804   1.753   4.472 -0.1526  0.2679 -0.3279
 5229SOL     OW19217   0.515   1.546   2.775 -0.1262  0.0364  0.2041
 5229SOL    HW119218   0.455   1.479   2.806 -0.0891 -0.1302 -0.0827
 5229SOL    HW219219   0.578   1.557   2.846 -0.3555  0.0385  0.4046
 5230SOL     OW19220   0.413   2.602   9.350 -0.1944  0.9851  0.4253
 5230SOL    HW119221   0.412   2.515   9.311 -0.3244  1.6158 -1.0504
 5230SOL    HW219222   0.320   2.626   9.357 -0.1415  1.4331 -0.2367
 5231SOL     OW19223   9.130   0.116   7.556  0.0858  0.2718 -0.1096
 5231SOL    HW119224   9.079   0.117   7.475 -0.6081  2.7898  0.2695
 5231SOL    HW219225   9.221   0.129   7.527 -0.2045  1.5894 -0.5187
 5232SOL     OW19226   3.517   1.915   9.410  0.4379 -0.1305  0.1867
 5232SOL    HW119227   3.509   1.975   9.337  1.6415 -1.5172 -1.1523
 5232SOL    HW219228   3.470   1.958   9.482  0.1560  1.7659 -1.0640
 5233SOL     OW19229   2.941   9.732   2.595  0.0520  0.3639 -0.0787
 5233SOL    HW119230   2.997   9.671   2.547  0.9662  0.6745  0.5673
 5233SOL    HW219231   2.878   9.763   2.530  0.1615 -0.5469 -0.6415
 5234SOL     OW19232  10.335   7.065   0.529 -1.1347 -0.0250  0.1750
 5234SOL    HW119233  10.308   7.149   0.568 -0.3036  0.1044  0.5015
 5234SOL    HW219234  10.303   7.070   0.439 -3.0595 -0.3128  0.7879
 5235SOL     OW19235   2.265   4.354   9.474  0.2865  0.1682  0.1225
 5235SOL    HW119236   2.208   4.311   9.537  0.6372 -0.2524  0.1586
 5235SOL    HW219237   2.212   4.424   9.436 -0.0819  0.1099  0.5283
 5236SOL     OW19238   8.939  11.097   2.327  0.3001  0.5824  0.0842
 5236SOL    HW119239   8.865  11.112   2.386  0.1777 -2.3888  0.8571
 5236SOL    HW219240   9.016  11.103   2.383  0.2845 -0.7677  0.2849
 5237SOL     OW19241   5.746   7.734   9.931  0.4534 -0.2953  0.1223
 5237SOL    HW119242   5.777   7.657   9.979 -1.4053 -1.0440  0.2013
 5237SOL    HW219243   5.652   7.739   9.951  0.0998  0.7257 -1.5993
 5238SOL     OW19244   9.632   9.589   2.723 -0.0420  0.4893  0.5520
 5238SOL    HW119245   9.637   9.568   2.630  0.2576  0.5661  0.5506
 5238SOL    HW219246   9.624   9.684   2.726 -1.0861  0.4119  0.5699
 5239SOL     OW19247  11.110   1.322   4.940  0.9315  0.1088  0.2621
 5239SOL    HW119248  11.175   1.252   4.937 -0.6465 -1.3816 -1.0919
 5239SOL    HW219249  11.074   1.318   5.029  0.4805 -1.1998  0.0412
 5240SOL     OW19250   7.162   2.966   0.496  0.3706  0.0202  0.5689
 5240SOL    HW119251   7.093   3.020   0.456  1.7863  1.3852 -0.1433
 5240SOL    HW219252   7.125   2.938   0.579 -1.0772  0.6326  0.1690
 5241SOL     OW19253   8.266   4.524   4.891 -0.4122  0.2449 -0.2122
 5241SOL    HW119254   8.192   4.520   4.830 -0.2048 -1.6537 -0.4174
 5241SOL    HW219255   8.343   4.519   4.834 -0.1514  0.9164  0.0768
 5242SOL     OW19256   2.558   3.764  10.055  0.4244 -0.1070  0.3492
 5242SOL    HW119257   2.599   3.746   9.970 -0.0112 -1.5912  0.4216
 5242SOL    HW219258   2.567   3.682  10.103  0.2671  0.5785  1.5785
 5243SOL     OW19259   3.688   0.263   4.595 -0.4164  0.1360  0.1199
 5243SOL    HW119260   3.657   0.335   4.650 -2.5445  0.6088 -1.5654
 5243SOL    HW219261   3.615   0.201   4.594  0.0840 -0.4614 -1.1545
 5244SOL     OW19262   8.291   9.051   3.021 -0.5800 -0.5306  0.0408
 5244SOL    HW119263   8.317   8.959   3.022  0.6743 -0.2223 -1.0964
 5244SOL    HW219264   8.231   9.058   2.947  0.9665 -0.0663 -1.2287
 5245SOL     OW19265   0.327   2.014   2.186  0.4767 -0.2046 -0.2178
 5245SOL    HW119266   0.338   1.934   2.237 -0.5103 -0.2833 -0.1066
 5245SOL    HW219267   0.232   2.025   2.179  0.5823 -0.0673 -1.8287
 5246SOL     OW19268   7.684   5.117   1.625 -0.2020 -0.1143 -0.5815
 5246SOL    HW119269   7.679   5.031   1.582 -0.6523 -0.1855 -0.3958
 5246SOL    HW219270   7.748   5.165   1.574  1.6765 -1.2641  0.5832
 5247SOL     OW19271  10.127  10.964   6.064  0.2822 -0.1553  0.1008
 5247SOL    HW119272  10.034  10.948   6.080 -0.0108  0.3158 -1.0671
 5247SOL    HW219273  10.138  11.058   6.081  0.6991 -0.3408  0.9078
 5248SOL     OW19274   0.586   7.748   2.899 -0.3391  0.6154 -0.3635
 5248SOL    HW119275   0.545   7.775   2.981 -0.6811  1.6798 -0.8727
 5248SOL    HW219276   0.545   7.802   2.832 -0.9688 -1.1071 -1.4289
 5249SOL     OW19277   3.912   7.341   6.903  0.4766 -0.4031 -0.4860
 5249SOL    HW119278   3.891   7.302   6.988 -0.2013  0.7052 -0.1224
 5249SOL    HW219279   4.001   7.374   6.913 -0.7376  2.8592  1.0662
 5250SOL     OW19280   7.614   9.832   8.678  0.4239  0.3225  0.1534
 5250SOL    HW119281   7.567   9.909   8.645 -0.2394  0.1532  0.6970
 5250SOL    HW219282   7.694   9.829   8.625 -0.6403  0.0181 -1.5324
 5251SOL     OW19283   6.306   7.430   1.998 -0.6416 -0.2055 -0.0343
 5251SOL    HW119284   6.239   7.492   2.026 -0.6934 -0.7551  1.0775
 5251SOL    HW219285   6.257   7.359   1.956 -0.6385  0.0765 -0.5313
 5252SOL     OW19286   6.402   7.956   9.664  0.3019  0.0253 -0.3403
 5252SOL    HW119287   6.447   7.872   9.670 -1.1146 -0.6790  1.6786
 5252SOL    HW219288   6.318   7.941   9.707  0.2209  2.6105  0.6042
 5253SOL     OW19289   8.138   6.333   4.648 -0.5337  0.3817  0.6143
 5253SOL    HW119290   8.113   6.250   4.690  0.3332 -0.6028 -0.7454
 5253SOL    HW219291   8.076   6.397   4.684 -3.6343 -1.5040 -0.9219
 5254SOL     OW19292   9.504   1.175   0.346 -0.4151  0.0039  0.1582
 5254SOL    HW119293   9.418   1.184   0.306 -0.7583  1.0739  1.0877
 5254SOL    HW219294   9.532   1.265   0.365  1.7504 -0.1467 -1.7723
 5255SOL     OW19295   7.596  10.219   7.937 -0.0516  0.4720 -0.3319
 5255SOL    HW119296   7.600  10.314   7.927  0.3435  0.5502  0.5046
 5255SOL    HW219297   7.602  10.185   7.847 -0.4272  1.2373 -0.6531
 5256SOL     OW19298   8.664   1.886   7.726  0.1429 -0.4238  0.0003
 5256SOL    HW119299   8.729   1.955   7.710 -0.1365  0.0112  0.6648
 5256SOL    HW219300   8.621   1.913   7.807 -1.2305 -0.4399 -0.7000
 5257SOL     OW19301   2.532   3.207   9.402  0.3913 -0.5098 -0.6452
 5257SOL    HW119302   2.499   3.274   9.463 -0.9741 -0.5870 -1.2521
 5257SOL    HW219303   2.564   3.257   9.327  1.3626 -0.4499 -0.1976
 5258SOL     OW19304   2.080  10.657   1.548 -0.0952  0.1401  0.1197
 5258SOL    HW119305   2.054  10.638   1.458  0.7591  1.9560 -0.5469
 5258SOL    HW219306   2.128  10.579   1.576 -0.7591 -0.6342 -0.8231
 5259SOL     OW19307   4.291   7.214   3.480 -0.0978  0.7081 -0.6003
 5259SOL    HW119308   4.348   7.272   3.430 -3.2663  2.5543 -2.3712
 5259SOL    HW219309   4.225   7.271   3.517 -1.0513 -1.3513  1.0738
 5260SOL     OW19310   7.823   6.078   4.589  0.1165 -0.6328  0.0766
 5260SOL    HW119311   7.811   6.155   4.645 -0.7441 -0.9942  0.4047
 5260SOL    HW219312   7.788   6.105   4.504 -0.7716 -0.8512  0.3587
 5261SOL     OW19313   8.369   8.454  10.213  0.4033 -0.0038  0.2915
 5261SOL    HW119314   8.392   8.488  10.127 -0.3494  0.8020  0.3937
 5261SOL    HW219315   8.309   8.381  10.195  1.0793 -0.5342  0.1150
 5262SOL     OW19316   1.893   4.088   7.444 -0.4638 -0.4864  0.5078
 5262SOL    HW119317   1.883   4.152   7.373  0.6240 -0.6861  0.1606
 5262SOL    HW219318   1.934   4.137   7.515 -0.0181 -0.6951  0.3941
 5263SOL     OW19319  10.398   0.387   0.053  0.2740  0.1251  0.1295
 5263SOL    HW119320  10.482   0.342   0.063 -0.6167 -1.5041  0.6778
 5263SOL    HW219321  10.360   0.349  -0.027 -0.1704  0.4551  0.1780
 5264SOL     OW19322   6.446   5.057   1.266  0.2343 -0.0569  0.2214
 5264SOL    HW119323   6.528   5.101   1.241  0.0170 -0.2738 -0.9050
 5264SOL    HW219324   6.431   4.993   1.197 -1.7209  1.0440 -0.4461
 5265SOL     OW19325   1.548   6.714   3.709  0.3092  0.3502 -0.3774
 5265SOL    HW119326   1.459   6.747   3.716  0.6898  1.0894  1.7478
 5265SOL    HW219327   1.572   6.691   3.799  2.1879 -0.0502 -0.9407
 5266SOL     OW19328   1.392   2.546   9.864  0.3723 -0.1943  0.1921
 5266SOL    HW119329   1.401   2.544   9.769  0.1485 -1.2928  0.1904
 5266SOL    HW219330   1.342   2.626   9.882  2.6568  1.4761 -0.4090
 5267SOL     OW19331   9.240   2.220   4.809 -0.3614  0.4888  0.0115
 5267SOL    HW119332   9.299   2.214   4.885  0.0432  0.7449 -0.2737
 5267SOL    HW219333   9.298   2.245   4.737 -0.6434 -0.3557 -0.5084
 5268SOL     OW19334   0.713  10.091  10.819 -0.2110  0.0983 -0.4666
 5268SOL    HW119335   0.618  10.101  10.809 -0.0842  1.2330 -0.7159
 5268SOL    HW219336   0.749  10.118  10.734  0.3009 -1.0822 -0.6355
 5269SOL     OW19337   7.102   1.358   6.293 -0.4449  0.2495  0.6899
 5269SOL    HW119338   7.175   1.396   6.243 -0.4970  2.3772  2.0877
 5269SOL    HW219339   7.144   1.305   6.361 -0.2805 -0.2415  0.2083
 5270SOL     OW19340   0.030   1.826   2.679 -0.0858 -0.4604 -0.3153
 5270SOL    HW119341  -0.024   1.905   2.674 -0.7336 -0.8812 -0.1556
 5270SOL    HW219342   0.119   1.858   2.689 -0.3508  0.2508 -0.1819
 5271SOL     OW19343   2.088   6.457   8.250 -0.0896 -0.3451 -0.4834
 5271SOL    HW119344   2.116   6.428   8.336  0.3228  0.6551 -0.2600
 5271SOL    HW219345   2.158   6.430   8.191  0.6100  0.7317 -0.1763
 5272SOL     OW19346   1.845   0.945   3.280 -0.1726 -0.2112 -0.6643
 5272SOL    HW119347   1.913   0.891   3.238  2.1212  1.3806  0.8001
 5272SOL    HW219348   1.837   1.022   3.224  0.5174  0.4060  0.0712
 5273SOL     OW19349  10.318   2.854   5.625 -0.1242 -0.9977  0.2692
 5273SOL    HW119350  10.376   2.903   5.683  0.2336 -0.8287 -0.2210
 5273SOL    HW219351  10.231   2.861   5.665  0.5737 -3.4264  2.4327
 5274SOL     OW19352   9.225   0.991   1.110  0.2716 -0.2048 -0.0063
 5274SOL    HW119353   9.300   0.976   1.052  1.4346  0.3139  1.3108
 5274SOL    HW219354   9.170   1.053   1.062 -0.2936 -1.9815 -1.7963
 5275SOL     OW19355  10.792   8.655   8.944  0.4561 -1.0450 -0.1281
 5275SOL    HW119356  10.779   8.625   9.034  1.1944 -0.6309  0.1239
 5275SOL    HW219357  10.741   8.594   8.891 -2.3019  0.3178  0.7537
 5276SOL     OW19358   8.007   7.127   9.053 -0.0128  0.4564 -0.1351
 5276SOL    HW119359   8.103   7.125   9.049  0.0602 -0.4463  1.3772
 5276SOL    HW219360   7.987   7.133   9.146 -1.4238 -2.0736 -0.1737
 5277SOL     OW19361   0.330   9.558   5.337 -0.1190  0.4089 -0.4118
 5277SOL    HW119362   0.278   9.637   5.325  0.7800  0.7350 -2.6135
 5277SOL    HW219363   0.419   9.589   5.354 -0.2911 -0.1610  1.9596
 5278SOL     OW19364   8.208   9.090   3.301  0.1890 -0.3726 -0.3990
 5278SOL    HW119365   8.237   9.124   3.216 -1.8386 -1.4222 -1.5817
 5278SOL    HW219366   8.250   9.004   3.308 -1.7614 -1.4902 -1.6806
 5279SOL     OW19367   1.304   5.417   5.198  0.4168 -0.4049  0.4501
 5279SOL    HW119368   1.356   5.480   5.148  1.1826  0.3051  2.0700
 5279SOL    HW219369   1.234   5.470   5.237 -0.6982 -1.1001 -0.5113
 5280SOL     OW19370  10.723   3.418   5.108  0.4660 -0.4503  0.1007
 5280SOL    HW119371  10.673   3.392   5.030  1.2654  1.8129 -1.2709
 5280SOL    HW219372  10.814   3.407   5.082  0.7447 -1.2537  1.3519
 5281SOL     OW19373   0.858  10.277   1.676  0.7446  0.5525 -0.2028
 5281SOL    HW119374   0.871  10.330   1.755  2.1115  1.4835 -0.9959
 5281SOL    HW219375   0.763  10.277   1.663  0.3296 -0.8958  2.2415
 5282SOL     OW19376   1.165  10.426   6.100  0.3919  0.1066 -0.4310
 5282SOL    HW119377   1.092  10.406   6.158  1.4758 -3.3166  0.0197
 5282SOL    HW219378   1.132  10.495   6.043 -2.3842  0.2656  1.1697
 5283SOL     OW19379   1.658   2.864  10.938 -0.7066 -0.1043  0.1802
 5283SOL    HW119380   1.646   2.928  10.868  1.5288  0.2791  0.0852
 5283SOL    HW219381   1.597   2.794  10.916 -2.1415  1.3078 -0.5262
 5284SOL     OW19382   7.888   9.149   5.699  0.3530 -0.1069 -0.0019
 5284SOL    HW119383   7.908   9.114   5.612 -1.1461 -0.3611 -0.2640
 5284SOL    HW219384   7.798   9.182   5.692  0.5314  0.6991  1.2021
 5285SOL     OW19385   0.796   8.201   4.241  0.8937 -0.3924 -0.3781
 5285SOL    HW119386   0.858   8.236   4.305 -0.6249  1.1400  0.3583
 5285SOL    HW219387   0.841   8.207   4.157  2.2067 -0.5793  0.2980
 5286SOL     OW19388   4.398   0.841   2.049 -0.6541  0.6107  0.7315
 5286SOL    HW119389   4.345   0.832   1.970 -0.5411  1.4462  0.5526
 5286SOL    HW219390   4.486   0.816   2.022 -0.6761  0.6044  0.6665
 5287SOL     OW19391   7.580  10.621   1.713  0.1900 -0.0217 -0.3997
 5287SOL    HW119392   7.670  10.627   1.742  0.3831 -0.7657 -0.8027
 5287SOL    HW219393   7.553  10.711   1.696  0.5942  0.2762  0.4775
 5288SOL     OW19394   8.164   2.878   7.227  0.4757 -0.3518  0.1881
 5288SOL    HW119395   8.137   2.950   7.171  0.8863 -0.0369  0.3963
 5288SOL    HW219396   8.230   2.831   7.176 -0.4877 -1.1548 -0.3436
 5289SOL     OW19397   3.677   7.113   1.232  0.3839  0.2729 -0.0398
 5289SOL    HW119398   3.646   7.050   1.298 -1.1809 -1.0329 -1.8889
 5289SOL    HW219399   3.761   7.078   1.204 -0.4837 -1.1021 -1.0708
 5290SOL     OW19400   2.588   2.873   8.427  0.1831 -0.0005 -0.6806
 5290SOL    HW119401   2.575   2.958   8.470 -0.3856  0.1863 -1.2063
 5290SOL    HW219402   2.678   2.850   8.447  0.3413  0.7260 -0.5173
 5291SOL     OW19403  10.417   7.023   8.905 -0.3424  0.2428 -0.5191
 5291SOL    HW119404  10.330   7.052   8.933  0.0551  0.2793  0.7229
 5291SOL    HW219405  10.410   6.928   8.898 -0.6262  0.2927 -0.9797
 5292SOL     OW19406   5.709   5.899   0.031  0.1294  0.1393 -0.2123
 5292SOL    HW119407   5.742   5.822  -0.015  1.3287  1.1337 -1.0769
 5292SOL    HW219408   5.646   5.938  -0.030 -0.6072 -0.2437  0.2957
 5293SOL     OW19409   2.544   7.263   6.296  0.3902  0.0678  0.4560
 5293SOL    HW119410   2.456   7.300   6.290  0.4335  0.3272  1.2240
 5293SOL    HW219411   2.542   7.208   6.374  0.4921 -1.1353 -0.3670
 5294SOL     OW19412   0.360   4.749   6.751 -0.4815  0.0429 -0.4093
 5294SOL    HW119413   0.315   4.664   6.762 -2.6298  1.3244  1.6835
 5294SOL    HW219414   0.299   4.801   6.699  1.6425 -0.1376 -3.3325
 5295SOL     OW19415   2.410   1.321   0.105  0.1104  0.0174 -0.5035
 5295SOL    HW119416   2.424   1.254   0.039 -0.9366 -3.0938  2.1523
 5295SOL    HW219417   2.321   1.352   0.089  0.7170  1.1008 -1.9520
 5296SOL     OW19418  10.299   9.145  10.261  0.2213 -0.1762 -0.1949
 5296SOL    HW119419  10.272   9.167  10.350 -0.9748 -0.1418 -0.5474
 5296SOL    HW219420  10.228   9.089  10.228 -0.6120  1.7698 -1.9545
 5297SOL     OW19421   8.888   7.661   1.607  0.5703  0.3532 -0.1506
 5297SOL    HW119422   8.865   7.602   1.678  2.5535  0.0078  0.2653
 5297SOL    HW219423   8.862   7.748   1.638 -0.2168 -0.0044  0.2148
 5298SOL     OW19424   7.792   1.491   3.468 -0.0712 -0.1570 -0.3446
 5298SOL    HW119425   7.866   1.431   3.474  1.1677  1.2653 -0.7357
 5298SOL    HW219426   7.767   1.491   3.375  1.4521  1.6115 -0.8104
 5299SOL     OW19427  10.085   5.813   4.468 -0.6733  0.1317  0.2905
 5299SOL    HW119428   9.998   5.835   4.436 -1.1495 -1.0222  0.7530
 5299SOL    HW219429  10.116   5.893   4.510 -1.0446  0.8919 -0.8472
 5300SOL     OW19430   7.926   0.239   0.893  0.2426  0.7490  0.1110
 5300SOL    HW119431   7.968   0.157   0.868 -0.8109  0.3391 -0.3539
 5300SOL    HW219432   7.955   0.302   0.827  0.8354  0.6934  0.3133
 5301SOL     OW19433   0.879  10.635   3.608  0.3071 -0.2955  0.5877
 5301SOL    HW119434   0.937  10.564   3.635 -0.5496 -1.1047  0.3553
 5301SOL    HW219435   0.938  10.703   3.574  1.1671 -0.6904  1.2617
 5302SOL     OW19436  10.460   9.709   5.903  0.3152 -0.4250  0.2256
 5302SOL    HW119437  10.540   9.745   5.865  0.1845 -0.1049  0.2445
 5302SOL    HW219438  10.458   9.745   5.992 -0.1331  0.0198  0.0402
 5303SOL     OW19439   2.385   6.134   2.840 -0.0264  0.0435 -0.1482
 5303SOL    HW119440   2.355   6.178   2.761 -0.3382 -0.3119 -0.2304
 5303SOL    HW219441   2.390   6.041   2.816  0.3769 -0.0032  0.0962
 5304SOL     OW19442   1.931   0.101   9.230 -0.6382  0.4700 -0.1046
 5304SOL    HW119443   1.968   0.189   9.225  1.2615 -0.3181 -1.1383
 5304SOL    HW219444   1.936   0.068   9.140 -2.2010 -0.3808  0.0818
 5305SOL     OW19445   5.177   3.517  10.180  0.2418  0.4171 -0.0729
 5305SOL    HW119446   5.272   3.507  10.192  0.6153  1.7301 -1.6242
 5305SOL    HW219447   5.166   3.535  10.087 -1.3506  2.3793  0.4319
 5306SOL     OW19448   8.281   9.024   6.071 -0.7925 -0.1538 -0.4611
 5306SOL    HW119449   8.231   9.001   5.993 -0.6439 -0.9951 -0.3198
 5306SOL    HW219450   8.219   9.012   6.143 -0.3276 -1.4841 -0.2562
 5307SOL     OW19451  10.273   2.597   8.182  0.4034  0.0667 -0.0236
 5307SOL    HW119452  10.234   2.524   8.134 -0.3172  1.5297 -1.7566
 5307SOL    HW219453  10.198   2.646   8.217  0.8574  0.4135  0.4930
 5308SOL     OW19454   1.528   2.688   3.195 -0.0655  0.1121  0.1800
 5308SOL    HW119455   1.618   2.719   3.203  0.6716 -1.8511  0.1365
 5308SOL    HW219456   1.523   2.616   3.258 -1.5529  0.0623  0.0328
 5309SOL     OW19457  10.231   6.408   6.712  0.3293 -0.1194  0.0732
 5309SOL    HW119458  10.308   6.424   6.658 -1.2078  0.3295 -2.1467
 5309SOL    HW219459  10.193   6.328   6.676  0.4126 -1.0511  1.9655
 5310SOL     OW19460  10.727  11.025   7.050  0.3981 -0.6412 -0.7842
 5310SOL    HW119461  10.636  11.053   7.061  1.0342  0.7352  2.1623
 5310SOL    HW219462  10.728  10.934   7.080  0.3979  0.2566  2.3113
 5311SOL     OW19463   5.153   6.174  10.036  0.1965  0.6983 -0.3126
 5311SOL    HW119464   5.211   6.247  10.015  0.7158  0.4100  0.0901
 5311SOL    HW219465   5.194   6.133  10.113 -0.9861  1.0047  0.5083
 5312SOL     OW19466   6.598   4.326   4.521  0.1186 -0.6272  0.0323
 5312SOL    HW119467   6.524   4.291   4.569 -0.6708 -1.0749 -1.4629
 5312SOL    HW219468   6.572   4.416   4.499 -0.5604 -1.2061 -1.6186
 5313SOL     OW19469   4.434   0.824   9.941  0.7997 -0.9750 -0.0036
 5313SOL    HW119470   4.427   0.808  10.035 -1.0431  0.0050  0.0695
 5313SOL    HW219471   4.475   0.911   9.935 -0.5042 -0.3354 -0.0248
 5314SOL     OW19472   9.094   3.335   0.738  0.1622  0.4093 -0.1944
 5314SOL    HW119473   9.082   3.426   0.711  1.5706  0.9045  0.6759
 5314SOL    HW219474   9.127   3.291   0.660  3.5093  1.6551  0.3184
 5315SOL     OW19475   4.240   1.349  10.122 -0.2169  0.0069 -0.3781
 5315SOL    HW119476   4.221   1.265  10.082  0.7127  0.6939 -2.4206
 5315SOL    HW219477   4.336   1.355  10.121 -0.2652  1.0592 -0.2163
 5316SOL     OW19478   6.589   4.902   5.423  0.4006  0.4198 -0.3708
 5316SOL    HW119479   6.625   4.946   5.500 -0.2123 -1.7512  1.2670
 5316SOL    HW219480   6.496   4.890   5.443  0.1944 -0.0820 -1.5178
 5317SOL     OW19481   5.539   0.134   5.933  0.5342 -0.7879 -0.0098
 5317SOL    HW119482   5.629   0.134   5.967 -0.2243 -1.2338  2.1714
 5317SOL    HW219483   5.488   0.175   6.002 -1.2132 -2.2753 -0.3569
 5318SOL     OW19484   5.951   7.129   8.910 -0.3742 -0.3397 -0.3335
 5318SOL    HW119485   5.952   7.034   8.920 -1.2151 -0.2886  0.3431
 5318SOL    HW219486   5.983   7.162   8.995 -1.3009 -0.0052 -0.1021
 5319SOL     OW19487   4.357   7.328   6.506  1.1369  0.0196 -0.4503
 5319SOL    HW119488   4.439   7.376   6.517 -0.0140  2.0228 -0.1296
 5319SOL    HW219489   4.332   7.344   6.415  1.9102 -2.0006 -1.0565
 5320SOL     OW19490  10.388   6.883   8.445 -0.1809 -0.4893 -0.1089
 5320SOL    HW119491  10.309   6.890   8.499  0.2894  0.2455  0.5082
 5320SOL    HW219492  10.444   6.954   8.476  0.6370 -0.8687 -0.6911
 5321SOL     OW19493   2.460   4.153  10.828 -0.1502  0.2059  0.2328
 5321SOL    HW119494   2.515   4.083  10.793 -2.0516 -0.1512 -2.3065
 5321SOL    HW219495   2.518   4.230  10.831  1.2662 -0.8315  0.6157
 5322SOL     OW19496   6.604   6.371   2.774  0.1529  0.7738 -0.3154
 5322SOL    HW119497   6.596   6.460   2.740 -0.4310  0.7727 -0.1932
 5322SOL    HW219498   6.695   6.363   2.801  0.0328  1.5749  0.3421
 5323SOL     OW19499   1.757   2.743   5.315 -0.0134  0.2300 -0.0715
 5323SOL    HW119500   1.792   2.824   5.351  0.7302 -0.0424 -0.1638
 5323SOL    HW219501   1.834   2.693   5.288 -0.5469  0.7681 -2.8364
 5324SOL     OW19502   8.011   1.279   5.262 -0.1230 -0.3124  0.4477
 5324SOL    HW119503   7.971   1.210   5.317  0.3321 -0.0488  1.1237
 5324SOL    HW219504   7.937   1.334   5.237 -0.5113 -1.0869 -0.1733
 5325SOL     OW19505   7.037   6.927   5.164 -0.0671  0.0417  0.5373
 5325SOL    HW119506   7.129   6.930   5.137 -0.1113 -1.6940  0.1308
 5325SOL    HW219507   6.991   6.887   5.090 -0.7579 -1.3557  1.6858
 5326SOL     OW19508   2.204   4.208   5.298  0.0123  0.1530  0.1374
 5326SOL    HW119509   2.292   4.241   5.316  0.6923 -1.3078 -0.3225
 5326SOL    HW219510   2.161   4.204   5.383  0.6073  0.3278  0.4493
 5327SOL     OW19511   7.886   0.992   6.344  0.4342  0.1793 -0.2420
 5327SOL    HW119512   7.793   0.999   6.367  0.5770  1.8006 -0.0247
 5327SOL    HW219513   7.896   0.903   6.310 -0.6042 -1.0104  2.3221
 5328SOL     OW19514   3.837  10.962  10.148 -0.8741 -0.3319 -0.0158
 5328SOL    HW119515   3.872  10.878  10.118  0.0848 -0.3877  1.1873
 5328SOL    HW219516   3.834  11.015  10.069  2.2439 -0.2541 -0.2165
 5329SOL     OW19517   4.546   5.658   5.128  0.4323 -0.7763  0.6349
 5329SOL    HW119518   4.451   5.653   5.118  0.1843  2.0423  0.8299
 5329SOL    HW219519   4.575   5.700   5.047  1.5933 -1.8707  0.4545
 5330SOL     OW19520   6.112   9.240  10.698 -0.2948 -0.2692  0.4913
 5330SOL    HW119521   6.055   9.315  10.680 -0.9801 -1.4270 -2.8136
 5330SOL    HW219522   6.200   9.277  10.701 -0.7591  0.8669  0.6329
 5331SOL     OW19523   1.807  10.335   8.496 -0.3628  0.3808  0.0073
 5331SOL    HW119524   1.731  10.286   8.465 -0.2220  0.4027 -0.3767
 5331SOL    HW219525   1.834  10.289   8.576 -1.7843  1.3505  1.0984
 5332SOL     OW19526   0.130   0.431   4.719  0.0405 -0.4408 -0.3612
 5332SOL    HW119527   0.037   0.421   4.738 -0.0616 -0.3575 -0.8124
 5332SOL    HW219528   0.167   0.343   4.729 -0.2610 -0.6579 -1.1155
 5333SOL     OW19529   1.794   8.753   7.805  0.0099  0.0917  0.1792
 5333SOL    HW119530   1.779   8.819   7.872  0.4001  0.0775  0.2825
 5333SOL    HW219531   1.864   8.790   7.750 -1.2336  0.7252 -1.0362
 5334SOL     OW19532   4.205   0.450   8.667  0.3033  0.0804  0.0770
 5334SOL    HW119533   4.271   0.516   8.690 -0.1922  0.7963 -0.5271
 5334SOL    HW219534   4.249   0.394   8.603  0.7636 -0.2529  0.6746
 5335SOL     OW19535   8.488   3.882   8.454  0.0340 -0.1680  0.1260
 5335SOL    HW119536   8.505   3.819   8.524  0.6483  0.7280  0.8113
 5335SOL    HW219537   8.559   3.869   8.391  1.2646  1.0864  1.1930
 5336SOL     OW19538   9.109   2.955   1.074  0.0228  0.2391 -0.3244
 5336SOL    HW119539   9.163   2.945   0.995  1.4704  2.4562  0.3023
 5336SOL    HW219540   9.165   2.925   1.145 -0.0236  1.3380  0.1969
 5337SOL     OW19541   3.153   0.683   4.858  0.0648  0.7076  0.7289
 5337SOL    HW119542   3.089   0.753   4.867  0.2997  1.1239 -0.5270
 5337SOL    HW219543   3.155   0.665   4.764  0.8902 -0.1437  0.8957
 5338SOL     OW19544   8.944   2.469   3.350 -0.5570  0.9216 -0.7696
 5338SOL    HW119545   8.938   2.547   3.295 -0.1107  2.1668  0.8706
 5338SOL    HW219546   8.857   2.461   3.389 -0.8120  0.1648 -1.4727
 5339SOL     OW19547   5.218   8.005   1.247  0.8079  0.0473 -0.4164
 5339SOL    HW119548   5.216   7.971   1.158  1.7441  0.5658 -0.6475
 5339SOL    HW219549   5.181   8.093   1.240  0.9162  0.1020 -0.3021
 5340SOL     OW19550   7.913   2.737   7.267  0.4780 -0.6191 -0.0675
 5340SOL    HW119551   7.891   2.724   7.175 -1.0208  0.1897  0.1383
 5340SOL    HW219552   7.980   2.805   7.267 -2.2907  2.3359 -0.4674
 5341SOL     OW19553   2.841  10.818   1.080 -0.1073  0.4081  0.0537
 5341SOL    HW119554   2.875  10.789   1.165 -1.0397 -0.0839  0.2622
 5341SOL    HW219555   2.823  10.911   1.092 -1.1752  0.1297  0.7130
 5342SOL     OW19556   0.013   2.630   4.991 -0.3856 -0.5851 -0.2494
 5342SOL    HW119557   0.004   2.575   4.913 -0.1400  0.9394 -1.3921
 5342SOL    HW219558  -0.073   2.624   5.034 -1.1076 -0.0942 -1.5655
 5343SOL     OW19559   7.275   1.667   0.951 -0.3343 -0.0537 -0.0879
 5343SOL    HW119560   7.295   1.600   0.885 -0.7336 -1.4334  1.1558
 5343SOL    HW219561   7.191   1.640   0.988 -1.7370  2.4331 -1.1404
 5344SOL     OW19562   8.689   4.418  10.316 -0.6458  0.2495 -0.1108
 5344SOL    HW119563   8.743   4.458  10.247  0.6587  1.0623  1.3202
 5344SOL    HW219564   8.615   4.379  10.269  0.9920 -0.6015 -2.1417
 5345SOL     OW19565   0.481   9.281   1.106  0.8030  0.1955  0.0944
 5345SOL    HW119566   0.393   9.302   1.074  1.7971  0.8706 -2.3860
 5345SOL    HW219567   0.538   9.346   1.067  2.6339 -1.1214  0.4299
 5346SOL     OW19568   4.550   7.965   2.540 -0.4292 -0.1547 -0.5051
 5346SOL    HW119569   4.560   7.873   2.565 -0.0466 -0.1830 -0.7584
 5346SOL    HW219570   4.638   8.002   2.550 -0.7920  0.4391  0.6014
 5347SOL     OW19571  10.457   6.892   3.304 -0.5134  0.2408 -0.3560
 5347SOL    HW119572  10.446   6.938   3.387 -0.1823 -0.8075  0.2880
 5347SOL    HW219573  10.395   6.934   3.245 -0.3755  1.3533  0.2658
 5348SOL     OW19574   8.433   7.952   1.407 -0.4477 -0.2641  0.3741
 5348SOL    HW119575   8.419   7.956   1.313 -0.5858  1.4773  0.4221
 5348SOL    HW219576   8.522   7.984   1.420 -0.6421  0.1197  0.8521
 5349SOL     OW19577   5.404   1.725   2.706 -0.0627 -0.4536  0.4413
 5349SOL    HW119578   5.442   1.801   2.661 -2.5737  0.3048 -0.5528
 5349SOL    HW219579   5.478   1.687   2.755  1.8285  1.1525 -0.9858
 5350SOL     OW19580   7.885   3.365   4.359  0.4180 -0.4281 -0.1197
 5350SOL    HW119581   7.842   3.450   4.349  1.6269 -0.0771 -3.8516
 5350SOL    HW219582   7.813   3.302   4.359 -0.3694  0.3854 -2.0680
 5351SOL     OW19583   1.990   6.616   2.574  0.4133  0.0088  0.3369
 5351SOL    HW119584   1.976   6.684   2.508 -0.1657 -0.3746  0.0558
 5351SOL    HW219585   1.937   6.543   2.544 -1.1727  0.3772  2.0686
 5352SOL     OW19586   8.339   6.741   7.261 -0.5039  0.0289  0.8597
 5352SOL    HW119587   8.322   6.724   7.354 -1.1064 -1.2680  0.5322
 5352SOL    HW219588   8.401   6.673   7.234 -0.3877  0.3490  0.2961
 5353SOL     OW19589   3.648   8.850   9.134  0.4042  0.2008  1.2412
 5353SOL    HW119590   3.643   8.790   9.209  1.3660  1.3648  2.2785
 5353SOL    HW219591   3.573   8.826   9.079  1.1271 -2.4027  1.2407
 5354SOL     OW19592   7.551   1.421   8.033  0.2353 -0.0866  0.3571
 5354SOL    HW119593   7.530   1.500   8.083  1.0605  0.7910 -0.6590
 5354SOL    HW219594   7.640   1.435   8.001  0.5894 -1.6598  0.5816
 5355SOL     OW19595   7.484   7.598   2.855 -0.0052 -0.4756  0.3038
 5355SOL    HW119596   7.479   7.627   2.764  0.0962  0.6786  0.6518
 5355SOL    HW219597   7.560   7.540   2.857  0.0787 -0.3979 -0.3137
 5356SOL     OW19598   3.698   5.834   7.163 -0.3339  0.4297  0.0159
 5356SOL    HW119599   3.704   5.925   7.195  2.9698 -0.5647  2.8149
 5356SOL    HW219600   3.651   5.788   7.232 -0.9419 -0.2502 -0.8333
 5357SOL     OW19601  10.638   2.884   6.613 -0.2282  0.0893  0.0843
 5357SOL    HW119602  10.561   2.938   6.595 -0.0830  0.3648  0.2752
 5357SOL    HW219603  10.615   2.797   6.581 -0.5910  0.1876  0.0767
 5358SOL     OW19604   2.145  10.708   7.584 -0.4262  0.0999 -0.6693
 5358SOL    HW119605   2.050  10.704   7.572 -0.6246  1.7789  0.0310
 5358SOL    HW219606   2.181  10.689   7.498 -1.4288  0.4566 -1.1864
 5359SOL     OW19607   0.365   8.124  11.074 -0.3050 -0.1112 -0.6716
 5359SOL    HW119608   0.344   8.102  10.983 -1.4319 -1.6501 -0.0852
 5359SOL    HW219609   0.306   8.195  11.095  0.6924  0.9821 -1.4347
 5360SOL     OW19610   3.304   8.776   0.393 -0.2532 -0.5238  1.0912
 5360SOL    HW119611   3.337   8.864   0.374  1.0056 -1.1584  0.1621
 5360SOL    HW219612   3.227   8.767   0.337  0.3856 -0.4734  0.1800
 5361SOL     OW19613   4.501  10.606   6.952 -0.5199  0.1024  0.0882
 5361SOL    HW119614   4.579  10.609   7.008 -1.5916  1.2848  1.6231
 5361SOL    HW219615   4.475  10.698   6.943 -1.7769 -0.2744 -0.3310
 5362SOL     OW19616   1.157   9.671   8.471  0.0801  0.1430  0.4098
 5362SOL    HW119617   1.077   9.687   8.521 -0.9537  0.4261 -1.2479
 5362SOL    HW219618   1.150   9.580   8.443 -0.5606  0.6659 -1.2150
 5363SOL     OW19619   0.352   5.905   0.954 -0.7008  0.2284 -0.3947
 5363SOL    HW119620   0.420   5.879   0.892 -1.2243  0.1765 -0.9531
 5363SOL    HW219621   0.355   5.839   1.022  0.5482  0.8213  0.1661
 5364SOL     OW19622   5.382   4.730   4.354 -0.3543 -0.2025  0.4159
 5364SOL    HW119623   5.336   4.812   4.373  1.1378  0.4193  1.5397
 5364SOL    HW219624   5.449   4.755   4.290 -1.6010 -1.1248 -1.3289
 5365SOL     OW19625   6.656   3.276   0.331  0.1300 -0.4388 -0.0654
 5365SOL    HW119626   6.671   3.317   0.246 -0.0204  0.0981  0.1675
 5365SOL    HW219627   6.683   3.341   0.395 -1.0647 -0.3002  0.3190
 5366SOL     OW19628   2.695   5.196   8.657  0.2127  0.0711  0.2855
 5366SOL    HW119629   2.680   5.286   8.686  2.5714  0.0133  1.9517
 5366SOL    HW219630   2.625   5.145   8.698 -0.5079  0.9704  0.2026
 5367SOL     OW19631   8.361   4.167   2.569  0.3761  0.7217 -0.6064
 5367SOL    HW119632   8.269   4.193   2.558 -0.2444 -0.1863  1.8813
 5367SOL    HW219633   8.408   4.249   2.579 -0.8852  1.1810  2.6030
 5368SOL     OW19634   3.345   7.844   4.522 -0.1073 -0.1953 -0.3914
 5368SOL    HW119635   3.317   7.900   4.595 -2.4973  0.0583 -1.3852
 5368SOL    HW219636   3.348   7.756   4.559 -0.7789 -0.0033  0.1537
 5369SOL     OW19637   8.345   8.295   1.124  0.0503 -0.1398 -0.5528
 5369SOL    HW119638   8.283   8.334   1.187  3.4279  1.6944  1.9379
 5369SOL    HW219639   8.315   8.327   1.039 -3.8862 -1.5392  0.0619
 5370SOL     OW19640   2.817   4.264   2.220 -0.6349 -0.4514 -0.3628
 5370SOL    HW119641   2.909   4.254   2.193  0.6139 -0.2200  3.2250
 5370SOL    HW219642   2.803   4.194   2.284 -1.6771  1.7020  1.9665
 5371SOL     OW19643   7.288   8.487   0.908 -0.0900 -0.3337 -0.1162
 5371SOL    HW119644   7.266   8.559   0.967  0.7714  0.2751 -0.5231
 5371SOL    HW219645   7.384   8.480   0.912 -0.1810 -1.7969  0.3081
 5372SOL     OW19646   3.185   0.898   8.744  0.3209  0.0041 -0.1776
 5372SOL    HW119647   3.163   0.875   8.654  0.2174 -0.2368 -0.0921
 5372SOL    HW219648   3.170   0.992   8.749 -0.0656 -0.0492 -0.3012
 5373SOL     OW19649   1.670   3.824   7.177  0.1019 -0.2796 -0.1117
 5373SOL    HW119650   1.722   3.763   7.124  0.1624 -2.0229  1.8375
 5373SOL    HW219651   1.581   3.818   7.141  0.6561  0.7233 -1.7670
 5374SOL     OW19652   4.878   5.926   8.908  0.0224 -0.2503 -0.1985
 5374SOL    HW119653   4.809   5.897   8.967 -0.5335  0.5994 -0.4076
 5374SOL    HW219654   4.854   6.016   8.886  1.6009  0.3213  0.3141
 5375SOL     OW19655   0.655   7.047   2.719  0.5723 -0.8247 -0.4286
 5375SOL    HW119656   0.702   7.129   2.704 -1.6963  0.5559 -0.4380
 5375SOL    HW219657   0.576   7.073   2.767  0.6052 -3.2447  1.1227
 5376SOL     OW19658   2.087   2.307   0.317 -0.4489 -0.3479 -0.0033
 5376SOL    HW119659   2.149   2.256   0.266 -0.1217  2.0220 -2.1456
 5376SOL    HW219660   2.141   2.358   0.377 -0.5450 -0.3646  0.0987
 5377SOL     OW19661   6.205   6.164   2.906 -0.0434 -0.0696 -0.0686
 5377SOL    HW119662   6.297   6.140   2.893 -0.3051 -0.9962 -0.3117
 5377SOL    HW219663   6.171   6.097   2.967 -1.3743 -1.7623 -2.4789
 5378SOL     OW19664  11.042   0.038   8.576  0.0879  0.0272  0.1261
 5378SOL    HW119665  10.966   0.087   8.545 -0.2415  0.0959  0.9978
 5378SOL    HW219666  11.060  -0.025   8.506  0.6127  1.4630 -1.0617
 5379SOL     OW19667   0.947   9.559   8.184 -0.0771 -0.2581 -0.2949
 5379SOL    HW119668   0.979   9.593   8.100 -0.1033 -1.5525 -0.8455
 5379SOL    HW219669   0.922   9.638   8.233 -0.6312  0.5035 -1.7290
 5380SOL     OW19670   9.848   5.263   3.070  0.1111 -0.1847  0.0411
 5380SOL    HW119671   9.927   5.315   3.057  0.2425 -0.3193  0.2932
 5380SOL    HW219672   9.778   5.327   3.084  0.4444 -0.0792  1.3536
 5381SOL     OW19673   2.200   6.809   9.664 -0.0702  0.5317 -0.6363
 5381SOL    HW119674   2.264   6.769   9.605  1.5873  0.6946  0.9511
 5381SOL    HW219675   2.140   6.737   9.685 -1.1719  0.6528 -3.0240
 5382SOL     OW19676   7.224   1.199   4.397 -0.3794 -0.1129  0.3763
 5382SOL    HW119677   7.135   1.230   4.383  0.1080  0.3705 -2.1246
 5382SOL    HW219678   7.216   1.104   4.407 -1.3068  0.1047  2.2317
 5383SOL     OW19679  10.205   3.823   2.642  0.7786  0.0752 -0.1407
 5383SOL    HW119680  10.137   3.825   2.710  1.3527 -1.1922  0.5080
 5383SOL    HW219681  10.158   3.796   2.562  0.0647  1.7665 -0.3376
 5384SOL     OW19682   6.141   6.039   8.546 -0.4252  0.1416  0.7533
 5384SOL    HW119683   6.107   6.117   8.503 -1.3212  0.5754  2.1670
 5384SOL    HW219684   6.127   5.969   8.484 -1.6597  0.7442  0.3248
 5385SOL     OW19685   6.921   9.235   9.936  0.2788 -0.3715  0.4310
 5385SOL    HW119686   6.867   9.163   9.905  1.8455 -0.7384 -1.6159
 5385SOL    HW219687   6.867   9.313   9.924  0.0302 -0.7702 -1.2329
 5386SOL     OW19688   4.695   5.897   6.337 -0.5540 -0.0852  0.2803
 5386SOL    HW119689   4.603   5.875   6.322 -0.2914 -0.8347 -0.2411
 5386SOL    HW219690   4.724   5.835   6.404 -0.4744  0.2732  0.5817
 5387SOL     OW19691   4.284   6.198   2.440 -0.4817  0.0043  0.0636
 5387SOL    HW119692   4.282   6.290   2.469 -0.2278 -0.2700  0.9757
 5387SOL    HW219693   4.355   6.159   2.490  0.0190 -0.4912 -0.9851
 5388SOL     OW19694   6.355   2.209   2.286 -0.5723  0.2275 -0.2408
 5388SOL    HW119695   6.393   2.199   2.199 -2.6896  0.0633 -1.1973
 5388SOL    HW219696   6.338   2.120   2.315 -0.5998  0.3157  0.0161
 5389SOL     OW19697  10.105   8.098   4.408  0.1027  0.7461  0.1169
 5389SOL    HW119698  10.144   8.091   4.495  1.8724  0.3883 -0.6546
 5389SOL    HW219699  10.025   8.046   4.414 -0.2463  1.4151  1.7443
 5390SOL     OW19700   3.218   9.039   4.849  0.1413 -0.1219  0.4354
 5390SOL    HW119701   3.192   9.026   4.940  2.4790 -0.4792  1.1116
 5390SOL    HW219702   3.150   9.096   4.813 -1.2899 -0.6536  2.1376
 5391SOL     OW19703   3.888   3.797   5.665 -0.2072 -0.1280 -0.1611
 5391SOL    HW119704   3.878   3.750   5.583  0.1147 -0.9049  0.2370
 5391SOL    HW219705   3.811   3.855   5.669 -0.7922 -0.8664 -0.4906
 5392SOL     OW19706   4.240   5.520   9.997  0.2641 -0.5696  0.3663
 5392SOL    HW119707   4.294   5.464  10.054  1.9588 -0.1756 -0.7578
 5392SOL    HW219708   4.238   5.605  10.041  2.8454  0.1792 -0.7611
 5393SOL     OW19709  10.772   1.105  10.910  0.4049 -0.3061 -0.6633
 5393SOL    HW119710  10.778   1.197  10.884 -0.4792 -0.3524 -1.0788
 5393SOL    HW219711  10.695   1.072  10.864  0.1524 -1.0046  0.2286
 5394SOL     OW19712   3.872   9.846   6.719 -0.1445 -0.2925 -0.3240
 5394SOL    HW119713   3.906   9.911   6.780 -2.4876  0.0431  0.7741
 5394SOL    HW219714   3.947   9.820   6.666  1.3407  1.6136  0.7217
 5395SOL     OW19715   4.362   8.119   8.111 -0.3556  0.3823  0.3924
 5395SOL    HW119716   4.271   8.089   8.109 -0.0834 -0.4917  0.7443
 5395SOL    HW219717   4.412   8.049   8.069  0.0801  1.1915 -0.4890
 5396SOL     OW19718   4.199   2.955  10.900 -0.0514 -0.6587 -0.6539
 5396SOL    HW119719   4.214   2.952  10.995  0.4341 -1.7815 -0.7443
 5396SOL    HW219720   4.208   3.047  10.877  2.4407 -0.6778 -0.0129
 5397SOL     OW19721  11.117   4.412   5.743 -0.1505 -0.4256  0.5827
 5397SOL    HW119722  11.063   4.341   5.779 -1.3282 -0.3441 -0.9102
 5397SOL    HW219723  11.110   4.401   5.648 -0.4407  1.7530  0.3012
 5398SOL     OW19724   3.168   9.796   9.229 -0.0518  0.9705 -0.0412
 5398SOL    HW119725   3.118   9.841   9.161 -0.1865  0.9389  0.0362
 5398SOL    HW219726   3.174   9.705   9.199 -1.3879  0.6109  0.6966
 5399SOL     OW19727   5.922   3.518   6.418  0.1783  0.2349  0.3412
 5399SOL    HW119728   5.942   3.475   6.334  1.0565 -1.3334  1.3163
 5399SOL    HW219729   5.874   3.596   6.393 -1.1630 -1.1000 -1.5507
 5400SOL     OW19730   5.275  10.946   7.031  0.4772 -0.7060  0.0999
 5400SOL    HW119731   5.344  10.895   6.988  0.3666 -1.3657  0.6946
 5400SOL    HW219732   5.211  10.881   7.059  0.0466 -0.1822  0.3422
 5401SOL     OW19733   2.692   0.678   8.330 -0.5239  0.7603 -0.0325
 5401SOL    HW119734   2.645   0.760   8.347  0.7317  1.8755 -1.7019
 5401SOL    HW219735   2.660   0.650   8.244  1.5700  1.4109 -1.0929
 5402SOL     OW19736   9.063   4.408   7.690 -0.4711  0.5264 -0.3822
 5402SOL    HW119737   9.051   4.498   7.662 -1.5286  0.1551 -1.2132
 5402SOL    HW219738   9.083   4.414   7.783 -3.2359  1.5291  0.2358
 5403SOL     OW19739   1.782   6.848   1.923  0.1400 -0.1390 -0.2516
 5403SOL    HW119740   1.731   6.913   1.970 -0.6225 -1.0987  0.2924
 5403SOL    HW219741   1.870   6.857   1.958  0.1156  0.7868 -0.3984
 5404SOL     OW19742   1.600   5.781   8.096  0.0574 -0.0024 -0.0597
 5404SOL    HW119743   1.694   5.769   8.106  0.3523  0.7786 -1.5110
 5404SOL    HW219744   1.582   5.754   8.006 -1.1720 -0.4336  0.2898
 5405SOL     OW19745   1.623   5.404   4.419  0.0682 -0.5624  0.6213
 5405SOL    HW119746   1.714   5.378   4.434  0.4501  0.3525  0.0052
 5405SOL    HW219747   1.606   5.470   4.487  0.7480  1.1876 -0.7995
 5406SOL     OW19748   7.914   6.604  10.665  0.1860  0.7180  1.3167
 5406SOL    HW119749   7.828   6.644  10.659 -0.0726 -0.0751 -0.9615
 5406SOL    HW219750   7.976   6.676  10.652 -0.2590  0.7113 -1.4300
 5407SOL     OW19751   1.557   1.696   6.743  0.4653 -0.3643 -0.3072
 5407SOL    HW119752   1.494   1.624   6.750 -1.5519  1.4585  1.7748
 5407SOL    HW219753   1.605   1.693   6.826 -0.8171  1.6409  0.5726
 5408SOL     OW19754   3.712   9.017   0.960  0.3678  0.0545 -0.3477
 5408SOL    HW119755   3.784   9.042   0.902 -0.4052  0.7995 -1.0131
 5408SOL    HW219756   3.680   8.934   0.924  1.6220 -0.9053  0.6509
 5409SOL     OW19757   2.780   1.639   7.473 -0.3747  0.6841 -0.0917
 5409SOL    HW119758   2.872   1.618   7.459 -0.6095 -0.3688 -0.1471
 5409SOL    HW219759   2.781   1.715   7.532  0.5128 -0.0051  0.8083
 5410SOL     OW19760  10.011   0.197   3.373  0.4888  0.2186  0.4248
 5410SOL    HW119761  10.012   0.280   3.422  0.3434 -0.0420  0.8770
 5410SOL    HW219762   9.963   0.136   3.430 -2.4795  0.6930 -1.3507
 5411SOL     OW19763   5.582   6.703   6.629 -0.0836 -0.1339 -0.2171
 5411SOL    HW119764   5.659   6.735   6.583  0.3219 -1.0085 -0.1810
 5411SOL    HW219765   5.522   6.777   6.632 -0.0435  0.0162 -1.9719
 5412SOL     OW19766   3.621   8.963   3.815  0.2586  0.3758 -0.1485
 5412SOL    HW119767   3.703   8.915   3.800 -0.6206 -0.6818 -2.0799
 5412SOL    HW219768   3.595   8.940   3.904  1.1872 -0.6593 -0.1234
 5413SOL     OW19769   7.628   8.637  11.104  0.8476 -0.2251 -0.5154
 5413SOL    HW119770   7.549   8.665  11.150  0.8924  0.4322 -0.8247
 5413SOL    HW219771   7.596   8.582  11.033  0.7550 -0.9464  0.0768
 5414SOL     OW19772   3.977   6.040   9.862  0.2475 -0.0750  0.5469
 5414SOL    HW119773   3.893   6.055   9.905 -1.0696 -0.2327 -1.7816
 5414SOL    HW219774   3.994   5.947   9.874  0.6558  0.1621  1.9349
 5415SOL     OW19775   2.600   3.168   8.221 -0.2670  0.0436 -0.2735
 5415SOL    HW119776   2.692   3.151   8.202 -0.4223  0.8060 -1.8580
 5415SOL    HW219777   2.553   3.095   8.180 -0.2923 -1.7356  2.6520
 5416SOL     OW19778   8.283   5.089   9.703 -0.5884 -0.0847 -0.1093
 5416SOL    HW119779   8.280   5.184   9.690  1.8903 -0.1690 -2.4311
 5416SOL    HW219780   8.212   5.055   9.648 -0.2763  0.3719 -0.8102
 5417SOL     OW19781   5.886   9.730   3.920 -0.2425 -0.9908  0.7484
 5417SOL    HW119782   5.794   9.710   3.934 -0.8440  0.2825 -1.0346
 5417SOL    HW219783   5.898   9.726   3.826  2.0540 -3.0783  1.0332
 5418SOL     OW19784   1.326   6.192   2.855  0.3338  0.3533  0.2450
 5418SOL    HW119785   1.397   6.195   2.791  1.2662 -1.0824  1.1636
 5418SOL    HW219786   1.300   6.284   2.866  2.0208  0.9078 -0.1416
 5419SOL     OW19787   3.402   5.518  10.389 -0.8454  0.6033 -0.1050
 5419SOL    HW119788   3.460   5.479  10.324 -1.1816 -2.5290  1.2805
 5419SOL    HW219789   3.456   5.526  10.467 -1.3010  1.2364  0.1561
 5420SOL     OW19790   6.749  10.008   1.745  0.3455  0.4579 -0.8386
 5420SOL    HW119791   6.821   9.961   1.702  1.3677  1.5006 -0.3156
 5420SOL    HW219792   6.736  10.086   1.691  1.9718  2.0355  0.9216
 5421SOL     OW19793  10.770   4.663   0.280 -0.3369  0.3518 -0.1676
 5421SOL    HW119794  10.731   4.576   0.267 -0.4025  0.4824 -0.8518
 5421SOL    HW219795  10.696   4.723   0.274 -0.4565  0.3972  1.2966
 5422SOL     OW19796   5.973  10.813   0.715  0.0305  0.2017  0.3346
 5422SOL    HW119797   5.994  10.803   0.622  1.0097 -0.2783  0.5932
 5422SOL    HW219798   5.983  10.907   0.732 -1.3042  0.4806 -0.2947
 5423SOL     OW19799   8.610   6.722   1.117  0.1704 -0.4461  0.1160
 5423SOL    HW119800   8.591   6.816   1.122 -1.1710 -0.5915 -1.2980
 5423SOL    HW219801   8.690   6.717   1.064  0.1003 -0.1015 -0.0320
 5424SOL     OW19802   3.300   6.489   2.282  0.2654  0.3236 -0.6513
 5424SOL    HW119803   3.226   6.547   2.297  1.3688  2.1451 -1.8786
 5424SOL    HW219804   3.274   6.437   2.206  0.2521  1.0008 -1.1194
 5425SOL     OW19805   8.747  10.353   0.694  0.4463  0.6593  0.2449
 5425SOL    HW119806   8.723  10.288   0.628  0.1965 -0.0040  0.9700
 5425SOL    HW219807   8.665  10.398   0.715  0.0607 -0.5676  1.6068
 5426SOL     OW19808   3.040   0.215   3.965  0.0873 -0.2471  0.2996
 5426SOL    HW119809   2.966   0.272   3.984 -1.0145 -1.6017  0.2742
 5426SOL    HW219810   3.053   0.223   3.871  1.6093  1.8452  0.6178
 5427SOL     OW19811   0.648   7.721   7.761 -0.1206 -0.3141 -0.6353
 5427SOL    HW119812   0.659   7.628   7.745 -2.6391 -0.5067 -1.6352
 5427SOL    HW219813   0.671   7.733   7.853  0.9820 -1.7522 -0.6977
 5428SOL     OW19814   2.977   5.998   4.536  0.0808  0.1559 -0.4618
 5428SOL    HW119815   3.014   5.941   4.603  0.8795  0.2237 -0.8429
 5428SOL    HW219816   2.946   5.938   4.467 -2.8550 -0.1062  0.9189
 5429SOL     OW19817   8.466   9.775   7.652 -0.1057  0.1482  0.1654
 5429SOL    HW119818   8.439   9.705   7.711 -0.7074 -0.0885 -0.3812
 5429SOL    HW219819   8.501   9.730   7.575  1.2492  0.4494  0.5755
 5430SOL     OW19820   2.589   6.890   5.325 -0.8208 -0.2831  0.2601
 5430SOL    HW119821   2.648   6.936   5.385  1.5651  1.2728 -2.9503
 5430SOL    HW219822   2.567   6.955   5.259 -0.0056 -2.7709 -2.7144
 5431SOL     OW19823   9.043   7.705   9.531  0.1391 -0.0349 -0.1920
 5431SOL    HW119824   9.101   7.647   9.580 -0.1439  0.3376  0.5966
 5431SOL    HW219825   9.024   7.657   9.450  0.1102 -0.9302  0.3364
 5432SOL     OW19826   2.591   3.192   5.565 -0.6920  0.6277 -0.2367
 5432SOL    HW119827   2.537   3.166   5.640  1.2542 -0.7265  0.8214
 5432SOL    HW219828   2.615   3.283   5.584 -1.1491  0.6667  0.1849
 5433SOL     OW19829   1.465  10.066   6.322  0.3347  0.0057 -0.2789
 5433SOL    HW119830   1.464  10.056   6.227 -1.0035  0.5983 -0.3492
 5433SOL    HW219831   1.383  10.111   6.343  0.0528 -1.1330  1.2817
 5434SOL     OW19832   1.726   1.262   6.844  0.1493  0.1201 -0.1164
 5434SOL    HW119833   1.785   1.323   6.888 -1.4639  1.0877  0.8155
 5434SOL    HW219834   1.647   1.314   6.826 -0.8722 -1.4162 -0.2704
 5435SOL     OW19835   7.721   4.180   5.832 -0.2851 -0.2431  0.0501
 5435SOL    HW119836   7.783   4.109   5.816  0.5512  0.3357  0.6767
 5435SOL    HW219837   7.715   4.225   5.748  2.4824  1.5129  0.6663
 5436SOL     OW19838   8.967   3.225   4.470  0.1397  0.3686  0.4315
 5436SOL    HW119839   8.878   3.251   4.448  0.0102  0.4984  1.0886
 5436SOL    HW219840   8.995   3.288   4.536  0.6745  0.2530  0.3190
 5437SOL     OW19841  10.155   5.382   8.271  0.1079 -0.2455 -0.1867
 5437SOL    HW119842  10.156   5.478   8.267  0.6579 -0.0205  2.7330
 5437SOL    HW219843  10.214   5.354   8.201 -0.2069  1.5312 -1.2078
 5438SOL     OW19844   9.515   7.896   9.462  0.2073  0.2557 -0.0448
 5438SOL    HW119845   9.538   7.988   9.446  0.4663  0.1479 -0.3057
 5438SOL    HW219846   9.481   7.895   9.552  2.7343  0.1893  1.0200
 5439SOL     OW19847   2.040   6.773  10.608  0.2724  0.1155  0.4125
 5439SOL    HW119848   2.105   6.831  10.568 -0.2665  1.8986  1.9314
 5439SOL    HW219849   1.961   6.827  10.615 -2.4699 -2.7469 -3.8683
 5440SOL     OW19850   1.213   4.905   1.681  0.4305  0.1101 -0.2596
 5440SOL    HW119851   1.197   4.963   1.755 -1.2004 -1.0018  0.2993
 5440SOL    HW219852   1.302   4.928   1.651 -0.6963  4.0504 -1.1705
 5441SOL     OW19853  10.616   5.090  10.371 -0.2981 -0.2005  0.1395
 5441SOL    HW119854  10.612   5.003  10.331  2.5756 -0.2054 -0.3179
 5441SOL    HW219855  10.670   5.079  10.449 -1.2118  0.9027  0.9758
 5442SOL     OW19856   4.871   2.315   1.635  0.0302 -0.1366 -0.4220
 5442SOL    HW119857   4.779   2.329   1.615 -0.1607  0.3929  0.7552
 5442SOL    HW219858   4.918   2.373   1.575 -0.4073 -0.2790 -0.9039
 5443SOL     OW19859   1.251   3.123   6.909  0.0706  0.3756 -0.1319
 5443SOL    HW119860   1.266   3.211   6.945  0.0653  0.8370 -1.2207
 5443SOL    HW219861   1.330   3.074   6.933 -0.0181  0.6076  0.6653
 5444SOL     OW19862   6.325   3.831   2.689 -0.1520  0.3210 -0.3359
 5444SOL    HW119863   6.388   3.759   2.677  0.0380  0.6755 -1.5286
 5444SOL    HW219864   6.256   3.792   2.743 -0.2042 -0.8546 -1.2062
 5445SOL     OW19865   9.275   5.645  10.070 -0.7519 -0.6428 -0.0706
 5445SOL    HW119866   9.309   5.643   9.980 -0.8012  0.1850 -0.1179
 5445SOL    HW219867   9.353   5.653  10.124 -0.8035  0.6753 -0.1489
 5446SOL     OW19868   0.960   1.143   1.379  0.3635 -0.1872 -0.8388
 5446SOL    HW119869   0.883   1.162   1.432  1.2420  0.9952  0.0643
 5446SOL    HW219870   1.002   1.069   1.424 -0.0387 -0.6009 -1.1325
 5447SOL     OW19871   4.882   4.183   2.461  0.5785 -0.2900  0.2832
 5447SOL    HW119872   4.846   4.155   2.377  1.5564 -1.1627  0.1344
 5447SOL    HW219873   4.831   4.261   2.484  0.0530 -0.2494 -0.9331
 5448SOL     OW19874   6.095   8.582   1.849 -0.3636 -0.1250  0.1136
 5448SOL    HW119875   6.188   8.597   1.865 -0.7617  2.6484  0.2889
 5448SOL    HW219876   6.092   8.549   1.759  0.7254  0.7698 -0.2760
 5449SOL     OW19877   2.962   6.078   1.517  0.3309 -0.1026 -0.2246
 5449SOL    HW119878   2.985   6.157   1.565  2.3071 -0.8903  0.2414
 5449SOL    HW219879   2.981   6.099   1.426 -1.8492  0.8463 -0.5125
 5450SOL     OW19880   9.536   6.720   0.168  0.3774 -0.1831 -0.0994
 5450SOL    HW119881   9.487   6.688   0.092 -0.7149 -1.0522  0.9400
 5450SOL    HW219882   9.485   6.693   0.244  0.2344  2.6414  0.9402
 5451SOL     OW19883   8.633  10.306   7.299  0.1151  0.3100  0.0207
 5451SOL    HW119884   8.553  10.323   7.349 -0.4243  1.0468 -1.0557
 5451SOL    HW219885   8.620  10.219   7.261  0.4011 -0.1264  0.8863
 5452SOL     OW19886   7.262   8.594   4.504 -0.1655  0.4653 -0.2252
 5452SOL    HW119887   7.283   8.615   4.414 -0.9435 -0.8442 -0.7450
 5452SOL    HW219888   7.265   8.498   4.508  0.5003  0.5149  1.3068
 5453SOL     OW19889   9.594  10.534   7.748 -0.4991 -0.3636 -0.0240
 5453SOL    HW119890   9.688  10.518   7.741 -0.2311  1.3204 -0.8841
 5453SOL    HW219891   9.565  10.545   7.657 -0.8570  2.2699  0.3101
 5454SOL     OW19892   6.686   0.332   7.879  0.3447 -0.4712  0.1977
 5454SOL    HW119893   6.666   0.380   7.959  0.9414 -1.1709  0.7828
 5454SOL    HW219894   6.674   0.396   7.809  1.4429  0.6428  0.9838
 5455SOL     OW19895   3.265   0.231   7.585 -0.0291  0.2323  0.0904
 5455SOL    HW119896   3.182   0.242   7.631 -1.1292  0.5966 -1.8839
 5455SOL    HW219897   3.306   0.317   7.588 -0.6396  0.5562 -0.5816
 5456SOL     OW19898   5.326   4.790  10.537  0.2089 -0.1926 -0.2915
 5456SOL    HW119899   5.261   4.723  10.559 -0.9105  0.9630  0.1128
 5456SOL    HW219900   5.396   4.743  10.493 -1.1389 -1.4462 -1.1955
 5457SOL     OW19901   2.487   9.245   9.255 -0.7709  0.5527 -0.5402
 5457SOL    HW119902   2.466   9.199   9.336 -2.1680  0.6943 -0.7936
 5457SOL    HW219903   2.497   9.175   9.190  0.2315  0.4465 -0.2830
 5458SOL     OW19904   1.773   5.539   0.432  0.6496  0.0100 -0.2643
 5458SOL    HW119905   1.824   5.487   0.494  1.7558 -0.4877 -1.5466
 5458SOL    HW219906   1.838   5.582   0.377 -0.2566 -0.9645 -2.2045
 5459SOL     OW19907   1.939   3.006   2.521 -0.0265  0.6274 -0.5656
 5459SOL    HW119908   1.916   2.937   2.583 -0.8112  0.5100 -0.9822
 5459SOL    HW219909   1.871   3.003   2.455 -0.8254  2.6677  0.0917
 5460SOL     OW19910   4.094   1.660   4.158  0.4251 -0.1806  0.2601
 5460SOL    HW119911   4.019   1.666   4.218 -0.3778 -0.8801 -0.6468
 5460SOL    HW219912   4.114   1.751   4.136  0.2623  0.0461  1.0253
 5461SOL     OW19913   1.615   4.435   7.495  0.1899 -0.4659 -0.3047
 5461SOL    HW119914   1.614   4.339   7.501  0.7329 -0.4242  0.5554
 5461SOL    HW219915   1.708   4.457   7.489  0.0450 -0.0129 -0.9874
 5462SOL     OW19916   0.148   5.274   7.542  0.0339  0.1596  0.5386
 5462SOL    HW119917   0.204   5.225   7.483  0.9004  1.8417 -0.1090
 5462SOL    HW219918   0.158   5.366   7.515 -3.2211  0.5447  0.2339
 5463SOL     OW19919   4.715   3.032   4.267  0.0952 -0.4514 -0.3514
 5463SOL    HW119920   4.709   3.123   4.236 -0.2552 -0.7393 -1.1417
 5463SOL    HW219921   4.686   3.037   4.358 -1.3225  0.0209 -0.7912
 5464SOL     OW19922   4.067   0.358   9.400 -0.0021  0.2983  0.2894
 5464SOL    HW119923   4.122   0.429   9.435  0.0890  1.1202 -1.4086
 5464SOL    HW219924   4.094   0.350   9.309 -0.3690 -1.6199  0.3185
 5465SOL     OW19925   7.241   0.276   7.160 -0.4037 -0.0176 -0.1879
 5465SOL    HW119926   7.318   0.299   7.107  0.1528  0.0253  0.6137
 5465SOL    HW219927   7.212   0.359   7.197  1.1298 -0.3759  2.0769
 5466SOL     OW19928   0.449   3.521   7.513 -0.0929  0.0513  0.0237
 5466SOL    HW119929   0.442   3.443   7.568 -1.1453  0.9223  1.1994
 5466SOL    HW219930   0.438   3.594   7.574  1.0757  1.1428 -1.0145
 5467SOL     OW19931   8.675   0.323   9.419  0.5281 -0.2722  0.7884
 5467SOL    HW119932   8.662   0.417   9.427  0.6716  0.0758 -1.9119
 5467SOL    HW219933   8.768   0.313   9.400  0.1185 -0.6431 -1.3330
 5468SOL     OW19934   8.392   2.245   6.761 -0.4887  0.1457  0.2042
 5468SOL    HW119935   8.427   2.228   6.848  2.7085 -0.0120 -0.9765
 5468SOL    HW219936   8.373   2.338   6.760 -0.1563  0.2243  0.9441
 5469SOL     OW19937   6.224   7.432   5.350  0.1370  0.0690  0.4063
 5469SOL    HW119938   6.175   7.445   5.431 -1.5154  0.4618 -0.6122
 5469SOL    HW219939   6.245   7.521   5.321 -0.4653 -0.0083 -0.2818
 5470SOL     OW19940   9.894   1.566   1.151 -0.0267  0.4137 -0.2872
 5470SOL    HW119941   9.830   1.530   1.213 -1.3399  1.5249 -0.9245
 5470SOL    HW219942   9.877   1.518   1.070  1.7883 -1.1423  0.1898
 5471SOL     OW19943   5.670   6.671   2.762  0.0819  0.0864 -0.6247
 5471SOL    HW119944   5.762   6.672   2.787 -0.2274 -0.0247  0.5771
 5471SOL    HW219945   5.659   6.588   2.715  0.3031 -0.5510  0.4207
 5472SOL     OW19946   7.542   9.844  10.656 -0.7792 -0.1043 -0.5444
 5472SOL    HW119947   7.498   9.926  10.635 -0.8417 -0.5900 -2.4744
 5472SOL    HW219948   7.500   9.779  10.600 -1.1307 -1.6063  1.3427
 5473SOL     OW19949  11.105   2.811   7.737 -0.0190  0.0508 -0.2172
 5473SOL    HW119950  11.171   2.869   7.774  0.4886 -1.2512  1.0081
 5473SOL    HW219951  11.114   2.821   7.643 -0.0074  1.9923 -0.0443
 5474SOL     OW19952   2.193   9.337   9.219 -0.0702  0.6128 -0.6111
 5474SOL    HW119953   2.283   9.328   9.188  0.0718  0.5464 -0.1877
 5474SOL    HW219954   2.144   9.268   9.174  0.4589 -0.5556  0.5233
 5475SOL     OW19955   3.887  11.084   6.910  0.7952 -0.1593  0.2532
 5475SOL    HW119956   3.886  11.032   6.829 -0.2610  2.6712 -1.7048
 5475SOL    HW219957   3.970  11.131   6.908  0.0946  1.1085 -0.0557
 5476SOL     OW19958   0.654   3.173   2.974 -0.7582 -0.2837  0.2562
 5476SOL    HW119959   0.680   3.264   2.986 -0.5503 -0.1919 -0.7916
 5476SOL    HW219960   0.717   3.123   3.025  1.1379 -0.0230 -1.7320
 5477SOL     OW19961   6.587   6.115   5.126  0.6886  1.5106  0.1079
 5477SOL    HW119962   6.650   6.077   5.066  1.5879  2.1052  0.6407
 5477SOL    HW219963   6.575   6.048   5.194  0.2267  1.1278 -0.3500
 5478SOL     OW19964   8.913   8.149   2.130 -0.4903 -0.0055  0.1640
 5478SOL    HW119965   8.924   8.200   2.210 -1.5494  1.4693 -0.5922
 5478SOL    HW219966   8.824   8.115   2.134 -0.6114  0.2167 -0.4509
 5479SOL     OW19967   7.435   6.488   1.723 -0.9064 -0.4222  0.1805
 5479SOL    HW119968   7.463   6.438   1.646 -0.7363 -0.1029  0.0315
 5479SOL    HW219969   7.460   6.433   1.798  0.3770 -0.0369  0.0668
 5480SOL     OW19970   0.203   8.113   2.280 -0.2469  0.0544 -0.2613
 5480SOL    HW119971   0.214   8.204   2.310  0.6509  0.3648 -1.4364
 5480SOL    HW219972   0.121   8.085   2.319 -0.4313  1.3080  0.3114
 5481SOL     OW19973   7.290  10.641   4.020  0.1183 -0.1832  0.3207
 5481SOL    HW119974   7.381  10.665   4.002 -0.0839  0.3863  0.0243
 5481SOL    HW219975   7.285  10.640   4.116  0.6663 -1.1446  0.3515
 5482SOL     OW19976   6.713   4.378   0.839 -0.1840  0.2456  0.2020
 5482SOL    HW119977   6.807   4.395   0.845 -0.0697 -0.1368 -0.4439
 5482SOL    HW219978   6.699   4.350   0.748 -0.9601  0.5438  0.2192
 5483SOL     OW19979   5.746   5.725   5.385 -0.0908  0.4593 -0.1736
 5483SOL    HW119980   5.744   5.681   5.470  0.6848  1.5433  0.4244
 5483SOL    HW219981   5.766   5.656   5.323  0.9655 -0.0666  0.7263
 5484SOL     OW19982   0.088   5.594  10.477  0.4816  0.0885 -0.2681
 5484SOL    HW119983   0.017   5.585  10.413  0.7257  0.8007 -0.6464
 5484SOL    HW219984   0.092   5.688  10.495  0.4194 -0.1000  0.7990
 5485SOL     OW19985   3.964   1.613   1.792 -0.0824 -0.0724 -0.2455
 5485SOL    HW119986   3.875   1.644   1.777  0.3746  0.9581 -0.9105
 5485SOL    HW219987   4.016   1.655   1.724  0.8839 -0.8316  0.0013
 5486SOL     OW19988  11.087   9.743   8.993  0.0226  0.4570  0.2366
 5486SOL    HW119989  11.073   9.719   9.084  1.5214  1.9575  0.9207
 5486SOL    HW219990  11.083   9.661   8.945  0.7921 -0.5780  1.8778
 5487SOL     OW19991   0.899   7.650   9.810  0.1372 -0.3207  0.2461
 5487SOL    HW119992   0.856   7.564   9.810 -1.0230  0.2131  1.3942
 5487SOL    HW219993   0.979   7.637   9.760 -1.0002 -1.5596 -1.3523
 5488SOL     OW19994   1.387   1.801   9.952 -0.1748 -0.5885  0.4722
 5488SOL    HW119995   1.400   1.895   9.944  0.0895 -0.7560 -1.5340
 5488SOL    HW219996   1.413   1.781  10.042  0.3069  1.1554  0.7567
 5489SOL     OW19997   4.627   2.360   5.941  0.2434  0.4313  0.2445
 5489SOL    HW119998   4.570   2.352   6.018  1.7158 -0.8506  1.2806
 5489SOL    HW219999   4.688   2.287   5.949  1.5868  1.3252 -1.1826
 5490SOL     OW20000   9.039   8.803   5.341  0.2310 -0.1795 -0.5022
 5490SOL    HW120001   8.946   8.795   5.361  0.5754 -0.1810  1.2957
 5490SOL    HW220002   9.058   8.896   5.352  0.9572 -0.5340  1.9668
 5491SOL     OW20003  10.211   3.636  10.593 -0.0933 -0.5356 -0.0309
 5491SOL    HW120004  10.244   3.571  10.654  0.0269 -0.7779 -0.3545
 5491SOL    HW220005  10.115   3.629  10.601 -0.0894 -1.0873 -0.4161
 5492SOL     OW20006   3.043   7.760   7.538  0.1033  0.1448 -0.0319
 5492SOL    HW120007   3.029   7.719   7.453 -1.3367  2.1631 -0.8449
 5492SOL    HW220008   3.118   7.817   7.525 -0.1057  0.4424  0.0626
 5493SOL     OW20009   5.703  10.063   1.746  0.4363  0.2370  0.1694
 5493SOL    HW120010   5.661  10.107   1.672 -0.3822  0.1613  0.5808
 5493SOL    HW220011   5.770  10.125   1.776  0.9650  0.1500 -0.7988
 5494SOL     OW20012   0.496   4.229   4.591 -0.2403 -0.9030  0.0897
 5494SOL    HW120013   0.422   4.215   4.532 -0.3977  1.2022 -0.2874
 5494SOL    HW220014   0.570   4.246   4.532 -0.2520  0.5246  0.4535
 5495SOL     OW20015   8.490   2.124  10.462  0.2588  0.0266 -0.1715
 5495SOL    HW120016   8.549   2.050  10.471  1.3555  0.7457 -1.1834
 5495SOL    HW220017   8.431   2.117  10.537  1.3685 -0.9347  0.6391
 5496SOL     OW20018   5.887   8.475   1.975  0.0481 -0.1981  0.2899
 5496SOL    HW120019   5.908   8.493   2.066  0.2616 -0.3569  0.2734
 5496SOL    HW220020   5.968   8.493   1.927 -0.3862  1.0006 -0.0265
 5497SOL     OW20021   1.263   7.629   6.786  0.2079  0.1685  0.5079
 5497SOL    HW120022   1.233   7.573   6.858  2.0101  0.7955  1.8344
 5497SOL    HW220023   1.196   7.697   6.778 -1.6522 -1.6963 -0.6432
 5498SOL     OW20024   9.069   6.862   8.666  0.0349  0.5390 -0.5609
 5498SOL    HW120025   9.100   6.841   8.754 -0.9567 -1.0608 -0.5516
 5498SOL    HW220026   8.974   6.855   8.672 -0.1091  1.3861 -1.5327
 5499SOL     OW20027   2.786   3.919   9.465  0.2111 -0.3800 -0.0787
 5499SOL    HW120028   2.838   3.915   9.545  0.7903 -1.6045 -0.4921
 5499SOL    HW220029   2.725   3.846   9.471 -1.4700  0.9894  0.3628
 5500SOL     OW20030   2.438   0.677   2.352  0.2762 -0.1192 -0.3108
 5500SOL    HW120031   2.421   0.587   2.324 -0.2709 -0.5093  1.2098
 5500SOL    HW220032   2.447   0.726   2.270 -0.8124 -1.2923 -1.1701
 5501SOL     OW20033   5.986   8.491   9.363  0.0369  0.1397 -0.8201
 5501SOL    HW120034   5.964   8.584   9.359  1.8069  0.6435  0.2398
 5501SOL    HW220035   6.020   8.470   9.276 -0.4391  0.4548 -1.0871
 5502SOL     OW20036   0.382   9.838   8.482 -0.4910 -0.1704  0.3365
 5502SOL    HW120037   0.338   9.814   8.564 -0.0302  0.1824  0.6899
 5502SOL    HW220038   0.343   9.779   8.416  0.1658 -1.4574  1.0703
 5503SOL     OW20039   3.404   2.349   4.260 -0.1138  0.0909  0.7212
 5503SOL    HW120040   3.463   2.411   4.303  1.2663 -0.0772 -0.8020
 5503SOL    HW220041   3.453   2.267   4.257 -0.7119 -0.2558  0.0843
 5504SOL     OW20042   8.666   5.417   1.398  0.1084  0.0290 -0.0297
 5504SOL    HW120043   8.737   5.382   1.345  2.0577  0.8388  1.9282
 5504SOL    HW220044   8.663   5.511   1.377  0.5716  0.2633  0.8860
 5505SOL     OW20045   1.817   2.330   5.235  0.4865 -0.0106 -0.0629
 5505SOL    HW120046   1.805   2.249   5.187 -1.6495  1.2363 -1.8111
 5505SOL    HW220047   1.757   2.323   5.309  1.1747 -0.4766  0.4640
 5506SOL     OW20048   3.129   5.984   5.334  0.1368  0.9699 -0.3962
 5506SOL    HW120049   3.089   5.979   5.247 -0.1952  0.2263 -0.2061
 5506SOL    HW220050   3.084   5.917   5.385  1.9347 -0.2249 -0.2870
 5507SOL     OW20051   2.670   0.418   3.424 -0.0149  0.0231 -0.1762
 5507SOL    HW120052   2.727   0.417   3.347 -1.3655 -0.0928 -1.1997
 5507SOL    HW220053   2.619   0.337   3.418 -2.0290  1.2709 -0.6458
 5508SOL     OW20054   9.222   5.479   0.019 -0.4384 -0.3854  0.7953
 5508SOL    HW120055   9.197   5.560   0.063 -0.8165  0.6765 -1.2053
 5508SOL    HW220056   9.138   5.436   0.000 -0.4311  0.0307 -0.3149
 5509SOL     OW20057   5.843   3.201  10.059 -0.0725  0.2327  1.4413
 5509SOL    HW120058   5.932   3.194  10.023 -0.3181 -0.0639  0.8702
 5509SOL    HW220059   5.801   3.119  10.034 -1.2925  1.3857 -0.5294
 5510SOL     OW20060   1.300   5.344   9.868  0.2501 -0.6021 -0.3166
 5510SOL    HW120061   1.216   5.352   9.824  0.4158 -0.0592 -0.5574
 5510SOL    HW220062   1.358   5.305   9.802  0.8467  1.4451 -1.1176
 5511SOL     OW20063   3.064   8.939   8.907 -0.0030  0.2220  0.3085
 5511SOL    HW120064   3.111   8.857   8.924  0.8406  0.5704 -0.2597
 5511SOL    HW220065   3.024   8.927   8.821  1.7795  1.0966 -0.7068
 5512SOL     OW20066   8.492   6.563   0.919 -0.2631 -0.6793  0.8440
 5512SOL    HW120067   8.406   6.533   0.948 -0.7428  1.2180  1.5108
 5512SOL    HW220068   8.528   6.610   0.995  0.1996  0.8878 -0.2971
 5513SOL     OW20069   4.983  10.251   7.885  0.2116 -0.6234  0.0579
 5513SOL    HW120070   4.976  10.308   7.809  4.7374  0.1670 -0.0098
 5513SOL    HW220071   4.996  10.164   7.849 -1.8288 -0.9880  0.0956
 5514SOL     OW20072   7.487   4.763   1.715 -0.4243 -0.5613  0.5448
 5514SOL    HW120073   7.552   4.794   1.777 -2.3586  2.1921  1.3706
 5514SOL    HW220074   7.470   4.838   1.658 -0.6846 -2.1678 -1.6248
 5515SOL     OW20075   6.172   1.744   2.676 -0.0241 -0.3079  0.7824
 5515SOL    HW120076   6.080   1.772   2.666  0.7035  2.6245  1.2931
 5515SOL    HW220077   6.194   1.769   2.766  1.5143 -0.1296  0.3820
 5516SOL     OW20078   2.565  10.039   5.581 -0.1577 -0.1359  0.4739
 5516SOL    HW120079   2.539  10.115   5.633 -0.0257  1.1832 -1.2819
 5516SOL    HW220080   2.604   9.979   5.644  0.9358  1.8034  1.7466
 5517SOL     OW20081   8.776   9.329   1.325  0.1512  0.4405  0.0263
 5517SOL    HW120082   8.720   9.308   1.399 -0.4609  0.8417 -0.3122
 5517SOL    HW220083   8.861   9.349   1.363  0.2795 -0.8876  0.4967
 5518SOL     OW20084   3.600   7.530   6.343  0.5371 -0.0234  0.1127
 5518SOL    HW120085   3.563   7.605   6.296  0.9094 -0.3766 -0.7565
 5518SOL    HW220086   3.658   7.488   6.280  0.1040 -1.2254  0.4917
 5519SOL     OW20087   1.327  10.307   6.407  0.0885 -0.0311 -0.2724
 5519SOL    HW120088   1.409  10.341   6.443 -0.7802 -0.0916  1.9563
 5519SOL    HW220089   1.264  10.377   6.421 -0.3727 -0.1604 -1.5501
 5520SOL     OW20090   7.281   9.260   2.410 -0.1206 -0.8411  0.1421
 5520SOL    HW120091   7.200   9.224   2.445 -0.4463 -0.4254 -0.1770
 5520SOL    HW220092   7.253   9.332   2.353  0.5467  0.5252  1.4791
 5521SOL     OW20093   9.825   4.137   5.358  0.2034  0.8734 -0.2065
 5521SOL    HW120094   9.872   4.078   5.298  2.0624  2.8351 -0.7949
 5521SOL    HW220095   9.864   4.223   5.343 -1.6883  2.0995  1.3767
 5522SOL     OW20096   3.167   9.431   3.801 -0.2070  0.1901  0.1948
 5522SOL    HW120097   3.129   9.507   3.844  0.0625  0.5230 -0.1553
 5522SOL    HW220098   3.242   9.407   3.855 -0.9683 -0.5553  0.9705
 5523SOL     OW20099  10.258   3.266   2.467  0.0009  0.2320  0.3473
 5523SOL    HW120100  10.198   3.257   2.541  0.4289  3.7670  1.3344
 5523SOL    HW220101  10.345   3.260   2.506  0.3908 -2.7459 -0.7489
 5524SOL     OW20102   2.936   2.375   3.996  0.3902 -0.2827 -0.0058
 5524SOL    HW120103   2.920   2.411   3.908  0.2546  2.5295  1.0741
 5524SOL    HW220104   3.028   2.394   4.013  0.6209 -1.5132  0.2088
 5525SOL     OW20105   5.667   6.720   7.618 -0.4115 -0.3318  0.6059
 5525SOL    HW120106   5.740   6.716   7.555 -1.7048  0.6570 -1.0392
 5525SOL    HW220107   5.658   6.630   7.649 -0.3030 -1.0729 -1.3442
 5526SOL     OW20108   6.259   0.831   0.251  0.0589  0.0896 -0.4236
 5526SOL    HW120109   6.199   0.903   0.235  0.2223  0.5580  0.9492
 5526SOL    HW220110   6.203   0.755   0.266 -0.3201  0.7730  2.1225
 5527SOL     OW20111   4.128   0.036   1.615  0.7790  0.4702 -0.0183
 5527SOL    HW120112   4.053  -0.011   1.578  1.0804  0.9991 -1.3695
 5527SOL    HW220113   4.191  -0.033   1.638  0.1132  0.0594  0.6059
 5528SOL     OW20114   4.991   9.402   5.203  0.4070 -0.2323  0.1714
 5528SOL    HW120115   4.941   9.330   5.242 -1.6048  1.3232  0.6395
 5528SOL    HW220116   5.050   9.431   5.273  1.4421 -1.5558 -0.1147
 5529SOL     OW20117   2.319   0.512   4.159  0.3490 -0.3449 -0.3815
 5529SOL    HW120118   2.258   0.477   4.093 -0.3719  1.7333 -0.8889
 5529SOL    HW220119   2.278   0.491   4.243  0.2762 -1.2559 -0.6262
 5530SOL     OW20120   5.854   3.848   3.827  0.3943  0.1790  0.4846
 5530SOL    HW120121   5.882   3.935   3.799 -0.1255  0.6809  1.4595
 5530SOL    HW220122   5.760   3.846   3.812  0.1865  0.2793  1.6577
 5531SOL     OW20123   0.435   7.648   4.830  0.5234 -0.2978 -0.0867
 5531SOL    HW120124   0.374   7.659   4.757  0.4229 -1.6155 -0.2300
 5531SOL    HW220125   0.415   7.721   4.889 -1.1250 -0.6318 -0.1799
 5532SOL     OW20126   2.912   9.286   0.038  0.1110  0.2111 -0.3065
 5532SOL    HW120127   2.874   9.290   0.125 -0.5029 -1.1086 -0.4857
 5532SOL    HW220128   2.838   9.273  -0.021  0.7264 -1.7709 -0.7229
 5533SOL     OW20129   1.251   1.811   0.301 -0.6109 -0.5482  0.0595
 5533SOL    HW120130   1.283   1.755   0.230  1.3142 -1.4858  1.5651
 5533SOL    HW220131   1.202   1.880   0.257  0.6736 -0.9774 -2.2090
 5534SOL     OW20132   7.062   7.563   7.332  0.1726 -0.1860  0.1395
 5534SOL    HW120133   7.104   7.477   7.330  1.7852  0.4934  1.6358
 5534SOL    HW220134   7.028   7.570   7.421 -1.9398 -0.1271 -0.6215
 5535SOL     OW20135   3.355   3.290   9.927  0.1424  0.0872 -0.0183
 5535SOL    HW120136   3.331   3.382   9.915 -0.8692 -0.0760  0.6193
 5535SOL    HW220137   3.372   3.283  10.021 -1.5102 -0.7393  0.2564
 5536SOL     OW20138   2.008   9.478   9.827  0.0295  0.2001  0.6420
 5536SOL    HW120139   2.002   9.531   9.747 -0.0618  0.0859  0.5719
 5536SOL    HW220140   1.961   9.398   9.806  0.6202 -0.1351  0.5617
 5537SOL     OW20141   2.923   6.980  10.198 -0.4946 -0.5530 -0.1425
 5537SOL    HW120142   2.923   6.903  10.255 -2.9478  0.8453  1.9621
 5537SOL    HW220143   2.946   7.052  10.256  2.2529  0.3770 -2.1631
 5538SOL     OW20144   7.365   2.349   2.647  0.5140  0.8043 -0.4717
 5538SOL    HW120145   7.305   2.408   2.600  0.2383  1.0935  0.2385
 5538SOL    HW220146   7.422   2.408   2.697 -0.1806  0.4701  0.7511
 5539SOL     OW20147   8.431   4.143   7.827  0.1183 -0.0506  0.7421
 5539SOL    HW120148   8.419   4.055   7.792 -2.5574  0.1006  1.0764
 5539SOL    HW220149   8.342   4.172   7.850  1.2365  1.5029  3.6139
 5540SOL     OW20150   2.973  10.403   4.276  0.1202  0.0456  0.0831
 5540SOL    HW120151   2.970  10.461   4.200  1.3951 -0.1384 -0.1282
 5540SOL    HW220152   2.981  10.462   4.351  1.0691  0.1647 -0.1035
 5541SOL     OW20153  10.172   7.628   7.424  0.0885  0.3293  0.2846
 5541SOL    HW120154  10.251   7.682   7.416  1.2155 -1.0734  1.3930
 5541SOL    HW220155  10.170   7.578   7.343  0.1921  0.5429  0.1479
 5542SOL     OW20156   8.184   5.231   0.531 -0.2999 -0.1451  0.5449
 5542SOL    HW120157   8.206   5.139   0.544 -1.9574 -0.6378  0.0827
 5542SOL    HW220158   8.239   5.260   0.459  0.1195 -0.8213  0.5941
 5543SOL     OW20159   9.370   9.270   7.852 -0.1335 -0.1175 -0.3036
 5543SOL    HW120160   9.278   9.289   7.839 -1.2885 -1.5450  4.0662
 5543SOL    HW220161   9.373   9.175   7.868  1.8600  0.0834  0.8502
 5544SOL     OW20162   8.976   1.085   4.568  0.0545  0.1688 -0.7782
 5544SOL    HW120163   9.031   1.016   4.605  0.2611  0.6709 -0.1401
 5544SOL    HW220164   8.892   1.076   4.613  0.1652  0.4953 -0.5008
 5545SOL     OW20165   8.533  10.877   0.328 -0.6955 -0.5323  0.4314
 5545SOL    HW120166   8.582  10.940   0.275 -0.7138  0.3843  1.4541
 5545SOL    HW220167   8.446  10.876   0.290 -0.4100 -0.7119 -0.2225
 5546SOL     OW20168   3.145   8.611  10.913  0.1315  0.1259  0.2491
 5546SOL    HW120169   3.107   8.536  10.959 -0.2270  0.0953 -0.0934
 5546SOL    HW220170   3.204   8.650  10.977  1.1117 -1.0531  0.1000
 5547SOL     OW20171   2.704   9.291   8.072 -0.1255  0.2901 -0.3734
 5547SOL    HW120172   2.789   9.290   8.029  1.2975 -0.8416  2.2436
 5547SOL    HW220173   2.653   9.224   8.026  0.6587  0.4403 -1.4859
 5548SOL     OW20174   0.461   7.673   9.374 -0.1588  0.4033 -0.1655
 5548SOL    HW120175   0.397   7.722   9.425  0.5140  1.1830 -0.0589
 5548SOL    HW220176   0.433   7.582   9.382 -1.7903  0.8123 -0.8794
 5549SOL     OW20177   8.297   0.550   7.406 -0.0791  0.0117  0.6943
 5549SOL    HW120178   8.316   0.629   7.457  0.6698 -1.1017  2.2193
 5549SOL    HW220179   8.372   0.492   7.421 -0.4862 -0.9167 -0.5932
 5550SOL     OW20180   0.553   4.677   6.043 -0.4318  0.2705  0.0418
 5550SOL    HW120181   0.543   4.723   5.960 -1.3558  0.3578  0.1901
 5550SOL    HW220182   0.631   4.623   6.031  1.3244  2.5842  0.2036
 5551SOL     OW20183   6.511   9.418   6.587 -0.2527 -0.4452 -0.1798
 5551SOL    HW120184   6.522   9.495   6.643 -2.2063 -0.5569  0.4477
 5551SOL    HW220185   6.554   9.441   6.505 -0.1530  1.0190  0.2620
 5552SOL     OW20186   0.612   8.408   7.366 -0.5374  0.2705 -0.4588
 5552SOL    HW120187   0.587   8.317   7.380 -0.4141  0.5916  2.5087
 5552SOL    HW220188   0.530   8.457   7.375 -0.2911  0.6026  0.0082
 5553SOL     OW20189   8.448   9.156   6.709  0.2982  0.2802 -0.0842
 5553SOL    HW120190   8.504   9.179   6.635  0.0817 -2.3193 -1.1657
 5553SOL    HW220191   8.453   9.060   6.714 -1.8914  0.1739  1.5429
 5554SOL     OW20192   7.376   7.141   0.495 -0.1899  0.3445 -0.8118
 5554SOL    HW120193   7.326   7.108   0.420  1.2069  0.0321 -1.6537
 5554SOL    HW220194   7.425   7.215   0.459  0.3880  0.2818 -0.1634
 5555SOL     OW20195   3.954   7.733   1.436 -0.3734 -0.0762 -0.2051
 5555SOL    HW120196   3.868   7.691   1.427  0.3796 -2.6306  2.5749
 5555SOL    HW220197   3.935   7.826   1.445 -2.8220 -0.5077 -0.1583
 5556SOL     OW20198   6.161  10.603   2.568 -0.4689 -0.4460  0.0318
 5556SOL    HW120199   6.111  10.525   2.592  0.0895 -1.2904 -1.4122
 5556SOL    HW220200   6.219  10.573   2.499 -1.4518  1.6224 -1.8045
 5557SOL     OW20201  10.699   0.834   2.244  0.7891  0.1324 -0.6612
 5557SOL    HW120202  10.680   0.926   2.223 -0.5152  0.1980  0.6640
 5557SOL    HW220203  10.640   0.813   2.315  1.9924 -1.3699 -0.0473
 5558SOL     OW20204   5.470   8.117   4.135 -0.6456  0.1109  0.0595
 5558SOL    HW120205   5.500   8.114   4.044  0.6528  0.1358  0.4699
 5558SOL    HW220206   5.447   8.027   4.155 -2.3277  0.3182 -0.7067
 5559SOL     OW20207   7.569  10.036   7.336  0.3960  0.4750 -0.7007
 5559SOL    HW120208   7.660  10.020   7.361 -0.0230  0.3674  0.9010
 5559SOL    HW220209   7.527  10.065   7.418 -1.0497  0.3228 -1.3645
 5560SOL     OW20210   3.344   4.076   4.066  0.3809 -0.7517  0.2268
 5560SOL    HW120211   3.289   4.012   4.110 -1.7974 -0.2401 -1.6005
 5560SOL    HW220212   3.300   4.160   4.080  0.3151 -0.3949 -1.7780
 5561SOL     OW20213   0.590   0.008  10.023 -0.0301 -0.0214  0.0046
 5561SOL    HW120214   0.514  -0.046  10.002 -2.1332  2.1407  1.4865
 5561SOL    HW220215   0.594   0.074   9.954 -0.0960  0.4123  0.4039
 5562SOL     OW20216   8.516   7.760   9.770  0.4064  0.0865 -0.0222
 5562SOL    HW120217   8.499   7.779   9.862 -0.1171  0.3493 -0.1728
 5562SOL    HW220218   8.552   7.672   9.770 -0.8639 -0.4419  0.3081
 5563SOL     OW20219  10.535   6.561   1.151  0.3070 -0.3624  0.1288
 5563SOL    HW120220  10.611   6.502   1.143  0.4317 -0.0687 -0.9667
 5563SOL    HW220221  10.477   6.515   1.212  1.6247 -0.2953  1.5140
 5564SOL     OW20222   2.014   4.947   1.157 -0.1583 -0.7280 -0.4162
 5564SOL    HW120223   2.042   4.860   1.186 -0.2158 -0.2721  1.0847
 5564SOL    HW220224   2.080   5.007   1.193 -0.2865 -0.1154 -1.1750
 5565SOL     OW20225   2.361   6.680   9.922 -0.1629  0.1818 -0.1457
 5565SOL    HW120226   2.410   6.727   9.854  0.4316 -0.6631 -0.3188
 5565SOL    HW220227   2.314   6.749   9.969  0.3525  0.9050 -0.6537
 5566SOL     OW20228   6.424   9.659   6.771 -0.0710 -0.6949 -0.5604
 5566SOL    HW120229   6.399   9.747   6.742  0.1703  0.0624  1.4159
 5566SOL    HW220230   6.517   9.652   6.751  0.0477 -0.2663 -0.1580
 5567SOL     OW20231   7.256   7.960   3.707 -0.0181 -0.0134 -0.3923
 5567SOL    HW120232   7.271   7.868   3.730 -0.3927  0.1650  0.5872
 5567SOL    HW220233   7.161   7.970   3.709  0.0490  0.5276  0.0146
 5568SOL     OW20234   0.003   9.743   2.522  0.0668 -0.1953 -0.3013
 5568SOL    HW120235   0.066   9.737   2.450  0.6121 -0.3690  0.1916
 5568SOL    HW220236  -0.033   9.654   2.529 -0.7273  0.0496 -1.0100
 5569SOL     OW20237   5.794   7.147  10.920  0.1085 -0.0172  0.1551
 5569SOL    HW120238   5.805   7.242  10.927  1.3800  0.0441 -1.8881
 5569SOL    HW220239   5.706   7.135  10.885  0.4982  0.5163 -1.0492
 5570SOL     OW20240   3.083  10.123   5.771 -0.3016 -0.1051 -0.5275
 5570SOL    HW120241   3.117  10.115   5.682 -0.0625 -0.4123 -0.4066
 5570SOL    HW220242   3.118  10.047   5.818 -0.8819 -0.2439 -0.3165
 5571SOL     OW20243   8.935   0.573   9.788  0.1805  0.1206 -0.2615
 5571SOL    HW120244   8.929   0.602   9.879  1.2434 -2.0984  0.5682
 5571SOL    HW220245   8.846   0.542   9.768  0.0891  0.0758  0.1947
 5572SOL     OW20246   3.067   7.728   2.783 -0.0990 -0.2516 -0.2013
 5572SOL    HW120247   3.066   7.706   2.876  0.8037  1.1511  0.1649
 5572SOL    HW220248   3.128   7.667   2.744  0.4621 -0.0509  0.3514
 5573SOL     OW20249  10.944   9.817   5.029 -0.0837 -0.1503 -0.6073
 5573SOL    HW120250  11.003   9.874   5.078 -1.2244 -0.7071  1.5156
 5573SOL    HW220251  10.856   9.850   5.049 -0.7286 -2.1338  0.0534
 5574SOL     OW20252   5.885   3.509   7.890  0.5223  0.3572  0.0329
 5574SOL    HW120253   5.912   3.428   7.935  1.2401  0.0729 -0.8905
 5574SOL    HW220254   5.819   3.480   7.827  0.2780  0.6020  0.1752
 5575SOL     OW20255   8.931   2.947   1.693 -0.3071 -0.0541  0.4718
 5575SOL    HW120256   8.874   2.946   1.770  1.0726  0.9718  1.5354
 5575SOL    HW220257   8.998   3.012   1.713  0.6760 -0.5155 -1.1707
 5576SOL     OW20258   4.033   9.898   5.353 -0.5239 -0.6826  0.4849
 5576SOL    HW120259   4.049   9.989   5.331 -1.2718 -0.8790 -0.9533
 5576SOL    HW220260   4.103   9.850   5.309 -2.3353 -1.1303 -2.1314
 5577SOL     OW20261   9.463   1.959   3.630 -0.0889  1.0383  0.2498
 5577SOL    HW120262   9.483   1.954   3.537 -0.6320 -1.1669  0.1916
 5577SOL    HW220263   9.399   2.029   3.638 -1.2273  0.2361 -1.3061
 5578SOL     OW20264   8.010  10.184   9.005 -0.1483  0.4620  0.1670
 5578SOL    HW120265   7.955  10.171   8.928 -2.5961  1.1975  1.6721
 5578SOL    HW220266   7.976  10.121   9.069 -0.3848  2.0535  1.6843
 5579SOL     OW20267   6.978   6.313   1.562 -0.3160  0.1588 -0.1432
 5579SOL    HW120268   7.057   6.334   1.512  0.3768  0.4245  1.0363
 5579SOL    HW220269   7.010   6.282   1.646 -1.4805  1.1284  0.6906
 5580SOL     OW20270   6.405   4.139   5.611 -0.0899 -0.3441  0.3281
 5580SOL    HW120271   6.411   4.152   5.705  0.6968 -0.3005  0.2800
 5580SOL    HW220272   6.311   4.139   5.592 -0.2443 -0.1568  1.0813
 5581SOL     OW20273   6.773  11.099   2.106 -0.0722  0.2619  0.0908
 5581SOL    HW120274   6.759  11.028   2.168  2.2450  1.2727  1.9292
 5581SOL    HW220275   6.814  11.057   2.030  0.2670 -0.5076  0.6903
 5582SOL     OW20276   6.006   8.746   6.497  0.4491  0.3037 -0.4232
 5582SOL    HW120277   6.073   8.719   6.559 -0.5669 -0.6507  0.2929
 5582SOL    HW220278   6.014   8.841   6.492  0.8310  0.3451  0.8405
 5583SOL     OW20279   7.465   7.556   4.818 -0.3581  1.2321 -0.3714
 5583SOL    HW120280   7.480   7.488   4.752 -2.9221 -0.3333  0.5195
 5583SOL    HW220281   7.420   7.626   4.770  0.4168  1.4130 -0.8541
 5584SOL     OW20282   2.787   0.680   4.015 -0.3414 -0.5155 -0.0552
 5584SOL    HW120283   2.696   0.650   4.014  0.1195 -1.9685 -0.6227
 5584SOL    HW220284   2.833   0.621   3.956  1.0571 -0.0610  0.5286
 5585SOL     OW20285   4.396   6.300   5.000  0.0986 -0.4585  0.1717
 5585SOL    HW120286   4.380   6.209   5.022  1.2029 -0.5314  0.7381
 5585SOL    HW220287   4.475   6.298   4.945 -0.3041  0.0892 -0.4495
 5586SOL     OW20288   8.938   4.717  10.541 -0.0961  0.5014  0.1488
 5586SOL    HW120289   9.012   4.674  10.584 -0.9278  0.7555  1.8942
 5586SOL    HW220290   8.869   4.651  10.540 -0.7485  1.1379  1.1032
 5587SOL     OW20291   7.564   1.677   1.789  0.3149  0.1590 -0.6659
 5587SOL    HW120292   7.599   1.653   1.703  1.5617 -1.7860  0.3122
 5587SOL    HW220293   7.518   1.599   1.819 -0.1194  0.8218  0.4510
 5588SOL     OW20294   3.457   2.659  10.425  0.4574 -0.0274 -0.1303
 5588SOL    HW120295   3.512   2.674  10.347  1.2710 -0.2740  0.3807
 5588SOL    HW220296   3.419   2.744  10.444  0.7500  0.1759 -0.4376
 5589SOL     OW20297   0.690   7.075   7.643  0.2172  0.0662 -0.1739
 5589SOL    HW120298   0.667   7.115   7.727 -0.1360  0.9499 -0.6803
 5589SOL    HW220299   0.785   7.065   7.646  0.3781  1.4176 -0.2299
 5590SOL     OW20300  10.798   9.695   9.678  0.1813 -0.0125  0.5343
 5590SOL    HW120301  10.724   9.750   9.651 -1.4048 -1.4035  1.8579
 5590SOL    HW220302  10.860   9.702   9.606 -1.0853  1.4524 -0.4917
 5591SOL     OW20303   1.927   1.403   4.440  0.3341  0.1072  0.0898
 5591SOL    HW120304   1.937   1.440   4.352  0.3519 -4.1494 -1.9431
 5591SOL    HW220305   1.833   1.392   4.451  0.2729  1.3559  1.0228
 5592SOL     OW20306   8.828   8.393   1.967 -0.0890 -0.5304 -0.5423
 5592SOL    HW120307   8.872   8.473   1.938  0.4980 -0.1720  1.2433
 5592SOL    HW220308   8.893   8.346   2.019 -1.1315 -1.0270  0.3615
 5593SOL     OW20309   2.620  11.038   4.688  0.9576  0.4438 -0.7704
 5593SOL    HW120310   2.670  10.975   4.636  2.0697  0.2558  0.4700
 5593SOL    HW220311   2.605  10.994   4.772 -1.9088  0.2277 -1.2824
 5594SOL     OW20312   3.302   6.068   0.278 -0.6379 -0.1863  0.2853
 5594SOL    HW120313   3.274   6.158   0.263  1.7912  0.5123 -0.5987
 5594SOL    HW220314   3.281   6.022   0.197  1.4769  0.5682 -0.7508
 5595SOL     OW20315   6.768   9.370   1.559 -0.6869  0.1375 -0.1333
 5595SOL    HW120316   6.850   9.336   1.525 -0.0752  1.3361  0.0640
 5595SOL    HW220317   6.702   9.341   1.497 -0.3266 -1.9364  0.3890
 5596SOL     OW20318   3.794   9.886   1.303  0.4554  0.3385 -0.0907
 5596SOL    HW120319   3.847   9.944   1.358 -0.6864  0.3770  0.9970
 5596SOL    HW220320   3.785   9.806   1.355 -0.0925  0.1214 -0.5140
 5597SOL     OW20321   6.678  10.632   3.920 -0.6048 -0.5383 -0.4513
 5597SOL    HW120322   6.725  10.615   3.839 -0.5080  0.5494 -0.6456
 5597SOL    HW220323   6.685  10.727   3.932  1.5640 -0.9061  2.1554
 5598SOL     OW20324   6.980   7.907   8.117 -0.0261 -0.3121  0.7095
 5598SOL    HW120325   6.948   7.941   8.201  0.4768 -0.6880  1.0627
 5598SOL    HW220326   7.067   7.873   8.137  0.5574  0.5668 -0.1990
 5599SOL     OW20327   2.669   8.032   4.239  0.2395  0.2495  0.3341
 5599SOL    HW120328   2.604   8.075   4.182  0.4672  0.8721  0.5297
 5599SOL    HW220329   2.684   7.947   4.198 -0.5093  0.1988  0.1433
 5600SOL     OW20330   1.976   0.768  10.878 -0.3006  0.5169  0.5385
 5600SOL    HW120331   1.976   0.756  10.783  0.0017  0.0212  0.5996
 5600SOL    HW220332   1.981   0.863  10.890  0.4679  0.5452  0.0672
 5601SOL     OW20333   3.568  10.846   2.171 -0.6298 -0.2633 -0.0701
 5601SOL    HW120334   3.577  10.896   2.090 -0.6916  0.3629  0.2998
 5601SOL    HW220335   3.612  10.763   2.153  0.3170  0.2914 -0.3897
 5602SOL     OW20336   6.122   0.472   6.883  0.2101 -0.3536 -0.2283
 5602SOL    HW120337   6.074   0.412   6.940 -0.3391 -1.2230 -1.5497
 5602SOL    HW220338   6.122   0.429   6.798 -1.0217  1.9592 -1.4892
 5603SOL     OW20339   1.621   5.892   6.115  0.7599 -1.3304 -0.7850
 5603SOL    HW120340   1.717   5.893   6.107  0.9700  0.2254  1.1528
 5603SOL    HW220341   1.593   5.974   6.076  0.1193 -2.0470 -1.8857
 5604SOL     OW20342   1.431   9.702   8.486 -0.6295  0.6520  0.5826
 5604SOL    HW120343   1.337   9.718   8.495 -0.4644  1.9476  0.2363
 5604SOL    HW220344   1.438   9.608   8.471 -1.8489  0.4954  0.8805
 5605SOL     OW20345   9.445   1.362   7.678  0.1525  0.0149  0.3769
 5605SOL    HW120346   9.450   1.392   7.769 -1.7599  2.6102 -0.2534
 5605SOL    HW220347   9.376   1.416   7.639 -0.5141 -2.4159 -2.1226
 5606SOL     OW20348   3.868  10.894   4.952 -0.1808  0.3200  0.0419
 5606SOL    HW120349   3.804  10.881   5.021 -0.6513 -0.6750 -0.5678
 5606SOL    HW220350   3.849  10.981   4.917 -0.1269  0.7033  0.9578
 5607SOL     OW20351   3.127  10.354   7.763  0.2328 -0.0751 -0.1738
 5607SOL    HW120352   3.182  10.311   7.698  0.5824 -0.4266  0.3436
 5607SOL    HW220353   3.110  10.441   7.727  0.9164 -0.0550 -0.4490
 5608SOL     OW20354   7.524  10.189   6.844 -0.3562 -0.1069 -0.2802
 5608SOL    HW120355   7.494  10.144   6.923 -1.8476  0.8362 -0.2818
 5608SOL    HW220356   7.484  10.275   6.848  2.1066  1.1350 -0.5003
 5609SOL     OW20357   5.625   5.254   7.827  0.0910 -0.0263 -0.0222
 5609SOL    HW120358   5.544   5.209   7.803 -0.6528  0.9483  0.6009
 5609SOL    HW220359   5.616   5.341   7.788  0.1709  0.5844  1.2850
 5610SOL     OW20360   1.278   6.006   6.572 -0.3037 -0.4774  0.2801
 5610SOL    HW120361   1.250   6.019   6.663  1.3742 -0.3176  0.8111
 5610SOL    HW220362   1.334   5.928   6.576  1.8420  0.9449 -0.0984
 5611SOL     OW20363   4.499   0.418   0.293 -0.4755 -0.3994 -0.3107
 5611SOL    HW120364   4.466   0.499   0.253  3.5408  0.8418 -1.5337
 5611SOL    HW220365   4.570   0.446   0.350  0.8634 -3.0500 -0.5410
 5612SOL     OW20366   2.851   4.892   4.984  0.2946 -0.1148 -0.1127
 5612SOL    HW120367   2.765   4.864   4.955  0.0310 -1.3544  1.7308
 5612SOL    HW220368   2.858   4.983   4.954 -1.7958  0.1270  0.0145
 5613SOL     OW20369   1.577   9.169   7.210  0.0577 -0.3138  0.1302
 5613SOL    HW120370   1.509   9.143   7.272 -0.5960 -0.1726 -0.5144
 5613SOL    HW220371   1.600   9.089   7.164  2.3886 -0.9899  2.2549
 5614SOL     OW20372   6.772   5.157   2.791 -0.4220 -0.0565  0.1677
 5614SOL    HW120373   6.763   5.069   2.753 -1.8349 -0.3040  1.0183
 5614SOL    HW220374   6.690   5.201   2.769  0.1592  0.9594  0.0010
 5615SOL     OW20375  10.819   4.365   7.283 -0.6330  0.5042 -0.6856
 5615SOL    HW120376  10.794   4.404   7.199 -0.4415  0.9974 -0.5126
 5615SOL    HW220377  10.873   4.289   7.259 -1.1822  0.2137 -1.0247
 5616SOL     OW20378   1.678   5.390   6.535  0.2856 -0.5608 -0.1097
 5616SOL    HW120379   1.613   5.322   6.519  0.8195 -0.7503 -1.6316
 5616SOL    HW220380   1.681   5.441   6.454  0.6817  0.6125  0.6086
 5617SOL     OW20381   0.276   7.654   1.599 -0.4025 -0.0807  0.4092
 5617SOL    HW120382   0.277   7.737   1.551 -0.6276 -0.6007 -0.5088
 5617SOL    HW220383   0.366   7.644   1.631 -0.4359  0.6385  0.7480
 5618SOL     OW20384   1.361   4.166   6.692 -0.0250  0.5549 -0.4557
 5618SOL    HW120385   1.320   4.080   6.685 -0.4556  0.6985  0.2253
 5618SOL    HW220386   1.293   4.222   6.729  0.1299  1.2843 -1.2784
 5619SOL     OW20387   8.903   7.786   7.068  0.5053  0.5632  0.4558
 5619SOL    HW120388   8.953   7.848   7.016  0.3903 -0.8546 -1.4492
 5619SOL    HW220389   8.812   7.801   7.043  0.5939 -1.4569 -1.4270
 5620SOL     OW20390   8.455  10.402   0.670  0.1827 -0.4051  0.3222
 5620SOL    HW120391   8.395  10.327   0.674 -2.1898  1.4075  1.4010
 5620SOL    HW220392   8.449  10.432   0.579 -3.4755  1.8361  1.1369
 5621SOL     OW20393   9.196   7.343   5.942  0.2759  0.0735  0.3229
 5621SOL    HW120394   9.143   7.342   6.022  0.8374  0.4651  0.7121
 5621SOL    HW220395   9.253   7.267   5.950 -0.6005 -0.6758 -0.3672
 5622SOL     OW20396   4.727   3.875   5.746  0.0373  0.1017  0.7027
 5622SOL    HW120397   4.660   3.839   5.805  0.3029 -2.1468 -0.2768
 5622SOL    HW220398   4.780   3.800   5.721  0.8675  1.2538 -1.2089
 5623SOL     OW20399   0.156   1.602   5.462  0.0646  0.0363 -0.0673
 5623SOL    HW120400   0.214   1.530   5.439 -2.6905 -2.6519  0.7594
 5623SOL    HW220401   0.185   1.631   5.548  1.8773  0.7898 -0.8679
 5624SOL     OW20402   5.515   0.620   3.051  0.2483 -0.3544 -0.5251
 5624SOL    HW120403   5.442   0.668   3.012  0.1454 -0.2448 -0.1996
 5624SOL    HW220404   5.592   0.672   3.027  0.1610 -0.1563 -0.3753
 5625SOL     OW20405   0.559   7.391   5.583 -0.5772  0.1402  0.0891
 5625SOL    HW120406   0.494   7.335   5.625 -0.4053 -0.6844 -0.6860
 5625SOL    HW220407   0.596   7.444   5.654  0.8393 -2.2994  1.3313
 5626SOL     OW20408   6.116   6.884   2.429 -0.6192 -0.0554  0.0013
 5626SOL    HW120409   6.073   6.917   2.508 -0.1373 -0.3036  0.3678
 5626SOL    HW220410   6.066   6.923   2.357 -1.7423 -0.6943  0.4096
 5627SOL     OW20411  11.066   9.746  10.122 -0.2500  0.3128 -0.5056
 5627SOL    HW120412  11.010   9.739  10.045 -0.6433 -1.3966 -0.1056
 5627SOL    HW220413  11.004   9.759  10.195 -0.0092  0.1199 -0.2653
 5628SOL     OW20414   0.656   1.263   1.254 -0.1676 -0.5617 -0.4486
 5628SOL    HW120415   0.701   1.255   1.339  0.2653 -0.1329 -0.6296
 5628SOL    HW220416   0.708   1.327   1.206 -1.9014  1.2357 -0.0637
 5629SOL     OW20417   6.990   1.382   3.886 -0.3031 -0.1609 -0.0343
 5629SOL    HW120418   7.042   1.356   3.962  0.3040  1.1071  0.0169
 5629SOL    HW220419   6.966   1.473   3.904  0.1068  0.2576 -1.4796
 5630SOL     OW20420   6.933   3.198   2.311  0.2451  0.0708 -0.3738
 5630SOL    HW120421   6.876   3.229   2.382  0.4509 -0.7497  0.1758
 5630SOL    HW220422   6.934   3.103   2.322  2.3104  0.0958  0.1197
 5631SOL     OW20423   6.183  10.632  10.169 -0.0937  0.3749 -0.1723
 5631SOL    HW120424   6.274  10.610  10.190  0.0835  0.7809 -0.4969
 5631SOL    HW220425   6.131  10.571  10.222  0.3674 -1.8539 -2.1101
 5632SOL     OW20426   5.713   3.879   7.786 -0.2819  0.0600  0.3973
 5632SOL    HW120427   5.808   3.869   7.780 -0.2505  0.3025  0.4834
 5632SOL    HW220428   5.700   3.972   7.801 -0.5454  0.0638  0.1488
 5633SOL     OW20429   0.581   7.798   6.202  0.4263  0.1954  0.0722
 5633SOL    HW120430   0.651   7.734   6.187 -0.2975 -0.7098  0.4638
 5633SOL    HW220431   0.559   7.830   6.115  1.4827  0.6687 -0.0331
 5634SOL     OW20432   0.110   3.456   6.604  0.4808 -0.2887 -0.0459
 5634SOL    HW120433   0.159   3.394   6.658  0.3359 -0.5668 -0.2293
 5634SOL    HW220434   0.135   3.433   6.514  1.4987  0.8182 -0.0650
 5635SOL     OW20435  10.865   3.170   8.230 -0.6669  0.0175  0.2829
 5635SOL    HW120436  10.785   3.120   8.248  0.7636 -2.1800  0.9703
 5635SOL    HW220437  10.931   3.131   8.288  0.9018  1.7776 -0.2273
 5636SOL     OW20438   5.204   6.391   0.683 -0.0933 -0.0426 -0.5099
 5636SOL    HW120439   5.198   6.470   0.737 -2.2982 -0.8863  0.5998
 5636SOL    HW220440   5.295   6.363   0.692  0.0837  0.9411  1.1689
 5637SOL     OW20441   4.375   2.096   7.376 -0.2363 -0.2868  0.0844
 5637SOL    HW120442   4.460   2.137   7.394  0.3530 -1.3938 -0.0466
 5637SOL    HW220443   4.397   2.006   7.354 -1.2955 -0.0886 -1.9632
 5638SOL     OW20444   2.314   1.953   9.052 -0.0529 -0.5065 -0.4885
 5638SOL    HW120445   2.238   1.937   9.109  1.6767  0.0734  2.1776
 5638SOL    HW220446   2.299   2.040   9.017 -0.3697 -0.1523  0.4850
 5639SOL     OW20447  11.008   6.601   6.056 -0.4808 -0.1748  0.1281
 5639SOL    HW120448  10.918   6.580   6.079 -0.2443 -0.4700  0.8026
 5639SOL    HW220449  11.013   6.696   6.061 -0.6973 -0.1731  0.3101
 5640SOL     OW20450   6.064   9.505   1.019  0.0395 -0.2936  0.0189
 5640SOL    HW120451   6.145   9.455   1.006  1.4650  1.7648  0.5783
 5640SOL    HW220452   6.020   9.501   0.935  1.4468 -0.2392 -0.7466
 5641SOL     OW20453   6.296   0.577   5.432  0.3122  0.3359 -0.2226
 5641SOL    HW120454   6.239   0.512   5.391 -0.7401  3.2294 -3.8641
 5641SOL    HW220455   6.240   0.653   5.445  1.8012  1.0973  2.7229
 5642SOL     OW20456   3.815   4.416   2.122 -0.2871 -0.2458  0.2049
 5642SOL    HW120457   3.801   4.451   2.034 -0.0418  0.8402  0.5833
 5642SOL    HW220458   3.910   4.413   2.132 -0.3139 -0.5049  0.3738
 5643SOL     OW20459   9.999   4.394   4.368 -0.7895  0.0311  0.2211
 5643SOL    HW120460  10.090   4.366   4.364 -0.1587  1.8472  1.0675
 5643SOL    HW220461   9.964   4.375   4.280  0.4951 -0.3141 -0.2320
 5644SOL     OW20462   4.507   8.980   6.131  0.1057 -0.2120  0.3575
 5644SOL    HW120463   4.453   8.915   6.085  0.5064  0.3810 -1.0072
 5644SOL    HW220464   4.583   8.930   6.160  0.7667 -0.2568 -1.3284
 5645SOL     OW20465   0.468   4.112  10.224 -0.0013 -0.0224  0.3433
 5645SOL    HW120466   0.483   4.204  10.247 -3.4395  1.7358 -3.2164
 5645SOL    HW220467   0.526   4.097  10.149 -1.8926  0.5650 -1.3319
 5646SOL     OW20468  10.831  10.205   4.427  1.3855  0.0761 -0.1009
 5646SOL    HW120469  10.863  10.202   4.337  1.8462  0.9302  0.0258
 5646SOL    HW220470  10.792  10.292   4.436  1.0134 -0.1385  0.4224
 5647SOL     OW20471  10.373   3.074   5.275  0.4832 -0.0452  0.1325
 5647SOL    HW120472  10.283   3.052   5.253  0.4500 -0.4633  0.6517
 5647SOL    HW220473  10.417   3.087   5.191 -0.2992  1.1761 -0.1091
 5648SOL     OW20474  10.342   5.971  10.429 -0.3368  0.4809  0.6470
 5648SOL    HW120475  10.352   6.004  10.340  0.0192 -0.4347  0.3353
 5648SOL    HW220476  10.266   5.913  10.425  0.1001 -0.1069  0.7733
 5649SOL     OW20477   5.011   9.298   6.490  0.0331 -0.0478 -0.2667
 5649SOL    HW120478   5.008   9.372   6.429  2.5064 -2.0310 -3.0493
 5649SOL    HW220479   4.944   9.238   6.458  2.4174 -1.8428 -2.3808
 5650SOL     OW20480  10.579   8.658   0.105  0.0921 -0.2311 -0.3582
 5650SOL    HW120481  10.580   8.753   0.094  0.5594 -0.0553  1.0273
 5650SOL    HW220482  10.670   8.636   0.123  0.1706 -1.0944 -1.6587
 5651SOL     OW20483   6.080   2.795   7.824  0.3534 -0.4436 -0.1271
 5651SOL    HW120484   6.052   2.811   7.914  0.4817  0.4522 -0.2358
 5651SOL    HW220485   6.162   2.745   7.833 -1.0870 -2.9144  0.1918
 5652SOL     OW20486   8.163   7.591   5.431  1.0063 -0.1058  0.1089
 5652SOL    HW120487   8.171   7.524   5.499 -1.6638 -0.1840  0.4291
 5652SOL    HW220488   8.234   7.652   5.449  0.4098 -0.1487  2.9553
 5653SOL     OW20489   4.602   9.316   2.137 -0.0611 -0.6391 -0.2781
 5653SOL    HW120490   4.578   9.239   2.188  0.2691  1.0896  2.7208
 5653SOL    HW220491   4.698   9.315   2.136 -0.0474 -0.1008  0.0873
 5654SOL     OW20492   5.082   8.241   1.223 -0.0756  0.0548  0.6948
 5654SOL    HW120493   5.101   8.293   1.145  0.0825 -0.3923  0.4271
 5654SOL    HW220494   5.015   8.291   1.270 -2.4299 -1.0532 -1.2297
 5655SOL     OW20495   0.132   5.312   4.228  0.2567 -0.0989  0.2862
 5655SOL    HW120496   0.089   5.329   4.311 -1.2984 -0.8903 -0.3246
 5655SOL    HW220497   0.223   5.339   4.242  0.2652 -1.1040  2.5375
 5656SOL     OW20498   1.575   0.019   8.074 -0.0841 -0.2789  0.1352
 5656SOL    HW120499   1.608   0.100   8.113  1.7336 -1.2148  0.6668
 5656SOL    HW220500   1.552  -0.035   8.149 -0.2839 -0.6494 -0.1921
 5657SOL     OW20501   8.405   8.477   0.850  1.0254 -0.0218 -0.6259
 5657SOL    HW120502   8.432   8.545   0.912 -0.2557 -0.4946  0.5222
 5657SOL    HW220503   8.471   8.408   0.860  2.0963  0.8668 -1.4917
 5658SOL     OW20504   5.797   6.757   9.244 -0.5270  0.4075  0.0138
 5658SOL    HW120505   5.767   6.680   9.196 -1.7236  0.4313  0.6710
 5658SOL    HW220506   5.759   6.831   9.197  0.2325  0.5692 -0.3469
 5659SOL     OW20507   3.719   5.538   2.238  0.3283 -0.2432 -0.2953
 5659SOL    HW120508   3.660   5.544   2.163  0.7957 -0.2008 -0.6701
 5659SOL    HW220509   3.735   5.445   2.249  0.7224 -0.2215 -0.6299
 5660SOL     OW20510   6.820   1.183   8.364 -0.0769 -0.3022  0.4524
 5660SOL    HW120511   6.745   1.186   8.305  0.9491 -1.7442 -0.9933
 5660SOL    HW220512   6.890   1.229   8.318 -0.1784  1.5549  2.0376
 5661SOL     OW20513   3.661   6.689   1.098 -0.3022  0.3391 -0.3013
 5661SOL    HW120514   3.733   6.664   1.156 -0.9891  0.9887  0.8596
 5661SOL    HW220515   3.702   6.746   1.033  0.1889  0.9665  0.5402
 5662SOL     OW20516   6.519  10.454   6.587 -0.3391  0.0469  0.5324
 5662SOL    HW120517   6.429  10.430   6.565 -0.5440  1.4568 -0.2620
 5662SOL    HW220518   6.512  10.499   6.671 -0.3235 -0.2054  0.6686
 5663SOL     OW20519   6.543   5.003   6.116  0.7108 -0.0013 -0.0192
 5663SOL    HW120520   6.499   5.049   6.187  2.0745 -0.0897  0.9381
 5663SOL    HW220521   6.605   5.068   6.082  2.5739 -1.0139  1.2664
 5664SOL     OW20522  10.142   6.804   4.803 -0.2617 -0.2084  0.6287
 5664SOL    HW120523  10.088   6.880   4.783 -1.8325 -0.6754  2.7338
 5664SOL    HW220524  10.157   6.762   4.718 -2.0578  0.6994 -0.1909
 5665SOL     OW20525   5.062   8.831   5.085 -0.3727 -0.4311 -0.6640
 5665SOL    HW120526   5.113   8.899   5.127 -2.4834  0.4822  0.5872
 5665SOL    HW220527   5.030   8.871   5.004 -0.7523 -0.2802 -0.4435
 5666SOL     OW20528   0.465   1.321  10.656  0.1110  0.0106 -0.2268
 5666SOL    HW120529   0.482   1.226  10.648  1.4635  0.1338  0.8076
 5666SOL    HW220530   0.380   1.333  10.615  0.2734 -1.5365 -1.1321
 5667SOL     OW20531   5.820   3.815   8.590  0.1958 -0.3572 -0.6750
 5667SOL    HW120532   5.845   3.724   8.569 -2.0749 -1.1542 -0.1947
 5667SOL    HW220533   5.867   3.867   8.525 -0.2019 -2.0832 -2.4561
 5668SOL     OW20534   3.343   9.803   2.033 -0.2070  0.0224 -0.9855
 5668SOL    HW120535   3.332   9.757   2.117  0.6373 -1.5158 -1.6841
 5668SOL    HW220536   3.381   9.887   2.057 -0.0224 -0.3768  0.1912
 5669SOL     OW20537   9.419   9.852   9.752  0.2215  0.1046  0.2301
 5669SOL    HW120538   9.378   9.928   9.709 -0.6546 -0.3715  0.2070
 5669SOL    HW220539   9.348   9.812   9.802  0.5953 -0.8880 -0.0203
 5670SOL     OW20540   9.643  10.965   7.197  0.3031 -0.3573  0.0006
 5670SOL    HW120541   9.699  10.907   7.145  1.6134  0.0756  0.8846
 5670SOL    HW220542   9.644  10.927   7.284 -0.7409 -0.2985  0.0422
 5671SOL     OW20543   0.152   6.476   6.080  0.3478 -0.4415  0.4985
 5671SOL    HW120544   0.153   6.392   6.124 -1.2892 -1.1720 -0.7431
 5671SOL    HW220545   0.061   6.505   6.086  0.4082  0.1629 -0.9930
 5672SOL     OW20546   5.413   8.419   4.077  0.2450 -0.4025 -0.0574
 5672SOL    HW120547   5.325   8.456   4.085  0.4050 -0.3609  2.1842
 5672SOL    HW220548   5.399   8.326   4.061 -0.3228 -0.7880  2.2398
 5673SOL     OW20549   5.645   3.443   4.831 -0.2657  0.0705  0.1936
 5673SOL    HW120550   5.610   3.530   4.850  1.8925  1.5083 -1.7462
 5673SOL    HW220551   5.727   3.439   4.880 -0.2847 -0.8348  0.1724
 5674SOL     OW20552   8.863   0.018   5.759  0.3654 -0.1668 -0.7218
 5674SOL    HW120553   8.894  -0.019   5.842  1.3034 -0.4542 -1.1812
 5674SOL    HW220554   8.774   0.046   5.777 -0.0819 -1.8604 -0.1024
 5675SOL     OW20555   8.317  10.261   5.337 -0.2008  0.2997 -0.0406
 5675SOL    HW120556   8.295  10.232   5.248 -0.4623 -1.4657  0.5637
 5675SOL    HW220557   8.250  10.326   5.359 -0.9147 -0.2172 -0.6528
 5676SOL     OW20558   8.667   6.224   3.039  0.0042 -0.0930 -0.0742
 5676SOL    HW120559   8.643   6.210   3.130  0.3003  0.8579  0.1590
 5676SOL    HW220560   8.630   6.309   3.016  0.5865  0.0318 -0.6072
 5677SOL     OW20561   3.245   1.112   0.178 -0.4324 -0.7215  0.0744
 5677SOL    HW120562   3.167   1.105   0.124 -0.9839 -0.9082  0.8751
 5677SOL    HW220563   3.299   1.178   0.134  0.0274 -2.2374 -1.7375
 5678SOL     OW20564   2.771   9.257   5.343 -0.2032  0.6885  0.2577
 5678SOL    HW120565   2.726   9.324   5.292  2.2899  2.4992  0.2602
 5678SOL    HW220566   2.778   9.293   5.431  1.1715  0.4624  0.2647
 5679SOL     OW20567   8.199   1.963   1.939 -0.0881 -0.2308  0.1107
 5679SOL    HW120568   8.219   2.057   1.936  3.1187 -0.6971  2.0030
 5679SOL    HW220569   8.169   1.942   1.850 -1.7570  2.6691 -0.1370
 5680SOL     OW20570   1.844   5.140   8.817 -0.3132  0.1266  0.4861
 5680SOL    HW120571   1.876   5.156   8.906 -0.4576 -1.0402  0.7779
 5680SOL    HW220572   1.919   5.157   8.760 -0.2030  0.8265  0.8361
 5681SOL     OW20573   9.466  10.810   9.699 -0.2888  0.1755  0.1287
 5681SOL    HW120574   9.407  10.847   9.633 -0.2044  1.3971  0.7207
 5681SOL    HW220575   9.412  10.803   9.778  0.0348  0.2018  0.3559
 5682SOL     OW20576   0.117   7.345   6.371 -0.5761  0.5568  0.0524
 5682SOL    HW120577   0.100   7.385   6.457 -0.0201 -1.3565  1.1166
 5682SOL    HW220578   0.199   7.384   6.342 -0.0275  0.2131  1.0827
 5683SOL     OW20579   8.937   9.032   1.567 -0.1875  0.0273 -0.3419
 5683SOL    HW120580   8.959   8.947   1.606 -1.5158  0.4697  1.5101
 5683SOL    HW220581   8.961   9.095   1.635  1.8050  1.2909 -2.0991
 5684SOL     OW20582   8.285   2.079   6.111  0.2470  0.2159  0.3976
 5684SOL    HW120583   8.307   2.164   6.074 -2.9189  1.1907  0.4876
 5684SOL    HW220584   8.239   2.099   6.192 -1.3587 -1.5308 -0.0240
 5685SOL     OW20585   1.387   3.743   4.014 -0.7614  0.4490  0.3358
 5685SOL    HW120586   1.335   3.663   4.022 -0.6447  0.3554  0.1822
 5685SOL    HW220587   1.413   3.745   3.922  0.6970 -0.2662  0.7027
 5686SOL     OW20588   7.999   8.480   2.985  0.3420  0.2275 -0.4603
 5686SOL    HW120589   7.906   8.500   2.991 -0.1054 -1.5537 -0.7524
 5686SOL    HW220590   8.011   8.452   2.894  1.2871  0.9274 -0.5680
 5687SOL     OW20591   6.697  10.409   0.615  0.1916  0.0096 -0.4245
 5687SOL    HW120592   6.711  10.315   0.623 -2.0342 -0.3804 -0.4419
 5687SOL    HW220593   6.606  10.417   0.587  0.9216  2.1049 -2.5653
 5688SOL     OW20594  10.663   9.855   5.809  0.1371  0.2067  0.0120
 5688SOL    HW120595  10.670   9.941   5.852 -0.8997 -0.2405  1.1013
 5688SOL    HW220596  10.744   9.810   5.833  0.0421  0.3557  0.6227
 5689SOL     OW20597   7.998   9.387   6.431 -0.3684  0.0709  0.0207
 5689SOL    HW120598   7.945   9.327   6.485 -1.9821  0.1328 -1.4032
 5689SOL    HW220599   8.028   9.334   6.358  1.5816  0.0545  0.7899
 5690SOL     OW20600   5.737   6.639   4.163  0.0328 -0.3862 -0.0054
 5690SOL    HW120601   5.724   6.544   4.171  0.2402 -0.3583  0.7017
 5690SOL    HW220602   5.649   6.676   4.162 -0.0308 -0.4418  1.6112
 5691SOL     OW20603   4.331   0.228   7.217  0.2547  0.1796  0.2574
 5691SOL    HW120604   4.259   0.214   7.155 -0.2164  0.0356  0.8351
 5691SOL    HW220605   4.293   0.208   7.303  0.7563  0.8858  0.6494
 5692SOL     OW20606  10.272   8.422   6.827  0.5830 -0.3418 -0.2850
 5692SOL    HW120607  10.294   8.339   6.785  2.5931 -0.4610  0.8955
 5692SOL    HW220608  10.261   8.483   6.754 -0.7930 -1.5706 -1.1643
 5693SOL     OW20609   1.515   4.814   8.692 -0.3264  0.0641 -0.0940
 5693SOL    HW120610   1.604   4.848   8.692 -0.0404 -0.6202 -0.8473
 5693SOL    HW220611   1.460   4.888   8.715  0.3239  0.8814 -1.0774
 5694SOL     OW20612   3.980   5.294   0.408 -0.2761  0.3322  0.1830
 5694SOL    HW120613   3.922   5.278   0.333 -0.7791 -0.1024  0.6530
 5694SOL    HW220614   4.064   5.317   0.370 -0.7695  1.0000 -0.5211
 5695SOL     OW20615   0.046   5.509   4.896  0.0859 -0.3842  0.9832
 5695SOL    HW120616  -0.033   5.463   4.924  0.2126 -1.3518 -0.1921
 5695SOL    HW220617   0.030   5.532   4.805  1.1774 -0.6451  0.7108
 5696SOL     OW20618   9.524   3.773   7.235  0.3157  0.1386  0.4765
 5696SOL    HW120619   9.612   3.772   7.273  0.4125  2.0789  0.3551
 5696SOL    HW220620   9.469   3.734   7.303  1.0901 -0.0625  1.0050
 5697SOL     OW20621   2.339   9.496   5.909 -0.1191 -0.5785 -0.6605
 5697SOL    HW120622   2.392   9.419   5.930 -0.0595 -1.2462 -2.9002
 5697SOL    HW220623   2.384   9.569   5.951 -0.3892 -1.7514  1.8511
 5698SOL     OW20624  10.183   0.351  10.883 -0.1688  0.9469 -0.4761
 5698SOL    HW120625  10.217   0.266  10.910 -0.6427  1.4460  1.8792
 5698SOL    HW220626  10.251   0.387  10.826  2.1419  0.8356  2.0511
 5699SOL     OW20627   1.850   9.570   2.000  0.1865  0.0583 -0.0616
 5699SOL    HW120628   1.803   9.518   1.934  0.3898 -1.2997  0.8297
 5699SOL    HW220629   1.868   9.508   2.071 -1.6304  1.8684  2.1258
 5700SOL     OW20630   8.658   7.678   0.587  0.1697  0.3877 -0.0329
 5700SOL    HW120631   8.581   7.670   0.530 -0.6376 -0.5316  1.1359
 5700SOL    HW220632   8.625   7.723   0.665  0.6886 -0.4328  0.6766
 5701SOL     OW20633   3.692   5.217   9.666 -0.3018 -0.3277 -0.2056
 5701SOL    HW120634   3.749   5.264   9.606  0.7688  0.1217  1.1152
 5701SOL    HW220635   3.746   5.146   9.701 -0.2697  0.5174  1.5858
 5702SOL     OW20636   2.947  11.004   9.938 -0.4561  0.0272  0.0098
 5702SOL    HW120637   2.856  10.975   9.932 -1.5188  2.9955  0.0902
 5702SOL    HW220638   2.948  11.067  10.010  1.3036  1.2988 -1.0467
 5703SOL     OW20639   0.663   0.076   6.763  0.4579  0.3230  0.5018
 5703SOL    HW120640   0.655   0.030   6.847  0.3490 -1.3183 -0.3662
 5703SOL    HW220641   0.574   0.076   6.727  0.7573 -0.3116 -0.2722
 5704SOL     OW20642   8.301   9.211   5.003  0.5699  0.1515  0.0666
 5704SOL    HW120643   8.299   9.134   4.947  0.0818  0.5401 -0.4537
 5704SOL    HW220644   8.389   9.210   5.043  0.4541 -0.8347  0.3092
 5705SOL     OW20645   2.442   1.806   6.995  0.0312  0.4600 -0.1432
 5705SOL    HW120646   2.427   1.898   7.013  1.2664  0.6269  0.0992
 5705SOL    HW220647   2.414   1.761   7.074 -2.2681  0.4310 -0.9114
 5706SOL     OW20648   4.715   1.166   8.854  0.1813 -0.3200 -0.2786
 5706SOL    HW120649   4.634   1.118   8.874 -0.1609  0.6267  0.6904
 5706SOL    HW220650   4.691   1.221   8.779  0.5919 -1.6448 -1.4354
 5707SOL     OW20651   3.070   2.924   1.389  0.2841 -0.5928  0.3111
 5707SOL    HW120652   3.054   3.017   1.404  0.3931 -0.7012  1.1207
 5707SOL    HW220653   3.041   2.910   1.299  1.0055  0.3937 -0.1101
 5708SOL     OW20654   5.426   2.155   9.176  0.6658 -0.2208 -0.2286
 5708SOL    HW120655   5.425   2.069   9.134 -0.2639 -0.1255 -0.4344
 5708SOL    HW220656   5.462   2.214   9.109  0.7734 -0.3512 -0.2869
 5709SOL     OW20657   6.018   3.130   4.138 -0.7647 -0.4006  0.1136
 5709SOL    HW120658   6.003   3.131   4.233 -1.6033  1.2711 -0.0043
 5709SOL    HW220659   6.085   3.063   4.126  0.4225  0.3284  2.0716
 5710SOL     OW20660   9.877   8.873   9.193  0.0039 -0.7348 -0.1339
 5710SOL    HW120661   9.912   8.956   9.225  0.3369 -0.6804 -0.6169
 5710SOL    HW220662   9.784   8.890   9.177  0.4479  0.1356 -2.0892
 5711SOL     OW20663  10.365   7.019   7.020 -0.0237  0.0818  0.0108
 5711SOL    HW120664  10.431   6.965   6.975 -0.0799  0.2795 -0.3165
 5711SOL    HW220665  10.297   7.033   6.954 -0.1240  0.3535  0.1706
 5712SOL     OW20666   7.159   4.889  10.025 -0.5300 -0.1223  0.3840
 5712SOL    HW120667   7.248   4.869  10.052 -1.2388  1.1354  4.4293
 5712SOL    HW220668   7.162   4.893   9.930  3.7776  0.2356  0.3676
 5713SOL     OW20669   7.017   4.059   6.362 -0.1450 -1.0256 -0.5100
 5713SOL    HW120670   6.952   4.067   6.432  0.1493 -1.4353 -0.1834
 5713SOL    HW220671   7.091   4.015   6.404  2.0105  2.8832  0.2343
 5714SOL     OW20672   1.734   6.782   9.445  0.0701 -0.5810 -0.5674
 5714SOL    HW120673   1.715   6.849   9.380 -0.7401 -0.5721 -0.3225
 5714SOL    HW220674   1.830   6.773   9.442  0.2076  0.6899 -0.4820
 5715SOL     OW20675  10.242   3.505   7.187 -0.2735  0.4147  0.2017
 5715SOL    HW120676  10.211   3.417   7.167  1.8063 -0.1808 -0.6579
 5715SOL    HW220677  10.200   3.561   7.122 -2.2814  0.2777  1.2721
 5716SOL     OW20678  10.913  10.477   1.972  0.0636 -0.2785  0.5581
 5716SOL    HW120679  11.001  10.492   2.006 -0.4654  0.5712  1.5951
 5716SOL    HW220680  10.900  10.547   1.908  0.5217 -1.0307 -0.3799
 5717SOL     OW20681   5.689   4.401   8.533 -0.1572 -0.1560 -0.6636
 5717SOL    HW120682   5.678   4.335   8.600  1.1199 -0.6373 -0.8912
 5717SOL    HW220683   5.638   4.369   8.459 -0.5120 -0.2834 -0.3647
 5718SOL     OW20684   4.353   5.446   2.055 -0.2450 -0.2545  0.1925
 5718SOL    HW120685   4.414   5.428   2.126  1.1928  0.8395 -0.7141
 5718SOL    HW220686   4.330   5.360   2.020  0.6715 -0.6934  0.6454
 5719SOL     OW20687   9.671   2.488   5.229  0.3583 -0.4875  0.3687
 5719SOL    HW120688   9.606   2.556   5.207 -0.8508 -2.0797 -1.3092
 5719SOL    HW220689   9.618   2.414   5.259  1.3055 -2.0107 -1.5268
 5720SOL     OW20690   8.986   4.165   6.133  0.1589 -0.3212 -0.0956
 5720SOL    HW120691   9.008   4.234   6.195  2.1572  0.5330 -1.6832
 5720SOL    HW220692   9.018   4.085   6.175 -0.8785 -0.1431  1.1067
 5721SOL     OW20693   5.809   1.452   4.958 -0.2239 -0.4652  0.1050
 5721SOL    HW120694   5.809   1.486   5.047 -1.1890  1.0021 -0.4254
 5721SOL    HW220695   5.742   1.384   4.958 -0.9855  0.2772  0.2417
 5722SOL     OW20696  10.211   5.822   7.106  0.4198 -0.4068  0.8548
 5722SOL    HW120697  10.220   5.760   7.034  0.3965  0.0148  0.4881
 5722SOL    HW220698  10.122   5.808   7.138  0.2097 -0.1472  0.3881
 5723SOL     OW20699   1.467   8.774   6.353  0.2941  0.3644 -0.0217
 5723SOL    HW120700   1.399   8.797   6.417 -0.9296 -2.5194 -0.1263
 5723SOL    HW220701   1.426   8.791   6.268  0.8787  1.5469 -0.0755
 5724SOL     OW20702   8.989   2.434   1.571 -0.2575  0.4955  0.0166
 5724SOL    HW120703   8.945   2.352   1.548  1.1514 -0.5409  0.8432
 5724SOL    HW220704   8.977   2.490   1.494 -1.5258 -0.3614 -0.4342
 5725SOL     OW20705   5.464   5.249   4.947  0.2160 -0.1763  0.2644
 5725SOL    HW120706   5.492   5.280   4.861  0.5174 -1.7607 -0.2370
 5725SOL    HW220707   5.509   5.166   4.958 -0.1254 -0.1831  1.8039
 5726SOL     OW20708   1.555   7.445   9.986 -0.1008 -0.0273 -0.5705
 5726SOL    HW120709   1.638   7.486  10.012  0.6841 -2.1453  0.5306
 5726SOL    HW220710   1.581   7.375   9.926 -0.8003 -2.0257  1.3171
 5727SOL     OW20711  10.019   9.576   3.459  0.0024 -0.0519 -0.3137
 5727SOL    HW120712  10.068   9.610   3.384 -0.3060 -0.9176 -0.9236
 5727SOL    HW220713   9.937   9.544   3.422  0.1817 -1.2333  0.2740
 5728SOL     OW20714   4.097   2.463   5.571 -0.0927  0.7293  0.2405
 5728SOL    HW120715   4.011   2.424   5.558 -0.2227  0.8379  0.7536
 5728SOL    HW220716   4.151   2.391   5.603  0.1366  0.5448 -0.5470
 5729SOL     OW20717  10.029   6.119  10.414  0.6309 -0.0161  0.4619
 5729SOL    HW120718  10.020   6.169  10.495 -0.7813 -0.7079  0.7655
 5729SOL    HW220719  10.088   6.047  10.437  0.1838 -0.2478  0.9202
 5730SOL     OW20720  10.676   0.447   9.132  0.1324 -0.2382 -0.0996
 5730SOL    HW120721  10.757   0.403   9.104 -1.0165 -1.9602 -0.8582
 5730SOL    HW220722  10.628   0.380   9.181 -1.4422  0.3142 -0.8343
 5731SOL     OW20723   9.855   8.332   0.092  0.2521 -0.6982  0.4348
 5731SOL    HW120724   9.882   8.365   0.006  0.6058  1.5010  1.3273
 5731SOL    HW220725   9.937   8.311   0.136  0.1871 -0.0030  0.8995
 5732SOL     OW20726   4.193   9.979   6.279 -0.0742 -0.0385 -0.6165
 5732SOL    HW120727   4.213  10.067   6.249 -2.9909  0.5001 -1.2564
 5732SOL    HW220728   4.142   9.992   6.359 -1.5089 -1.0442 -1.3222
 5733SOL     OW20729   5.924   6.105   5.827 -0.2333  0.1239 -0.1252
 5733SOL    HW120730   5.862   6.178   5.825 -0.4171 -0.0447 -0.6101
 5733SOL    HW220731   5.880   6.037   5.877 -0.7168 -0.2358 -1.0133
 5734SOL     OW20732   0.032   4.464   9.530  0.4420  0.5418  0.1671
 5734SOL    HW120733   0.104   4.426   9.581 -0.3864 -1.2681  0.0733
 5734SOL    HW220734  -0.047   4.425   9.569 -0.4247  1.6950 -0.3930
 5735SOL     OW20735   9.776   3.354   9.468 -0.1434 -0.2772  0.0430
 5735SOL    HW120736   9.750   3.446   9.468 -0.3484 -0.3023  1.6427
 5735SOL    HW220737   9.848   3.349   9.405 -0.6134  0.8177 -0.6064
 5736SOL     OW20738   2.488  10.004   9.101  0.4133 -0.3242 -0.2085
 5736SOL    HW120739   2.434  10.077   9.070 -0.1615 -0.5770  0.1896
 5736SOL    HW220740   2.561  10.001   9.040  0.1988  0.2929 -0.5043
 5737SOL     OW20741   0.557   5.941   5.121  0.0256 -0.0386  0.2479
 5737SOL    HW120742   0.501   6.018   5.128 -0.3856 -0.1726 -1.2141
 5737SOL    HW220743   0.582   5.921   5.211 -1.4496  0.6290  0.8381
 5738SOL     OW20744   7.604   6.703   0.955  0.0245  0.4597  0.4296
 5738SOL    HW120745   7.606   6.614   0.990  1.9483  0.0598 -0.5952
 5738SOL    HW220746   7.548   6.697   0.877  1.3646 -0.2399 -0.5160
 5739SOL     OW20747   4.218   5.706   8.717 -0.2252 -0.0321  0.2860
 5739SOL    HW120748   4.255   5.634   8.665 -2.4137 -1.2135  0.2770
 5739SOL    HW220749   4.150   5.743   8.662 -1.6216 -0.3776  1.7246
 5740SOL     OW20750  10.833   6.833   0.618  0.0040  0.2598 -0.0391
 5740SOL    HW120751  10.885   6.870   0.546 -0.9792  1.6274 -0.0771
 5740SOL    HW220752  10.891   6.836   0.694  0.2373  1.0998 -0.2405
 5741SOL     OW20753   9.258   2.757   6.303 -0.0079 -0.3369  0.1359
 5741SOL    HW120754   9.244   2.669   6.270  0.0371 -0.1325 -0.4306
 5741SOL    HW220755   9.218   2.814   6.237  2.2360  0.2078 -0.8202
 5742SOL     OW20756   3.013   3.995   9.020  0.3794  0.1894  0.0904
 5742SOL    HW120757   2.951   3.967   9.088  1.8251  1.4221  2.0382
 5742SOL    HW220758   3.057   4.071   9.058  0.1817  1.9478 -2.9046
 5743SOL     OW20759   4.962   4.652   5.408 -0.0286  0.2237  0.3655
 5743SOL    HW120760   5.051   4.645   5.373 -0.3240 -0.5323 -0.2530
 5743SOL    HW220761   4.973   4.648   5.503  0.6053  0.2956  0.2980
 5744SOL     OW20762   3.415  10.464   8.258  0.5645  0.3855 -0.1513
 5744SOL    HW120763   3.482  10.512   8.209  0.7187  0.4273  0.1042
 5744SOL    HW220764   3.436  10.372   8.243 -1.1107  0.3051 -2.6308
 5745SOL     OW20765   6.578   5.876   3.298 -0.4585 -0.3329 -0.4679
 5745SOL    HW120766   6.653   5.873   3.239 -1.3415 -1.9608 -1.5984
 5745SOL    HW220767   6.601   5.817   3.370 -0.3550 -0.2274 -0.4143
 5746SOL     OW20768   8.612   0.718   1.181 -0.1062  0.0158 -0.1194
 5746SOL    HW120769   8.577   0.657   1.246  1.8250 -2.2889 -1.1009
 5746SOL    HW220770   8.686   0.760   1.224  0.0526 -0.1590 -0.2190
 5747SOL     OW20771   4.785   5.707   7.905 -0.0846 -1.1255 -0.0647
 5747SOL    HW120772   4.705   5.677   7.949 -0.6130 -1.6640 -1.3465
 5747SOL    HW220773   4.792   5.651   7.828  0.5643  0.1059 -0.9241
 5748SOL     OW20774   0.449   1.670   5.102 -0.2034 -0.3386  0.6643
 5748SOL    HW120775   0.464   1.765   5.105 -1.3205 -0.1053 -0.4694
 5748SOL    HW220776   0.372   1.656   5.156  0.0079 -0.6274  0.8961
 5749SOL     OW20777   0.500   4.694   8.771  0.3331 -0.6936  0.4083
 5749SOL    HW120778   0.451   4.612   8.763  2.5171 -2.0387  0.0538
 5749SOL    HW220779   0.562   4.692   8.698 -0.2613  1.8258 -0.2477
 5750SOL     OW20780   6.834   6.496   3.051  0.0818 -0.4708  0.6345
 5750SOL    HW120781   6.844   6.565   2.985 -2.5823 -0.3452  0.2838
 5750SOL    HW220782   6.880   6.530   3.128 -1.4588  1.9252  0.6003
 5751SOL     OW20783   8.427   8.299   7.526  0.0931 -0.3466  0.3443
 5751SOL    HW120784   8.519   8.272   7.518  0.5233  1.2602 -0.4563
 5751SOL    HW220785   8.414   8.311   7.620  1.0778  0.5922  0.3836
 5752SOL     OW20786   9.223  10.346   5.996  0.6230 -0.3767 -0.1982
 5752SOL    HW120787   9.136  10.327   5.959  0.9549 -0.3132 -1.0321
 5752SOL    HW220788   9.278  10.275   5.965  1.0492  0.0166 -0.3476
 5753SOL     OW20789   2.090   4.015   1.633  0.2679 -0.0387 -0.3693
 5753SOL    HW120790   2.046   4.044   1.553  0.9619  2.4416  0.0437
 5753SOL    HW220791   2.183   4.026   1.613  0.4802 -0.3252  0.4508
 5754SOL     OW20792   7.847   4.171   8.038 -0.2824 -0.0697  0.3709
 5754SOL    HW120793   7.772   4.125   8.075  0.6627  0.1568  2.7559
 5754SOL    HW220794   7.816   4.260   8.022 -0.3549  0.2615  2.1553
 5755SOL     OW20795   7.432   9.557   2.165  0.5167  0.5735  0.1620
 5755SOL    HW120796   7.346   9.516   2.169  1.0881 -0.7231 -0.1401
 5755SOL    HW220797   7.414   9.651   2.167 -0.7782  0.3382  2.1483
 5756SOL     OW20798   0.919   8.483   4.702  0.2090  0.4467 -0.1094
 5756SOL    HW120799   0.848   8.422   4.723 -0.1649  1.1417  0.6911
 5756SOL    HW220800   0.932   8.472   4.607 -0.7310  0.0677 -0.2098
 5757SOL     OW20801   6.627  10.033   5.225 -1.2189  0.0382 -0.3049
 5757SOL    HW120802   6.557  10.063   5.168 -0.2759 -1.2734 -2.2647
 5757SOL    HW220803   6.632   9.939   5.209  0.7644  0.0477 -0.0047
 5758SOL     OW20804   7.108   5.790   8.769  0.6600 -0.2535  0.4663
 5758SOL    HW120805   7.037   5.853   8.760  0.9914 -0.0008 -0.4531
 5758SOL    HW220806   7.143   5.806   8.856 -1.6353 -1.6941  1.7579
 5759SOL     OW20807   3.516   6.901   0.640 -0.3168  0.4250 -0.6890
 5759SOL    HW120808   3.550   6.980   0.599  1.2918 -0.2379 -0.7171
 5759SOL    HW220809   3.553   6.901   0.728 -1.3433  0.3337 -0.2401
 5760SOL     OW20810   4.158   8.972   9.287 -0.2406  0.4463 -0.1882
 5760SOL    HW120811   4.251   8.992   9.298 -0.3503  0.4770  0.7241
 5760SOL    HW220812   4.149   8.881   9.317  0.3821 -1.5010 -4.9016
 5761SOL     OW20813   5.066   5.975   0.663 -0.2946 -0.4350  0.0751
 5761SOL    HW120814   5.076   6.031   0.739 -1.7510 -0.5978  0.4071
 5761SOL    HW220815   5.152   5.977   0.620  0.7923 -0.9653  2.1188
 5762SOL     OW20816   4.932   4.182   2.978  0.0964  0.0330 -0.2776
 5762SOL    HW120817   4.876   4.247   2.937 -0.0966  0.6448  0.8991
 5762SOL    HW220818   5.021   4.210   2.958  0.0196  0.7945  0.3942
 5763SOL     OW20819   4.797   7.502   8.651  0.1733 -0.3321 -0.2705
 5763SOL    HW120820   4.703   7.509   8.663  0.1149  0.7432 -1.1815
 5763SOL    HW220821   4.835   7.546   8.727 -0.0457 -0.6216  0.0110
 5764SOL     OW20822   3.633   0.318  10.682  0.1349  0.2535  0.1925
 5764SOL    HW120823   3.542   0.320  10.709 -0.3123 -0.6656 -1.1398
 5764SOL    HW220824   3.657   0.225  10.683  1.0833  0.4844  0.6052
 5765SOL     OW20825   2.871   9.171   4.074  1.3918  0.1563 -0.3248
 5765SOL    HW120826   2.945   9.116   4.045 -0.0329 -2.0149 -0.0819
 5765SOL    HW220827   2.843   9.132   4.156 -0.5456  0.3933 -0.8201
 5766SOL     OW20828   5.644   1.024   1.132 -0.4523  0.0455 -0.1127
 5766SOL    HW120829   5.609   0.939   1.106  2.2912 -0.9899 -0.8402
 5766SOL    HW220830   5.568   1.081   1.139 -2.3916 -2.4526  0.4054
 5767SOL     OW20831   9.519  10.524   2.070  0.1056  0.4960  0.3277
 5767SOL    HW120832   9.456  10.564   2.010 -0.2290  1.6528  1.4049
 5767SOL    HW220833   9.467  10.499   2.147  0.3453 -1.8382 -0.1868
 5768SOL     OW20834  10.283   7.971   2.974 -0.8010 -0.2874  1.1218
 5768SOL    HW120835  10.357   7.912   2.985 -0.2425  0.5429  1.9461
 5768SOL    HW220836  10.284   8.027   3.052 -0.6543  1.5220 -0.1146
 5769SOL     OW20837   0.483   0.254   6.365  0.0064  0.0148  0.1228
 5769SOL    HW120838   0.390   0.232   6.372  0.1610 -0.7305 -0.0977
 5769SOL    HW220839   0.526   0.171   6.343  0.7130  0.3705  0.1327
 5770SOL     OW20840   5.867  10.651   1.639  0.2959 -0.0690  0.3379
 5770SOL    HW120841   5.893  10.741   1.618 -0.8028 -0.2732 -2.2976
 5770SOL    HW220842   5.778  10.660   1.674 -0.5764 -0.1753 -1.6876
 5771SOL     OW20843   3.997   8.442   7.719  0.6278 -0.6929 -0.1985
 5771SOL    HW120844   3.965   8.479   7.802  0.0586 -0.1159 -0.6598
 5771SOL    HW220845   3.934   8.473   7.654  0.5172 -1.9457 -0.7131
 5772SOL     OW20846   4.151   5.175   9.950  0.4798 -0.1058 -0.4464
 5772SOL    HW120847   4.107   5.133  10.023 -1.5385 -0.6555 -1.8870
 5772SOL    HW220848   4.233   5.208   9.987 -0.8937  0.5449  2.2880
 5773SOL     OW20849   0.984   5.434   2.759 -0.3010 -0.0281  0.4108
 5773SOL    HW120850   1.068   5.463   2.724 -0.5372  0.5043  0.2770
 5773SOL    HW220851   0.919   5.492   2.719 -0.6926 -0.1604  0.8334
 5774SOL     OW20852   1.347   7.382   2.663 -0.2132  0.0150 -0.6718
 5774SOL    HW120853   1.422   7.325   2.645 -0.0298 -0.6691  1.8820
 5774SOL    HW220854   1.309   7.347   2.744 -3.7385 -0.0592 -2.1977
 5775SOL     OW20855   4.520   1.348   5.109  0.0403  0.2302 -0.0051
 5775SOL    HW120856   4.615   1.359   5.102  0.3722 -0.6866  2.1753
 5775SOL    HW220857   4.497   1.390   5.192 -1.3618 -0.0690 -0.2153
 5776SOL     OW20858   3.556   0.656   3.639  0.0239  0.0340 -0.3549
 5776SOL    HW120859   3.625   0.603   3.678 -1.3654 -0.9897  0.8627
 5776SOL    HW220860   3.495   0.671   3.712 -0.9670  0.9818 -1.3588
 5777SOL     OW20861   7.094   4.425   9.657  0.2835  0.6528  0.1735
 5777SOL    HW120862   7.073   4.336   9.629 -1.7526  0.8272  1.0375
 5777SOL    HW220863   7.012   4.474   9.648  0.5202  1.6541  2.7457
 5778SOL     OW20864  10.856   6.745   4.900 -0.0292  0.0110  0.0008
 5778SOL    HW120865  10.795   6.808   4.862 -0.7456 -0.7378 -0.1147
 5778SOL    HW220866  10.801   6.676   4.936  0.7581 -0.7978 -0.3057
 5779SOL     OW20867   9.590   6.039   3.728 -0.1953 -0.3876 -0.1180
 5779SOL    HW120868   9.623   6.115   3.775 -3.6071  1.2875 -0.1289
 5779SOL    HW220869   9.664   6.009   3.675  2.3499  0.5603  2.6349
 5780SOL     OW20870   7.717   5.367   8.633  0.4101  0.2392  0.7576
 5780SOL    HW120871   7.688   5.302   8.568 -0.3633  0.5688  0.7630
 5780SOL    HW220872   7.751   5.440   8.581 -0.2682  0.5299  0.7181
 5781SOL     OW20873   4.726  10.106   3.867 -0.2021  0.2002  0.2731
 5781SOL    HW120874   4.689  10.056   3.795 -0.2578 -0.2014  0.5817
 5781SOL    HW220875   4.672  10.185   3.872 -0.9353 -0.3184  0.6360
 5782SOL     OW20876   0.905   3.914   5.935 -0.0733  0.1461 -0.0668
 5782SOL    HW120877   0.985   3.951   5.971  1.1252 -0.4235 -2.0209
 5782SOL    HW220878   0.853   3.990   5.910 -1.1244  0.5828  3.0113
 5783SOL     OW20879  10.044   3.849   4.733 -0.5710 -0.1198  0.0687
 5783SOL    HW120880  10.042   3.819   4.642 -1.7575 -0.4933  0.1933
 5783SOL    HW220881  10.137   3.862   4.752 -0.1898 -1.3883 -0.7619
 5784SOL     OW20882   3.363   7.437   5.750  0.0781 -0.0197  0.1939
 5784SOL    HW120883   3.445   7.483   5.733 -0.5736  0.5442 -1.7934
 5784SOL    HW220884   3.342   7.394   5.666 -1.8771  0.2482  0.4903
 5785SOL     OW20885   2.005   1.710   4.953 -0.1472  0.0270 -0.1260
 5785SOL    HW120886   2.008   1.699   5.048 -0.0351  0.5281 -0.0675
 5785SOL    HW220887   1.966   1.629   4.921  0.5153 -0.4557  0.2819
 5786SOL     OW20888   2.837   5.885   4.919 -0.2494 -0.1036  0.1908
 5786SOL    HW120889   2.744   5.891   4.898 -0.2461 -1.2491 -0.2224
 5786SOL    HW220890   2.874   5.967   4.887 -0.8841 -0.2300 -0.9225
 5787SOL     OW20891  10.426  10.160   6.293 -0.1189  0.2757 -0.2457
 5787SOL    HW120892  10.397  10.092   6.354  0.1828 -0.4599 -0.9043
 5787SOL    HW220893  10.362  10.157   6.221 -0.4908  1.1569  0.0350
 5788SOL     OW20894   3.462   8.302   8.888 -0.4530  0.3678 -0.3694
 5788SOL    HW120895   3.503   8.218   8.866 -1.7742 -0.3298 -0.2388
 5788SOL    HW220896   3.449   8.345   8.803  2.5677  1.6467 -0.3142
 5789SOL     OW20897  11.018   9.863   8.760 -0.1402  0.2883 -0.0890
 5789SOL    HW120898  11.036   9.827   8.847  2.8785  0.6589 -0.4642
 5789SOL    HW220899  10.977   9.948   8.777  0.0580  0.1927  0.9412
 5790SOL     OW20900   2.100   2.592   4.678  0.3270 -0.0049  0.2732
 5790SOL    HW120901   2.185   2.561   4.647  1.9418  2.2597  2.0769
 5790SOL    HW220902   2.083   2.671   4.628  0.1341  0.4805  1.0828
 5791SOL     OW20903   0.758   8.006   2.758  0.3200  0.1792 -0.1037
 5791SOL    HW120904   0.753   8.025   2.851  1.4118 -0.1320  0.0263
 5791SOL    HW220905   0.795   7.918   2.753 -0.4700 -0.1353 -0.8142
 5792SOL     OW20906  10.029   5.002   8.326  0.0673  0.0385 -0.0760
 5792SOL    HW120907   9.990   4.915   8.337  0.7179 -0.4666 -1.5143
 5792SOL    HW220908  10.000   5.052   8.403 -1.7851 -0.8997 -0.1312
 5793SOL     OW20909   3.021   1.643   1.041 -0.1883 -0.0690  0.4141
 5793SOL    HW120910   2.985   1.588   1.111 -2.6275  2.9737  1.8153
 5793SOL    HW220911   3.079   1.704   1.086  1.8495 -0.8598 -0.9829
 5794SOL     OW20912   0.914   9.667   1.824 -0.4052 -0.1106  0.3572
 5794SOL    HW120913   0.967   9.711   1.757 -1.2871 -1.0991 -1.0594
 5794SOL    HW220914   0.892   9.736   1.886 -0.2229  1.0545 -0.8181
 5795SOL     OW20915   4.127   7.952   3.172  0.4164  0.1699  0.1070
 5795SOL    HW120916   4.067   7.889   3.213  0.1443 -0.1292 -0.7236
 5795SOL    HW220917   4.084   8.037   3.183  0.3367  0.0908  0.4178
 5796SOL     OW20918   2.566   0.357   7.922  0.9980  0.3682 -0.0489
 5796SOL    HW120919   2.597   0.286   7.866  0.6306  0.8681 -0.9089
 5796SOL    HW220920   2.511   0.313   7.987  1.8434 -0.2792  0.2539
 5797SOL     OW20921   0.959   9.795  10.857  0.9011 -0.4959 -0.5045
 5797SOL    HW120922   0.875   9.761  10.828  0.2286 -0.1192  0.9426
 5797SOL    HW220923   0.972   9.875  10.807  1.1226 -1.3106 -1.8033
 5798SOL     OW20924   8.442   1.369  10.197 -0.2974  0.2066  0.0115
 5798SOL    HW120925   8.377   1.304  10.172 -0.4031  1.6584 -4.1973
 5798SOL    HW220926   8.446   1.363  10.293 -1.2338 -4.9134 -0.0031
 5799SOL     OW20927   1.901   0.376   6.740 -0.3317  0.2025  0.2558
 5799SOL    HW120928   1.905   0.306   6.675  0.4035  0.5278 -0.0629
 5799SOL    HW220929   1.827   0.430   6.714 -0.3052  0.0834 -0.0634
 5800SOL     OW20930   2.234   4.934   8.340 -0.0720  0.7349 -0.2498
 5800SOL    HW120931   2.295   4.964   8.407 -1.1217  0.5678  0.8226
 5800SOL    HW220932   2.190   5.013   8.310 -0.7889  0.6257  0.4863
 5801SOL     OW20933   1.369   2.718   2.983 -0.1002 -0.2576 -0.1179
 5801SOL    HW120934   1.404   2.710   3.072 -0.1808 -1.8491 -0.2082
 5801SOL    HW220935   1.301   2.785   2.991 -0.7576 -1.0380  1.2388
 5802SOL     OW20936   0.359   6.236   0.735  0.1980 -0.4155 -0.6408
 5802SOL    HW120937   0.295   6.166   0.722 -1.5792  0.7533  1.1280
 5802SOL    HW220938   0.381   6.231   0.828 -0.4281  1.6569 -0.3246
 5803SOL     OW20939   2.158   2.531   0.145 -0.0639 -0.5121  0.1309
 5803SOL    HW120940   2.171   2.453   0.199 -1.1902 -1.9853 -1.5904
 5803SOL    HW220941   2.067   2.526   0.117  0.3357  0.4144 -1.5119
 5804SOL     OW20942   6.763  10.143   2.811  0.2406 -0.1345 -0.4739
 5804SOL    HW120943   6.732  10.056   2.788 -2.2454  0.6806 -0.5153
 5804SOL    HW220944   6.741  10.198   2.735 -2.4899  1.3573  1.2127
 5805SOL     OW20945   9.643   1.831   2.414 -0.2792  0.4078  0.0863
 5805SOL    HW120946   9.602   1.810   2.498 -0.1929  0.5279  0.1599
 5805SOL    HW220947   9.658   1.925   2.418  1.3002  0.1787  0.6605
 5806SOL     OW20948   9.630   9.150   0.299 -0.0204  0.1253  0.3030
 5806SOL    HW120949   9.717   9.119   0.325 -0.4972 -0.4632  1.2627
 5806SOL    HW220950   9.631   9.243   0.323 -0.0368 -0.1401  1.4124
 5807SOL     OW20951   9.001   4.044   7.364  0.3766 -0.1607  0.2208
 5807SOL    HW120952   8.994   4.129   7.320  1.0733 -0.5838 -0.7546
 5807SOL    HW220953   8.973   4.061   7.454 -1.3205  0.6925 -0.4112
 5808SOL     OW20954   3.384   3.464   6.259 -0.3939  0.2871  0.3962
 5808SOL    HW120955   3.365   3.372   6.242  0.0474  0.5569 -2.0964
 5808SOL    HW220956   3.340   3.511   6.188 -1.3198  2.1085  2.0935
 5809SOL     OW20957   8.870   8.633   2.157  0.5406  0.1703 -0.3046
 5809SOL    HW120958   8.901   8.695   2.222  0.6818  0.2557 -0.4522
 5809SOL    HW220959   8.911   8.550   2.181  0.1933  0.0878  0.0099
 5810SOL     OW20960   2.216   0.993   6.317 -0.0827  0.0459 -0.0995
 5810SOL    HW120961   2.196   1.081   6.285  1.2230  1.0098  1.5553
 5810SOL    HW220962   2.131   0.952   6.331 -0.7368  1.4504  0.1523
 5811SOL     OW20963   5.364   8.446   9.826  0.1125 -0.2444  0.1877
 5811SOL    HW120964   5.296   8.509   9.850  0.0491 -0.1842 -0.1508
 5811SOL    HW220965   5.368   8.449   9.731  4.2848  3.7684  0.1221
 5812SOL     OW20966   9.581   9.131   9.003  0.2924 -0.4556 -0.2810
 5812SOL    HW120967   9.650   9.087   8.953  1.0489  0.5863 -0.1855
 5812SOL    HW220968   9.520   9.163   8.937 -0.2087 -1.5240 -0.3583
 5813SOL     OW20969   3.164   7.935  10.408  0.3356 -0.2084  0.0282
 5813SOL    HW120970   3.249   7.978  10.396  1.0496 -1.8349 -1.0181
 5813SOL    HW220971   3.101   7.996  10.369  1.3217 -0.0670 -1.4299
 5814SOL     OW20972   4.706   7.461   8.076  0.1036 -0.0897  0.5385
 5814SOL    HW120973   4.744   7.508   8.002  0.7856  1.3062  1.7261
 5814SOL    HW220974   4.778   7.409   8.111 -0.5411 -1.7529 -0.5102
 5815SOL     OW20975   4.765   4.977   1.695  0.4705  0.5675  0.3934
 5815SOL    HW120976   4.755   5.071   1.681 -0.1602  1.0649  3.4554
 5815SOL    HW220977   4.822   4.970   1.772  1.0026 -1.6014 -0.1290
 5816SOL     OW20978  10.491   3.317   2.610 -0.3788  0.5362 -1.1090
 5816SOL    HW120979  10.576   3.361   2.620 -0.1787  0.1153 -0.9484
 5816SOL    HW220980  10.513   3.225   2.600 -0.7838  0.5000 -1.7025
 5817SOL     OW20981   2.759   6.165   6.552 -0.3594 -0.1626 -0.3172
 5817SOL    HW120982   2.796   6.142   6.467 -1.0798 -0.2152 -0.6279
 5817SOL    HW220983   2.835   6.178   6.609  0.2044  1.3826 -1.3457
 5818SOL     OW20984   1.980   0.074   2.113  0.1067 -0.2272  0.2608
 5818SOL    HW120985   1.964   0.073   2.019 -3.5328  2.1272  0.6565
 5818SOL    HW220986   2.039   0.148   2.127 -2.3544  1.9812 -0.0532
 5819SOL     OW20987  10.832   2.478   0.883  0.5954 -0.6265 -0.5809
 5819SOL    HW120988  10.766   2.543   0.858 -0.4368 -0.6044  1.8892
 5819SOL    HW220989  10.897   2.528   0.933  0.3027 -1.2928  0.4972
 5820SOL     OW20990  10.765   7.237   7.640  0.0765  0.3826  0.1390
 5820SOL    HW120991  10.734   7.318   7.679  0.7942  0.3180  0.8710
 5820SOL    HW220992  10.852   7.224   7.677  0.1300 -0.5179 -0.2643
 5821SOL     OW20993   1.205   2.742   7.716 -0.0309 -0.3662 -0.1996
 5821SOL    HW120994   1.125   2.762   7.667  1.0015 -0.2290 -1.9227
 5821SOL    HW220995   1.246   2.827   7.731 -0.8506 -0.2851  1.9524
 5822SOL     OW20996   4.812   9.991   7.357  0.0585 -0.0506  0.0706
 5822SOL    HW120997   4.749   9.944   7.302  1.7789 -0.0406 -2.0606
 5822SOL    HW220998   4.844   9.925   7.418 -1.3953 -0.2468  0.6585
 5823SOL     OW20999   7.233  10.221   2.992 -0.0485  0.1566 -0.3778
 5823SOL    HW121000   7.324  10.238   2.967  0.4444 -1.6476  0.0762
 5823SOL    HW221001   7.236  10.138   3.040 -2.3395 -1.7214 -3.1224
 5824SOL     OW21002   5.983   9.272   1.712 -0.0729 -0.2334  0.1139
 5824SOL    HW121003   5.983   9.179   1.732 -0.6584 -0.2237  0.1765
 5824SOL    HW221004   6.050   9.283   1.645  0.3435 -0.6209  0.4648
 5825SOL     OW21005   2.062   4.542  10.481  0.5251 -0.4493  0.0717
 5825SOL    HW121006   1.996   4.513  10.417  0.6361  1.0849 -0.7850
 5825SOL    HW221007   2.107   4.461  10.506 -1.3616 -1.4746  0.3475
 5826SOL     OW21008   6.466   2.131   8.402 -0.6537 -0.5104  0.3382
 5826SOL    HW121009   6.384   2.116   8.447 -0.1654 -0.3553  1.2968
 5826SOL    HW221010   6.461   2.222   8.372 -0.7934 -0.4734  0.4758
 5827SOL     OW21011   4.088   3.669   7.742  0.1978  0.3090 -0.7577
 5827SOL    HW121012   4.002   3.699   7.771  0.0232 -0.4904 -0.4140
 5827SOL    HW221013   4.090   3.688   7.648 -0.0127  1.1156 -0.6062
 5828SOL     OW21014   7.235   6.714   1.114 -0.1732 -0.0084 -0.7726
 5828SOL    HW121015   7.273   6.640   1.161 -0.6526 -0.3075 -0.8418
 5828SOL    HW221016   7.157   6.678   1.072 -1.1332  0.8022  0.2202
 5829SOL     OW21017   1.597   8.273   6.709  0.3356 -0.6378  0.3933
 5829SOL    HW121018   1.590   8.182   6.737 -2.1295 -0.7458 -0.3273
 5829SOL    HW221019   1.508   8.297   6.681  0.8044  2.1119  0.9211
 5830SOL     OW21020   4.836   1.705   9.225  0.0982 -0.1461  0.3330
 5830SOL    HW121021   4.744   1.721   9.245 -0.4755 -0.8705 -1.5921
 5830SOL    HW221022   4.875   1.682   9.310 -1.2316  1.2034  1.3582
 5831SOL     OW21023   2.919   7.356   3.552  0.4032  0.0472  0.4850
 5831SOL    HW121024   2.983   7.413   3.594  0.9784  0.7633 -1.2500
 5831SOL    HW221025   2.839   7.367   3.603  1.2798  0.1874  1.8774
 5832SOL     OW21026   6.568   7.718   9.585  0.0797  0.4796 -0.1732
 5832SOL    HW121027   6.515   7.675   9.652  0.9412  0.8866  0.7945
 5832SOL    HW221028   6.523   7.699   9.503  0.0343 -1.6371  0.2882
 5833SOL     OW21029   8.110  10.721   7.782 -0.4478  0.9333 -0.3511
 5833SOL    HW121030   8.111  10.779   7.705  0.6327 -2.0292 -2.8084
 5833SOL    HW221031   8.056  10.646   7.754 -0.0646 -0.2218  1.8156
 5834SOL     OW21032   0.270   4.922   5.405  0.5976 -0.2439 -0.0054
 5834SOL    HW121033   0.198   4.922   5.342  0.3323  0.0270  0.2966
 5834SOL    HW221034   0.330   4.989   5.371  0.7271 -0.4929 -0.2742
 5835SOL     OW21035   4.264   7.311   2.853 -0.4372  0.3050 -0.4038
 5835SOL    HW121036   4.205   7.275   2.919  0.8749  1.5071  1.5342
 5835SOL    HW221037   4.326   7.239   2.836  0.6351  0.7118  1.5188
 5836SOL     OW21038   2.981   9.647   2.109 -0.0251 -0.2403  0.1752
 5836SOL    HW121039   2.910   9.616   2.053 -0.8868  2.0631 -0.1101
 5836SOL    HW221040   3.058   9.647   2.053 -1.0914  3.1277 -1.5674
 5837SOL     OW21041   9.596   2.835   4.200 -0.4354  0.2160  0.3680
 5837SOL    HW121042   9.631   2.745   4.202  2.6286  1.2664 -0.3068
 5837SOL    HW221043   9.520   2.830   4.142 -0.8158 -2.0639  0.9579
 5838SOL     OW21044   6.987   6.691  10.461 -0.1683 -0.1027  0.0064
 5838SOL    HW121045   6.898   6.663  10.481  0.0363 -0.3574  0.5792
 5838SOL    HW221046   6.993   6.686  10.366 -1.0526  0.7985 -0.1070
 5839SOL     OW21047   3.594   5.590   7.725  0.2911 -0.2969  0.1651
 5839SOL    HW121048   3.549   5.672   7.705 -2.0574 -1.7003 -0.7156
 5839SOL    HW221049   3.639   5.567   7.644 -0.0465 -0.4585  0.0205
 5840SOL     OW21050   6.528   2.997   1.856  0.0216  0.1078 -0.4773
 5840SOL    HW121051   6.518   2.909   1.819  1.5084 -0.6638  0.8145
 5840SOL    HW221052   6.561   2.982   1.945 -1.1469  1.9470  0.3320
 5841SOL     OW21053   6.096  11.107   0.771  0.5904  0.3390 -0.4194
 5841SOL    HW121054   6.039  11.183   0.770  2.3636  1.7293 -0.9816
 5841SOL    HW221055   6.148  11.114   0.691  1.7967 -0.6663  0.2289
 5842SOL     OW21056   6.559   3.568   8.914 -0.5165  0.7098  0.0285
 5842SOL    HW121057   6.618   3.640   8.889  1.9343 -1.0883  0.2491
 5842SOL    HW221058   6.601   3.528   8.990 -2.1415 -0.5746  0.2936
 5843SOL     OW21059   0.865   0.725   7.736 -0.0183 -0.3482  0.6519
 5843SOL    HW121060   0.846   0.812   7.773 -0.9873 -0.3071  0.1117
 5843SOL    HW221061   0.876   0.669   7.812 -0.5821  0.0183  1.0192
 5844SOL     OW21062  10.583   3.144   6.930  0.4714  0.0223  0.6771
 5844SOL    HW121063  10.634   3.089   6.990 -0.8305 -0.0226  1.7838
 5844SOL    HW221064  10.648   3.179   6.869  1.4665 -2.0524  0.4586
 5845SOL     OW21065   3.952  10.335   3.833  0.1652 -0.4403 -0.2900
 5845SOL    HW121066   3.895  10.260   3.816  2.0866 -2.8787  2.8212
 5845SOL    HW221067   4.041  10.300   3.822  1.1343  1.4759  0.8774
 5846SOL     OW21068   4.834   8.954   7.563 -0.1483  0.0930  0.3790
 5846SOL    HW121069   4.793   8.871   7.585 -1.0431  0.1870 -0.8380
 5846SOL    HW221070   4.828   8.959   7.468  1.7553  0.6111  0.2361
 5847SOL     OW21071   8.980  10.291   8.332  0.0330  0.1239  0.3173
 5847SOL    HW121072   8.887  10.313   8.337  0.3849  1.6660  0.7528
 5847SOL    HW221073   9.004  10.308   8.241 -0.4307 -1.8284 -0.2144
 5848SOL     OW21074  10.561   7.662   4.270  0.6917 -0.1142  0.0728
 5848SOL    HW121075  10.627   7.700   4.329  0.0131  1.1842  0.0189
 5848SOL    HW221076  10.482   7.655   4.324 -0.0772  1.5512 -0.7808
 5849SOL     OW21077   9.718   5.498   7.905  0.5014 -0.4158  0.2710
 5849SOL    HW121078   9.740   5.467   7.993 -0.1916 -1.1089  0.2110
 5849SOL    HW221079   9.801   5.531   7.870  0.7982 -0.1979  1.1520
 5850SOL     OW21080   8.099  10.521   4.824  0.0832 -0.4835 -0.2183
 5850SOL    HW121081   8.108  10.477   4.908  0.5709 -1.7194 -0.8828
 5850SOL    HW221082   8.171  10.583   4.821 -0.5367  0.3009  0.6823
 5851SOL     OW21083   6.939   1.614  10.104  0.2433  0.4099  0.4365
 5851SOL    HW121084   6.920   1.554  10.176  3.1912  0.1184  1.1084
 5851SOL    HW221085   6.965   1.557  10.032 -2.0209  0.7337 -0.7205
 5852SOL     OW21086   4.517   5.724   0.069 -0.0415  0.2071 -0.5083
 5852SOL    HW121087   4.596   5.774   0.089 -0.4273  0.3608  0.6656
 5852SOL    HW221088   4.550   5.644   0.028  0.6507  0.7776 -1.1079
 5853SOL     OW21089   6.403  10.494   2.707 -0.1555  0.3951  0.0318
 5853SOL    HW121090   6.354  10.488   2.625 -0.4735 -2.1283  0.3234
 5853SOL    HW221091   6.411  10.404   2.737  1.9064  1.0215  1.6587
 5854SOL     OW21092   7.002   8.050   3.991 -0.1171  0.1773  0.1485
 5854SOL    HW121093   6.946   8.050   4.068 -0.1183  1.1847  0.1643
 5854SOL    HW221094   6.988   7.965   3.951 -1.2701  0.2114  0.4373
 5855SOL     OW21095   6.307   4.825   7.051  0.2279 -0.0953 -0.8323
 5855SOL    HW121096   6.368   4.770   7.002  0.4384 -1.6421  1.0489
 5855SOL    HW221097   6.338   4.915   7.035  1.7665 -0.7117 -1.5306
 5856SOL     OW21098   5.679   8.983   0.201  0.3077  0.5757 -0.3561
 5856SOL    HW121099   5.687   9.051   0.134  1.1162  1.5087  0.6431
 5856SOL    HW221100   5.604   9.011   0.254  1.2768  1.3121  0.6890
 5857SOL     OW21101   3.219   6.728  10.828  0.0531  0.4928  0.2102
 5857SOL    HW121102   3.238   6.637  10.851 -0.2214  0.3282 -0.1894
 5857SOL    HW221103   3.131   6.725  10.789 -0.1408  0.9937  0.5907
 5858SOL     OW21104   2.167   2.571   9.788 -0.1893  0.0255 -0.5152
 5858SOL    HW121105   2.182   2.521   9.708  2.4232  0.8929 -0.6694
 5858SOL    HW221106   2.193   2.512   9.859 -0.2135  0.0571 -0.4800
 5859SOL     OW21107   7.943   8.041   3.341  0.0858 -0.6192  0.0735
 5859SOL    HW121108   7.892   7.973   3.298  0.5637 -0.6190 -0.5020
 5859SOL    HW221109   8.002   7.994   3.400  0.7537 -0.7405 -0.6810
 5860SOL     OW21110   8.900   9.595   9.042 -0.3117 -0.1599  0.3522
 5860SOL    HW121111   8.973   9.647   9.078  0.2447 -1.2368  0.8184
 5860SOL    HW221112   8.856   9.558   9.118 -2.1591  1.4727  0.1570
 5861SOL     OW21113   2.827   6.713   8.058  0.3995 -0.3512 -0.4460
 5861SOL    HW121114   2.770   6.640   8.031 -0.2511  0.9392 -2.7427
 5861SOL    HW221115   2.915   6.676   8.055 -0.0518 -1.6210  0.5465
 5862SOL     OW21116   1.019   0.755  10.686  0.0667 -0.4664  0.5670
 5862SOL    HW121117   1.098   0.759  10.740  1.5397  0.4977 -1.5044
 5862SOL    HW221118   1.010   0.662  10.663  1.1559 -0.4767  0.1234
 5863SOL     OW21119   9.306   8.465   2.683 -0.1588  0.4629 -0.0278
 5863SOL    HW121120   9.306   8.548   2.731 -1.8545  1.7934 -2.1914
 5863SOL    HW221121   9.217   8.432   2.692  0.2793 -0.7366  0.1097
 5864SOL     OW21122   4.433   2.994   4.367  0.0141  0.6601 -0.0756
 5864SOL    HW121123   4.378   3.050   4.312  0.5234  0.8231 -0.4270
 5864SOL    HW221124   4.489   3.055   4.415 -1.1011  0.5845  1.4028
 5865SOL     OW21125   3.525   4.710   5.571  0.3740  0.2329 -0.9202
 5865SOL    HW121126   3.526   4.691   5.664 -0.3321  0.2921 -0.8969
 5865SOL    HW221127   3.446   4.668   5.538  1.6852 -1.5647 -1.8949
 5866SOL     OW21128  10.357   5.333   2.721  0.2115  0.4020  0.0636
 5866SOL    HW121129  10.359   5.401   2.654  0.0671  0.5979  0.2566
 5866SOL    HW221130  10.264   5.322   2.741  0.1023 -0.9490 -1.0711
 5867SOL     OW21131   2.295  10.404   2.811  0.4472  0.2736 -0.3463
 5867SOL    HW121132   2.246  10.480   2.779  0.7805  0.4913 -0.3438
 5867SOL    HW221133   2.235  10.359   2.870  0.4594  0.8756  0.1322
 5868SOL     OW21134   8.537   8.108   5.730  0.4607 -0.4234 -0.3950
 5868SOL    HW121135   8.529   8.093   5.636  0.3301 -1.0340 -0.2900
 5868SOL    HW221136   8.512   8.024   5.770  1.7990 -0.5906  0.1409
 5869SOL     OW21137   7.121   1.302   0.847 -0.5179 -0.5460  0.3236
 5869SOL    HW121138   7.096   1.392   0.823 -1.5526 -1.0257 -0.4838
 5869SOL    HW221139   7.159   1.310   0.934 -0.8694  0.6384  0.3868
 5870SOL     OW21140   6.761   7.612   3.212  0.3879 -0.2856 -0.0006
 5870SOL    HW121141   6.672   7.622   3.245 -0.1208 -1.5871 -0.8709
 5870SOL    HW221142   6.810   7.574   3.284  0.3267  0.7058  0.5800
 5871SOL     OW21143  10.328   0.142   1.445 -0.7378 -0.3989 -0.6768
 5871SOL    HW121144  10.344   0.103   1.359  1.3282 -1.6147  0.1757
 5871SOL    HW221145  10.233   0.142   1.455 -0.9371 -1.6817 -2.3184
 5872SOL     OW21146   2.160   0.940   4.683 -0.4056 -0.3027  0.5707
 5872SOL    HW121147   2.117   0.855   4.692 -1.4273  0.3768  2.6055
 5872SOL    HW221148   2.128   0.974   4.599  0.1176 -1.9279 -0.3364
 5873SOL     OW21149   8.605   2.931   8.249 -0.4558  0.0429  0.2282
 5873SOL    HW121150   8.553   2.936   8.329 -0.2785  0.8929  0.3015
 5873SOL    HW221151   8.622   3.022   8.226 -0.8708 -0.1685 -1.0177
 5874SOL     OW21152   3.969   3.398   4.482  0.6336  0.4288 -0.0218
 5874SOL    HW121153   3.876   3.420   4.487  0.7157  0.7491  0.1041
 5874SOL    HW221154   4.010   3.475   4.442  0.4844 -0.6830 -2.4950
 5875SOL     OW21155   7.270   2.002   1.449  0.0462 -0.2964  0.5724
 5875SOL    HW121156   7.180   2.035   1.447  0.1025 -0.1006  1.0408
 5875SOL    HW221157   7.261   1.908   1.466 -0.0870 -0.3786  0.0651
 5876SOL     OW21158   9.069   0.706   4.534  0.4660  0.2175  0.2693
 5876SOL    HW121159   9.126   0.742   4.601  1.3069 -0.4872 -0.0460
 5876SOL    HW221160   8.984   0.747   4.550  1.0619  1.3298  0.7138
 5877SOL     OW21161   2.571   6.208   2.320 -0.5718  0.3725 -0.9099
 5877SOL    HW121162   2.528   6.138   2.369  0.4516  0.6764  0.4918
 5877SOL    HW221163   2.663   6.204   2.346 -0.4701  2.1949 -0.8101
 5878SOL     OW21164   7.914   2.210   2.377 -0.0293 -0.4008  0.2649
 5878SOL    HW121165   7.938   2.149   2.447 -0.5943 -1.3160 -0.3152
 5878SOL    HW221166   7.829   2.178   2.346  0.4873 -0.3967 -1.2344
 5879SOL     OW21167   3.614   7.548   5.655  0.0849 -0.5921  0.1642
 5879SOL    HW121168   3.598   7.634   5.694  0.5643 -1.0446  1.4008
 5879SOL    HW221169   3.592   7.560   5.562 -2.2373  0.2133  0.7291
 5880SOL     OW21170   5.288  10.118   5.494 -0.9635  0.4673 -0.8032
 5880SOL    HW121171   5.336  10.051   5.445 -0.4974  0.9259 -0.9826
 5880SOL    HW221172   5.357  10.173   5.532 -1.3252  0.4054 -0.0343
 5881SOL     OW21173   1.080   6.506   5.948 -0.5005 -0.1221  0.5897
 5881SOL    HW121174   1.127   6.428   5.977  0.6062  0.3768  0.1738
 5881SOL    HW221175   1.061   6.490   5.856 -0.6796 -0.1015  0.6236
 5882SOL     OW21176   9.027  10.234   3.668 -0.0162  0.0568  0.2266
 5882SOL    HW121177   9.030  10.176   3.745  1.3545  1.0596  0.9831
 5882SOL    HW221178   9.013  10.175   3.594  3.5678 -1.6183  0.6737
 5883SOL     OW21179  10.711  10.418   0.260  0.6709  0.5522 -0.4213
 5883SOL    HW121180  10.776  10.348   0.271  0.0175 -0.0945 -0.5665
 5883SOL    HW221181  10.638  10.375   0.217 -0.2394  1.0292  0.6005
 5884SOL     OW21182   1.919   8.514   6.008 -0.2561  0.0340 -0.0630
 5884SOL    HW121183   1.871   8.480   6.083  2.2230  1.2531  2.2779
 5884SOL    HW221184   1.993   8.455   5.998  0.3198  0.7967 -0.4454
 5885SOL     OW21185   3.842   4.474   1.196 -0.6568  0.6550  0.1879
 5885SOL    HW121186   3.753   4.440   1.190 -0.2546 -0.1605 -2.4593
 5885SOL    HW221187   3.847   4.543   1.130  1.5217 -1.6806 -2.3669
 5886SOL     OW21188   7.575   1.371  10.442 -0.3332 -0.1048  0.5001
 5886SOL    HW121189   7.500   1.343  10.390  1.1822  0.0275 -1.8981
 5886SOL    HW221190   7.610   1.447  10.396  1.2788 -0.1547  1.5462
 5887SOL     OW21191   7.559   5.559   2.948  0.6244  0.2770  0.5101
 5887SOL    HW121192   7.537   5.471   2.918  1.7634 -0.5220  1.9097
 5887SOL    HW221193   7.637   5.583   2.899 -0.0875  0.8105 -0.3798
 5888SOL     OW21194   0.123  10.281   9.602 -0.1994 -0.9271 -0.3563
 5888SOL    HW121195   0.038  10.251   9.568  1.1294 -1.3613 -3.7819
 5888SOL    HW221196   0.163  10.202   9.639 -0.8519 -0.9676  0.2697
 5889SOL     OW21197   8.081   0.895   3.584 -0.0179 -0.1673  0.0705
 5889SOL    HW121198   8.008   0.892   3.646 -0.4662  1.1795 -0.3472
 5889SOL    HW221199   8.137   0.966   3.616  1.1467 -1.1965  0.3931
 5890SOL     OW21200   9.749   0.816   9.765  0.0735 -0.5415 -0.6600
 5890SOL    HW121201   9.741   0.791   9.857 -0.4636 -2.2042 -1.1208
 5890SOL    HW221202   9.836   0.853   9.757  0.3962 -1.0577  0.3776
 5891SOL     OW21203   9.192   2.000   2.303  0.3044  0.3190 -0.3097
 5891SOL    HW121204   9.278   1.992   2.263  1.2745  0.1751  1.7210
 5891SOL    HW221205   9.191   2.088   2.341 -0.3662  0.2350 -0.1107
 5892SOL     OW21206   2.531   1.330   3.134  0.0226 -0.1824 -0.4661
 5892SOL    HW121207   2.472   1.265   3.096  0.7296 -0.7100 -0.6841
 5892SOL    HW221208   2.579   1.366   3.059 -2.7280  3.1453 -0.8753
 5893SOL     OW21209   2.686   4.150   0.479 -0.2829 -0.3806 -0.1081
 5893SOL    HW121210   2.762   4.203   0.454  0.0577 -0.7473  0.1441
 5893SOL    HW221211   2.669   4.174   0.570 -1.6106  1.0559 -0.6851
 5894SOL     OW21212   2.705   8.284   4.340 -0.2417 -0.2156  0.2950
 5894SOL    HW121213   2.742   8.196   4.335 -0.8708 -0.4254 -1.4942
 5894SOL    HW221214   2.781   8.340   4.357  0.6074 -0.8703 -1.0826
 5895SOL     OW21215   8.360   8.865  10.380 -0.1175 -0.3238  0.1508
 5895SOL    HW121216   8.313   8.867  10.297  0.4605  0.2088 -0.1696
 5895SOL    HW221217   8.337   8.780  10.418 -0.1280 -0.7118 -0.6971
 5896SOL     OW21218   3.157   6.499   1.278  0.1451 -0.8641  0.0856
 5896SOL    HW121219   3.238   6.472   1.234  0.1916  0.4780 -0.7001
 5896SOL    HW221220   3.134   6.582   1.237 -1.3534 -0.9637  0.6702
 5897SOL     OW21221   5.439   5.265  10.672 -0.2145  0.1388 -0.1953
 5897SOL    HW121222   5.424   5.185  10.621  1.4195  0.4407 -1.2164
 5897SOL    HW221223   5.408   5.336  10.615  0.3427  0.3810 -0.2026
 5898SOL     OW21224   0.938   5.420   8.834  0.0990 -0.3272 -0.2310
 5898SOL    HW121225   0.875   5.477   8.879  2.0409  0.3861  1.7364
 5898SOL    HW221226   0.910   5.423   8.743 -1.9154  1.0202  0.3366
 5899SOL     OW21227   1.469  10.542   5.791 -0.2383  0.1626  0.3835
 5899SOL    HW121228   1.521  10.622   5.802  0.0880  0.0948 -0.5811
 5899SOL    HW221229   1.501  10.484   5.860  0.2604  0.4876  0.4352
 5900SOL     OW21230   2.514  11.061   0.987 -0.0911 -0.4164  0.5659
 5900SOL    HW121231   2.484  11.142   0.947 -0.5531 -1.8302 -2.2305
 5900SOL    HW221232   2.444  11.037   1.047 -1.5638 -0.3669 -1.0541
 5901SOL     OW21233   6.209   8.669   5.285 -0.1324  0.1497  0.8185
 5901SOL    HW121234   6.278   8.603   5.296  1.2277  1.3053 -0.2924
 5901SOL    HW221235   6.134   8.633   5.332  1.4653 -0.7851  2.8415
 5902SOL     OW21236   7.749   8.160   0.666 -0.4980 -0.1761  0.0204
 5902SOL    HW121237   7.773   8.221   0.596 -0.9913  0.3925  0.3365
 5902SOL    HW221238   7.744   8.215   0.744 -0.9604 -0.6254  0.3072
 5903SOL     OW21239   9.538   3.526   3.302  0.4013 -0.0238 -0.0394
 5903SOL    HW121240   9.482   3.477   3.363  0.7509 -0.5186 -0.1136
 5903SOL    HW221241   9.603   3.463   3.273  1.3830  0.7039  0.5165
 5904SOL     OW21242   6.249   0.969  10.894  0.0346  0.7184 -0.2806
 5904SOL    HW121243   6.260   1.062  10.914 -1.9662  0.7894  0.6798
 5904SOL    HW221244   6.296   0.924  10.964  3.3184  0.8818 -2.1454
 5905SOL     OW21245   3.239   6.320   7.875 -0.0762  0.0861  0.9437
 5905SOL    HW121246   3.296   6.302   7.801  1.8948  3.1692  1.5573
 5905SOL    HW221247   3.275   6.267   7.947 -0.9302 -1.5327  0.2523
 5906SOL     OW21248   4.359   5.646   4.079  0.0036 -0.3657  0.2753
 5906SOL    HW121249   4.377   5.555   4.054  0.8726 -0.3266  0.7303
 5906SOL    HW221250   4.436   5.694   4.048 -0.0491  0.0711  0.8195
 5907SOL     OW21251   0.652   3.262  10.746  0.5704 -0.0688 -0.2925
 5907SOL    HW121252   0.669   3.226  10.659 -0.2374 -0.2782 -0.3711
 5907SOL    HW221253   0.722   3.325  10.760  1.5447 -1.0847 -0.4899
 5908SOL     OW21254   4.835   7.368   6.255  0.8591  0.0769  1.0178
 5908SOL    HW121255   4.928   7.356   6.275  0.4408 -2.8189  1.6286
 5908SOL    HW221256   4.811   7.449   6.301  3.1709  1.2364  0.3131
 5909SOL     OW21257   5.429   6.741   4.246 -0.3007  0.3151 -0.8718
 5909SOL    HW121258   5.409   6.789   4.326 -0.9554 -1.6490  0.2179
 5909SOL    HW221259   5.467   6.806   4.187 -0.2200  1.9114  0.8638
 5910SOL     OW21260   7.970   2.855   0.914  0.1300  0.0874 -0.0607
 5910SOL    HW121261   7.876   2.838   0.910  0.4077 -1.8702  0.5706
 5910SOL    HW221262   8.004   2.818   0.832  0.4634 -0.0515  0.1392
 5911SOL     OW21263   8.715   5.153   4.964 -0.8480  0.3294 -0.1080
 5911SOL    HW121264   8.676   5.172   5.050 -1.5485 -1.0406 -0.0921
 5911SOL    HW221265   8.651   5.185   4.901 -0.5041  1.0002 -0.1190
 5912SOL     OW21266   4.618   8.604   9.004 -0.0499 -0.0306 -0.3342
 5912SOL    HW121267   4.634   8.521   9.050 -2.5918 -0.0652  0.6575
 5912SOL    HW221268   4.661   8.593   8.919 -0.4949 -2.5018 -0.3263
 5913SOL     OW21269   5.975   0.629   5.361  0.5477 -0.0738  0.4011
 5913SOL    HW121270   6.024   0.617   5.279 -0.2737 -1.8610  0.1086
 5913SOL    HW221271   5.886   0.649   5.333  0.2852 -0.5861  0.8396
 5914SOL     OW21272   5.594   5.671   8.387  0.2278  0.2095 -0.8642
 5914SOL    HW121273   5.501   5.692   8.376 -0.0737  0.0143  1.0269
 5914SOL    HW221274   5.595   5.579   8.414  0.8760  0.5407  0.2850
 5915SOL     OW21275   0.148   2.192   3.407 -0.5477 -0.2136 -0.0106
 5915SOL    HW121276   0.053   2.198   3.408 -0.5051  1.5185 -1.3484
 5915SOL    HW221277   0.175   2.257   3.341  1.4122 -2.5408 -1.6560
 5916SOL     OW21278   8.939   5.369   5.441  0.6493  0.0687  0.2885
 5916SOL    HW121279   9.002   5.309   5.401  1.6246  0.9255  0.4767
 5916SOL    HW221280   8.942   5.350   5.534  0.4024 -0.1001  0.2612
 5917SOL     OW21281   0.049   3.467   7.589 -0.0297  0.1091 -0.0149
 5917SOL    HW121282   0.118   3.474   7.655 -1.5121  1.3259  1.4912
 5917SOL    HW221283   0.075   3.528   7.520 -0.4918  2.0577  1.4486
 5918SOL     OW21284   6.497   1.633  10.021  0.1168  0.4653 -1.0165
 5918SOL    HW121285   6.544   1.630  10.105  0.3970  0.8276 -1.1598
 5918SOL    HW221286   6.517   1.719   9.985  0.0624  0.2788 -1.4977
 5919SOL     OW21287   8.816  10.972   2.806 -0.3447  0.3121 -0.1918
 5919SOL    HW121288   8.847  10.907   2.870  1.1003  1.2441  0.0929
 5919SOL    HW221289   8.812  11.054   2.855 -0.6783  0.7512 -0.9325
 5920SOL     OW21290   6.385   9.433   2.914  0.7110 -0.2361 -0.4126
 5920SOL    HW121291   6.387   9.372   2.841  0.9825  1.4543 -1.8800
 5920SOL    HW221292   6.471   9.475   2.912 -0.3264  2.0304 -1.1197
 5921SOL     OW21293   3.350   2.084   3.679 -0.2486  0.2811  0.0072
 5921SOL    HW121294   3.333   2.056   3.589 -0.2200  0.2889 -0.0005
 5921SOL    HW221295   3.275   2.140   3.701 -1.3834 -1.4580  0.7372
 5922SOL     OW21296   6.044   5.088  10.982  0.2711  0.4213  0.6040
 5922SOL    HW121297   6.064   5.014  11.039  1.8646  1.8884  2.0383
 5922SOL    HW221298   5.985   5.143  11.033 -0.4762  0.4403 -0.2482
 5923SOL     OW21299   6.718   8.952   0.226  0.0404 -0.3436 -0.1929
 5923SOL    HW121300   6.807   8.948   0.190 -0.1431 -2.7681 -0.5981
 5923SOL    HW221301   6.663   8.915   0.156 -1.1400  0.2245  0.4189
 5924SOL     OW21302  10.485   0.835   6.191 -0.2319 -0.7481 -0.6331
 5924SOL    HW121303  10.409   0.893   6.198 -0.1602 -0.7096 -0.1153
 5924SOL    HW221304  10.449   0.752   6.159 -1.3055 -2.2028  3.6810
 5925SOL     OW21305   8.964   5.932   0.748  0.1743 -0.0043  0.5668
 5925SOL    HW121306   9.031   5.928   0.680 -0.4262 -1.1820  0.0230
 5925SOL    HW221307   8.984   5.858   0.806 -0.6570 -0.3821  0.3852
 5926SOL     OW21308   4.341   0.628   8.828 -0.2557  0.7395 -0.5948
 5926SOL    HW121309   4.366   0.604   8.917 -0.6868  1.7861 -0.1758
 5926SOL    HW221310   4.299   0.714   8.837 -3.1470 -0.4710 -1.3698
 5927SOL     OW21311   2.677   4.582   6.751 -0.1536 -0.1759  0.2871
 5927SOL    HW121312   2.584   4.603   6.748  0.3224  2.0164 -0.7061
 5927SOL    HW221313   2.710   4.628   6.828  0.2644 -0.3134  0.1959
 5928SOL     OW21314   8.252   5.040   1.864  0.4954 -0.0256  0.6597
 5928SOL    HW121315   8.187   5.079   1.805  0.2111  0.6952  1.4235
 5928SOL    HW221316   8.326   5.018   1.807 -0.4765 -1.0320 -0.2536
 5929SOL     OW21317   1.540   3.931   9.969  0.4420 -0.1345 -0.1349
 5929SOL    HW121318   1.520   4.021   9.942  1.0485 -0.0393 -0.2927
 5929SOL    HW221319   1.623   3.939  10.017  1.7939 -0.9033 -2.1893
 5930SOL     OW21320   3.083   0.262   5.665 -0.3109  0.5393 -0.0652
 5930SOL    HW121321   3.038   0.327   5.612 -0.6440 -0.8194 -1.5427
 5930SOL    HW221322   3.176   0.283   5.654 -0.3863  0.4031 -1.0405
 5931SOL     OW21323   3.528   2.779   8.732  0.2937 -0.0858  0.3021
 5931SOL    HW121324   3.499   2.711   8.793  0.1981  0.3773  0.7898
 5931SOL    HW221325   3.450   2.834   8.720  0.5254  0.2619  0.3715
 5932SOL     OW21326   0.044   0.685  10.555  0.2300 -0.2425 -0.1757
 5932SOL    HW121327   0.017   0.677  10.646  4.0470 -3.5457  0.9395
 5932SOL    HW221328   0.093   0.767  10.552 -0.1689  0.0388  0.6344
 5933SOL     OW21329  10.842   3.837   5.440  0.0474  0.0926  0.3307
 5933SOL    HW121330  10.902   3.846   5.366 -0.5394 -2.2130 -0.5309
 5933SOL    HW221331  10.761   3.805   5.400 -0.5481 -0.4247  1.8856
 5934SOL     OW21332   0.018   1.592   7.732  0.0959  0.2081  0.5365
 5934SOL    HW121333   0.031   1.665   7.672 -1.4538 -1.0242 -1.4262
 5934SOL    HW221334  -0.036   1.627   7.803 -2.6994  0.5208 -1.5767
 5935SOL     OW21335   2.635   5.236   2.543  0.6844 -0.5017 -0.0482
 5935SOL    HW121336   2.692   5.194   2.608  1.5967  1.2295  0.3092
 5935SOL    HW221337   2.566   5.278   2.594  0.3860 -0.6302 -0.3360
 5936SOL     OW21338   1.906   5.004   3.915  0.0212  0.1539  0.3412
 5936SOL    HW121339   1.921   4.926   3.861 -1.1457  0.9469 -1.2054
 5936SOL    HW221340   1.949   5.075   3.868 -1.2703  0.9156  0.2456
 5937SOL     OW21341   1.752   3.001   2.896 -0.5194 -0.2495  0.4270
 5937SOL    HW121342   1.725   2.929   2.840 -2.7544  1.3525 -0.7050
 5937SOL    HW221343   1.707   2.985   2.979  1.2312 -1.5719  1.1852
 5938SOL     OW21344   9.087   0.006   7.217  0.5472  0.2703  0.3580
 5938SOL    HW121345   9.006  -0.020   7.260  1.2834 -0.4083  1.3830
 5938SOL    HW221346   9.127  -0.076   7.189  0.6637  0.6270 -0.5595
 5939SOL     OW21347   6.268   3.395   1.778  0.3803 -0.5204  0.0539
 5939SOL    HW121348   6.194   3.362   1.726  0.7234 -1.4391  0.1382
 5939SOL    HW221349   6.293   3.321   1.833 -0.1860  0.5380  1.7966
 5940SOL     OW21350   9.789   3.203   5.195 -0.1744 -0.1969 -0.3436
 5940SOL    HW121351   9.792   3.135   5.262  0.1105  0.3194  0.1751
 5940SOL    HW221352   9.879   3.211   5.165 -0.1086  0.3450 -0.0033
 5941SOL     OW21353   2.778  10.950   7.398  0.4367  0.3111 -0.3100
 5941SOL    HW121354   2.733  10.888   7.340  0.4112  0.2442 -0.2186
 5941SOL    HW221355   2.713  11.018   7.415 -0.3273 -0.7745  1.4121
 5942SOL     OW21356   1.310   9.648   4.648  0.5806 -0.1815 -0.3027
 5942SOL    HW121357   1.352   9.600   4.719  0.0874  1.1803  0.9328
 5942SOL    HW221358   1.230   9.598   4.631  0.5497 -0.3440  0.2935
 5943SOL     OW21359   7.076   7.803  10.752  0.1944  0.0553 -0.0612
 5943SOL    HW121360   7.101   7.731  10.695  0.8163  1.0871 -1.1525
 5943SOL    HW221361   7.149   7.865  10.746  0.5244 -0.0228  2.3018
 5944SOL     OW21362   6.255   7.348   4.098 -0.2989  0.5049  0.3195
 5944SOL    HW121363   6.184   7.287   4.119 -1.2560  1.5132  0.1236
 5944SOL    HW221364   6.290   7.374   4.183 -0.1616  0.0024  0.4188
 5945SOL     OW21365   8.390   8.599  10.726  0.3283  0.4926 -0.2792
 5945SOL    HW121366   8.399   8.538  10.800  0.6190 -1.0041 -1.5029
 5945SOL    HW221367   8.311   8.650  10.746 -1.0771 -1.6380 -0.1528
 5946SOL     OW21368   1.614  10.905   5.432  0.1786 -0.0561  0.2545
 5946SOL    HW121369   1.644  10.817   5.456 -0.9599 -0.2026  1.2033
 5946SOL    HW221370   1.643  10.960   5.505 -0.4139  0.0856  0.3856
 5947SOL     OW21371   2.197   9.121   5.651  0.1886 -0.5418  0.6540
 5947SOL    HW121372   2.258   9.051   5.674  2.0629  0.6081 -0.5796
 5947SOL    HW221373   2.252   9.199   5.643 -1.9817  1.4592  3.3260
 5948SOL     OW21374   7.276   7.554   1.346 -0.1274  0.3468 -0.0682
 5948SOL    HW121375   7.221   7.595   1.413  1.9007  2.4941  0.4029
 5948SOL    HW221376   7.225   7.562   1.266 -0.9001  1.4546  0.5067
 5949SOL     OW21377   0.885   3.714  10.804 -0.6382  0.2693 -0.3753
 5949SOL    HW121378   0.956   3.658  10.836  0.8469  2.7021  0.9288
 5949SOL    HW221379   0.850   3.668  10.728 -0.5130 -3.0630  1.4005
 5950SOL     OW21380   8.013   4.268   5.139  0.1884 -0.2377 -0.3628
 5950SOL    HW121381   8.034   4.192   5.084  0.1500  0.2424 -1.0524
 5950SOL    HW221382   8.091   4.323   5.134  0.6609 -0.7374  1.0404
 5951SOL     OW21383   4.024   6.981   0.359  0.3266  0.1032  0.2800
 5951SOL    HW121384   3.977   6.955   0.438  1.2308  0.4894  0.9650
 5951SOL    HW221385   3.978   7.060   0.329 -0.7829 -0.7440 -0.3007
 5952SOL     OW21386   5.304  10.833   0.048 -0.2383 -0.0019 -0.5306
 5952SOL    HW121387   5.288  10.855  -0.044 -1.2458 -1.1443 -0.6482
 5952SOL    HW221388   5.243  10.890   0.096  1.5154  1.9053 -0.3944
 5953SOL     OW21389   7.750   5.921   3.864 -0.0132 -0.0342 -0.0358
 5953SOL    HW121390   7.832   5.887   3.899 -0.0546  0.2170  0.3093
 5953SOL    HW221391   7.763   5.920   3.769  1.1064  1.7307  0.0480
 5954SOL     OW21392   2.532   4.291  10.133  0.4999  0.1053 -0.2693
 5954SOL    HW121393   2.616   4.251  10.156  1.3824  1.6774 -0.5956
 5954SOL    HW221394   2.542   4.383  10.157 -0.5549  0.6585 -1.7824
 5955SOL     OW21395   0.676   0.749   9.152 -0.3250  0.3737 -0.0008
 5955SOL    HW121396   0.665   0.838   9.117 -0.1619  0.3504 -0.1182
 5955SOL    HW221397   0.603   0.737   9.212 -0.7750  0.3151 -0.5446
 5956SOL     OW21398   3.770   0.524   1.010 -0.3416 -0.0004  0.1665
 5956SOL    HW121399   3.693   0.482   0.971  0.6458 -0.2207 -1.6464
 5956SOL    HW221400   3.769   0.495   1.101 -0.4969 -2.8879 -0.6311
 5957SOL     OW21401  10.055   3.327  10.140  0.4361 -0.3656  1.0564
 5957SOL    HW121402   9.999   3.397  10.174  0.9603  0.7691 -0.3542
 5957SOL    HW221403   9.993   3.265  10.100 -0.0009 -0.6095  2.0568
 5958SOL     OW21404   7.699   3.867   7.346 -0.1972 -0.3597  0.7940
 5958SOL    HW121405   7.657   3.824   7.420  0.3957 -0.3848  1.1218
 5958SOL    HW221406   7.679   3.960   7.357 -0.3110 -0.3927  0.8580
 5959SOL     OW21407   0.777   9.812   2.942 -0.6765  0.2145  0.8903
 5959SOL    HW121408   0.827   9.893   2.943  1.4077 -1.0066  1.5366
 5959SOL    HW221409   0.686   9.840   2.934  0.1351  2.4969 -1.9668
 5960SOL     OW21410   6.891   2.048   9.472 -0.3276  0.7184  0.1667
 5960SOL    HW121411   6.852   1.962   9.461 -0.2548  0.5915  0.8429
 5960SOL    HW221412   6.886   2.089   9.385 -1.2719  0.4196  0.0744
 5961SOL     OW21413   0.003   6.678   2.430  0.4355 -0.1796  0.4197
 5961SOL    HW121414  -0.085   6.641   2.436  0.3456 -0.1440 -0.5666
 5961SOL    HW221415   0.033   6.683   2.521 -0.9400  0.7007  0.8521
 5962SOL     OW21416   7.766   9.334   3.725 -0.0524  0.0548  0.1013
 5962SOL    HW121417   7.734   9.422   3.744 -0.4043 -0.3042  1.1948
 5962SOL    HW221418   7.855   9.348   3.692 -0.7135  0.9398 -1.4240
 5963SOL     OW21419   1.987   5.643  10.290  0.0078  0.2332  0.0641
 5963SOL    HW121420   1.989   5.735  10.316  0.4146  0.3762 -0.4519
 5963SOL    HW221421   2.007   5.595  10.370 -0.0095  0.5993  0.2930
 5964SOL     OW21422   9.765   9.379   6.638  0.6872  0.1275  0.1263
 5964SOL    HW121423   9.675   9.411   6.650  0.8862  0.4479  0.7647
 5964SOL    HW221424   9.761   9.286   6.662  0.8418  0.4943  1.6062
 5965SOL     OW21425   2.050   4.248   2.281  0.4715  0.3036  0.2324
 5965SOL    HW121426   2.061   4.172   2.337  0.8287  0.3809  0.2681
 5965SOL    HW221427   2.001   4.215   2.205  0.6037  0.0479  0.2588
 5966SOL     OW21428   1.621   3.442   5.833 -0.1170 -0.5043  0.0071
 5966SOL    HW121429   1.716   3.431   5.831 -0.2005 -1.2405 -1.4645
 5966SOL    HW221430   1.592   3.415   5.745 -1.7525 -0.9848  0.6566
 5967SOL     OW21431   4.938  10.568  11.123  0.4765 -0.7954  0.2521
 5967SOL    HW121432   4.872  10.635  11.144 -0.2822 -1.7829  1.1051
 5967SOL    HW221433   4.888  10.493  11.092  1.3107 -1.0453 -0.5426
 5968SOL     OW21434   6.172   3.873   5.575  0.8350 -0.1927 -0.0762
 5968SOL    HW121435   6.112   3.823   5.630  0.4264 -1.0787 -1.2797
 5968SOL    HW221436   6.133   3.960   5.569  0.0556 -0.5505 -0.2517
 5969SOL     OW21437   3.396   0.701   7.124 -0.1870  0.3461  0.0183
 5969SOL    HW121438   3.339   0.668   7.055  0.3370  0.5539 -0.5209
 5969SOL    HW221439   3.399   0.630   7.188  0.7354 -0.5742 -1.0037
 5970SOL     OW21440   2.866   0.166   0.939  0.0848 -0.2390  0.5384
 5970SOL    HW121441   2.818   0.140   0.860 -2.2738 -0.1406  1.8135
 5970SOL    HW221442   2.907   0.249   0.916 -0.6083 -0.1718 -0.5666
 5971SOL     OW21443   6.271   8.620   0.721 -0.7715  0.0110  0.2762
 5971SOL    HW121444   6.235   8.705   0.744 -1.0652 -0.1849  0.5475
 5971SOL    HW221445   6.344   8.607   0.781 -1.6267 -0.5644  1.2240
 5972SOL     OW21446   4.509   3.665   1.698 -0.1219  0.4283  0.2735
 5972SOL    HW121447   4.427   3.708   1.722  0.0007  1.3709 -0.8909
 5972SOL    HW221448   4.484   3.574   1.681 -0.2670 -0.2214  3.3910
 5973SOL     OW21449   2.038  10.153   2.361 -0.3406 -0.1852 -0.0511
 5973SOL    HW121450   2.036  10.145   2.456 -1.7108  0.1055 -0.0243
 5973SOL    HW221451   2.117  10.204   2.342 -0.4539  0.4069  1.0017
 5974SOL     OW21452  10.895   3.127   0.457 -0.2244  0.2403 -0.1845
 5974SOL    HW121453  10.838   3.066   0.410 -1.2693  0.8654  0.2338
 5974SOL    HW221454  10.879   3.108   0.549 -0.6828  1.2425 -0.0492
 5975SOL     OW21455   3.154   0.196   2.439  0.1797 -0.1295 -0.1504
 5975SOL    HW121456   3.217   0.189   2.368  1.7764 -0.5345  1.2570
 5975SOL    HW221457   3.204   0.176   2.518 -1.6761 -0.3022  1.0392
 5976SOL     OW21458   3.793   9.581   7.480  0.0698 -0.3117 -0.5575
 5976SOL    HW121459   3.784   9.575   7.575  0.1240 -0.5536 -0.5663
 5976SOL    HW221460   3.856   9.652   7.466 -0.9624  0.6550 -0.4627
 5977SOL     OW21461   5.217   8.411   5.045  0.3103 -0.0160 -0.0285
 5977SOL    HW121462   5.224   8.486   5.104  1.5923 -1.2513  1.4638
 5977SOL    HW221463   5.141   8.431   4.990 -1.7326  0.6933  2.8193
 5978SOL     OW21464   6.785   8.748   7.296  0.1870 -0.1475  0.1438
 5978SOL    HW121465   6.838   8.669   7.282  1.3349  0.7382 -0.6909
 5978SOL    HW221466   6.726   8.750   7.221 -0.8406 -0.9502  0.8991
 5979SOL     OW21467   8.587   9.874   4.654 -0.2482 -0.0046  0.5866
 5979SOL    HW121468   8.524   9.803   4.670 -3.1264  2.0956 -0.4855
 5979SOL    HW221469   8.586   9.925   4.735 -0.1062  0.1566  0.4863
 5980SOL     OW21470   8.511   3.608   2.258 -0.1646  0.1096 -0.6835
 5980SOL    HW121471   8.570   3.559   2.200 -0.1849  0.2497 -0.8232
 5980SOL    HW221472   8.566   3.634   2.332 -0.0444  0.2565 -0.8224
 5981SOL     OW21473   1.901   3.449   7.783  0.2124  0.7920 -0.4409
 5981SOL    HW121474   1.950   3.430   7.863 -0.3328  0.6993 -0.1250
 5981SOL    HW221475   1.810   3.452   7.811 -0.2446 -1.6911 -1.4706
 5982SOL     OW21476   2.403   3.908   6.633  0.3718  0.1457 -0.6402
 5982SOL    HW121477   2.469   3.864   6.687  0.8808  0.0243 -1.3453
 5982SOL    HW221478   2.415   4.001   6.652  1.3726  0.1950 -1.4437
 5983SOL     OW21479  10.961   1.238   3.649 -0.0411  0.0019 -0.6766
 5983SOL    HW121480  10.881   1.274   3.689 -0.0032  0.5390 -1.0650
 5983SOL    HW221481  11.016   1.212   3.723 -0.2743  0.3127 -0.3930
 5984SOL     OW21482   6.197  10.344   2.204 -0.9723  0.1148 -0.2933
 5984SOL    HW121483   6.172  10.418   2.149  2.0381  0.4430 -1.3735
 5984SOL    HW221484   6.196  10.269   2.145  0.2672  0.1013 -0.3139
 5985SOL     OW21485   0.603   8.607   6.862 -0.6129 -0.3906 -0.0126
 5985SOL    HW121486   0.547   8.539   6.824 -1.2564  0.0245  0.1687
 5985SOL    HW221487   0.581   8.608   6.955  0.6098 -1.0738  0.3019
 5986SOL     OW21488  10.702  10.370   1.348 -0.0046  0.0634 -0.1619
 5986SOL    HW121489  10.609  10.345   1.351  0.1733 -1.4701 -3.5249
 5986SOL    HW221490  10.749  10.288   1.361  0.7766  0.1580 -2.1220
 5987SOL     OW21491   8.233   4.648   8.609 -0.0571 -0.1842  0.1364
 5987SOL    HW121492   8.156   4.705   8.622 -0.0382  0.4701 -2.1855
 5987SOL    HW221493   8.196   4.561   8.596 -0.1586 -0.5353  2.3146
 5988SOL     OW21494   6.985   5.752   4.471  0.6969  0.1534 -0.2930
 5988SOL    HW121495   6.945   5.677   4.516  0.2060 -1.1174 -2.6378
 5988SOL    HW221496   6.916   5.818   4.468  0.7767  0.3067  0.8565
 5989SOL     OW21497   1.405   0.348   6.013 -0.3786 -0.7660  0.2101
 5989SOL    HW121498   1.439   0.427   6.055 -3.2097  0.2697  0.8456
 5989SOL    HW221499   1.472   0.323   5.951  1.0858  1.5614  0.7059
 5990SOL     OW21500   8.527   9.550   8.554 -0.1397 -0.5468  0.4790
 5990SOL    HW121501   8.514   9.565   8.648 -0.0285 -0.4855  0.4849
 5990SOL    HW221502   8.616   9.513   8.548  0.5419  1.0673  0.2321
 5991SOL     OW21503   1.998   3.021   3.004  0.1752 -0.6917 -0.0199
 5991SOL    HW121504   2.029   2.938   2.968 -1.5393 -1.8000  0.8907
 5991SOL    HW221505   1.908   3.029   2.971  0.9040  1.8120 -1.6431
 5992SOL     OW21506   3.354   6.307   5.416 -0.1133  0.0511 -0.1079
 5992SOL    HW121507   3.422   6.242   5.401  0.0116 -0.2755  1.6825
 5992SOL    HW221508   3.402   6.388   5.436 -0.2655  0.2303 -0.4538
 5993SOL     OW21509   8.085   4.238   2.573  0.5136 -0.1375 -0.1212
 5993SOL    HW121510   8.030   4.213   2.647 -0.5058  0.9330 -0.4865
 5993SOL    HW221511   8.100   4.332   2.585  3.3851 -0.6025  0.6723
 5994SOL     OW21512   6.212   2.402  10.177  0.0117 -0.2230  0.3955
 5994SOL    HW121513   6.251   2.487  10.196 -0.4246  0.2218 -0.6169
 5994SOL    HW221514   6.146   2.390  10.244 -1.6165  1.3751 -0.8148
 5995SOL     OW21515   1.204   7.813   2.859 -0.4474 -0.5797 -0.0713
 5995SOL    HW121516   1.201   7.809   2.954 -1.0643 -0.3238 -0.0760
 5995SOL    HW221517   1.296   7.830   2.838 -0.0864 -1.8342  0.4256
 5996SOL     OW21518   2.563   8.753   6.550 -0.3266  0.0439 -0.3250
 5996SOL    HW121519   2.468   8.753   6.558 -0.1509  0.4308  3.6216
 5996SOL    HW221520   2.582   8.822   6.487 -2.6238  1.3987  0.3386
 5997SOL     OW21521   9.558   8.672   6.794 -0.5635  0.4796 -0.6328
 5997SOL    HW121522   9.573   8.655   6.887 -2.8561 -1.9866 -0.5752
 5997SOL    HW221523   9.543   8.766   6.789 -3.6772  0.3298  2.1887
 5998SOL     OW21524   1.400   3.758   0.591  0.2065  0.5807 -0.1654
 5998SOL    HW121525   1.404   3.778   0.498  1.4183 -0.1504 -0.3019
 5998SOL    HW221526   1.488   3.725   0.612 -0.0024  0.8492  1.2610
 5999SOL     OW21527   8.623   4.029   0.286 -0.2431  0.4754 -0.0400
 5999SOL    HW121528   8.606   4.042   0.379 -2.2078  1.3715 -0.4792
 5999SOL    HW221529   8.616   3.934   0.273  1.1151  0.2177  0.8746
 6000SOL     OW21530   2.138   2.013   7.235  0.2879  0.3638 -0.1919
 6000SOL    HW121531   2.159   1.953   7.306  1.2466  0.3277 -0.4975
 6000SOL    HW221532   2.166   2.099   7.267 -2.7812  1.0265  1.0141
 6001SOL     OW21533   5.857   2.107   8.774  0.4679 -0.1241  0.7471
 6001SOL    HW121534   5.907   2.178   8.814  0.9174  0.8525 -1.4208
 6001SOL    HW221535   5.823   2.144   8.693  0.7976 -2.4023 -0.5148
 6002SOL     OW21536   4.371   5.339   0.949  0.0562 -0.0210 -0.4027
 6002SOL    HW121537   4.399   5.428   0.926  0.4678 -0.2702 -0.8601
 6002SOL    HW221538   4.448   5.299   0.989  0.1052 -0.4222 -0.8881
 6003SOL     OW21539   9.067   4.060   9.854  0.0815 -0.0302 -0.1173
 6003SOL    HW121540   9.072   4.077   9.760 -0.5286  0.2326 -0.1046
 6003SOL    HW221541   9.059   3.965   9.860  2.4914 -0.3085 -0.2205
 6004SOL     OW21542   6.134   5.649   1.445 -0.5594  0.3031  0.1133
 6004SOL    HW121543   6.058   5.699   1.417  0.3295  1.0586 -1.0703
 6004SOL    HW221544   6.204   5.714   1.453 -0.0690 -0.3329  1.4106
 6005SOL     OW21545   2.060   2.049   5.297  0.1481  0.3124 -0.0242
 6005SOL    HW121546   2.084   2.071   5.207 -1.6230  0.3673 -0.5172
 6005SOL    HW221547   2.128   1.989   5.326  1.2630  1.0154 -1.0682
 6006SOL     OW21548   8.265   5.622  10.498 -0.0665  0.4197  0.4878
 6006SOL    HW121549   8.343   5.652  10.452  0.4305  0.5494  1.4132
 6006SOL    HW221550   8.248   5.535  10.462 -0.3105  0.9401 -0.7036
 6007SOL     OW21551  10.994   0.312   9.904 -0.5640  0.4157 -0.0116
 6007SOL    HW121552  11.045   0.298   9.824 -3.0724 -0.4092 -1.6033
 6007SOL    HW221553  10.929   0.378   9.879 -0.7059  0.9968  1.7407
 6008SOL     OW21554   3.539   9.650   1.883  0.6904  0.0561  0.4162
 6008SOL    HW121555   3.573   9.593   1.952 -1.1469 -1.2182  0.3298
 6008SOL    HW221556   3.459   9.687   1.920 -0.0378 -0.2207 -0.8276
 6009SOL     OW21557  11.028   0.207   1.356  0.6484 -0.2003 -0.1912
 6009SOL    HW121558  11.039   0.286   1.408 -1.8485  1.0330 -1.3552
 6009SOL    HW221559  10.977   0.148   1.411 -0.0019  0.1772 -0.3872
 6010SOL     OW21560   5.777   7.760  10.947  0.1218 -0.3978  0.2393
 6010SOL    HW121561   5.785   7.758  10.852 -0.6840  2.3080  0.0329
 6010SOL    HW221562   5.694   7.715  10.965 -2.3329  3.2169 -0.9045
 6011SOL     OW21563   4.857   7.810  10.811 -0.5728  0.3165 -1.0987
 6011SOL    HW121564   4.854   7.792  10.717 -0.4291 -1.2918 -0.8209
 6011SOL    HW221565   4.949   7.798  10.835 -1.0246 -1.9962 -0.2964
 6012SOL     OW21566   8.499   4.375   2.411 -0.3589  0.0645  1.0619
 6012SOL    HW121567   8.518   4.446   2.351 -0.1685 -2.9472 -2.8254
 6012SOL    HW221568   8.580   4.364   2.462  0.5373  0.9566 -0.1201
 6013SOL     OW21569   1.630   3.486   7.259  0.2892 -0.3219  0.3959
 6013SOL    HW121570   1.661   3.572   7.231 -0.0688 -0.0941  0.6814
 6013SOL    HW221571   1.674   3.471   7.343  2.6485 -1.7254 -0.9714
 6014SOL     OW21572   2.671  10.043   6.761  0.9085 -0.3378  0.2808
 6014SOL    HW121573   2.674  10.097   6.682 -0.3604  0.2775  0.6314
 6014SOL    HW221574   2.731   9.971   6.742 -0.4360 -1.0108 -1.8708
 6015SOL     OW21575   6.993   7.721   0.478  0.2004 -0.0751 -0.2895
 6015SOL    HW121576   7.080   7.681   0.473 -0.6824 -1.9604 -2.4545
 6015SOL    HW221577   7.009   7.815   0.474  2.1515 -0.3802 -0.4415
 6016SOL     OW21578   5.916   7.289   6.630  0.3181  0.5300 -0.6173
 6016SOL    HW121579   5.923   7.238   6.550  2.2758 -0.9202  0.3912
 6016SOL    HW221580   5.999   7.336   6.636  0.7715 -0.4157  1.1826
 6017SOL     OW21581   8.299   1.706   5.874 -0.6803 -0.2715  0.3685
 6017SOL    HW121582   8.285   1.681   5.966 -3.6184 -0.3117 -0.0055
 6017SOL    HW221583   8.270   1.796   5.868  0.2090 -0.0153 -0.4061
 6018SOL     OW21584   8.992   1.990   1.140  0.0649 -0.2928 -0.3399
 6018SOL    HW121585   9.006   1.899   1.113 -1.9532 -1.6635  2.6160
 6018SOL    HW221586   9.016   1.991   1.233 -2.1802  1.5463  0.3108
 6019SOL     OW21587   6.930   5.942   8.518  0.1161 -0.1213 -0.3528
 6019SOL    HW121588   6.906   5.862   8.471 -1.1283  0.3740 -0.6042
 6019SOL    HW221589   7.025   5.950   8.504 -0.0847 -0.3600 -2.2233
 6020SOL     OW21590   2.549   0.766   3.029  0.5353  0.2209  0.5838
 6020SOL    HW121591   2.591   0.683   3.052  0.8855  0.5010  0.9622
 6020SOL    HW221592   2.563   0.822   3.104  0.1439  0.5734  0.4000
 6021SOL     OW21593   6.803   7.539   0.601 -0.0679 -0.7132  0.0521
 6021SOL    HW121594   6.725   7.545   0.546  0.6443 -1.7375 -1.1365
 6021SOL    HW221595   6.847   7.623   0.589 -1.3343  0.1478  1.3052
 6022SOL     OW21596   1.642   8.802   3.296  0.0135 -0.3097  0.6765
 6022SOL    HW121597   1.588   8.774   3.222 -0.9846  1.5954  0.6092
 6022SOL    HW221598   1.639   8.898   3.292  0.6937 -0.1685  2.6390
 6023SOL     OW21599   0.302  11.004   9.690 -0.0291  0.0883 -0.2724
 6023SOL    HW121600   0.317  10.990   9.784  0.8548  1.2676 -0.2061
 6023SOL    HW221601   0.291  10.916   9.654 -1.2077 -0.3410  1.0551
 6024SOL     OW21602   5.607   8.101   1.883  0.1746  0.0724 -0.4691
 6024SOL    HW121603   5.515   8.090   1.861  0.5924  0.9797 -2.9940
 6024SOL    HW221604   5.635   8.177   1.832  2.4852 -0.6381 -0.3815
 6025SOL     OW21605   0.789   0.957   7.866  0.0084  0.2594  0.2525
 6025SOL    HW121606   0.747   0.983   7.948 -1.0472 -2.1173  0.5672
 6025SOL    HW221607   0.799   1.038   7.817 -3.9466  1.1604  0.6330
 6026SOL     OW21608   3.777   3.298   1.688  0.3426 -0.8084  0.2584
 6026SOL    HW121609   3.699   3.284   1.741  0.2716  1.2027  0.7747
 6026SOL    HW221610   3.771   3.232   1.619 -1.9209 -0.5826  0.1659
 6027SOL     OW21611   0.833   1.365   5.656  0.1939 -0.0527 -0.3103
 6027SOL    HW121612   0.827   1.320   5.572  0.4021 -0.1090 -0.2969
 6027SOL    HW221613   0.924   1.352   5.684 -0.0204 -0.5064  0.1893
 6028SOL     OW21614   8.086   5.126   1.685 -0.2973 -0.6983 -0.4006
 6028SOL    HW121615   8.016   5.060   1.684 -2.5096  1.4866  0.3237
 6028SOL    HW221616   8.108   5.139   1.593 -1.3873 -0.9351 -0.7118
 6029SOL     OW21617   2.351   6.570   7.154 -0.4774  0.1370 -0.0309
 6029SOL    HW121618   2.307   6.486   7.157 -1.0099  0.3706 -0.9492
 6029SOL    HW221619   2.301   6.627   7.212 -1.1716  0.2900 -0.7595
 6030SOL     OW21620   0.812   2.771   7.913 -0.7061  0.5850  0.0492
 6030SOL    HW121621   0.874   2.739   7.978 -0.7922 -0.0584 -0.1772
 6030SOL    HW221622   0.828   2.865   7.908  2.3046  0.0821 -2.1478
 6031SOL     OW21623   7.773   5.122   0.487 -0.1996 -1.0047 -0.5053
 6031SOL    HW121624   7.702   5.140   0.548  1.8492  0.6741  1.5772
 6031SOL    HW221625   7.786   5.204   0.439  0.6990 -1.0752 -0.4164
 6032SOL     OW21626   2.746   2.150   7.759 -0.8007  0.0898  0.0832
 6032SOL    HW121627   2.667   2.201   7.777 -1.4101 -0.3596 -1.2298
 6032SOL    HW221628   2.714   2.062   7.742  0.2204 -0.7256  2.0561
 6033SOL     OW21629   4.813   1.288   9.225  0.4205  0.2577  0.6621
 6033SOL    HW121630   4.894   1.307   9.272  0.1156  0.0645  1.2701
 6033SOL    HW221631   4.840   1.231   9.153  0.8194  0.1769  0.8732
 6034SOL     OW21632   0.065   3.873   0.143  0.1917 -0.3011  0.4198
 6034SOL    HW121633   0.043   3.810   0.211 -3.3550  0.1196 -0.1091
 6034SOL    HW221634   0.134   3.927   0.180  1.4199 -2.7609  1.9170
 6035SOL     OW21635   2.713  10.383   0.371  0.1006  0.0987  0.1843
 6035SOL    HW121636   2.678  10.396   0.459 -2.6129  2.7067 -1.0845
 6035SOL    HW221637   2.773  10.455   0.357  2.1210 -1.4445  0.5079
 6036SOL     OW21638   8.193   7.178   7.194 -0.4217 -0.0937  0.2797
 6036SOL    HW121639   8.268   7.196   7.251 -0.0383  0.4755 -0.3793
 6036SOL    HW221640   8.118   7.173   7.253  0.1248 -0.6191  0.9469
 6037SOL     OW21641   8.848   2.662   4.421 -0.0014  0.0072 -0.1456
 6037SOL    HW121642   8.940   2.646   4.401  1.2002  3.7791  1.5146
 6037SOL    HW221643   8.824   2.590   4.480  1.9872 -0.8344 -0.2749
 6038SOL     OW21644   5.455   7.012   9.226 -0.4538 -0.6316 -0.2071
 6038SOL    HW121645   5.512   6.972   9.161 -0.2108 -2.0244  0.8267
 6038SOL    HW221646   5.428   7.095   9.186  1.4855 -0.3954 -1.1316
 6039SOL     OW21647  10.414   2.187   2.453 -0.4823 -0.4570  0.5029
 6039SOL    HW121648  10.329   2.206   2.415 -0.7895  0.3300  1.5253
 6039SOL    HW221649  10.421   2.091   2.452 -1.9633 -0.6063  1.6086
 6040SOL     OW21650   3.756   3.375   0.187 -0.0030  0.3796 -0.0466
 6040SOL    HW121651   3.791   3.310   0.248  0.3176 -0.7293 -1.3767
 6040SOL    HW221652   3.672   3.339   0.160  0.1647  0.5359 -0.7768
 6041SOL     OW21653   1.863   6.589   6.377  0.0683 -0.5027 -0.0865
 6041SOL    HW121654   1.901   6.626   6.298  0.6226 -1.4578 -0.2831
 6041SOL    HW221655   1.805   6.657   6.410  0.9259  0.4738 -0.5259
 6042SOL     OW21656   4.912   2.612   1.192  0.0400  0.3965 -0.1754
 6042SOL    HW121657   4.929   2.705   1.206 -1.9705  0.7462  0.2617
 6042SOL    HW221658   4.818   2.603   1.207 -0.0060 -1.5061 -1.3481
 6043SOL     OW21659   6.097   4.588  10.226  0.2111 -0.0901  0.8149
 6043SOL    HW121660   6.171   4.634  10.267  0.6005  0.4191 -0.4153
 6043SOL    HW221661   6.131   4.558  10.142  0.2297 -3.3536  1.8234
 6044SOL     OW21662   8.647   2.102   5.490  0.1258 -0.5157  0.2682
 6044SOL    HW121663   8.683   2.014   5.491  3.4243  0.6039 -1.8412
 6044SOL    HW221664   8.577   2.099   5.425 -0.2599 -1.6687  0.7087
 6045SOL     OW21665   9.846   9.517   4.232  0.2781  0.8685 -0.2785
 6045SOL    HW121666   9.781   9.447   4.231  2.3558 -1.1591 -0.2293
 6045SOL    HW221667   9.821   9.575   4.160 -1.3176 -0.0631 -0.5120
 6046SOL     OW21668   3.845   8.324   7.071  0.0290  0.6173  0.2099
 6046SOL    HW121669   3.871   8.353   7.159 -1.0700  2.8238 -0.1254
 6046SOL    HW221670   3.871   8.395   7.013  0.3076 -0.5997 -1.2337
 6047SOL     OW21671  10.513   0.073   3.252 -0.3577  0.5507 -1.1528
 6047SOL    HW121672  10.543   0.068   3.343 -0.4727 -1.1091 -1.1854
 6047SOL    HW221673  10.418   0.064   3.256 -0.3322  0.1065 -1.4600
 6048SOL     OW21674   6.430   3.138   3.202  0.5469 -0.6778  0.4703
 6048SOL    HW121675   6.457   3.067   3.261  2.6601 -1.2847 -1.0773
 6048SOL    HW221676   6.496   3.207   3.216 -1.0663  0.7307  1.4333
 6049SOL     OW21677   9.851   7.570  10.019 -0.0741 -0.4786  0.0204
 6049SOL    HW121678   9.946   7.556  10.021 -0.1356 -1.0168  2.7049
 6049SOL    HW221679   9.823   7.557  10.109 -2.5221  1.1283 -0.4088
 6050SOL     OW21680   3.967   1.029   0.420  0.0190  0.0297  0.3340
 6050SOL    HW121681   3.995   1.070   0.338 -0.8903 -1.5065 -0.8084
 6050SOL    HW221682   3.978   1.097   0.486  2.4474  0.7888 -0.7320
 6051SOL     OW21683   6.939   2.430   8.269  0.2376 -0.3937  0.4987
 6051SOL    HW121684   6.911   2.347   8.307 -2.7600  0.7339  1.0421
 6051SOL    HW221685   7.001   2.465   8.332 -0.6235 -0.9648  1.7106
 6052SOL     OW21686   5.332   6.621   9.523  0.7334 -0.2711 -0.3379
 6052SOL    HW121687   5.291   6.572   9.452  1.0407  0.6967 -1.2024
 6052SOL    HW221688   5.421   6.638   9.492  0.0566  2.5559 -0.9510
 6053SOL     OW21689   2.158   3.535   9.810 -0.2347  0.1811  0.0188
 6053SOL    HW121690   2.156   3.439   9.808 -2.0230  0.1942  0.0418
 6053SOL    HW221691   2.240   3.556   9.855 -1.2391 -1.3688  2.7728
 6054SOL     OW21692   5.379   9.849   4.238  0.8921  1.0131  0.5631
 6054SOL    HW121693   5.369   9.888   4.151 -0.0423 -1.1319 -0.3841
 6054SOL    HW221694   5.313   9.780   4.241  1.4238  0.5088  2.6987
 6055SOL     OW21695   4.750   3.387   8.482  0.0461  0.2633 -0.4108
 6055SOL    HW121696   4.697   3.366   8.405 -0.4566 -1.1033  0.2817
 6055SOL    HW221697   4.796   3.306   8.503 -1.1499  0.0679  1.7403
 6056SOL     OW21698   1.086   0.743   5.186 -0.2362  0.3101 -0.4641
 6056SOL    HW121699   1.149   0.791   5.240  1.4161 -0.6111 -1.4560
 6056SOL    HW221700   1.051   0.676   5.244  3.5763 -2.4830 -0.9886
 6057SOL     OW21701   4.660   0.594   7.996  0.1555  0.4027  0.3078
 6057SOL    HW121702   4.590   0.619   8.056 -0.8418  0.3131 -0.7944
 6057SOL    HW221703   4.645   0.501   7.979 -0.6946  0.8254 -1.4959
 6058SOL     OW21704   9.404  10.162   3.661  0.1616 -0.1878  0.4157
 6058SOL    HW121705   9.388  10.166   3.567  2.1658  2.2985  0.1037
 6058SOL    HW221706   9.347  10.229   3.698  0.4793 -0.1250  0.7978
 6059SOL     OW21707   6.425   4.107   3.791  0.3528 -0.4759 -0.2328
 6059SOL    HW121708   6.507   4.146   3.759  0.1313  0.8609  0.7734
 6059SOL    HW221709   6.450   4.061   3.871  0.0064  0.6125  0.5208
 6060SOL     OW21710   8.465   6.760   3.864 -0.0429  0.0905  0.7575
 6060SOL    HW121711   8.553   6.750   3.901 -0.0914 -2.3111  0.4091
 6060SOL    HW221712   8.414   6.799   3.934  1.3059  1.6510  0.9217
 6061SOL     OW21713   1.726   0.553   1.024 -0.4214 -0.0917 -0.4288
 6061SOL    HW121714   1.786   0.529   1.095  0.4599  0.8685 -0.8142
 6061SOL    HW221715   1.643   0.572   1.068 -0.2250 -0.6646  0.2039
 6062SOL     OW21716   4.121   9.714   3.690 -0.6247 -0.7391  0.3384
 6062SOL    HW121717   4.157   9.794   3.653  0.4774 -2.0311 -1.5988
 6062SOL    HW221718   4.137   9.721   3.784 -1.0451  1.5099  0.2958
 6063SOL     OW21719   0.353   3.044  10.985 -0.0632 -0.4947  0.2952
 6063SOL    HW121720   0.272   2.994  10.973 -1.4426  1.9140 -1.2885
 6063SOL    HW221721   0.325   3.121  11.035  1.3052  0.3176 -0.1560
 6064SOL     OW21722   8.222   2.994   4.315  0.4552  0.2151  0.9628
 6064SOL    HW121723   8.243   3.036   4.231  1.7488 -0.2656  1.0222
 6064SOL    HW221724   8.126   2.994   4.318  0.3962  1.5695  0.1626
 6065SOL     OW21725   2.595   0.899   3.271 -0.7038  0.0970  0.2325
 6065SOL    HW121726   2.658   0.860   3.332 -2.3783 -0.0107  1.9785
 6065SOL    HW221727   2.631   0.986   3.252  0.4659 -0.3322  0.3652
 6066SOL     OW21728   2.147   4.119   5.869 -0.1688 -0.4868 -0.9562
 6066SOL    HW121729   2.087   4.181   5.910 -1.9180 -1.8428 -1.3644
 6066SOL    HW221730   2.174   4.161   5.788 -1.4261 -0.2906 -1.2903
 6067SOL     OW21731   0.372   3.911   7.324  0.4694  0.1870  0.3956
 6067SOL    HW121732   0.384   3.906   7.419 -1.2790  0.1262  0.6391
 6067SOL    HW221733   0.307   3.980   7.311  1.7731  1.2456 -0.8828
 6068SOL     OW21734   8.378   7.261   2.735 -0.1719 -0.0590 -0.2148
 6068SOL    HW121735   8.416   7.305   2.659 -2.2305 -0.5573 -1.6219
 6068SOL    HW221736   8.446   7.266   2.802  2.0744 -0.3291 -2.3215
 6069SOL     OW21737   6.407   9.104   9.242  0.2164  0.1373 -0.2700
 6069SOL    HW121738   6.464   9.048   9.189  1.9099  1.6582 -0.1438
 6069SOL    HW221739   6.456   9.119   9.323  0.2494  2.4492 -0.6337
 6070SOL     OW21740   3.947  10.728  10.058 -0.0045  0.0549  0.0589
 6070SOL    HW121741   4.023  10.670  10.060 -1.0040 -1.2910  0.7902
 6070SOL    HW221742   3.884  10.683  10.001 -0.7020  0.5361  0.4393
 6071SOL     OW21743   2.123   5.842   5.580 -0.4684 -0.4459 -0.0675
 6071SOL    HW121744   2.109   5.903   5.508 -1.8256 -1.2382 -0.5182
 6071SOL    HW221745   2.218   5.839   5.591 -0.3598  1.3362 -0.3583
 6072SOL     OW21746   7.262   7.072   0.241 -0.0882 -0.2733  0.4584
 6072SOL    HW121747   7.335   7.019   0.209 -0.9543 -0.4448 -1.3344
 6072SOL    HW221748   7.274   7.157   0.199  1.4205  1.1640  3.4904
 6073SOL     OW21749   2.011   9.803   4.231 -0.0533  0.2402 -0.2211
 6073SOL    HW121750   1.976   9.889   4.254  0.5936  0.8071 -1.2573
 6073SOL    HW221751   2.097   9.801   4.272 -0.1680 -0.0068  0.0030
 6074SOL     OW21752   8.642   6.225   3.349 -0.0642 -0.1103  0.0167
 6074SOL    HW121753   8.705   6.290   3.319 -0.7938  0.5695 -0.0886
 6074SOL    HW221754   8.581   6.275   3.404 -1.2529 -0.4842 -0.9186
 6075SOL     OW21755   5.974   2.543   0.163 -0.3847  0.5034 -0.2067
 6075SOL    HW121756   5.891   2.590   0.174  1.0146  3.1821 -0.1761
 6075SOL    HW221757   5.991   2.548   0.069 -0.4285 -0.3621 -0.2608
 6076SOL     OW21758   5.565  10.912  11.017 -0.1531 -0.0304  0.6040
 6076SOL    HW121759   5.616  10.912  10.936 -0.0996  0.5116  0.6346
 6076SOL    HW221760   5.473  10.916  10.988 -0.2071 -1.2861  0.5416
 6077SOL     OW21761   5.910  10.997   2.591 -0.3801 -0.4043 -0.0788
 6077SOL    HW121762   5.934  10.955   2.673 -0.2488 -0.0106  0.0886
 6077SOL    HW221763   5.815  10.991   2.587 -0.5573  1.0795  0.9425
 6078SOL     OW21764   9.152   6.393   4.757 -0.0130 -0.4803 -0.2108
 6078SOL    HW121765   9.211   6.460   4.724 -0.8904 -0.4625 -1.8543
 6078SOL    HW221766   9.177   6.314   4.711  1.3404 -1.4742  2.0785
 6079SOL     OW21767   7.070   0.647   8.359  0.2631  0.4743  0.5318
 6079SOL    HW121768   7.045   0.699   8.283 -0.5474 -1.0444 -0.3118
 6079SOL    HW221769   6.988   0.632   8.406  0.9067  2.2797  2.3434
 6080SOL     OW21770  10.570   1.166   9.008 -0.3052  0.3173 -0.2152
 6080SOL    HW121771  10.541   1.097   9.068  0.0428 -0.8186 -1.3122
 6080SOL    HW221772  10.653   1.196   9.045 -1.0696  1.0571  0.9597
 6081SOL     OW21773   9.418   1.541   8.821 -0.4026 -0.2195 -0.2643
 6081SOL    HW121774   9.450   1.469   8.767 -0.5219  0.5100 -1.3605
 6081SOL    HW221775   9.380   1.602   8.758 -2.1972 -0.1603  0.8177
 6082SOL     OW21776   6.765   5.111   4.300  0.4047 -0.2544 -0.5899
 6082SOL    HW121777   6.696   5.067   4.350 -0.1899  0.6983 -0.5375
 6082SOL    HW221778   6.719   5.178   4.250  1.3040  0.4279 -0.5293
 6083SOL     OW21779   7.372   5.476   6.383  0.1499 -0.5364 -0.2417
 6083SOL    HW121780   7.427   5.448   6.456 -0.2486 -0.5892  0.0415
 6083SOL    HW221781   7.433   5.483   6.309  0.7726  0.5927  0.3420
 6084SOL     OW21782   2.348   7.431   9.864  0.3895  0.4488  0.0425
 6084SOL    HW121783   2.313   7.421   9.953 -3.4342 -0.0345 -1.3295
 6084SOL    HW221784   2.364   7.341   9.835 -0.2346  0.4608 -0.3633
 6085SOL     OW21785   2.672   8.837  10.234 -0.1597 -0.2407 -0.3045
 6085SOL    HW121786   2.654   8.849  10.327 -0.0352  1.0450 -0.4418
 6085SOL    HW221787   2.603   8.886  10.189  0.4534  0.1017 -0.8801
 6086SOL     OW21788  10.252   9.437  10.695 -0.4157  0.1127 -0.7530
 6086SOL    HW121789  10.210   9.523  10.689 -0.7273  0.1155  0.9702
 6086SOL    HW221790  10.184   9.379  10.730  0.3711 -0.3712  0.0153
 6087SOL     OW21791   7.319   1.812   6.955  0.0873 -0.2409  0.2491
 6087SOL    HW121792   7.338   1.719   6.942 -0.6892 -0.3134 -0.4005
 6087SOL    HW221793   7.334   1.852   6.870 -0.2247  0.1172  0.3590
 6088SOL     OW21794  11.090   8.004   2.381  0.7899  0.2768  0.3806
 6088SOL    HW121795  11.023   7.936   2.380  1.0094  0.0492 -0.7860
 6088SOL    HW221796  11.065   8.062   2.452  0.7908 -1.1975  1.6394
 6089SOL     OW21797   4.315   1.458   4.929 -0.2344 -0.1640  0.1881
 6089SOL    HW121798   4.391   1.437   4.984 -1.2017 -2.1501  0.8433
 6089SOL    HW221799   4.318   1.394   4.858 -0.7205  0.4189 -0.3681
 6090SOL     OW21800   3.554   3.451   1.430  0.3979 -0.1525  0.8779
 6090SOL    HW121801   3.563   3.363   1.393  0.4105 -0.2341  1.0748
 6090SOL    HW221802   3.635   3.465   1.479  0.0040 -0.4028  1.6231
 6091SOL     OW21803  10.152   0.213   7.730  0.7104 -0.4748 -0.7368
 6091SOL    HW121804  10.098   0.265   7.670 -0.5243  0.8525  1.4109
 6091SOL    HW221805  10.239   0.253   7.725  0.2283  0.6417 -0.5103
 6092SOL     OW21806   0.742   3.376   1.907  0.3285  0.3411 -0.1169
 6092SOL    HW121807   0.776   3.296   1.866 -0.3525  0.8116 -1.6771
 6092SOL    HW221808   0.819   3.433   1.914  0.2520  0.7341 -1.9904
 6093SOL     OW21809   3.370   5.880   2.136 -0.3209 -0.3621 -0.0782
 6093SOL    HW121810   3.316   5.806   2.165  0.2027 -0.4217  0.7543
 6093SOL    HW221811   3.453   5.841   2.112 -0.2256 -0.1110 -0.1590
 6094SOL     OW21812   9.790  10.483   7.393  0.2420 -0.3280 -0.4835
 6094SOL    HW121813   9.703  10.521   7.398  0.8064  0.9689 -0.0396
 6094SOL    HW221814   9.848  10.558   7.377  1.5915 -0.7091  2.1471
 6095SOL     OW21815   6.631   6.867   0.429 -0.0416 -0.1757 -0.0195
 6095SOL    HW121816   6.601   6.948   0.388  1.0139 -0.5627 -1.6992
 6095SOL    HW221817   6.706   6.892   0.482 -0.2499  0.0600  0.1657
 6096SOL     OW21818   0.354   5.003  10.530 -0.1763  0.4308  0.1744
 6096SOL    HW121819   0.408   4.966  10.460 -1.2070 -0.7277 -0.0352
 6096SOL    HW221820   0.353   4.936  10.598 -1.7190  0.2266 -0.0266
 6097SOL     OW21821   3.341   6.075   8.695  0.0371 -0.0924 -0.2168
 6097SOL    HW121822   3.317   5.987   8.724 -0.7688 -0.9303 -3.0560
 6097SOL    HW221823   3.403   6.061   8.624 -0.1748  1.6125 -0.7908
 6098SOL     OW21824   7.044   2.120   1.091  0.2104 -0.3700 -0.8778
 6098SOL    HW121825   7.069   2.040   1.137  0.2687 -0.4691 -1.0833
 6098SOL    HW221826   7.126   2.165   1.074  0.0688  1.1394  1.7342
 6099SOL     OW21827   6.518   4.419   7.074 -0.2097 -0.5851  0.1257
 6099SOL    HW121828   6.543   4.452   6.988  0.5080  0.2915  0.6541
 6099SOL    HW221829   6.601   4.403   7.119 -0.5538  0.4683  1.1944
 6100SOL     OW21830   2.072   7.828   7.858  0.0503  0.0602 -0.2483
 6100SOL    HW121831   2.002   7.889   7.881  0.0269  0.7142 -1.8854
 6100SOL    HW221832   2.087   7.844   7.764  2.1898 -0.2614 -0.0120
 6101SOL     OW21833   1.441   8.687  10.097  0.1284 -0.4702  0.3784
 6101SOL    HW121834   1.429   8.613  10.156  1.5182 -0.1849  1.0545
 6101SOL    HW221835   1.535   8.687  10.077 -0.0995  0.2078 -0.8190
 6102SOL     OW21836   4.138   2.107   3.667 -0.5776  0.0728  0.8202
 6102SOL    HW121837   4.067   2.138   3.610 -0.8764  0.4023  1.3599
 6102SOL    HW221838   4.097   2.041   3.723 -0.2702 -0.3014  0.6066
 6103SOL     OW21839   6.578  10.605   6.798 -0.4014 -0.5942  0.0450
 6103SOL    HW121840   6.640  10.631   6.729  0.0596  0.5340  0.8588
 6103SOL    HW221841   6.627  10.545   6.853 -0.6182 -1.1182 -0.3239
 6104SOL     OW21842  10.091   6.268  10.962  0.5884  0.2321 -0.3278
 6104SOL    HW121843  10.164   6.208  10.943  1.7831  1.2068  1.0008
 6104SOL    HW221844  10.130   6.337  11.016 -1.3010  0.8562  0.3074
 6105SOL     OW21845   1.956   6.539   7.279 -0.3232  1.0183 -0.0645
 6105SOL    HW121846   1.890   6.475   7.306  1.1024 -0.9852 -1.0508
 6105SOL    HW221847   1.962   6.528   7.184  0.0230  2.6062 -0.2509
 6106SOL     OW21848   7.413   9.255  10.031 -0.1881 -0.0091 -0.3788
 6106SOL    HW121849   7.453   9.299  10.106 -0.2157 -0.9250  0.1946
 6106SOL    HW221850   7.487   9.229   9.976  0.0593 -1.7760  0.7215
 6107SOL     OW21851  10.442   5.490   3.604 -0.7920 -0.2434 -0.1444
 6107SOL    HW121852  10.403   5.535   3.529 -2.1644  0.9361  1.2003
 6107SOL    HW221853  10.499   5.556   3.644  1.1097 -1.3328 -0.9565
 6108SOL     OW21854   2.620   8.790  11.081 -0.2898  0.3211 -0.1675
 6108SOL    HW121855   2.623   8.723  11.149  2.7470  0.9662  0.4756
 6108SOL    HW221856   2.610   8.740  10.999 -1.0210 -0.6567  0.4926
 6109SOL     OW21857  11.124  10.696   0.683  0.7456 -0.1032  0.0248
 6109SOL    HW121858  11.152  10.751   0.756 -1.8632  1.6061 -0.1274
 6109SOL    HW221859  11.163  10.737   0.605 -0.1218  0.8054  0.0494
 6110SOL     OW21860   5.657   6.496   0.367  0.0397 -0.1181 -0.3213
 6110SOL    HW121861   5.718   6.568   0.350 -1.5087  1.1675 -0.6949
 6110SOL    HW221862   5.708   6.433   0.418  0.7543  2.4138  2.3528
 6111SOL     OW21863   3.927   3.892   3.105  0.1579 -0.1004  0.2755
 6111SOL    HW121864   3.965   3.971   3.142 -1.1562  0.9940 -0.6236
 6111SOL    HW221865   4.002   3.833   3.092  1.9581  2.5743 -3.0483
 6112SOL     OW21866   4.093   2.075   6.240 -0.2674 -0.2968  0.1305
 6112SOL    HW121867   4.151   2.145   6.270  1.2365 -0.5048 -2.0287
 6112SOL    HW221868   4.008   2.116   6.227 -0.0415  0.5442  1.2072
 6113SOL     OW21869   3.565   7.474   8.340  0.1504 -0.4031  0.7534
 6113SOL    HW121870   3.587   7.386   8.310 -0.9312 -0.5047  0.2444
 6113SOL    HW221871   3.473   7.486   8.317  0.1741  0.7178  1.1668
 6114SOL     OW21872   5.057   4.029   9.898  0.8129  0.3738 -0.4074
 6114SOL    HW121873   5.094   3.969   9.833  3.8926 -0.3346  1.7795
 6114SOL    HW221874   5.046   3.976   9.977 -0.1731  1.8143  0.4878
 6115SOL     OW21875   9.679   5.165   5.901  1.0035 -0.0634 -0.1753
 6115SOL    HW121876   9.759   5.163   5.953  0.1385  0.8861  1.2945
 6115SOL    HW221877   9.681   5.250   5.858 -0.6732  1.4956  2.4969
 6116SOL     OW21878   5.132   1.236   7.516 -0.3034  0.2039 -0.4655
 6116SOL    HW121879   5.135   1.318   7.467  0.5241  0.5231  0.0837
 6116SOL    HW221880   5.042   1.229   7.545  0.0137  2.0004  1.1980
 6117SOL     OW21881   4.032   0.521   8.993  0.2055 -0.3793 -0.1076
 6117SOL    HW121882   4.061   0.457   8.928 -0.9439 -0.4490 -0.5792
 6117SOL    HW221883   4.008   0.599   8.942  0.0230 -0.1621  0.3017
 6118SOL     OW21884   4.950   7.331  10.539 -0.4595  0.9425 -0.6829
 6118SOL    HW121885   4.992   7.399  10.592 -1.0545  0.9450 -0.2019
 6118SOL    HW221886   4.935   7.259  10.600 -0.4011  0.6194 -1.0462
 6119SOL     OW21887   7.986  10.637   8.867 -0.0324  0.7524 -0.4858
 6119SOL    HW121888   7.897  10.672   8.871 -1.1805 -1.9647  1.8920
 6119SOL    HW221889   8.034  10.687   8.933 -0.2350  1.1676 -0.6504
 6120SOL     OW21890   9.780   9.784   6.916  0.3984  0.2306  0.1856
 6120SOL    HW121891   9.827   9.812   6.994 -0.3253  2.4382 -0.0756
 6120SOL    HW221892   9.841   9.798   6.844  0.4731 -0.1218  0.1795
 6121SOL     OW21893   9.741   1.974   8.816 -0.7418 -0.0212  0.2095
 6121SOL    HW121894   9.690   2.002   8.892 -0.8659 -0.3184  0.2374
 6121SOL    HW221895   9.743   2.050   8.759 -0.8488  0.1286  0.4052
 6122SOL     OW21896   0.827   7.162   8.650 -0.2692  0.3565  0.2253
 6122SOL    HW121897   0.916   7.176   8.682 -0.3784  0.5094  0.4696
 6122SOL    HW221898   0.786   7.249   8.654  0.3495  0.8622 -2.3646
 6123SOL     OW21899   7.465   5.509   9.822  0.0877  0.3525  0.5510
 6123SOL    HW121900   7.473   5.447   9.895  0.2501  0.6222  0.7656
 6123SOL    HW221901   7.520   5.583   9.847  1.9162 -0.4689 -0.8225
 6124SOL     OW21902   4.517   9.693   2.972 -0.0753  0.7969 -0.1280
 6124SOL    HW121903   4.452   9.719   3.038  0.2908  0.5440  0.3292
 6124SOL    HW221904   4.587   9.758   2.980  0.3272  0.3152  0.2600
 6125SOL     OW21905   6.627   1.442   5.055  0.0355 -0.0662 -0.2281
 6125SOL    HW121906   6.532   1.451   5.040 -0.3135 -1.3429  1.0924
 6125SOL    HW221907   6.641   1.478   5.143  0.2281 -2.7412  0.9081
 6126SOL     OW21908   3.415   9.576   1.465 -0.8509 -0.4299  0.5652
 6126SOL    HW121909   3.486   9.517   1.492  1.2491  0.7227 -1.9286
 6126SOL    HW221910   3.342   9.519   1.445  1.7690 -2.7745 -3.9995
 6127SOL     OW21911   0.506   4.017   8.414  0.2671 -0.1359 -0.6003
 6127SOL    HW121912   0.460   3.984   8.491  0.1255 -1.6116 -1.2925
 6127SOL    HW221913   0.453   4.091   8.385  0.6636  0.8479  1.0553
 6128SOL     OW21914   7.800   9.369   1.468  0.4788 -0.2022  0.4716
 6128SOL    HW121915   7.735   9.409   1.527 -0.3189  0.5175 -0.8395
 6128SOL    HW221916   7.862   9.439   1.449  0.0145 -0.0375 -0.5211
 6129SOL     OW21917   3.659   3.789   9.807  0.3332 -0.0815 -0.1927
 6129SOL    HW121918   3.590   3.811   9.869  0.2771  0.6409 -0.5015
 6129SOL    HW221919   3.729   3.853   9.826  0.1568  0.3988 -1.1317
 6130SOL     OW21920   5.602   7.810   4.488 -0.1086  0.2357  0.1091
 6130SOL    HW121921   5.671   7.851   4.435  0.2753  0.1485  0.5363
 6130SOL    HW221922   5.586   7.726   4.445 -0.2416  0.4363 -0.2327
 6131SOL     OW21923   9.517   6.923   4.069  0.0692 -0.0289 -0.0561
 6131SOL    HW121924   9.525   6.911   4.163 -1.9227  0.6541  0.2559
 6131SOL    HW221925   9.582   6.989   4.046  1.2900 -0.9479  0.6206
 6132SOL     OW21926  10.760   3.778   7.583  0.1978 -0.3314 -0.2614
 6132SOL    HW121927  10.669   3.750   7.569  0.0893  0.7308 -1.8447
 6132SOL    HW221928  10.777   3.756   7.675 -2.0610  0.5238  0.4453
 6133SOL     OW21929   2.251   2.184   8.760 -0.3410  0.4277 -0.5063
 6133SOL    HW121930   2.172   2.215   8.717 -0.2181  0.7659 -0.4939
 6133SOL    HW221931   2.244   2.089   8.759  0.2025  0.3741 -2.3043
 6134SOL     OW21932   1.382   9.712   7.257 -0.3193 -0.6599 -0.7545
 6134SOL    HW121933   1.441   9.783   7.283  0.3470 -1.5087  0.1055
 6134SOL    HW221934   1.294   9.745   7.279 -0.1024  0.2590 -1.2350
 6135SOL     OW21935   0.945   1.886   6.372 -0.0309  0.3667  0.3080
 6135SOL    HW121936   1.001   1.962   6.357  1.0268 -0.1709  1.3714
 6135SOL    HW221937   0.979   1.818   6.315  1.2837 -0.3615  1.8825
 6136SOL     OW21938   0.089   6.623   2.691 -0.3028  0.6082 -0.0781
 6136SOL    HW121939   0.106   6.667   2.774  0.0420  2.2963 -0.9822
 6136SOL    HW221940   0.175   6.600   2.657 -0.3246  1.3065 -0.6431
 6137SOL     OW21941   9.261   2.313   4.267 -0.4299  0.2944 -0.6214
 6137SOL    HW121942   9.187   2.266   4.228 -0.3266 -0.7931  0.4537
 6137SOL    HW221943   9.298   2.252   4.330  0.7022  1.2453 -0.3324
 6138SOL     OW21944   5.647  10.920   9.231 -0.2250  0.2707  0.1130
 6138SOL    HW121945   5.585  10.920   9.159 -2.1461 -1.4822  1.6318
 6138SOL    HW221946   5.637  10.833   9.271  0.5028  1.2642  2.6415
 6139SOL     OW21947   4.670   2.401   6.690 -0.1489 -0.6464 -0.1066
 6139SOL    HW121948   4.747   2.439   6.649  0.5568 -0.6050  1.1800
 6139SOL    HW221949   4.622   2.475   6.726  0.2053 -0.7920  0.7031
 6140SOL     OW21950   3.130   9.083   6.574 -0.4481 -0.2741 -0.3917
 6140SOL    HW121951   3.187   9.064   6.500 -0.1492 -0.5102 -0.1023
 6140SOL    HW221952   3.156   9.021   6.641 -0.2052  0.4249  0.1759
 6141SOL     OW21953   9.349   0.274   9.372 -0.3885  0.2553 -0.2276
 6141SOL    HW121954   9.390   0.193   9.342  1.4739  1.3555 -0.7930
 6141SOL    HW221955   9.255   0.254   9.374 -0.5662 -0.5527 -4.9093
 6142SOL     OW21956   9.345   2.185   5.680  0.2410  0.2179 -0.1125
 6142SOL    HW121957   9.438   2.169   5.662  0.2905  0.5630 -0.1618
 6142SOL    HW221958   9.343   2.270   5.724 -0.1406  0.6825 -0.9893
 6143SOL     OW21959   7.948   7.200   1.190 -0.3040 -0.3922 -0.3447
 6143SOL    HW121960   8.043   7.191   1.198  0.0838  1.6187 -2.0428
 6143SOL    HW221961   7.925   7.142   1.118  0.0998  1.2208 -1.8242
 6144SOL     OW21962   3.799   5.275   6.399 -0.1218 -0.0779 -0.2783
 6144SOL    HW121963   3.751   5.278   6.482 -1.4305  0.7104 -1.0502
 6144SOL    HW221964   3.828   5.365   6.384  1.3804 -0.4762  0.0167
 6145SOL     OW21965   1.740   3.837   9.121  0.0808 -0.6711 -0.1291
 6145SOL    HW121966   1.819   3.853   9.173  0.7953 -1.1613 -1.0273
 6145SOL    HW221967   1.676   3.899   9.154  1.0529  0.1967  0.1756
 6146SOL     OW21968   5.251   9.905   6.922  0.7196  0.2662 -0.3664
 6146SOL    HW121969   5.236   9.833   6.861  2.8448 -1.0173  0.4983
 6146SOL    HW221970   5.288   9.975   6.869 -0.8494  0.5416 -1.1275
 6147SOL     OW21971   6.482   9.010   7.147  0.0293  0.1051 -0.0040
 6147SOL    HW121972   6.410   8.994   7.208 -0.3289 -0.4625 -0.5632
 6147SOL    HW221973   6.485   8.931   7.092  1.9732 -0.5321  0.8945
 6148SOL     OW21974   0.900   4.476   2.250 -0.8123  0.2584 -0.1576
 6148SOL    HW121975   0.964   4.537   2.286 -1.8343  1.7749 -0.8092
 6148SOL    HW221976   0.952   4.399   2.224  0.7185  1.3684 -0.5191
 6149SOL     OW21977  11.041   6.084   0.232 -0.2348  0.5749  0.0838
 6149SOL    HW121978  11.043   6.019   0.161 -1.4490 -1.3759  1.7346
 6149SOL    HW221979  11.071   6.165   0.190 -0.0379 -0.6781 -2.4279
 6150SOL     OW21980   3.614   7.276   6.705  0.2660  0.3752 -0.0526
 6150SOL    HW121981   3.572   7.261   6.791  0.8457  0.5973  0.2709
 6150SOL    HW221982   3.545   7.255   6.642  0.2262 -1.1311  0.4359
 6151SOL     OW21983  10.713   2.984   2.086 -0.5920  0.6783  0.3945
 6151SOL    HW121984  10.670   3.050   2.031  0.3560  0.7340 -0.3238
 6151SOL    HW221985  10.657   2.975   2.162 -2.1901  0.2988 -0.7712
 6152SOL     OW21986   4.610   3.391   7.634  0.4639 -0.6540 -0.1811
 6152SOL    HW121987   4.659   3.369   7.555 -0.4464 -0.6905 -0.7584
 6152SOL    HW221988   4.634   3.481   7.654  1.7360 -1.0833  0.3027
 6153SOL     OW21989   1.073   6.555  10.391 -0.3133 -0.1975  0.3874
 6153SOL    HW121990   1.011   6.569  10.463  0.4715 -0.4230  1.1264
 6153SOL    HW221991   1.076   6.640  10.346 -2.0628 -0.5128 -0.4222
 6154SOL     OW21992   9.155   6.991   0.674 -0.2047  0.2464  0.1258
 6154SOL    HW121993   9.238   6.998   0.720 -0.3943  0.6188  0.4192
 6154SOL    HW221994   9.176   6.949   0.591  0.0229 -1.1800  0.8659
 6155SOL     OW21995   8.932   4.620   4.740 -0.2631  0.3210  0.1415
 6155SOL    HW121996   9.006   4.677   4.760 -0.0376  0.1024 -0.0605
 6155SOL    HW221997   8.907   4.642   4.651  0.0618 -0.1476 -0.0717
 6156SOL     OW21998   0.130   4.824   8.916  0.2952 -0.1758 -0.5829
 6156SOL    HW121999   0.111   4.916   8.897 -1.6438 -0.5347 -0.5183
 6156SOL    HW222000   0.221   4.825   8.947 -0.0085  1.8670  0.4365
 6157SOL     OW22001   3.698   4.281  10.524  0.1322 -0.2010  0.4432
 6157SOL    HW122002   3.636   4.271  10.596 -0.4084 -0.2841 -0.0284
 6157SOL    HW222003   3.775   4.320  10.565  0.2297 -1.2137  1.2668
 6158SOL     OW22004   5.613   2.972   1.865  0.1132 -0.3505  0.1832
 6158SOL    HW122005   5.692   2.922   1.888  0.4592  0.3113  0.4570
 6158SOL    HW222006   5.558   2.967   1.943  1.6676  2.6545  1.6769
 6159SOL     OW22007   8.988   1.096   6.905 -0.3747 -0.0215  1.2377
 6159SOL    HW122008   8.949   1.072   6.989 -0.3039  1.4819  1.7133
 6159SOL    HW222009   8.959   1.185   6.889  0.7522  0.2052  0.3280
 6160SOL     OW22010   4.772   1.702   0.094 -0.6439  0.0490 -0.3277
 6160SOL    HW122011   4.721   1.753   0.032 -1.5938 -1.3142 -0.7187
 6160SOL    HW222012   4.814   1.634   0.041 -1.1454 -0.8819  0.4144
 6161SOL     OW22013   4.519   0.129   8.662 -0.4605 -0.1220  0.1860
 6161SOL    HW122014   4.605   0.112   8.623 -0.2194 -0.3848  0.8314
 6161SOL    HW222015   4.467   0.163   8.589  0.6833  1.6823  0.1564
 6162SOL     OW22016   6.732   4.641   2.538 -0.2802  0.1744 -0.1888
 6162SOL    HW122017   6.666   4.695   2.582 -0.2535 -0.8356  1.1480
 6162SOL    HW222018   6.713   4.552   2.566  0.9676 -0.2721 -0.6949
 6163SOL     OW22019   3.458   0.927   1.368 -0.0154  0.2650 -0.6864
 6163SOL    HW122020   3.390   0.890   1.310 -0.1723  0.0523 -0.3693
 6163SOL    HW222021   3.512   0.980   1.310 -0.4025  0.3664 -0.9623
 6164SOL     OW22022   4.078   5.217  11.045 -0.2601  0.3157 -0.4697
 6164SOL    HW122023   4.035   5.288  10.996 -1.1897  0.8449  1.0299
 6164SOL    HW222024   4.011   5.188  11.107  0.0262 -2.0554 -1.1747
 6165SOL     OW22025   0.544   0.403  11.117 -0.3746  0.2736 -0.1407
 6165SOL    HW122026   0.544   0.497  11.102 -2.1556  0.3770  0.2065
 6165SOL    HW222027   0.487   0.391  11.194 -0.1607 -1.0749 -0.1566
 6166SOL     OW22028   9.053   1.843   5.008 -0.7286  0.0211 -0.1604
 6166SOL    HW122029   9.015   1.853   4.921  0.1158 -0.1178 -0.5537
 6166SOL    HW222030   8.989   1.883   5.067 -0.8284  1.0760 -0.9528
 6167SOL     OW22031   8.626   2.344   6.360  0.2511 -0.1557 -0.2317
 6167SOL    HW122032   8.687   2.388   6.300  0.3626  0.9293  0.6663
 6167SOL    HW222033   8.645   2.251   6.348  2.2281  0.1537  0.1396
 6168SOL     OW22034   1.773   9.892   9.354 -0.2743 -0.4944 -0.3928
 6168SOL    HW122035   1.865   9.900   9.378 -0.5562 -0.8454  0.8745
 6168SOL    HW222036   1.768   9.809   9.305  0.2007 -0.0900 -1.1479
 6169SOL     OW22037   9.819   7.833  10.346  0.0605 -0.4652  0.1723
 6169SOL    HW122038   9.738   7.869  10.380 -0.3032 -0.2204 -0.9023
 6169SOL    HW222039   9.835   7.754  10.398 -0.6095 -0.2555  0.6992
 6170SOL     OW22040   5.195   7.451   9.941  0.2489 -0.6339  0.0447
 6170SOL    HW122041   5.138   7.505   9.996  1.6951 -0.0292  1.0142
 6170SOL    HW222042   5.172   7.361   9.963 -1.1445 -0.4291 -0.4774
 6171SOL     OW22043   3.871   4.209   7.117  0.0901  0.5210 -0.3351
 6171SOL    HW122044   3.914   4.214   7.032 -0.0828  1.5212 -0.3771
 6171SOL    HW222045   3.931   4.159   7.172  1.8926  2.7962 -0.0704
 6172SOL     OW22046   4.641  10.422   5.348  0.1569  0.8723 -0.4886
 6172SOL    HW122047   4.682  10.353   5.399  0.3740  1.0020 -0.4857
 6172SOL    HW222048   4.680  10.414   5.261 -0.2503  0.6200 -0.6513
 6173SOL     OW22049   1.779   7.090   0.171  0.8693 -0.1659  0.3329
 6173SOL    HW122050   1.820   7.024   0.226  0.4558 -1.2030 -0.5531
 6173SOL    HW222051   1.808   7.069   0.082 -0.5840 -0.1837 -0.1712
 6174SOL     OW22052   6.218   0.413   4.103  0.7684 -0.0078  0.3497
 6174SOL    HW122053   6.157   0.483   4.081 -0.4500 -0.6019  1.6817
 6174SOL    HW222054   6.194   0.387   4.192  4.2909  1.0883  1.7692
 6175SOL     OW22055   9.324   4.184   0.048  0.4421  0.3487  0.4769
 6175SOL    HW122056   9.392   4.176   0.114  0.0346  0.4534  0.9106
 6175SOL    HW222057   9.256   4.237   0.089 -0.9040 -1.5690  0.8663
 6176SOL     OW22058   2.710   0.159   0.682  0.0448  0.3155 -0.3862
 6176SOL    HW122059   2.745   0.107   0.610 -0.0273  1.6286 -1.4021
 6176SOL    HW222060   2.703   0.248   0.647  0.4781  1.1059  1.3877
 6177SOL     OW22061   5.751   9.668   2.258  0.2811  0.2238  0.2455
 6177SOL    HW122062   5.663   9.703   2.276  0.8123  1.4904  0.4652
 6177SOL    HW222063   5.759   9.671   2.163 -0.2471 -0.7858  0.1500
 6178SOL     OW22064   6.646   3.178   1.673 -0.1462  0.6469  0.1360
 6178SOL    HW122065   6.606   3.116   1.733 -1.0591  1.3832  0.3088
 6178SOL    HW222066   6.736   3.147   1.663 -0.4783 -0.4732  0.5068
 6179SOL     OW22067   9.799   4.544   3.445 -0.3430 -0.2170 -0.1750
 6179SOL    HW122068   9.717   4.495   3.451 -0.5517 -0.3340 -2.8113
 6179SOL    HW222069   9.777   4.631   3.476 -0.2990 -1.2689  3.2897
 6180SOL     OW22070  10.530   6.383   5.534  0.4087 -0.8538 -0.5016
 6180SOL    HW122071  10.464   6.315   5.544 -0.2169 -0.1703  0.1416
 6180SOL    HW222072  10.495   6.458   5.582  2.1912 -0.8427  0.9113
 6181SOL     OW22073   3.120   9.413   6.894 -0.7956  0.4168 -0.0779
 6181SOL    HW122074   3.113   9.444   6.984  0.5502 -1.1485  0.6289
 6181SOL    HW222075   3.176   9.477   6.850  0.3030  0.0875  0.7997
 6182SOL     OW22076   3.127   9.259   5.246 -0.5364  0.6984 -0.0527
 6182SOL    HW122077   3.143   9.327   5.181  0.2841 -0.5368 -1.2242
 6182SOL    HW222078   3.149   9.177   5.200 -0.4045 -0.2620  1.6362
 6183SOL     OW22079   6.561   2.936   9.701  0.4238 -0.2674  0.0285
 6183SOL    HW122080   6.646   2.962   9.664 -0.2572  1.1792 -0.5859
 6183SOL    HW222081   6.556   2.841   9.685  1.5641 -0.2334 -0.6646
 6184SOL     OW22082   0.968  11.090   9.584 -0.3583  0.1694 -0.8534
 6184SOL    HW122083   0.873  11.078   9.589 -0.0723 -1.8758  3.4909
 6184SOL    HW222084   0.982  11.182   9.604 -1.3729  0.4969 -1.5781
 6185SOL     OW22085   4.753   3.264  10.633  0.0062  0.2482 -0.4595
 6185SOL    HW122086   4.783   3.176  10.612 -0.3672  0.4815 -2.1782
 6185SOL    HW222087   4.796   3.285  10.716  1.5881 -0.8431 -0.9401
 6186SOL     OW22088   2.150   5.551  10.994  0.0955  0.2522  0.5241
 6186SOL    HW122089   2.155   5.623  11.058 -1.9186  0.2581  0.7415
 6186SOL    HW222090   2.056   5.533  10.986  0.4227 -0.9096 -1.1660
 6187SOL     OW22091   9.788   9.684   3.991  0.2045 -0.6225 -0.5111
 6187SOL    HW122092   9.758   9.612   3.937  1.2696 -0.6185 -1.1297
 6187SOL    HW222093   9.825   9.747   3.929  2.8869 -1.3103  0.3020
 6188SOL     OW22094   7.585  11.114   1.765  0.4394  0.0361  0.1246
 6188SOL    HW122095   7.587  11.039   1.705 -0.0137  0.4070 -0.3571
 6188SOL    HW222096   7.660  11.100   1.823  1.0202 -0.2096 -0.6703
 6189SOL     OW22097   9.201   9.234   7.239  0.5264 -0.3758  0.5902
 6189SOL    HW122098   9.140   9.282   7.182 -0.7745  1.1438  3.0473
 6189SOL    HW222099   9.285   9.241   7.196 -0.8051 -1.7890 -2.5240
 6190SOL     OW22100   3.288  10.507  11.115 -0.2613 -0.3460 -0.1360
 6190SOL    HW122101   3.304  10.589  11.162  0.1298 -0.6765  0.3207
 6190SOL    HW222102   3.376  10.471  11.101 -0.4887 -1.5385  1.2105
 6191SOL     OW22103   0.429   5.600   1.019  0.2784  0.4150  0.6153
 6191SOL    HW122104   0.360   5.537   1.041 -1.9399  2.1527 -0.8542
 6191SOL    HW222105   0.437   5.593   0.924  2.7546 -0.2621  0.8112
 6192SOL     OW22106   1.502   3.974   9.267  0.6327  0.6400 -0.3914
 6192SOL    HW122107   1.585   3.999   9.308 -0.1201  3.3710 -0.3597
 6192SOL    HW222108   1.438   4.035   9.302 -1.3752 -1.1436 -0.7116
 6193SOL     OW22109   8.394   5.809   7.504 -0.2640 -0.1174 -0.0014
 6193SOL    HW122110   8.402   5.863   7.582 -1.4023 -0.6787  0.5319
 6193SOL    HW222111   8.313   5.840   7.462 -0.5855 -0.9653 -0.0236
 6194SOL     OW22112   9.008   1.085   9.397  0.5426  0.5156  0.2599
 6194SOL    HW122113   8.929   1.131   9.367  0.3476  1.3694  1.9578
 6194SOL    HW222114   9.050   1.146   9.459  1.2088 -0.8846  1.2539
 6195SOL     OW22115   6.456   6.443   9.132  0.0478 -0.0517 -0.2523
 6195SOL    HW122116   6.399   6.463   9.057 -0.5206  0.3194  0.2679
 6195SOL    HW222117   6.442   6.350   9.148  0.7486 -0.3120 -1.0732
 6196SOL     OW22118   5.439   9.930   7.133 -0.1607  0.0547 -0.1093
 6196SOL    HW122119   5.382   9.901   7.061 -1.1732 -0.5026  0.8932
 6196SOL    HW222120   5.476   9.849   7.168  0.1513  0.3059  0.1522
 6197SOL     OW22121   0.250   4.188   3.652 -0.0846  0.2440  0.0822
 6197SOL    HW122122   0.252   4.097   3.621  0.0500  0.2160  0.1699
 6197SOL    HW222123   0.222   4.239   3.576 -0.6447  0.0719  0.1747
 6198SOL     OW22124   6.178   4.491   8.768  0.9091  0.0267 -0.3369
 6198SOL    HW122125   6.210   4.426   8.831 -0.0073  0.3392  0.4746
 6198SOL    HW222126   6.166   4.441   8.687 -0.2119 -0.9493  0.3906
 6199SOL     OW22127   4.152   5.070   7.761  0.6100  0.3389  0.2264
 6199SOL    HW122128   4.172   5.146   7.815 -0.8744  0.4753  0.6439
 6199SOL    HW222129   4.232   5.054   7.711  1.4481  1.2502  1.2210
 6200SOL     OW22130  11.056   3.236   7.163 -0.4581  0.4731  0.0457
 6200SOL    HW122131  11.116   3.274   7.099  0.4727 -1.1151 -0.0743
 6200SOL    HW222132  11.094   3.259   7.248 -0.9265  1.3747  0.0222
 6201SOL     OW22133   6.889   9.260  11.084  0.0370 -0.0006 -0.6464
 6201SOL    HW122134   6.929   9.334  11.039 -0.0073  0.2950 -0.1950
 6201SOL    HW222135   6.957   9.192  11.083  0.6598  0.5915  0.3527
 6202SOL     OW22136   4.063   0.603   2.734 -0.0733 -0.0642  0.4494
 6202SOL    HW122137   4.036   0.552   2.658  0.7524 -0.4703  0.4121
 6202SOL    HW222138   3.981   0.631   2.775 -0.5303 -0.5328 -0.1275
 6203SOL     OW22139   9.191   2.098   3.431  0.3197  0.4170  0.0262
 6203SOL    HW122140   9.152   2.099   3.344 -3.5489  1.8382  1.5903
 6203SOL    HW222141   9.140   2.033   3.480  0.6525  1.4949  1.9022
 6204SOL     OW22142   5.011  10.401   1.820  0.0117 -0.1343 -0.0106
 6204SOL    HW122143   4.921  10.374   1.804  0.1592 -0.9555  0.5138
 6204SOL    HW222144   5.059  10.373   1.741  0.1890 -1.5679  0.5797
 6205SOL     OW22145   2.026   9.797   1.750  0.6712  0.3329 -0.2957
 6205SOL    HW122146   1.938   9.834   1.759 -0.1328 -1.2735 -1.1412
 6205SOL    HW222147   2.030   9.728   1.816  0.4649 -1.0315 -1.6498
 6206SOL     OW22148   1.397   9.327   1.062 -0.3621 -0.7358 -0.1429
 6206SOL    HW122149   1.464   9.300   0.999 -0.0074  2.1266 -1.1699
 6206SOL    HW222150   1.446   9.369   1.133 -0.9189 -1.4186  0.6530
 6207SOL     OW22151   2.151   3.030  10.064 -0.1337 -0.1318  0.2562
 6207SOL    HW122152   2.122   3.093  10.130 -1.2035 -1.3791  1.0319
 6207SOL    HW222153   2.079   2.967  10.057  0.2385 -0.4252 -1.6228
 6208SOL     OW22154   3.187  10.863  10.472  0.3398  0.0639 -0.1994
 6208SOL    HW122155   3.158  10.824  10.555 -2.5457  0.4383 -0.9055
 6208SOL    HW222156   3.214  10.788  10.419 -0.2741 -0.4575  0.2057
 6209SOL     OW22157   9.514   5.763   4.223 -0.5423  0.2036  0.1611
 6209SOL    HW122158   9.524   5.729   4.134  0.8153  2.6441 -0.7164
 6209SOL    HW222159   9.604   5.777   4.253 -0.9876  1.7831  0.8893
 6210SOL     OW22160   4.208   8.987   6.198  0.3541  0.1788  0.5945
 6210SOL    HW122161   4.303   8.986   6.202  0.3954 -1.9404  0.3497
 6210SOL    HW222162   4.186   8.935   6.121 -0.9737 -2.1106  2.3663
 6211SOL     OW22163   7.178   1.753   3.699 -0.1436  0.1103 -0.0943
 6211SOL    HW122164   7.145   1.706   3.623  1.0814 -1.2931  0.2092
 6211SOL    HW222165   7.131   1.714   3.773 -0.1502  0.3534  0.0295
 6212SOL     OW22166   0.509   5.196   3.938 -0.1785 -0.4820 -0.8124
 6212SOL    HW122167   0.451   5.246   3.882 -0.9304  0.8773  1.0706
 6212SOL    HW222168   0.597   5.229   3.918 -0.6703  1.8372  0.5152
 6213SOL     OW22169   3.822   0.759  10.960 -0.6207 -0.5369 -0.0303
 6213SOL    HW122170   3.788   0.752  10.871 -1.1796 -2.5268  0.3016
 6213SOL    HW222171   3.769   0.828  11.001 -0.6108  0.1252 -1.0986
 6214SOL     OW22172   1.244   2.353   8.284 -0.1885 -0.4044 -0.6516
 6214SOL    HW122173   1.265   2.285   8.348 -1.1931  0.2708  0.4361
 6214SOL    HW222174   1.273   2.317   8.201  2.5292 -0.7263  0.3211
 6215SOL     OW22175   1.736   2.518   5.002 -0.1825  0.1623  0.7538
 6215SOL    HW122176   1.813   2.564   5.035 -0.0929  0.4660  0.1447
 6215SOL    HW222177   1.685   2.497   5.080 -1.5066  3.5110  0.9661
 6216SOL     OW22178   9.043   5.852   7.189 -0.3472 -0.1693 -0.3795
 6216SOL    HW122179   9.124   5.854   7.138  0.5104 -0.8521  0.9136
 6216SOL    HW222180   8.974   5.837   7.124  0.5257  0.5484 -1.5182
 6217SOL     OW22181   0.430   3.734   8.116  0.2119  0.3942 -0.0673
 6217SOL    HW122182   0.418   3.691   8.201 -0.6705 -1.3368 -1.0166
 6217SOL    HW222183   0.512   3.697   8.082  0.2777  0.6660 -0.2045
 6218SOL     OW22184   3.293  10.887   3.936 -0.6624  0.0633 -0.3699
 6218SOL    HW122185   3.199  10.886   3.954 -0.3766  2.1032  1.7356
 6218SOL    HW222186   3.334  10.882   4.022  1.1599 -0.1859 -1.2077
 6219SOL     OW22187   9.796   9.197   6.119 -0.2232 -1.0960 -0.2683
 6219SOL    HW122188   9.805   9.250   6.040  0.0813 -0.8826 -0.0960
 6219SOL    HW222189   9.859   9.235   6.180 -0.7591 -0.9781  0.2283
 6220SOL     OW22190   7.736   6.844   3.399  0.6792  0.0817  0.1967
 6220SOL    HW122191   7.816   6.890   3.373 -0.8612  1.8717 -1.6149
 6220SOL    HW222192   7.731   6.858   3.494  0.5991  3.2844 -0.1624
 6221SOL     OW22193   8.759   6.780   5.802  0.1604 -0.1663 -0.0632
 6221SOL    HW122194   8.736   6.750   5.890  1.7542  0.6789  0.6743
 6221SOL    HW222195   8.838   6.732   5.780  0.5384  0.6103 -0.4577
 6222SOL     OW22196   2.850  10.447   3.718 -0.9727  0.5158  0.4332
 6222SOL    HW122197   2.779  10.501   3.753  1.2064  3.2843  0.9529
 6222SOL    HW222198   2.924  10.465   3.776  0.9610  0.0707 -1.7481
 6223SOL     OW22199   1.531   7.270   9.391  0.1144  0.3074  0.3441
 6223SOL    HW122200   1.576   7.265   9.306  2.2804 -0.2053  1.4692
 6223SOL    HW222201   1.477   7.349   9.384  3.7815  3.0462  0.0508
 6224SOL     OW22202   0.769   8.066   1.552  0.2335  0.1466  0.4162
 6224SOL    HW122203   0.716   8.077   1.473  0.4987 -2.3551 -0.2042
 6224SOL    HW222204   0.774   8.153   1.590 -5.2963  0.4911  1.1654
 6225SOL     OW22205   2.916   4.260   1.466 -0.5022  0.5629 -0.2229
 6225SOL    HW122206   2.908   4.339   1.519 -0.9988  0.2395  0.1895
 6225SOL    HW222207   2.924   4.189   1.530  0.5876  0.3320 -0.5900
 6226SOL     OW22208   6.404   6.963   8.862 -0.1212 -0.0129  0.2835
 6226SOL    HW122209   6.363   6.885   8.900  2.6626 -2.4985 -1.4389
 6226SOL    HW222210   6.483   6.977   8.916  0.1345  0.7651 -0.2742
 6227SOL     OW22211   6.598   0.674   5.015 -0.3925  0.0058  0.3590
 6227SOL    HW122212   6.605   0.758   5.061  0.8059 -0.3055  0.7894
 6227SOL    HW222213   6.688   0.642   5.011 -0.5353 -0.2629 -1.7154
 6228SOL     OW22214   0.139  11.110   9.355  0.0971 -0.0520  0.5516
 6228SOL    HW122215   0.178  11.082   9.272 -0.4051 -1.2722  0.7020
 6228SOL    HW222216   0.212  11.147   9.404  0.4319  0.5298 -0.3703
 6229SOL     OW22217   5.579   6.401   3.436 -0.3146 -0.6189 -0.0578
 6229SOL    HW122218   5.548   6.414   3.525  1.4258  0.4766  0.4440
 6229SOL    HW222219   5.674   6.396   3.444 -0.1875 -1.9985 -1.6993
 6230SOL     OW22220   7.334   0.667   5.382 -0.2257  0.3701  0.2217
 6230SOL    HW122221   7.330   0.581   5.423 -0.2463 -0.0264 -0.5906
 6230SOL    HW222222   7.270   0.663   5.311  0.9877  0.4464 -0.9279
 6231SOL     OW22223   6.433   3.342   1.528  0.3443 -0.1352 -0.3103
 6231SOL    HW122224   6.493   3.326   1.601 -1.3519 -0.7500  1.0378
 6231SOL    HW222225   6.346   3.340   1.568 -0.6373 -0.0478 -2.2964
 6232SOL     OW22226   6.680  11.022  10.769 -0.0079 -0.3213 -0.4870
 6232SOL    HW122227   6.689  11.113  10.740 -0.9627 -0.2105 -0.4871
 6232SOL    HW222228   6.586  11.013  10.788  0.2321 -1.0278  0.4297
 6233SOL     OW22229  11.062   4.156  10.367 -0.3474 -0.1249 -0.2259
 6233SOL    HW122230  11.071   4.164  10.462 -1.6458  1.5845 -0.1871
 6233SOL    HW222231  11.064   4.062  10.350  0.7878 -0.4198  1.3860
 6234SOL     OW22232   7.349   5.382   8.028  0.6089 -0.0577 -0.5487
 6234SOL    HW122233   7.317   5.309   7.974 -1.3616  0.3232  0.0069
 6234SOL    HW222234   7.351   5.457   7.968  1.0251 -0.2204 -0.7335
 6235SOL     OW22235   7.823  10.711   3.982 -0.2487 -0.4935  0.2855
 6235SOL    HW122236   7.802  10.803   3.993 -1.2694 -0.8129  1.0840
 6235SOL    HW222237   7.870  10.707   3.898  0.8553  0.8959  0.8072
 6236SOL     OW22238   6.383  10.684   3.109  0.3824 -0.0602  0.1525
 6236SOL    HW122239   6.356  10.594   3.126  1.9695 -0.3212  1.6110
 6236SOL    HW222240   6.335  10.736   3.174  1.4740 -0.2260  1.1261
 6237SOL     OW22241  10.888   0.836   4.815 -0.1800  0.1915  0.5942
 6237SOL    HW122242  10.933   0.788   4.885  0.2388 -0.5249 -0.1447
 6237SOL    HW222243  10.912   0.789   4.735 -0.5302  1.0854 -0.0485
 6238SOL     OW22244   4.770   3.564   4.381  0.2363  0.2172 -0.0684
 6238SOL    HW122245   4.698   3.605   4.428  0.4244  1.2049 -0.6208
 6238SOL    HW222246   4.800   3.630   4.319  1.4468 -0.2660 -0.0369
 6239SOL     OW22247   1.932   7.441   0.591 -0.5531 -0.0200  0.0712
 6239SOL    HW122248   1.904   7.394   0.513  0.1698  0.7167 -0.6559
 6239SOL    HW222249   1.852   7.456   0.641 -1.2947  0.9132 -1.3180
 6240SOL     OW22250   4.914   0.835   0.970 -0.3945 -0.0833 -0.1401
 6240SOL    HW122251   4.993   0.880   0.939 -0.1478 -0.3228  0.1423
 6240SOL    HW222252   4.869   0.901   1.022 -0.0230 -0.1645  0.2887
 6241SOL     OW22253   1.023   1.033   6.567  0.1367  0.1813 -0.5695
 6241SOL    HW122254   1.069   0.956   6.599  0.2780 -0.3336 -1.9496
 6241SOL    HW222255   1.053   1.104   6.624 -1.3537 -1.0512  1.8899
 6242SOL     OW22256  10.624   2.105   0.519 -0.1888 -0.3036 -0.5452
 6242SOL    HW122257  10.716   2.078   0.529 -0.0927 -0.1837 -1.0800
 6242SOL    HW222258  10.607   2.161   0.595  0.3243  0.0603 -0.6951
 6243SOL     OW22259   5.104   5.608   4.869 -0.2924 -0.0100 -0.5318
 6243SOL    HW122260   5.123   5.521   4.836  1.7685 -0.6974  2.0624
 6243SOL    HW222261   5.018   5.601   4.911 -0.2406 -0.7405 -0.5509
 6244SOL     OW22262   0.031   5.212   3.988 -0.0740 -0.0113 -0.7680
 6244SOL    HW122263  -0.005   5.278   3.928 -2.5140  0.4475  1.0175
 6244SOL    HW222264   0.068   5.263   4.060  3.0612 -0.5460 -1.8414
 6245SOL     OW22265   8.567  10.847   2.403  0.0099 -0.1689  0.1122
 6245SOL    HW122266   8.485  10.880   2.440 -0.1517  0.1332 -0.4976
 6245SOL    HW222267   8.540  10.776   2.344  0.2360 -0.4397  0.3328
 6246SOL     OW22268   9.223   9.835   0.270  0.1293 -0.6758 -0.1328
 6246SOL    HW122269   9.249   9.926   0.281  0.0257 -0.7740  0.9608
 6246SOL    HW222270   9.232   9.819   0.176  0.0876  0.4762 -0.3449
 6247SOL     OW22271   1.315   8.489   7.035 -0.1741  0.6116 -0.6682
 6247SOL    HW122272   1.345   8.398   7.034  0.7555  0.9108 -0.7963
 6247SOL    HW222273   1.256   8.494   7.110 -0.2790 -0.1130 -0.6965
 6248SOL     OW22274   4.290   1.132   7.988  0.1848  0.3168  0.1833
 6248SOL    HW122275   4.237   1.052   7.986  1.8911 -0.8909  0.9559
 6248SOL    HW222276   4.226   1.203   7.988 -1.4100 -0.9352 -2.7392
 6249SOL     OW22277   6.727   7.270   7.139 -0.0489 -0.8943  0.2108
 6249SOL    HW122278   6.710   7.274   7.045  1.4502  1.7065 -0.0457
 6249SOL    HW222279   6.806   7.216   7.147  0.3352 -0.3945 -0.1366
 6250SOL     OW22280   3.996   0.319  10.412  0.0640  0.0904  0.1383
 6250SOL    HW122281   3.930   0.371  10.457 -0.2493 -0.9618  0.9378
 6250SOL    HW222282   3.954   0.293  10.330 -0.6271 -0.7877  0.7555
 6251SOL     OW22283   9.166   7.457   2.003  0.0469  0.0351 -0.2394
 6251SOL    HW122284   9.233   7.526   2.009 -0.9809  1.0315 -0.0019
 6251SOL    HW222285   9.217   7.377   1.990  1.3119  0.7258  0.2036
 6252SOL     OW22286   3.470   9.705   7.552 -0.5294  0.2478 -0.2896
 6252SOL    HW122287   3.557   9.684   7.516 -1.2616 -4.2684 -0.0475
 6252SOL    HW222288   3.416   9.723   7.476 -0.3713 -1.8144 -0.9600
 6253SOL     OW22289   6.486   6.719   5.474  0.1042 -0.0968 -0.4290
 6253SOL    HW122290   6.400   6.702   5.435  0.2976  1.8100 -1.8440
 6253SOL    HW222291   6.542   6.743   5.401  1.0058  1.7526  0.7701
 6254SOL     OW22292   4.256   2.433   9.440 -0.6416 -0.4084 -0.3493
 6254SOL    HW122293   4.235   2.471   9.354 -2.3897 -0.7728 -0.1139
 6254SOL    HW222294   4.337   2.476   9.466  1.1745 -1.8259 -3.1398
 6255SOL     OW22295   0.903   3.541   0.493  0.1998  0.4020 -0.4612
 6255SOL    HW122296   0.841   3.497   0.434 -0.6481 -0.1607  0.8166
 6255SOL    HW222297   0.938   3.613   0.440 -0.3126 -0.2486 -1.7493
 6256SOL     OW22298   7.009   7.308   2.826  0.9667 -0.0590  0.2104
 6256SOL    HW122299   6.931   7.336   2.778  0.1740  0.0505  1.5171
 6256SOL    HW222300   7.068   7.382   2.820 -0.0099  0.8449  1.2486
 6257SOL     OW22301  11.056   3.406   2.043  0.1200 -0.3404 -0.0040
 6257SOL    HW122302  11.121   3.336   2.050 -0.0104 -0.4972 -0.3222
 6257SOL    HW222303  11.020   3.395   1.955 -1.1227 -0.9303  0.5513
 6258SOL     OW22304   7.780   2.581   0.637 -0.2231  0.2155  0.1546
 6258SOL    HW122305   7.702   2.579   0.581  0.0482  0.6474 -0.2474
 6258SOL    HW222306   7.765   2.656   0.695  0.5348  1.2034 -0.8848
 6259SOL     OW22307   7.434   6.596   9.656 -0.3814  0.8457  0.1748
 6259SOL    HW122308   7.398   6.511   9.681 -1.3571  1.6921  1.8839
 6259SOL    HW222309   7.433   6.596   9.560 -0.0548 -1.1653  0.1337
 6260SOL     OW22310   8.419   6.288   4.586 -0.3505  0.3765 -0.2380
 6260SOL    HW122311   8.324   6.301   4.583 -0.5380 -0.3190  1.5134
 6260SOL    HW222312   8.432   6.201   4.549 -0.2779  0.8297 -1.3183
 6261SOL     OW22313   8.185  10.438  10.944  0.6262 -0.0023 -0.2304
 6261SOL    HW122314   8.166  10.444  11.038  0.7373  1.3638 -0.2764
 6261SOL    HW222315   8.280  10.429  10.939  0.7408  1.0749 -0.2300
 6262SOL     OW22316   9.917   6.248   2.074  0.3910  0.3441  0.1737
 6262SOL    HW122317   9.965   6.324   2.109 -0.8229  0.7984  0.9057
 6262SOL    HW222318   9.831   6.253   2.116  0.6251 -2.0546  1.0925
 6263SOL     OW22319   1.366   2.195   2.232 -0.0520  0.1856  0.0803
 6263SOL    HW122320   1.300   2.242   2.283 -0.1581 -0.1494  0.2584
 6263SOL    HW222321   1.447   2.208   2.281 -0.3642 -1.1005  0.9829
 6264SOL     OW22322   8.738   1.217   8.506  0.0830 -0.2451  0.3932
 6264SOL    HW122323   8.647   1.210   8.535  0.1591  0.7416  0.9409
 6264SOL    HW222324   8.785   1.149   8.554 -0.9414 -3.5083 -2.7519
 6265SOL     OW22325   1.587   2.145   6.567  0.1359  0.5217 -0.2960
 6265SOL    HW122326   1.569   2.052   6.557 -1.5998  0.7876 -0.1246
 6265SOL    HW222327   1.622   2.172   6.482 -0.2584 -0.1182 -0.6723
 6266SOL     OW22328   6.688   1.193   8.077  0.2246  0.4033 -0.0545
 6266SOL    HW122329   6.749   1.258   8.041  1.0173 -0.5936 -0.5592
 6266SOL    HW222330   6.603   1.217   8.040  0.8395  0.0126 -1.8515
 6267SOL     OW22331   8.635   5.872   9.933 -0.3398  0.4407  0.1688
 6267SOL    HW122332   8.681   5.841   9.855 -0.5943 -1.0732  0.5815
 6267SOL    HW222333   8.547   5.892   9.902 -1.2457 -2.6261  0.4493
 6268SOL     OW22334   4.496  10.604   1.542  0.1522 -0.2596  0.5630
 6268SOL    HW122335   4.539  10.687   1.522 -1.9131  0.9911  1.0443
 6268SOL    HW222336   4.403  10.621   1.527 -0.4030 -2.2845  1.3983
 6269SOL     OW22337  10.471  10.327  11.047 -0.0030 -1.2997  0.2138
 6269SOL    HW122338  10.509  10.268  11.112  0.5844 -0.2823  0.8264
 6269SOL    HW222339  10.399  10.371  11.093  1.2594  0.4173  0.6570
 6270SOL     OW22340   3.841   8.350   0.568  0.0265 -0.3749 -0.5146
 6270SOL    HW122341   3.812   8.287   0.634 -1.5600  0.7989 -0.0261
 6270SOL    HW222342   3.809   8.434   0.600 -0.0605  0.3423 -2.3773
 6271SOL     OW22343   2.668  10.283   9.258 -0.0441 -0.7297  0.1276
 6271SOL    HW122344   2.587  10.258   9.303  0.0895 -0.8882  0.2833
 6271SOL    HW222345   2.641  10.304   9.169 -0.5144  0.8662  0.6147
 6272SOL     OW22346   9.930   7.762   2.320 -0.2470 -0.3940 -0.0949
 6272SOL    HW122347   9.835   7.772   2.310 -0.4390  0.7538  2.2158
 6272SOL    HW222348   9.940   7.704   2.396  0.8477  0.9521  0.8447
 6273SOL     OW22349   7.149   7.714   1.536  0.3375  0.3066 -0.7396
 6273SOL    HW122350   7.078   7.771   1.506  0.1432 -0.1751 -1.2068
 6273SOL    HW222351   7.212   7.774   1.577 -1.2251  0.5681  1.5055
 6274SOL     OW22352   6.202   3.783   9.005  0.1459  0.7325 -0.1322
 6274SOL    HW122353   6.189   3.875   9.028 -0.9060  0.6349 -0.3035
 6274SOL    HW222354   6.235   3.784   8.916  1.8067  1.0045  0.4542
 6275SOL     OW22355   8.471   3.152   0.027  0.0691  0.1751 -0.0825
 6275SOL    HW122356   8.524   3.166   0.106  0.1580 -1.0746  0.0909
 6275SOL    HW222357   8.386   3.124   0.061  0.7759 -2.6858 -0.3991
 6276SOL     OW22358   1.878   6.293   5.525  0.4680  0.3577  0.3109
 6276SOL    HW122359   1.908   6.204   5.505  0.8645  0.9243 -1.8003
 6276SOL    HW222360   1.922   6.315   5.607  0.6928 -1.2147  0.6513
 6277SOL     OW22361   4.390   8.688   9.111 -0.1509  0.4853  0.4068
 6277SOL    HW122362   4.405   8.770   9.065  0.5075  0.4967  0.6308
 6277SOL    HW222363   4.469   8.636   9.095 -0.8600 -0.4052 -0.3515
 6278SOL     OW22364   5.653   3.432   3.110  0.2069 -1.0001  0.0667
 6278SOL    HW122365   5.561   3.418   3.086  0.5468 -0.6193 -1.5824
 6278SOL    HW222366   5.685   3.344   3.132 -0.9081 -0.9341  2.1384
 6279SOL     OW22367   1.379   0.972   7.242  0.3123 -0.3981  0.3901
 6279SOL    HW122368   1.338   0.969   7.329  0.5426 -0.8142  0.4861
 6279SOL    HW222369   1.387   0.881   7.216  0.5694 -0.2884  0.0823
 6280SOL     OW22370   3.884   8.858  10.918 -0.1874  0.2047 -0.1412
 6280SOL    HW122371   3.891   8.952  10.934  0.3219  0.7623 -3.0643
 6280SOL    HW222372   3.972   8.824  10.937  0.4085  0.8412 -1.5858
 6281SOL     OW22373   1.406   5.482  10.060 -1.1265 -0.0300  0.0062
 6281SOL    HW122374   1.354   5.467  10.139 -1.7842 -0.9883 -0.5951
 6281SOL    HW222375   1.357   5.440   9.990 -0.3779  0.5056 -0.8646
 6282SOL     OW22376   9.708   8.748   2.377 -0.5150 -0.3942  0.2227
 6282SOL    HW122377   9.724   8.745   2.472  0.1637 -1.0421  0.0997
 6282SOL    HW222378   9.613   8.757   2.369 -0.5934 -0.4457  0.9683
 6283SOL     OW22379   8.256   5.977  10.965  0.1726  0.5688  0.3985
 6283SOL    HW122380   8.285   5.972  10.874  1.9502 -0.3189  0.9713
 6283SOL    HW222381   8.186   5.912  10.971  0.3107  0.3536 -0.2349
 6284SOL     OW22382  10.395   6.962  10.984  0.0618 -0.0585  0.1399
 6284SOL    HW122383  10.470   7.009  11.020 -2.6406  3.0615  2.1822
 6284SOL    HW222384  10.389   6.882  11.037  1.3923  0.0420  0.4789
 6285SOL     OW22385   2.203   3.918   5.528  0.4609 -0.6194 -0.2533
 6285SOL    HW122386   2.241   3.850   5.583  0.5139  0.1987  0.7634
 6285SOL    HW222387   2.266   3.930   5.457  0.8312 -1.0815 -0.0062
 6286SOL     OW22388   7.618   6.295   4.698 -0.3835  0.1969  0.0110
 6286SOL    HW122389   7.624   6.372   4.641 -0.5423 -0.3203 -0.7320
 6286SOL    HW222390   7.551   6.240   4.656 -0.3431 -0.2984  0.5845
 6287SOL     OW22391   2.541  10.897  10.386  1.0273  0.2032 -0.0639
 6287SOL    HW122392   2.480  10.951  10.435  1.2924  0.3869  0.0626
 6287SOL    HW222393   2.545  10.814  10.434  0.6726  0.0893 -0.2216
 6288SOL     OW22394   2.064  10.579   9.761  0.4959 -0.4897 -0.0542
 6288SOL    HW122395   2.027  10.492   9.773 -1.4503  0.2116 -0.4399
 6288SOL    HW222396   1.988  10.638   9.766  1.8531  1.2798  1.1672
 6289SOL     OW22397   2.588   1.653   5.176  0.3741  0.4008 -0.1224
 6289SOL    HW122398   2.607   1.582   5.115  0.6373 -2.0698  2.6262
 6289SOL    HW222399   2.498   1.638   5.203  0.8591  0.2361  1.5094
 6290SOL     OW22400   5.423   0.070   9.106 -0.0031  0.0485  0.2755
 6290SOL    HW122401   5.485   0.064   9.034  0.3885 -1.7750  0.7018
 6290SOL    HW222402   5.472   0.111   9.177  0.7212 -1.2707  0.5715
 6291SOL     OW22403   8.967  10.480   9.854  0.3562 -0.2069  0.1166
 6291SOL    HW122404   9.021  10.480   9.933 -0.6927 -0.6473  0.8622
 6291SOL    HW222405   8.980  10.567   9.816  0.6210  0.1289  0.9538
 6292SOL     OW22406  10.125   2.120  10.094  0.2550 -0.1406  0.0395
 6292SOL    HW122407  10.146   2.210  10.121 -1.5033 -0.3233  2.3239
 6292SOL    HW222408  10.173   2.108  10.012  2.6385  1.9734  0.9795
 6293SOL     OW22409   0.998   6.895   7.051 -0.1737 -0.1729 -0.3430
 6293SOL    HW122410   0.941   6.941   7.113 -0.6707 -1.1305 -0.0745
 6293SOL    HW222411   0.957   6.810   7.039  1.3132 -0.9642 -0.0034
 6294SOL     OW22412   5.000   5.078   8.980 -0.0692  0.6240  0.4096
 6294SOL    HW122413   4.906   5.063   8.985 -0.5102  2.0393 -1.8655
 6294SOL    HW222414   5.012   5.168   9.009  0.6615  0.3215  1.0865
 6295SOL     OW22415   4.209   4.154   0.508 -0.3382 -0.4100  0.3458
 6295SOL    HW122416   4.183   4.238   0.469 -0.3301 -0.7243 -0.3328
 6295SOL    HW222417   4.141   4.137   0.573 -1.7115 -1.0592 -1.1832
 6296SOL     OW22418   7.170   9.130   8.722  0.1248 -0.0768 -0.3620
 6296SOL    HW122419   7.179   9.225   8.718 -0.3216 -0.0240 -0.1777
 6296SOL    HW222420   7.175   9.101   8.631 -2.0486  0.3498 -0.6808
 6297SOL     OW22421   4.496   2.449   8.060  0.1998  0.6662  0.4026
 6297SOL    HW122422   4.482   2.422   7.969  2.2643  0.6612  0.0310
 6297SOL    HW222423   4.486   2.544   8.059 -0.4531  0.6019  0.3277
 6298SOL     OW22424   3.136   9.682   8.635  0.0064 -0.1663  0.1358
 6298SOL    HW122425   3.042   9.699   8.642  0.0377 -0.6063  2.6805
 6298SOL    HW222426   3.168   9.690   8.725  2.7593  1.8556 -0.8893
 6299SOL     OW22427   9.677   8.236   8.316  0.0464 -0.0140  0.0310
 6299SOL    HW122428   9.690   8.253   8.410  2.5715 -0.0594 -0.2269
 6299SOL    HW222429   9.668   8.141   8.309  1.0498 -0.1358  0.1655
 6300SOL     OW22430   2.809   8.685   3.319  0.2423  1.0354  0.5278
 6300SOL    HW122431   2.884   8.649   3.366  0.0277  0.0966  0.1719
 6300SOL    HW222432   2.759   8.732   3.386  1.2949  1.9619  0.7104
 6301SOL     OW22433   0.650   1.259   2.029 -0.5033  0.4260  0.2142
 6301SOL    HW122434   0.564   1.302   2.031 -0.1201  1.2041  0.1889
 6301SOL    HW222435   0.712   1.329   2.009  0.0757 -0.2470 -0.4201
 6302SOL     OW22436   2.520   7.478   1.992 -0.3425 -0.0560 -0.2072
 6302SOL    HW122437   2.522   7.383   2.002  0.0624 -0.1956 -1.4028
 6302SOL    HW222438   2.560   7.494   1.906 -0.5314  1.1829 -0.0878
 6303SOL     OW22439   8.187   3.000   6.008  0.2788 -0.2315  0.4543
 6303SOL    HW122440   8.126   3.025   5.938  1.0320 -0.8310 -0.4408
 6303SOL    HW222441   8.190   3.076   6.065  1.3668  1.2031 -1.3866
 6304SOL     OW22442   1.654   0.658   3.611 -0.1023 -0.0512 -0.1939
 6304SOL    HW122443   1.728   0.693   3.660  0.6322  0.1899 -1.4348
 6304SOL    HW222444   1.632   0.726   3.548  1.2507 -1.6566 -2.5402
 6305SOL     OW22445   5.644   4.569   4.146  0.5237  0.4806  0.2729
 6305SOL    HW122446   5.649   4.550   4.240  0.9664 -2.3030 -0.2253
 6305SOL    HW222447   5.713   4.634   4.131  1.3116 -0.0039  1.6628
 6306SOL     OW22448   2.548   7.178   3.827 -0.3096  0.2494  0.5241
 6306SOL    HW122449   2.518   7.177   3.736  0.7459  1.7986  0.1180
 6306SOL    HW222450   2.476   7.219   3.875  0.4959  2.7148 -0.2305
 6307SOL     OW22451   1.703   4.636   8.912 -0.3566 -0.2639  0.2012
 6307SOL    HW122452   1.687   4.590   8.993 -0.8200 -1.2229 -0.4229
 6307SOL    HW222453   1.681   4.728   8.931 -0.5949 -0.5061  1.1043
 6308SOL     OW22454   7.273   7.869   6.964  0.0734  0.7807  0.5055
 6308SOL    HW122455   7.209   7.800   6.979 -0.2771  1.1273  0.6219
 6308SOL    HW222456   7.355   7.834   6.999  0.5180 -0.6105 -1.7168
 6309SOL     OW22457   7.872   6.534   2.081  0.3748 -0.1150 -0.7622
 6309SOL    HW122458   7.963   6.555   2.058  0.9947  1.6988  2.6581
 6309SOL    HW222459   7.820   6.597   2.032  1.2719  1.0226 -0.3035
 6310SOL     OW22460   4.029   2.617   3.161  0.0316  0.1602  0.4300
 6310SOL    HW122461   4.020   2.666   3.079 -1.1230 -1.7178 -0.6400
 6310SOL    HW222462   3.940   2.605   3.193  0.1447 -2.0127  0.1132
 6311SOL     OW22463   4.706   6.654   8.450  0.0239 -0.0858 -0.2282
 6311SOL    HW122464   4.768   6.721   8.422 -1.1365  0.6178 -1.2067
 6311SOL    HW222465   4.761   6.578   8.471  1.2415  0.6494 -0.6307
 6312SOL     OW22466   4.635   6.001   0.993 -0.4024 -0.0667 -0.7204
 6312SOL    HW122467   4.608   5.984   0.903  0.4582 -0.6902 -0.8744
 6312SOL    HW222468   4.717   5.952   1.003 -0.2499  0.3661  0.2581
 6313SOL     OW22469   3.345   3.313   5.340  0.2131  0.0136 -0.9233
 6313SOL    HW122470   3.266   3.324   5.287 -0.2188 -1.3545 -0.6191
 6313SOL    HW222471   3.416   3.315   5.276 -0.1972 -0.2711 -1.4093
 6314SOL     OW22472   4.401   9.816   0.153 -0.8254  0.1120 -0.0273
 6314SOL    HW122473   4.343   9.791   0.225 -1.3700 -1.4765 -0.9773
 6314SOL    HW222474   4.477   9.856   0.196 -1.3970 -0.2703  1.3808
 6315SOL     OW22475   4.849   0.810   6.684  0.1734  0.5845 -0.8686
 6315SOL    HW122476   4.944   0.815   6.694  0.2244  0.2859 -1.2012
 6315SOL    HW222477   4.825   0.889   6.637  0.2105  0.8487 -0.4483
 6316SOL     OW22478   6.010   3.670   1.871  0.2746 -0.9361  0.1716
 6316SOL    HW122479   6.090   3.699   1.826  0.2555 -1.1547 -0.0081
 6316SOL    HW222480   6.039   3.597   1.926  0.2185 -0.9515  0.1803
 6317SOL     OW22481   3.137  11.111   1.138  0.6632 -0.3296  0.1374
 6317SOL    HW122482   3.051  11.073   1.121  1.0090 -0.6262 -0.9790
 6317SOL    HW222483   3.118  11.199   1.171 -0.0653 -0.5052  0.1961
 6318SOL     OW22484   1.137   2.369   5.208 -0.0097  0.3733 -0.0769
 6318SOL    HW122485   1.110   2.378   5.117  0.6190  0.5033 -0.2580
 6318SOL    HW222486   1.059   2.337   5.253 -0.4340  0.6564 -0.5905
 6319SOL     OW22487   2.851   2.431   9.041  0.6377 -0.0285 -0.2895
 6319SOL    HW122488   2.759   2.416   9.060  1.0739 -1.7650  0.5597
 6319SOL    HW222489   2.883   2.481   9.116  0.6042 -0.2107 -0.1554
 6320SOL     OW22490  10.267  10.957   7.521 -0.0861  0.4104  0.1845
 6320SOL    HW122491  10.326  10.993   7.587  1.4301 -0.4652 -0.6383
 6320SOL    HW222492  10.310  10.878   7.490 -1.9091 -0.4988 -0.1813
 6321SOL     OW22493   8.748   3.647   2.477 -0.0717 -0.5367 -0.3489
 6321SOL    HW122494   8.714   3.730   2.444  1.1445 -0.9820 -2.9668
 6321SOL    HW222495   8.825   3.672   2.529 -0.9062  0.0585  0.6518
 6322SOL     OW22496   5.696   0.197   9.603 -0.0257  0.0950 -0.6992
 6322SOL    HW122497   5.655   0.112   9.588 -0.1597 -0.0896  0.5788
 6322SOL    HW222498   5.778   0.176   9.648 -1.0247  0.7118  1.5395
 6323SOL     OW22499   5.600   4.682   2.817  0.3046 -0.1694  0.1259
 6323SOL    HW122500   5.512   4.719   2.814 -0.2364 -1.4323 -0.3297
 6323SOL    HW222501   5.607   4.629   2.738  1.0596 -0.9856  0.7120
 6324SOL     OW22502   3.867   8.833   3.870 -0.2184 -0.6438 -0.4608
 6324SOL    HW122503   3.936   8.890   3.903 -1.3662  2.0164 -2.3170
 6324SOL    HW222504   3.896   8.810   3.782 -1.3923  0.0157 -1.0323
 6325SOL     OW22505   2.669   4.496   3.367 -0.7372 -0.2909  0.0639
 6325SOL    HW122506   2.705   4.562   3.307 -0.9748 -0.3358 -0.1330
 6325SOL    HW222507   2.598   4.541   3.412 -1.2886 -0.5785 -0.5004
 6326SOL     OW22508  10.714   4.896   3.439 -0.1402 -0.1130  0.3752
 6326SOL    HW122509  10.622   4.893   3.411  0.5567  0.0742 -2.1876
 6326SOL    HW222510  10.717   4.840   3.516 -2.1154 -1.4612 -0.4393
 6327SOL     OW22511   8.820  10.657   6.130 -0.1412 -0.0813  0.1878
 6327SOL    HW122512   8.726  10.673   6.125 -0.0650  1.3975  2.1615
 6327SOL    HW222513   8.840  10.661   6.224  2.1762  1.6311 -0.2861
 6328SOL     OW22514  10.128   6.811   4.159 -0.5483  0.0301 -0.4591
 6328SOL    HW122515  10.043   6.770   4.178 -0.5801  0.3571  0.1408
 6328SOL    HW222516  10.163   6.761   4.086 -1.0592 -0.3964 -0.4178
 6329SOL     OW22517   4.867   1.100  10.488  0.1793 -0.5139  0.1505
 6329SOL    HW122518   4.950   1.147  10.495 -0.3410  0.4053  0.4168
 6329SOL    HW222519   4.830   1.103  10.577 -0.6954  0.1916 -0.2089
 6330SOL     OW22520   7.133   8.333   7.469 -0.5031 -0.2927  0.2825
 6330SOL    HW122521   7.051   8.284   7.475 -0.7843  0.1044 -0.3191
 6330SOL    HW222522   7.112   8.410   7.417 -0.4383  1.2501  2.4022
 6331SOL     OW22523   1.139   5.954   5.426 -0.4481  0.5280  0.1002
 6331SOL    HW122524   1.133   5.873   5.376  0.1163  0.3900  0.2459
 6331SOL    HW222525   1.193   5.932   5.502 -2.2925  0.4023  1.4528
 6332SOL     OW22526   5.653   4.117  10.975  0.4340 -0.4865 -0.7652
 6332SOL    HW122527   5.615   4.043  11.023  1.2686 -0.2325  0.3449
 6332SOL    HW222528   5.578   4.161  10.935 -0.2800 -0.8965  0.0700
 6333SOL     OW22529   1.683   0.290   5.872 -0.3533  0.0992 -0.5003
 6333SOL    HW122530   1.697   0.204   5.833 -0.1993 -0.5352  0.8970
 6333SOL    HW222531   1.712   0.352   5.805 -1.3413 -0.8898 -1.8860
 6334SOL     OW22532   0.584   3.162   2.536 -0.2357  0.0284  0.0894
 6334SOL    HW122533   0.548   3.157   2.625 -1.9042  0.1747 -0.5474
 6334SOL    HW222534   0.533   3.230   2.493  0.2687 -0.3298 -1.1134
 6335SOL     OW22535   0.509   2.327   4.016 -0.1446 -0.6462 -0.2210
 6335SOL    HW122536   0.417   2.299   4.009 -0.4365  0.2716 -0.2424
 6335SOL    HW222537   0.528   2.367   3.931  0.0407 -0.1761  0.0375
 6336SOL     OW22538   5.706   7.015   3.522  0.4013  0.6007 -0.4348
 6336SOL    HW122539   5.686   6.971   3.605 -0.9019  0.1337 -0.9640
 6336SOL    HW222540   5.780   6.966   3.487  0.5944  0.4374  0.1729
 6337SOL     OW22541   5.554   2.240   0.711  0.0346 -0.5796 -0.0140
 6337SOL    HW122542   5.599   2.247   0.627 -1.1824 -0.6801 -0.6946
 6337SOL    HW222543   5.592   2.162   0.752  2.2166  0.7090  0.5420
 6338SOL     OW22544   2.260  10.328   4.440 -0.2351  0.2157 -0.1274
 6338SOL    HW122545   2.293  10.240   4.425 -0.0944  0.4238 -1.0839
 6338SOL    HW222546   2.240  10.362   4.353  0.6875  1.5074  0.1282
 6339SOL     OW22547   9.850   6.701   7.787 -0.2549  0.0605 -0.2098
 6339SOL    HW122548   9.832   6.775   7.729  0.5342 -1.0333 -1.9406
 6339SOL    HW222549   9.778   6.640   7.772 -0.4082  0.0666  0.4879
 6340SOL     OW22550   3.965   2.171   3.482 -0.6068  0.0150 -0.5814
 6340SOL    HW122551   3.873   2.178   3.456 -0.0984 -0.1451 -2.6497
 6340SOL    HW222552   3.998   2.261   3.473 -0.2995 -0.1381 -1.0150
 6341SOL     OW22553  10.450   3.929   0.627  0.3567 -0.1874 -0.5787
 6341SOL    HW122554  10.466   3.916   0.720 -3.2612 -0.0684  0.1808
 6341SOL    HW222555  10.438   3.840   0.592  1.1542 -0.1959 -0.8614
 6342SOL     OW22556   6.899   1.510   1.535  0.0582  0.1910 -0.1213
 6342SOL    HW122557   6.912   1.599   1.567 -0.7953  0.9212 -1.6810
 6342SOL    HW222558   6.814   1.484   1.570  0.0939  0.1627 -0.0550
 6343SOL     OW22559   4.030   5.391   2.973  0.9932  0.4058 -0.0711
 6343SOL    HW122560   4.035   5.452   2.898  1.3420 -0.1109 -0.4757
 6343SOL    HW222561   3.964   5.429   3.030  0.6692  0.7753 -0.6788
 6344SOL     OW22562   9.842  10.138   1.118  0.2587  0.3749  0.1753
 6344SOL    HW122563   9.859  10.059   1.170 -1.7130  1.3914  2.5338
 6344SOL    HW222564   9.749  10.156   1.132  0.0953  1.8029 -2.2596
 6345SOL     OW22565   0.203   3.937   2.529  0.0975  0.2501  0.4989
 6345SOL    HW122566   0.109   3.920   2.525  0.4280 -1.4712 -0.9841
 6345SOL    HW222567   0.222   3.987   2.450  0.8175 -1.7169 -0.6175
 6346SOL     OW22568   7.237   5.200   0.276 -0.0906  0.1377 -0.3977
 6346SOL    HW122569   7.191   5.128   0.232 -0.5543  1.2350 -1.7685
 6346SOL    HW222570   7.325   5.198   0.239  0.7592 -1.3027  1.4694
 6347SOL     OW22571   7.450   5.317   3.130  0.1683  0.6537 -0.0617
 6347SOL    HW122572   7.362   5.334   3.162  0.8283  1.8301  1.2351
 6347SOL    HW222573   7.471   5.230   3.163 -0.7223  0.0672 -0.9626
 6348SOL     OW22574   1.052   4.860   4.947 -0.0781 -0.0094 -0.1955
 6348SOL    HW122575   1.136   4.883   4.988 -0.1629 -0.1958  0.0857
 6348SOL    HW222576   1.013   4.796   5.006 -0.5427  0.2788 -0.1848
 6349SOL     OW22577  10.823   0.520  10.790 -0.2960 -0.3725 -0.4423
 6349SOL    HW122578  10.830   0.609  10.825 -3.7491  0.7073 -2.0394
 6349SOL    HW222579  10.905   0.506  10.743  0.3524  1.9662 -0.1374
 6350SOL     OW22580   0.329   4.672   3.548 -0.0605 -0.2594 -0.3716
 6350SOL    HW122581   0.398   4.708   3.492 -0.5925  1.4691  0.0010
 6350SOL    HW222582   0.293   4.749   3.593 -0.2064 -1.4837  1.7323
 6351SOL     OW22583   3.654   1.306   8.181 -0.1949 -0.5827 -0.2337
 6351SOL    HW122584   3.663   1.262   8.265 -2.4793  1.6429  1.3597
 6351SOL    HW222585   3.614   1.241   8.123 -1.3488 -1.3326  1.3344
 6352SOL     OW22586   4.618   9.237   7.797  0.5563  0.5344 -0.4436
 6352SOL    HW122587   4.537   9.190   7.817  0.7269  0.5606  0.3290
 6352SOL    HW222588   4.688   9.180   7.829  0.9048  0.1310 -1.8410
 6353SOL     OW22589   6.366   5.347  10.051  0.3984 -0.2864  0.1432
 6353SOL    HW122590   6.296   5.281  10.044 -0.6344  0.4918  2.2398
 6353SOL    HW222591   6.323   5.430  10.031  0.7031  0.1991  1.4194
 6354SOL     OW22592   8.589   7.267   6.832 -0.2309 -0.1759 -0.1706
 6354SOL    HW122593   8.651   7.316   6.777  0.0417  0.1327  0.4007
 6354SOL    HW222594   8.574   7.324   6.908 -2.0724  0.2414 -0.8010
 6355SOL     OW22595   7.340   1.382   9.199  0.1019 -0.4024  0.3446
 6355SOL    HW122596   7.416   1.440   9.190  1.4451 -2.1884 -0.4974
 6355SOL    HW222597   7.292   1.392   9.118  1.4024 -1.8076 -0.6741
 6356SOL     OW22598   7.123   5.247   1.748 -0.2589 -0.2937  0.6046
 6356SOL    HW122599   7.187   5.262   1.818 -0.3986  1.4078  0.3992
 6356SOL    HW222600   7.092   5.334   1.724  1.2748 -0.5775 -2.9932
 6357SOL     OW22601   5.569   6.873   5.472 -0.1825  0.1009  0.0989
 6357SOL    HW122602   5.640   6.825   5.430  0.4825  0.4235  0.8169
 6357SOL    HW222603   5.489   6.830   5.442  0.3502 -0.7465 -0.1380
 6358SOL     OW22604   2.809   8.995   0.300  0.0171  0.1729 -0.0599
 6358SOL    HW122605   2.902   8.992   0.277 -0.2409  0.1272 -1.1975
 6358SOL    HW222606   2.807   9.025   0.391  1.1654 -0.4626  0.1925
 6359SOL     OW22607   6.630   2.365   7.694 -0.5022 -0.2707  0.5049
 6359SOL    HW122608   6.626   2.396   7.604 -0.4197 -1.2365  0.1588
 6359SOL    HW222609   6.697   2.297   7.693 -0.1403  0.0634  1.4053
 6360SOL     OW22610   7.205   7.291   0.112 -0.1199 -0.1360 -0.2773
 6360SOL    HW122611   7.292   7.331   0.110  0.1393 -0.7063 -0.6988
 6360SOL    HW222612   7.147   7.358   0.073  0.2635 -0.0684 -0.7399
 6361SOL     OW22613   3.645   6.201   8.577  0.1508  0.1764  0.1805
 6361SOL    HW122614   3.667   6.149   8.499 -1.4291 -0.3654  0.0539
 6361SOL    HW222615   3.650   6.139   8.649  0.6567  0.4413  0.3730
 6362SOL     OW22616  10.358   5.992   8.285  0.7628  0.9036 -0.0335
 6362SOL    HW122617  10.414   6.053   8.239  0.7597 -1.2394 -3.1855
 6362SOL    HW222618  10.418   5.935   8.332  1.0962  0.4230 -1.0135
 6363SOL     OW22619   2.044   3.908   4.150 -0.2896 -0.5720 -0.1809
 6363SOL    HW122620   2.043   3.857   4.069  0.5015 -1.1624  0.1642
 6363SOL    HW222621   2.134   3.940   4.156 -0.6840  0.5767 -0.2046
 6364SOL     OW22622  10.612   3.666   1.813  0.4439  0.4905 -0.1378
 6364SOL    HW122623  10.650   3.707   1.735 -0.4967  1.1848 -0.2595
 6364SOL    HW222624  10.631   3.726   1.884  0.0272  0.5994 -0.1121
 6365SOL     OW22625   9.473   9.308   7.184  0.1936  0.2652  0.1665
 6365SOL    HW122626   9.545   9.316   7.121  0.4501 -2.1436  0.0569
 6365SOL    HW222627   9.511   9.337   7.267  0.2164  2.2907 -0.5168
 6366SOL     OW22628   5.782   5.229   5.160  0.1238 -0.0934 -0.0936
 6366SOL    HW122629   5.787   5.134   5.153 -0.1497 -0.1082 -0.0835
 6366SOL    HW222630   5.805   5.260   5.072  2.2221 -0.0890  0.3936
 6367SOL     OW22631  10.642   0.816   6.450  0.2184 -0.4850 -1.1616
 6367SOL    HW122632  10.596   0.831   6.367  0.4970  0.5678 -1.1444
 6367SOL    HW222633  10.592   0.865   6.514 -0.4180 -1.8908 -0.5410
 6368SOL     OW22634   4.504   1.416   9.500  0.1926 -0.3198 -0.2746
 6368SOL    HW122635   4.545   1.338   9.463  1.8171  0.7684 -0.8873
 6368SOL    HW222636   4.577   1.465   9.540 -1.0716 -0.0538  1.8690
 6369SOL     OW22637  10.935   6.561  10.380  0.2533 -0.3007 -0.0425
 6369SOL    HW122638  10.978   6.500  10.439  1.6645  2.2024  1.7290
 6369SOL    HW222639  10.963   6.535  10.293  1.6357 -1.5374  0.7328
 6370SOL     OW22640   1.646  10.046   2.443  0.7805 -0.0822 -0.7221
 6370SOL    HW122641   1.568   9.996   2.421  0.9197 -0.1889 -0.9793
 6370SOL    HW222642   1.643  10.123   2.386  0.0676  0.6989  0.3514
 6371SOL     OW22643   2.906   2.987   0.407  0.4927  0.2645 -0.1688
 6371SOL    HW122644   2.901   3.074   0.447  3.0415  0.4775 -0.1216
 6371SOL    HW222645   2.853   2.994   0.328 -0.6162  1.3605  0.6210
 6372SOL     OW22646   7.011   3.885   6.138  0.6916 -0.1571  0.5909
 6372SOL    HW122647   7.068   3.944   6.088  0.3364 -1.0554 -0.9198
 6372SOL    HW222648   6.989   3.935   6.216  1.0580  1.4022 -0.2521
 6373SOL     OW22649   7.034  10.336   6.194 -0.0248 -0.5824  0.4259
 6373SOL    HW122650   7.001  10.349   6.105 -1.3042 -1.1774  0.7967
 6373SOL    HW222651   7.068  10.246   6.194  0.0423 -0.5575  0.5253
 6374SOL     OW22652   9.344   1.681   5.796  0.2172 -0.2162  1.0131
 6374SOL    HW122653   9.334   1.773   5.818  1.3571 -0.1707  1.4376
 6374SOL    HW222654   9.433   1.660   5.824  0.2976 -1.2039  0.0615
 6375SOL     OW22655  10.809   5.107   2.834 -0.1857  0.1900  0.7770
 6375SOL    HW122656  10.724   5.148   2.816 -0.5210 -0.4114  0.9494
 6375SOL    HW222657  10.812   5.098   2.929 -0.1663 -0.2618  0.7392
 6376SOL     OW22658   0.369   0.666  10.874  0.4394 -0.6749  0.1135
 6376SOL    HW122659   0.446   0.616  10.848  1.0730  0.2674  0.1165
 6376SOL    HW222660   0.356   0.729  10.803 -0.6003 -1.1069 -0.0957
 6377SOL     OW22661   0.343   3.214   0.446 -0.1278  0.2147  0.8370
 6377SOL    HW122662   0.288   3.153   0.398 -1.2234 -0.0346  2.3525
 6377SOL    HW222663   0.294   3.297   0.445  0.7917  0.7705 -0.1858
 6378SOL     OW22664   7.489   0.350  10.167 -0.5401 -0.5578 -0.0147
 6378SOL    HW122665   7.575   0.309  10.155  0.1268  0.9035 -0.5361
 6378SOL    HW222666   7.429   0.296  10.117 -0.0963 -2.0670  0.9883
 6379SOL     OW22667   8.248   5.053  10.312 -0.1827 -0.1297  0.0950
 6379SOL    HW122668   8.182   4.996  10.274 -0.9327  0.8534 -0.1342
 6379SOL    HW222669   8.319   5.055  10.248  0.2324 -1.4340  0.4797
 6380SOL     OW22670   1.750   7.870   1.585  0.3045  0.2014  0.5008
 6380SOL    HW122671   1.713   7.828   1.507 -0.8539  0.3738  0.9403
 6380SOL    HW222672   1.715   7.820   1.659  1.0368  0.3179  0.9425
 6381SOL     OW22673   0.068   9.267   1.835  0.1947 -0.0245  0.3578
 6381SOL    HW122674   0.098   9.267   1.744 -0.0996 -0.7253  0.2547
 6381SOL    HW222675   0.095   9.181   1.869 -1.4187 -0.5579  0.3465
 6382SOL     OW22676   7.708   2.004   1.470  0.0057 -0.0659 -0.4050
 6382SOL    HW122677   7.722   2.050   1.553  1.5637 -2.6320  0.8798
 6382SOL    HW222678   7.624   1.961   1.481 -0.4409  0.7061 -0.7404
 6383SOL     OW22679   5.138   2.328   6.396 -0.0252 -0.1742 -0.5813
 6383SOL    HW122680   5.120   2.388   6.323  0.0253 -0.5721 -0.9271
 6383SOL    HW222681   5.177   2.251   6.354 -0.2806 -0.5329 -0.1696
 6384SOL     OW22682   0.321   1.000   8.196  0.3128  0.1023 -0.1587
 6384SOL    HW122683   0.338   0.914   8.234 -0.0397  0.2741  0.4032
 6384SOL    HW222684   0.230   0.996   8.166  0.4588  0.1067 -0.6023
 6385SOL     OW22685   4.593   7.750   1.194 -0.1196  0.1257 -0.3941
 6385SOL    HW122686   4.527   7.683   1.176 -0.8363  0.7501 -0.1741
 6385SOL    HW222687   4.676   7.703   1.193 -0.7119 -1.0566  1.1995
 6386SOL     OW22688   4.146   1.897   4.936  0.0916 -0.1044  0.5819
 6386SOL    HW122689   4.167   1.805   4.953 -1.1207 -0.9536 -1.9838
 6386SOL    HW222690   4.050   1.901   4.941  0.0353  0.6828 -0.6819
 6387SOL     OW22691   8.165   1.297   9.181  0.4938  0.1140 -0.1780
 6387SOL    HW122692   8.217   1.375   9.198  2.3335 -0.8888 -0.8929
 6387SOL    HW222693   8.153   1.296   9.086  1.9429 -1.2838 -0.3943
 6388SOL     OW22694   2.322   3.544   2.731 -0.2061  0.6480 -0.1669
 6388SOL    HW122695   2.286   3.605   2.667 -2.5563  1.8205  2.0464
 6388SOL    HW222696   2.409   3.578   2.751 -0.5420  1.8987 -0.7095
 6389SOL     OW22697   7.997   2.496   5.549 -0.2188  0.5028  0.0530
 6389SOL    HW122698   8.029   2.430   5.611  0.4327 -0.2918 -1.0947
 6389SOL    HW222699   8.052   2.572   5.564  0.3077  0.1246  0.0646
 6390SOL     OW22700   9.100   7.545   1.249  0.5119  0.0393 -0.2871
 6390SOL    HW122701   9.020   7.493   1.261  1.5322 -1.2240  1.3675
 6390SOL    HW222702   9.068   7.635   1.237 -1.2031 -0.6557 -1.3256
 6391SOL     OW22703   5.994   6.247   2.408  0.1502 -0.1973  0.3394
 6391SOL    HW122704   6.045   6.251   2.489 -1.2625  2.9071  1.2530
 6391SOL    HW222705   5.925   6.183   2.426  0.1791  0.0509  1.4258
 6392SOL     OW22706   2.779   9.606   5.910 -0.6240  0.3745 -0.1551
 6392SOL    HW122707   2.864   9.563   5.900 -1.0298 -0.1794 -1.5286
 6392SOL    HW222708   2.715   9.538   5.889 -1.3623  1.0840 -0.2775
 6393SOL     OW22709   0.490   9.186   8.886  0.0634  0.3503  0.0511
 6393SOL    HW122710   0.462   9.102   8.921  0.7800  0.5085  1.0368
 6393SOL    HW222711   0.410   9.226   8.851 -0.9929  0.8054  2.7845
 6394SOL     OW22712   6.880   6.905   1.128 -0.0073  0.4584  0.0503
 6394SOL    HW122713   6.956   6.849   1.148 -0.9678 -0.5840  0.9408
 6394SOL    HW222714   6.805   6.846   1.135 -0.8421  1.1961 -1.9490
 6395SOL     OW22715   8.779   9.088   8.120  0.0295 -0.2340  0.6891
 6395SOL    HW122716   8.705   9.049   8.074  0.3471 -0.0530  0.0072
 6395SOL    HW222717   8.741   9.164   8.165  0.2020  1.4967 -1.8251
 6396SOL     OW22718  10.002   2.091   6.122 -0.1047 -0.3377  0.1359
 6396SOL    HW122719   9.981   2.153   6.192  0.9064  0.2721 -0.0767
 6396SOL    HW222720  10.094   2.069   6.137  0.1216 -0.2017 -0.9901
 6397SOL     OW22721   9.768   5.884   9.665  0.2900  0.3389 -0.0344
 6397SOL    HW122722   9.703   5.936   9.618 -0.0936 -0.6039 -0.5781
 6397SOL    HW222723   9.851   5.905   9.623 -0.0731 -0.6330 -1.3045
 6398SOL     OW22724  10.365   9.228  10.011  0.6724  0.0101 -0.2584
 6398SOL    HW122725  10.351   9.158   9.947  1.3306 -0.2012 -0.1843
 6398SOL    HW222726  10.307   9.206  10.084 -0.3199  0.4233 -0.9066
 6399SOL     OW22727   0.031   3.205   1.167 -0.2319 -0.1494 -0.5670
 6399SOL    HW122728   0.055   3.240   1.253  0.9931  0.5058 -1.1582
 6399SOL    HW222729  -0.046   3.151   1.185  0.2638 -0.4021  1.0208
 6400SOL     OW22730   1.279  11.101   9.808 -1.0443  0.4017  0.1959
 6400SOL    HW122731   1.323  11.074   9.888 -0.3470  4.0710  1.2357
 6400SOL    HW222732   1.186  11.086   9.825 -0.7338 -1.0660  0.6970
 6401SOL     OW22733   7.437   8.970   9.232  0.2773 -0.1441 -0.3380
 6401SOL    HW122734   7.343   8.977   9.215  0.2171  0.9539  0.3699
 6401SOL    HW222735   7.475   8.955   9.145 -0.6227 -1.7158 -0.4953
 6402SOL     OW22736   7.465  10.045   9.119 -0.0118  0.0670  0.0208
 6402SOL    HW122737   7.469  10.052   9.215  1.0232 -0.3470  0.0227
 6402SOL    HW222738   7.492  10.131   9.088 -3.1091  1.1766  0.0681
 6403SOL     OW22739   7.494   7.828   4.122  0.2497 -0.0716 -0.3287
 6403SOL    HW122740   7.561   7.874   4.172 -0.2046  0.0432  0.1812
 6403SOL    HW222741   7.505   7.861   4.032 -0.6711  1.7730  0.1879
 6404SOL     OW22742   4.423   2.437   8.326 -0.0409  0.3870  0.1242
 6404SOL    HW122743   4.479   2.502   8.369  1.2182 -0.6820  0.1685
 6404SOL    HW222744   4.461   2.427   8.239 -1.6982  1.4625 -0.7703
 6405SOL     OW22745   2.310   3.655  10.573  0.5396  0.0000 -0.0489
 6405SOL    HW122746   2.234   3.610  10.537  1.6451 -2.0137  0.0291
 6405SOL    HW222747   2.326   3.727  10.512  0.0094 -0.9723 -1.3793
 6406SOL     OW22748   8.864   7.071   5.740 -0.2336 -0.5152  0.2255
 6406SOL    HW122749   8.820   6.986   5.751  0.1919 -0.9092 -0.9355
 6406SOL    HW222750   8.913   7.062   5.658  0.8760  0.4048  0.7671
 6407SOL     OW22751   6.515   6.883   6.826  0.1129 -0.1414  0.4429
 6407SOL    HW122752   6.573   6.939   6.775  1.6688 -0.9736  1.2218
 6407SOL    HW222753   6.486   6.938   6.899 -0.6973  0.5080 -0.3562
 6408SOL     OW22754   8.305   6.361   9.300 -0.2867  0.0499 -0.0746
 6408SOL    HW122755   8.393   6.327   9.283 -0.2846  0.1604 -0.2910
 6408SOL    HW222756   8.263   6.363   9.214 -0.4884  0.0321  0.0229
 6409SOL     OW22757   8.472   6.709   2.934  0.1815 -0.3431 -0.1631
 6409SOL    HW122758   8.484   6.772   3.006  1.3838 -1.0711  0.3066
 6409SOL    HW222759   8.378   6.711   2.916 -0.2400 -0.5041  1.7870
 6410SOL     OW22760   2.741   7.108   0.064 -0.9289 -0.2440  0.4588
 6410SOL    HW122761   2.646   7.105   0.066 -0.9563 -0.2091 -0.4743
 6410SOL    HW222762   2.765   7.071  -0.021 -0.1494  0.3760  0.3909
 6411SOL     OW22763   6.556   5.350   4.921 -0.0226 -0.9896  0.0991
 6411SOL    HW122764   6.533   5.368   5.012  0.0556 -1.0765  0.1356
 6411SOL    HW222765   6.618   5.278   4.925  0.7513 -0.3408  0.0436
 6412SOL     OW22766   9.800   5.315   0.113  0.0953  0.1762 -0.2939
 6412SOL    HW122767   9.757   5.368   0.181 -0.6603  0.3563 -0.9099
 6412SOL    HW222768   9.754   5.337   0.032  0.7311 -0.3419 -0.8064
 6413SOL     OW22769   5.993   9.231   7.497  0.5992 -0.2795  0.1390
 6413SOL    HW122770   6.054   9.269   7.435  0.1985  0.9667  0.4867
 6413SOL    HW222771   5.916   9.208   7.445  1.0820 -1.2075 -0.1777
 6414SOL     OW22772   3.190  10.858   8.475  0.1094 -0.5977 -0.6226
 6414SOL    HW122773   3.208  10.899   8.559  0.7015 -0.9486 -0.5800
 6414SOL    HW222774   3.135  10.922   8.429  0.5419 -0.0113 -0.3304
 6415SOL     OW22775   3.661   7.292  10.967 -0.3693 -0.1291  0.0830
 6415SOL    HW122776   3.724   7.220  10.963 -1.5850 -1.2192 -0.6285
 6415SOL    HW222777   3.708   7.368  10.932  0.8186 -0.6787  0.4542
 6416SOL     OW22778  10.050  11.066   7.597  1.0370 -0.5474 -0.4448
 6416SOL    HW122779  10.131  11.031   7.561  1.6448 -1.5759  1.7426
 6416SOL    HW222780  10.075  11.150   7.635  1.1120 -0.8741  0.2498
 6417SOL     OW22781   7.754   2.403   1.805 -0.3993 -0.2540 -0.5565
 6417SOL    HW122782   7.836   2.426   1.761 -0.6509  0.2201 -0.7818
 6417SOL    HW222783   7.762   2.309   1.823  0.1444 -0.2324 -0.6790
 6418SOL     OW22784   1.992   6.075   9.254 -0.5783  0.3071 -1.0192
 6418SOL    HW122785   1.972   5.997   9.306 -0.0862 -0.4746 -1.9789
 6418SOL    HW222786   2.049   6.128   9.310 -0.9950  0.0349 -0.3267
 6419SOL     OW22787   5.636  10.959   2.560  0.2736  0.2807  0.2535
 6419SOL    HW122788   5.548  10.979   2.594  0.0579 -0.1002 -0.0816
 6419SOL    HW222789   5.622  10.890   2.495  0.9062 -0.3117  0.7296
 6420SOL     OW22790   7.632   1.841   4.491  0.3116  0.4362 -0.2989
 6420SOL    HW122791   7.560   1.887   4.447 -1.0109 -0.1256  1.1956
 6420SOL    HW222792   7.606   1.749   4.489  0.3586  0.3638  1.3575
 6421SOL     OW22793   5.105   2.864  10.355  0.3804 -0.0673  0.0482
 6421SOL    HW122794   5.132   2.937  10.410 -1.7605 -0.2190  1.4458
 6421SOL    HW222795   5.070   2.799  10.417  0.0167 -1.2373 -1.3242
 6422SOL     OW22796   6.155   9.633   7.772 -0.0127  0.2973  0.3019
 6422SOL    HW122797   6.155   9.688   7.850  2.4821  0.1729  0.4692
 6422SOL    HW222798   6.135   9.545   7.804 -0.1274  0.4394  0.6267
 6423SOL     OW22799  10.463   2.297   5.528 -0.2792 -0.6767 -0.4825
 6423SOL    HW122800  10.385   2.265   5.483  1.3958 -1.1888 -3.1765
 6423SOL    HW222801  10.486   2.226   5.589 -3.0568  0.3856  2.0559
 6424SOL     OW22802   2.829   9.769   1.086  0.1403 -0.2604 -0.0631
 6424SOL    HW122803   2.847   9.861   1.101 -0.0842  0.0101 -1.3231
 6424SOL    HW222804   2.773   9.767   1.008 -0.4147 -1.4201  0.3301
 6425SOL     OW22805  10.579   9.267   7.294 -0.2240 -0.0600 -0.1085
 6425SOL    HW122806  10.625   9.183   7.285  1.0297  0.4449  1.3016
 6425SOL    HW222807  10.636   9.320   7.350 -1.2059  1.5928 -0.6077
 6426SOL     OW22808   9.949   9.964   2.778 -0.0958  0.4222 -0.5607
 6426SOL    HW122809   9.873   9.908   2.794  0.1834 -0.2658 -1.5474
 6426SOL    HW222810   9.934  10.001   2.691  1.3192 -0.7968 -1.3746
 6427SOL     OW22811   6.365   0.294   8.613  0.1831  0.3933  0.0788
 6427SOL    HW122812   6.392   0.258   8.698  0.5335 -0.5257 -0.4131
 6427SOL    HW222813   6.374   0.221   8.552  0.9119  1.3124 -0.9565
 6428SOL     OW22814   9.801   4.308   1.343 -0.2952 -0.2599  0.0170
 6428SOL    HW122815   9.762   4.311   1.430  1.2129  1.7743  0.7023
 6428SOL    HW222816   9.745   4.249   1.293 -2.8828  0.7469  1.5565
 6429SOL     OW22817   0.353   3.950   4.226  0.5468  0.3747 -0.3783
 6429SOL    HW122818   0.342   3.859   4.256 -1.8749  0.9611  0.8275
 6429SOL    HW222819   0.420   3.945   4.158  1.0127 -2.1979  0.1469
 6430SOL     OW22820   2.544   8.248   5.151 -0.4213  0.8100  0.6271
 6430SOL    HW122821   2.591   8.170   5.182 -0.0977 -0.6403 -3.0393
 6430SOL    HW222822   2.452   8.227   5.165 -0.2647  0.5981  1.3807
 6431SOL     OW22823   0.460   0.567   0.648 -0.3638  0.7567 -0.5456
 6431SOL    HW122824   0.521   0.540   0.717 -1.2393  0.1736  0.0273
 6431SOL    HW222825   0.393   0.499   0.648 -2.2483  2.4820  0.4244
 6432SOL     OW22826   1.262   2.634   6.075 -0.2263 -0.6958 -0.2994
 6432SOL    HW122827   1.319   2.557   6.067 -0.1293 -0.5551 -1.0120
 6432SOL    HW222828   1.209   2.616   6.153 -0.5722 -1.7217 -0.7529
 6433SOL     OW22829   0.401   6.760   8.245  0.1072 -0.3769  0.1173
 6433SOL    HW122830   0.420   6.827   8.178 -0.3881  1.6511  1.9010
 6433SOL    HW222831   0.317   6.724   8.219 -0.3016  0.7076 -0.1377
 6434SOL     OW22832   0.540   5.830  10.087  0.0028 -0.2555  0.1516
 6434SOL    HW122833   0.507   5.882  10.161 -0.6508  0.6811 -0.7806
 6434SOL    HW222834   0.586   5.893  10.032 -0.0719 -0.8209 -0.5753
 6435SOL     OW22835   4.431   1.515   8.528 -0.1421  0.2701  0.0672
 6435SOL    HW122836   4.413   1.576   8.599 -0.1992 -1.3912  1.5662
 6435SOL    HW222837   4.527   1.509   8.526  0.3259  4.3830 -3.7365
 6436SOL     OW22838   0.240   1.718   6.297  0.4272  0.2537  0.2632
 6436SOL    HW122839   0.152   1.755   6.287 -0.5528 -1.3964  2.1083
 6436SOL    HW222840   0.238   1.674   6.382  2.3519 -1.6462 -0.5748
 6437SOL     OW22841   9.310  10.861   8.391 -0.4447 -0.0969 -0.4688
 6437SOL    HW122842   9.269  10.780   8.359  1.5136 -0.6832 -1.6136
 6437SOL    HW222843   9.366  10.890   8.320  1.5015  0.3929  1.1775
 6438SOL     OW22844   7.116   7.663  10.481  0.4640  0.5400 -0.5440
 6438SOL    HW122845   7.177   7.592  10.462  1.2150  0.8406  0.6216
 6438SOL    HW222846   7.031   7.630  10.455  0.8992 -0.5276 -0.6558
 6439SOL     OW22847   9.747   4.274   0.468  0.3774  0.0090  0.0122
 6439SOL    HW122848   9.840   4.297   0.466  0.6134 -0.1816  3.2128
 6439SOL    HW222849   9.744   4.191   0.515 -1.4851  0.9443  1.7224
 6440SOL     OW22850   8.093  10.907   1.447 -0.0412  0.1491 -0.8673
 6440SOL    HW122851   8.105  10.936   1.537 -0.7627  0.5246 -0.8861
 6440SOL    HW222852   8.031  10.834   1.453  0.0333  0.0678 -1.0527
 6441SOL     OW22853   2.675   5.214   6.287  0.4548  0.1519  0.8389
 6441SOL    HW122854   2.693   5.267   6.209 -0.2757  0.1402  0.6577
 6441SOL    HW222855   2.675   5.277   6.359 -1.6543  0.6266  0.4723
 6442SOL     OW22856   0.753   5.643   8.662 -0.2771 -0.0028 -0.6736
 6442SOL    HW122857   0.673   5.657   8.611  0.0894 -0.8771 -1.5154
 6442SOL    HW222858   0.723   5.640   8.753 -1.3377 -1.2152 -1.0340
 6443SOL     OW22859   8.648   1.906   9.015  0.0090  0.0841 -0.3659
 6443SOL    HW122860   8.596   1.853   9.075 -0.3866  1.1861  0.3068
 6443SOL    HW222861   8.706   1.844   8.971 -1.8523 -1.1980 -1.1388
 6444SOL     OW22862   4.858   6.722   0.030 -0.0513 -0.1826 -0.1383
 6444SOL    HW122863   4.892   6.757  -0.052  0.2494 -0.9819 -0.3689
 6444SOL    HW222864   4.886   6.784   0.097 -1.4301  1.1847 -0.7783
 6445SOL     OW22865   2.365   1.155   3.026  0.5033  0.1896 -0.9198
 6445SOL    HW122866   2.357   1.142   2.932  1.3312  0.1530 -0.9963
 6445SOL    HW222867   2.280   1.130   3.061  0.7202 -1.4902 -1.4931
 6446SOL     OW22868   6.466   1.879   4.119  0.5324 -0.1474  0.2300
 6446SOL    HW122869   6.390   1.933   4.096  0.7340  1.8158  3.5652
 6446SOL    HW222870   6.452   1.857   4.211  3.0017 -1.5612  0.3401
 6447SOL     OW22871   6.259  10.962   8.718  0.1279  0.0317 -0.1604
 6447SOL    HW122872   6.261  10.890   8.781  1.3872  0.7917  0.6984
 6447SOL    HW222873   6.175  11.005   8.734 -0.8778 -1.5025 -1.0256
 6448SOL     OW22874   0.080   5.316   6.664 -0.0407 -0.5976  0.2769
 6448SOL    HW122875   0.032   5.390   6.628  0.2074 -0.6876 -0.2431
 6448SOL    HW222876   0.050   5.310   6.755 -1.4194 -1.0003 -0.1856
 6449SOL     OW22877  10.647   8.354   7.680  0.3086 -0.5866  0.3254
 6449SOL    HW122878  10.716   8.387   7.737  0.2653 -1.0299  0.6328
 6449SOL    HW222879  10.597   8.433   7.656 -0.6215 -0.5637  2.1524
 6450SOL     OW22880  10.943  10.482   8.372 -0.0365 -0.4119 -0.1580
 6450SOL    HW122881  10.905  10.513   8.290 -2.4337  0.4491  1.1932
 6450SOL    HW222882  10.924  10.389   8.373 -1.1003 -0.2120 -0.0724
 6451SOL     OW22883  10.643   7.509   7.504  0.1068 -0.6373 -0.0427
 6451SOL    HW122884  10.648   7.589   7.556 -0.4800 -1.3135  1.0877
 6451SOL    HW222885  10.734   7.489   7.481  0.2919  0.1180  0.0021
 6452SOL     OW22886   6.646   4.866   2.844 -0.6032 -0.2086 -0.1440
 6452SOL    HW122887   6.706   4.792   2.856 -1.2636 -0.6957  0.3118
 6452SOL    HW222888   6.560   4.830   2.868 -1.0572  0.4984 -0.6798
 6453SOL     OW22889   9.364   9.361  10.241  0.5155 -0.2281 -0.1440
 6453SOL    HW122890   9.338   9.400  10.158 -2.4969  0.7771  1.1451
 6453SOL    HW222891   9.283   9.351  10.290  1.7794 -3.5501  1.6023
 6454SOL     OW22892   6.656  10.460   4.334  0.0955  0.1259 -0.3774
 6454SOL    HW122893   6.677  10.554   4.335  0.0216  0.1424 -0.3822
 6454SOL    HW222894   6.562  10.456   4.347 -0.1729  0.1211 -2.1449
 6455SOL     OW22895  10.379   6.357   9.572 -0.4489  0.0473  0.9656
 6455SOL    HW122896  10.351   6.419   9.639 -1.1342  0.0672  0.6726
 6455SOL    HW222897  10.300   6.341   9.520  0.1549  0.3669 -0.0989
 6456SOL     OW22898   6.587   7.359  10.120 -0.0506 -0.3716  0.0817
 6456SOL    HW122899   6.624   7.321  10.040 -0.5491  0.1718 -0.4185
 6456SOL    HW222900   6.493   7.339  10.114 -0.4052  1.2716 -0.4144
 6457SOL     OW22901   8.812   9.442   0.158 -0.0221  0.0315  0.8841
 6457SOL    HW122902   8.814   9.368   0.218 -1.2823 -1.0149 -0.2987
 6457SOL    HW222903   8.902   9.449   0.126  0.1816 -0.7610  1.2570
 6458SOL     OW22904   1.929   1.088   2.170  0.1440 -0.3016 -0.0071
 6458SOL    HW122905   1.910   1.172   2.128  2.6025  1.1324  1.4862
 6458SOL    HW222906   1.959   1.031   2.100 -0.7139  0.3225 -0.9102
 6459SOL     OW22907   1.345   4.815   5.634  0.4149 -0.3211  0.3947
 6459SOL    HW122908   1.422   4.759   5.631  1.5719  1.1615  1.0512
 6459SOL    HW222909   1.379   4.904   5.620 -1.1144  0.4213  1.1452
 6460SOL     OW22910   5.245   8.219   9.050  0.0482  0.0160  0.3996
 6460SOL    HW122911   5.175   8.156   9.037 -2.5701  2.5645  1.1031
 6460SOL    HW222912   5.316   8.168   9.091 -2.3788 -2.2083  2.1641
 6461SOL     OW22913   5.760  10.587   0.855  0.1013 -0.5181 -0.3100
 6461SOL    HW122914   5.702  10.566   0.782 -1.2791 -1.3546  0.9966
 6461SOL    HW222915   5.771  10.505   0.902 -1.1573  0.4915  1.8946
 6462SOL     OW22916   6.994   3.127   5.430 -0.2029 -0.2827  0.3549
 6462SOL    HW122917   6.911   3.168   5.452  0.1606 -0.2073  1.7323
 6462SOL    HW222918   7.059   3.175   5.482  0.4781 -1.3265  0.5187
 6463SOL     OW22919   4.652  10.642   8.914 -0.3901 -0.3677  0.5531
 6463SOL    HW122920   4.571  10.613   8.871 -1.7326  1.0900  1.9503
 6463SOL    HW222921   4.668  10.574   8.980  0.0933 -1.1444 -0.3327
 6464SOL     OW22922   9.103   0.691   3.027  0.1656 -0.0155  0.9374
 6464SOL    HW122923   9.127   0.659   2.940 -1.2266 -1.5220  1.0783
 6464SOL    HW222924   9.141   0.779   3.031  1.7151 -0.5659 -0.5307
 6465SOL     OW22925   1.398   6.567   6.368  0.2908 -0.8277 -0.0728
 6465SOL    HW122926   1.374   6.643   6.422 -0.4883 -1.1139 -0.0072
 6465SOL    HW222927   1.333   6.501   6.390 -0.4629 -0.7157 -1.8694
 6466SOL     OW22928   0.430   5.481   2.132  0.0232 -0.2209  0.2112
 6466SOL    HW122929   0.429   5.387   2.151  0.0397  0.3301  3.5475
 6466SOL    HW222930   0.344   5.499   2.096 -0.7422 -1.2360  1.4430
 6467SOL     OW22931  10.421   8.501   9.859  0.0237  0.4043  0.4645
 6467SOL    HW122932  10.431   8.579   9.914  0.3934  0.8739 -0.2463
 6467SOL    HW222933  10.502   8.496   9.809 -1.0492  1.1757 -1.4956
 6468SOL     OW22934   0.074   7.520   1.723  0.3905  0.1670  0.1726
 6468SOL    HW122935   0.049   7.468   1.646 -0.7467  2.5006 -1.1590
 6468SOL    HW222936   0.162   7.552   1.703  1.0417 -1.0703  0.9384
 6469SOL     OW22937   7.189   2.792   1.592  0.3343 -0.1056 -0.2289
 6469SOL    HW122938   7.153   2.728   1.654 -0.5774 -1.4645 -2.0441
 6469SOL    HW222939   7.284   2.786   1.604  0.1777 -0.2666  1.0778
 6470SOL     OW22940   2.499   5.968   5.942  0.3140 -0.0365  0.1304
 6470SOL    HW122941   2.531   5.993   6.028 -0.2492 -0.3889  0.4485
 6470SOL    HW222942   2.520   6.043   5.885  0.0303  0.5011  0.7284
 6471SOL     OW22943   0.634  10.351   7.462  0.7738 -0.0229 -0.2802
 6471SOL    HW122944   0.604  10.357   7.371 -0.9618  2.7273  0.3266
 6471SOL    HW222945   0.698  10.422   7.471  0.4723  0.1404  0.7650
 6472SOL     OW22946   0.513   6.941   3.162  0.4777  0.3367 -0.2898
 6472SOL    HW122947   0.544   6.856   3.192  0.7287  0.8002  0.8328
 6472SOL    HW222948   0.543   7.003   3.229  0.4412  1.3336 -1.1634
 6473SOL     OW22949   5.868   7.103   5.337 -0.2567 -0.4096  0.4864
 6473SOL    HW122950   5.846   7.134   5.249 -1.6109 -0.7839  0.6674
 6473SOL    HW222951   5.947   7.050   5.325 -0.4065 -0.4216 -0.4983
 6474SOL     OW22952  10.667   2.378   8.103 -0.6408  0.7664  0.2061
 6474SOL    HW122953  10.639   2.452   8.048  0.5107  0.1737 -1.2347
 6474SOL    HW222954  10.644   2.405   8.192 -2.5117  1.7910 -0.5136
 6475SOL     OW22955   4.371   8.343   9.383 -0.2784 -0.4321 -0.2801
 6475SOL    HW122956   4.398   8.421   9.431 -0.3614  0.3454 -1.4572
 6475SOL    HW222957   4.418   8.349   9.299 -0.6441 -1.4082 -0.5744
 6476SOL     OW22958   1.829   9.892  10.060 -0.1067  0.9399  0.4185
 6476SOL    HW122959   1.756   9.953  10.075 -2.5930 -1.3145 -1.5297
 6476SOL    HW222960   1.828   9.836  10.138 -0.4890  0.8850  0.3766
 6477SOL     OW22961  11.053  10.063   0.157  0.4712  0.0060  0.3086
 6477SOL    HW122962  11.140  10.052   0.195  0.7936 -0.6155 -0.5749
 6477SOL    HW222963  11.035   9.980   0.112 -0.2266  0.4191 -0.2079
 6478SOL     OW22964   4.455   1.402   7.958  0.1319 -0.2215  0.5451
 6478SOL    HW122965   4.412   1.321   7.985  0.1436 -0.3888  0.0762
 6478SOL    HW222966   4.400   1.471   7.995  0.9534 -0.4343  2.2283
 6479SOL     OW22967   5.683  10.335   9.342  0.0406  0.0491  0.4956
 6479SOL    HW122968   5.695  10.251   9.299  0.0910 -0.1623  0.9143
 6479SOL    HW222969   5.600  10.327   9.388  0.1468  0.1527  0.7068
 6480SOL     OW22970  10.972   2.611  10.981  0.4726  0.1142  0.3114
 6480SOL    HW122971  10.884   2.600  10.944 -0.1134 -0.0074  1.6716
 6480SOL    HW222972  10.975   2.550  11.055  1.7136  0.1109  0.2810
 6481SOL     OW22973   4.777   4.552   4.942  0.7762  0.3382  0.0604
 6481SOL    HW122974   4.772   4.555   5.038  2.0358 -0.2521  0.1668
 6481SOL    HW222975   4.826   4.630   4.918 -1.0294  1.4121 -0.2604
 6482SOL     OW22976   3.329   9.823  10.831  0.3800  0.0672 -0.2920
 6482SOL    HW122977   3.330   9.731  10.804  1.4510 -0.9912  2.8786
 6482SOL    HW222978   3.236   9.846  10.831  0.0215 -1.2689 -0.3616
 6483SOL     OW22979   6.180   6.929   3.046  0.8186  0.5188 -0.5567
 6483SOL    HW122980   6.184   6.847   2.996  0.2854 -0.6915  1.2656
 6483SOL    HW222981   6.260   6.928   3.099 -1.1247 -1.0901  2.6458
 6484SOL     OW22982   8.573   6.709  10.775 -0.1996  0.0426  0.0775
 6484SOL    HW122983   8.480   6.697  10.757 -0.6733  1.6443  1.2041
 6484SOL    HW222984   8.576   6.778  10.841  1.8328  0.4516 -0.3666
 6485SOL     OW22985   4.668   6.175   1.406 -0.0551  0.0516 -0.5345
 6485SOL    HW122986   4.689   6.217   1.322  3.1366 -0.0984  0.0781
 6485SOL    HW222987   4.655   6.082   1.383 -0.8415  0.2812 -1.0557
 6486SOL     OW22988   1.035   6.953   9.385 -0.0312  0.3479  0.1197
 6486SOL    HW122989   1.050   6.911   9.300  0.4686  0.6815  0.0364
 6486SOL    HW222990   1.095   6.908   9.445 -0.4034  0.0938  0.3017
 6487SOL     OW22991   7.688   6.215   9.934 -0.1750  0.3463  0.0614
 6487SOL    HW122992   7.640   6.139   9.900 -1.7487  2.0864 -1.9389
 6487SOL    HW222993   7.769   6.217   9.883 -0.6172  0.5659 -0.6549
 6488SOL     OW22994   6.049   8.507   4.543  0.2891  0.1900 -0.0324
 6488SOL    HW122995   6.064   8.535   4.452  1.3956 -2.7986 -0.8684
 6488SOL    HW222996   6.004   8.582   4.583  0.2695  1.8490 -2.8565
 6489SOL     OW22997   5.188   3.298   5.948 -0.5113 -0.6932 -0.3184
 6489SOL    HW122998   5.167   3.386   5.978 -3.9311 -1.0154 -1.3591
 6489SOL    HW222999   5.184   3.244   6.026 -1.5297 -0.3609 -0.1245
 6490SOL     OW23000   1.683   9.062   5.577  0.1180 -0.0034  0.4945
 6490SOL    HW123001   1.747   9.128   5.602  1.0840 -0.9440  0.5523
 6490SOL    HW223002   1.613   9.070   5.642  0.1852  0.9939  0.4570
 6491SOL     OW23003   2.954   1.337   1.785 -0.0695  0.2974  0.1984
 6491SOL    HW123004   2.929   1.245   1.800  0.1088  0.3731  0.9889
 6491SOL    HW223005   2.901   1.363   1.709  1.2350 -0.9995 -1.2519
 6492SOL     OW23006   8.798   4.118   0.079  0.9219 -0.3229  0.6014
 6492SOL    HW123007   8.844   4.036   0.066 -0.4022 -1.0194  0.0949
 6492SOL    HW223008   8.748   4.105   0.160  2.7023  0.9606  1.9826
 6493SOL     OW23009   2.263   3.129   6.941 -0.0654 -0.1212  0.0245
 6493SOL    HW123010   2.344   3.134   6.889 -1.2238 -1.1171 -1.9969
 6493SOL    HW223011   2.293   3.100   7.027  1.8467  0.5890 -0.3407
 6494SOL     OW23012   0.895   5.715  10.424  0.1319  0.2413  0.0989
 6494SOL    HW123013   0.825   5.669  10.377 -0.7367  0.7490  0.8827
 6494SOL    HW223014   0.973   5.664  10.404 -0.7481 -1.4049  0.6758
 6495SOL     OW23015   0.578   0.513   7.058 -0.1591 -0.3049  0.1073
 6495SOL    HW123016   0.501   0.550   7.016  0.4329  0.0392 -0.6937
 6495SOL    HW223017   0.646   0.515   6.991  0.5868 -0.4930  0.8352
 6496SOL     OW23018  10.326   3.461   3.617  0.3414  1.1472  0.1307
 6496SOL    HW123019  10.270   3.497   3.548  0.8535  1.3361 -0.1948
 6496SOL    HW223020  10.415   3.487   3.591  0.8029 -0.8552 -0.4381
 6497SOL     OW23021   1.913   9.822   6.686  0.3891 -0.1833 -0.1766
 6497SOL    HW123022   1.893   9.766   6.611  0.9887 -1.5618  0.6571
 6497SOL    HW223023   1.832   9.822   6.738 -0.1316  1.0289 -0.9546
 6498SOL     OW23024   6.018  10.674   6.349 -0.0025 -0.4113  0.2890
 6498SOL    HW123025   6.067  10.592   6.354  0.3397 -0.1747  0.8801
 6498SOL    HW223026   6.031  10.716   6.434 -0.5124  0.0682  0.1426
 6499SOL     OW23027   3.994   0.652   1.479  0.4249 -0.2618 -0.4223
 6499SOL    HW123028   4.029   0.599   1.551  0.0900  0.7390  0.5096
 6499SOL    HW223029   3.903   0.668   1.503  1.0199  2.3988  0.3858
 6500SOL     OW23030   5.306   9.795   6.398 -0.3655  0.0072  0.3226
 6500SOL    HW123031   5.262   9.711   6.384 -0.9109  0.1903  0.8766
 6500SOL    HW223032   5.383   9.774   6.450 -0.0145 -0.2631 -0.2982
 6501SOL     OW23033   8.986   6.639   5.745  0.6805  0.0437  0.5107
 6501SOL    HW123034   9.063   6.636   5.802  0.3997 -2.3758  0.9101
 6501SOL    HW223035   8.947   6.552   5.754 -2.4202  1.3180  0.7319
 6502SOL     OW23036   4.530   0.967   1.662  0.1207 -0.4296  0.1130
 6502SOL    HW123037   4.488   0.972   1.577  0.9132 -0.7663 -0.3039
 6502SOL    HW223038   4.505   1.049   1.706 -0.3946 -0.3160 -0.3794
 6503SOL     OW23039   0.281   5.377   9.998 -0.3837  0.5771 -0.0379
 6503SOL    HW123040   0.188   5.391  10.012 -0.2140  0.4503  1.3570
 6503SOL    HW223041   0.308   5.447   9.940 -1.4659  0.2407 -0.9798
 6504SOL     OW23042   5.263   0.406   9.009  0.0821 -0.1191 -0.1614
 6504SOL    HW123043   5.279   0.318   8.973 -1.3040 -0.1701 -0.6837
 6504SOL    HW223044   5.288   0.466   8.939  0.2325 -0.1141 -0.1053
 6505SOL     OW23045  10.726   0.355   8.733  0.1824 -0.0287  0.0891
 6505SOL    HW123046  10.746   0.298   8.658 -0.1584  0.5448 -0.4485
 6505SOL    HW223047  10.685   0.297   8.797 -1.2713 -0.1973 -0.9310
 6506SOL     OW23048   8.425   1.758  10.071 -0.5844 -0.3500  0.0898
 6506SOL    HW123049   8.368   1.704  10.015 -0.8161 -0.0321  0.0160
 6506SOL    HW223050   8.366   1.794  10.137 -0.1047 -1.6872  1.2854
 6507SOL     OW23051   0.312   1.765   9.786  0.1985  0.1181 -0.0799
 6507SOL    HW123052   0.264   1.725   9.714  1.0452  0.1287 -0.6748
 6507SOL    HW223053   0.257   1.837   9.815 -0.9937 -0.9731  0.4954
 6508SOL     OW23054  10.753   4.724   4.571  0.3681 -0.6460  0.4613
 6508SOL    HW123055  10.782   4.645   4.524 -0.3648 -0.2931 -0.6248
 6508SOL    HW223056  10.671   4.748   4.529  1.5263  1.8534 -0.5758
 6509SOL     OW23057   5.988   0.324   9.386 -0.8938 -0.6805  0.3528
 6509SOL    HW123058   5.969   0.409   9.345 -2.7384 -1.2033 -0.0008
 6509SOL    HW223059   5.973   0.261   9.316 -0.6059 -1.3592  0.9025
 6510SOL     OW23060   4.532   3.567   4.971 -0.2291  0.4982 -0.1430
 6510SOL    HW123061   4.592   3.535   5.039  0.4756  0.4955 -0.7495
 6510SOL    HW223062   4.492   3.645   5.009 -0.3909  0.0802  0.5530
 6511SOL     OW23063   2.282   2.407   5.726 -0.1023  0.5319  0.4006
 6511SOL    HW123064   2.287   2.321   5.767 -1.0457  0.4016  0.2550
 6511SOL    HW223065   2.237   2.462   5.790 -0.0678  0.7629  0.2306
 6512SOL     OW23066   1.894   8.738  11.006 -0.0698  0.3896 -0.2094
 6512SOL    HW123067   1.863   8.800  11.072  1.0090  3.0722 -2.0429
 6512SOL    HW223068   1.851   8.765  10.925  0.9979 -0.7896 -1.2154
 6513SOL     OW23069   5.193   0.982   3.787 -0.6456 -0.3326 -0.1448
 6513SOL    HW123070   5.194   0.890   3.813 -0.0080 -0.8323 -1.8070
 6513SOL    HW223071   5.219   0.981   3.694  2.3150  1.7254  0.4971
 6514SOL     OW23072   8.163   6.905   8.223 -0.0389 -0.2443  0.0541
 6514SOL    HW123073   8.130   6.844   8.289 -0.1543 -0.3366 -0.0889
 6514SOL    HW223074   8.087   6.959   8.202 -0.2247 -0.7660 -0.6282
 6515SOL     OW23075   8.953   7.334   5.844  0.3152 -0.4867  0.4542
 6515SOL    HW123076   9.045   7.315   5.864  0.2346 -0.2776  1.0221
 6515SOL    HW223077   8.913   7.248   5.835  0.4594 -0.5815  0.7024
 6516SOL     OW23078   4.131   9.261   6.580 -0.8360  0.4755 -0.5931
 6516SOL    HW123079   4.140   9.326   6.650 -2.1511 -0.4335  0.4727
 6516SOL    HW223080   4.189   9.190   6.606  0.7887  1.2579 -1.8837
 6517SOL     OW23081   9.340   1.789   7.445  0.4390 -0.1520 -0.6527
 6517SOL    HW123082   9.427   1.756   7.419 -0.3367 -3.0840  0.0722
 6517SOL    HW223083   9.281   1.755   7.378 -0.5622 -1.2394  0.7327
 6518SOL     OW23084   0.635   1.438   4.321  0.1975 -0.3566  0.1179
 6518SOL    HW123085   0.563   1.468   4.376  0.3773 -0.2117  0.2753
 6518SOL    HW223086   0.710   1.490   4.349  0.0705  0.4232 -0.9443
 6519SOL     OW23087   0.213   5.858   1.251 -0.0826 -0.1605  0.3890
 6519SOL    HW123088   0.276   5.793   1.282  0.1076 -0.5628 -0.7798
 6519SOL    HW223089   0.154   5.810   1.193 -0.7196  0.4596  0.5031
 6520SOL     OW23090   1.588   6.802   3.257  0.0132  0.1506  0.0521
 6520SOL    HW123091   1.517   6.789   3.195 -0.9970 -0.0360  1.2152
 6520SOL    HW223092   1.572   6.738   3.326  0.9987  0.4760  0.6042
 6521SOL     OW23093   9.137   8.019   3.938  0.4581 -0.2755  0.0067
 6521SOL    HW123094   9.065   8.003   3.878  2.0444 -0.2872 -1.9912
 6521SOL    HW223095   9.140   8.115   3.947  0.8887 -0.1932 -0.8649
 6522SOL     OW23096   7.525   3.987  10.944 -0.5876 -0.2256 -0.3321
 6522SOL    HW123097   7.563   3.899  10.944  2.2404  0.8810  0.0923
 6522SOL    HW223098   7.500   4.002  10.853  2.1962 -0.2328 -1.1795
 6523SOL     OW23099   8.153  10.692   0.756  0.0309 -0.3843  0.7453
 6523SOL    HW123100   8.080  10.741   0.796 -0.8573 -1.0917  0.0475
 6523SOL    HW223101   8.123  10.601   0.757  1.2122 -0.7820  1.0662
 6524SOL     OW23102   7.604   9.758  10.385 -0.1265  0.1708 -0.1346
 6524SOL    HW123103   7.614   9.733  10.294  1.2471  0.8848 -0.1996
 6524SOL    HW223104   7.509   9.757  10.399 -0.3055 -1.0167 -1.2388
 6525SOL     OW23105  10.400   2.311   6.784  0.6105  0.1947 -0.1480
 6525SOL    HW123106  10.431   2.320   6.693 -0.1360  0.8657 -0.3471
 6525SOL    HW223107  10.480   2.293   6.834  1.2583  1.3483 -0.7208
 6526SOL     OW23108   2.599   9.463   6.732  0.2643  0.2451 -0.3409
 6526SOL    HW123109   2.693   9.448   6.743  0.0832 -0.6471  0.1182
 6526SOL    HW223110   2.562   9.445   6.819 -0.3663  0.2372 -0.6069
 6527SOL     OW23111   7.823   0.612   3.238 -0.1506  0.1304 -0.1084
 6527SOL    HW123112   7.873   0.677   3.288 -1.2127  0.3763  0.6577
 6527SOL    HW223113   7.890   0.558   3.195  0.7478  1.8169 -0.8973
 6528SOL     OW23114   6.212   7.718  11.092 -0.3413 -0.3269  0.6071
 6528SOL    HW123115   6.247   7.736  11.005  1.6137 -2.8312  0.7821
 6528SOL    HW223116   6.128   7.765  11.094 -0.4330 -0.1694 -2.5820
 6529SOL     OW23117   6.101  10.269   1.383  0.0059  0.1491  0.5403
 6529SOL    HW123118   6.062  10.182   1.391  0.2585 -0.1794 -1.4689
 6529SOL    HW223119   6.068  10.316   1.460 -1.3330 -1.2524  0.8800
 6530SOL     OW23120   0.112   6.698   8.612 -0.3057  0.2581  0.0799
 6530SOL    HW123121   0.151   6.785   8.602 -0.4883  0.3384  0.0499
 6530SOL    HW223122   0.018   6.715   8.619 -0.3568  0.0501 -0.0953
 6531SOL     OW23123   2.260   7.383   4.673  0.0229 -0.0818  0.1855
 6531SOL    HW123124   2.340   7.353   4.717  0.4922  0.8975  0.0349
 6531SOL    HW223125   2.281   7.377   4.580 -0.2688 -0.3010  0.1321
 6532SOL     OW23126   3.223   4.874   1.949  0.4613  0.0508  0.5721
 6532SOL    HW123127   3.146   4.860   1.894  1.3937  1.2952 -1.1179
 6532SOL    HW223128   3.260   4.786   1.961  0.4758 -0.2074 -1.1632
 6533SOL     OW23129  10.995   6.338   0.477 -0.4562  0.4674 -0.5270
 6533SOL    HW123130  10.929   6.386   0.527 -1.9493  0.3599 -2.2535
 6533SOL    HW223131  11.077   6.353   0.523 -1.1183  3.3743 -0.1097
 6534SOL     OW23132   0.513   4.261   7.141  0.0561 -0.1304 -0.3541
 6534SOL    HW123133   0.589   4.233   7.090 -0.2756 -1.4507 -0.1778
 6534SOL    HW223134   0.537   4.243   7.232 -0.4385 -0.5267 -0.2961
 6535SOL     OW23135  10.623   9.443   0.656 -0.0365 -0.0874  0.4850
 6535SOL    HW123136  10.578   9.370   0.614 -1.3519  0.8415  0.2225
 6535SOL    HW223137  10.673   9.402   0.727  3.3545 -1.9022 -2.6401
 6536SOL     OW23138   2.298   8.353   0.593  0.2964  0.2071  0.1079
 6536SOL    HW123139   2.217   8.305   0.608  0.3029 -0.0222 -0.5738
 6536SOL    HW223140   2.366   8.299   0.632  0.1595  0.2462  0.4010
 6537SOL     OW23141   5.910   4.426   7.970  0.4343  0.0490  0.5334
 6537SOL    HW123142   5.946   4.437   8.058 -0.2698 -0.8316  0.9567
 6537SOL    HW223143   5.983   4.393   7.919  0.3940 -1.2821  1.2741
 6538SOL     OW23144   6.179   7.453   3.166 -0.6566  0.3309  0.1327
 6538SOL    HW123145   6.262   7.406   3.175 -0.7656  0.1385  0.1316
 6538SOL    HW223146   6.118   7.388   3.131 -0.2112  1.0682 -2.1933
 6539SOL     OW23147   8.738   3.318   9.111 -0.2818  0.6994 -0.6696
 6539SOL    HW123148   8.784   3.254   9.056  1.1110  1.7505 -0.7761
 6539SOL    HW223149   8.801   3.340   9.179 -2.1513 -1.0285  1.8252
 6540SOL     OW23150   0.992   0.667   8.761 -0.2457  0.2322  0.1717
 6540SOL    HW123151   0.944   0.604   8.706 -0.0210 -1.1417  1.4771
 6540SOL    HW223152   0.985   0.631   8.849  0.7608  1.5443  0.8115
 6541SOL     OW23153   3.977   3.551   0.980  0.0332  0.2094  0.5826
 6541SOL    HW123154   3.957   3.487   1.049  1.5809  1.1984  2.0423
 6541SOL    HW223155   3.891   3.575   0.945 -0.6418 -2.0384  0.5220
 6542SOL     OW23156   8.997   7.101   8.557  0.7248 -0.0426 -0.4818
 6542SOL    HW123157   9.025   7.011   8.569 -1.2727 -0.5144  1.3650
 6542SOL    HW223158   8.979   7.108   8.463 -1.5549 -2.4320 -0.3386
 6543SOL     OW23159   2.472   3.345   2.150 -0.0904  0.8797 -0.3277
 6543SOL    HW123160   2.380   3.332   2.128  0.1737  1.3068 -1.7816
 6543SOL    HW223161   2.471   3.375   2.242 -1.2810 -0.4522  0.1183
 6544SOL     OW23162   8.348   4.757   7.526  0.1849  0.1491 -0.8039
 6544SOL    HW123163   8.343   4.678   7.472  0.2708  0.0782 -0.7079
 6544SOL    HW223164   8.434   4.753   7.567 -0.9812 -1.3975  1.7741
 6545SOL     OW23165   2.328   5.784   8.381 -0.2330  0.6373 -0.1829
 6545SOL    HW123166   2.374   5.710   8.341 -1.2007  0.4203 -0.9299
 6545SOL    HW223167   2.343   5.857   8.321  1.8519  1.4806  1.2033
 6546SOL     OW23168   6.498   2.269   8.032 -0.1701 -0.1443  0.2589
 6546SOL    HW123169   6.571   2.326   8.056  0.6268 -1.3338  0.7814
 6546SOL    HW223170   6.423   2.308   8.076 -0.2566  2.0860 -1.6781
 6547SOL     OW23171   3.531   9.849   8.553  0.6629  0.0800 -0.0661
 6547SOL    HW123172   3.621   9.873   8.532  0.6955 -1.1417 -1.4644
 6547SOL    HW223173   3.534   9.755   8.568 -0.3626  0.0446  0.0057
 6548SOL     OW23174   1.742   4.886   0.338  0.0129  0.1526 -0.9021
 6548SOL    HW123175   1.683   4.954   0.371  0.1643 -0.2018  0.1147
 6548SOL    HW223176   1.747   4.903   0.244 -2.3762 -0.2770 -1.1942
 6549SOL     OW23177   5.259   5.745   1.541 -0.5294 -0.1499  0.2187
 6549SOL    HW123178   5.249   5.651   1.554 -1.2234  0.0305  1.1303
 6549SOL    HW223179   5.198   5.765   1.470 -0.1817 -0.4327 -0.1594
 6550SOL     OW23180   1.979   2.757  10.380 -0.0097  0.0704  0.4740
 6550SOL    HW123181   1.939   2.844  10.377 -0.5006 -0.1924 -1.2879
 6550SOL    HW223182   1.985   2.729  10.289  0.1539 -1.7513  0.9961
 6551SOL     OW23183   3.809   1.071   5.722  0.6801  0.0787  0.1010
 6551SOL    HW123184   3.746   1.004   5.694 -0.2516  0.8128  0.3598
 6551SOL    HW223185   3.778   1.099   5.808  2.0543 -0.3626  0.7585
 6552SOL     OW23186   7.884   5.926   0.994 -0.0359  0.1712 -0.3033
 6552SOL    HW123187   7.966   5.886   0.965  0.2738  0.9454 -0.5127
 6552SOL    HW223188   7.818   5.860   0.975  0.4790 -0.2792 -0.5602
 6553SOL     OW23189   7.558   3.326   7.941 -0.5399 -0.2214  0.0922
 6553SOL    HW123190   7.499   3.377   7.997 -0.6715 -0.6456  0.3423
 6553SOL    HW223191   7.602   3.392   7.886 -2.4739 -0.0027 -1.3045
 6554SOL     OW23192   7.231  10.370   8.778 -0.3144 -0.1368  0.1799
 6554SOL    HW123193   7.324  10.359   8.801 -0.5798 -1.2080  0.8224
 6554SOL    HW223194   7.209  10.458   8.808  0.9166  0.8135 -1.5437
 6555SOL     OW23195   0.828   5.878   7.171 -0.0411  0.1938 -0.1235
 6555SOL    HW123196   0.772   5.859   7.247 -1.7060  1.0624 -1.0852
 6555SOL    HW223197   0.790   5.827   7.100  1.2525 -0.2766 -0.5037
 6556SOL     OW23198   8.016   8.687   4.215 -0.3034  0.0108 -0.1878
 6556SOL    HW123199   8.051   8.630   4.148 -2.3976 -3.2462  1.2060
 6556SOL    HW223200   7.952   8.632   4.262 -0.8392  2.8491  2.7830
 6557SOL     OW23201   6.041  10.297   5.544 -0.3921 -0.1115 -0.4650
 6557SOL    HW123202   6.125  10.299   5.498 -0.4776 -1.0758 -0.6983
 6557SOL    HW223203   6.058  10.244   5.622 -0.2144  1.6217  0.7179
 6558SOL     OW23204   5.298   7.784   6.680 -0.1554  0.0086  0.3087
 6558SOL    HW123205   5.213   7.826   6.668 -0.0893  0.2629  0.6917
 6558SOL    HW223206   5.361   7.847   6.647 -0.0536  0.2272  0.9063
 6559SOL     OW23207   6.888   0.533   4.148  0.3154  0.3048 -0.0351
 6559SOL    HW123208   6.803   0.552   4.108 -1.0440 -0.2544  2.3507
 6559SOL    HW223209   6.883   0.572   4.235  2.3933 -0.0480  0.2989
 6560SOL     OW23210   7.112   2.587   7.670  0.3321  0.6528  0.1985
 6560SOL    HW123211   7.040   2.539   7.712  0.9597 -0.4964 -0.0036
 6560SOL    HW223212   7.088   2.588   7.577  0.6986  0.0383  0.0944
 6561SOL     OW23213   1.022   3.872   0.642  0.7277  0.4527 -0.0682
 6561SOL    HW123214   0.979   3.951   0.676  0.0085  0.1168 -0.1687
 6561SOL    HW223215   0.983   3.801   0.692 -0.3996 -0.0656 -1.5972
 6562SOL     OW23216   3.170   8.775   5.310 -0.4204  0.8208 -0.6451
 6562SOL    HW123217   3.110   8.837   5.352  0.1899  1.4713 -0.7179
 6562SOL    HW223218   3.124   8.691   5.313 -1.6888  1.4598 -1.4260
 6563SOL     OW23219   4.542   8.321   1.331  1.1396  0.2784 -0.7953
 6563SOL    HW123220   4.494   8.240   1.352 -0.3128  0.8273 -1.8185
 6563SOL    HW223221   4.624   8.313   1.378  1.7318 -2.5190 -2.1001
 6564SOL     OW23222   7.006  10.875   6.244  0.4692  0.0643 -0.2493
 6564SOL    HW123223   6.954  10.812   6.294  0.6914  1.6043  2.0480
 6564SOL    HW223224   6.941  10.932   6.203  0.3101 -0.0876 -0.2108
 6565SOL     OW23225   6.957   4.232   7.147 -0.6801 -0.1293 -0.3716
 6565SOL    HW123226   7.010   4.160   7.182  0.7372  1.6654  1.4426
 6565SOL    HW223227   7.013   4.273   7.081 -1.3956 -0.5224 -1.2439
 6566SOL     OW23228   8.080   3.626   0.053  0.1878 -0.0300  0.1185
 6566SOL    HW123229   8.133   3.657  -0.020  0.1712 -0.1137  0.0702
 6566SOL    HW223230   8.143   3.584   0.112  0.2738  0.5051  0.4057
 6567SOL     OW23231   9.829   9.229   2.896  0.1455 -0.0869  0.3019
 6567SOL    HW123232   9.759   9.179   2.938  0.0215  1.4268  2.0435
 6567SOL    HW223233   9.887   9.255   2.968  0.1637  2.2709 -0.4707
 6568SOL     OW23234   5.047   5.964   1.975 -0.4325  0.3624  0.1839
 6568SOL    HW123235   5.076   5.967   1.884 -1.8929  0.4992 -0.3129
 6568SOL    HW223236   5.025   5.872   1.990 -0.7942  0.4477  0.1884
 6569SOL     OW23237  10.307   3.187   6.880 -0.1795 -0.9641  0.4746
 6569SOL    HW123238  10.398   3.162   6.894  0.1973  0.6306  1.0433
 6569SOL    HW223239  10.274   3.206   6.968 -0.8318 -0.7790  0.1948
 6570SOL     OW23240   7.267   7.562   8.838 -0.5970  0.0968  0.3964
 6570SOL    HW123241   7.285   7.652   8.863  0.3007  0.0169  0.0904
 6570SOL    HW223242   7.210   7.528   8.907 -1.2751  1.0131  0.3012
 6571SOL     OW23243  10.940  10.733   3.680  0.0164  0.1795 -0.0862
 6571SOL    HW123244  10.892  10.685   3.748 -1.1703  0.2898 -0.8076
 6571SOL    HW223245  10.941  10.672   3.605  1.3154  0.0543  0.0077
 6572SOL     OW23246  11.002  10.141   2.146 -0.5008 -0.3651 -0.2742
 6572SOL    HW123247  11.045  10.070   2.192 -1.3835 -0.4008  0.5135
 6572SOL    HW223248  10.994  10.211   2.211 -2.4042 -0.6776 -0.1342
 6573SOL     OW23249  10.337  11.019   0.143  0.0567 -0.3344  0.1122
 6573SOL    HW123250  10.380  10.965   0.209  2.6520  0.9894 -0.3417
 6573SOL    HW223251  10.290  11.085   0.193 -0.1945 -0.8945  0.6305
 6574SOL     OW23252   0.633   5.138   7.797  0.2920  0.1598  0.2312
 6574SOL    HW123253   0.680   5.059   7.822  0.7364  0.6051  0.8529
 6574SOL    HW223254   0.562   5.108   7.741  0.9763 -0.5817 -0.2489
 6575SOL     OW23255   1.201  11.024   6.900  0.1636 -0.2521 -0.4570
 6575SOL    HW123256   1.266  11.004   6.967  0.4170 -1.5527 -1.0535
 6575SOL    HW223257   1.238  11.099   6.853  0.0663  0.5588  0.7099
 6576SOL     OW23258   3.205   5.169   5.284  0.1341  0.1229 -0.8662
 6576SOL    HW123259   3.188   5.206   5.371  1.5496 -1.1945  0.0244
 6576SOL    HW223260   3.298   5.182   5.271  0.8697 -3.4560 -0.2476
 6577SOL     OW23261   5.183   1.760   7.850  0.2233 -0.1724  0.2249
 6577SOL    HW123262   5.148   1.676   7.819 -2.1324  0.6969  0.3407
 6577SOL    HW223263   5.178   1.753   7.946 -1.3085  0.5645  0.2289
 6578SOL     OW23264   5.263   6.772   9.743 -0.0915  0.1810  0.4016
 6578SOL    HW123265   5.281   6.701   9.681 -0.9709 -0.6842  1.1126
 6578SOL    HW223266   5.340   6.774   9.800  0.1061  0.0525  0.1400
 6579SOL     OW23267   0.818   3.657   4.861  0.1480  0.0562  0.0313
 6579SOL    HW123268   0.835   3.610   4.942  2.9162 -0.1610 -0.5961
 6579SOL    HW223269   0.814   3.749   4.887  1.8393  0.0652  0.3398
 6580SOL     OW23270   6.505   0.881   2.508 -0.1983  0.3345 -0.4814
 6580SOL    HW123271   6.469   0.922   2.587  1.0683 -0.3345  0.4844
 6580SOL    HW223272   6.441   0.900   2.440 -0.4907  2.4324  0.3037
 6581SOL     OW23273   5.294   2.092   6.319 -0.0177 -0.1386 -0.1015
 6581SOL    HW123274   5.361   2.107   6.385  0.7453 -0.1018 -0.8620
 6581SOL    HW223275   5.306   2.001   6.292  0.2524  0.0999 -0.8043
 6582SOL     OW23276   2.852  10.564   1.013 -0.2940 -0.5401  0.5975
 6582SOL    HW123277   2.857  10.651   1.052 -2.0626 -0.0111 -0.2305
 6582SOL    HW223278   2.943  10.541   0.994  0.3170  0.5501  2.0126
 6583SOL     OW23279   3.725   4.201   6.715  0.2846 -0.2705  0.2378
 6583SOL    HW123280   3.677   4.243   6.644  1.2930  0.3129 -0.1270
 6583SOL    HW223281   3.816   4.204   6.686  0.5038 -1.6949  0.7284
 6584SOL     OW23282   9.835   8.260   1.158 -0.4638  0.1416 -0.6767
 6584SOL    HW123283   9.853   8.179   1.111 -0.6141 -0.5733  0.4572
 6584SOL    HW223284   9.921   8.300   1.171 -0.0698 -1.1820  1.0719
 6585SOL     OW23285   2.757   7.667   7.408 -0.5763 -0.0981 -0.6143
 6585SOL    HW123286   2.671   7.625   7.401  0.8532 -3.4642 -0.2259
 6585SOL    HW223287   2.784   7.682   7.317 -0.1393 -2.5408 -0.9677
 6586SOL     OW23288   1.020   2.258   5.789 -0.8117  0.3230 -0.0264
 6586SOL    HW123289   0.952   2.320   5.814 -1.5377 -1.0265  1.4990
 6586SOL    HW223290   1.086   2.264   5.858 -1.5008 -1.4534  0.8524
 6587SOL     OW23291   5.148   3.771   1.826  0.2111  0.3022 -0.0803
 6587SOL    HW123292   5.236   3.784   1.789 -0.1387  0.3505 -0.9263
 6587SOL    HW223293   5.110   3.858   1.829 -0.3404  0.1109 -1.1137
 6588SOL     OW23294   6.605   4.984  10.924  0.2085  0.2178 -0.2230
 6588SOL    HW123295   6.542   5.032  10.870  0.1966 -0.2179 -0.6029
 6588SOL    HW223296   6.566   4.897  10.934  0.0598  0.3797  0.7561
 6589SOL     OW23297   2.237   7.912   8.292  0.3377  0.2253  0.2049
 6589SOL    HW123298   2.250   7.856   8.215  0.1395  0.0450  0.3037
 6589SOL    HW223299   2.306   7.978   8.285  0.7714 -0.2162  0.2541
 6590SOL     OW23300   9.478   5.125   2.466 -0.1231 -0.0224 -0.0150
 6590SOL    HW123301   9.524   5.160   2.390 -0.3885 -0.7034 -0.4900
 6590SOL    HW223302   9.411   5.067   2.430 -0.0293 -0.6241  0.7509
 6591SOL     OW23303   2.102   3.780   4.593 -0.1695 -0.3289 -0.2325
 6591SOL    HW123304   2.083   3.860   4.543 -1.8754 -0.4121  0.2163
 6591SOL    HW223305   2.017   3.736   4.600  0.6475 -1.9261 -0.0120
 6592SOL     OW23306   7.572   8.556   1.308  0.2812  0.4470 -0.2987
 6592SOL    HW123307   7.658   8.597   1.298  1.4676 -1.4137  1.5358
 6592SOL    HW223308   7.529   8.607   1.377  0.3907  0.6154 -0.3528
 6593SOL     OW23309   5.895   1.087   0.383 -0.2105 -0.0740 -0.1545
 6593SOL    HW123310   5.987   1.066   0.372 -0.3939  0.3165 -3.0264
 6593SOL    HW223311   5.848   1.014   0.343 -1.1487  0.2627  0.2920
 6594SOL     OW23312   4.569   9.006   2.612 -0.1343  0.3164  0.2067
 6594SOL    HW123313   4.511   9.077   2.639 -0.8099 -0.2362  0.2739
 6594SOL    HW223314   4.655   9.045   2.605 -0.2962  0.9047  1.2942
 6595SOL     OW23315   1.493   1.211   2.484  0.0643 -0.0146  0.0315
 6595SOL    HW123316   1.479   1.140   2.546 -0.6603  0.5667  0.5566
 6595SOL    HW223317   1.421   1.272   2.501 -0.3271  0.0124 -1.5892
 6596SOL     OW23318   9.917  10.265  10.381 -0.0135 -0.2450  0.8676
 6596SOL    HW123319   9.838  10.255  10.435 -1.3601  0.4187 -0.8950
 6596SOL    HW223320   9.904  10.348  10.335  0.7141 -1.1264 -1.0346
 6597SOL     OW23321   5.020   9.207   9.068  0.3633 -0.8052 -0.0970
 6597SOL    HW123322   5.110   9.228   9.043 -0.3582  1.1290 -1.2440
 6597SOL    HW223323   4.971   9.208   8.986 -1.0104 -0.1365  0.6980
 6598SOL     OW23324   8.547   6.081  10.153 -0.1805 -0.1991  0.0722
 6598SOL    HW123325   8.547   6.046  10.064 -0.8722 -1.4407  0.5339
 6598SOL    HW223326   8.622   6.141  10.155 -0.7201  0.6091 -1.6169
 6599SOL     OW23327   7.842   1.108   6.005 -0.0865  0.5629  0.1740
 6599SOL    HW123328   7.774   1.052   5.967  0.9357  0.6227 -1.9418
 6599SOL    HW223329   7.831   1.192   5.961  0.6224  0.9083  0.6453
 6600SOL     OW23330   4.818   8.919  10.759  0.2458 -0.4602  0.0494
 6600SOL    HW123331   4.769   8.838  10.767  1.6675 -1.3975 -0.4687
 6600SOL    HW223332   4.899   8.904  10.808  1.2511  0.0403 -1.3998
 6601SOL     OW23333   2.702   1.348   2.646 -0.0881 -0.3567 -0.7582
 6601SOL    HW123334   2.797   1.355   2.649 -0.1389  0.0558  1.2003
 6601SOL    HW223335   2.686   1.254   2.632  0.6652 -0.9661  1.8495
 6602SOL     OW23336   6.735   5.856   9.080  0.0848  0.3272  0.1071
 6602SOL    HW123337   6.656   5.905   9.102  0.8771  0.8102  2.0519
 6602SOL    HW223338   6.737   5.784   9.143  0.5444 -0.4282 -0.7457
 6603SOL     OW23339   9.898   3.231   6.235  0.0892  0.1796 -0.3382
 6603SOL    HW123340   9.936   3.158   6.283  1.5168  0.6835 -0.6476
 6603SOL    HW223341   9.821   3.257   6.286 -0.0310 -1.0745  0.1435
 6604SOL     OW23342   0.522  10.985   5.545 -0.4553 -0.1730 -0.1542
 6604SOL    HW123343   0.451  10.954   5.489 -0.2194  0.9364 -1.1053
 6604SOL    HW223344   0.579  11.034   5.486  1.4320 -1.4951  0.4676
 6605SOL     OW23345  10.848  11.054   0.360 -0.2340  0.6884  0.2482
 6605SOL    HW123346  10.770  11.067   0.307 -1.4881  0.2136  1.9015
 6605SOL    HW223347  10.819  11.067   0.450  1.7683  1.2601  0.8770
 6606SOL     OW23348   4.445   3.820   1.263 -0.2507 -0.4307 -0.2938
 6606SOL    HW123349   4.521   3.796   1.315 -1.7408  0.3905  2.5151
 6606SOL    HW223350   4.374   3.764   1.297 -1.5354  0.9215 -0.6294
 6607SOL     OW23351   4.088   3.201   3.774  0.0196  0.2376  0.0375
 6607SOL    HW123352   4.171   3.153   3.773  1.2081  2.2025 -0.5431
 6607SOL    HW223353   4.083   3.238   3.862 -0.7167 -0.5935  0.3638
 6608SOL     OW23354   0.946   5.343   4.921  0.4182  0.4251 -0.6200
 6608SOL    HW123355   0.924   5.408   4.988  1.9157  0.5086 -0.1534
 6608SOL    HW223356   0.874   5.281   4.923  0.5225  0.2982  1.2749
 6609SOL     OW23357  10.045   3.726   4.452  0.0150  0.3226 -0.0974
 6609SOL    HW123358  10.139   3.724   4.434 -0.2265 -1.5956 -1.4487
 6609SOL    HW223359  10.009   3.786   4.387  0.1192 -0.3509 -0.7966
 6610SOL     OW23360   3.215   7.777   8.519  0.5167  0.4364  0.6132
 6610SOL    HW123361   3.263   7.805   8.441  1.0082 -1.3536  0.2162
 6610SOL    HW223362   3.128   7.754   8.487  0.6373 -0.0450  0.6091
 6611SOL     OW23363   9.013   4.308   8.997 -0.2904  0.3339  0.4369
 6611SOL    HW123364   9.030   4.248   9.070  3.1603 -1.3087 -1.4447
 6611SOL    HW223365   9.048   4.392   9.027 -1.1062  0.3108  1.4979
 6612SOL     OW23366   7.195   5.661   4.854  0.1739  0.0918 -0.2045
 6612SOL    HW123367   7.207   5.740   4.907  0.9197 -0.8550  1.1054
 6612SOL    HW223368   7.211   5.689   4.764  2.0995  1.0946  0.4043
 6613SOL     OW23369   2.704   2.346   8.545  0.4712  0.5277  0.1837
 6613SOL    HW123370   2.642   2.418   8.537  1.2228  1.1544 -0.1192
 6613SOL    HW223371   2.776   2.382   8.596 -0.2275 -0.7594  2.2101
 6614SOL     OW23372   9.151   1.715   1.273  0.0765  0.3411  0.1643
 6614SOL    HW123373   9.064   1.714   1.313  0.6623 -1.8650  1.5518
 6614SOL    HW223374   9.135   1.735   1.181 -1.9236 -0.2634  0.3405
 6615SOL     OW23375   0.250  10.105   3.754  0.1562  0.2653  0.6948
 6615SOL    HW123376   0.315  10.172   3.775 -1.5828  2.4843 -0.5137
 6615SOL    HW223377   0.194  10.100   3.831 -0.4868  1.1978  0.2949
 6616SOL     OW23378  11.049   8.255   7.709 -0.1583  0.3015  0.5958
 6616SOL    HW123379  11.076   8.193   7.778 -1.0232  0.0480  0.7179
 6616SOL    HW223380  11.015   8.331   7.757 -1.4955 -0.1923  0.4816
 6617SOL     OW23381   6.520   2.654   1.295  0.1436  0.2447  0.1816
 6617SOL    HW123382   6.456   2.600   1.342  0.6930 -0.0989  0.5541
 6617SOL    HW223383   6.528   2.613   1.209 -1.7835  1.5888 -0.7100
 6618SOL     OW23384   3.285   7.720   6.393  0.2686 -0.0586  0.0376
 6618SOL    HW123385   3.202   7.762   6.372  0.6567  1.5688  1.5702
 6618SOL    HW223386   3.294   7.652   6.326 -0.2617  2.4378 -2.8132
 6619SOL     OW23387   5.631   2.083   6.875  0.3488  0.5391  0.0754
 6619SOL    HW123388   5.652   2.176   6.865  0.9540  0.2786 -1.3071
 6619SOL    HW223389   5.664   2.060   6.962 -0.2267  1.7217  0.6191
 6620SOL     OW23390  10.602   0.404   8.282  0.0042  0.5871  0.1559
 6620SOL    HW123391  10.664   0.474   8.304  0.0674  0.4233  0.4948
 6620SOL    HW223392  10.537   0.447   8.226 -0.0167  0.9418  0.4511
 6621SOL     OW23393   7.288   8.996   3.301  0.2221 -0.5120  0.4418
 6621SOL    HW123394   7.375   8.985   3.340  1.0954  2.6873 -0.3319
 6621SOL    HW223395   7.277   8.919   3.245  2.2211 -1.3475  1.1117
 6622SOL     OW23396  10.218   0.962   1.066 -0.6020  0.3641 -0.0999
 6622SOL    HW123397  10.304   0.929   1.039 -0.9289  1.1046 -2.2480
 6622SOL    HW223398  10.228   1.057   1.069 -1.5079  0.5065 -1.0752
 6623SOL     OW23399   7.006   0.944   0.130 -0.0084 -0.3257  0.3291
 6623SOL    HW123400   6.927   0.989   0.162 -1.4125 -1.8050 -0.8976
 6623SOL    HW223401   7.039   0.896   0.206  0.8016  1.6840  1.3292
 6624SOL     OW23402   8.011   4.856  10.281 -0.1464  0.4162  0.7997
 6624SOL    HW123403   8.015   4.762  10.263 -1.3974  0.8016 -1.9677
 6624SOL    HW223404   7.941   4.865  10.345 -0.1223 -0.5040  0.9731
 6625SOL     OW23405   2.772   2.494  10.498 -0.3775 -0.4197 -0.5257
 6625SOL    HW123406   2.823   2.575  10.508 -1.4312  0.2642 -0.5312
 6625SOL    HW223407   2.809   2.453  10.420  0.6153 -0.2919 -0.1465
 6626SOL     OW23408   9.103   1.726   3.797 -0.4342  0.5378 -0.4971
 6626SOL    HW123409   9.097   1.772   3.881 -0.8364  0.0681 -0.2633
 6626SOL    HW223410   9.175   1.664   3.809 -0.9531 -0.0280 -0.2459
 6627SOL     OW23411  11.015   4.829   2.687 -0.0508 -0.1102 -0.3699
 6627SOL    HW123412  10.935   4.874   2.659 -0.6927 -0.0032  1.4496
 6627SOL    HW223413  10.986   4.741   2.709  0.2168  0.0578  0.7220
 6628SOL     OW23414   4.150   6.321   1.293  0.2713  0.1546  0.3950
 6628SOL    HW123415   4.141   6.379   1.218 -1.3972  0.6285  0.9114
 6628SOL    HW223416   4.242   6.330   1.320  0.6346  0.7168 -0.9787
 6629SOL     OW23417   1.438   8.147   9.402 -0.0295 -0.8008  0.1470
 6629SOL    HW123418   1.429   8.101   9.485  0.0340 -0.5575  0.2889
 6629SOL    HW223419   1.431   8.240   9.425 -0.1835 -0.7405 -0.1405
 6630SOL     OW23420   4.533   5.896   6.728  0.0477 -0.2486 -0.1885
 6630SOL    HW123421   4.525   5.802   6.716 -1.3205 -0.4812  1.9401
 6630SOL    HW223422   4.572   5.906   6.816 -0.7945  1.1363  0.0687
 6631SOL     OW23423   5.340  10.760   7.387  0.1133 -0.2984 -0.3439
 6631SOL    HW123424   5.278  10.729   7.321 -1.8681 -2.2802  2.2124
 6631SOL    HW223425   5.286  10.812   7.447  1.7610  1.1214 -0.0287
 6632SOL     OW23426   4.428   2.642   1.552  0.3236  0.0067  0.7883
 6632SOL    HW123427   4.353   2.587   1.528 -0.5505  1.4580  0.0510
 6632SOL    HW223428   4.491   2.629   1.481 -0.2345  0.5656  0.1702
 6633SOL     OW23429  10.271   5.445   6.624  0.3175 -0.3896 -0.1014
 6633SOL    HW123430  10.188   5.397   6.621  0.2219 -0.3964  1.7087
 6633SOL    HW223431  10.284   5.475   6.534 -2.2212  0.5723 -0.2467
 6634SOL     OW23432   6.002   2.660   8.808 -0.0340  0.2644  0.3033
 6634SOL    HW123433   6.039   2.603   8.740 -0.8516  0.8307 -0.6385
 6634SOL    HW223434   6.078   2.697   8.852  0.5124 -0.3116 -0.1298
 6635SOL     OW23435   2.026   2.653   0.446 -0.6390 -0.1236  0.2180
 6635SOL    HW123436   2.086   2.586   0.479 -1.1241 -0.6968 -0.0479
 6635SOL    HW223437   1.978   2.682   0.524  2.3972  2.9647  1.1936
 6636SOL     OW23438   9.433   8.047   2.931 -0.5031  0.7729  0.4686
 6636SOL    HW123439   9.413   7.954   2.921 -1.1568  0.8797  0.7041
 6636SOL    HW223440   9.459   8.075   2.844 -1.7610  0.6931  0.0366
 6637SOL     OW23441  10.800   3.965   9.988  0.3337 -0.1447  0.6927
 6637SOL    HW123442  10.723   3.931  10.034  0.7527 -1.2824  0.5752
 6637SOL    HW223443  10.850   4.011  10.056 -0.7005  1.0807  0.6567
 6638SOL     OW23444  10.117   0.734   3.661 -0.6108  0.2046  0.0455
 6638SOL    HW123445  10.179   0.737   3.588 -0.5690  1.3403  0.1011
 6638SOL    HW223446  10.032   0.758   3.621 -0.6143  0.6822  0.3271
 6639SOL     OW23447   8.852   1.273   1.554 -0.0207 -0.9622 -0.2381
 6639SOL    HW123448   8.935   1.241   1.589  0.5248 -0.0136 -0.6239
 6639SOL    HW223449   8.823   1.204   1.495  1.0487 -0.8447 -0.9330
 6640SOL     OW23450   4.229  10.432  10.481 -0.1474 -0.1923 -0.2538
 6640SOL    HW123451   4.272  10.376  10.415 -0.4512  0.1688 -0.7657
 6640SOL    HW223452   4.193  10.370  10.544  0.8982 -0.5147  0.0489
 6641SOL     OW23453   5.229   4.760   9.535 -0.2003  0.1289  1.0160
 6641SOL    HW123454   5.224   4.689   9.471 -2.1981  0.8584  0.2685
 6641SOL    HW223455   5.307   4.809   9.511  0.3009 -0.8800  0.5330
 6642SOL     OW23456   0.894   0.753   6.414  0.0359 -0.2248  0.7948
 6642SOL    HW123457   0.817   0.721   6.369  0.6364 -0.9365  0.2431
 6642SOL    HW223458   0.941   0.804   6.348 -0.2105  0.6351  1.2718
 6643SOL     OW23459   6.857   7.978   7.651  0.1733 -0.2181 -0.1772
 6643SOL    HW123460   6.928   7.929   7.611  1.1100  1.1916 -0.3129
 6643SOL    HW223461   6.899   8.031   7.718 -1.0489 -0.8106  1.1154
 6644SOL     OW23462   5.160   7.408   2.198 -0.1359  0.3433 -0.0348
 6644SOL    HW123463   5.155   7.374   2.108  1.1480  1.7176 -0.6736
 6644SOL    HW223464   5.141   7.332   2.253  3.0737 -1.6100 -1.3555
 6645SOL     OW23465  10.606   9.173   3.558 -0.1639  0.2503 -0.0321
 6645SOL    HW123466  10.570   9.171   3.647 -1.1526 -0.8059 -0.4387
 6645SOL    HW223467  10.574   9.092   3.517  1.4324  0.0177 -0.9070
 6646SOL     OW23468   4.737   7.561   5.644  0.2965  0.7198 -0.3938
 6646SOL    HW123469   4.775   7.590   5.727 -0.1093 -2.5626  1.0944
 6646SOL    HW223470   4.811   7.520   5.598 -0.0945 -0.1869 -0.2388
 6647SOL     OW23471   6.981   1.071   4.744 -0.6042 -0.5703 -0.9242
 6647SOL    HW123472   6.922   1.086   4.670 -1.9614  0.8701  0.3740
 6647SOL    HW223473   6.984   1.156   4.789  0.8824 -1.1774  0.1915
 6648SOL     OW23474   9.928   7.133   9.701 -0.4568 -0.0434 -0.3176
 6648SOL    HW123475   9.999   7.182   9.743 -0.7838  1.5767 -1.5355
 6648SOL    HW223476   9.848   7.175   9.733 -0.8032 -0.7612 -0.2461
 6649SOL     OW23477   9.081  10.613   6.051  0.0669 -0.3964 -0.4721
 6649SOL    HW123478   9.101  10.521   6.038 -0.8793 -0.8116  0.8139
 6649SOL    HW223479   8.985  10.616   6.059 -0.0029  0.8325 -1.4250
 6650SOL     OW23480   5.936   2.478   7.367 -0.5146 -0.2127  0.4377
 6650SOL    HW123481   5.843   2.478   7.391 -0.5773  2.3917  0.5017
 6650SOL    HW223482   5.972   2.555   7.412  1.4311 -0.5460 -0.4557
 6651SOL     OW23483   9.507   7.516   4.147 -0.0022 -0.3465 -0.4335
 6651SOL    HW123484   9.550   7.578   4.205  0.6054 -1.9527  0.9104
 6651SOL    HW223485   9.524   7.549   4.059  2.2811  0.1735  0.1432
 6652SOL     OW23486   2.903   9.699   0.288 -0.8587 -0.3898 -0.2127
 6652SOL    HW123487   2.888   9.790   0.313 -2.0167 -0.5785 -0.1562
 6652SOL    HW223488   2.978   9.671   0.341 -1.0623  0.2619  0.4350
 6653SOL     OW23489   9.800   0.894   7.543 -0.1390 -0.2548  0.1262
 6653SOL    HW123490   9.831   0.823   7.600 -1.1694 -1.9681 -1.3521
 6653SOL    HW223491   9.877   0.920   7.493  0.0887 -0.8631  0.1528
 6654SOL     OW23492   7.946   2.061   9.233 -0.1030  0.1739 -0.8145
 6654SOL    HW123493   7.925   2.070   9.326 -1.1899  0.5623 -1.0929
 6654SOL    HW223494   8.042   2.065   9.230 -0.0371 -0.1166  0.3123
 6655SOL     OW23495   0.208   7.268   2.429  0.2961 -0.1524 -0.3223
 6655SOL    HW123496   0.249   7.189   2.462 -0.1210 -0.2410 -0.0029
 6655SOL    HW223497   0.276   7.312   2.378  0.3635 -0.9842 -0.9612
 6656SOL     OW23498   6.063  11.052   4.703 -0.1336 -0.0156 -0.1304
 6656SOL    HW123499   6.026  11.139   4.689 -1.1591 -0.4885 -0.5347
 6656SOL    HW223500   6.098  11.054   4.792 -3.2654 -0.1914  1.2519
 6657SOL     OW23501   4.824  10.720   5.716  0.1365  0.1493 -0.4540
 6657SOL    HW123502   4.735  10.692   5.738  0.4999 -0.0658  0.8562
 6657SOL    HW223503   4.822  10.815   5.721 -0.0033  0.1405 -0.3422
 6658SOL     OW23504   0.259   2.570   5.473 -0.1013 -0.5625 -0.0311
 6658SOL    HW123505   0.258   2.665   5.483 -0.9338 -0.6677  1.0182
 6658SOL    HW223506   0.235   2.537   5.559 -0.6438 -1.7105 -0.6128
 6659SOL     OW23507   2.957   6.293   9.362 -0.6650 -0.1030  0.2088
 6659SOL    HW123508   2.972   6.374   9.314 -0.7759 -0.1531  0.0889
 6659SOL    HW223509   3.043   6.250   9.363 -0.5816  0.0635  0.3634
 6660SOL     OW23510   5.602   3.472   6.851 -0.0711  0.3119  0.1322
 6660SOL    HW123511   5.552   3.552   6.861 -0.8683  0.0962 -1.6529
 6660SOL    HW223512   5.666   3.492   6.783  0.9950 -0.0106  1.0189
 6661SOL     OW23513   9.748   3.816   4.139 -0.0540  0.3969  0.5343
 6661SOL    HW123514   9.816   3.779   4.082 -0.4290 -0.3237  0.5440
 6661SOL    HW223515   9.736   3.750   4.207  0.5061  1.3175  1.5536
 6662SOL     OW23516   2.828   6.103   7.152  0.1423  0.2262 -0.3748
 6662SOL    HW123517   2.828   6.154   7.070  2.0600  0.2063 -0.4359
 6662SOL    HW223518   2.739   6.069   7.158 -0.2486  0.7878 -2.1087
 6663SOL     OW23519   4.154   1.581   3.206  0.1449  0.5392 -0.6401
 6663SOL    HW123520   4.231   1.527   3.221  0.3734  0.9599 -0.2816
 6663SOL    HW223521   4.106   1.578   3.289 -0.1179  0.4449 -0.7948
 6664SOL     OW23522   7.207   5.346  10.161  0.2675 -0.3550  0.2230
 6664SOL    HW123523   7.133   5.405  10.175  0.7627  0.0955  1.0601
 6664SOL    HW223524   7.170   5.270  10.117 -0.3054  0.7869 -1.3658
 6665SOL     OW23525   4.736   7.252   8.383 -0.5272  0.0311 -0.2516
 6665SOL    HW123526   4.706   7.342   8.396  1.1548  0.5534  0.3319
 6665SOL    HW223527   4.662   7.198   8.410 -0.9757  1.2398  1.0889
 6666SOL     OW23528   5.321   3.001   0.529 -0.1216  0.8310 -0.0907
 6666SOL    HW123529   5.365   3.074   0.487  0.9967 -0.4680 -1.2946
 6666SOL    HW223530   5.389   2.959   0.582 -0.1737 -0.4486 -0.9709
 6667SOL     OW23531   0.915   2.101  10.612  0.0422  0.2984 -0.0397
 6667SOL    HW123532   1.011   2.096  10.613 -0.0052 -0.7437 -0.0703
 6667SOL    HW223533   0.896   2.181  10.563  0.8683 -0.4270 -1.6197
 6668SOL     OW23534   4.298   4.342   7.613  0.4633 -0.0714  0.4448
 6668SOL    HW123535   4.239   4.339   7.538  1.4144 -2.2297 -0.2894
 6668SOL    HW223536   4.241   4.367   7.686 -0.8091  0.4970 -0.6960
 6669SOL     OW23537  10.618   7.130   4.445 -0.4869  0.1563  0.2614
 6669SOL    HW123538  10.697   7.107   4.494 -1.1831  0.5490  1.6385
 6669SOL    HW223539  10.619   7.225   4.439 -0.4675  0.1200 -0.4177
 6670SOL     OW23540   7.295   0.257   3.532 -0.4776 -0.1199 -0.6967
 6670SOL    HW123541   7.269   0.261   3.624 -0.0779 -0.8084 -0.5443
 6670SOL    HW223542   7.328   0.344   3.513 -1.4470  0.3135 -0.4626
 6671SOL     OW23543   2.162   2.336   9.306 -0.0108 -0.2999  0.2190
 6671SOL    HW123544   2.174   2.358   9.214 -1.0143  1.5221  0.4661
 6671SOL    HW223545   2.084   2.281   9.307  0.0590 -0.4056 -0.0358
 6672SOL     OW23546   0.623   9.284   3.720  0.1058 -0.3167 -0.4978
 6672SOL    HW123547   0.608   9.326   3.635 -0.4824 -0.0905 -0.2874
 6672SOL    HW223548   0.718   9.281   3.729  0.2425 -1.8738 -1.9243
 6673SOL     OW23549   7.450   7.916   9.580 -0.1567  0.0829  0.3702
 6673SOL    HW123550   7.515   7.926   9.510 -0.2278  2.4362  0.5903
 6673SOL    HW223551   7.375   7.966   9.550 -1.3231 -1.3033  0.8533
 6674SOL     OW23552   8.938   9.361   0.802 -0.1295 -0.1160  0.0208
 6674SOL    HW123553   9.032   9.352   0.820  0.2023  0.9181 -1.0587
 6674SOL    HW223554   8.933   9.428   0.735 -1.7891  1.2304  1.4052
 6675SOL     OW23555   1.634   8.805   9.783 -0.8037 -0.5749 -0.9910
 6675SOL    HW123556   1.555   8.759   9.757 -0.8420  0.5373 -3.0230
 6675SOL    HW223557   1.608   8.897   9.789 -0.9569 -0.6759  3.8407
 6676SOL     OW23558   3.235   3.810   9.766 -0.3818 -0.5055 -0.4173
 6676SOL    HW123559   3.206   3.863   9.841 -3.4903 -1.9295 -0.4325
 6676SOL    HW223560   3.210   3.863   9.689 -0.2683 -0.4813 -0.4368
 6677SOL     OW23561   7.573   5.746   6.690  0.0041 -0.6480  0.2200
 6677SOL    HW123562   7.587   5.836   6.662  0.4858 -0.3917  1.2620
 6677SOL    HW223563   7.529   5.705   6.615 -1.6558  0.8467  0.3081
 6678SOL     OW23564   4.844   0.070   9.607  0.0728  0.0103 -0.0011
 6678SOL    HW123565   4.917   0.008   9.618  0.3361  0.1319 -0.9954
 6678SOL    HW223566   4.766   0.016   9.618  0.2985 -0.4944 -0.7565
 6679SOL     OW23567   9.215  10.290  10.449  0.3862  0.2639 -0.8114
 6679SOL    HW123568   9.233  10.376  10.487 -0.0593  0.7381 -1.6584
 6679SOL    HW223569   9.133  10.262  10.489  2.0383 -1.1798  1.8253
 6680SOL     OW23570   4.159   0.805   3.282  0.6617  0.0938 -0.6981
 6680SOL    HW123571   4.114   0.722   3.301  0.7795 -0.0791 -1.1511
 6680SOL    HW223572   4.252   0.785   3.295  0.5873  0.6351  0.9184
 6681SOL     OW23573   5.516   1.828   0.149 -0.0390 -0.1730 -0.0564
 6681SOL    HW123574   5.555   1.909   0.117  0.6220 -0.5072 -0.1207
 6681SOL    HW223575   5.534   1.763   0.080  0.7847 -0.7289  0.6581
 6682SOL     OW23576   9.180   9.477   1.745  0.0510 -0.6720  0.1095
 6682SOL    HW123577   9.178   9.454   1.652  0.8387 -0.0652 -0.0678
 6682SOL    HW223578   9.178   9.573   1.746  1.3416 -0.6267  0.6566
 6683SOL     OW23579   3.096   4.372   3.891 -0.6573 -0.6793  0.0448
 6683SOL    HW123580   3.110   4.383   3.986  0.0909 -0.1888 -0.1137
 6683SOL    HW223581   3.089   4.278   3.879  0.4711 -0.8321  0.4328
 6684SOL     OW23582   9.615   2.409   7.274  0.1485 -0.6288 -0.0269
 6684SOL    HW123583   9.708   2.416   7.291  0.3629 -1.8637 -0.5726
 6684SOL    HW223584   9.607   2.417   7.179 -0.3569  0.0025  0.0629
 6685SOL     OW23585   5.751   1.331   0.285 -0.1580 -0.4565  0.3445
 6685SOL    HW123586   5.781   1.250   0.325 -0.4571 -0.9760 -0.4443
 6685SOL    HW223587   5.691   1.302   0.215  0.1884  0.4094 -0.3296
 6686SOL     OW23588   5.597   7.399   7.467 -0.0411 -0.1284 -0.3311
 6686SOL    HW123589   5.638   7.482   7.443 -0.0377 -0.1108 -0.2634
 6686SOL    HW223590   5.527   7.387   7.402 -1.6789  1.1462  1.1120
 6687SOL     OW23591   5.428   1.988   7.177  0.9859  0.3039  0.1773
 6687SOL    HW123592   5.441   1.959   7.087  1.2481  2.0337 -0.3822
 6687SOL    HW223593   5.397   1.910   7.223  1.7759 -0.8606 -1.1789
 6688SOL     OW23594   9.049   1.011   3.347 -1.0479  0.1605  0.5065
 6688SOL    HW123595   9.020   1.065   3.421  0.4393  2.0266 -0.1719
 6688SOL    HW223596   9.138   1.041   3.330 -0.5197 -1.8842 -0.5683
 6689SOL     OW23597   0.613   2.650   1.554  0.3379  0.6797 -0.0795
 6689SOL    HW123598   0.612   2.707   1.631  1.5521  1.7646 -0.8209
 6689SOL    HW223599   0.636   2.708   1.482 -0.2007 -0.4262 -1.1813
 6690SOL     OW23600   5.306   0.983   3.499  0.4213  0.5925  0.1406
 6690SOL    HW123601   5.330   0.912   3.440  2.1674 -0.2174  1.7239
 6690SOL    HW223602   5.228   1.022   3.460 -1.4759 -3.0460 -0.1025
 6691SOL     OW23603   5.754   3.971  10.751 -0.4403 -0.3112  0.2767
 6691SOL    HW123604   5.838   4.016  10.739  0.2605 -1.4471  0.6954
 6691SOL    HW223605   5.712   4.018  10.823 -0.4135  0.5945 -0.2811
 6692SOL     OW23606   7.573   0.026   8.068  0.3816  0.6555 -0.2237
 6692SOL    HW123607   7.509   0.076   8.017  0.1513  0.4737 -0.1148
 6692SOL    HW223608   7.620  -0.027   8.003  0.4583  0.8273 -0.3091
 6693SOL     OW23609   7.731   3.089   3.390  0.3325  0.4651 -0.7697
 6693SOL    HW123610   7.772   3.047   3.314 -2.1144  0.9513 -2.4613
 6693SOL    HW223611   7.681   3.019   3.432  0.3689  0.5584 -0.5701
 6694SOL     OW23612   7.043   2.205   7.604  0.0694  0.3094 -0.2340
 6694SOL    HW123613   6.966   2.216   7.549 -0.5031 -0.4825  0.4045
 6694SOL    HW223614   7.041   2.280   7.664  0.4607  0.9369 -0.9692
 6695SOL     OW23615   8.591  10.016   4.915 -0.3520  0.5936  0.3093
 6695SOL    HW123616   8.668  10.073   4.915  1.4255 -1.6398  1.0694
 6695SOL    HW223617   8.565  10.011   5.007 -1.9131  1.8902 -0.0216
 6696SOL     OW23618   1.959   1.066   2.889 -0.1241  0.0416  0.1648
 6696SOL    HW123619   2.005   1.143   2.922  1.2183 -0.6952  0.0889
 6696SOL    HW223620   1.993   1.054   2.800 -0.3628 -0.6083  0.1540
 6697SOL     OW23621   5.524   5.024   7.252  0.3961  0.4578 -0.2509
 6697SOL    HW123622   5.581   5.001   7.179  0.9730 -0.0879  0.3634
 6697SOL    HW223623   5.583   5.045   7.323 -0.1398 -1.1127  0.7088
 6698SOL     OW23624   7.323   4.654   6.625  0.1372  0.1158  0.4243
 6698SOL    HW123625   7.376   4.576   6.616 -0.1068  0.1233 -1.5633
 6698SOL    HW223626   7.328   4.697   6.539 -2.5924  0.3933  0.2957
 6699SOL     OW23627   5.404   6.645   8.542 -0.6444  0.6445 -0.0275
 6699SOL    HW123628   5.476   6.698   8.509  0.6726 -1.3247 -0.5056
 6699SOL    HW223629   5.409   6.654   8.637  1.2791 -0.6736  0.0456
 6700SOL     OW23630   1.021   6.296   1.354  0.4265  0.0594  0.6214
 6700SOL    HW123631   0.953   6.258   1.410 -2.2963  3.4106 -0.0547
 6700SOL    HW223632   1.067   6.359   1.409  0.4737  0.4509  0.1457
 6701SOL     OW23633   8.267   2.350   4.115  0.2827  0.6032  0.1819
 6701SOL    HW123634   8.208   2.307   4.053  1.6655  0.2302 -0.9263
 6701SOL    HW223635   8.308   2.420   4.064 -0.0592  1.6250  1.2681
 6702SOL     OW23636   7.488   8.861   1.801 -0.3754 -0.4925  0.2504
 6702SOL    HW123637   7.462   8.820   1.884  1.6828 -0.5990  0.9229
 6702SOL    HW223638   7.575   8.824   1.783 -0.3286  0.3381 -1.4047
 6703SOL     OW23639   1.210   0.292   8.552 -0.0472 -0.1420  0.0321
 6703SOL    HW123640   1.130   0.247   8.525 -0.3763  1.7029 -2.4245
 6703SOL    HW223641   1.280   0.249   8.504  0.5057 -1.6375  2.0432
 6704SOL     OW23642   6.816   8.629   6.804 -0.1103  0.2794 -0.1829
 6704SOL    HW123643   6.888   8.676   6.761  0.6808 -2.2548 -1.8462
 6704SOL    HW223644   6.737   8.659   6.758  0.2639  0.5949 -0.6330
 6705SOL     OW23645   9.800   6.452   1.876 -0.1761 -0.0458 -0.7639
 6705SOL    HW123646   9.724   6.474   1.823 -0.2481  0.2804 -0.5280
 6705SOL    HW223647   9.768   6.386   1.937 -0.5235  0.7633 -0.0400
 6706SOL     OW23648  10.298  10.756   3.503  0.8169  0.0150  0.8110
 6706SOL    HW123649  10.380  10.805   3.508 -0.4411  2.5503 -1.0252
 6706SOL    HW223650  10.230  10.822   3.518 -0.9595 -1.1753 -1.3449
 6707SOL     OW23651  10.119   9.847   5.552  0.3731 -0.0514  0.2317
 6707SOL    HW123652  10.145   9.777   5.491 -0.1015 -0.9401  1.0077
 6707SOL    HW223653  10.181   9.918   5.536  0.5785 -0.4641 -0.9188
 6708SOL     OW23654   0.454   9.815   6.738  0.2780 -0.1647  0.1001
 6708SOL    HW123655   0.473   9.828   6.646  1.7183  0.0253  0.4008
 6708SOL    HW223656   0.378   9.871   6.755  0.1210 -0.0507 -0.9195
 6709SOL     OW23657   5.459   8.075   8.531 -0.0615  0.6408 -0.3092
 6709SOL    HW123658   5.509   8.005   8.572 -1.5666  0.1384  0.7356
 6709SOL    HW223659   5.488   8.155   8.575 -0.9805  0.2148  1.1093
 6710SOL     OW23660   1.553   9.301   3.374  0.6976 -0.4355  0.5618
 6710SOL    HW123661   1.548   9.354   3.295 -2.7257  0.1799  1.0461
 6710SOL    HW223662   1.551   9.364   3.446 -2.0564 -1.0045  1.1193
 6711SOL     OW23663   7.593   8.313   7.430 -0.3460 -0.2231 -0.8927
 6711SOL    HW123664   7.557   8.225   7.421  1.5718 -0.9535 -1.9905
 6711SOL    HW223665   7.641   8.328   7.349 -0.1968  1.6515 -0.5092
 6712SOL     OW23666   5.248   7.344   4.511  0.6825 -0.7391 -0.4817
 6712SOL    HW123667   5.282   7.312   4.595 -0.7235 -1.6825 -0.2271
 6712SOL    HW223668   5.305   7.305   4.445  0.2479 -2.1176 -0.0652
 6713SOL     OW23669   5.470   2.054   0.391  0.2804 -0.3540 -0.5444
 6713SOL    HW123670   5.392   2.108   0.400  0.4783 -0.3144  1.3792
 6713SOL    HW223671   5.494   2.061   0.299 -1.2617  0.6286 -0.9013
 6714SOL     OW23672   5.434   4.335   1.548  0.3350 -0.0772  0.2639
 6714SOL    HW123673   5.450   4.274   1.620  1.4171  1.1128  1.0534
 6714SOL    HW223674   5.378   4.402   1.586  0.8207  0.5002 -0.0312
 6715SOL     OW23675   8.333   1.323   4.707 -0.0319  0.8092  0.2284
 6715SOL    HW123676   8.324   1.376   4.628  0.7317  1.4599  0.5658
 6715SOL    HW223677   8.296   1.378   4.777  0.4112  0.7450  0.5175
 6716SOL     OW23678   8.969   3.174   5.815  0.5644  0.6930 -0.0689
 6716SOL    HW123679   9.042   3.181   5.753  0.3625 -0.6505 -0.4981
 6716SOL    HW223680   8.893   3.155   5.759  0.0620  1.1344  0.4573
 6717SOL     OW23681   4.768   4.188   7.721  0.3090 -0.0023 -0.3729
 6717SOL    HW123682   4.773   4.279   7.751 -0.0342  0.2150 -0.9572
 6717SOL    HW223683   4.681   4.181   7.681 -0.0775 -0.8652  0.5624
 6718SOL     OW23684   9.975   1.080   3.594 -0.1031 -0.4314  0.1236
 6718SOL    HW123685   9.889   1.109   3.626 -0.2792 -0.7224 -0.0826
 6718SOL    HW223686   9.961   0.990   3.567 -0.3435  0.2415 -2.2125
 6719SOL     OW23687   4.257   7.033   5.938  0.0480  0.0483  0.2233
 6719SOL    HW123688   4.226   6.952   5.897  0.6479  0.0982 -0.3393
 6719SOL    HW223689   4.188   7.097   5.920 -0.2388 -0.2357  0.3186
 6720SOL     OW23690   9.309   2.237   8.732  0.0358  0.2348  0.0537
 6720SOL    HW123691   9.237   2.183   8.764 -0.1199 -0.8165 -1.9050
 6720SOL    HW223692   9.379   2.224   8.797  0.1371 -2.6700 -0.4820
 6721SOL     OW23693   0.219   4.358   5.059  0.6144 -0.3146  0.5590
 6721SOL    HW123694   0.213   4.293   5.129  1.8179  0.0894  1.0735
 6721SOL    HW223695   0.161   4.325   4.991 -1.5625 -0.0964  2.1926
 6722SOL     OW23696   3.134   5.488   8.267  0.1477 -0.2008 -0.2891
 6722SOL    HW123697   3.072   5.437   8.320  0.9076 -2.4873 -1.4411
 6722SOL    HW223698   3.218   5.474   8.309  0.2458  0.9339 -0.0876
 6723SOL     OW23699   6.166   9.700   0.779 -0.6999  0.0540 -0.3969
 6723SOL    HW123700   6.229   9.765   0.747 -0.8850  0.1433 -0.5876
 6723SOL    HW223701   6.087   9.751   0.799 -0.4763  0.0490  0.5374
 6724SOL     OW23702   3.208   7.464   6.852  0.0859  0.6035 -0.1593
 6724SOL    HW123703   3.272   7.533   6.872  1.1951 -0.4204 -0.0473
 6724SOL    HW223704   3.211   7.456   6.757 -0.3527  0.9970 -0.2060
 6725SOL     OW23705  10.191   7.276   1.237 -0.4447  0.4048  0.3599
 6725SOL    HW123706  10.271   7.256   1.189  0.0603  1.1173  0.8702
 6725SOL    HW223707  10.120   7.251   1.178  0.1557 -0.1086 -0.1535
 6726SOL     OW23708   9.588   9.904   2.179  0.1987  0.0202 -0.3645
 6726SOL    HW123709   9.585   9.924   2.273  1.8203 -0.7441 -0.1248
 6726SOL    HW223710   9.664   9.953   2.147 -0.2251  0.1141 -1.2508
 6727SOL     OW23711   4.127   0.638   7.218 -0.2939  0.3819  0.1692
 6727SOL    HW123712   4.184   0.710   7.190 -0.6889  0.0603 -1.5480
 6727SOL    HW223713   4.176   0.559   7.194 -0.5641  0.0839  0.5944
 6728SOL     OW23714   7.205   9.878   7.253 -0.2172  0.1768  0.0851
 6728SOL    HW123715   7.286   9.889   7.203  0.1326  1.4087  0.8851
 6728SOL    HW223716   7.153   9.818   7.200  1.9975 -2.2918  0.5163
 6729SOL     OW23717   9.227   9.251   9.603 -0.3776  0.0901 -0.1323
 6729SOL    HW123718   9.310   9.211   9.578 -0.2344 -0.8415  1.6571
 6729SOL    HW223719   9.165   9.220   9.537  0.2430 -1.1103 -0.1871
 6730SOL     OW23720   6.159   6.187   2.626  0.3374  0.9393 -0.0212
 6730SOL    HW123721   6.152   6.147   2.713  0.7171  2.5246  0.7854
 6730SOL    HW223722   6.157   6.281   2.643  0.8137  1.2903 -1.7131
 6731SOL     OW23723   4.690   3.144   3.256 -0.5057  0.2545  0.1733
 6731SOL    HW123724   4.674   3.092   3.335  1.4874  1.6097  1.5573
 6731SOL    HW223725   4.707   3.232   3.288  0.6476  0.7851 -1.7609
 6732SOL     OW23726   9.204   9.658   4.932 -0.4134  0.5490  0.4196
 6732SOL    HW123727   9.215   9.716   5.008 -1.1010  0.1124  0.8626
 6732SOL    HW223728   9.190   9.718   4.859 -0.4256  0.9603  0.7510
 6733SOL     OW23729   0.771   1.701   1.706 -0.7378  0.3260 -0.4647
 6733SOL    HW123730   0.677   1.693   1.723 -1.1920  1.8992 -1.9449
 6733SOL    HW223731   0.777   1.719   1.612  1.0684  0.0542 -0.4373
 6734SOL     OW23732   8.586   4.890   1.433 -0.3789 -0.0026 -0.1793
 6734SOL    HW123733   8.676   4.905   1.461 -0.4591  0.5644 -0.2195
 6734SOL    HW223734   8.579   4.794   1.427  0.1641 -0.0596 -0.0070
 6735SOL     OW23735   5.119   6.780   7.597  0.3377  0.6665 -0.4270
 6735SOL    HW123736   5.130   6.871   7.627 -1.4782  0.8410 -0.1624
 6735SOL    HW223737   5.205   6.756   7.562  0.4922  2.9993 -1.8940
 6736SOL     OW23738   4.566   1.629   0.830 -0.3727  0.2499  0.0465
 6736SOL    HW123739   4.506   1.590   0.894  1.4513 -1.0135  1.0942
 6736SOL    HW223740   4.653   1.613   0.866  0.6705  0.8198 -2.0554
 6737SOL     OW23741   3.534   0.044   0.320 -0.2265 -0.1619 -0.1526
 6737SOL    HW123742   3.562  -0.026   0.379  1.4919  0.8987  0.3622
 6737SOL    HW223743   3.525   0.001   0.235  0.5135 -1.0690  0.2057
 6738SOL     OW23744   8.262   7.721   8.882 -0.0791  0.3305 -0.6450
 6738SOL    HW123745   8.274   7.632   8.915 -1.9749 -0.3356 -1.5595
 6738SOL    HW223746   8.350   7.752   8.861  0.9854 -0.0757  2.6467
 6739SOL     OW23747   8.088   5.380   6.262 -0.2607 -0.2488 -0.3200
 6739SOL    HW123748   8.182   5.383   6.281 -0.6477  1.1115  1.7269
 6739SOL    HW223749   8.068   5.287   6.251  1.0204 -0.7187  1.0813
 6740SOL     OW23750   9.529   9.763   8.020 -0.2270 -0.5640 -0.0237
 6740SOL    HW123751   9.495   9.677   7.993  0.2457 -1.2315  1.3771
 6740SOL    HW223752   9.458   9.824   8.002 -0.5605 -1.2441 -1.0728
 6741SOL     OW23753   7.107   7.426   0.689  0.0702  0.2069  0.2142
 6741SOL    HW123754   7.150   7.420   0.774  0.3556  2.2421  0.2761
 6741SOL    HW223755   7.179   7.436   0.627 -0.1921  0.4548 -0.0516
 6742SOL     OW23756   2.079   1.993  10.322  0.4390  0.7249 -0.0639
 6742SOL    HW123757   2.092   2.019  10.231  0.9411 -0.6595 -0.4217
 6742SOL    HW223758   2.056   2.074  10.368  2.1519  1.8102 -1.0309
 6743SOL     OW23759   3.539   7.154   0.039 -0.9821  0.0688  0.3562
 6743SOL    HW123760   3.465   7.112  -0.004  0.8381 -2.1343 -0.8185
 6743SOL    HW223761   3.578   7.209  -0.029  0.0944 -0.9969  0.0945
 6744SOL     OW23762   3.395  10.465   3.646 -0.0429  0.4624  0.0929
 6744SOL    HW123763   3.399  10.445   3.740 -1.2176  1.3237  0.3542
 6744SOL    HW223764   3.486  10.460   3.617  0.3796  0.4261  1.3389
 6745SOL     OW23765   6.636   0.265   6.996 -0.5499  0.1954  0.0427
 6745SOL    HW123766   6.587   0.222   7.066 -0.3766 -2.1181 -1.1411
 6745SOL    HW223767   6.580   0.336   6.967 -1.8086 -0.4759  0.7633
 6746SOL     OW23768   7.737   1.086   4.920  0.3950  0.3059 -0.2375
 6746SOL    HW123769   7.771   1.048   4.839 -0.8672  1.2961 -1.2611
 6746SOL    HW223770   7.754   1.179   4.912  0.8373  0.3512  0.9539
 6747SOL     OW23771   7.962   5.778   0.629  0.0268 -0.3473 -0.4231
 6747SOL    HW123772   7.995   5.755   0.716 -0.2635  0.2966 -0.1390
 6747SOL    HW223773   8.024   5.737   0.569  0.0269 -1.1136  0.0760
 6748SOL     OW23774   2.196   1.002   0.705 -0.7648  0.6928 -0.0589
 6748SOL    HW123775   2.213   0.912   0.679 -0.8134  0.7220 -0.1892
 6748SOL    HW223776   2.269   1.024   0.764 -0.4989  0.7274 -0.3988
 6749SOL     OW23777   7.202   4.950   0.100 -0.4478  0.1249 -0.2068
 6749SOL    HW123778   7.152   5.001   0.036  0.0112 -0.8163 -1.3669
 6749SOL    HW223779   7.136   4.901   0.149 -0.8203  0.9716  0.1412
 6750SOL     OW23780   5.363  10.881   3.483 -0.2097 -0.5170 -0.6974
 6750SOL    HW123781   5.346  10.794   3.448  0.0023 -1.6270  1.7489
 6750SOL    HW223782   5.431  10.917   3.427  1.9768 -3.2253  0.0114
 6751SOL     OW23783   4.915  10.713   1.636 -0.3083 -0.1372 -0.1653
 6751SOL    HW123784   4.953  10.700   1.723  0.9934  2.8969 -0.1572
 6751SOL    HW223785   4.823  10.689   1.646 -0.4293  1.0796  2.3686
 6752SOL     OW23786   5.439   8.603   8.920  0.4175 -0.2513 -0.2097
 6752SOL    HW123787   5.347   8.589   8.945  0.1677 -0.4219 -1.1845
 6752SOL    HW223788   5.482   8.521   8.943  0.4693  0.0546  0.8403
 6753SOL     OW23789   9.616   6.560   1.670  0.5736 -0.0194  0.4999
 6753SOL    HW123790   9.576   6.600   1.747  1.2544 -0.7400  1.2563
 6753SOL    HW223791   9.551   6.495   1.640  0.3487  0.1903  0.5317
 6754SOL     OW23792   7.783   2.999   4.846  0.0208  0.3046 -0.4372
 6754SOL    HW123793   7.781   2.933   4.776  0.1292  1.1941 -1.2979
 6754SOL    HW223794   7.716   2.970   4.908  0.1727 -0.6912 -0.7260
 6755SOL     OW23795   9.097   8.967   6.229  0.3858  0.1578 -0.2390
 6755SOL    HW123796   9.012   8.951   6.189 -0.4860  0.7937  1.2518
 6755SOL    HW223797   9.154   8.996   6.157 -1.1532  1.4818 -0.9835
 6756SOL     OW23798   2.495   4.551   4.624 -0.5160  0.4199 -0.0561
 6756SOL    HW123799   2.457   4.572   4.710  1.7895 -1.1916  1.4749
 6756SOL    HW223800   2.522   4.460   4.631  0.7925  0.5903 -2.0999
 6757SOL     OW23801   1.822   7.229   6.153  0.6872 -0.1662 -0.2439
 6757SOL    HW123802   1.916   7.236   6.134  0.6412  0.6687 -0.1926
 6757SOL    HW223803   1.804   7.302   6.212 -0.3254  0.6693 -1.5325
 6758SOL     OW23804  11.080  11.076   5.457 -0.2712 -0.2245  0.2199
 6758SOL    HW123805  11.098  10.998   5.406 -1.3501  0.2577 -0.9594
 6758SOL    HW223806  11.031  11.045   5.533 -0.7650 -0.6853 -0.2866
 6759SOL     OW23807   0.805   7.338   2.412  0.1040  0.4885  0.1511
 6759SOL    HW123808   0.717   7.336   2.451  0.5475  0.6125  1.1887
 6759SOL    HW223809   0.791   7.310   2.322 -0.9165 -0.1519  0.4818
 6760SOL     OW23810   4.693   9.337   9.168  0.1709  0.0047  0.1167
 6760SOL    HW123811   4.743   9.337   9.087  0.9804  0.5352  0.5983
 6760SOL    HW223812   4.759   9.346   9.237 -0.5855  0.8171  0.7594
 6761SOL     OW23813   0.498   1.678   3.883 -0.8577 -0.0668  0.4759
 6761SOL    HW123814   0.462   1.763   3.858 -0.8639 -0.6259 -1.6111
 6761SOL    HW223815   0.523   1.637   3.800  1.7192 -0.9871  1.6090
 6762SOL     OW23816   8.474   6.953   7.158  0.1285 -0.3885 -0.1744
 6762SOL    HW123817   8.548   6.940   7.218  0.6794  0.4657 -0.6486
 6762SOL    HW223818   8.407   6.894   7.191 -0.0379  0.9154  2.0594
 6763SOL     OW23819   2.782   0.256   6.312 -0.5550 -0.2443 -0.0208
 6763SOL    HW123820   2.713   0.218   6.258  1.4854 -4.1431 -0.1961
 6763SOL    HW223821   2.830   0.313   6.251 -2.9967  1.9700 -0.0669
 6764SOL     OW23822   9.858   8.600   9.120  0.0903  0.3097  0.1715
 6764SOL    HW123823   9.825   8.689   9.113 -1.3305 -0.1781  0.4497
 6764SOL    HW223824   9.834   8.571   9.208 -0.3735 -0.6997 -0.2692
 6765SOL     OW23825   3.124  10.685   1.700  0.1923 -0.4871  0.2044
 6765SOL    HW123826   3.032  10.677   1.672  0.4230  0.9430 -1.0527
 6765SOL    HW223827   3.123  10.658   1.792 -1.0055 -3.1032 -0.4736
 6766SOL     OW23828   7.583   3.697   7.583  0.0609 -0.1928 -0.2011
 6766SOL    HW123829   7.536   3.652   7.654  0.5595 -0.5867 -0.1115
 6766SOL    HW223830   7.653   3.637   7.560  2.0375  1.3918  1.3240
 6767SOL     OW23831   3.937   4.643   6.230  0.3357  0.1344  0.2218
 6767SOL    HW123832   3.878   4.576   6.265  1.3918 -1.7157 -1.3586
 6767SOL    HW223833   4.025   4.612   6.251  0.8815  0.5517 -1.3035
 6768SOL     OW23834  11.035   7.189   2.036 -0.4194  0.1268  0.0630
 6768SOL    HW123835  11.113   7.143   2.005 -0.3117 -0.9370  1.7918
 6768SOL    HW223836  11.055   7.282   2.025  0.8299 -0.1541 -0.1258
 6769SOL     OW23837   9.696   9.040   9.548  0.0536  0.6066  0.3347
 6769SOL    HW123838   9.753   9.085   9.485 -0.4361  1.2217  0.3208
 6769SOL    HW223839   9.754   9.016   9.620  0.7873 -0.8228 -0.6856
 6770SOL     OW23840   0.565   4.547   9.918 -0.0367 -0.0500  0.1803
 6770SOL    HW123841   0.530   4.636   9.916  0.0518 -0.0302 -0.9109
 6770SOL    HW223842   0.626   4.543   9.844 -1.8988 -1.7612 -1.3792
 6771SOL     OW23843   9.078   6.959   0.998  0.5425  0.2326 -0.5518
 6771SOL    HW123844   9.153   6.953   0.938  1.1601  1.2106  0.0890
 6771SOL    HW223845   9.060   7.052   1.005  0.3254  0.1252  0.5701
 6772SOL     OW23846   5.798   5.378  10.963 -0.4055 -0.3715 -0.7785
 6772SOL    HW123847   5.746   5.303  10.935 -0.8982  0.1232 -1.2003
 6772SOL    HW223848   5.888   5.345  10.963 -0.7468 -1.4352  0.6049
 6773SOL     OW23849   1.197   0.507   9.508  0.3327  0.7632  0.3424
 6773SOL    HW123850   1.281   0.547   9.487  0.0106  1.7222  0.7939
 6773SOL    HW223851   1.184   0.525   9.601 -1.2251  2.3391 -0.1174
 6774SOL     OW23852   2.750   8.042   4.702  0.2556 -0.3095  0.4908
 6774SOL    HW123853   2.711   8.108   4.759  2.1350  0.2728  1.1814
 6774SOL    HW223854   2.764   7.966   4.758  0.9595 -0.1731  0.5182
 6775SOL     OW23855   7.507   4.666   3.322  0.2643 -0.0729  0.0537
 6775SOL    HW123856   7.557   4.719   3.260  0.5891 -0.8052 -0.3227
 6775SOL    HW223857   7.434   4.631   3.271 -2.7972  3.7337  1.3204
 6776SOL     OW23858   7.457   6.135   5.938 -0.5535  0.5631 -0.5497
 6776SOL    HW123859   7.537   6.187   5.927 -0.6111  0.8382  0.2808
 6776SOL    HW223860   7.421   6.163   6.022 -0.7060 -0.6683 -0.1914
 6777SOL     OW23861  10.882   0.946   2.804  0.5798 -0.0418 -0.5095
 6777SOL    HW123862  10.838   0.884   2.746  0.7794 -1.8769  1.1963
 6777SOL    HW223863  10.842   0.932   2.890  1.4201  1.4105  0.1669
 6778SOL     OW23864  10.517  10.077   4.326 -0.4939  0.0851  0.2185
 6778SOL    HW123865  10.470  10.062   4.244 -0.3691  0.2466  0.1168
 6778SOL    HW223866  10.609  10.087   4.299 -0.4479  0.1005  0.3824
 6779SOL     OW23867   9.100   9.868  10.458 -0.2251  0.3941 -0.0011
 6779SOL    HW123868   9.037   9.798  10.444  1.2370 -0.6986 -1.5741
 6779SOL    HW223869   9.066   9.942  10.408 -2.0967  1.0955  2.1707
 6780SOL     OW23870   1.444   6.151   4.528  0.6377  0.1313 -0.1820
 6780SOL    HW123871   1.523   6.192   4.492  1.5525 -0.4073  1.1348
 6780SOL    HW223872   1.476   6.094   4.598 -0.7644 -1.4400 -0.7512
 6781SOL     OW23873  10.691   4.017   6.950  0.2575  0.3982 -0.3202
 6781SOL    HW123874  10.772   4.059   6.980  0.7041 -0.5977 -0.0579
 6781SOL    HW223875  10.717   3.926   6.934 -1.0206 -0.1768  0.7005
 6782SOL     OW23876   4.650   9.660   4.986 -0.3619 -0.4458 -0.1287
 6782SOL    HW123877   4.647   9.596   5.057 -0.1338 -0.4465 -0.1200
 6782SOL    HW223878   4.566   9.706   4.992 -1.0966 -1.6347 -0.9658
 6783SOL     OW23879   7.047   1.702   7.717 -0.5587  0.1890 -0.7228
 6783SOL    HW123880   7.071   1.794   7.714 -0.6717  0.2634  0.2246
 6783SOL    HW223881   7.130   1.655   7.710  0.4319  0.4470  4.6312
 6784SOL     OW23882  10.217   3.673   8.461  0.2626  0.1702 -0.5601
 6784SOL    HW123883  10.224   3.705   8.371 -0.1472 -0.0598 -0.6787
 6784SOL    HW223884  10.123   3.674   8.479  0.3348  0.0983 -0.1774
 6785SOL     OW23885   9.703   4.124   2.250 -0.4712  0.1039 -0.0432
 6785SOL    HW123886   9.725   4.080   2.331  1.1234  1.5144  0.3408
 6785SOL    HW223887   9.708   4.217   2.271  3.2983  0.6562 -2.4564
 6786SOL     OW23888   3.179   1.132   2.043  0.1477 -0.1322  0.5968
 6786SOL    HW123889   3.127   1.066   2.088 -3.0940 -2.0391 -4.8892
 6786SOL    HW223890   3.263   1.089   2.026  0.7703  0.0137  2.9887
 6787SOL     OW23891   5.700   9.964   0.582  0.0621 -0.2871 -0.2325
 6787SOL    HW123892   5.613   9.936   0.609 -0.3552  1.1882 -0.0016
 6787SOL    HW223893   5.686  10.019   0.505  0.7643  0.1959 -0.0291
 6788SOL     OW23894   5.529   1.681   6.287 -0.4125  0.5545  0.2121
 6788SOL    HW123895   5.444   1.663   6.327 -1.0765  0.9959 -0.9608
 6788SOL    HW223896   5.513   1.679   6.193 -0.1128  4.8881 -0.1210
 6789SOL     OW23897   2.582   5.287   6.752 -0.1627  0.3749  0.1097
 6789SOL    HW123898   2.533   5.232   6.813 -0.5005 -0.2145 -0.6745
 6789SOL    HW223899   2.645   5.228   6.710  0.5698  0.9237  0.4089
 6790SOL     OW23900   8.411   5.792   2.285  0.1924 -0.6363 -0.3058
 6790SOL    HW123901   8.414   5.697   2.287  0.0194 -0.6332  0.3260
 6790SOL    HW223902   8.480   5.819   2.345  1.6579 -0.3256 -2.0292
 6791SOL     OW23903   5.529   9.779   5.616 -0.3386 -0.2038  0.5839
 6791SOL    HW123904   5.485   9.845   5.669  1.0771  1.0181  0.3043
 6791SOL    HW223905   5.585   9.732   5.678 -0.5050 -0.3974  0.5884
 6792SOL     OW23906   9.083   2.708   5.233  0.0066 -0.6371 -0.1346
 6792SOL    HW123907   9.010   2.668   5.281 -0.4926 -1.0709 -1.2104
 6792SOL    HW223908   9.083   2.799   5.260  0.2198 -1.0200  1.2484
 6793SOL     OW23909   8.007   0.753  11.013 -0.0883 -0.0148 -0.2042
 6793SOL    HW123910   8.096   0.717  11.008  0.5462  1.5915 -1.8116
 6793SOL    HW223911   7.954   0.693  10.961  0.0829 -0.8504  0.5575
 6794SOL     OW23912   0.077   5.680   6.865 -0.0170  0.3482  0.7536
 6794SOL    HW123913   0.169   5.656   6.876 -0.1714  0.1831  1.8522
 6794SOL    HW223914   0.030   5.598   6.874 -0.2137  0.2439 -1.0078
 6795SOL     OW23915   5.427   0.277   8.317 -0.8062 -0.3235  0.2534
 6795SOL    HW123916   5.452   0.245   8.230 -1.0515 -0.7496  0.3362
 6795SOL    HW223917   5.509   0.306   8.356 -0.3248 -2.1854  0.7156
 6796SOL     OW23918   3.173   9.914   5.918 -0.3976  0.0828 -0.3957
 6796SOL    HW123919   3.103   9.879   5.973 -0.5917  1.4358  0.2696
 6796SOL    HW223920   3.253   9.888   5.962 -0.5241  0.0046 -0.2123
 6797SOL     OW23921   7.822  10.630   0.468 -0.1501 -0.0353 -0.1831
 6797SOL    HW123922   7.728  10.614   0.476 -0.1124  0.6055  2.0538
 6797SOL    HW223923   7.830  10.725   0.466  0.4536 -0.0866 -0.2939
 6798SOL     OW23924   1.226   7.298   2.896  0.1507 -0.7151  0.6686
 6798SOL    HW123925   1.166   7.224   2.899  0.2284 -0.7843  0.5168
 6798SOL    HW223926   1.200   7.353   2.969 -1.0736 -0.0010 -0.2675
 6799SOL     OW23927  10.592   4.297  10.030  0.1770 -0.0704 -0.1277
 6799SOL    HW123928  10.656   4.366  10.011  1.7680 -1.7710 -1.2686
 6799SOL    HW223929  10.543   4.287   9.949 -0.7160  0.3407  0.3431
 6800SOL     OW23930   8.008  10.919   2.187  0.0364 -0.0846 -0.3950
 6800SOL    HW123931   7.994  10.874   2.270  0.4744 -2.0737 -1.3251
 6800SOL    HW223932   8.018  11.011   2.210 -0.0886 -0.5610  1.7123
 6801SOL     OW23933  10.868   6.124   3.975 -0.0103  0.1474  0.2213
 6801SOL    HW123934  10.888   6.185   3.904 -0.4408  0.4739  0.3708
 6801SOL    HW223935  10.922   6.154   4.048  0.7543 -0.4491 -0.0867
 6802SOL     OW23936   0.812   0.369   9.540 -0.7572  0.1537 -0.4037
 6802SOL    HW123937   0.860   0.396   9.462  1.7696  0.1717  1.0308
 6802SOL    HW223938   0.722   0.359   9.511  0.1516 -0.3239 -3.4068
 6803SOL     OW23939   2.371   0.982   9.399 -0.4354  1.1906 -0.5590
 6803SOL    HW123940   2.439   0.992   9.466 -1.8043 -2.7416  1.7339
 6803SOL    HW223941   2.412   0.929   9.331 -0.4691  0.9999 -0.4307
 6804SOL     OW23942   8.142   9.416  10.924  0.5782 -0.3223 -0.1305
 6804SOL    HW123943   8.206   9.349  10.899  0.0529 -0.7353 -0.3825
 6804SOL    HW223944   8.063   9.393  10.876  0.2529  0.2161  0.1389
 6805SOL     OW23945  10.703  10.376   9.783  0.9373  0.5670  0.4346
 6805SOL    HW123946  10.641  10.349   9.715  1.4393 -0.0442  0.2168
 6805SOL    HW223947  10.666  10.457   9.817  0.5373  0.7354 -0.3771
 6806SOL     OW23948   5.704   4.028   6.279 -0.6620  0.7531  0.4089
 6806SOL    HW123949   5.679   4.064   6.194 -0.6672  1.4931  0.7186
 6806SOL    HW223950   5.632   4.052   6.337 -1.3084 -0.8866  0.3544
 6807SOL     OW23951   4.732   1.458   7.419  0.1800 -0.2013  0.0817
 6807SOL    HW123952   4.667   1.447   7.350  1.1531  1.0137 -1.0844
 6807SOL    HW223953   4.695   1.523   7.478 -0.0417 -0.1791 -0.0807
 6808SOL     OW23954   7.715   9.799   8.108  0.3785  0.0463 -0.0774
 6808SOL    HW123955   7.809   9.787   8.098  0.2846  0.3771 -1.6344
 6808SOL    HW223956   7.703   9.894   8.109 -0.0206  0.0154 -0.9777
 6809SOL     OW23957   6.471   0.565   8.817 -0.5662 -0.1727 -0.5860
 6809SOL    HW123958   6.392   0.513   8.803 -0.5237 -0.2775 -0.4458
 6809SOL    HW223959   6.538   0.501   8.841  0.0161 -0.2892 -2.3792
 6810SOL     OW23960  10.847   1.672   6.965  0.6516 -0.4574 -0.3014
 6810SOL    HW123961  10.779   1.623   6.919  1.0770  0.0660 -1.5170
 6810SOL    HW223962  10.914   1.689   6.899  1.4358  0.0389  0.5915
 6811SOL     OW23963   1.558   3.224   2.277 -0.3080  0.0437  0.0401
 6811SOL    HW123964   1.567   3.222   2.182 -0.8446 -1.0685 -0.0036
 6811SOL    HW223965   1.464   3.239   2.292 -0.3515 -0.5281  0.3817
 6812SOL     OW23966   0.876   4.441   2.658 -0.1134  0.7101 -0.4774
 6812SOL    HW123967   0.895   4.350   2.681 -0.6893  0.9636  1.0976
 6812SOL    HW223968   0.920   4.493   2.725 -2.3840  1.4550  0.5495
 6813SOL     OW23969   0.657   7.508   7.334  0.2102 -0.1733  0.3532
 6813SOL    HW123970   0.686   7.558   7.411 -1.6183 -0.2761  1.1671
 6813SOL    HW223971   0.668   7.416   7.360  0.0446 -0.2054  0.3099
 6814SOL     OW23972   4.876   7.284   7.936 -0.3743  0.6740 -0.4230
 6814SOL    HW123973   4.807   7.218   7.929  0.3560 -0.1579 -0.0989
 6814SOL    HW223974   4.898   7.305   7.846 -0.4867  0.3320 -0.5328
 6815SOL     OW23975   7.416   4.662   3.833  0.1544 -0.3275 -0.5370
 6815SOL    HW123976   7.347   4.598   3.847  0.2330 -0.0784  1.1943
 6815SOL    HW223977   7.495   4.621   3.868  0.1717  0.7422  0.7608
 6816SOL     OW23978   7.419   7.796  10.052  0.2709 -0.1987 -0.7312
 6816SOL    HW123979   7.357   7.726  10.070  1.7015 -1.4518 -0.4120
 6816SOL    HW223980   7.448   7.780   9.962 -0.0508  0.5218 -0.9685
 6817SOL     OW23981   0.496   7.942  10.680 -0.3618  0.1172 -0.1799
 6817SOL    HW123982   0.555   7.990  10.621  0.4370 -1.7882 -0.9973
 6817SOL    HW223983   0.491   7.854  10.643 -2.2085 -0.3227  0.9802
 6818SOL     OW23984  10.709   8.393  10.467 -0.6570 -0.6030  0.4417
 6818SOL    HW123985  10.770   8.414  10.397 -1.7583 -1.0979 -0.7298
 6818SOL    HW223986  10.757   8.335  10.525  0.8875  1.3125  1.1622
 6819SOL     OW23987   4.375   7.921   9.833 -0.8471 -0.2871 -0.7299
 6819SOL    HW123988   4.339   7.866   9.763  0.0202 -0.7581 -0.8160
 6819SOL    HW223989   4.469   7.906   9.830 -0.9078 -1.6598  1.6503
 6820SOL     OW23990   1.991   0.342   7.509  0.1034 -0.1283  0.0651
 6820SOL    HW123991   1.922   0.339   7.443 -0.6878  0.7282  0.8207
 6820SOL    HW223992   1.945   0.360   7.591  1.1293 -0.5081  0.7466
 6821SOL     OW23993   4.838   9.365   3.993  0.3359 -0.2078 -0.1070
 6821SOL    HW123994   4.910   9.371   4.057  1.3984 -0.3578 -1.2530
 6821SOL    HW223995   4.804   9.276   4.004  1.6947 -0.8644 -0.9463
 6822SOL     OW23996   4.245   7.031   8.772 -0.0318 -0.3750  0.3165
 6822SOL    HW123997   4.236   6.939   8.794  2.0093  0.0447  3.5399
 6822SOL    HW223998   4.158   7.068   8.789 -0.5560 -1.4703  0.1047
 6823SOL     OW23999   4.600   5.692   5.677 -0.1123  0.2845 -0.3886
 6823SOL    HW124000   4.573   5.601   5.665  0.3744 -0.3807  2.6919
 6823SOL    HW224001   4.542   5.726   5.745  2.9823  0.4962  2.4192
 6824SOL     OW24002   5.536   1.148   9.762 -0.3460  0.2015  0.3635
 6824SOL    HW124003   5.476   1.151   9.837  0.3829 -0.7518  1.0097
 6824SOL    HW224004   5.513   1.067   9.717 -1.0257  0.9530 -0.6806
 6825SOL     OW24005  10.751   6.807   8.475  0.5058  0.3282 -0.1675
 6825SOL    HW124006  10.677   6.746   8.466 -0.8208  1.5685  1.6113
 6825SOL    HW224007  10.712   6.887   8.509  2.4591  1.6409 -0.8632
 6826SOL     OW24008   4.369   8.932  10.325 -0.2498 -0.9815 -0.0432
 6826SOL    HW124009   4.302   8.864  10.316 -0.2988 -0.9944  0.4110
 6826SOL    HW224010   4.344   8.980  10.404 -0.7952  0.2050 -0.8985
 6827SOL     OW24011   2.899   5.705  10.722 -0.4892  0.0954  0.2603
 6827SOL    HW124012   2.905   5.735  10.631  1.8887  0.9879  0.6511
 6827SOL    HW224013   2.893   5.785  10.773 -0.3200 -0.3482  0.9829
 6828SOL     OW24014   2.584   1.379   6.106  0.5048  0.2309  0.4929
 6828SOL    HW124015   2.582   1.346   6.017  0.2563 -0.5641  0.7875
 6828SOL    HW224016   2.677   1.390   6.126  0.6053 -0.5026  0.4600
 6829SOL     OW24017   6.304   1.773   7.900 -0.4302 -0.1244  0.3451
 6829SOL    HW124018   6.372   1.823   7.854 -0.2191  0.4177  1.2368
 6829SOL    HW224019   6.306   1.687   7.857 -1.6105  0.9300 -2.0151
 6830SOL     OW24020   4.553   7.581   4.080  0.1508 -0.7791  0.1509
 6830SOL    HW124021   4.514   7.494   4.089  0.5756 -1.0013 -0.0948
 6830SOL    HW224022   4.510   7.619   4.003 -1.6254  0.1094  1.5325
 6831SOL     OW24023   6.248   8.511   5.841 -0.4018 -0.3769 -0.7179
 6831SOL    HW124024   6.275   8.558   5.920  0.6720 -1.8297 -0.1660
 6831SOL    HW224025   6.304   8.546   5.772 -0.4146 -0.0306 -0.5531
 6832SOL     OW24026   0.769  10.163   6.444  0.0180 -0.1289 -0.3658
 6832SOL    HW124027   0.818  10.215   6.381  0.1750  0.0072 -0.1317
 6832SOL    HW224028   0.831  10.147   6.516 -0.3207  0.1609 -0.0065
 6833SOL     OW24029  10.712   7.966   4.002 -0.0414 -0.4925 -0.3033
 6833SOL    HW124030  10.638   7.985   4.060  0.6675  0.5898  0.2703
 6833SOL    HW224031  10.715   8.040   3.941 -0.0977 -1.0792 -1.0375
 6834SOL     OW24032   6.938   3.147   7.210 -0.2421  0.1601 -0.5029
 6834SOL    HW124033   7.002   3.217   7.200 -0.5795  0.8311  1.5337
 6834SOL    HW224034   6.854   3.193   7.219 -0.9244 -0.6649 -2.1937
 6835SOL     OW24035   6.245   6.875   4.927 -0.4126 -0.3632  0.4563
 6835SOL    HW124036   6.302   6.915   4.992 -0.3982  1.3210 -0.5287
 6835SOL    HW224037   6.305   6.839   4.862 -0.4148  1.0842 -0.3917
 6836SOL     OW24038  10.235   4.732   8.325  0.3457  0.1428  0.0734
 6836SOL    HW124039  10.255   4.816   8.284  0.5805  0.5336  0.9492
 6836SOL    HW224040  10.185   4.756   8.404  0.8422 -0.4982  0.5944
 6837SOL     OW24041   2.736   4.711   4.682 -0.0259 -0.5418  0.0490
 6837SOL    HW124042   2.796   4.638   4.697 -0.3113 -0.5931  1.0052
 6837SOL    HW224043   2.715   4.706   4.588  1.6577 -0.3556 -0.3815
 6838SOL     OW24044   2.412  10.426   5.464 -0.4600  0.0452 -0.0080
 6838SOL    HW124045   2.468  10.398   5.536 -1.0895  0.0151  0.4733
 6838SOL    HW224046   2.436  10.517   5.449  1.4107 -0.5845 -1.4034
 6839SOL     OW24047  11.092   4.775   1.779 -0.1846  0.5253 -0.0066
 6839SOL    HW124048  11.059   4.794   1.866 -1.5289  0.4049 -0.4729
 6839SOL    HW224049  11.116   4.861   1.743 -0.1932  0.6350  0.2511
 6840SOL     OW24050  10.656   2.209   9.115  0.4219 -0.7026 -0.8011
 6840SOL    HW124051  10.591   2.139   9.105  1.4766 -1.7212 -0.6730
 6840SOL    HW224052  10.719   2.193   9.045  1.5582 -0.8807  0.2368
 6841SOL     OW24053   8.615   4.702   5.537 -0.0860  0.3955 -0.2467
 6841SOL    HW124054   8.657   4.630   5.491 -0.3383  0.9598 -1.3807
 6841SOL    HW224055   8.650   4.781   5.496 -0.1322  0.9243  0.6940
 6842SOL     OW24056   5.253   5.232   7.476 -0.2758  0.3354 -0.1330
 6842SOL    HW124057   5.315   5.305   7.484 -0.1086  0.1546  0.2546
 6842SOL    HW224058   5.173   5.271   7.441 -0.9198  1.1186  2.0740
 6843SOL     OW24059   4.204   3.951   0.980  0.3801 -0.0277 -0.5794
 6843SOL    HW124060   4.278   3.971   0.922  0.8688 -0.1805 -0.0236
 6843SOL    HW224061   4.242   3.952   1.068 -0.3918  0.4123 -0.2408
 6844SOL     OW24062   0.972   5.613   0.693  0.1184  0.3315  0.0655
 6844SOL    HW124063   0.989   5.584   0.783  0.3206  2.3615  0.7425
 6844SOL    HW224064   1.010   5.700   0.689  0.7462  0.0087 -2.2450
 6845SOL     OW24065   2.217   6.624   4.694  0.6101  0.1396  0.2973
 6845SOL    HW124066   2.286   6.569   4.732  0.2458 -1.2880 -1.0091
 6845SOL    HW224067   2.140   6.569   4.693  0.1900  0.7153 -0.9242
 6846SOL     OW24068   0.794   2.753  10.495  0.1682  0.3417  0.0015
 6846SOL    HW124069   0.725   2.757  10.429 -0.2896  1.8388  0.5139
 6846SOL    HW224070   0.756   2.796  10.572  1.3946  0.5047  0.5404
 6847SOL     OW24071   6.959   4.935   8.113 -0.0338 -0.0636  0.5051
 6847SOL    HW124072   6.899   4.958   8.185  0.0597  1.0831  0.2391
 6847SOL    HW224073   7.007   5.016   8.096  1.2139 -0.8150  0.3388
 6848SOL     OW24074   2.786   3.979   3.970  1.0050  0.7044 -0.3024
 6848SOL    HW124075   2.715   3.956   4.029  1.3766 -2.0528 -0.7806
 6848SOL    HW224076   2.864   3.938   4.009  1.4453 -0.2649 -2.0767
 6849SOL     OW24077   5.825   6.942   8.646  0.0780  0.1132  0.3029
 6849SOL    HW124078   5.875   6.992   8.582 -1.4410  0.4791 -0.6442
 6849SOL    HW224079   5.742   6.923   8.602 -1.0386  0.4241  2.1675
 6850SOL     OW24080   1.196   3.560   0.635  0.4902 -0.3383 -0.4128
 6850SOL    HW124081   1.177   3.540   0.727 -0.8022 -0.4204 -0.6719
 6850SOL    HW224082   1.263   3.628   0.638 -0.8902  1.0315  0.6452
 6851SOL     OW24083   4.668   7.762   5.448  0.5117  0.8730 -0.4685
 6851SOL    HW124084   4.636   7.675   5.472  0.3903  0.6041 -1.5861
 6851SOL    HW224085   4.742   7.777   5.507  0.3314  0.1513 -0.0498
 6852SOL     OW24086   5.349  10.323   0.180 -0.3054  0.1869  0.1589
 6852SOL    HW124087   5.274  10.264   0.175  1.5188 -2.2405 -0.6913
 6852SOL    HW224088   5.371  10.327   0.273 -0.5459 -0.3443  0.2404
 6853SOL     OW24089   5.547   0.263   1.632 -0.1447  0.3740  0.1523
 6853SOL    HW124090   5.462   0.224   1.656 -0.0950  0.3044  0.2172
 6853SOL    HW224091   5.531   0.358   1.634  0.0989  0.4084  1.4061
 6854SOL     OW24092   2.290   4.360   6.836 -0.0624 -0.0406 -0.3774
 6854SOL    HW124093   2.271   4.331   6.925  1.1961 -2.0558 -0.7004
 6854SOL    HW224094   2.326   4.282   6.792  2.3497  1.6838 -1.7167
 6855SOL     OW24095   9.502   0.998   1.792  0.3913 -0.5947 -0.1850
 6855SOL    HW124096   9.457   1.082   1.796  0.5824 -0.5259  1.3634
 6855SOL    HW224097   9.434   0.933   1.812  0.6953 -0.5923  0.9281
 6856SOL     OW24098   9.659   7.461   8.811 -0.1254 -0.4593  0.1979
 6856SOL    HW124099   9.650   7.417   8.896 -0.9159 -1.6469 -0.4736
 6856SOL    HW224100   9.598   7.535   8.817  0.9613  0.3888  1.2158
 6857SOL     OW24101   5.574  10.084   3.839 -0.3217  0.2668  0.3289
 6857SOL    HW124102   5.520  10.010   3.864  0.4198 -0.4064 -0.0325
 6857SOL    HW224103   5.635  10.049   3.775 -0.9610  1.5298 -1.0440
 6858SOL     OW24104   5.998   0.161   3.489 -0.9198  0.1372  0.6940
 6858SOL    HW124105   6.009   0.116   3.406  0.2269 -0.4412  1.1317
 6858SOL    HW224106   5.966   0.248   3.465  3.5012  1.6479 -0.8304
 6859SOL     OW24107   6.927   4.605   7.058 -0.0767  0.3485  0.0086
 6859SOL    HW124108   6.951   4.692   7.087 -0.2653  0.6389 -0.6822
 6859SOL    HW224109   7.009   4.556   7.058 -0.4057 -0.4113  3.3923
 6860SOL     OW24110   0.739   6.855  10.684 -0.4094  0.0925 -0.0579
 6860SOL    HW124111   0.685   6.839  10.761 -3.2407  3.2745 -1.0965
 6860SOL    HW224112   0.809   6.913  10.714 -0.6684  0.1774  0.3782
 6861SOL     OW24113   0.515   8.614   2.106 -0.2565 -0.0292 -0.2651
 6861SOL    HW124114   0.554   8.558   2.039  0.0251 -1.4636  1.0348
 6861SOL    HW224115   0.431   8.640   2.070  0.3995  0.2580 -1.6714
 6862SOL     OW24116   9.060   8.668   4.409 -0.1630  0.1113 -0.0798
 6862SOL    HW124117   9.068   8.731   4.481  0.0856 -1.7594  1.6128
 6862SOL    HW224118   8.966   8.653   4.399 -0.1847  0.1707  0.0386
 6863SOL     OW24119   0.754   6.269   8.976 -0.7353  0.2359 -0.0418
 6863SOL    HW124120   0.744   6.180   9.010 -0.1317  0.2559  0.2034
 6863SOL    HW224121   0.669   6.310   8.991 -1.4785 -0.7219 -1.4355
 6864SOL     OW24122   1.940   1.602   1.212 -0.1599 -0.0072  0.0505
 6864SOL    HW124123   1.969   1.640   1.295  1.0486  0.5512 -0.6000
 6864SOL    HW224124   1.863   1.551   1.235  1.7980 -2.3318  2.0880
 6865SOL     OW24125   9.971   9.172   4.719  0.2527  0.0479  0.2206
 6865SOL    HW124126   9.923   9.123   4.786  0.5856 -0.2877  0.2145
 6865SOL    HW224127  10.043   9.114   4.693  1.3345  0.9754  1.0370
 6866SOL     OW24128  10.251   8.035  10.776 -0.1057 -0.1341  0.0146
 6866SOL    HW124129  10.250   7.956  10.830  0.6049 -0.6234 -0.6672
 6866SOL    HW224130  10.165   8.036  10.734 -0.7603  0.3891  1.3301
 6867SOL     OW24131   8.498   7.370   3.386 -0.0884 -0.4208 -0.2934
 6867SOL    HW124132   8.492   7.275   3.389 -0.1088 -0.4335 -0.7634
 6867SOL    HW224133   8.459   7.395   3.303 -3.0198  0.2300  1.1296
 6868SOL     OW24134   2.211   7.817   7.494  0.0729  0.1263  0.7435
 6868SOL    HW124135   2.238   7.806   7.403 -2.4854 -0.5256 -0.0292
 6868SOL    HW224136   2.237   7.906   7.517 -0.2972  0.7407 -1.0473
 6869SOL     OW24137   2.233   7.790   0.983  0.4934 -0.3768  0.0228
 6869SOL    HW124138   2.161   7.830   0.933  0.9791 -0.1545 -0.5175
 6869SOL    HW224139   2.217   7.696   0.976  0.5799 -0.3523 -0.6039
 6870SOL     OW24140  10.805   7.707   4.787 -0.3341  0.0195 -0.2408
 6870SOL    HW124141  10.846   7.676   4.867 -1.1654 -0.0610  0.1595
 6870SOL    HW224142  10.823   7.802   4.787 -1.9322  0.3601  1.0220
 6871SOL     OW24143   3.489   0.573   1.602  0.1016 -0.1468 -0.2124
 6871SOL    HW124144   3.558   0.587   1.538  0.9387 -1.1179  0.4443
 6871SOL    HW224145   3.423   0.638   1.581  1.8327  1.7745  0.0376
 6872SOL     OW24146   6.008   4.320  10.826 -0.3433 -0.0355  0.0793
 6872SOL    HW124147   5.982   4.295  10.915 -0.0364  0.0175  0.1842
 6872SOL    HW224148   6.079   4.383  10.838  0.1927 -0.5763 -0.2130
 6873SOL     OW24149  10.293   6.756  10.013  0.1414 -0.0477  0.0595
 6873SOL    HW124150  10.278   6.690  10.081 -0.7840  0.7481  0.6591
 6873SOL    HW224151  10.324   6.706   9.937 -0.4215 -1.1566  0.5385
 6874SOL     OW24152   1.824  10.464   1.363 -0.6324  0.3611  0.5853
 6874SOL    HW124153   1.792  10.519   1.434  0.6332  2.0050 -0.0577
 6874SOL    HW224154   1.815  10.518   1.285 -0.0442 -0.6294 -0.1845
 6875SOL     OW24155   9.736   4.804   3.503  1.0544 -0.0062  0.1103
 6875SOL    HW124156   9.675   4.833   3.435 -0.4376 -0.9027  0.9955
 6875SOL    HW224157   9.734   4.874   3.568  0.5141 -0.2742  0.3929
 6876SOL     OW24158   6.364  10.325   4.870  0.0776  0.1159 -0.7907
 6876SOL    HW124159   6.314  10.406   4.882  0.1535 -0.1787  2.1019
 6876SOL    HW224160   6.302  10.265   4.829 -0.3492  1.2380 -1.8549
 6877SOL     OW24161   8.065   4.196   5.801 -0.0139 -0.0595 -0.3648
 6877SOL    HW124162   8.027   4.117   5.762  1.1606 -0.2943 -1.0690
 6877SOL    HW224163   8.156   4.196   5.771 -0.3509  2.3152 -1.5795
 6878SOL     OW24164  10.325   0.883  10.978 -0.6189 -0.4119 -0.0847
 6878SOL    HW124165  10.231   0.876  10.992 -0.7212  1.3180  0.3120
 6878SOL    HW224166  10.361   0.901  11.065  0.0493 -0.7344 -0.2823
 6879SOL     OW24167   5.848   0.513   0.022  0.3504  0.6629 -0.1919
 6879SOL    HW124168   5.880   0.454  -0.046 -1.8847 -1.5821  0.5464
 6879SOL    HW224169   5.788   0.572  -0.024 -0.6724 -0.4360 -0.2865
 6880SOL     OW24170   4.098   1.320   8.599  0.8023  0.7403  0.0160
 6880SOL    HW124171   4.145   1.241   8.573 -0.5024  0.3548 -1.3479
 6880SOL    HW224172   4.139   1.390   8.549  1.1243  0.7098  0.2381
 6881SOL     OW24173   4.117   1.348   7.540 -0.1516  0.3690  0.2791
 6881SOL    HW124174   4.202   1.364   7.501  1.0793 -1.8663  1.8305
 6881SOL    HW224175   4.081   1.435   7.556  1.4326  1.3543 -1.2001
 6882SOL     OW24176   7.579   0.974   4.633 -0.7052  0.1727 -0.1151
 6882SOL    HW124177   7.674   0.979   4.645 -0.7780  0.1803  0.4729
 6882SOL    HW224178   7.557   1.054   4.585 -0.6356  1.0425  1.2632
 6883SOL     OW24179   8.792  10.830   3.377 -0.2884  0.4401 -0.4420
 6883SOL    HW124180   8.736  10.759   3.347  0.8791  0.4831 -2.9210
 6883SOL    HW224181   8.849  10.789   3.442 -1.3464 -0.2284  0.1025
 6884SOL     OW24182   3.882   0.955   3.178 -0.7268 -0.0072 -0.2079
 6884SOL    HW124183   3.911   1.001   3.257  0.7302 -0.1529 -0.6274
 6884SOL    HW224184   3.904   1.016   3.106  1.5501 -1.4131 -0.8067
 6885SOL     OW24185   2.860   2.713   6.613  0.9654  0.3838  0.9879
 6885SOL    HW124186   2.896   2.719   6.701  1.5017  1.3413  0.7115
 6885SOL    HW224187   2.851   2.803   6.584  1.5495  0.0697 -0.2382
 6886SOL     OW24188   5.439   2.262   7.308 -0.0358 -0.8361  0.2762
 6886SOL    HW124189   5.385   2.281   7.385 -0.7814 -1.6881 -0.0122
 6886SOL    HW224190   5.411   2.175   7.281 -1.5778  0.3671 -2.4174
 6887SOL     OW24191  10.780  10.266   5.586 -0.0249  0.0532  0.3048
 6887SOL    HW124192  10.727  10.189   5.566 -0.2393  0.4310 -0.6652
 6887SOL    HW224193  10.734  10.309   5.658 -1.0510  0.3599 -0.5015
 6888SOL     OW24194   8.708   0.034   8.871  0.7706 -0.5436 -0.1770
 6888SOL    HW124195   8.790  -0.011   8.852  1.9955  2.3461 -2.5366
 6888SOL    HW224196   8.720   0.071   8.958  2.2191  0.2360 -0.6785
 6889SOL     OW24197   5.961   2.529   9.853  0.5651  0.3770  0.3268
 6889SOL    HW124198   5.904   2.479   9.795 -2.8033  1.4783  2.4110
 6889SOL    HW224199   6.046   2.485   9.847 -0.6568 -1.9085 -2.3460
 6890SOL     OW24200   8.179   3.642   3.826  0.4553 -0.2720 -0.3152
 6890SOL    HW124201   8.271   3.616   3.823  0.9191  1.2666 -0.2753
 6890SOL    HW224202   8.176   3.726   3.780 -0.6888  0.3435  0.8060
 6891SOL     OW24203   5.733   2.663  10.116  0.0017  0.5640 -0.0049
 6891SOL    HW124204   5.647   2.670  10.157 -0.0777 -2.7027  0.6578
 6891SOL    HW224205   5.714   2.637  10.026  0.1578 -2.4982  0.7271
 6892SOL     OW24206   5.296   7.047   6.036  0.5687 -0.1582 -0.2892
 6892SOL    HW124207   5.285   7.025   5.944 -0.1648  0.9155 -0.4652
 6892SOL    HW224208   5.390   7.039   6.051  0.4431 -2.8354 -0.4625
 6893SOL     OW24209   2.633   5.054   3.060 -0.5776  0.0231 -0.6378
 6893SOL    HW124210   2.563   5.112   3.030  0.2728  0.8626 -1.0689
 6893SOL    HW224211   2.588   4.979   3.098 -1.7165  0.8679 -0.2580
 6894SOL     OW24212   7.679   9.389   6.342 -0.6370  0.3597  0.0363
 6894SOL    HW124213   7.724   9.347   6.415 -0.3853  1.2147  0.3829
 6894SOL    HW224214   7.589   9.356   6.346  0.0455 -1.8715 -1.0396
 6895SOL     OW24215  10.284   0.023   5.332 -0.3800 -0.0645 -0.5612
 6895SOL    HW124216  10.308   0.036   5.424 -2.9101  1.8715 -0.0512
 6895SOL    HW224217  10.356   0.062   5.283  0.2923  0.2882  0.6484
 6896SOL     OW24218   9.948  10.498  10.932 -0.0785  0.1701  0.7230
 6896SOL    HW124219   9.916  10.527  10.847 -0.7991 -0.8209  0.6465
 6896SOL    HW224220   9.951  10.578  10.985 -2.1908  0.3944  0.5783
 6897SOL     OW24221   2.666   6.413   0.694  0.3871 -0.1494 -0.0293
 6897SOL    HW124222   2.711   6.442   0.614  1.3504 -2.4657 -0.3919
 6897SOL    HW224223   2.573   6.413   0.671  0.5463  0.4629 -0.7067
 6898SOL     OW24224   4.190  10.796   4.318  0.6013  0.3497 -0.7565
 6898SOL    HW124225   4.210  10.702   4.323  0.8442  0.4197 -0.2476
 6898SOL    HW224226   4.274  10.839   4.336  0.6910  0.6725 -1.9184
 6899SOL     OW24227   9.186   8.898   7.607 -0.1000 -0.1756 -0.2443
 6899SOL    HW124228   9.220   8.969   7.554  1.8093 -0.7383  0.1457
 6899SOL    HW224229   9.230   8.907   7.691 -0.7212 -1.1244  0.2085
 6900SOL     OW24230  10.518   6.931   5.100  0.0113  0.3294 -0.1492
 6900SOL    HW124231  10.425   6.943   5.083 -0.0048  0.2865 -0.0875
 6900SOL    HW224232  10.561   6.987   5.035 -0.0921  1.8080  1.0018
 6901SOL     OW24233   9.270   4.842   7.176 -0.4834 -0.7876 -0.6968
 6901SOL    HW124234   9.259   4.775   7.244 -1.5992  0.1582  0.1151
 6901SOL    HW224235   9.281   4.793   7.095  0.7279 -1.9619  0.1133
 6902SOL     OW24236   7.385   3.247   7.662  0.1134  0.0909 -0.0509
 6902SOL    HW124237   7.447   3.307   7.706  0.4918  1.5376 -2.3902
 6902SOL    HW224238   7.338   3.205   7.734 -0.1258  3.1612  1.7861
 6903SOL     OW24239   1.992   6.182   7.598  0.3894 -0.3199 -0.4490
 6903SOL    HW124240   2.036   6.227   7.670  0.6587 -1.0873 -0.1133
 6903SOL    HW224241   1.996   6.089   7.623  3.1160 -0.9889 -2.8302
 6904SOL     OW24242   9.369   5.741   8.868  0.1042  0.2571  0.1630
 6904SOL    HW124243   9.362   5.658   8.916  0.3954  0.8338  1.2247
 6904SOL    HW224244   9.344   5.808   8.931 -0.6599  0.9565 -0.8374
 6905SOL     OW24245   2.347   4.460   3.165  0.3308  0.3114 -0.2387
 6905SOL    HW124246   2.319   4.470   3.256  0.0967 -1.3414 -0.1036
 6905SOL    HW224247   2.415   4.392   3.168  0.4483  0.3667 -1.2752
 6906SOL     OW24248   2.990   5.309   8.444 -1.4142  0.3760  0.5144
 6906SOL    HW124249   2.994   5.262   8.527 -0.4480 -1.3194 -0.4446
 6906SOL    HW224250   2.912   5.274   8.400  0.0134 -1.4123 -0.7558
 6907SOL     OW24251   5.110   0.554   7.556 -0.4143 -0.4483 -0.0742
 6907SOL    HW124252   5.175   0.562   7.486 -2.7036  0.2090 -2.2806
 6907SOL    HW224253   5.145   0.607   7.627  0.5461  1.6324 -1.9711
 6908SOL     OW24254   7.801   1.548   6.310 -0.7281  0.4988 -0.0009
 6908SOL    HW124255   7.809   1.570   6.217 -1.9179  1.4235  0.0953
 6908SOL    HW224256   7.724   1.597   6.340 -1.0850 -0.7456  1.1925
 6909SOL     OW24257   2.169  10.493   4.192 -0.4687 -0.4676 -0.1577
 6909SOL    HW124258   2.188  10.465   4.103 -1.8925  0.0832 -0.6690
 6909SOL    HW224259   2.197  10.585   4.195  1.6357 -1.0883  0.6715
 6910SOL     OW24260   0.903   5.879   9.847 -0.2504 -1.0390  0.8133
 6910SOL    HW124261   0.977   5.940   9.850 -0.4191 -0.6120 -1.8578
 6910SOL    HW224262   0.830   5.928   9.884  0.0040 -0.1871  0.2112
 6911SOL     OW24263   0.512   5.628   8.540 -0.2216  0.1141  0.1761
 6911SOL    HW124264   0.463   5.546   8.545  1.6798 -1.0910 -0.0745
 6911SOL    HW224265   0.506   5.654   8.448 -0.0225 -0.2742  0.0511
 6912SOL     OW24266  10.385   6.757   2.977 -0.0166 -0.4303  0.3247
 6912SOL    HW124267  10.350   6.676   3.015 -0.0944 -0.8170 -0.5385
 6912SOL    HW224268  10.397   6.737   2.884  0.7689  0.2862  0.2544
 6913SOL     OW24269   4.330   7.952   7.004 -0.4420  0.3525  0.4659
 6913SOL    HW124270   4.336   7.937   6.910 -0.1835  1.3338  0.3078
 6913SOL    HW224271   4.398   8.017   7.022 -0.6597  0.3684  1.2857
 6914SOL     OW24272   6.176   0.189   7.095  0.4499  0.4859  0.0238
 6914SOL    HW124273   6.091   0.229   7.075 -0.5629 -0.2683  2.4359
 6914SOL    HW224274   6.220   0.254   7.150  0.3032 -0.2002  0.9719
 6915SOL     OW24275   1.302   1.717   8.798 -0.4533 -0.2181 -0.3480
 6915SOL    HW124276   1.230   1.734   8.738 -0.5732 -0.3078 -0.2305
 6915SOL    HW224277   1.281   1.633   8.838 -0.8042  0.2255  0.4383
 6916SOL     OW24278   2.193   4.225  10.747 -0.1859  0.1653 -0.1462
 6916SOL    HW124279   2.218   4.173  10.671 -0.7102 -1.6740  0.8895
 6916SOL    HW224280   2.265   4.211  10.809 -0.9949 -0.4947  0.6673
 6917SOL     OW24281   7.059   8.675   1.444  0.0327 -0.1403  0.1394
 6917SOL    HW124282   7.101   8.590   1.456  1.3425  0.3743 -0.6540
 6917SOL    HW224283   7.063   8.717   1.530 -2.3629 -1.5905  1.0575
 6918SOL     OW24284   7.841   7.746   0.353 -0.0700 -0.2852  0.5567
 6918SOL    HW124285   7.872   7.772   0.266 -0.9402 -0.5664  0.1532
 6918SOL    HW224286   7.799   7.661   0.339 -0.5057 -0.1822  1.1946
 6919SOL     OW24287   1.556   1.728   8.380  0.6866  0.0926 -0.1212
 6919SOL    HW124288   1.601   1.713   8.297  0.4959 -1.6273  0.0548
 6919SOL    HW224289   1.603   1.673   8.443 -0.5207 -0.3265  0.4392
 6920SOL     OW24290   7.763   7.219   1.376 -0.1138 -0.0510  0.1997
 6920SOL    HW124291   7.775   7.299   1.428 -0.1720  0.0493  0.0584
 6920SOL    HW224292   7.839   7.215   1.319 -0.3930  0.2036 -0.1906
 6921SOL     OW24293   4.403   3.710   4.159 -0.0086 -0.1458  0.4096
 6921SOL    HW124294   4.353   3.630   4.140  1.1857 -1.1591  1.3386
 6921SOL    HW224295   4.469   3.714   4.090 -0.7875  0.7071 -0.3091
 6922SOL     OW24296   8.017  10.315   3.417  0.1580  0.1344  0.2999
 6922SOL    HW124297   7.934  10.268   3.409  0.7512 -1.0561  0.8008
 6922SOL    HW224298   8.050  10.321   3.328 -0.7208  1.1395  0.0202
 6923SOL     OW24299  11.033   0.493   4.909 -0.1569  0.0396  0.2668
 6923SOL    HW124300  11.088   0.447   4.973  0.9760  1.3179  0.2797
 6923SOL    HW224301  11.026   0.582   4.944 -0.7645  0.3601 -0.6428
 6924SOL     OW24302   7.341  10.922   8.305 -0.4198  0.2121  0.1035
 6924SOL    HW124303   7.273  10.987   8.322  0.5528  1.3599 -0.2655
 6924SOL    HW224304   7.330  10.900   8.212  0.7852  1.7381 -0.4474
 6925SOL     OW24305   0.467   7.823   0.436 -0.2053  0.2745  0.0721
 6925SOL    HW124306   0.467   7.814   0.341 -1.2018 -0.2686  0.1109
 6925SOL    HW224307   0.384   7.864   0.456 -0.2657 -0.1581  0.7530
 6926SOL     OW24308  10.132   0.069   6.416 -0.6089 -0.4319 -0.0835
 6926SOL    HW124309  10.148   0.150   6.464  1.1579 -0.1641 -1.0336
 6926SOL    HW224310  10.143   0.093   6.324  1.8169 -2.0527 -0.3141
 6927SOL     OW24311   3.731  10.192   4.913 -0.6416 -1.1926  0.0413
 6927SOL    HW124312   3.692  10.240   4.840  0.1051  0.2499  0.5550
 6927SOL    HW224313   3.688  10.106   4.911 -0.5780 -1.2249 -2.1281
 6928SOL     OW24314   0.764   3.273   7.588  0.0447  0.2519 -0.4434
 6928SOL    HW124315   0.802   3.341   7.643 -0.3262 -1.4963  2.1618
 6928SOL    HW224316   0.764   3.195   7.643 -2.7410 -1.0402 -2.0586
 6929SOL     OW24317   8.120   2.734   3.739  0.1743 -0.0807 -0.1134
 6929SOL    HW124318   8.143   2.794   3.810 -1.3402  0.6519 -0.2026
 6929SOL    HW224319   8.178   2.659   3.751  0.3328  0.2784  1.5620
 6930SOL     OW24320   1.522   9.314   7.495 -0.3415  0.3448  0.1681
 6930SOL    HW124321   1.586   9.339   7.428 -0.8563 -1.7058 -1.1618
 6930SOL    HW224322   1.489   9.229   7.467 -2.2985  0.4742  1.8250
 6931SOL     OW24323   8.629   5.285  10.282  0.6238  0.0481 -0.3318
 6931SOL    HW124324   8.717   5.314  10.305  1.1954 -0.8188 -1.3380
 6931SOL    HW224325   8.643   5.215  10.218 -0.8080  0.1552 -0.7941
 6932SOL     OW24326   0.127  10.809   6.045 -0.1045  0.4800 -0.0500
 6932SOL    HW124327   0.092  10.829   6.132  1.7279  1.0269  0.6107
 6932SOL    HW224328   0.161  10.719   6.053  0.5011  0.7044 -0.0364
 6933SOL     OW24329   7.585   8.588   7.212 -0.3336  0.5946  0.4952
 6933SOL    HW124330   7.569   8.647   7.285 -0.0667  0.1221  0.9475
 6933SOL    HW224331   7.626   8.642   7.145 -1.8938  1.3678  0.1076
 6934SOL     OW24332   5.613   5.314   7.217 -0.5509 -0.5325 -0.2583
 6934SOL    HW124333   5.638   5.326   7.309 -0.3708 -2.0523 -0.0954
 6934SOL    HW224334   5.577   5.226   7.212 -0.2127 -0.6226 -1.7287
 6935SOL     OW24335   1.256  11.005   0.115 -0.0417 -0.0267  0.2441
 6935SOL    HW124336   1.300  11.042   0.039  1.6592 -0.7869  0.8014
 6935SOL    HW224337   1.165  11.033   0.106 -0.1913 -1.0416 -2.6788
 6936SOL     OW24338   2.195  10.226   6.699 -0.1689 -0.3402 -0.4590
 6936SOL    HW124339   2.111  10.180   6.693 -1.0330  1.0465  0.3463
 6936SOL    HW224340   2.254  10.165   6.743 -1.1397 -0.8540  0.1461
 6937SOL     OW24341   4.591   3.805   5.988  0.0430 -0.1060 -0.3624
 6937SOL    HW124342   4.559   3.716   5.972 -0.3955 -0.1774  0.8224
 6937SOL    HW224343   4.651   3.796   6.062  0.7207  0.4548 -0.8302
 6938SOL     OW24344   7.825   0.916   5.129  0.1383 -0.0687  0.2076
 6938SOL    HW124345   7.920   0.928   5.129  0.0249  0.9317  1.4675
 6938SOL    HW224346   7.791   0.989   5.077  0.0989 -1.2404 -1.5360
 6939SOL     OW24347   5.423   8.845   8.760 -0.2872  0.3146 -0.0742
 6939SOL    HW124348   5.444   8.766   8.810  1.6162  0.9482  0.1893
 6939SOL    HW224349   5.365   8.895   8.818 -2.0520 -1.1193 -0.5007
 6940SOL     OW24350   9.312   2.483   5.406 -0.6800 -0.0491 -0.1454
 6940SOL    HW124351   9.333   2.537   5.329  1.0344  0.5312  0.6739
 6940SOL    HW224352   9.383   2.420   5.411 -0.9227 -0.2563  0.8128
 6941SOL     OW24353   4.545   3.173   1.155  0.1627 -0.1847  0.6947
 6941SOL    HW124354   4.459   3.181   1.115  0.0151  0.7181  1.1602
 6941SOL    HW224355   4.559   3.256   1.200  0.5981 -0.8936  1.9503
 6942SOL     OW24356   6.938   7.339   0.443  0.1097  0.3911 -0.1538
 6942SOL    HW124357   6.923   7.361   0.535 -2.1471 -1.6495  0.0672
 6942SOL    HW224358   6.941   7.423   0.398 -1.4586  1.3745  1.4461
 6943SOL     OW24359   4.003   0.840   2.083  0.1140 -0.1919 -0.3396
 6943SOL    HW124360   4.083   0.853   2.031  1.6446 -0.7849  1.6925
 6943SOL    HW224361   3.964   0.927   2.089  2.8719  1.0665  1.9453
 6944SOL     OW24362   4.162  10.875   4.905  0.0586 -0.3859 -0.1808
 6944SOL    HW124363   4.171  10.804   4.842  1.8500  0.1279 -0.5648
 6944SOL    HW224364   4.068  10.881   4.923 -0.5153 -0.4853 -2.8445
 6945SOL     OW24365   5.566  10.706  10.744 -0.0575  0.0484 -0.1887
 6945SOL    HW124366   5.551  10.674  10.655 -0.0803 -0.2008 -0.0982
 6945SOL    HW224367   5.496  10.664  10.796  1.2588 -1.6054  0.3500
 6946SOL     OW24368   5.107   5.120  10.727 -0.1662 -0.1977  0.2239
 6946SOL    HW124369   5.119   5.150  10.637  1.7873  0.7985  0.7516
 6946SOL    HW224370   5.183   5.063  10.744 -0.7587 -0.7642  1.1029
 6947SOL     OW24371   2.322   8.876   5.612 -1.1652  0.0148  0.0715
 6947SOL    HW124372   2.278   8.794   5.636 -1.2341 -0.4352 -1.4747
 6947SOL    HW224373   2.322   8.876   5.516 -0.4958  1.4763  0.0448
 6948SOL     OW24374  10.248   3.493   9.222 -0.4303 -0.1160 -0.0575
 6948SOL    HW124375  10.307   3.539   9.281  0.5659 -1.4618  0.0411
 6948SOL    HW224376  10.269   3.526   9.135 -0.6100  0.5177  0.1359
 6949SOL     OW24377   3.435   8.593   6.755 -0.2631 -0.4891  0.0052
 6949SOL    HW124378   3.372   8.656   6.793  0.3351  0.9300 -1.2697
 6949SOL    HW224379   3.520   8.625   6.783  0.0118 -1.2234  0.0162
 6950SOL     OW24380   3.216   7.578   2.223  0.1814 -0.3878  0.9312
 6950SOL    HW124381   3.257   7.519   2.287 -0.7858  0.6733  2.5881
 6950SOL    HW224382   3.228   7.665   2.260  1.3888  0.5102 -1.3819
 6951SOL     OW24383   5.982   6.503   8.235  0.3322  1.3121  0.0176
 6951SOL    HW124384   5.905   6.484   8.181  2.1017 -1.0273 -1.9461
 6951SOL    HW224385   5.975   6.596   8.256 -3.1077  1.1234  0.1745
 6952SOL     OW24386   6.306   2.152   1.419  0.3294  0.8217 -0.3825
 6952SOL    HW124387   6.237   2.174   1.481  0.8418 -0.7686  0.8241
 6952SOL    HW224388   6.276   2.188   1.335 -1.1370  1.6220  0.4600
 6953SOL     OW24389   5.028   9.128   6.084  0.0193 -0.2059  0.4657
 6953SOL    HW124390   5.012   9.216   6.051  0.4327  0.0272  0.8844
 6953SOL    HW224391   4.987   9.070   6.019  1.0695  0.2309 -0.5996
 6954SOL     OW24392   4.935   9.893   0.993  0.3289 -0.2968 -0.5334
 6954SOL    HW124393   4.938   9.974   0.941  1.4369  1.7483  2.3994
 6954SOL    HW224394   4.843   9.869   0.994  0.1205  0.2460 -2.3644
 6955SOL     OW24395   4.818   5.483   8.206 -0.1081 -0.0024  0.1872
 6955SOL    HW124396   4.827   5.535   8.286  0.5628  0.9315 -0.4905
 6955SOL    HW224397   4.745   5.523   8.160 -1.0410 -1.0517  0.6879
 6956SOL     OW24398   4.604   9.143   6.515  0.4362 -0.1687 -0.1241
 6956SOL    HW124399   4.542   9.076   6.544 -0.1118  0.3939  0.0272
 6956SOL    HW224400   4.644   9.176   6.596 -1.6076  1.9029  0.1450
 6957SOL     OW24401   1.767   0.400   4.305 -0.0208  0.1552  0.2405
 6957SOL    HW124402   1.700   0.371   4.243 -0.4176  0.3730  0.5620
 6957SOL    HW224403   1.827   0.326   4.313  0.7172  0.5457 -1.3334
 6958SOL     OW24404   7.854  10.156   1.318  0.8254  0.4592  0.0002
 6958SOL    HW124405   7.882  10.207   1.242 -1.2880 -0.4947 -1.5584
 6958SOL    HW224406   7.789  10.095   1.282 -1.5412  1.0645  2.8452
 6959SOL     OW24407   2.812   6.498   4.664  0.2559  0.3482 -0.0183
 6959SOL    HW124408   2.849   6.521   4.749 -0.6512 -1.8434  1.0570
 6959SOL    HW224409   2.844   6.409   4.647 -2.5837 -0.7821 -0.0754
 6960SOL     OW24410   6.622   0.798   4.725 -0.1145  0.4771 -0.7377
 6960SOL    HW124411   6.565   0.844   4.664 -0.7964 -0.3396 -0.7136
 6960SOL    HW224412   6.622   0.854   4.803 -2.1819 -0.3010 -0.1261
 6961SOL     OW24413   0.107   5.905   8.578  0.2850 -0.4057  0.1001
 6961SOL    HW124414   0.200   5.907   8.600  0.6036  1.4140 -1.1329
 6961SOL    HW224415   0.103   5.858   8.495  0.0607 -0.8145  0.3442
 6962SOL     OW24416   0.821   8.737   7.363  0.3967 -0.7886 -0.8871
 6962SOL    HW124417   0.839   8.772   7.276  0.1880 -1.5082 -1.2316
 6962SOL    HW224418   0.725   8.732   7.367  0.3507  0.5001 -0.0948
 6963SOL     OW24419   0.345  10.531   2.625  0.6429 -0.0009  0.1167
 6963SOL    HW124420   0.268  10.489   2.589  0.0255  0.1154  1.2546
 6963SOL    HW224421   0.412  10.520   2.558 -0.4933  0.3578 -1.1310
 6964SOL     OW24422   8.516   3.839   0.831 -0.8363  0.2215  0.0512
 6964SOL    HW124423   8.542   3.799   0.914 -0.6433 -1.2001 -0.6616
 6964SOL    HW224424   8.560   3.924   0.831  0.1990 -0.2787  0.8528
 6965SOL     OW24425   1.243   0.595   5.895 -0.1859 -0.0079  0.9924
 6965SOL    HW124426   1.205   0.670   5.940 -0.0297  0.3726  0.4979
 6965SOL    HW224427   1.233   0.523   5.957 -5.0027 -0.8493 -0.3974
 6966SOL     OW24428   4.058   3.690   3.388 -0.1449 -0.6320  0.4678
 6966SOL    HW124429   4.059   3.780   3.420  1.8072 -0.6873  0.7105
 6966SOL    HW224430   4.021   3.639   3.460  0.2048 -0.2184  0.9470
 6967SOL     OW24431  10.206   4.111   9.006 -0.1969  0.2654  0.3681
 6967SOL    HW124432  10.134   4.173   9.021 -0.8923 -0.5680  0.5376
 6967SOL    HW224433  10.186   4.072   8.921 -0.2759 -0.4080  0.6935
 6968SOL     OW24434   2.521   6.104   0.351  0.1999 -0.2079 -0.6523
 6968SOL    HW124435   2.550   6.153   0.428 -0.8938 -0.3972 -0.1039
 6968SOL    HW224436   2.435   6.141   0.329 -0.0525 -0.9952 -1.0285
 6969SOL     OW24437   8.520   9.376   9.130 -0.1050 -0.3995  0.0350
 6969SOL    HW124438   8.446   9.322   9.102  0.4010 -0.5453 -1.0951
 6969SOL    HW224439   8.550   9.418   9.049 -2.1376  3.7858  1.1759
 6970SOL     OW24440   5.878   9.299   8.969 -0.5045  0.4325 -0.2622
 6970SOL    HW124441   5.864   9.371   9.030  1.7961  0.5782  0.1848
 6970SOL    HW224442   5.914   9.340   8.891  1.6121 -0.2337  0.2935
 6971SOL     OW24443   2.549   8.991   8.123 -0.0827 -0.0202 -0.3965
 6971SOL    HW124444   2.500   8.940   8.188 -0.2454  1.0845  0.3734
 6971SOL    HW224445   2.635   9.004   8.162  0.0776 -0.0253 -0.7472
 6972SOL     OW24446   4.023   2.917   2.421  0.3083  0.2596 -0.1404
 6972SOL    HW124447   4.061   2.830   2.430  0.5346  0.3866  0.1237
 6972SOL    HW224448   4.090   2.969   2.377 -0.1930  0.0542 -1.1818
 6973SOL     OW24449   7.306   7.884   0.578 -0.2268  0.1443  0.0125
 6973SOL    HW124450   7.224   7.906   0.622  0.2680  1.7993  0.1433
 6973SOL    HW224451   7.280   7.868   0.487 -0.6356  1.2369 -0.0791
 6974SOL     OW24452   1.743   3.331   5.224  0.4851  0.1182  0.1698
 6974SOL    HW124453   1.770   3.345   5.134  4.3248  1.0051  1.2867
 6974SOL    HW224454   1.664   3.385   5.234 -0.3982 -0.4531 -2.6916
 6975SOL     OW24455   8.403   8.031   1.162 -0.4507 -0.3361  0.2920
 6975SOL    HW124456   8.429   8.123   1.159  1.7433 -0.7831  2.4606
 6975SOL    HW224457   8.346   8.020   1.086 -2.0803  3.1505  0.8279
 6976SOL     OW24458   6.509   9.851   9.536  0.3778  0.2542 -0.2520
 6976SOL    HW124459   6.458   9.892   9.606 -2.3815 -2.6338 -0.3545
 6976SOL    HW224460   6.591   9.826   9.577 -0.5879 -0.0470  1.5801
 6977SOL     OW24461   2.947   5.171   4.682  0.0246  0.3923 -0.1170
 6977SOL    HW124462   2.858   5.195   4.658  0.3726 -1.1375 -3.5087
 6977SOL    HW224463   2.948   5.175   4.777 -3.6552  0.4888  0.0543
 6978SOL     OW24464   4.250   9.062  11.020  0.1366 -0.1222 -0.0427
 6978SOL    HW124465   4.279   9.139  10.971 -1.2539  0.5887  0.2049
 6978SOL    HW224466   4.209   9.097  11.099 -0.6056 -1.0871  0.0248
 6979SOL     OW24467   3.357   7.810   0.542  0.0857 -0.6239 -0.0661
 6979SOL    HW124468   3.356   7.900   0.508 -0.0997  0.7969  3.3634
 6979SOL    HW224469   3.440   7.803   0.588 -1.5863 -0.6677  3.2043
 6980SOL     OW24470   6.612   2.398   9.916 -0.0597  0.5591 -0.2387
 6980SOL    HW124471   6.611   2.385   9.821 -1.3761 -0.7475 -0.0838
 6980SOL    HW224472   6.697   2.440   9.934  1.4417 -1.6504 -1.6860
 6981SOL     OW24473  10.126   0.298   6.584  1.0320  0.0137  0.9163
 6981SOL    HW124474  10.213   0.324   6.554  0.5283 -0.4409 -1.0590
 6981SOL    HW224475  10.073   0.377   6.575  0.9583 -0.0238  1.0092
 6982SOL     OW24476   7.094  10.673   2.377 -0.4209 -0.6231  0.1562
 6982SOL    HW124477   7.116  10.622   2.455  0.0544  1.0900  1.2132
 6982SOL    HW224478   7.005  10.704   2.394  0.0200  0.5313  0.5177
 6983SOL     OW24479   5.120   3.495   4.608 -0.0252  0.3267  0.3535
 6983SOL    HW124480   5.041   3.443   4.613  0.1528 -0.1133 -0.9905
 6983SOL    HW224481   5.154   3.497   4.698 -0.8237 -0.6144  0.6875
 6984SOL     OW24482   7.383   2.774   9.075  0.4916  0.4021  0.7287
 6984SOL    HW124483   7.353   2.742   8.990  1.2356 -1.0141  0.9690
 6984SOL    HW224484   7.383   2.870   9.067  2.9410  0.3174 -1.7248
 6985SOL     OW24485   9.457   5.811   1.985 -0.3199 -0.4447  0.3460
 6985SOL    HW124486   9.460   5.765   1.900  1.7483 -1.2007  0.7732
 6985SOL    HW224487   9.419   5.896   1.964  1.7372  0.0723 -1.7270
 6986SOL     OW24488   3.150  11.058   5.137 -0.1507  0.1133 -0.0119
 6986SOL    HW124489   3.077  11.114   5.110 -0.4503  0.8866  2.1458
 6986SOL    HW224490   3.189  11.105   5.211 -1.1121 -2.9964  2.7036
 6987SOL     OW24491   4.040   7.449   6.490 -0.3214 -0.0151 -0.4689
 6987SOL    HW124492   4.079   7.377   6.540  0.1761  0.2516 -0.4666
 6987SOL    HW224493   3.952   7.459   6.528  0.4862  1.0339  1.2874
 6988SOL     OW24494   5.716   1.803   2.074 -0.2430  0.9907  0.1738
 6988SOL    HW124495   5.691   1.715   2.049  2.4116  0.2059 -0.0283
 6988SOL    HW224496   5.737   1.846   1.991  0.7950  1.0066  0.4346
 6989SOL     OW24497   9.232   6.471   4.418 -0.3688 -0.0684  0.2688
 6989SOL    HW124498   9.159   6.518   4.458  0.0977  0.3884  0.6028
 6989SOL    HW224499   9.302   6.537   4.412  0.4385 -0.8217  1.1214
 6990SOL     OW24500   3.080   2.990   4.041  0.2532  0.1792  0.3181
 6990SOL    HW124501   3.044   2.914   3.995 -0.7130  1.5579 -1.3387
 6990SOL    HW224502   3.003   3.040   4.068  0.8574  1.0629  0.4655
 6991SOL     OW24503   5.192   2.269   5.631 -0.1603  0.0839  0.0156
 6991SOL    HW124504   5.111   2.219   5.620  1.0350 -1.8505 -0.4253
 6991SOL    HW224505   5.238   2.259   5.548 -0.0283  2.3131 -0.2450
 6992SOL     OW24506   9.967   2.005   9.020 -0.1728 -0.1353  0.1917
 6992SOL    HW124507   9.878   2.018   8.985  0.1630  0.5871 -0.4218
 6992SOL    HW224508   9.954   1.990   9.114 -0.7984  3.0253  0.7490
 6993SOL     OW24509  10.751   4.992   8.324  0.8972 -0.6500 -0.3901
 6993SOL    HW124510  10.798   4.947   8.253 -0.2176 -1.4485 -0.6529
 6993SOL    HW224511  10.659   4.973   8.307  0.3731  1.7209 -0.4623
 6994SOL     OW24512   5.695   3.431   7.682  0.4487 -0.5276 -0.7587
 6994SOL    HW124513   5.633   3.474   7.623 -2.4449  0.9650  2.9702
 6994SOL    HW224514   5.659   3.343   7.695 -0.9093  0.2497  1.1961
 6995SOL     OW24515   0.083   1.095   8.381  0.4872  0.4533  0.2437
 6995SOL    HW124516   0.009   1.054   8.426 -0.3428  2.4943  0.8666
 6995SOL    HW224517   0.059   1.187   8.374  2.5249  0.9937 -0.4992
 6996SOL     OW24518   1.683  10.243   5.197  0.3043 -0.0878  0.4674
 6996SOL    HW124519   1.749  10.227   5.129  0.3666  0.9993  0.2567
 6996SOL    HW224520   1.669  10.337   5.196 -1.8691 -0.3708 -0.0466
 6997SOL     OW24521  10.803   7.578   8.852 -0.2516 -0.6303 -0.7027
 6997SOL    HW124522  10.837   7.668   8.854  1.7676 -1.3472 -0.6596
 6997SOL    HW224523  10.725   7.581   8.908  0.0499  0.9830 -0.3000
 6998SOL     OW24524   0.203   2.597   7.767  0.1434  0.5755  0.7431
 6998SOL    HW124525   0.164   2.670   7.720  1.1856  1.6621  1.4791
 6998SOL    HW224526   0.214   2.630   7.857  1.2865 -0.2279  0.9201
 6999SOL     OW24527   8.195   2.649   5.622  0.0651  0.1380 -0.1931
 6999SOL    HW124528   8.290   2.649   5.609 -0.1101 -1.8183 -1.7896
 6999SOL    HW224529   8.184   2.621   5.713  0.9973 -0.5105 -0.2674
 7000SOL     OW24530   3.402   3.600   0.639  0.1470 -0.5129 -0.3407
 7000SOL    HW124531   3.437   3.628   0.554  0.5880  0.9030  0.2638
 7000SOL    HW224532   3.309   3.621   0.635  0.4211  0.8817 -0.0007
 7001SOL     OW24533  10.711   4.826   2.963  0.1232 -0.0973  0.2245
 7001SOL    HW124534  10.745   4.901   2.915  0.4411 -0.1607  0.3488
 7001SOL    HW224535  10.787   4.790   3.009  0.4910 -1.9244 -1.6752
 7002SOL     OW24536   5.634   4.063   7.205  0.3294  1.0275  0.4096
 7002SOL    HW124537   5.702   4.103   7.259  0.5117 -0.5760  1.4355
 7002SOL    HW224538   5.678   3.990   7.160 -1.0146 -1.3354  2.6178
 7003SOL     OW24539  10.554   1.055   7.977  0.0739  0.2324  0.0659
 7003SOL    HW124540  10.535   1.037   8.070 -1.4775  0.4904 -0.1737
 7003SOL    HW224541  10.502   1.133   7.957  1.6773  1.1892 -0.6134
 7004SOL     OW24542  10.718   0.837   3.006 -0.8152 -0.4661 -0.3487
 7004SOL    HW124543  10.632   0.874   3.025 -0.4200 -0.5779  1.9558
 7004SOL    HW224544  10.742   0.788   3.085  0.9503 -1.2668 -1.2961
 7005SOL     OW24545   5.747   7.472   0.675 -0.1768  0.0168  0.2173
 7005SOL    HW124546   5.815   7.519   0.723  0.9312  0.0114 -1.3013
 7005SOL    HW224547   5.674   7.534   0.670  1.2168  1.6210 -1.6493
 7006SOL     OW24548  10.314   6.994   6.111  0.5916 -0.2203 -0.4318
 7006SOL    HW124549  10.233   7.035   6.142  0.6052  0.4765 -1.2685
 7006SOL    HW224550  10.377   7.010   6.182 -0.6024 -3.0521  1.4297
 7007SOL     OW24551   6.897   5.839   7.697  0.6118 -0.4049  0.0360
 7007SOL    HW124552   6.849   5.819   7.616 -0.3484 -0.5175  0.6212
 7007SOL    HW224553   6.835   5.822   7.767  0.8042  1.4854  0.7282
 7008SOL     OW24554   4.974   7.452   5.508 -0.2894 -0.1399 -0.8328
 7008SOL    HW124555   5.010   7.533   5.472  0.5528 -1.1976 -2.5469
 7008SOL    HW224556   4.895   7.436   5.456  0.7168 -1.4848 -2.0395
 7009SOL     OW24557   0.089   7.372   1.145 -0.2643 -0.6378 -0.1291
 7009SOL    HW124558   0.082   7.467   1.137 -0.0373 -0.5598  0.5161
 7009SOL    HW224559   0.000   7.339   1.128 -1.0135 -0.0967  2.2847
 7010SOL     OW24560   3.950  10.595   4.562  0.3092 -0.6784  0.0669
 7010SOL    HW124561   3.952  10.506   4.599  1.1809 -0.0676  1.6152
 7010SOL    HW224562   3.879  10.639   4.609  0.6944 -0.2061  0.2160
 7011SOL     OW24563  10.277   1.179  10.230  0.1565 -0.2738  0.2999
 7011SOL    HW124564  10.369   1.163  10.209 -0.5631 -2.3531 -1.5936
 7011SOL    HW224565  10.259   1.120  10.303 -0.4814 -2.5903 -1.6055
 7012SOL     OW24566   9.795  11.035   0.903  0.3100  0.1633  0.4729
 7012SOL    HW124567   9.841  11.089   0.839  0.5360 -1.3997 -0.7366
 7012SOL    HW224568   9.816  11.076   0.987 -0.0721  2.3234 -0.4003
 7013SOL     OW24569   5.901   5.419   1.525 -0.2767 -0.6215  0.2112
 7013SOL    HW124570   5.860   5.434   1.610 -0.9286 -0.9385 -0.0406
 7013SOL    HW224571   5.961   5.492   1.514 -0.3462 -0.4639  0.8460
 7014SOL     OW24572   0.246   0.543   7.724  0.7189 -0.2107 -0.0241
 7014SOL    HW124573   0.266   0.523   7.815 -0.5511  0.1182  0.3400
 7014SOL    HW224574   0.235   0.458   7.682 -1.2369 -0.3758  0.7324
 7015SOL     OW24575   7.658   5.370   7.447  0.1259  0.1889 -0.6304
 7015SOL    HW124576   7.642   5.453   7.402  2.3122  0.1002 -1.7445
 7015SOL    HW224577   7.747   5.378   7.480  0.1913 -1.5350 -0.3227
 7016SOL     OW24578   4.497   5.571   1.316 -0.6446 -0.4087  0.1247
 7016SOL    HW124579   4.587   5.583   1.285 -0.2880 -0.3068  1.1391
 7016SOL    HW224580   4.449   5.647   1.282 -0.4534 -0.6930 -0.7895
 7017SOL     OW24581   9.969   8.545   8.693 -0.3196  0.0296  0.5046
 7017SOL    HW124582   9.883   8.507   8.675  0.2805 -1.2631  0.2539
 7017SOL    HW224583  10.009   8.485   8.756  0.0781  1.0821  1.2901
 7018SOL     OW24584   6.131   3.774   6.278 -0.0223  0.1680  0.5485
 7018SOL    HW124585   6.119   3.846   6.216  0.4675  1.2981  1.6967
 7018SOL    HW224586   6.154   3.699   6.224 -2.1916  0.4236 -0.8407
 7019SOL     OW24587   9.772   5.082   2.518 -0.1313 -0.4210 -0.6378
 7019SOL    HW124588   9.717   5.160   2.524  0.3630 -0.1555  0.9345
 7019SOL    HW224589   9.767   5.056   2.426 -2.2141  0.0568 -0.7215
 7020SOL     OW24590   7.243   5.223   1.435 -0.7391 -0.2654  0.0959
 7020SOL    HW124591   7.185   5.201   1.362 -1.6385  1.9256  0.0491
 7020SOL    HW224592   7.187   5.272   1.496  0.4383 -0.4563  1.3891
 7021SOL     OW24593   3.587   4.250   8.064 -0.2173 -0.0094  0.3072
 7021SOL    HW124594   3.612   4.285   7.979  2.4645 -0.3748  0.8524
 7021SOL    HW224595   3.497   4.220   8.053 -0.6620  1.8364 -1.7656
 7022SOL     OW24596   6.005   1.876   0.198 -0.8113 -0.4991 -0.4200
 7022SOL    HW124597   5.955   1.881   0.116 -1.2102 -0.2599 -0.1601
 7022SOL    HW224598   5.940   1.879   0.267 -0.3685  1.2426 -0.0436
 7023SOL     OW24599  10.357   8.792   3.745  0.2219  0.0195 -0.4094
 7023SOL    HW124600  10.315   8.755   3.668 -0.9413 -2.6570  1.3624
 7023SOL    HW224601  10.316   8.877   3.757 -0.6513 -0.1769 -1.8728
 7024SOL     OW24602   7.915   3.199   1.451  0.1826 -0.2359 -0.1578
 7024SOL    HW124603   7.863   3.260   1.399  0.9253  0.2370 -0.3548
 7024SOL    HW224604   7.869   3.115   1.442  0.1029 -0.0853 -1.2833
 7025SOL     OW24605  10.710   7.496   1.587 -0.3800  0.3230  0.1500
 7025SOL    HW124606  10.799   7.464   1.598  0.2887  2.1968  0.5360
 7025SOL    HW224607  10.695   7.554   1.661 -1.9234  0.0710  0.0744
 7026SOL     OW24608   8.126   5.161   8.290 -0.4377  0.5977  1.7079
 7026SOL    HW124609   8.078   5.117   8.220  0.3893  2.6219 -0.2565
 7026SOL    HW224610   8.200   5.102   8.309  0.5276  0.9447 -0.6937
 7027SOL     OW24611   2.984   4.564   9.660 -0.6860  0.2871  0.6795
 7027SOL    HW124612   3.054   4.543   9.721 -1.5799 -0.6619  1.4147
 7027SOL    HW224613   2.921   4.615   9.712 -0.9995  0.3016  0.2934
 7028SOL     OW24614   8.281   8.263   6.076 -0.1317 -0.2294 -0.0600
 7028SOL    HW124615   8.331   8.343   6.093 -0.1568 -0.2091 -0.0847
 7028SOL    HW224616   8.202   8.273   6.129 -0.8918  0.4878 -1.2802
 7029SOL     OW24617  10.360   0.457   9.263 -0.1211 -0.3936 -0.2350
 7029SOL    HW124618  10.380   0.385   9.323 -1.7645 -1.6998 -1.1579
 7029SOL    HW224619  10.392   0.427   9.178  0.1843  0.4678 -0.4324
 7030SOL     OW24620   8.330   8.857   8.196 -0.3517 -0.2451 -0.1135
 7030SOL    HW124621   8.263   8.827   8.134 -0.2537  0.8058 -0.7489
 7030SOL    HW224622   8.405   8.879   8.141  0.0792 -0.2136  0.4798
 7031SOL     OW24623   7.458   3.735   0.294  0.3961  0.0589 -0.5816
 7031SOL    HW124624   7.485   3.670   0.360  1.2991  0.6181 -0.3839
 7031SOL    HW224625   7.403   3.796   0.342  2.1559  1.2423  0.0239
 7032SOL     OW24626   8.391   8.159   9.867  0.1991  0.1793  0.0209
 7032SOL    HW124627   8.445   8.185   9.942  1.1462 -0.1770 -0.5197
 7032SOL    HW224628   8.452   8.117   9.807 -0.5982  0.2041 -0.8317
 7033SOL     OW24629   7.890   3.402   5.819  0.1619 -0.1817 -1.0669
 7033SOL    HW124630   7.812   3.358   5.786  0.2151 -0.1500 -1.2359
 7033SOL    HW224631   7.861   3.446   5.898 -0.2521  0.7223 -1.7063
 7034SOL     OW24632   4.886   9.684   2.177  0.0978 -0.2120  0.0678
 7034SOL    HW124633   4.847   9.673   2.264 -1.6037  1.6457 -0.3772
 7034SOL    HW224634   4.812   9.681   2.117  1.2345 -1.4112 -1.3531
 7035SOL     OW24635   8.381   4.359   0.975  0.3667 -0.0243 -0.2625
 7035SOL    HW124636   8.333   4.419   1.033  1.1450  1.7548 -1.3684
 7035SOL    HW224637   8.336   4.275   0.985 -1.5711  1.0275  0.4237
 7036SOL     OW24638   9.670   1.265   2.697  0.6898 -0.3313  0.3421
 7036SOL    HW124639   9.623   1.301   2.773 -0.4359 -1.4207  0.1962
 7036SOL    HW224640   9.655   1.171   2.702  1.0900 -0.4835 -0.9261
 7037SOL     OW24641   9.104   2.860   7.413  0.3858 -0.4232  0.2922
 7037SOL    HW124642   9.127   2.932   7.472  1.7189 -1.6368  1.3390
 7037SOL    HW224643   9.128   2.781   7.462  1.4207 -1.4979 -1.8165
 7038SOL     OW24644   4.429   3.133   3.987  0.1720  0.5974 -0.4791
 7038SOL    HW124645   4.396   3.110   3.900  2.3062  0.5910 -1.3337
 7038SOL    HW224646   4.470   3.053   4.019 -0.0695  0.7747  0.2996
 7039SOL     OW24647   1.668   2.961   7.247 -0.0396 -0.1186 -0.2672
 7039SOL    HW124648   1.612   2.891   7.280 -1.6918  1.4159  0.3931
 7039SOL    HW224649   1.730   2.918   7.188 -0.1935 -2.2607  1.0534
 7040SOL     OW24650   8.699   4.859   4.313 -0.5551  0.7400  0.1843
 7040SOL    HW124651   8.646   4.869   4.392 -2.9553 -1.4001 -1.0081
 7040SOL    HW224652   8.676   4.935   4.259 -0.5508  1.0754  0.6499
 7041SOL     OW24653   6.911   3.806   1.386 -0.7672 -0.1054 -0.2854
 7041SOL    HW124654   6.973   3.868   1.424 -0.6780 -0.3838  0.0334
 7041SOL    HW224655   6.859   3.858   1.325 -1.0461  0.4041  0.3673
 7042SOL     OW24656   8.826   0.889   9.882 -0.7975 -0.4289  0.1367
 7042SOL    HW124657   8.828   0.914   9.975  0.1656 -1.2229  0.3559
 7042SOL    HW224658   8.733   0.879   9.862 -1.1561  1.6247  0.4688
 7043SOL     OW24659   8.413   7.800  10.020 -0.0339  0.1185  0.2790
 7043SOL    HW124660   8.399   7.852  10.100  0.4546 -1.5588  1.5175
 7043SOL    HW224661   8.393   7.710  10.047  2.3309 -0.8146 -0.8615
 7044SOL     OW24662   7.826   4.443   0.614  0.6958 -0.1974  0.0505
 7044SOL    HW124663   7.920   4.431   0.596  0.7407  1.3688 -1.0374
 7044SOL    HW224664   7.825   4.503   0.689  0.6114  1.0291 -0.9020
 7045SOL     OW24665   9.139   0.786   7.871  0.3079 -0.4750  0.1639
 7045SOL    HW124666   9.079   0.758   7.802  0.9275  0.0472 -0.6143
 7045SOL    HW224667   9.173   0.705   7.909 -1.7420 -0.8180  1.4311
 7046SOL     OW24668   2.935   5.863   4.295  0.0284 -0.1525 -0.0891
 7046SOL    HW124669   2.902   5.936   4.243  0.5860  0.6575  0.6648
 7046SOL    HW224670   2.932   5.788   4.236 -1.3448  0.2954 -0.6280
 7047SOL     OW24671   7.887   4.412   3.903  0.1901  0.2179  0.5688
 7047SOL    HW124672   7.899   4.334   3.957  1.0087  0.1250  0.2692
 7047SOL    HW224673   7.846   4.476   3.961  0.9143  0.0695  1.2549
 7048SOL     OW24674   9.936   6.003   4.736  0.0117  0.1315  0.1665
 7048SOL    HW124675   9.879   6.040   4.668  0.2066 -1.0777 -0.6740
 7048SOL    HW224676  10.015   6.057   4.731 -0.3642  0.7018  0.1522
 7049SOL     OW24677   1.933   6.397   8.529 -0.4095 -0.0710 -0.4492
 7049SOL    HW124678   2.026   6.377   8.515 -0.2912 -1.3451  1.7575
 7049SOL    HW224679   1.917   6.376   8.621 -2.6905  0.9982 -0.5317
 7050SOL     OW24680   9.989   4.904   0.821 -0.4327 -0.2463 -0.8273
 7050SOL    HW124681  10.006   4.932   0.911 -1.7858 -0.3913 -0.5070
 7050SOL    HW224682  10.039   4.823   0.812  0.5792  0.3328 -0.5716
 7051SOL     OW24683   5.193   0.030   6.097 -0.3880 -0.0191 -0.0523
 7051SOL    HW124684   5.148   0.114   6.087  0.3411  0.3906  0.0677
 7051SOL    HW224685   5.217   0.027   6.190  0.1551 -0.0642 -0.1911
 7052SOL     OW24686   1.414   1.070   4.243 -0.0958  0.0765  0.5019
 7052SOL    HW124687   1.380   1.153   4.277  0.6549  0.9409 -0.7722
 7052SOL    HW224688   1.385   1.005   4.307  0.2489  1.4462  2.1343
 7053SOL     OW24689   3.604   8.853   4.534  0.1719  0.2304 -0.1215
 7053SOL    HW124690   3.678   8.796   4.557  1.1951  1.9498  1.1235
 7053SOL    HW224691   3.615   8.929   4.590 -1.3366  1.5216 -1.4928
 7054SOL     OW24692   6.187   1.544   6.048  0.4436  0.2532  0.1688
 7054SOL    HW124693   6.213   1.478   6.112  0.2885 -1.3329 -1.3462
 7054SOL    HW224694   6.092   1.547   6.053  0.2424 -1.5746 -1.5362
 7055SOL     OW24695  11.097   9.064   3.847 -0.5370 -0.1198 -0.4660
 7055SOL    HW124696  11.029   9.132   3.843  0.0825  0.5978  0.5439
 7055SOL    HW224697  11.089   9.029   3.936  1.0425  0.6740  0.0207
 7056SOL     OW24698   8.254   0.874   9.904  0.3851  0.0159 -0.4233
 7056SOL    HW124699   8.171   0.834   9.930  0.6934 -0.8866 -0.7975
 7056SOL    HW224700   8.320   0.811   9.931  1.1266  1.4726  1.4616
 7057SOL     OW24701  10.405   5.787   8.720  1.1599 -0.3590  0.1474
 7057SOL    HW124702  10.465   5.796   8.646 -0.1279 -0.5935 -0.9683
 7057SOL    HW224703  10.389   5.693   8.728  0.1541 -0.2402 -0.2523
 7058SOL     OW24704   7.522   4.577   4.254  0.1396 -0.2577 -0.1370
 7058SOL    HW124705   7.562   4.598   4.338  1.3854 -0.8478 -0.5594
 7058SOL    HW224706   7.520   4.660   4.207 -1.2765  0.2376  0.7391
 7059SOL     OW24707   6.686   8.137   9.814  0.5627 -0.4567  0.0106
 7059SOL    HW124708   6.710   8.219   9.857  0.1563 -0.0186 -0.5718
 7059SOL    HW224709   6.672   8.162   9.723 -0.5886 -0.9746  0.0318
 7060SOL     OW24710   5.207   6.458  10.875  0.5251 -0.1194  0.0397
 7060SOL    HW124711   5.189   6.367  10.900  0.7207 -0.1498  0.0739
 7060SOL    HW224712   5.131   6.485  10.824  0.3539 -0.2230  0.2408
 7061SOL     OW24713   7.914   4.343   2.151  0.0899  0.1903 -0.2566
 7061SOL    HW124714   7.957   4.269   2.194  1.0302  0.5378 -0.5667
 7061SOL    HW224715   7.830   4.353   2.196  0.1991 -0.7055  0.1532
 7062SOL     OW24716   9.101  10.978   3.449 -0.1936  0.3786  0.3513
 7062SOL    HW124717   9.111  10.910   3.382 -1.1348 -1.5671  2.0704
 7062SOL    HW224718   9.007  10.992   3.456  0.0252  3.1548 -1.1106
 7063SOL     OW24719   3.587  10.781   8.641  0.3406 -0.1284  0.9321
 7063SOL    HW124720   3.547  10.733   8.569 -0.5391  0.9704  0.6788
 7063SOL    HW224721   3.605  10.714   8.707  1.1164 -1.1400 -0.2590
 7064SOL     OW24722  10.155   6.075   4.594  0.3894 -0.2527  0.0098
 7064SOL    HW124723  10.143   6.135   4.520 -0.0952  0.8208  0.9219
 7064SOL    HW224724  10.249   6.074   4.608  0.4231  0.1280 -0.1562
 7065SOL     OW24725   2.017   9.274   3.372  0.2361 -0.2442  0.7327
 7065SOL    HW124726   2.063   9.193   3.349  1.5724  0.1783  1.8057
 7065SOL    HW224727   2.023   9.327   3.292  0.0827 -0.8684  0.2952
 7066SOL     OW24728   4.927   2.195   9.444  0.0675  0.2165  0.0235
 7066SOL    HW124729   4.916   2.141   9.523  0.0254  1.4809  0.9010
 7066SOL    HW224730   5.016   2.176   9.415 -0.7211 -2.1536 -1.1046
 7067SOL     OW24731   6.360   5.128   6.281  0.0310 -0.5814 -0.0919
 7067SOL    HW124732   6.309   5.064   6.330 -1.9424 -0.1927 -1.5139
 7067SOL    HW224733   6.296   5.191   6.249  1.6509  0.9443 -0.4990
 7068SOL     OW24734   2.548   8.322   3.271  0.3146 -0.4145  1.0438
 7068SOL    HW124735   2.483   8.377   3.315 -0.2012 -1.6842  1.9026
 7068SOL    HW224736   2.496   8.262   3.218  0.8417 -0.6753  0.8231
 7069SOL     OW24737   4.024   9.092   0.526  0.0363  0.3608 -0.4017
 7069SOL    HW124738   3.986   9.004   0.519 -0.3040  0.5097 -0.4560
 7069SOL    HW224739   4.118   9.078   0.519  0.1884 -0.2611  1.9559
 7070SOL     OW24740   5.891   5.621   9.652 -0.8189  0.6715 -0.0499
 7070SOL    HW124741   5.922   5.660   9.570  0.1166  0.6880  0.3006
 7070SOL    HW224742   5.796   5.618   9.643 -0.7473  0.9978 -0.9908
 7071SOL     OW24743   6.696   5.439   1.649  0.5430  0.0857 -0.0890
 7071SOL    HW124744   6.628   5.374   1.667 -2.5033  3.1361  0.5634
 7071SOL    HW224745   6.698   5.494   1.728  2.1518  1.4332 -0.9987
 7072SOL     OW24746   4.991   1.548   2.988  0.3533 -0.0803 -0.3171
 7072SOL    HW124747   4.983   1.459   2.953 -0.0612 -0.7375  1.3535
 7072SOL    HW224748   4.905   1.587   2.974  0.0582 -0.4880  0.3213
 7073SOL     OW24749   3.951   5.741  10.338 -0.2266 -0.0594  0.0279
 7073SOL    HW124750   3.945   5.781  10.424  1.8191  1.2739 -0.3897
 7073SOL    HW224751   3.860   5.722  10.315 -0.7477 -1.9147  3.0761
 7074SOL     OW24752   7.218   3.289   5.510  0.2408 -0.1470  0.2723
 7074SOL    HW124753   7.290   3.286   5.573 -1.9657 -1.5308  2.9765
 7074SOL    HW224754   7.164   3.362   5.540 -0.8471 -0.8208  0.0045
 7075SOL     OW24755   4.608   3.573  10.742 -0.1700 -0.0436  0.1000
 7075SOL    HW124756   4.555   3.640  10.785 -1.2437 -0.0769 -1.0945
 7075SOL    HW224757   4.622   3.506  10.809  0.3264  1.0389  1.1051
 7076SOL     OW24758   0.612   4.427   0.445 -0.3338  0.2371  0.8717
 7076SOL    HW124759   0.686   4.373   0.473  1.7810  2.0177 -0.9132
 7076SOL    HW224760   0.554   4.430   0.522  1.6309 -0.8975  2.4999
 7077SOL     OW24761   1.030   9.443   5.797 -0.3171  0.0375 -0.2084
 7077SOL    HW124762   0.935   9.456   5.800 -0.5459 -1.5414  0.4176
 7077SOL    HW224763   1.044   9.358   5.839  1.4877  0.7520  0.7524
 7078SOL     OW24764   6.976   3.885   5.753 -0.1373  0.1708 -0.5239
 7078SOL    HW124765   6.971   3.789   5.757  0.3939  0.1539 -0.1102
 7078SOL    HW224766   6.894   3.912   5.713 -0.6476 -0.4142  0.1002
 7079SOL     OW24767   6.665   1.991   2.715 -0.0459 -0.0012  0.0521
 7079SOL    HW124768   6.741   2.007   2.772 -0.4024  0.1143  0.4983
 7079SOL    HW224769   6.660   1.896   2.708 -0.0102 -0.0168  0.2288
 7080SOL     OW24770  10.871   4.122   2.440  0.3090  0.6555 -0.3313
 7080SOL    HW124771  10.778   4.143   2.439  0.2593  0.4486 -0.2551
 7080SOL    HW224772  10.886   4.080   2.525  0.0685 -1.0384 -1.0824
 7081SOL     OW24773   1.314   4.666   6.889  0.3252  0.2224 -0.2246
 7081SOL    HW124774   1.252   4.605   6.929  1.8487 -2.1934 -1.2940
 7081SOL    HW224775   1.266   4.706   6.817 -0.6057 -0.0085  0.2624
 7082SOL     OW24776   7.643   3.240   8.506  0.4683  0.2866  0.4346
 7082SOL    HW124777   7.689   3.244   8.422 -1.7088 -1.0980 -0.9552
 7082SOL    HW224778   7.620   3.147   8.515 -3.3591  1.0270  0.1194
 7083SOL     OW24779   5.689   5.510   7.785  0.2606  0.7888  0.0583
 7083SOL    HW124780   5.780   5.487   7.765  0.1613 -1.5770  1.8553
 7083SOL    HW224781   5.670   5.584   7.728  2.9480  0.6480 -1.1860
 7084SOL     OW24782   0.391   4.826   7.939  0.6890  0.3380 -0.4330
 7084SOL    HW124783   0.468   4.809   7.885  1.6020  1.2483  0.5495
 7084SOL    HW224784   0.317   4.800   7.884  1.6955 -0.6962 -1.3296
 7085SOL     OW24785   1.214   7.272   5.161  0.9536  0.1591  0.5981
 7085SOL    HW124786   1.260   7.197   5.201  1.1350  0.4835  1.0102
 7085SOL    HW224787   1.137   7.284   5.216  0.0577 -0.7350 -0.4184
 7086SOL     OW24788  10.618  10.209   6.119 -0.1507  0.5474  0.5204
 7086SOL    HW124789  10.540  10.191   6.172 -1.2063  0.6550 -0.9601
 7086SOL    HW224790  10.602  10.167   6.035  1.5079  0.3649  0.2579
 7087SOL     OW24791   9.396   8.626   9.381  0.3464  0.1381  0.2103
 7087SOL    HW124792   9.457   8.642   9.453  1.5695 -0.6681 -0.6288
 7087SOL    HW224793   9.451   8.620   9.303 -0.7376 -1.1034 -0.5028
 7088SOL     OW24794   2.743   2.296   4.286 -0.3687  0.9243 -0.2722
 7088SOL    HW124795   2.719   2.378   4.331  0.7476  0.3929  1.3954
 7088SOL    HW224796   2.710   2.227   4.344  1.7350  0.2083  0.1598
 7089SOL     OW24797   2.319  10.634  10.072  0.3588 -0.4307  0.3689
 7089SOL    HW124798   2.260  10.608  10.001  1.7795 -2.1046 -0.2366
 7089SOL    HW224799   2.283  10.591  10.149 -0.9288  1.0379  0.6688
 7090SOL     OW24800   3.458   6.983   0.922 -0.2022 -0.6231  0.1320
 7090SOL    HW124801   3.477   7.067   0.964 -0.4198 -0.8619  0.7173
 7090SOL    HW224802   3.540   6.934   0.926 -0.2054 -0.6211  0.2239
 7091SOL     OW24803  10.191   6.482   7.056 -0.0634 -0.9969  0.6975
 7091SOL    HW124804  10.132   6.416   7.020  1.0598 -0.9320 -1.4158
 7091SOL    HW224805  10.188   6.554   6.993  0.0143  0.2881  2.0994
 7092SOL     OW24806   3.980   4.707   3.440 -0.1203 -0.2815  0.5448
 7092SOL    HW124807   3.893   4.742   3.459 -0.8087 -1.4334 -0.3167
 7092SOL    HW224808   4.027   4.712   3.523 -1.0713  0.1719  1.0728
 7093SOL     OW24809   2.939  10.779   2.385  0.3362 -0.7402  0.4067
 7093SOL    HW124810   3.013  10.838   2.401  1.1837 -1.5458 -0.4328
 7093SOL    HW224811   2.885  10.827   2.321  1.1162 -0.9334 -0.4158
 7094SOL     OW24812  10.922   6.350   0.171  0.0657  0.6926 -0.3373
 7094SOL    HW124813  10.934   6.348   0.266 -0.3494 -0.1581 -0.2872
 7094SOL    HW224814  10.981   6.419   0.140  2.3358 -0.8566  0.2580
 7095SOL     OW24815   9.967   9.550   1.400  0.4046  0.3393 -0.2438
 7095SOL    HW124816  10.025   9.556   1.324 -1.3289 -1.9413 -1.8393
 7095SOL    HW224817   9.922   9.635   1.402  0.0431  0.2273 -2.1441
 7096SOL     OW24818   4.048   9.248   5.900  0.1724 -0.2143 -0.5929
 7096SOL    HW124819   3.991   9.216   5.970  1.1653 -0.8476 -0.0405
 7096SOL    HW224820   4.122   9.289   5.946  0.0863  0.7532 -1.2929
 7097SOL     OW24821  10.193   8.299   6.359 -0.1017 -0.1327  0.4993
 7097SOL    HW124822  10.217   8.375   6.412  3.0513  1.5784 -2.9180
 7097SOL    HW224823  10.251   8.229   6.389 -0.9609 -0.3611  1.6971
 7098SOL     OW24824   1.925   1.311   8.311  0.4649  0.4672  0.5095
 7098SOL    HW124825   1.836   1.278   8.295  1.1849 -1.6066  0.4233
 7098SOL    HW224826   1.949   1.274   8.396  1.4253  0.5641  0.2873
 7099SOL     OW24827   6.450   6.034   5.863  0.3600 -0.1790 -0.2151
 7099SOL    HW124828   6.513   6.100   5.892 -0.9336  0.1641  2.0147
 7099SOL    HW224829   6.399   6.014   5.941 -2.1522 -0.5896 -1.8704
 7100SOL     OW24830   2.753  10.756   3.972 -0.3483 -0.3010  0.6350
 7100SOL    HW124831   2.778  10.839   4.013  0.0095  0.4866 -1.0910
 7100SOL    HW224832   2.662  10.743   3.999  0.1017 -0.2180  2.2736
 7101SOL     OW24833   9.819   5.297   3.873 -0.8990 -0.3940  0.2579
 7101SOL    HW124834   9.891   5.358   3.856 -1.8951  0.8566  0.3519
 7101SOL    HW224835   9.854   5.211   3.851 -0.0714  0.4245 -1.8794
 7102SOL     OW24836   8.350   6.547   0.603 -1.0615  0.2858 -0.1767
 7102SOL    HW124837   8.380   6.464   0.638  0.5116  1.7362  2.2186
 7102SOL    HW224838   8.387   6.551   0.515 -1.9823 -1.8987 -0.7181
 7103SOL     OW24839   4.449   9.537   6.736  0.0507  0.2998 -0.0696
 7103SOL    HW124840   4.460   9.496   6.822  2.0022  1.3656  0.2471
 7103SOL    HW224841   4.378   9.488   6.695  1.8123 -2.9823  0.4746
 7104SOL     OW24842   7.125   6.569   2.949  0.6281 -0.2308  0.1707
 7104SOL    HW124843   7.154   6.582   2.858 -0.4368 -0.8651 -0.2776
 7104SOL    HW224844   7.067   6.493   2.945  0.6076 -0.2982  1.3996
 7105SOL     OW24845   1.233   3.603   6.063 -0.3177 -0.2753  0.4717
 7105SOL    HW124846   1.255   3.568   5.977 -1.0435  1.2156 -0.3684
 7105SOL    HW224847   1.217   3.526   6.117 -0.1847 -1.2424 -0.8180
 7106SOL     OW24848   5.909  10.485   4.217  0.1271  0.3762  0.0927
 7106SOL    HW124849   5.901  10.448   4.129  0.2039  0.1202  0.1928
 7106SOL    HW224850   5.977  10.432   4.259  2.0298  2.1630 -0.5498
 7107SOL     OW24851   9.933   7.458   0.182  0.3011  0.7037 -0.1230
 7107SOL    HW124852   9.874   7.396   0.225 -0.8664  3.3966  2.6417
 7107SOL    HW224853  10.019   7.418   0.188 -0.5675 -1.2148  0.2715
 7108SOL     OW24854  10.540   9.981   0.667  0.3656 -0.0099  0.0460
 7108SOL    HW124855  10.561   9.890   0.644  4.0488  0.4347  0.9758
 7108SOL    HW224856  10.550   9.984   0.763 -1.3019  1.0693  0.2235
 7109SOL     OW24857   9.004   1.105   0.269  0.4688 -0.2660  0.0548
 7109SOL    HW124858   8.947   1.059   0.208  0.3430 -0.7478  0.5329
 7109SOL    HW224859   9.003   1.051   0.348  0.2943  0.5743  0.6336
 7110SOL     OW24860   5.866   0.531   8.045 -0.1338 -0.5172  0.4993
 7110SOL    HW124861   5.953   0.496   8.026  0.5983  1.6514 -0.5214
 7110SOL    HW224862   5.874   0.569   8.133  0.4595  0.9907 -0.1664
 7111SOL     OW24863   5.584   0.874   4.812  0.2866  0.1310  0.3906
 7111SOL    HW124864   5.594   0.920   4.729 -1.5747 -0.6410 -0.3154
 7111SOL    HW224865   5.605   0.783   4.792  0.8841  0.1079  1.0468
 7112SOL     OW24866   9.386   7.158   6.091 -0.5122  0.1545  0.0451
 7112SOL    HW124867   9.413   7.249   6.078 -0.0268 -0.1856 -1.4403
 7112SOL    HW224868   9.436   7.109   6.026 -0.8474 -1.1683  0.7626
 7113SOL     OW24869   7.192   9.488   3.138  0.0232 -0.4483  0.5880
 7113SOL    HW124870   7.263   9.439   3.180  0.2004 -0.1692  0.6151
 7113SOL    HW224871   7.205   9.474   3.044 -1.6243 -2.8548  0.6250
 7114SOL     OW24872   4.565  10.070   1.535  0.4384 -0.4269 -0.6315
 7114SOL    HW124873   4.630  10.087   1.468  1.0454 -0.1434  0.0210
 7114SOL    HW224874   4.486  10.113   1.503  0.3188 -1.4699 -1.8248
 7115SOL     OW24875  10.033   5.797   8.943 -0.3636  0.3475  0.8561
 7115SOL    HW124876  10.005   5.820   8.854  1.5908  0.0172  0.0956
 7115SOL    HW224877  10.098   5.863   8.965  1.4673 -1.3059  0.7388
 7116SOL     OW24878   0.824   6.770   8.805 -0.5968  0.2203  0.3424
 7116SOL    HW124879   0.908   6.785   8.848 -1.0061 -2.4206  2.3686
 7116SOL    HW224880   0.763   6.758   8.878 -2.2421 -0.2834 -1.0689
 7117SOL     OW24881   5.428   0.060   0.419  0.2633 -0.3863 -0.4242
 7117SOL    HW124882   5.361   0.062   0.486 -0.4256 -1.4484 -1.0466
 7117SOL    HW224883   5.510   0.050   0.467 -0.1993 -0.9221  0.2692
 7118SOL     OW24884   0.905   1.728   1.053  0.1655  0.1058  0.3584
 7118SOL    HW124885   0.940   1.778   0.980 -0.6293 -1.8642 -1.4721
 7118SOL    HW224886   0.854   1.791   1.104 -0.8575  1.1838 -1.8875
 7119SOL     OW24887   6.784   0.718   1.162 -0.3302 -0.5145  0.1669
 7119SOL    HW124888   6.850   0.730   1.229 -0.6759  0.4013  0.3554
 7119SOL    HW224889   6.813   0.772   1.088 -0.5036 -0.6636 -0.0130
 7120SOL     OW24890   4.366   8.519  10.115 -0.2728  0.6147  0.3710
 7120SOL    HW124891   4.368   8.565  10.031  1.7623 -1.1563 -0.6615
 7120SOL    HW224892   4.279   8.538  10.150 -0.6873  2.5700 -1.4427
 7121SOL     OW24893   6.553   9.078   2.596  0.2320  0.2654  0.0590
 7121SOL    HW124894   6.598   9.047   2.675  2.7260  2.4115 -0.3663
 7121SOL    HW224895   6.568   9.010   2.531  1.0160 -0.0395  0.5515
 7122SOL     OW24896   0.703   7.580   2.082 -0.5628 -0.1052 -0.3799
 7122SOL    HW124897   0.771   7.646   2.095  0.8968 -1.9106  1.9767
 7122SOL    HW224898   0.678   7.589   1.990  3.0427  0.4709 -1.4279
 7123SOL     OW24899   0.682   8.519   1.596 -0.2800 -0.0510 -0.0452
 7123SOL    HW124900   0.734   8.439   1.601  0.5959  0.5531  1.1230
 7123SOL    HW224901   0.736   8.585   1.640 -0.6700  1.3549 -1.5996
 7124SOL     OW24902  10.857   2.992   9.334  0.0224  0.2297 -0.4147
 7124SOL    HW124903  10.775   3.031   9.303 -0.6806  0.3892  1.5068
 7124SOL    HW224904  10.924   3.053   9.303 -0.7640  1.1412 -0.4054
 7125SOL     OW24905   1.592   5.722   9.651 -0.1799 -0.6088 -0.3313
 7125SOL    HW124906   1.580   5.675   9.569 -0.6217  0.4590 -0.8935
 7125SOL    HW224907   1.582   5.815   9.628 -1.1959 -0.3304  1.0616
 7126SOL     OW24908   9.973  10.077  10.183 -0.8216 -0.9090  0.1424
 7126SOL    HW124909  10.057  10.107  10.147  0.8301 -3.2855  1.7462
 7126SOL    HW224910   9.952  10.142  10.250 -0.6876  0.1034 -0.7542
 7127SOL     OW24911   1.207   3.760   8.282  0.1982 -0.2506 -0.3953
 7127SOL    HW124912   1.150   3.684   8.273  2.3233 -1.8730 -0.7669
 7127SOL    HW224913   1.176   3.821   8.215 -2.9683  0.2972  1.3281
 7128SOL     OW24914   1.195   8.256   1.653  0.0151 -0.3502  0.0126
 7128SOL    HW124915   1.221   8.188   1.714  0.8612  0.5811  0.7137
 7128SOL    HW224916   1.141   8.210   1.587  1.1106 -1.7983  0.0849
 7129SOL     OW24917   6.986   3.492   0.157 -0.3857 -0.2886 -0.1099
 7129SOL    HW124918   6.890   3.496   0.159 -0.4503 -1.6354  1.1081
 7129SOL    HW224919   7.006   3.425   0.093 -0.3395 -1.2406  0.8725
 7130SOL     OW24920   8.353   0.530   1.480 -0.1043 -0.0614  0.2674
 7130SOL    HW124921   8.391   0.510   1.395 -1.1442  0.6305 -0.3896
 7130SOL    HW224922   8.329   0.445   1.517 -0.7767 -0.3101 -0.6963
 7131SOL     OW24923   2.539   6.753   9.721  0.2461 -0.5234 -1.0651
 7131SOL    HW124924   2.576   6.835   9.686  1.4596 -0.2385  0.7716
 7131SOL    HW224925   2.501   6.710   9.644  1.9778  0.4883 -2.5659
 7132SOL     OW24926   2.489   9.895   6.485  0.4421 -0.3386  0.4125
 7132SOL    HW124927   2.479   9.874   6.578  0.3042 -1.1787  0.2227
 7132SOL    HW224928   2.414   9.951   6.464  1.4507  1.3816  1.2104
 7133SOL     OW24929   5.106   0.887   9.244 -0.4375 -0.2462 -0.1294
 7133SOL    HW124930   5.033   0.900   9.184 -1.0358  2.4367  1.0392
 7133SOL    HW224931   5.181   0.873   9.187 -0.9747  2.2332 -1.6021
 7134SOL     OW24932   3.719   7.796   0.184  0.2362 -0.5625 -0.2655
 7134SOL    HW124933   3.766   7.718   0.153  0.9924 -0.9200  1.6455
 7134SOL    HW224934   3.628   7.766   0.193  0.4016 -1.0489 -0.1591
 7135SOL     OW24935   1.708   8.115   1.147 -0.8965 -0.2656 -0.4816
 7135SOL    HW124936   1.750   8.159   1.220 -0.3130  1.6936 -1.9020
 7135SOL    HW224937   1.631   8.168   1.128 -1.5728 -1.2994 -0.6804
 7136SOL     OW24938   7.867   0.180   6.223 -0.5002 -0.3662  0.9259
 7136SOL    HW124939   7.885   0.272   6.205 -0.6262 -0.4170  0.5496
 7136SOL    HW224940   7.838   0.179   6.315  2.0460 -0.3522  1.8109
 7137SOL     OW24941  10.857   2.570   5.101 -0.2103  0.2265 -0.0717
 7137SOL    HW124942  10.806   2.645   5.071  1.1213  1.6697  1.0442
 7137SOL    HW224943  10.842   2.567   5.195  0.7485 -0.0870  0.0845
 7138SOL     OW24944   2.063   9.582   7.994  0.6390  0.2078  0.3348
 7138SOL    HW124945   2.012   9.563   7.915 -0.4601  2.0019  0.5607
 7138SOL    HW224946   2.023   9.528   8.062 -0.5263  1.0498  0.3445
 7139SOL     OW24947   2.579   8.169   1.323 -0.3272  0.1450 -0.0756
 7139SOL    HW124948   2.556   8.114   1.398 -0.9799  1.6592  0.8946
 7139SOL    HW224949   2.671   8.190   1.337 -0.4027  0.2888  0.2213
 7140SOL     OW24950   4.028   6.530   9.468 -0.3208 -0.7509 -0.1175
 7140SOL    HW124951   4.058   6.560   9.382  1.5030 -1.4917  0.2246
 7140SOL    HW224952   4.006   6.438   9.454 -1.2403 -0.5493 -0.0565
 7141SOL     OW24953   8.826   1.819   3.333 -0.2673  0.1178  0.1925
 7141SOL    HW124954   8.744   1.835   3.381 -1.1438  0.7698 -1.4319
 7141SOL    HW224955   8.863   1.906   3.319 -0.9103  0.1192 -1.7363
 7142SOL     OW24956  11.070  11.033   5.897 -0.2093  0.2868 -0.6275
 7142SOL    HW124957  11.089  10.951   5.942 -0.8004  1.0694  1.1477
 7142SOL    HW224958  11.131  11.096   5.937  0.5963  0.6403 -2.3276
 7143SOL     OW24959   1.255   7.343   6.985  0.5097  0.2835 -0.4464
 7143SOL    HW124960   1.189   7.412   6.987  0.1876 -0.0062 -0.8194
 7143SOL    HW224961   1.214   7.271   7.033  0.4414  0.0117 -0.9019
 7144SOL     OW24962   9.589   3.547   0.147  0.1966  0.0377  0.0144
 7144SOL    HW124963   9.599   3.560   0.053 -0.4250 -4.6948 -0.9680
 7144SOL    HW224964   9.677   3.553   0.182  0.3363  2.7098 -0.6031
 7145SOL     OW24965   9.494   3.762   9.572  0.2722 -0.2940  0.0737
 7145SOL    HW124966   9.536   3.787   9.654 -1.5159  1.4623  0.5329
 7145SOL    HW224967   9.430   3.695   9.597  1.4052 -1.5567 -0.3154
 7146SOL     OW24968   4.955   9.358   4.898 -0.1065 -0.2576  0.2508
 7146SOL    HW124969   4.993   9.378   4.983 -0.5057  0.6622  0.2298
 7146SOL    HW224970   4.964   9.439   4.848 -1.9621 -0.0408  0.2026
 7147SOL     OW24971  10.462   4.355   2.638 -0.5003 -0.0853 -0.0487
 7147SOL    HW124972  10.405   4.310   2.575 -0.7996  0.6795 -0.3349
 7147SOL    HW224973  10.452   4.448   2.618  1.9151  0.0546 -1.0568
 7148SOL     OW24974   6.719   4.484   6.901 -0.3625  0.5464 -0.0205
 7148SOL    HW124975   6.792   4.507   6.958 -1.7991  0.7815  1.8252
 7148SOL    HW224976   6.727   4.389   6.888  0.7213  0.6979 -0.5408
 7149SOL     OW24977   8.546   4.670   0.434  0.1982  0.4240 -0.1337
 7149SOL    HW124978   8.542   4.755   0.390  0.4060  0.5646  0.1075
 7149SOL    HW224979   8.467   4.667   0.488  1.7947  1.9775  2.4992
 7150SOL     OW24980   8.419   4.329   1.466  0.0317 -0.3300 -0.0233
 7150SOL    HW124981   8.396   4.236   1.473  0.9510 -0.5689 -0.0359
 7150SOL    HW224982   8.499   4.330   1.413 -0.3168  0.5222 -0.5377
 7151SOL     OW24983   2.279   0.144   2.668 -0.3698 -0.3027 -0.3322
 7151SOL    HW124984   2.226   0.067   2.648  0.2442 -1.2380  1.5345
 7151SOL    HW224985   2.322   0.124   2.751  3.0582  0.3423 -1.7772
 7152SOL     OW24986   4.260   8.301   2.254 -0.0684  0.4399  0.2300
 7152SOL    HW124987   4.246   8.211   2.283 -0.4925  0.4488  0.0588
 7152SOL    HW224988   4.335   8.331   2.305  0.2673 -0.1129  0.0627
 7153SOL     OW24989   4.740   0.610  10.782  0.6771  0.0867  0.2784
 7153SOL    HW124990   4.737   0.568  10.696  1.5462  0.0176  0.2730
 7153SOL    HW224991   4.831   0.602  10.810  0.1853 -0.8838  1.7181
 7154SOL     OW24992   3.226   0.106   4.843  0.1325  0.3002 -0.0651
 7154SOL    HW124993   3.223   0.184   4.788 -2.5323  0.5665  0.3359
 7154SOL    HW224994   3.149   0.114   4.899  1.2476 -1.3438  1.7964
 7155SOL     OW24995   9.783   7.514   2.947  0.0691  0.6601  0.4120
 7155SOL    HW124996   9.701   7.562   2.955  0.7527  2.1892 -1.1197
 7155SOL    HW224997   9.848   7.571   2.987  0.6750  0.3455 -0.1109
 7156SOL     OW24998   9.953   9.648   7.749  0.1333 -0.1960  0.5429
 7156SOL    HW124999   9.913   9.575   7.797  1.1448 -1.1268  0.0010
 7156SOL    HW225000  10.023   9.678   7.807 -0.2262  0.3025  0.7255
 7157SOL     OW25001  10.173   1.384   2.366 -0.3606 -0.2735 -0.3869
 7157SOL    HW125002  10.080   1.379   2.345 -1.6356 -0.6984  4.2757
 7157SOL    HW225003  10.195   1.297   2.399  0.6036  0.8011  1.9925
 7158SOL     OW25004   1.912   1.396   6.281  0.2319  0.2564 -0.1610
 7158SOL    HW125005   1.894   1.483   6.318 -0.6471  0.4166 -0.9265
 7158SOL    HW225006   1.864   1.395   6.198  2.0397 -0.1329 -1.2720
 7159SOL     OW25007   2.593   2.660  10.808  0.1043  0.3397  0.0290
 7159SOL    HW125008   2.595   2.690  10.898  1.0716  1.3336 -0.2965
 7159SOL    HW225009   2.579   2.565  10.814 -0.7609  0.5225  1.1711
 7160SOL     OW25010   0.833   9.878   1.990  0.2864 -0.1546 -0.1544
 7160SOL    HW125011   0.753   9.915   1.953  0.4822 -0.5061 -0.9534
 7160SOL    HW225012   0.900   9.945   1.975 -0.0082  0.4941  1.2576
 7161SOL     OW25013   5.489   6.983   4.610 -0.4463 -0.1346  0.0195
 7161SOL    HW125014   5.427   6.955   4.543 -1.6117  0.8946  0.6168
 7161SOL    HW225015   5.436   7.034   4.671  0.2039 -2.4023  2.6643
 7162SOL     OW25016   5.970   9.381   5.560  0.3410 -0.1265 -0.0193
 7162SOL    HW125017   5.978   9.471   5.592 -2.2768  0.5665 -1.0635
 7162SOL    HW225018   6.020   9.380   5.478  1.7779 -0.1571  0.8128
 7163SOL     OW25019   7.235   2.216  10.947  0.0055 -1.2224  0.3783
 7163SOL    HW125020   7.246   2.162  10.869 -1.8560 -0.5382 -0.4271
 7163SOL    HW225021   7.142   2.239  10.947  0.3702  0.4675  1.6818
 7164SOL     OW25022   8.049   1.948  10.005 -0.0660 -0.3228  0.7274
 7164SOL    HW125023   7.953   1.944  10.010 -0.0754 -0.5767  0.4209
 7164SOL    HW225024   8.070   2.041  10.004 -0.3651 -0.2581 -0.0839
 7165SOL     OW25025   1.711   3.016   2.367 -0.0047  0.3625 -0.5477
 7165SOL    HW125026   1.667   2.942   2.409 -1.2811  0.3226 -1.8401
 7165SOL    HW225027   1.641   3.080   2.353  0.5264  0.6987 -1.8269
 7166SOL     OW25028   6.066   7.490   9.377 -0.3663  0.0309 -0.4821
 7166SOL    HW125029   6.032   7.406   9.408 -0.2729  1.1484  3.1089
 7166SOL    HW225030   5.989   7.535   9.342 -0.7374 -0.9233 -0.9152
 7167SOL     OW25031   2.598   9.190   2.364 -0.4056  0.4768 -0.0430
 7167SOL    HW125032   2.602   9.148   2.450  0.2361 -0.4125 -0.4901
 7167SOL    HW225033   2.672   9.250   2.363  0.5728 -0.7062 -0.5627
 7168SOL     OW25034   6.938   7.118  11.069  0.4694 -0.7068  0.1770
 7168SOL    HW125035   6.968   7.193  11.121  0.7018 -0.2060 -0.6514
 7168SOL    HW225036   6.848   7.103  11.098  0.6264 -0.5014  0.7883
 7169SOL     OW25037  10.095   6.391   8.879  0.0273  0.0949  0.3458
 7169SOL    HW125038  10.157   6.445   8.927  0.7361 -0.6855  0.3390
 7169SOL    HW225039  10.131   6.302   8.884 -0.9542 -0.3365  0.1186
 7170SOL     OW25040   0.962   4.704   8.821 -0.1904 -0.3214 -0.0536
 7170SOL    HW125041   0.901   4.774   8.797  0.8605  1.3308  1.8124
 7170SOL    HW225042   0.913   4.648   8.881  0.0997  1.0848  1.5622
 7171SOL     OW25043   5.573   9.681   3.991  0.6815 -0.2392 -0.4442
 7171SOL    HW125044   5.482   9.677   3.962  0.3158 -0.6176  0.7305
 7171SOL    HW225045   5.615   9.606   3.949  0.5257  0.0917 -1.2080
 7172SOL     OW25046   9.412   7.673   8.183 -0.5130  0.4245 -0.2701
 7172SOL    HW125047   9.356   7.715   8.248 -1.0826  0.7051 -0.9264
 7172SOL    HW225048   9.496   7.662   8.227 -0.9152  0.5129  0.5437
 7173SOL     OW25049   5.588   6.443   8.569 -0.2812  0.2474  0.7319
 7173SOL    HW125050   5.508   6.489   8.545 -0.2448 -0.8685 -1.7597
 7173SOL    HW225051   5.568   6.402   8.653 -1.4330  1.9816  1.3608
 7174SOL     OW25052  10.659   2.319   3.501 -0.3909 -0.0203  0.4676
 7174SOL    HW125053  10.627   2.265   3.430  0.7466 -2.8747  1.9569
 7174SOL    HW225054  10.603   2.397   3.500 -2.0434 -1.1388 -1.8865
 7175SOL     OW25055   1.831   9.363   4.963 -0.1254  0.2067 -0.0545
 7175SOL    HW125056   1.747   9.326   4.992  0.0131 -2.5819 -2.7117
 7175SOL    HW225057   1.808   9.447   4.924 -2.0230 -1.0708 -1.9315
 7176SOL     OW25058   5.650   1.162   4.287  0.8677  0.1536 -0.2974
 7176SOL    HW125059   5.593   1.112   4.229  1.1484  0.9378 -1.2626
 7176SOL    HW225060   5.592   1.227   4.328  0.9405  0.5365 -0.7971
 7177SOL     OW25061   9.506  10.243   5.294  0.2077  0.0698  0.1290
 7177SOL    HW125062   9.583  10.187   5.285 -0.6068 -1.3727  1.5854
 7177SOL    HW225063   9.535  10.317   5.346  0.9087  0.1889 -0.4217
 7178SOL     OW25064   6.469   9.288   3.828 -0.2591 -0.5489  0.2498
 7178SOL    HW125065   6.551   9.298   3.876 -0.8018 -1.7171  1.5107
 7178SOL    HW225066   6.438   9.377   3.814 -0.5161 -0.1216  2.9561
 7179SOL     OW25067   4.390   1.500   1.007  0.0839  0.0608  0.2335
 7179SOL    HW125068   4.321   1.564   1.024  1.8511  1.5458  2.3443
 7179SOL    HW225069   4.361   1.421   1.055 -0.1144  0.7137  1.2285
 7180SOL     OW25070   7.117   7.380   4.699  0.2528 -0.2355  0.0818
 7180SOL    HW125071   7.153   7.434   4.629 -1.7600  2.2152  0.7861
 7180SOL    HW225072   7.047   7.331   4.657 -1.1143  1.4114  0.3073
 7181SOL     OW25073   4.351   0.551   8.163  0.3000  0.0806  0.1853
 7181SOL    HW125074   4.322   0.533   8.074 -0.0602 -1.9360  0.6543
 7181SOL    HW225075   4.390   0.638   8.159 -1.0111  0.6377 -1.6148
 7182SOL     OW25076   8.852   1.797   0.014 -0.6075 -0.0519  0.0552
 7182SOL    HW125077   8.785   1.762  -0.045 -0.0822 -1.0545  0.0279
 7182SOL    HW225078   8.805   1.820   0.094 -1.0414 -0.3629 -0.1083
 7183SOL     OW25079   2.768   2.847   8.627  0.3377  0.3784  0.0041
 7183SOL    HW125080   2.861   2.846   8.645  0.2868  0.5545  0.2727
 7183SOL    HW225081   2.733   2.917   8.681 -0.2601 -0.9844  1.4804
 7184SOL     OW25082   4.255   2.925   0.950 -0.5530  0.1971 -0.0798
 7184SOL    HW125083   4.267   2.852   1.010 -0.8280  0.3434  0.1580
 7184SOL    HW225084   4.319   2.990   0.978 -0.0677 -0.0911 -0.5142
 7185SOL     OW25085   5.691   5.454   7.460 -0.4314  0.0942  0.0187
 7185SOL    HW125086   5.785   5.438   7.469 -0.4330 -0.7623 -1.2538
 7185SOL    HW225087   5.687   5.533   7.405 -0.4220 -1.1888 -1.9121
 7186SOL     OW25088   8.593   3.091   0.258  0.0020  0.3913  0.1594
 7186SOL    HW125089   8.663   3.059   0.202  0.9514  0.5677  1.2181
 7186SOL    HW225090   8.546   3.012   0.286  0.6688  0.1435  0.5908
 7187SOL     OW25091   9.169   1.039   3.937 -0.2409  0.1110 -0.0516
 7187SOL    HW125092   9.150   1.121   3.983  0.1089  0.4088 -0.4308
 7187SOL    HW225093   9.085   1.014   3.898 -0.3207  0.3677 -0.0489
 7188SOL     OW25094   9.323   0.010   9.952 -0.0604  0.3583  0.3620
 7188SOL    HW125095   9.345   0.012   9.859 -1.5051 -1.3993 -0.0662
 7188SOL    HW225096   9.394   0.059   9.995 -0.3566  2.9341 -1.8209
 7189SOL     OW25097   7.873   3.273   9.974 -0.3629  0.0875  0.0034
 7189SOL    HW125098   7.825   3.246  10.052 -0.0362 -0.5967 -0.0257
 7189SOL    HW225099   7.875   3.369   9.979  4.1517  0.1650  3.6863
 7190SOL     OW25100  10.869   0.978   0.758 -0.4988  0.0943  0.6005
 7190SOL    HW125101  10.811   1.045   0.721 -0.4070  0.5156  1.1971
 7190SOL    HW225102  10.894   1.013   0.844  0.4586 -0.1878  0.4439
 7191SOL     OW25103   5.110   2.015   2.213 -0.3376  0.4588 -0.1312
 7191SOL    HW125104   5.167   2.090   2.228 -1.3864  1.3302 -0.3806
 7191SOL    HW225105   5.043   2.021   2.281  0.4510 -1.1935  0.8643
 7192SOL     OW25106   0.706   2.849   3.520 -0.1671 -0.3318 -0.6139
 7192SOL    HW125107   0.638   2.895   3.569  1.0705  1.0050 -0.0878
 7192SOL    HW225108   0.756   2.801   3.586 -1.0819 -2.0648 -1.0927
 7193SOL     OW25109   9.987   5.763  10.733  0.1987 -0.4946 -0.2393
 7193SOL    HW125110  10.016   5.751  10.824 -0.5422  2.3910  0.4885
 7193SOL    HW225111  10.043   5.832  10.699 -2.9178  2.3450 -0.1185
 7194SOL     OW25112   5.684   7.461   8.731 -0.0055  0.1634  0.2148
 7194SOL    HW125113   5.622   7.480   8.660 -0.2121  0.9484  0.5860
 7194SOL    HW225114   5.645   7.388   8.778 -1.1648  1.2254  0.9983
 7195SOL     OW25115   8.201   6.708   0.096 -0.5390  0.2302 -0.6838
 7195SOL    HW125116   8.124   6.746   0.138 -1.0138 -0.4189 -0.9497
 7195SOL    HW225117   8.185   6.718   0.002  0.2473  1.1464 -0.7351
 7196SOL     OW25118  10.416   3.621   2.984  0.0628 -0.4729 -0.2207
 7196SOL    HW125119  10.442   3.632   2.893  0.9333 -0.3243  0.0370
 7196SOL    HW225120  10.420   3.526   2.999  3.3454 -0.3111  0.6012
 7197SOL     OW25121   7.736   9.001   3.250  0.4133  0.1215 -0.9730
 7197SOL    HW125122   7.679   8.962   3.316  1.2140 -0.6916 -0.7559
 7197SOL    HW225123   7.676   9.052   3.194 -0.4299 -0.1888 -0.3689
 7198SOL     OW25124   9.411   7.357   7.632 -0.2376  0.0208 -0.1946
 7198SOL    HW125125   9.461   7.424   7.678 -1.7555  0.2254  1.2618
 7198SOL    HW225126   9.414   7.383   7.540 -0.6805  2.0382  0.3152
 7199SOL     OW25127   9.934   8.018  10.199 -0.2674 -0.6338 -0.0319
 7199SOL    HW125128   9.921   7.991  10.108 -0.3294 -0.1138 -0.1817
 7199SOL    HW225129   9.894   7.948  10.251 -1.0502 -0.4869 -0.4274
 7200SOL     OW25130   1.587   1.221   0.015 -0.5104 -0.1055  0.9070
 7200SOL    HW125131   1.625   1.225  -0.073 -1.8605 -1.2036  0.2278
 7200SOL    HW225132   1.589   1.129   0.038 -0.2673  0.1611  2.0050
 7201SOL     OW25133   1.317   7.378   3.833 -0.4904 -0.0539  0.2023
 7201SOL    HW125134   1.335   7.340   3.747 -2.3053 -0.1795 -0.1603
 7201SOL    HW225135   1.316   7.473   3.817  0.6409 -0.0045  0.3985
 7202SOL     OW25136   9.816   8.442   2.915 -0.4688 -0.9158  0.1000
 7202SOL    HW125137   9.873   8.425   2.990  1.9359  0.5649 -1.2820
 7202SOL    HW225138   9.845   8.381   2.848  1.6982  1.7614 -1.6174
 7203SOL     OW25139   1.237  10.056   5.671 -0.1322 -0.2605  0.3652
 7203SOL    HW125140   1.289  10.072   5.592 -2.1975  0.1451 -0.9868
 7203SOL    HW225141   1.204   9.967   5.661  1.3550 -1.0282  1.8886
 7204SOL     OW25142   4.026   3.556   8.120 -0.1702  0.0516 -0.2288
 7204SOL    HW125143   4.100   3.587   8.068 -0.2419 -1.5789 -1.3763
 7204SOL    HW225144   3.997   3.634   8.168  1.9321  0.8509 -0.1292
 7205SOL     OW25145   7.567   3.533   7.178 -0.3945 -0.5247  0.0634
 7205SOL    HW125146   7.495   3.516   7.240  0.0990 -0.1873  0.7348
 7205SOL    HW225147   7.594   3.622   7.197 -0.7171 -0.1515 -1.1506
 7206SOL     OW25148   3.354   3.616   4.231 -0.3438 -0.3349 -0.0023
 7206SOL    HW125149   3.427   3.575   4.185 -1.7187 -2.2980 -0.5848
 7206SOL    HW225150   3.392   3.651   4.311  1.2879 -0.9434 -0.4734
 7207SOL     OW25151   5.456   8.335   5.929  0.3617 -0.0006  0.0489
 7207SOL    HW125152   5.487   8.269   5.991 -0.0834  0.5486  0.8733
 7207SOL    HW225153   5.379   8.295   5.888  0.5728 -0.3059 -0.0572
 7208SOL     OW25154   1.762   1.551  10.545  0.1657 -0.8678  0.6577
 7208SOL    HW125155   1.828   1.575  10.611  2.8548 -0.2749 -2.0255
 7208SOL    HW225156   1.725   1.634  10.517  0.5368 -0.9073  0.0216
 7209SOL     OW25157   9.949   5.432   5.179  0.3880 -0.2690 -0.0933
 7209SOL    HW125158   9.970   5.461   5.091  0.1162  0.6348  0.1372
 7209SOL    HW225159   9.887   5.360   5.166 -0.9202  0.9058 -0.6117
 7210SOL     OW25160   8.990   1.214   9.075  0.3973 -0.5671  0.3966
 7210SOL    HW125161   9.043   1.141   9.106  2.5049  1.3514  1.5341
 7210SOL    HW225162   9.053   1.279   9.045 -1.1562  2.1848  2.5973
 7211SOL     OW25163  10.833   5.492   0.478  0.3338 -0.2626 -0.3224
 7211SOL    HW125164  10.781   5.495   0.558 -2.4286  0.0686 -1.9664
 7211SOL    HW225165  10.783   5.434   0.419  2.3136 -0.6116 -1.7747
 7212SOL     OW25166   4.138   3.330   3.506 -0.6108  0.1184 -0.2361
 7212SOL    HW125167   4.190   3.399   3.549  0.4446 -0.0941 -1.1427
 7212SOL    HW225168   4.107   3.275   3.578  2.7445 -1.3855  0.2367
 7213SOL     OW25169  10.834   7.821   0.982 -0.3503 -0.1791 -0.2328
 7213SOL    HW125170  10.837   7.858   0.894 -1.1267  0.1288 -0.1395
 7213SOL    HW225171  10.849   7.896   1.040 -0.8716 -0.1844 -0.0801
 7214SOL     OW25172   7.387  10.380   7.784 -0.0001  0.1466  0.2517
 7214SOL    HW125173   7.378  10.470   7.753  0.8355  0.4869  0.9540
 7214SOL    HW225174   7.406  10.388   7.877 -1.0597 -0.8116  0.5647
 7215SOL     OW25175   2.618   9.072   8.563  0.0671 -0.1566  0.0151
 7215SOL    HW125176   2.578   8.988   8.541  0.0536 -0.2614  0.4408
 7215SOL    HW225177   2.632   9.114   8.478 -2.1131  0.4217 -0.1256
 7216SOL     OW25178   7.040   3.330   3.796 -0.4213 -0.1495 -0.5585
 7216SOL    HW125179   7.115   3.389   3.800 -1.3216  0.9522  1.1541
 7216SOL    HW225180   7.062   3.269   3.725  1.2797  1.2004 -1.2796
 7217SOL     OW25181   7.463   0.709   6.979  0.0836 -0.7025  0.5748
 7217SOL    HW125182   7.513   0.628   6.967 -0.5747 -1.0028 -0.2087
 7217SOL    HW225183   7.523   0.779   6.953  0.1323 -1.0553 -0.2779
 7218SOL     OW25184   0.004  10.502  10.925  0.3777  0.2614  0.5569
 7218SOL    HW125185   0.041  10.496  10.837  0.0041 -0.2532  0.4312
 7218SOL    HW225186  -0.021  10.594  10.934 -1.7819 -0.1028 -0.7997
 7219SOL     OW25187   8.024   6.775   3.546 -0.6792  0.4780 -0.1700
 7219SOL    HW125188   8.029   6.681   3.532 -0.1325  0.4000  0.4823
 7219SOL    HW225189   7.945   6.788   3.597 -0.1146  0.2238  0.7988
 7220SOL     OW25190   0.768   3.756   1.156 -0.4233 -0.0926  0.1893
 7220SOL    HW125191   0.767   3.700   1.078 -0.6518  1.5612 -1.0446
 7220SOL    HW225192   0.801   3.840   1.125 -0.3677  0.5651  1.9277
 7221SOL     OW25193   5.791   1.450   7.721 -0.5696  0.1741  0.1820
 7221SOL    HW125194   5.742   1.473   7.799 -1.5444  1.5883 -0.7896
 7221SOL    HW225195   5.841   1.372   7.745 -0.7727  0.6290  2.2114
 7222SOL     OW25196  10.874   8.911   3.290  0.0992  0.5693  0.7901
 7222SOL    HW125197  10.965   8.939   3.284  0.3180 -0.3159 -0.4319
 7222SOL    HW225198  10.877   8.831   3.343  0.2418 -0.2352 -0.3980
 7223SOL     OW25199   4.469   1.420   5.367 -0.5677 -0.0900 -0.0950
 7223SOL    HW125200   4.395   1.369   5.401 -0.5381 -0.3754 -0.4454
 7223SOL    HW225201   4.488   1.484   5.435 -1.7806  0.6348 -0.3997
 7224SOL     OW25202   3.532  10.549   3.172 -0.1491 -0.3696 -0.1645
 7224SOL    HW125203   3.571  10.598   3.099 -3.8714  0.4025 -1.8735
 7224SOL    HW225204   3.543  10.457   3.146 -0.8337 -0.1233 -1.4388
 7225SOL     OW25205   1.806   7.141   0.996 -0.3921  0.4355 -0.6371
 7225SOL    HW125206   1.762   7.201   1.055  0.2758 -0.3178  0.6587
 7225SOL    HW225207   1.748   7.065   0.990  0.5527 -0.4710  0.9130
 7226SOL     OW25208   7.218   2.456   3.186  0.2520  0.0708  0.0874
 7226SOL    HW125209   7.165   2.378   3.199  0.8899 -0.7255 -1.7418
 7226SOL    HW225210   7.213   2.503   3.269 -3.4685  0.1680 -0.0336
 7227SOL     OW25211   6.982   3.257   8.943  0.1276 -0.2150  0.5324
 7227SOL    HW125212   7.051   3.320   8.961  1.4399 -1.9366  1.8786
 7227SOL    HW225213   6.937   3.244   9.027  0.0704 -1.2531  0.3622
 7228SOL     OW25214   9.444   8.806  10.529 -0.7568  0.0466  0.1906
 7228SOL    HW125215   9.351   8.812  10.509 -0.4354 -0.7771 -1.7925
 7228SOL    HW225216   9.453   8.726  10.581 -1.1681  0.2032  0.5004
 7229SOL     OW25217   4.974   0.364   2.671  0.3852 -0.7984 -0.3519
 7229SOL    HW125218   4.936   0.276   2.674  0.3906 -0.8196 -0.7820
 7229SOL    HW225219   5.061   0.351   2.633  0.3119 -0.5856 -0.6002
 7230SOL     OW25220   1.107   0.773   6.065  0.3638  0.3325  0.0822
 7230SOL    HW125221   1.022   0.731   6.053  0.7708 -0.4251 -0.2337
 7230SOL    HW225222   1.099   0.823   6.146 -0.6904  1.0462 -0.4469
 7231SOL     OW25223   0.139   5.376   0.759  0.8150  0.6902 -0.2565
 7231SOL    HW125224   0.061   5.332   0.725  0.9845 -0.1698  0.4337
 7231SOL    HW225225   0.121   5.469   0.746 -0.3202  0.5059 -0.1290
 7232SOL     OW25226   8.703   9.927   5.577 -0.2854 -0.3317 -0.0279
 7232SOL    HW125227   8.780   9.956   5.627 -1.7352 -0.4937  2.4782
 7232SOL    HW225228   8.733   9.925   5.486  2.3702  0.5574  0.7250
 7233SOL     OW25229   1.220   2.369   0.653 -0.1803  0.2278 -0.1864
 7233SOL    HW125230   1.307   2.327   0.650 -0.5043 -0.4308 -0.5777
 7233SOL    HW225231   1.225   2.437   0.586  0.7238  1.5918  1.2034
 7234SOL     OW25232  10.071   4.977   1.078  0.0228 -0.4019  0.5078
 7234SOL    HW125233  10.162   4.976   1.046 -0.1293  0.6391  0.0171
 7234SOL    HW225234  10.067   5.051   1.138 -0.9790  0.8589 -1.0076
 7235SOL     OW25235   1.980   6.945   3.192 -0.2897 -0.2750  0.4590
 7235SOL    HW125236   2.075   6.952   3.204  0.0639 -0.9327 -1.6686
 7235SOL    HW225237   1.955   7.027   3.149 -0.5236 -0.5520  0.0683
 7236SOL     OW25238   3.518   9.123   1.421  0.5812 -0.4691  0.7636
 7236SOL    HW125239   3.515   9.218   1.407  0.2047 -0.6307 -0.3492
 7236SOL    HW225240   3.581   9.092   1.356 -0.8667 -1.2118 -0.3247
 7237SOL     OW25241   7.155   0.140   6.715 -0.4897 -0.0668  0.3178
 7237SOL    HW125242   7.201   0.137   6.631 -1.2515  1.6580 -0.2017
 7237SOL    HW225243   7.213   0.094   6.775  0.9861  0.3228 -0.7447
 7238SOL     OW25244   6.542   6.577   5.703 -0.2231  0.3386  0.1633
 7238SOL    HW125245   6.484   6.502   5.707 -0.4992  0.5897  1.0470
 7238SOL    HW225246   6.511   6.628   5.629 -1.1022  0.4414  0.5953
 7239SOL     OW25247   0.980   8.688   1.475  0.4613  0.1563  0.2096
 7239SOL    HW125248   1.046   8.723   1.535  0.3876 -0.1416  0.4608
 7239SOL    HW225249   1.031   8.638   1.411  0.4825 -0.0549  0.3904
 7240SOL     OW25250   5.488   3.970   2.237  0.1845  0.3592  0.0766
 7240SOL    HW125251   5.414   3.950   2.181 -0.4045  0.5688  0.7625
 7240SOL    HW225252   5.449   4.003   2.318  0.9543 -1.2854  1.1645
 7241SOL     OW25253   5.834   9.192   5.661 -0.3395  0.0921 -0.2190
 7241SOL    HW125254   5.759   9.206   5.602 -0.5995 -1.6219 -0.3338
 7241SOL    HW225255   5.900   9.253   5.629 -1.3918  1.0806 -0.6147
 7242SOL     OW25256  10.959   4.456   5.007  0.2623  0.3494  0.0852
 7242SOL    HW125257  10.945   4.470   4.913  3.9821  0.1008 -0.6544
 7242SOL    HW225258  10.962   4.361   5.017  1.1507  0.3798  0.1832
 7243SOL     OW25259   6.658   4.926   7.311 -0.4092  0.4094 -0.2401
 7243SOL    HW125260   6.686   4.839   7.286 -1.6645  0.7548 -3.3828
 7243SOL    HW225261   6.678   4.933   7.404  2.1537 -2.2124 -0.4695
 7244SOL     OW25262   0.316   3.962   7.600  0.6107  0.7315  0.1421
 7244SOL    HW125263   0.225   3.980   7.625 -0.0418  0.3327 -1.7527
 7244SOL    HW225264   0.368   4.026   7.647 -0.4821  0.0205  2.4496
 7245SOL     OW25265  10.186   7.506   1.553 -0.3209 -0.3795  0.0615
 7245SOL    HW125266  10.274   7.488   1.587 -0.6624  0.3524  1.3802
 7245SOL    HW225267  10.148   7.419   1.538  0.5166 -0.7046 -0.2627
 7246SOL     OW25268   5.374   8.863   8.490 -0.3855 -0.3359 -0.4830
 7246SOL    HW125269   5.389   8.882   8.583 -0.3723 -1.2694 -0.2863
 7246SOL    HW225270   5.373   8.949   8.448  0.0182  0.0741  0.3207
 7247SOL     OW25271   1.149  10.777   6.148 -0.2949 -0.2503  0.1726
 7247SOL    HW125272   1.055  10.788   6.136 -0.2223 -0.1124 -0.2983
 7247SOL    HW225273   1.184  10.765   6.060  0.5001  2.7737 -0.0408
 7248SOL     OW25274   8.033   9.033  10.835 -0.5342  0.0454 -0.1948
 7248SOL    HW125275   7.943   9.059  10.820 -0.6863 -1.4139 -2.3125
 7248SOL    HW225276   8.066   9.007  10.749  1.0796 -1.9043  0.8886
 7249SOL     OW25277   2.858   9.135   0.518  0.1798 -0.1874 -0.4018
 7249SOL    HW125278   2.865   9.218   0.564 -0.1030 -0.0618 -0.5830
 7249SOL    HW225279   2.909   9.074   0.572 -1.7495 -0.4985  1.1979
 7250SOL     OW25280   3.208   2.831   7.801  0.4588  0.0281 -0.1336
 7250SOL    HW125281   3.227   2.740   7.775  0.2376 -0.0675  0.0363
 7250SOL    HW225282   3.141   2.860   7.739  1.0340  0.3127 -0.6338
 7251SOL     OW25283   2.099   3.147   3.853  0.4562 -0.3758 -0.1924
 7251SOL    HW125284   2.105   3.098   3.771 -0.3531  0.1136 -0.5538
 7251SOL    HW225285   2.005   3.163   3.865  0.6728  0.8348  0.0590
 7252SOL     OW25286   3.732   4.993   6.093  0.0733  0.2182 -0.1646
 7252SOL    HW125287   3.745   4.952   6.008 -3.5215  0.2925 -0.9386
 7252SOL    HW225288   3.686   4.927   6.144  0.0782  0.9991  0.8852
 7253SOL     OW25289   4.027   8.378   6.730  0.8162 -0.3518  0.2307
 7253SOL    HW125290   4.021   8.298   6.783 -0.0585 -1.9179 -2.0665
 7253SOL    HW225291   4.113   8.373   6.689 -0.0163 -1.3106 -1.5433
 7254SOL     OW25292   7.681  10.965   6.385 -0.1081 -0.3406 -0.3524
 7254SOL    HW125293   7.613  10.995   6.326 -0.3491  0.0147  0.0963
 7254SOL    HW225294   7.638  10.902   6.442 -0.3091  0.5919  0.5524
 7255SOL     OW25295   1.053   2.371   3.069  0.2172  0.0033 -0.5342
 7255SOL    HW125296   0.996   2.446   3.086 -1.5455 -0.7847 -2.5632
 7255SOL    HW225297   1.139   2.398   3.102 -1.3509  0.9846  3.3360
 7256SOL     OW25298   7.597   0.236   8.784 -0.0820 -0.4214 -0.1873
 7256SOL    HW125299   7.550   0.197   8.711 -1.9961 -0.6917  1.1260
 7256SOL    HW225300   7.639   0.161   8.827 -0.2874 -0.4764 -0.0819
 7257SOL     OW25301   1.321   9.680   8.213  0.0051 -0.5831  0.3486
 7257SOL    HW125302   1.296   9.735   8.138  1.6768  0.5458  0.5704
 7257SOL    HW225303   1.244   9.681   8.270 -0.1930  1.1129  0.0989
 7258SOL     OW25304   3.704   9.718   4.739  1.0691  0.0407 -0.2919
 7258SOL    HW125305   3.706   9.696   4.832  2.8869  0.6931 -0.1451
 7258SOL    HW225306   3.636   9.661   4.702 -0.6435  0.7174  1.6387
 7259SOL     OW25307   5.353   4.062   9.181  0.2505 -0.5134 -0.6133
 7259SOL    HW125308   5.441   4.050   9.216 -1.0618 -1.5604  2.6793
 7259SOL    HW225309   5.352   4.012   9.100  2.0479 -2.4121  0.4571
 7260SOL     OW25310   7.317   8.766   7.490 -1.1447 -0.0321 -0.6990
 7260SOL    HW125311   7.270   8.732   7.567 -0.3573 -1.4596 -0.8106
 7260SOL    HW225312   7.348   8.687   7.445  0.6981  0.8456 -1.0432
 7261SOL     OW25313   0.367  10.464   9.455  0.1343  0.1693 -0.1586
 7261SOL    HW125314   0.332  10.375   9.449 -1.0934  0.5439  0.9578
 7261SOL    HW225315   0.396  10.472   9.546  1.5423  0.4655 -0.6119
 7262SOL     OW25316   8.203   2.547   9.306 -0.0134 -0.4896  0.2751
 7262SOL    HW125317   8.271   2.545   9.374 -0.1172 -0.3141  0.3837
 7262SOL    HW225318   8.245   2.593   9.233  0.1994 -0.9424  0.1120
 7263SOL     OW25319   8.499   3.147   5.054 -0.0514 -0.0492  0.5660
 7263SOL    HW125320   8.471   3.057   5.070  0.6461 -0.4381 -0.3022
 7263SOL    HW225321   8.438   3.181   4.989  0.7265 -0.4796 -0.3969
 7264SOL     OW25322   4.837   9.397   8.619  0.0436 -0.4441 -0.2825
 7264SOL    HW125323   4.903   9.465   8.630  0.1531 -0.6955  0.7005
 7264SOL    HW225324   4.886   9.322   8.584  0.2544 -0.5694  0.2676
 7265SOL     OW25325   3.583   1.116   1.994  0.3867 -0.2741  0.1190
 7265SOL    HW125326   3.533   1.176   2.049 -0.4189 -0.6595 -0.1689
 7265SOL    HW225327   3.531   1.035   1.993  1.1366 -0.7748 -0.0025
 7266SOL     OW25328   3.603  10.678  10.641  0.0224  0.0402  0.3914
 7266SOL    HW125329   3.661  10.611  10.606 -1.2650 -0.8233 -0.1368
 7266SOL    HW225330   3.639  10.760  10.607  1.4834 -0.3690  0.8657
 7267SOL     OW25331   6.970   0.951  10.193  0.0123 -0.0512  0.2393
 7267SOL    HW125332   6.913   0.876  10.177  1.5508 -1.1409 -0.3993
 7267SOL    HW225333   6.972   0.999  10.110  0.3242 -0.2263  0.1456
 7268SOL     OW25334   3.944   4.283   0.016  0.7393 -0.5834 -0.1933
 7268SOL    HW125335   3.886   4.333   0.075  2.1782  0.4980  0.3732
 7268SOL    HW225336   3.933   4.192   0.044 -0.6156 -0.4059 -0.0571
 7269SOL     OW25337   2.577   0.123   3.170  0.2204 -0.1517 -0.2803
 7269SOL    HW125338   2.589   0.029   3.164  2.7836  0.0866  0.2000
 7269SOL    HW225339   2.645   0.160   3.114  0.5484  1.4180  1.0642
 7270SOL     OW25340   0.007   7.701   6.491  0.2369  0.3389 -0.2982
 7270SOL    HW125341   0.042   7.622   6.533  0.2267  0.4143 -0.1474
 7270SOL    HW225342  -0.043   7.745   6.560 -0.7404 -0.1189 -0.6920
 7271SOL     OW25343   7.134   7.074   6.140  0.0183 -0.0398  0.5620
 7271SOL    HW125344   7.097   7.147   6.091 -0.3055 -0.1868  0.5894
 7271SOL    HW225345   7.144   7.004   6.076 -0.4744 -0.2563  0.7225
 7272SOL     OW25346  10.437   1.301   4.924 -0.3350  0.0336  0.0978
 7272SOL    HW125347  10.447   1.207   4.933 -1.9746 -0.0256  1.9337
 7272SOL    HW225348  10.493   1.339   4.992 -1.2845  0.2611  0.7755
 7273SOL     OW25349   8.263   8.905   6.480 -0.4335  0.1564 -0.0528
 7273SOL    HW125350   8.284   8.820   6.439  0.7888  1.1276 -1.5552
 7273SOL    HW225351   8.341   8.928   6.530 -0.7234  0.4426  0.2702
 7274SOL     OW25352   8.682   4.076   5.775 -0.1252 -0.4775 -0.1859
 7274SOL    HW125353   8.710   4.112   5.691 -0.5780 -0.4673 -0.3348
 7274SOL    HW225354   8.706   3.984   5.771  0.8866 -0.2350  0.1285
 7275SOL     OW25355   9.487   5.220   3.027 -0.2837  0.0892  0.5376
 7275SOL    HW125356   9.411   5.163   3.016  0.7686 -1.1539 -0.6952
 7275SOL    HW225357   9.557   5.160   3.055  1.1590  0.5016 -1.9331
 7276SOL     OW25358   9.453   8.070   6.552  0.2272 -0.2304 -0.1860
 7276SOL    HW125359   9.531   8.075   6.607  0.6928  2.3295 -0.9392
 7276SOL    HW225360   9.396   8.140   6.586 -1.1155 -1.0831 -0.6049
 7277SOL     OW25361   1.102   5.489   7.669 -0.2471  0.2204 -0.7836
 7277SOL    HW125362   1.107   5.462   7.577  0.5328  1.6106 -1.1843
 7277SOL    HW225363   1.037   5.559   7.670 -0.0692  0.3838 -0.3316
 7278SOL     OW25364   0.433   6.124  10.858 -0.2912 -0.1650 -0.3534
 7278SOL    HW125365   0.518   6.079  10.861 -0.4194 -0.6521 -2.4783
 7278SOL    HW225366   0.454   6.212  10.828 -0.4305  0.1166  0.3494
 7279SOL     OW25367   0.522   8.586  10.454  0.4751  0.1218 -0.3169
 7279SOL    HW125368   0.584   8.624  10.391 -0.6888 -0.8062 -2.1239
 7279SOL    HW225369   0.471   8.524  10.402  0.5834 -2.0020  1.9442
 7280SOL     OW25370   3.065  11.107   6.760 -0.3365 -0.0524 -0.0912
 7280SOL    HW125371   3.151  11.067   6.750 -0.0292  0.8150 -1.0846
 7280SOL    HW225372   3.079  11.180   6.819 -0.0871  0.9329 -1.3382
 7281SOL     OW25373   9.500   6.569   4.755  0.0205  0.3385  0.0111
 7281SOL    HW125374   9.544   6.492   4.720  1.0424  0.0404  1.7875
 7281SOL    HW225375   9.486   6.548   4.848  0.2684  2.2368  0.5225
 7282SOL     OW25376   2.957   9.186   1.019  0.4704 -0.2008  0.2926
 7282SOL    HW125377   2.928   9.159   1.106 -1.3036 -0.3035 -0.2835
 7282SOL    HW225378   2.927   9.277   1.012  0.4406 -0.2526 -0.2636
 7283SOL     OW25379   5.501   2.925   1.613  0.4649 -0.0581  0.0869
 7283SOL    HW125380   5.411   2.935   1.644  0.5618  0.6456  0.1645
 7283SOL    HW225381   5.553   2.919   1.693  0.7516  2.0914  0.1259
 7284SOL     OW25382   8.746   9.900  10.240  0.0127  0.0929 -0.0350
 7284SOL    HW125383   8.802   9.937  10.172  1.9749 -0.8967  0.9517
 7284SOL    HW225384   8.795   9.824  10.273 -1.4563 -0.2254  1.5843
 7285SOL     OW25385   6.554   1.011   3.781 -0.1448 -0.3666 -0.4566
 7285SOL    HW125386   6.547   1.103   3.753  1.1089 -1.0066 -3.1836
 7285SOL    HW225387   6.537   1.014   3.875 -1.6349  2.4429 -0.6856
 7286SOL     OW25388   5.325  10.447   5.129 -0.2799  0.0752  0.7199
 7286SOL    HW125389   5.263  10.503   5.177 -0.1160 -0.4498  1.5657
 7286SOL    HW225390   5.363  10.505   5.063  0.4458  1.1902  2.0579
 7287SOL     OW25391   8.893   9.989   4.855  0.2766  0.4947  0.1324
 7287SOL    HW125392   8.857  10.071   4.821 -0.1762  0.2547  0.0305
 7287SOL    HW225393   8.981   9.984   4.817 -0.5866 -0.2752 -1.8484
 7288SOL     OW25394  11.003   7.144   8.497  0.1273  0.1872  0.3921
 7288SOL    HW125395  11.043   7.191   8.570 -0.3974 -0.6473  1.2206
 7288SOL    HW225396  10.929   7.199   8.472  0.2500  0.4247  0.5423
 7289SOL     OW25397   0.498   8.698   4.214  0.2309 -0.7561 -0.3719
 7289SOL    HW125398   0.583   8.670   4.180  0.3210 -0.2209 -0.5993
 7289SOL    HW225399   0.451   8.729   4.137  0.4636  0.5407 -0.0174
 7290SOL     OW25400   8.784   0.698   2.732 -0.8794  0.1336 -0.0038
 7290SOL    HW125401   8.839   0.622   2.714 -1.6599 -0.4038 -0.1704
 7290SOL    HW225402   8.845   0.766   2.760 -0.2670 -0.8867  1.2398
 7291SOL     OW25403   9.746   3.291   8.434 -0.1963  0.0877  0.5927
 7291SOL    HW125404   9.842   3.294   8.432 -0.1702 -0.4362 -1.9504
 7291SOL    HW225405   9.721   3.374   8.476  1.3524  0.2852  1.2135
 7292SOL     OW25406   2.903   8.497   0.569  0.4396 -0.1776  0.0370
 7292SOL    HW125407   2.996   8.507   0.548  1.0927 -0.1975  2.5656
 7292SOL    HW225408   2.868   8.442   0.499  2.1472  0.3973 -1.3377
 7293SOL     OW25409   0.909   1.551   5.988  0.7436  0.6288  0.3557
 7293SOL    HW125410   0.963   1.601   5.926  0.2584  0.5752 -0.1191
 7293SOL    HW225411   0.832   1.525   5.937  1.9922 -2.6093 -0.1310
 7294SOL     OW25412   0.106   1.611   8.098  0.0558 -0.0896  0.1892
 7294SOL    HW125413   0.173   1.680   8.096 -0.4911  0.4599  0.3122
 7294SOL    HW225414   0.042   1.639   8.033  0.8669 -1.5925 -1.3304
 7295SOL     OW25415   9.295   8.775   2.190 -0.4851 -0.3783 -0.5329
 7295SOL    HW125416   9.362   8.725   2.237  0.6452  2.1626  0.7758
 7295SOL    HW225417   9.344   8.827   2.126 -1.7575 -1.8832 -2.8570
 7296SOL     OW25418   8.201   4.926   3.931 -0.3524  0.0674 -0.7952
 7296SOL    HW125419   8.198   5.008   3.881 -1.6695  0.2944 -0.3907
 7296SOL    HW225420   8.151   4.864   3.877 -1.5582  0.2431  0.0798
 7297SOL     OW25421   6.164   8.369   3.183  0.1817 -0.2465 -0.1532
 7297SOL    HW125422   6.148   8.290   3.234 -1.1197 -1.5821 -2.4736
 7297SOL    HW225423   6.161   8.440   3.247 -2.1307 -1.7297  1.5452
 7298SOL     OW25424   3.486   2.523   3.297  0.6279 -0.8338 -0.1037
 7298SOL    HW125425   3.430   2.467   3.350 -0.0461  0.2349  0.3378
 7298SOL    HW225426   3.461   2.504   3.206  0.0465 -0.8809  0.0643
 7299SOL     OW25427   2.226   9.588   5.235  0.2217 -0.5651 -0.2198
 7299SOL    HW125428   2.201   9.554   5.149 -3.3239 -1.7369  1.0736
 7299SOL    HW225429   2.260   9.511   5.282 -1.0724 -0.7586  0.4458
 7300SOL     OW25430   6.870   9.408   0.953 -0.1905 -0.2663 -0.5111
 7300SOL    HW125431   6.827   9.487   0.920  1.2589  0.7133 -0.1691
 7300SOL    HW225432   6.862   9.344   0.883 -0.8695  0.3913 -1.0411
 7301SOL     OW25433   9.650   3.978   3.941  0.0412 -0.5946  0.9541
 7301SOL    HW125434   9.557   3.983   3.960 -0.1433  0.6877 -0.1215
 7301SOL    HW225435   9.687   3.929   4.014 -0.9133  2.1027  3.4521
 7302SOL     OW25436   3.235   6.581   5.230  0.1007 -0.8814  0.0448
 7302SOL    HW125437   3.304   6.559   5.292 -0.0783 -3.4569 -0.5478
 7302SOL    HW225438   3.279   6.632   5.162  1.2562 -1.7149  0.1364
 7303SOL     OW25439   2.229   3.510   3.743  0.2101  0.0971  0.5492
 7303SOL    HW125440   2.284   3.568   3.691  0.2347 -1.1109 -0.8331
 7303SOL    HW225441   2.274   3.505   3.828  1.6524  0.0003 -0.1893
 7304SOL     OW25442   5.695   7.296   2.678  0.9157 -0.2473 -0.3561
 7304SOL    HW125443   5.653   7.210   2.688 -1.5044  0.8506 -0.2583
 7304SOL    HW225444   5.703   7.329   2.768 -2.2815  1.3596 -0.5233
 7305SOL     OW25445   5.888   5.831   4.519  0.3249  0.1268  0.1076
 7305SOL    HW125446   5.848   5.916   4.498 -0.4515 -0.3291 -0.3471
 7305SOL    HW225447   5.948   5.815   4.446  0.3908  0.2409  0.1367
 7306SOL     OW25448   8.912   3.017   3.862  0.0458  0.1888 -0.7614
 7306SOL    HW125449   8.870   2.980   3.939 -1.2072 -2.8171 -2.6787
 7306SOL    HW225450   9.002   2.983   3.864  0.2489  0.7463 -0.2660
 7307SOL     OW25451   4.543   7.352   0.845  0.8985  1.0787  0.4526
 7307SOL    HW125452   4.496   7.435   0.839 -1.5924 -0.3265 -0.7889
 7307SOL    HW225453   4.623   7.366   0.793  1.6262  3.2854  1.9880
 7308SOL     OW25454  10.436   5.438   1.077 -0.6132 -0.3624  0.1900
 7308SOL    HW125455  10.396   5.525   1.084 -0.9459 -0.5165  0.2102
 7308SOL    HW225456  10.503   5.437   1.145 -1.0336 -0.3475  0.6091
 7309SOL     OW25457   6.807   2.232   8.416 -0.0971  0.0740  0.2909
 7309SOL    HW125458   6.861   2.238   8.495 -0.2446 -1.1146  0.4941
 7309SOL    HW225459   6.777   2.142   8.414 -1.8199  0.6156  0.0047
 7310SOL     OW25460  10.528   0.127   3.951  0.2644 -0.3851 -0.6692
 7310SOL    HW125461  10.463   0.194   3.930 -0.9006 -1.2499  0.0016
 7310SOL    HW225462  10.547   0.140   4.044  1.8644  0.4955 -1.0747
 7311SOL     OW25463   7.428  10.367   7.207 -0.1391  0.5486 -0.1018
 7311SOL    HW125464   7.357  10.304   7.200  1.6873 -1.4865 -1.6142
 7311SOL    HW225465   7.467  10.351   7.293 -0.0163  0.0048 -0.2600
 7312SOL     OW25466   5.775   7.675   9.509  0.7287 -0.2409 -0.4015
 7312SOL    HW125467   5.826   7.603   9.472  0.7119  0.0999 -1.1102
 7312SOL    HW225468   5.753   7.730   9.433  4.1053  2.7000  0.4891
 7313SOL     OW25469   9.290   7.995   4.998  0.4057  0.3246  0.2610
 7313SOL    HW125470   9.343   7.923   5.033 -2.3572 -0.5367  3.2250
 7313SOL    HW225471   9.208   7.954   4.972 -0.4435  2.1046 -0.0313
 7314SOL     OW25472   4.573   3.272   3.736 -0.1058  0.3929 -0.5302
 7314SOL    HW125473   4.550   3.250   3.826  0.3669 -0.8566 -0.6907
 7314SOL    HW225474   4.493   3.258   3.685  0.5508 -2.9192 -0.9216
 7315SOL     OW25475   9.879   2.320   0.883  0.1687  0.0039  0.1903
 7315SOL    HW125476   9.968   2.286   0.892 -0.3511 -1.0673  1.5972
 7315SOL    HW225477   9.845   2.323   0.973 -0.4203  2.6792 -0.0302
 7316SOL     OW25478   8.880   0.792   5.822  0.2514 -0.6753  0.0591
 7316SOL    HW125479   8.844   0.703   5.818 -1.2204 -0.0811 -0.6668
 7316SOL    HW225480   8.812   0.843   5.866 -0.2756  0.6817 -2.1787
 7317SOL     OW25481   3.431   9.805   6.042  0.1288  0.1126  0.2041
 7317SOL    HW125482   3.481   9.877   6.004  0.7700 -1.4510 -2.1594
 7317SOL    HW225483   3.497   9.753   6.089  0.5049 -1.0638 -1.5335
 7318SOL     OW25484   6.080   4.636  11.089  0.0918 -0.2051 -0.1484
 7318SOL    HW125485   6.167   4.604  11.064 -0.0199 -0.3996 -0.2896
 7318SOL    HW225486   6.096   4.725  11.120  0.0898  0.4999 -2.0467
 7319SOL     OW25487  10.807   7.955   5.509  0.4582 -0.2361 -0.3506
 7319SOL    HW125488  10.795   7.862   5.490 -0.6877 -0.0917 -0.4211
 7319SOL    HW225489  10.886   7.980   5.461  0.1839 -0.9368 -1.1854
 7320SOL     OW25490   1.422   6.865   6.157  0.6916 -0.1777  0.4179
 7320SOL    HW125491   1.340   6.819   6.178  0.9282 -0.6164  0.3759
 7320SOL    HW225492   1.447   6.907   6.239  1.0104 -0.9564  0.7232
 7321SOL     OW25493   5.540   8.615   3.898  0.1092  0.6021 -0.1643
 7321SOL    HW125494   5.482   8.690   3.886  0.0865  0.4702 -0.9593
 7321SOL    HW225495   5.511   8.574   3.979 -0.2172  1.1472 -0.0025
 7322SOL     OW25496   1.293   4.953   5.085  0.5129 -0.0253  0.0619
 7322SOL    HW125497   1.365   4.903   5.046 -0.7352 -1.2273 -0.8309
 7322SOL    HW225498   1.299   5.039   5.044  1.4821 -0.0882  0.0526
 7323SOL     OW25499   1.643   2.504   0.383 -0.5219  0.0853  0.6185
 7323SOL    HW125500   1.702   2.449   0.333  0.0543 -1.8869  3.2720
 7323SOL    HW225501   1.691   2.586   0.395  0.0616 -0.0860 -0.3903
 7324SOL     OW25502   7.752   2.909   2.097 -0.6590 -0.0487 -0.2022
 7324SOL    HW125503   7.750   2.851   2.174 -1.2370 -0.5625 -0.5937
 7324SOL    HW225504   7.827   2.879   2.047  0.2990  0.9109  0.6241
 7325SOL     OW25505   2.485   5.835   1.077  0.5120 -0.5216 -0.0544
 7325SOL    HW125506   2.550   5.792   1.021  0.5918  0.1488 -0.4874
 7325SOL    HW225507   2.401   5.797   1.050  0.5561 -0.2429 -0.6024
 7326SOL     OW25508   5.401   4.923   6.710  0.8479 -0.6077  0.0183
 7326SOL    HW125509   5.350   4.879   6.778  1.0701 -1.2256 -0.2006
 7326SOL    HW225510   5.492   4.901   6.731  1.0926  1.0399  0.7928
 7327SOL     OW25511   3.789   8.125   3.972 -0.0273  0.0258  0.3427
 7327SOL    HW125512   3.760   8.209   3.938 -0.8903 -0.8166 -1.1256
 7327SOL    HW225513   3.861   8.146   4.031 -1.2466  1.9085  1.2774
 7328SOL     OW25514   4.956  10.617   5.346 -0.4509  0.4807  0.5544
 7328SOL    HW125515   4.898  10.587   5.416  0.9838  0.0796  1.6147
 7328SOL    HW225516   4.897  10.638   5.273 -2.2772  3.1902  2.5906
 7329SOL     OW25517   3.603   6.941   6.627  0.5506  0.1312  0.6881
 7329SOL    HW125518   3.675   6.889   6.663 -0.0629 -0.5420  0.9807
 7329SOL    HW225519   3.643   7.024   6.603  1.1521  0.3040  2.1570
 7330SOL     OW25520   9.542   4.303  10.620  0.0966 -0.2597 -0.0050
 7330SOL    HW125521   9.636   4.283  10.620  0.1566 -0.6706 -3.9193
 7330SOL    HW225522   9.500   4.217  10.630  0.1852 -0.4007 -0.8004
 7331SOL     OW25523   2.232   2.608   5.903  0.5776 -0.3467  0.3319
 7331SOL    HW125524   2.312   2.606   5.955  0.2677 -1.8525  0.8145
 7331SOL    HW225525   2.211   2.700   5.894  1.6650  0.0172  1.2914
 7332SOL     OW25526   5.518   4.564   3.899 -0.3822  0.4133 -0.0784
 7332SOL    HW125527   5.560   4.625   3.838 -1.4755  1.0992 -0.1758
 7332SOL    HW225528   5.574   4.567   3.977 -0.3200  1.4330 -0.1385
 7333SOL     OW25529   5.311   8.536   6.815  0.0412 -0.0907 -0.6745
 7333SOL    HW125530   5.283   8.538   6.723 -0.8374 -1.6134 -0.4764
 7333SOL    HW225531   5.406   8.528   6.811  0.2084  1.7015 -1.4036
 7334SOL     OW25532   4.177   1.743   5.238  0.2822 -0.1352  0.3056
 7334SOL    HW125533   4.164   1.699   5.154  2.5497 -1.1458  0.4051
 7334SOL    HW225534   4.272   1.759   5.242 -0.2582  4.3945  0.5002
 7335SOL     OW25535   5.927   1.227   7.235 -0.3980 -0.4954  0.2752
 7335SOL    HW125536   5.851   1.206   7.290 -0.6607 -0.0449  0.0960
 7335SOL    HW225537   5.918   1.170   7.159  0.0987 -1.2964  0.7980
 7336SOL     OW25538   8.468   4.551   5.191  0.1832 -0.1825  0.4585
 7336SOL    HW125539   8.533   4.560   5.261  1.4849 -0.9110 -0.6092
 7336SOL    HW225540   8.520   4.546   5.111 -1.1377 -1.8060 -0.3444
 7337SOL     OW25541   1.322   3.620   7.479  0.7328 -0.1281 -0.3487
 7337SOL    HW125542   1.295   3.577   7.560  0.9870  0.1561 -0.1115
 7337SOL    HW225543   1.332   3.712   7.502 -0.9853  0.2961 -1.1319
 7338SOL     OW25544  10.084   6.745   3.425 -0.2690 -0.4227 -0.1694
 7338SOL    HW125545  10.034   6.788   3.356  0.5542  2.1583  0.7248
 7338SOL    HW225546  10.105   6.659   3.390 -1.2700  0.1935 -2.4533
 7339SOL     OW25547   8.833   4.656   9.629  0.0881 -0.2647  0.6346
 7339SOL    HW125548   8.744   4.682   9.602  0.0252  0.1163  1.1759
 7339SOL    HW225549   8.866   4.732   9.677  0.3426 -0.7581  1.2614
 7340SOL     OW25550   2.969   5.994   0.029  0.2753 -0.0490 -0.1718
 7340SOL    HW125551   2.924   6.026   0.107  1.5478 -0.5738  0.8384
 7340SOL    HW225552   2.980   5.900   0.046  1.1591 -0.0438 -0.6661
 7341SOL     OW25553   9.163   2.288   7.140 -0.0213  0.7001  0.2063
 7341SOL    HW125554   9.141   2.356   7.076 -0.5249 -0.1920 -0.6111
 7341SOL    HW225555   9.259   2.284   7.138 -0.0402 -0.7685 -2.1700
 7342SOL     OW25556   3.802   3.237   2.278 -0.3161 -0.1117 -0.2443
 7342SOL    HW125557   3.865   3.307   2.259 -0.4299  0.1632  0.3704
 7342SOL    HW225558   3.776   3.252   2.369 -1.1764 -0.2962 -0.4505
 7343SOL     OW25559   6.418   3.640   0.573  0.4565  0.0438 -0.5664
 7343SOL    HW125560   6.370   3.608   0.496  1.6453  1.0161 -1.7593
 7343SOL    HW225561   6.357   3.627   0.646 -1.8657  1.6784 -2.0549
 7344SOL     OW25562   7.430   9.187   2.846 -0.2027  0.1317  0.2606
 7344SOL    HW125563   7.369   9.114   2.838  0.1146 -0.1238  0.1357
 7344SOL    HW225564   7.378   9.265   2.826  0.0079 -0.2698 -2.2067
 7345SOL     OW25565   8.700   8.692   4.068  0.4760 -0.0389  0.0845
 7345SOL    HW125566   8.750   8.641   4.004 -1.3666  1.1032 -2.4581
 7345SOL    HW225567   8.611   8.656   4.062  0.0236  0.8054  1.2716
 7346SOL     OW25568  10.327   5.198   5.357  0.0006 -0.2308 -0.3983
 7346SOL    HW125569  10.416   5.194   5.390 -0.1567 -0.0615  0.0560
 7346SOL    HW225570  10.289   5.276   5.397 -0.9890 -1.4161  1.0880
 7347SOL     OW25571   8.106  10.734   8.284 -0.4376 -0.0343  0.3289
 7347SOL    HW125572   8.094  10.639   8.287 -0.0625 -0.1237 -0.5970
 7347SOL    HW225573   8.198  10.747   8.309 -0.2337 -0.0001 -0.3990
 7348SOL     OW25574   4.872   8.644   2.870 -0.4692 -0.4383  0.3487
 7348SOL    HW125575   4.842   8.700   2.941  2.7984  0.7932  0.9429
 7348SOL    HW225576   4.824   8.562   2.881 -0.8157  0.0729  3.3782
 7349SOL     OW25577   7.738   9.849   1.893 -0.2426 -0.0865  0.2698
 7349SOL    HW125578   7.819   9.895   1.870 -0.3302 -0.3774 -0.6830
 7349SOL    HW225579   7.725   9.866   1.986  0.5195  0.5765  0.2573
 7350SOL     OW25580   3.468   8.073   6.955  0.5842 -0.5725  0.3285
 7350SOL    HW125581   3.508   8.071   6.869  0.1290 -0.7908  0.1173
 7350SOL    HW225582   3.507   7.998   7.001 -1.2968 -2.2934 -0.6806
 7351SOL     OW25583   9.081   2.137   8.817 -0.0940 -0.7482 -0.0363
 7351SOL    HW125584   9.026   2.151   8.740  0.3522 -0.2362 -0.2667
 7351SOL    HW225585   9.022   2.150   8.892 -0.0919  0.7203 -0.2582
 7352SOL     OW25586   3.999   9.822   3.377  0.1936 -0.4062 -0.0563
 7352SOL    HW125587   4.038   9.861   3.455  0.9110 -0.0270 -0.5878
 7352SOL    HW225588   4.026   9.879   3.305 -0.4410 -0.7558 -0.5901
 7353SOL     OW25589   4.855   3.960   3.236  0.1502 -0.1608  0.0212
 7353SOL    HW125590   4.881   3.875   3.200  0.9929  0.0335  0.1582
 7353SOL    HW225591   4.937   3.999   3.266 -0.5130 -0.3363  2.2023
 7354SOL     OW25592   2.530   7.921   2.518 -0.2847 -0.6863 -0.3081
 7354SOL    HW125593   2.518   7.934   2.424 -1.5099  0.2398 -0.0556
 7354SOL    HW225594   2.456   7.866   2.545 -0.3534 -0.3432  0.2296
 7355SOL     OW25595   6.806   2.710   3.710  0.0295  0.4778 -0.2225
 7355SOL    HW125596   6.891   2.674   3.686  0.5191  2.0340 -0.9121
 7355SOL    HW225597   6.745   2.637   3.698  0.9336 -0.0524 -1.9552
 7356SOL     OW25598   1.489   9.678   0.312  0.4414 -0.1207 -0.1581
 7356SOL    HW125599   1.496   9.606   0.375 -0.1158 -0.7246 -0.7566
 7356SOL    HW225600   1.403   9.664   0.271  1.1947 -0.3324 -1.7379
 7357SOL     OW25601   8.273   7.473   5.681  0.7848 -0.1111  0.4775
 7357SOL    HW125602   8.221   7.518   5.748  0.6175  2.3990 -1.1957
 7357SOL    HW225603   8.356   7.521   5.679  1.1757 -0.8106 -0.3906
 7358SOL     OW25604   2.968   6.226   0.454  0.4829 -0.2198 -0.1715
 7358SOL    HW125605   2.915   6.296   0.491 -1.2076 -1.8703  0.7516
 7358SOL    HW225606   2.960   6.237   0.360 -2.1454 -0.7609 -0.0958
 7359SOL     OW25607  10.757   5.763   8.082  0.3427  0.4465  0.3161
 7359SOL    HW125608  10.695   5.697   8.052  0.1229  0.9717 -0.4409
 7359SOL    HW225609  10.714   5.847   8.063  1.1968  0.8186 -0.0568
 7360SOL     OW25610   2.065   7.391   0.007  0.2963  0.0441  0.7051
 7360SOL    HW125611   1.988   7.366  -0.044 -0.1425  0.4030  1.1835
 7360SOL    HW225612   2.036   7.465   0.060  0.8416 -0.1096  1.2322
 7361SOL     OW25613   5.008   3.030   5.981  0.0412  0.1749 -0.7029
 7361SOL    HW125614   4.916   3.041   6.003  0.5926  1.6953  1.1217
 7361SOL    HW225615   5.010   3.028   5.885 -1.6980  2.1575 -0.8436
 7362SOL     OW25616   7.741   8.087   1.441 -0.2702  0.2883  0.1811
 7362SOL    HW125617   7.654   8.078   1.480 -0.0755 -3.8206  0.0756
 7362SOL    HW225618   7.728   8.069   1.348  0.5308  1.0898 -0.0997
 7363SOL     OW25619   7.522   3.614   8.689  0.0357  0.4750  0.1335
 7363SOL    HW125620   7.481   3.529   8.675 -0.9028  0.9014  0.2160
 7363SOL    HW225621   7.466   3.676   8.642 -0.7439  1.3716  2.1136
 7364SOL     OW25622   9.157   9.052   5.688 -0.0319 -0.1219  0.3410
 7364SOL    HW125623   9.126   8.974   5.642  1.1126  0.5417 -1.6743
 7364SOL    HW225624   9.085   9.076   5.746 -1.2568 -1.4349 -0.5675
 7365SOL     OW25625   2.731   9.423  10.188 -0.5297 -0.1487  0.3778
 7365SOL    HW125626   2.667   9.364  10.147  0.5337 -0.8696 -0.2784
 7365SOL    HW225627   2.705   9.510  10.159 -0.5634 -0.5364 -0.8031
 7366SOL     OW25628   5.813   2.230   1.388  0.3153 -0.4321  0.2684
 7366SOL    HW125629   5.743   2.202   1.447 -0.0377 -0.2727 -0.0709
 7366SOL    HW225630   5.894   2.208   1.435  0.0539  0.6620  1.2870
 7367SOL     OW25631   3.373   5.763   8.565 -0.3334  0.0846  0.3199
 7367SOL    HW125632   3.356   5.832   8.501 -0.8565  0.0772  0.4527
 7367SOL    HW225633   3.465   5.741   8.551 -0.1786  0.7578  0.2324
 7368SOL     OW25634   0.834  10.768   3.187 -0.2623  0.6252 -0.2765
 7368SOL    HW125635   0.811  10.804   3.102  0.2417 -2.5931 -1.9410
 7368SOL    HW225636   0.925  10.738   3.176 -0.5218 -0.7671  1.0211
 7369SOL     OW25637   6.519   4.988   1.526 -0.3021  0.2550  0.0397
 7369SOL    HW125638   6.497   5.021   1.439  0.9453 -0.4698 -0.5824
 7369SOL    HW225639   6.486   4.898   1.527 -2.2296  0.8923  1.1391
 7370SOL     OW25640   1.073   4.442   3.330 -0.0777 -0.9883  0.2793
 7370SOL    HW125641   1.119   4.413   3.409 -2.2887 -2.9024  0.9848
 7370SOL    HW225642   0.993   4.484   3.363 -1.5790 -2.7722 -0.8739
 7371SOL     OW25643   6.863  10.242   7.521  0.5089 -0.5848 -0.4483
 7371SOL    HW125644   6.953  10.274   7.515  0.5566 -0.7335 -0.5329
 7371SOL    HW225645   6.870  10.148   7.505  0.3078 -0.5585 -0.7102
 7372SOL     OW25646   8.535   7.444   8.868 -0.0325  0.4732  0.5315
 7372SOL    HW125647   8.516   7.427   8.776 -0.6041 -0.4703  0.8028
 7372SOL    HW225648   8.454   7.421   8.914  0.5324  0.0594  1.3518
 7373SOL     OW25649   2.643   6.148   4.678  0.3297 -0.2716 -0.2601
 7373SOL    HW125650   2.736   6.169   4.686  0.1783  0.4911 -0.4520
 7373SOL    HW225651   2.608   6.158   4.767  0.5316 -1.1074 -0.0749
 7374SOL     OW25652   9.779   4.256   6.919  0.3449 -0.2469 -0.0720
 7374SOL    HW125653   9.837   4.310   6.865 -0.1675 -1.2159 -1.6639
 7374SOL    HW225654   9.701   4.309   6.930  1.2336  0.8067  1.5448
 7375SOL     OW25655   5.013  10.286   8.703  0.0528 -0.4255  0.4708
 7375SOL    HW125656   4.918  10.273   8.695 -0.2463  1.1646  1.0642
 7375SOL    HW225657   5.048  10.198   8.709 -1.3243 -1.0769 -0.4227
 7376SOL     OW25658   5.731  11.102   7.058 -0.0069 -0.2551 -0.1310
 7376SOL    HW125659   5.663  11.086   7.123  1.0774  1.9158  1.6733
 7376SOL    HW225660   5.813  11.082   7.104  0.8126  1.7440 -0.6293
 7377SOL     OW25661   4.416   8.760   5.368 -0.1636  0.2032 -0.0935
 7377SOL    HW125662   4.323   8.762   5.390 -0.5518  0.2057 -1.6074
 7377SOL    HW225663   4.461   8.782   5.450 -1.3933 -1.5583  1.1258
 7378SOL     OW25664  10.284   5.475   3.372  0.1054  0.6980 -0.3832
 7378SOL    HW125665  10.319   5.461   3.284  1.8758  0.6828  0.2801
 7378SOL    HW225666  10.217   5.407   3.383  0.5952  0.0555 -1.3340
 7379SOL     OW25667  10.234  10.062   8.899 -0.1220 -0.0512  0.3096
 7379SOL    HW125668  10.184  10.135   8.935  0.8497  1.4024 -1.1680
 7379SOL    HW225669  10.308  10.052   8.959 -1.5867 -1.6052  1.9792
 7380SOL     OW25670   2.552   4.554   1.212  0.2026  0.3817  0.2413
 7380SOL    HW125671   2.549   4.612   1.135 -0.8058  1.0712  0.7756
 7380SOL    HW225672   2.529   4.611   1.285 -2.2037 -0.9533  0.6216
 7381SOL     OW25673   5.380  10.045  10.203  0.2944 -0.2399 -0.2891
 7381SOL    HW125674   5.351  10.028  10.114  0.7900 -0.4219 -0.4177
 7381SOL    HW225675   5.463  10.093  10.193 -1.4091  3.0604  0.0214
 7382SOL     OW25676   2.570   8.067   0.420 -0.0743  0.1606 -0.5021
 7382SOL    HW125677   2.612   7.981   0.415  3.1190  1.5043  0.5715
 7382SOL    HW225678   2.517   8.063   0.499  0.1047 -0.7781 -0.4116
 7383SOL     OW25679  10.004   4.689   3.081  0.0616  0.0378 -0.3115
 7383SOL    HW125680   9.982   4.746   3.008  0.1755 -0.2711 -0.5864
 7383SOL    HW225681   9.921   4.648   3.106  0.1148 -0.2554 -0.6079
 7384SOL     OW25682   2.106   0.330   0.813 -0.4526 -0.3211 -0.0138
 7384SOL    HW125683   2.180   0.390   0.800 -2.6434  2.8162  0.7086
 7384SOL    HW225684   2.115   0.300   0.903 -0.5232  0.7886  0.3760
 7385SOL     OW25685  10.972   9.755   6.868 -0.2850  0.1711 -0.9977
 7385SOL    HW125686  11.008   9.710   6.944 -1.7693  1.5561  0.5911
 7385SOL    HW225687  10.979   9.691   6.797  0.5446 -1.3938  0.4339
 7386SOL     OW25688   9.932   5.601   1.554  0.1093 -0.1137 -0.0471
 7386SOL    HW125689   9.891   5.656   1.621  0.8936  0.1522  0.2229
 7386SOL    HW225690   9.965   5.663   1.489 -0.8750 -0.3810 -0.8341
 7387SOL     OW25691   1.017  10.409  10.093  0.0284 -0.2991  0.4972
 7387SOL    HW125692   1.032  10.384  10.002 -1.1197  2.7742 -0.6819
 7387SOL    HW225693   0.922  10.413  10.102  0.1354  0.2549  1.5434
 7388SOL     OW25694   3.101   5.466   4.960  0.5498  0.3971  0.0945
 7388SOL    HW125695   3.038   5.514   5.015 -0.0910  0.2995 -0.5314
 7388SOL    HW225696   3.179   5.457   5.015  0.1241  0.7863  0.7836
 7389SOL     OW25697   4.605   8.993   9.931 -0.0522 -0.2630 -0.0213
 7389SOL    HW125698   4.610   8.900   9.955  0.0140 -0.3842 -0.5044
 7389SOL    HW225699   4.657   9.037   9.998 -2.6014 -0.2106  2.0754
 7390SOL     OW25700   8.946   3.414   5.532  0.6849  0.0221  0.6714
 7390SOL    HW125701   8.957   3.505   5.503  0.1980 -0.1820 -0.1898
 7390SOL    HW225702   9.033   3.388   5.563  1.0933  0.4397 -0.1034
 7391SOL     OW25703  10.133   3.490   8.191  0.3711 -0.4165 -0.0134
 7391SOL    HW125704  10.082   3.488   8.272  0.2550  1.5970  0.0200
 7391SOL    HW225705  10.210   3.437   8.210 -0.5193 -1.4710  0.7780
 7392SOL     OW25706   3.018   6.978   5.377  0.3828  0.1166 -0.1039
 7392SOL    HW125707   3.017   6.911   5.446 -3.1091 -1.8006 -1.7657
 7392SOL    HW225708   3.074   6.941   5.309  1.3890  0.6417  0.4071
 7393SOL     OW25709   4.534  10.760   2.361  0.4800  0.3574 -0.0553
 7393SOL    HW125710   4.492  10.679   2.333 -0.1341 -0.6085  3.1942
 7393SOL    HW225711   4.614  10.766   2.309 -1.1852 -0.3905 -2.8758
 7394SOL     OW25712   1.925   6.247   6.174  0.6046 -0.1081 -0.3511
 7394SOL    HW125713   1.986   6.176   6.153 -1.0934 -1.6766 -0.2092
 7394SOL    HW225714   1.896   6.279   6.089 -0.1778 -1.0008 -0.4332
 7395SOL     OW25715  10.527   8.509   9.587  0.3213 -0.4389 -0.0004
 7395SOL    HW125716  10.499   8.600   9.577  1.6123 -0.1441 -1.3715
 7395SOL    HW225717  10.479   8.462   9.519 -1.4420 -1.1197  1.6120
 7396SOL     OW25718   9.851   3.471   3.308 -0.0594 -0.3802 -0.2055
 7396SOL    HW125719   9.823   3.383   3.333  0.1047 -0.2382  0.5018
 7396SOL    HW225720   9.864   3.516   3.392 -2.3631  1.0473 -0.5175
 7397SOL     OW25721   0.522   7.994   7.907  0.4003 -0.0774  0.3207
 7397SOL    HW125722   0.549   8.011   7.817 -2.1854 -0.9203 -0.6893
 7397SOL    HW225723   0.565   7.912   7.930  1.3996  0.3484  0.0554
 7398SOL     OW25724   3.805   4.397   0.220  0.1940 -0.2515  0.0163
 7398SOL    HW125725   3.867   4.470   0.233  1.6911 -1.3701 -0.5110
 7398SOL    HW225726   3.719   4.438   0.219  1.0549  1.6720 -1.3699
 7399SOL     OW25727   8.479   2.646  10.272 -0.0472 -0.3719 -0.2844
 7399SOL    HW125728   8.533   2.584  10.321 -1.0517 -0.0742  1.2429
 7399SOL    HW225729   8.390   2.611  10.278 -0.5499  0.9331  0.1715
 7400SOL     OW25730   3.855   8.282   2.961 -0.3797  0.1828 -0.0961
 7400SOL    HW125731   3.798   8.224   2.911 -0.9264  0.0888  0.6254
 7400SOL    HW225732   3.827   8.271   3.052  3.4605 -3.0606  0.9679
 7401SOL     OW25733   3.748   6.622   5.929  0.1360  0.1398  0.1327
 7401SOL    HW125734   3.754   6.540   5.880 -1.5712 -0.1642  0.3703
 7401SOL    HW225735   3.796   6.605   6.010  0.1568 -0.4718 -0.0033
 7402SOL     OW25736   2.149   3.262   3.381  0.0759 -0.1655  0.3490
 7402SOL    HW125737   2.228   3.310   3.406 -0.1471  0.5688 -0.3226
 7402SOL    HW225738   2.179   3.201   3.312  0.1883 -0.3780  0.5844
 7403SOL     OW25739   8.421   2.997   0.981 -0.0873 -0.0217 -0.4033
 7403SOL    HW125740   8.384   2.956   1.059 -0.9322 -0.4131 -0.9931
 7403SOL    HW225741   8.514   3.006   1.001 -0.0058 -1.5800  0.0261
 7404SOL     OW25742   7.223   2.384   0.392  0.5547  0.2514 -0.2110
 7404SOL    HW125743   7.217   2.479   0.391 -1.4678  0.1729 -0.4248
 7404SOL    HW225744   7.238   2.359   0.300 -1.1879  0.3102 -0.5447
 7405SOL     OW25745   6.412   5.805   7.554  0.5634  0.1618  0.3384
 7405SOL    HW125746   6.466   5.885   7.556  0.1897  0.4042  2.1129
 7405SOL    HW225747   6.334   5.828   7.604  0.4938 -1.3487  0.9662
 7406SOL     OW25748   3.365   8.580   0.711  0.0439 -0.9848 -0.1114
 7406SOL    HW125749   3.430   8.551   0.647 -1.4641 -1.4499 -1.5118
 7406SOL    HW225750   3.349   8.504   0.766  1.4883 -0.5262  0.9892
 7407SOL     OW25751   6.916   6.824   0.215 -0.1046 -0.0620 -0.1456
 7407SOL    HW125752   6.968   6.795   0.290 -0.6386  1.1674  0.7437
 7407SOL    HW225753   6.881   6.909   0.242 -0.6377  0.2277 -1.6457
 7408SOL     OW25754   4.578   7.957   6.118  0.0025  0.0459  0.5561
 7408SOL    HW125755   4.526   8.022   6.073 -0.1277 -1.3189 -1.3753
 7408SOL    HW225756   4.561   7.972   6.211 -1.5886  1.4386  0.0776
 7409SOL     OW25757   5.201   5.471   1.516  0.2693 -0.0871 -0.0369
 7409SOL    HW125758   5.199   5.408   1.588  2.0894  0.8349  0.8664
 7409SOL    HW225759   5.130   5.443   1.458  0.4075 -2.3895  0.8101
 7410SOL     OW25760  11.026   1.693   0.596 -0.0874 -0.0025  0.3208
 7410SOL    HW125761  10.979   1.621   0.637  0.2447 -0.5298 -0.1975
 7410SOL    HW225762  11.046   1.753   0.668 -2.8586  1.0274  0.3665
 7411SOL     OW25763   4.646   0.559   9.412  0.0178  0.3052 -0.0252
 7411SOL    HW125764   4.608   0.631   9.462  0.8870  0.3412  0.6123
 7411SOL    HW225765   4.571   0.512   9.377 -0.7028 -0.3650  2.2285
 7412SOL     OW25766   9.824  10.717  10.560 -0.0026 -0.3202  0.4740
 7412SOL    HW125767   9.802  10.806  10.532  1.3025 -0.5382 -1.4159
 7412SOL    HW225768   9.920  10.717  10.567  0.0875 -1.7578 -0.3222
 7413SOL     OW25769   2.105   0.737   5.190 -0.2391  0.0997  0.2573
 7413SOL    HW125770   2.012   0.717   5.204  0.3921 -1.5690  2.7296
 7413SOL    HW225771   2.121   0.712   5.099 -2.1932  0.4047 -0.2095
 7414SOL     OW25772   9.641   2.186   0.823  0.1682  0.0691  0.5945
 7414SOL    HW125773   9.719   2.234   0.850  0.9445 -0.8179  0.0263
 7414SOL    HW225774   9.634   2.202   0.729 -0.7612  0.7202  0.7670
 7415SOL     OW25775   3.969  10.877   4.060  0.4751 -0.1234 -0.7053
 7415SOL    HW125776   4.026  10.932   4.005 -0.1136 -1.8033 -3.1515
 7415SOL    HW225777   3.881  10.889   4.023 -0.6761  1.4280  2.2018
 7416SOL     OW25778   6.199   9.549   2.124  0.5134  0.0317 -0.6190
 7416SOL    HW125779   6.287   9.523   2.099  0.2389  0.4781 -2.0957
 7416SOL    HW225780   6.144   9.521   2.051 -0.2021  2.1025 -0.9221
 7417SOL     OW25781   6.268   0.391   3.830 -0.0350  0.2114 -0.0679
 7417SOL    HW125782   6.196   0.334   3.804  0.4538 -1.4710  1.9996
 7417SOL    HW225783   6.250   0.414   3.921  1.2033  1.1329 -0.0181
 7418SOL     OW25784  10.363  10.782   1.867  0.6639 -0.0589  0.5021
 7418SOL    HW125785  10.293  10.732   1.826  1.9646 -0.7416 -0.9700
 7418SOL    HW225786  10.365  10.750   1.958  1.4501 -2.7342 -0.3740
 7419SOL     OW25787   1.328   1.385   0.439  1.0746  0.5765 -0.5011
 7419SOL    HW125788   1.330   1.466   0.490  1.4188  1.2031 -1.4873
 7419SOL    HW225789   1.401   1.333   0.474  0.4159  0.3613  0.6211
 7420SOL     OW25790   2.640   0.639   9.952 -1.2740  0.7114 -0.0550
 7420SOL    HW125791   2.617   0.548   9.968 -0.7201  0.3033 -1.4391
 7420SOL    HW225792   2.699   0.636   9.877 -0.5648  2.1394  0.4127
 7421SOL     OW25793   5.357   5.719   8.163  0.2789  0.7781 -0.5484
 7421SOL    HW125794   5.368   5.644   8.104 -0.1696  2.6834 -3.2338
 7421SOL    HW225795   5.431   5.776   8.144  1.6154  0.3346  2.7467
 7422SOL     OW25796   2.207   6.456   6.299  0.4109 -0.1592 -0.0469
 7422SOL    HW125797   2.164   6.440   6.383  0.0602 -0.8596 -0.3470
 7422SOL    HW225798   2.141   6.430   6.234  1.6483 -2.3486 -0.5136
 7423SOL     OW25799   8.141   7.805   3.309  0.0172 -0.1814 -0.1395
 7423SOL    HW125800   8.225   7.812   3.264 -0.1192 -0.3674 -0.4262
 7423SOL    HW225801   8.157   7.747   3.384 -0.0713 -0.9679 -0.7216
 7424SOL     OW25802   2.390   0.626   7.713  0.5604 -0.2672  0.5937
 7424SOL    HW125803   2.339   0.593   7.787  0.5246 -0.1975  0.5996
 7424SOL    HW225804   2.327   0.673   7.659  1.1093  2.2242  1.9980
 7425SOL     OW25805   2.733   3.452   2.149  0.6294 -0.2694 -0.4704
 7425SOL    HW125806   2.730   3.454   2.245  0.5764 -1.3406 -0.4369
 7425SOL    HW225807   2.657   3.400   2.124  2.2288 -2.5713 -0.9298
 7426SOL     OW25808   3.893   9.488   6.827 -0.1820  0.3281 -0.3455
 7426SOL    HW125809   3.810   9.444   6.844 -0.2046  0.9149  1.3088
 7426SOL    HW225810   3.905   9.482   6.733 -1.1980 -1.3772 -0.4098
 7427SOL     OW25811   5.798   1.757   6.327  0.4528 -0.0593 -0.1722
 7427SOL    HW125812   5.715   1.739   6.283  1.0685 -2.1384 -0.5770
 7427SOL    HW225813   5.848   1.810   6.264  1.0926 -2.5040 -1.8464
 7428SOL     OW25814  10.884   3.733   7.847  0.4608 -0.3879 -0.2332
 7428SOL    HW125815  10.960   3.762   7.898  0.4840 -2.7529  1.2440
 7428SOL    HW225816  10.902   3.641   7.828 -2.1543 -1.1168  0.4104
 7429SOL     OW25817   3.895   6.387   1.420 -0.3551 -0.2267 -0.0089
 7429SOL    HW125818   3.879   6.316   1.482  2.9539  0.6295  2.0756
 7429SOL    HW225819   3.975   6.361   1.374 -1.2789  0.4108 -2.1170
 7430SOL     OW25820   3.864   0.311   2.394  0.2547  0.0222  0.2766
 7430SOL    HW125821   3.857   0.228   2.442  2.8132 -1.7244 -2.0662
 7430SOL    HW225822   3.817   0.295   2.312  0.2581  1.1286  0.0450
 7431SOL     OW25823  10.349   6.029   2.126 -0.5907 -0.1263 -0.3817
 7431SOL    HW125824  10.285   6.083   2.081 -0.4495  0.8630  0.5544
 7431SOL    HW225825  10.352   5.947   2.076 -0.9793  0.6399 -1.6933
 7432SOL     OW25826   0.419   4.337   9.894 -0.2418 -0.0176  0.6494
 7432SOL    HW125827   0.485   4.275   9.862 -0.5075  0.6163 -1.3184
 7432SOL    HW225828   0.469   4.413   9.924 -0.0246  0.0900  0.0277
 7433SOL     OW25829   4.532  10.264   4.012 -0.3911 -0.4751 -0.2647
 7433SOL    HW125830   4.443  10.230   4.002 -0.7188  0.5941 -1.2241
 7433SOL    HW225831   4.567  10.218   4.089 -1.1832 -2.1157 -0.8314
 7434SOL     OW25832   2.885   0.627   6.959  0.6229  0.8894 -0.0666
 7434SOL    HW125833   2.873   0.721   6.944 -2.8548  0.2597 -2.4818
 7434SOL    HW225834   2.873   0.615   7.053 -0.3726  2.7194  0.0753
 7435SOL     OW25835   6.210   7.111   7.879 -0.5761  0.1329 -0.4805
 7435SOL    HW125836   6.264   7.063   7.942 -0.9666  1.2828  0.7862
 7435SOL    HW225837   6.239   7.079   7.793  1.5448  0.1165  0.1845
 7436SOL     OW25838   7.912   6.357   0.560 -0.0384 -0.3458 -0.3107
 7436SOL    HW125839   7.850   6.296   0.598  0.2118 -0.7674 -0.5657
 7436SOL    HW225840   7.870   6.387   0.479  0.5269 -1.4589 -1.0485
 7437SOL     OW25841   8.472   8.973   8.402 -0.4461 -0.1921  0.3517
 7437SOL    HW125842   8.414   8.946   8.332  0.3508  1.0435 -0.8397
 7437SOL    HW225843   8.546   8.913   8.397 -0.9826 -0.9267  1.0091
 7438SOL     OW25844   7.966   2.185  10.588 -0.1694 -0.3015  0.1172
 7438SOL    HW125845   7.984   2.092  10.594 -2.2541 -0.6934  1.3113
 7438SOL    HW225846   7.882   2.197  10.633 -0.4416  1.9989 -0.8191
 7439SOL     OW25847  10.627   9.753   0.310  0.6805 -0.0060 -0.0152
 7439SOL    HW125848  10.675   9.795   0.381  1.9949 -0.5898 -0.5240
 7439SOL    HW225849  10.657   9.662   0.312 -0.0145 -0.2577 -0.6856
 7440SOL     OW25850   6.634   8.428   5.390 -0.2719 -0.1507 -0.2019
 7440SOL    HW125851   6.685   8.428   5.309  0.3668  0.5984  0.1877
 7440SOL    HW225852   6.700   8.436   5.459 -0.9382  1.2098  0.2993
 7441SOL     OW25853   3.699   9.992   1.674  0.0236 -0.5609 -0.3889
 7441SOL    HW125854   3.636   9.921   1.682 -0.2822 -0.2724 -0.2162
 7441SOL    HW225855   3.719  10.016   1.765  1.6634 -1.7642 -0.3659
 7442SOL     OW25856   7.427   9.065   3.821 -0.2430  0.3518  0.3946
 7442SOL    HW125857   7.454   9.031   3.735 -0.3570 -0.1062  0.5402
 7442SOL    HW225858   7.509   9.094   3.861 -0.0962 -0.1106  0.4277
 7443SOL     OW25859   2.555   0.369   3.808 -0.8043 -0.2661  0.0526
 7443SOL    HW125860   2.600   0.289   3.782 -0.1774 -0.3049  1.2011
 7443SOL    HW225861   2.483   0.339   3.864 -3.0415 -0.3051 -2.6006
 7444SOL     OW25862   8.807   5.570   8.173 -0.2062 -0.7524  0.7536
 7444SOL    HW125863   8.858   5.625   8.232  0.3802  1.3453 -1.5578
 7444SOL    HW225864   8.721   5.612   8.169 -0.3970 -1.1633  0.4972
 7445SOL     OW25865   6.761   5.518   1.404  0.2952  0.2374  0.4917
 7445SOL    HW125866   6.837   5.564   1.370 -0.1790  1.1471  0.6156
 7445SOL    HW225867   6.795   5.466   1.477  1.0382 -0.5207 -0.3751
 7446SOL     OW25868   5.391   6.106   7.966 -0.2669 -0.3232  0.6925
 7446SOL    HW125869   5.398   6.016   7.935 -1.1179 -0.3295  0.4838
 7446SOL    HW225870   5.404   6.100   8.061 -1.0698 -0.7896  0.7864
 7447SOL     OW25871   4.442   0.906   5.967 -0.3821  0.7160 -0.2741
 7447SOL    HW125872   4.358   0.926   5.926 -1.1737 -1.6723  0.0131
 7447SOL    HW225873   4.487   0.849   5.904  0.5818  1.1341  0.0148
 7448SOL     OW25874   8.866   4.250   3.023  0.0450 -0.0008  0.0767
 7448SOL    HW125875   8.831   4.338   3.019 -1.7791 -0.7112 -0.2503
 7448SOL    HW225876   8.825   4.211   3.101 -0.6326 -1.1489 -0.8266
 7449SOL     OW25877   7.487   4.300   9.995  0.9125  0.0483  0.0343
 7449SOL    HW125878   7.429   4.223   9.992  1.0615 -0.0439 -0.4393
 7449SOL    HW225879   7.567   4.272   9.951  2.3088 -0.6457  2.7662
 7450SOL     OW25880   2.003   8.023   3.267 -0.1067 -0.4992 -0.3924
 7450SOL    HW125881   1.913   8.040   3.242 -0.8188  0.6070  2.4407
 7450SOL    HW225882   2.046   8.109   3.263 -0.3700 -0.1558  2.1461
 7451SOL     OW25883   4.375   2.323   7.589  0.2643 -0.5352 -0.2691
 7451SOL    HW125884   4.330   2.402   7.558 -0.4811 -0.2693  1.3660
 7451SOL    HW225885   4.306   2.257   7.595  0.4539 -0.6746  0.4640
 7452SOL     OW25886  10.451   1.574   3.827  0.4378 -0.6261  0.4016
 7452SOL    HW125887  10.497   1.548   3.747  1.0967  0.3064  0.4595
 7452SOL    HW225888  10.415   1.493   3.862  1.9599 -1.3675  0.3060
 7453SOL     OW25889   5.205   4.332   0.398  0.3765 -0.0268 -0.1337
 7453SOL    HW125890   5.142   4.265   0.373  1.6604 -0.7510 -1.5765
 7453SOL    HW225891   5.153   4.412   0.407 -0.6838 -0.4855 -1.7774
 7454SOL     OW25892   8.001   5.522  11.077 -0.9340 -0.4679 -0.2001
 7454SOL    HW125893   8.037   5.531  11.165  2.1005 -0.7441 -1.2674
 7454SOL    HW225894   7.934   5.590  11.070 -0.2325  0.5070  1.8372
 7455SOL     OW25895  10.058   8.024   3.623 -0.7335 -0.0855  0.5088
 7455SOL    HW125896  10.006   7.960   3.671 -2.5877 -0.2800 -1.5601
 7455SOL    HW225897  10.089   7.977   3.546 -0.4227  0.9638 -0.0329
 7456SOL     OW25898   8.303   2.216   9.012  0.1491 -0.4224  0.0102
 7456SOL    HW125899   8.279   2.299   8.971  1.5122 -0.3471 -0.6838
 7456SOL    HW225900   8.394   2.201   8.985  0.3808 -1.4519  1.2579
 7457SOL     OW25901   0.542   5.526   3.305 -0.3767  0.4151  0.5891
 7457SOL    HW125902   0.613   5.464   3.286 -0.1976  0.3992  1.2783
 7457SOL    HW225903   0.546   5.539   3.399 -1.6452 -0.0252  0.7379
 7458SOL     OW25904   7.958   9.749   0.893  0.4381  0.4536 -0.3031
 7458SOL    HW125905   8.042   9.792   0.874 -1.0472  3.3018 -1.0932
 7458SOL    HW225906   7.945   9.688   0.820  0.2004  2.7276 -2.2924
 7459SOL     OW25907   9.252   7.343   0.792  0.0742 -0.3189  0.7231
 7459SOL    HW125908   9.230   7.268   0.846  1.1915 -0.2311  1.3225
 7459SOL    HW225909   9.170   7.393   0.786  0.1264  0.1589  3.1232
 7460SOL     OW25910   6.342   9.307   1.216  0.2204  0.1484 -0.1928
 7460SOL    HW125911   6.320   9.323   1.124 -0.2460  0.8733  0.0336
 7460SOL    HW225912   6.269   9.255   1.249 -0.1418  0.7810  0.0261
 7461SOL     OW25913   0.995   2.226  10.896  1.1867 -0.4755 -0.7666
 7461SOL    HW125914   0.990   2.131  10.882  0.9527 -0.8302  1.3610
 7461SOL    HW225915   1.025   2.235  10.986 -0.2198  1.4535 -0.4230
 7462SOL     OW25916   2.505   4.848   1.275  0.2739  0.7459  0.4690
 7462SOL    HW125917   2.475   4.801   1.353  0.5258 -0.6614 -0.2347
 7462SOL    HW225918   2.598   4.865   1.291  0.1446  1.1606  0.7943
 7463SOL     OW25919  10.858   0.059   1.514 -0.2348 -0.5033 -0.0274
 7463SOL    HW125920  10.884  -0.028   1.542 -1.2829 -0.4708  1.0872
 7463SOL    HW225921  10.833   0.104   1.594 -1.1907  0.3182 -0.7606
 7464SOL     OW25922   4.236   2.467   0.957  0.3433  0.2721  0.1923
 7464SOL    HW125923   4.234   2.417   0.875 -2.2821  0.0968  0.2921
 7464SOL    HW225924   4.216   2.557   0.932 -0.2713  0.2578  0.6102
 7465SOL     OW25925   3.232   9.160   1.086  0.7396 -0.7071  0.0570
 7465SOL    HW125926   3.138   9.163   1.069  1.0163 -2.3292 -2.1281
 7465SOL    HW225927   3.248   9.071   1.117  1.5088 -0.2795  0.9465
 7466SOL     OW25928   7.156   4.072   7.756  0.5658  0.0365  0.6412
 7466SOL    HW125929   7.085   4.132   7.778  1.0107  1.1185 -0.7293
 7466SOL    HW225930   7.144   3.997   7.815 -0.8847  0.8044  1.3607
 7467SOL     OW25931   8.608   9.995   4.401 -0.2641 -0.0750  0.2305
 7467SOL    HW125932   8.698   9.995   4.370 -0.8051 -2.5921 -1.7443
 7467SOL    HW225933   8.612   9.953   4.487  0.3030 -2.1218 -0.7301
 7468SOL     OW25934   1.077   7.822   5.792 -0.3794 -0.1662  0.0363
 7468SOL    HW125935   0.984   7.803   5.794 -0.4846 -0.4506 -2.7909
 7468SOL    HW225936   1.119   7.738   5.811 -0.6363  0.1213  2.0532
 7469SOL     OW25937   8.549   0.464   8.472 -0.4046  0.0565 -0.1412
 7469SOL    HW125938   8.524   0.523   8.543 -1.5169  0.9006 -1.1886
 7469SOL    HW225939   8.518   0.378   8.500 -0.3400  0.2745  0.6242
 7470SOL     OW25940   9.228   9.990  10.940  0.1246 -0.1118 -0.3068
 7470SOL    HW125941   9.258   9.979  10.849  1.7096 -0.2637  0.2043
 7470SOL    HW225942   9.297  10.041  10.982 -0.2241 -0.6863  1.0032
 7471SOL     OW25943   9.837   0.509   9.235  0.1090  0.4673  0.0341
 7471SOL    HW125944   9.845   0.513   9.140 -0.4353  1.2160  0.0096
 7471SOL    HW225945   9.745   0.489   9.251  0.2413  0.1406  0.3992
 7472SOL     OW25946   4.575   6.634   4.413  0.5364  0.2045 -0.0131
 7472SOL    HW125947   4.537   6.657   4.328  0.3082  0.3206  0.1208
 7472SOL    HW225948   4.501   6.606   4.466  0.7702 -0.5057 -0.0596
 7473SOL     OW25949   0.912   3.181   9.924  0.6644 -0.2024 -0.2120
 7473SOL    HW125950   0.949   3.171  10.012  1.7206 -2.5389 -0.8349
 7473SOL    HW225951   0.820   3.156   9.933  0.8531 -0.7678  0.1651
 7474SOL     OW25952   0.341   0.182   1.787 -0.3798 -0.6001  0.2943
 7474SOL    HW125953   0.412   0.132   1.747  0.4610  0.1292  0.8259
 7474SOL    HW225954   0.324   0.253   1.726  0.8013  0.4267  1.1106
 7475SOL     OW25955   0.239   0.503  10.516 -0.0832  0.7050  0.0630
 7475SOL    HW125956   0.186   0.424  10.528 -0.0788  0.2108 -2.5094
 7475SOL    HW225957   0.177   0.575  10.520 -0.1643  0.5758  1.9359
 7476SOL     OW25958  10.401   2.331  10.345  0.0170  0.4811 -0.2264
 7476SOL    HW125959  10.487   2.335  10.388 -1.4937 -1.2709  3.3424
 7476SOL    HW225960  10.390   2.238  10.324 -1.7091  0.3263  1.1483
 7477SOL     OW25961   9.974   4.099   8.316  0.3348  0.8386  0.6884
 7477SOL    HW125962   9.915   4.029   8.288 -0.0719  2.0393 -1.7160
 7477SOL    HW225963   9.946   4.175   8.267  2.9099  1.8566  0.6329
 7478SOL     OW25964   6.296   6.815   0.060 -0.1771  0.0676 -0.5381
 7478SOL    HW125965   6.246   6.888   0.024  0.0871  1.1697  1.2065
 7478SOL    HW225966   6.361   6.794  -0.007  0.7500  2.4900 -0.4753
 7479SOL     OW25967  10.260   2.457  10.642  0.6923  0.4347 -0.2117
 7479SOL    HW125968  10.208   2.402  10.583 -1.1278  0.7034  1.0430
 7479SOL    HW225969  10.285   2.532  10.589 -1.5585  1.0484 -0.5187
 7480SOL     OW25970   1.150   7.252   0.245  0.2960  0.2861 -0.7671
 7480SOL    HW125971   1.072   7.218   0.201  0.1960 -0.3902 -0.0964
 7480SOL    HW225972   1.197   7.174   0.275  0.9977  0.6958 -0.7608
 7481SOL     OW25973   7.114   9.469   5.771  0.3722 -0.1556 -0.1185
 7481SOL    HW125974   7.051   9.541   5.771 -1.2678 -1.5280 -0.4332
 7481SOL    HW225975   7.127   9.448   5.679  0.0857 -0.8743 -0.0039
 7482SOL     OW25976   8.715   4.368   1.387  0.5212 -0.0861  0.1765
 7482SOL    HW125977   8.783   4.301   1.380 -0.8978 -1.5250 -0.5464
 7482SOL    HW225978   8.694   4.391   1.297 -0.4473 -0.1904  0.3673
 7483SOL     OW25979   5.866   3.005   6.753 -0.2533 -0.4875  0.3544
 7483SOL    HW125980   5.838   3.062   6.682  0.0752 -0.2983  0.3719
 7483SOL    HW225981   5.831   2.919   6.730  0.3807 -0.5647 -0.3695
 7484SOL     OW25982  10.820   2.860  11.059 -0.1416  0.0486 -0.2720
 7484SOL    HW125983  10.873   2.895  10.987  0.0017  0.4497  0.0263
 7484SOL    HW225984  10.758   2.801  11.016  0.1770  0.0066 -0.6860
 7485SOL     OW25985   7.344   1.762  10.193  0.4093  0.1579  0.3796
 7485SOL    HW125986   7.286   1.753  10.117  1.0875  1.5416 -0.3409
 7485SOL    HW225987   7.388   1.678  10.200 -0.5455 -0.3911 -0.0124
 7486SOL     OW25988   8.908   4.893  10.269  0.2073 -0.4361 -0.1637
 7486SOL    HW125989   8.905   4.840  10.349  1.3130  1.0235  0.9062
 7486SOL    HW225990   8.987   4.946  10.280 -0.1132  0.4179 -1.8442
 7487SOL     OW25991   3.313   7.316   1.280 -0.3389 -0.4249  0.5967
 7487SOL    HW125992   3.366   7.394   1.260 -1.1654 -0.3308 -1.4041
 7487SOL    HW225993   3.229   7.351   1.311 -0.4788 -0.5340  0.3400
 7488SOL     OW25994   6.408   0.104   8.843 -0.5428  0.5733 -0.3511
 7488SOL    HW125995   6.444   0.039   8.782 -1.5736  0.4970 -0.8908
 7488SOL    HW225996   6.333   0.060   8.883 -0.0833  0.7374  0.7555
 7489SOL     OW25997   0.309   8.424   2.559 -0.2075  0.1806  0.2020
 7489SOL    HW125998   0.232   8.443   2.613 -0.8858  1.7163 -1.2135
 7489SOL    HW225999   0.274   8.392   2.477  0.6881  0.2938 -0.2380
 7490SOL     OW26000   0.975   6.317   3.665 -0.1799  0.1980 -0.1421
 7490SOL    HW126001   0.936   6.235   3.633 -0.1097  1.4468 -3.9800
 7490SOL    HW226002   1.070   6.302   3.660 -0.1663  0.1217  0.3360
 7491SOL     OW26003   0.082   4.974   3.881  0.3905 -0.3392  0.3001
 7491SOL    HW126004   0.158   4.953   3.935 -1.1019  0.3700  2.8703
 7491SOL    HW226005   0.050   5.057   3.916 -1.4215 -0.4889 -0.8491
 7492SOL     OW26006   1.252   8.455   5.174 -0.3057  0.1496 -0.2637
 7492SOL    HW126007   1.187   8.525   5.165 -0.4226 -0.1069 -1.5733
 7492SOL    HW226008   1.212   8.379   5.132  0.0526 -0.5687  0.6551
 7493SOL     OW26009   1.332   0.860   3.609  0.8539  0.0269 -0.1303
 7493SOL    HW126010   1.401   0.800   3.581  0.4848 -0.3035 -0.3375
 7493SOL    HW226011   1.348   0.872   3.702  0.4486 -1.0499  0.0982
 7494SOL     OW26012   7.684   3.340   4.714 -0.0321 -0.1666  0.3943
 7494SOL    HW126013   7.635   3.272   4.668 -1.4646  0.5535  0.7863
 7494SOL    HW226014   7.764   3.298   4.742 -0.5329 -1.4664 -0.0723
 7495SOL     OW26015   8.377   2.492   1.591  0.6109  0.6023 -0.1278
 7495SOL    HW126016   8.310   2.441   1.545  2.1196 -0.4273 -1.2772
 7495SOL    HW226017   8.373   2.579   1.552 -0.7206  0.8689  0.5415
 7496SOL     OW26018   5.249   2.969   3.587  0.0509  0.3169 -0.4866
 7496SOL    HW126019   5.262   2.881   3.622  0.2829 -0.2771 -1.9912
 7496SOL    HW226020   5.332   3.014   3.603  0.3682 -0.1405 -0.8170
 7497SOL     OW26021   5.561   2.027   2.063 -0.3394 -0.1282  0.1581
 7497SOL    HW126022   5.530   2.004   1.976  0.2034 -0.2052 -0.0187
 7497SOL    HW226023   5.595   1.945   2.099 -0.0674  0.0153  0.2315
 7498SOL     OW26024  10.059  10.950   9.539  0.2728 -0.5290 -0.2155
 7498SOL    HW126025  10.133  10.891   9.555  1.3295  0.6974 -0.3707
 7498SOL    HW226026  10.056  11.006   9.616  0.8258  0.7551 -1.0918
 7499SOL     OW26027   2.261  10.251  10.004 -0.1778 -0.2187  0.5709
 7499SOL    HW126028   2.329  10.185  10.003 -1.3315 -1.4401  0.0673
 7499SOL    HW226029   2.296  10.321  10.060  3.2947  1.2127 -2.9702
 7500SOL     OW26030  10.067   6.580   1.755 -0.5386  0.8289  0.1813
 7500SOL    HW126031  10.143   6.568   1.811 -1.5372 -0.5157  1.3220
 7500SOL    HW226032  10.012   6.504   1.773 -0.9340  0.3543 -2.6158
 7501SOL     OW26033   6.157   3.057   1.553  0.0836 -0.3963 -0.0140
 7501SOL    HW126034   6.074   3.012   1.559 -0.5942  0.7662 -0.3657
 7501SOL    HW226035   6.134   3.150   1.543  1.4105  0.0400  0.6168
 7502SOL     OW26036   9.450   8.808   5.542 -0.1215 -0.1525  0.5017
 7502SOL    HW126037   9.542   8.785   5.529 -0.7501 -2.1679 -0.7065
 7502SOL    HW226038   9.418   8.828   5.454 -1.3164 -1.4566  0.6168
 7503SOL     OW26039   7.049   7.701   7.000  0.4184  0.2385 -0.5399
 7503SOL    HW126040   7.030   7.723   7.091  0.1616  0.3194 -0.6118
 7503SOL    HW226041   7.002   7.767   6.949  0.5748  0.2036 -0.7304
 7504SOL     OW26042  10.884   1.579   1.699  0.2200 -0.5218 -0.4035
 7504SOL    HW126043  10.937   1.638   1.752 -1.0742  1.9615 -1.6436
 7504SOL    HW226044  10.842   1.521   1.762  1.5026 -0.0851  0.9125
 7505SOL     OW26045   4.231   7.953   6.391  0.3074  0.4431  0.8990
 7505SOL    HW126046   4.152   8.000   6.364 -0.7406  0.1712  3.2378
 7505SOL    HW226047   4.205   7.861   6.395  0.7721  0.3256  1.5142
 7506SOL     OW26048   6.746   0.728   9.430 -0.8330  0.4831 -0.4694
 7506SOL    HW126049   6.745   0.660   9.498 -1.2399 -1.1013 -1.9872
 7506SOL    HW226050   6.670   0.708   9.375 -1.4527  2.6977 -0.5052
 7507SOL     OW26051   3.243   3.271   9.416  0.4747 -0.1225 -0.1668
 7507SOL    HW126052   3.164   3.299   9.370  0.0870 -0.2868  0.3904
 7507SOL    HW226053   3.287   3.352   9.439  0.7581 -0.0390 -0.9602
 7508SOL     OW26054   6.621   1.479   0.226 -0.1569 -0.5444 -0.1512
 7508SOL    HW126055   6.585   1.406   0.175  0.5888  0.3212 -2.0247
 7508SOL    HW226056   6.678   1.437   0.291  0.4620 -1.6501 -1.3620
 7509SOL     OW26057   9.364   6.953   3.847 -0.1428 -0.5290 -0.9176
 7509SOL    HW126058   9.395   6.876   3.800 -2.3086 -0.9914 -1.6648
 7509SOL    HW226059   9.406   6.946   3.933  1.5756 -1.2157 -1.7458
 7510SOL     OW26060   9.142   6.755   8.924  0.4127 -0.1696  0.5203
 7510SOL    HW126061   9.105   6.838   8.952  3.5708  0.9076  1.9918
 7510SOL    HW226062   9.236   6.773   8.912  0.6462 -2.6183 -2.9100
 7511SOL     OW26063   2.854  10.478   9.369 -0.6469  0.3465 -0.0225
 7511SOL    HW126064   2.857  10.389   9.402 -2.0987  0.0725 -0.5908
 7511SOL    HW226065   2.816  10.471   9.282  0.1322  1.4254 -0.4842
 7512SOL     OW26066   7.083   6.509   7.597  0.3950  0.4638  0.3324
 7512SOL    HW126067   7.133   6.429   7.613  0.2437  0.3298  0.1500
 7512SOL    HW226068   7.072   6.548   7.683 -0.7513 -0.4548  0.6436
 7513SOL     OW26069   3.610   6.495   4.761  0.6108 -0.3330 -0.1663
 7513SOL    HW126070   3.571   6.428   4.818  0.3290 -1.8684 -2.0428
 7513SOL    HW226071   3.700   6.502   4.791  1.2346 -3.0609 -1.0888
 7514SOL     OW26072   3.427   1.673   9.251 -0.5071 -0.3244  0.3849
 7514SOL    HW126073   3.463   1.616   9.318  0.7348 -0.2257 -0.1637
 7514SOL    HW226074   3.381   1.741   9.300  1.1332  0.2577  1.2042
 7515SOL     OW26075   1.579   0.567   6.082 -0.1157  0.2759  0.3633
 7515SOL    HW126076   1.661   0.529   6.113  0.6019  1.1506 -0.4099
 7515SOL    HW226077   1.600   0.659   6.068 -0.6420  0.1085 -1.8430
 7516SOL     OW26078  10.263   7.374   3.337  0.1305 -0.5960  0.1237
 7516SOL    HW126079  10.273   7.444   3.273 -1.8118 -0.1795  0.2068
 7516SOL    HW226080  10.182   7.330   3.311 -0.7017 -0.4398  2.2463
 7517SOL     OW26081   7.488   1.932   0.189  0.0964  0.2951  0.4823
 7517SOL    HW126082   7.502   1.843   0.224  0.9833  0.4756  0.6135
 7517SOL    HW226083   7.554   1.941   0.120  1.2024  1.4879  1.6613
 7518SOL     OW26084   8.497   9.474   7.149 -0.1144  0.2901  0.0163
 7518SOL    HW126085   8.563   9.524   7.101 -0.3038  1.2465  0.7156
 7518SOL    HW226086   8.414   9.515   7.126 -0.1496  1.2125  1.6304
 7519SOL     OW26087   3.680   7.794  10.297 -0.0484  0.0177  0.1590
 7519SOL    HW126088   3.624   7.806  10.220 -0.1773 -0.2433  0.2135
 7519SOL    HW226089   3.710   7.882  10.317 -0.3871  0.1526  0.0900
 7520SOL     OW26090   3.251   5.869   1.528  0.1059  0.1080  0.8011
 7520SOL    HW126091   3.169   5.839   1.568  1.0479 -1.0990  1.8803
 7520SOL    HW226092   3.286   5.933   1.591 -0.2953  1.1197  0.0319
 7521SOL     OW26093   5.736   8.654   4.911  0.6823 -0.1208  0.4159
 7521SOL    HW126094   5.652   8.637   4.954 -1.7977  1.3905 -3.2591
 7521SOL    HW226095   5.760   8.743   4.938 -0.5318  0.5764 -0.6540
 7522SOL     OW26096   6.776   3.013   0.975  0.7676 -0.6765  0.0700
 7522SOL    HW126097   6.784   3.100   0.936  1.6415  0.7918  3.1724
 7522SOL    HW226098   6.694   2.978   0.940 -0.5659  2.1580  0.0711
 7523SOL     OW26099   9.671   2.347   4.308  0.1490  0.3222  0.0137
 7523SOL    HW126100   9.719   2.265   4.320  0.4659  0.3151 -1.1566
 7523SOL    HW226101   9.631   2.364   4.394  0.7195 -0.6370  0.4946
 7524SOL     OW26102   8.818   6.846   0.309 -0.2532  0.6999  0.6175
 7524SOL    HW126103   8.894   6.793   0.282 -0.7024 -0.6163  1.8173
 7524SOL    HW226104   8.846   6.936   0.294 -0.8959  0.2957 -5.4907
 7525SOL     OW26105   0.202   5.040   6.185  0.4332  0.3960  0.1874
 7525SOL    HW126106   0.164   4.958   6.217 -1.6817  1.5969  1.0279
 7525SOL    HW226107   0.195   5.034   6.090 -0.0329 -0.2745  0.2543
 7526SOL     OW26108  10.637   7.298   6.422  0.1955 -0.3928 -0.3572
 7526SOL    HW126109  10.654   7.270   6.333 -0.8090 -1.0775 -0.3461
 7526SOL    HW226110  10.572   7.368   6.414 -0.1944 -0.7276 -0.1406
 7527SOL     OW26111   3.442   5.692   4.778  0.1761  0.7212 -0.8130
 7527SOL    HW126112   3.505   5.651   4.838 -1.2288  0.8573  0.8191
 7527SOL    HW226113   3.492   5.761   4.735  2.0844 -1.4157 -2.2208
 7528SOL     OW26114   3.996   9.247   8.108 -0.1512 -0.0795  0.1823
 7528SOL    HW126115   3.970   9.155   8.100 -0.9892 -0.0371  1.9777
 7528SOL    HW226116   4.079   9.252   8.061  1.2261 -2.3483  2.1408
 7529SOL     OW26117   6.079   5.198   2.443 -0.0233  0.2626 -0.3000
 7529SOL    HW126118   6.036   5.116   2.468  0.4619 -0.1815 -0.8787
 7529SOL    HW226119   6.104   5.239   2.526 -2.2211  0.9118  0.1004
 7530SOL     OW26120   8.341   0.028   3.113 -0.1938 -0.4426  0.1274
 7530SOL    HW126121   8.269  -0.027   3.145 -1.0688  1.2281  1.2321
 7530SOL    HW226122   8.420  -0.012   3.150 -0.6717 -1.5707 -0.0251
 7531SOL     OW26123   9.396   6.814   8.858 -0.2068  0.4214 -0.4630
 7531SOL    HW126124   9.399   6.881   8.790  0.9879  1.6091  0.6950
 7531SOL    HW226125   9.445   6.740   8.821  0.3319  1.0113 -0.9477
 7532SOL     OW26126   1.838   8.708  10.264 -0.7046 -0.6760 -0.0928
 7532SOL    HW126127   1.804   8.773  10.203  2.3110  0.2246 -0.9643
 7532SOL    HW226128   1.799   8.625  10.236 -1.6828  0.1707 -1.3143
 7533SOL     OW26129   9.840   4.515   8.684  0.0777 -0.4737 -0.1575
 7533SOL    HW126130   9.862   4.460   8.609 -0.0144 -1.4379  0.4919
 7533SOL    HW226131   9.916   4.506   8.742  0.5482  0.9899 -0.5215
 7534SOL     OW26132   1.628  10.545   4.105 -0.5093 -0.1328  0.6869
 7534SOL    HW126133   1.589  10.458   4.108 -0.1049 -0.2912  1.7129
 7534SOL    HW226134   1.648  10.566   4.196  0.2731  0.6412  0.3545
 7535SOL     OW26135   2.080   4.036   4.448  0.0522  0.2224 -0.0205
 7535SOL    HW126136   2.159   4.071   4.489  1.3436 -2.0235 -0.3894
 7535SOL    HW226137   2.109   4.004   4.363 -1.2722 -0.5794 -0.2064
 7536SOL     OW26138   5.668   4.540   6.935  0.5181 -0.0656 -0.3704
 7536SOL    HW126139   5.753   4.582   6.951 -0.1041  0.9988  0.2013
 7536SOL    HW226140   5.662   4.535   6.840  0.9901  0.3441 -0.4305
 7537SOL     OW26141   3.497   1.341   0.287 -0.0958  0.0307 -0.3845
 7537SOL    HW126142   3.570   1.400   0.309  0.0690 -0.2176 -0.2589
 7537SOL    HW226143   3.476   1.298   0.370  0.6069 -1.0047 -0.7229
 7538SOL     OW26144  11.108   5.863   6.314  0.2282  0.1890  0.1602
 7538SOL    HW126145  11.074   5.776   6.296 -0.3860  0.9289 -2.7565
 7538SOL    HW226146  11.203   5.853   6.306  0.3732 -0.6370  2.2780
 7539SOL     OW26147   3.827   9.694  10.084  0.4566 -0.1978 -0.1463
 7539SOL    HW126148   3.761   9.646  10.035  1.6586 -1.6813 -0.3851
 7539SOL    HW226149   3.830   9.650  10.169 -0.8051  1.6385  0.9327
 7540SOL     OW26150   0.676   8.260   8.364  0.4933  0.1526 -0.0071
 7540SOL    HW126151   0.699   8.311   8.442 -0.1033 -1.5021  1.3017
 7540SOL    HW226152   0.756   8.260   8.311  0.1047  3.6867 -0.8787
 7541SOL     OW26153   1.889   3.236   3.439 -0.5051 -0.2298  0.1350
 7541SOL    HW126154   1.983   3.228   3.424 -0.1930  1.7731  0.7691
 7541SOL    HW226155   1.869   3.328   3.421 -2.1699 -0.3973  0.9340
 7542SOL     OW26156   5.373   8.452   5.623 -0.1701 -0.1511  0.3611
 7542SOL    HW126157   5.391   8.482   5.534 -0.3085  0.3331  0.4970
 7542SOL    HW226158   5.456   8.462   5.670 -0.1686 -0.1553  0.3596
 7543SOL     OW26159   7.370   7.301   2.126 -0.6999 -0.1835 -0.4289
 7543SOL    HW126160   7.422   7.366   2.174  2.5121 -0.7057 -2.8332
 7543SOL    HW226161   7.394   7.218   2.167 -2.4031 -0.2049  0.6253
 7544SOL     OW26162   9.689   6.232   6.296  0.5102 -0.3608  0.0329
 7544SOL    HW126163   9.718   6.272   6.378  0.8939 -0.4350 -0.0639
 7544SOL    HW226164   9.615   6.286   6.267  1.3864  0.6371 -0.4025
 7545SOL     OW26165  10.862   6.278   2.763  0.2629 -0.4289  0.3197
 7545SOL    HW126166  10.773   6.282   2.729 -0.5863 -2.4828  2.1253
 7545SOL    HW226167  10.893   6.369   2.759 -1.3721  0.1179 -1.6037
 7546SOL     OW26168   0.217   2.980  10.253  0.0309 -0.1933 -0.1327
 7546SOL    HW126169   0.127   2.975  10.286  0.9678 -0.6230  2.5743
 7546SOL    HW226170   0.229   3.073  10.232 -0.7728  0.0255  0.3250
 7547SOL     OW26171   3.615   2.248   2.543  0.1672  0.0644 -0.4476
 7547SOL    HW126172   3.628   2.187   2.615 -0.8015  2.0319  1.5348
 7547SOL    HW226173   3.698   2.250   2.496  0.7375 -1.4500  0.4592
 7548SOL     OW26174   2.728   0.251   1.685  0.5925 -0.0185 -0.3231
 7548SOL    HW126175   2.782   0.210   1.617  1.1709  0.1575  0.0309
 7548SOL    HW226176   2.641   0.257   1.645  1.1126  0.8499 -1.3723
 7549SOL     OW26177   9.255   7.077   4.486  0.0806 -0.6190 -0.2907
 7549SOL    HW126178   9.277   7.051   4.396 -2.2781  0.4926 -1.2874
 7549SOL    HW226179   9.193   7.011   4.516 -0.3786 -0.1185 -0.1123
 7550SOL     OW26180  10.873   9.085   4.124  0.2429 -0.2663  0.1609
 7550SOL    HW126181  10.964   9.057   4.116  0.3557 -0.4156  1.6892
 7550SOL    HW226182  10.869   9.167   4.075  1.6161  0.5962  1.4139
 7551SOL     OW26183  10.595   3.714   0.234  0.0246 -0.3987 -0.3017
 7551SOL    HW126184  10.506   3.727   0.200  0.0967 -0.3751 -0.4850
 7551SOL    HW226185  10.617   3.797   0.276 -1.1646 -1.3545  2.4040
 7552SOL     OW26186   9.556   9.056   8.515 -0.6842  0.6177 -0.1052
 7552SOL    HW126187   9.494   9.053   8.587 -1.1877 -1.7551 -0.5601
 7552SOL    HW226188   9.503   9.078   8.438 -0.6992  0.0986 -0.2452
 7553SOL     OW26189   3.217   8.538   4.420 -0.0967 -0.4928  0.3001
 7553SOL    HW126190   3.139   8.594   4.419 -1.2484 -2.0118  0.8659
 7553SOL    HW226191   3.284   8.591   4.462 -0.8435  0.8167 -0.0914
 7554SOL     OW26192   4.807   9.062   0.283 -0.0192  0.0045 -0.6032
 7554SOL    HW126193   4.861   8.999   0.236  0.6880  0.4401 -0.3959
 7554SOL    HW226194   4.845   9.066   0.370 -0.5507  0.1354 -0.3697
 7555SOL     OW26195   3.698   8.182   5.796 -0.9294 -0.0134  0.4790
 7555SOL    HW126196   3.730   8.228   5.718 -0.0483 -1.2692  0.0694
 7555SOL    HW226197   3.775   8.137   5.831 -1.3578  0.4037  1.9960
 7556SOL     OW26198   6.743   2.725  10.685 -0.7315 -0.3048  0.4272
 7556SOL    HW126199   6.690   2.782  10.741 -0.2592 -0.0358  0.5974
 7556SOL    HW226200   6.829   2.766  10.683 -0.5447 -0.7105  0.0947
 7557SOL     OW26201   4.557   1.851   3.650 -0.1888 -0.3448  0.6735
 7557SOL    HW126202   4.586   1.819   3.736 -0.1512  0.2327  0.8836
 7557SOL    HW226203   4.485   1.793   3.626 -0.0830 -0.6235  1.0151
 7558SOL     OW26204   0.532   6.892   2.540  0.1890  0.3460  0.1585
 7558SOL    HW126205   0.588   6.937   2.604 -0.0890  0.7312  0.1400
 7558SOL    HW226206   0.539   6.800   2.562  1.0634  0.3634 -0.0313
 7559SOL     OW26207   6.589   0.198   5.508  0.3831 -0.1866 -0.3135
 7559SOL    HW126208   6.665   0.239   5.550  0.1840 -0.5465  0.4150
 7559SOL    HW226209   6.591   0.230   5.418 -1.7318  4.3105  0.9649
 7560SOL     OW26210   5.039   1.984   6.540  0.3143  0.7488 -0.4586
 7560SOL    HW126211   5.099   1.925   6.495 -0.0607  0.7915 -1.0202
 7560SOL    HW226212   5.044   1.958   6.632  1.3463  0.8930 -0.4655
 7561SOL     OW26213   9.621  10.243   8.827 -0.5829 -0.1544 -0.0515
 7561SOL    HW126214   9.578  10.201   8.902 -0.1045 -1.9562 -0.7376
 7561SOL    HW226215   9.561  10.228   8.754  0.6253 -1.7037 -0.7816
 7562SOL     OW26216   4.329   8.995   6.982  0.0151 -0.5753  0.0865
 7562SOL    HW126217   4.421   9.012   7.004 -0.1575  0.7755 -0.1510
 7562SOL    HW226218   4.330   8.911   6.936  0.9821 -1.1308  1.0687
 7563SOL     OW26219   2.457   0.021   2.116  0.3924  0.0116 -0.0820
 7563SOL    HW126220   2.505  -0.004   2.195 -2.2502  0.0834  1.6702
 7563SOL    HW226221   2.503   0.098   2.084  0.1221  1.5844  2.9232
 7564SOL     OW26222   4.380   7.951   4.646 -0.0809 -0.4254  0.3650
 7564SOL    HW126223   4.319   7.890   4.605 -0.4792 -0.0576  0.4124
 7564SOL    HW226224   4.418   8.000   4.573 -0.2492 -0.2763  0.3766
 7565SOL     OW26225   2.057   1.685   1.710  0.2610  0.0398  0.1857
 7565SOL    HW126226   2.115   1.748   1.754 -0.9148  1.6170 -0.4221
 7565SOL    HW226227   1.984   1.674   1.771 -0.4832  0.8051 -0.5450
 7566SOL     OW26228   9.063   8.196  10.970  0.2322  0.5973 -0.2338
 7566SOL    HW126229   9.003   8.218  11.041 -1.3301 -3.1239 -0.1667
 7566SOL    HW226230   9.030   8.245  10.894 -1.5063  0.4123  0.3566
 7567SOL     OW26231   0.525  10.099   7.289 -0.6133  1.0277  0.0409
 7567SOL    HW126232   0.562  10.085   7.376 -0.5583  0.2862 -0.0958
 7567SOL    HW226233   0.449  10.040   7.286  0.4255 -0.3049 -1.0513
 7568SOL     OW26234   9.789   7.935   5.251  0.1215  0.3247 -0.0500
 7568SOL    HW126235   9.723   7.959   5.316 -0.3447 -0.7982 -0.0843
 7568SOL    HW226236   9.862   7.994   5.268 -1.0540  1.9026 -0.3246
 7569SOL     OW26237   6.554   2.002   8.079  0.2117  0.3914  0.3844
 7569SOL    HW126238   6.624   2.061   8.105  1.1089 -0.8131  0.7939
 7569SOL    HW226239   6.493   2.057   8.030  2.4672  1.0860 -1.8356
 7570SOL     OW26240   4.467   4.856   5.257  0.1255 -0.3592  0.2453
 7570SOL    HW126241   4.403   4.923   5.281  0.7072  0.8259 -1.2870
 7570SOL    HW226242   4.478   4.803   5.336 -1.3253  0.5539  1.1041
 7571SOL     OW26243   4.339  11.084  10.275 -0.0908  0.0938  0.1718
 7571SOL    HW126244   4.263  11.029  10.255 -0.4537  0.6431 -0.0079
 7571SOL    HW226245   4.302  11.159  10.321  0.1324  1.0573 -1.1380
 7572SOL     OW26246   0.048   7.807   2.675  0.8996 -0.5831  0.1395
 7572SOL    HW126247  -0.031   7.833   2.722  1.9871 -0.7845  2.2079
 7572SOL    HW226248   0.083   7.734   2.727  2.9786  0.1784 -0.1234
 7573SOL     OW26249   6.312   3.212  10.807  0.3757  0.2701 -0.2594
 7573SOL    HW126250   6.328   3.252  10.722 -0.3568 -2.4664 -1.8102
 7573SOL    HW226251   6.391   3.162  10.825  0.5939  0.9693  0.7859
 7574SOL     OW26252   9.204  10.921   2.820  0.1761 -0.5461 -0.0413
 7574SOL    HW126253   9.216  11.002   2.870 -0.4601  0.2418 -1.1337
 7574SOL    HW226254   9.164  10.949   2.739  0.0673 -1.9630 -0.4936
 7575SOL     OW26255   3.647   9.813   9.434 -0.0554  0.1582 -0.5790
 7575SOL    HW126256   3.570   9.849   9.389 -0.1172  2.2611  1.0599
 7575SOL    HW226257   3.719   9.825   9.372 -0.6522  0.2313 -1.2723
 7576SOL     OW26258   7.759   7.506   0.223  0.2645  0.3611  0.3245
 7576SOL    HW126259   7.845   7.468   0.203  0.7736  1.2713  0.7167
 7576SOL    HW226260   7.708   7.433   0.256  1.4464  0.1303  1.7424
 7577SOL     OW26261   5.306   2.307  11.007 -0.4066  0.2284  0.2407
 7577SOL    HW126262   5.268   2.229  10.966  1.0741 -0.8920  0.9177
 7577SOL    HW226263   5.400   2.297  10.996 -0.1891  2.1406  0.0209
 7578SOL     OW26264   2.072   8.766   4.567  0.3411  0.6340 -0.2255
 7578SOL    HW126265   2.031   8.775   4.653 -2.3301 -0.2445 -1.2972
 7578SOL    HW226266   2.162   8.739   4.586  0.0318  1.1055  2.2769
 7579SOL     OW26267   9.795   7.576   5.559  0.6493  0.2684  0.0604
 7579SOL    HW126268   9.795   7.577   5.655 -0.5907 -0.8688  0.0918
 7579SOL    HW226269   9.859   7.508   5.536 -1.2840 -1.7271  0.1971
 7580SOL     OW26270  10.045  10.337   1.391 -0.9361  0.2239  0.0273
 7580SOL    HW126271  10.034  10.422   1.431 -1.5854  0.2373 -0.1660
 7580SOL    HW226272   9.959  10.295   1.398 -1.0395  0.1849 -1.2294
 7581SOL     OW26273   9.102   4.056   8.596 -0.2764 -0.2703 -0.1910
 7581SOL    HW126274   9.114   4.151   8.598  1.0671 -0.4135 -0.9292
 7581SOL    HW226275   9.109   4.029   8.688 -3.6344  0.6263  0.4777
 7582SOL     OW26276   4.042  10.685   6.692 -0.1609  0.0789  0.0756
 7582SOL    HW126277   3.989  10.627   6.746  0.6216  0.1383  0.9350
 7582SOL    HW226278   4.005  10.772   6.707 -1.3770 -0.1639 -1.2640
 7583SOL     OW26279   9.157   5.086   6.020  0.1601  0.3199  0.1223
 7583SOL    HW126280   9.168   5.088   6.115  1.0092  0.6841  0.0234
 7583SOL    HW226281   9.236   5.127   5.985 -0.7413  1.4376 -0.7110
 7584SOL     OW26282   9.485   3.566   2.484 -0.4378 -0.3008  0.1393
 7584SOL    HW126283   9.498   3.534   2.573  1.3696  0.6991  0.2851
 7584SOL    HW226284   9.442   3.651   2.495  0.1099 -0.0150  0.0815
 7585SOL     OW26285   2.998   5.793   6.651 -0.6993 -0.3555  0.5273
 7585SOL    HW126286   2.967   5.881   6.675 -0.2491 -0.0227 -0.0919
 7585SOL    HW226287   3.091   5.793   6.674 -0.4260 -0.2709 -0.5372
 7586SOL     OW26288   4.147   9.419   8.897 -0.3740  0.0580  0.0563
 7586SOL    HW126289   4.086   9.446   8.829 -1.9648  0.0100  1.3816
 7586SOL    HW226290   4.102   9.347   8.942 -0.0235  0.9986  2.0145
 7587SOL     OW26291   6.680   8.717   7.580  0.4140  0.2168  0.7917
 7587SOL    HW126292   6.696   8.763   7.498 -1.8289 -0.0203  0.1469
 7587SOL    HW226293   6.727   8.634   7.571  0.2362  0.2214 -0.2320
 7588SOL     OW26294  10.505   9.191   0.607 -0.2390  0.2335 -0.3706
 7588SOL    HW126295  10.440   9.152   0.665 -0.5792  0.5424 -0.5378
 7588SOL    HW226296  10.583   9.138   0.619 -0.7571 -0.6418 -0.7648
 7589SOL     OW26297   4.003   7.209   9.010  0.0365  0.0916 -0.6123
 7589SOL    HW126298   4.065   7.187   9.080  0.6201 -1.6209 -1.6065
 7589SOL    HW226299   3.921   7.169   9.038  0.7067 -2.2501 -1.6552
 7590SOL     OW26300   7.644   8.217   8.573  0.5989  0.2048  0.4342
 7590SOL    HW126301   7.721   8.215   8.630  2.4115  0.5268 -1.8749
 7590SOL    HW226302   7.637   8.308   8.545 -1.3216  0.4184  1.4005
 7591SOL     OW26303   5.313   2.696   8.394  0.4369  0.4513  0.3426
 7591SOL    HW126304   5.296   2.606   8.424 -1.1665  0.1828 -1.2041
 7591SOL    HW226305   5.337   2.687   8.302 -0.9993  1.6787 -0.1919
 7592SOL     OW26306   5.043   1.141  10.012  0.0444  0.0372  0.5313
 7592SOL    HW126307   5.078   1.137  10.101  1.3613  0.7482  0.0875
 7592SOL    HW226308   4.951   1.120  10.021 -0.3540  2.1312  2.3863
 7593SOL     OW26309   2.268   2.499   7.975 -0.4124 -0.0145 -0.7108
 7593SOL    HW126310   2.250   2.406   7.993  0.4929 -0.1719 -0.5541
 7593SOL    HW226311   2.267   2.506   7.880  1.5564 -0.6390 -0.8099
 7594SOL     OW26312   6.385   8.611   6.102  0.0503  0.1224  1.0518
 7594SOL    HW126313   6.404   8.652   6.187  0.8364  1.3636  0.3197
 7594SOL    HW226314   6.431   8.666   6.039  0.3929 -1.4219 -0.0891
 7595SOL     OW26315   8.903   0.001   9.752  0.7808 -0.3371 -0.3438
 7595SOL    HW126316   8.903   0.094   9.774  0.2387 -0.0785 -1.3731
 7595SOL    HW226317   8.968  -0.007   9.683  0.4039 -0.6174 -0.6673
 7596SOL     OW26318   3.760  10.410   8.599 -0.2008  0.3905 -0.2710
 7596SOL    HW126319   3.755  10.318   8.574 -0.8873  0.6627 -1.1892
 7596SOL    HW226320   3.818  10.411   8.675 -1.3407 -0.9806  0.6741
 7597SOL     OW26321   2.606   8.498   3.997  0.0412  0.2705  0.1099
 7597SOL    HW126322   2.669   8.463   4.060 -1.1184  1.7679  2.2235
 7597SOL    HW226323   2.574   8.579   4.037 -2.0822  0.3751 -1.5956
 7598SOL     OW26324   1.646   8.990   9.081  0.3794 -0.0949  0.2134
 7598SOL    HW126325   1.555   8.962   9.078  0.1266  0.7500 -0.0298
 7598SOL    HW226326   1.676   8.964   9.169  0.2106 -1.2601 -0.0532
 7599SOL     OW26327   7.187   7.609   6.270 -0.3230  0.4730 -0.2524
 7599SOL    HW126328   7.134   7.532   6.291  0.9539 -0.5113 -0.4840
 7599SOL    HW226329   7.156   7.677   6.329  1.3302 -1.4076  3.0224
 7600SOL     OW26330   9.365   0.375   6.461  0.0745 -0.1849  0.1830
 7600SOL    HW126331   9.283   0.349   6.503  0.1736  0.0607  0.5317
 7600SOL    HW226332   9.407   0.434   6.524 -0.5648  1.5557 -0.9503
 7601SOL     OW26333   7.509   2.772   9.313  0.0597 -0.1827  0.4734
 7601SOL    HW126334   7.573   2.842   9.298 -2.6379  2.6382  0.8327
 7601SOL    HW226335   7.465   2.762   9.229  0.1726 -1.2210  0.5307
 7602SOL     OW26336   8.767   1.774   0.722 -0.7128 -0.6326  0.1135
 7602SOL    HW126337   8.851   1.815   0.744 -0.3540 -1.4955  0.3942
 7602SOL    HW226338   8.758   1.787   0.628  0.6764 -2.1680 -0.2902
 7603SOL     OW26339   9.394   5.529  10.886  0.4324  0.2245 -0.3405
 7603SOL    HW126340   9.365   5.480  10.964  1.4037 -0.4451 -0.3853
 7603SOL    HW226341   9.316   5.534  10.831  0.4372 -1.8650 -0.6166
 7604SOL     OW26342   8.729   7.862   7.277 -0.2682 -0.4682 -0.1619
 7604SOL    HW126343   8.791   7.855   7.205 -0.5362  3.5018 -1.0122
 7604SOL    HW226344   8.779   7.902   7.348 -0.9757 -0.6455  0.4523
 7605SOL     OW26345   4.417   3.303   5.011 -0.7849 -0.6283 -0.3521
 7605SOL    HW126346   4.435   3.249   4.934 -0.4515 -0.1797 -0.5963
 7605SOL    HW226347   4.473   3.380   4.999  2.0577 -2.1191  2.0729
 7606SOL     OW26348   2.606  10.864   0.560 -0.6417 -0.2049 -0.1702
 7606SOL    HW126349   2.603  10.823   0.647  1.7219 -0.2924 -0.0580
 7606SOL    HW226350   2.638  10.795   0.502  1.3220  0.8138 -0.3823
 7607SOL     OW26351  10.876   2.936  10.525 -0.1524  0.0705  0.0409
 7607SOL    HW126352  10.794   2.930  10.573 -1.5480 -0.8165 -2.3084
 7607SOL    HW226353  10.916   2.850  10.532 -0.8091 -0.3451 -1.0742
 7608SOL     OW26354  10.999   7.442   0.498 -0.4309  0.3762  0.0382
 7608SOL    HW126355  10.929   7.376   0.497 -0.2006  0.1331 -0.8929
 7608SOL    HW226356  10.980   7.495   0.576  0.0702 -1.4991  1.4991
 7609SOL     OW26357   0.258   5.808   9.527  0.3374  0.3633  0.0524
 7609SOL    HW126358   0.237   5.719   9.498 -3.5955  0.9370  0.6017
 7609SOL    HW226359   0.236   5.809   9.620 -1.3746  2.3071 -0.3284
 7610SOL     OW26360   1.567   4.017   4.884 -0.9043 -0.0049 -0.4408
 7610SOL    HW126361   1.540   3.982   4.969  0.5239 -0.9188 -0.3493
 7610SOL    HW226362   1.526   4.104   4.881 -2.3044 -0.5895  0.4628
 7611SOL     OW26363   5.147   5.034   8.765  0.0199 -0.0522  0.3651
 7611SOL    HW126364   5.109   5.104   8.713 -0.1770 -0.3064  0.1624
 7611SOL    HW226365   5.100   5.039   8.849 -0.0733 -0.0124  0.3111
 7612SOL     OW26366   8.118   8.316   8.654  0.0635 -0.3601  0.2058
 7612SOL    HW126367   8.071   8.248   8.700 -0.4569 -0.9814 -1.1939
 7612SOL    HW226368   8.050   8.372   8.616  0.4798  0.6438  0.8811
 7613SOL     OW26369   0.997   9.771   4.852  0.0894 -0.4547 -0.4106
 7613SOL    HW126370   1.043   9.849   4.881  0.1959 -0.1723 -1.3047
 7613SOL    HW226371   0.999   9.776   4.756 -1.7546 -0.4639 -0.4864
 7614SOL     OW26372   8.765   0.720   7.028 -0.4647 -0.3691  0.3471
 7614SOL    HW126373   8.795   0.809   7.046  0.8669 -0.8139  0.4735
 7614SOL    HW226374   8.744   0.684   7.114 -0.4639 -0.3620  0.3505
 7615SOL     OW26375   4.356   1.982   6.791  0.5913  0.1048 -0.2555
 7615SOL    HW126376   4.401   2.048   6.737  0.8154 -0.7348 -1.1169
 7615SOL    HW226377   4.302   1.933   6.730 -0.9687  0.6146  0.6584
 7616SOL     OW26378  10.572   4.658   1.225  0.2156 -0.2448  0.0559
 7616SOL    HW126379  10.578   4.569   1.189  0.5559  0.0538 -0.6320
 7616SOL    HW226380  10.505   4.701   1.173  0.1735 -0.0358  0.2789
 7617SOL     OW26381   3.154   0.897   4.010 -0.2298  0.2597 -0.1894
 7617SOL    HW126382   3.215   0.944   4.068  0.3612  0.0730 -0.6548
 7617SOL    HW226383   3.079   0.877   4.066 -0.4278  1.6158  0.0616
 7618SOL     OW26384  10.074   8.263   8.385 -0.2850 -0.1799  0.0893
 7618SOL    HW126385  10.029   8.338   8.347 -0.6631 -0.5254 -0.1495
 7618SOL    HW226386  10.063   8.193   8.321  2.5176  0.3147 -1.1038
 7619SOL     OW26387   3.178   4.218   9.164 -0.7261 -0.0137 -0.0135
 7619SOL    HW126388   3.134   4.294   9.126 -0.4056  0.3743  0.3834
 7619SOL    HW226389   3.109   4.175   9.216 -0.1901  1.7227  2.2690
 7620SOL     OW26390  10.422   4.850   2.083 -0.5896  0.0631  0.1158
 7620SOL    HW126391  10.475   4.928   2.072 -0.0814 -0.1948  0.7049
 7620SOL    HW226392  10.478   4.777   2.056 -0.6947 -0.1943  0.5732
 7621SOL     OW26393   7.780   6.883   3.093 -0.3517 -0.1273  0.0521
 7621SOL    HW126394   7.728   6.842   3.162  0.2330 -0.6510  0.1887
 7621SOL    HW226395   7.754   6.975   3.095 -1.6141 -0.4654 -0.1948
 7622SOL     OW26396   6.157   4.773   0.267  0.6727 -0.4868 -0.1261
 7622SOL    HW126397   6.237   4.792   0.316  0.4219  2.7282 -0.7844
 7622SOL    HW226398   6.105   4.719   0.327  1.2951  1.4522  2.3353
 7623SOL     OW26399   6.033   3.069   9.662  0.0579 -0.7529 -0.2040
 7623SOL    HW126400   6.008   3.066   9.570  0.5102 -0.9448 -0.3249
 7623SOL    HW226401   6.051   2.978   9.685  1.0156 -0.5779 -0.2344
 7624SOL     OW26402   8.521   4.159   8.453 -0.2043  0.0998  0.5228
 7624SOL    HW126403   8.523   4.067   8.428 -1.4478  0.2029 -0.0096
 7624SOL    HW226404   8.592   4.168   8.516  0.4859 -1.0279 -0.0594
 7625SOL     OW26405   3.763   5.253   3.010 -0.2460 -0.6716  0.0433
 7625SOL    HW126406   3.815   5.323   3.049 -1.0524  0.8779 -1.5110
 7625SOL    HW226407   3.691   5.239   3.072  0.8999 -1.4516  1.2420
 7626SOL     OW26408   6.513   8.467   6.637  0.1826 -0.1218  0.2274
 7626SOL    HW126409   6.453   8.541   6.626 -0.2555 -0.4404  0.4388
 7626SOL    HW226410   6.457   8.395   6.664  0.1762 -1.3017 -2.6313
 7627SOL     OW26411   9.421   6.461   3.848  0.1632 -0.2554  0.0727
 7627SOL    HW126412   9.352   6.467   3.783 -0.0187 -1.3995  0.1336
 7627SOL    HW226413   9.400   6.383   3.899  1.1151 -0.2292  0.5446
 7628SOL     OW26414   9.849   5.313   2.754 -0.0920 -0.1573  0.2821
 7628SOL    HW126415   9.876   5.368   2.681 -0.1493  0.0209  0.3929
 7628SOL    HW226416   9.930   5.284   2.795 -0.0632  0.0157  0.3485
 7629SOL     OW26417   0.417   2.936   7.893  0.0566 -0.9587 -0.3480
 7629SOL    HW126418   0.456   2.956   7.808  0.9610  1.8983  0.6101
 7629SOL    HW226419   0.447   2.848   7.913  2.3742 -0.5533 -1.6623
 7630SOL     OW26420  10.212   6.918   7.387 -0.9709  0.1099 -0.8277
 7630SOL    HW126421  10.288   6.967   7.357 -1.0304  0.9868  0.3692
 7630SOL    HW226422  10.233   6.893   7.477 -2.3608  0.9708 -0.2319
 7631SOL     OW26423   2.572   1.659   1.061 -0.0968  0.4099 -0.1219
 7631SOL    HW126424   2.611   1.573   1.074 -2.7762 -0.9539 -0.4247
 7631SOL    HW226425   2.630   1.703   0.999  0.6224 -1.7174 -1.0529
 7632SOL     OW26426   5.906   5.089   3.593  0.4190 -0.8034  0.0784
 7632SOL    HW126427   5.924   5.001   3.560  1.3360  0.0625 -1.8992
 7632SOL    HW226428   5.959   5.096   3.672  1.8326 -1.4316 -0.7689
 7633SOL     OW26429   6.006   9.452   5.060 -0.5153 -0.2766 -0.0615
 7633SOL    HW126430   6.017   9.357   5.067 -1.1104 -0.2966  0.7878
 7633SOL    HW226431   5.916   9.463   5.029 -0.6084  0.0073  0.2989
 7634SOL     OW26432   5.963   9.111   7.914  0.1043  0.3044  0.1240
 7634SOL    HW126433   5.921   9.054   7.850 -1.1391  3.2031 -1.8314
 7634SOL    HW226434   6.017   9.052   7.967 -1.6594 -2.7241 -1.2208
 7635SOL     OW26435   2.405   5.204   5.938  0.7281 -0.0599  0.3316
 7635SOL    HW126436   2.372   5.277   5.885 -0.0255 -0.0675  0.7855
 7635SOL    HW226437   2.371   5.126   5.896 -1.7217 -0.0015  2.0070
 7636SOL     OW26438   0.832   9.073   2.181 -0.1456  0.4564 -0.1805
 7636SOL    HW126439   0.856   9.135   2.250  1.6679 -0.1871 -0.1693
 7636SOL    HW226440   0.825   8.989   2.226 -3.0754  0.6525 -0.1094
 7637SOL     OW26441   3.022   9.477   8.914 -0.0410 -0.3411  0.4609
 7637SOL    HW126442   3.029   9.422   8.992  0.6031  0.4792  0.9977
 7637SOL    HW226443   2.929   9.500   8.908 -0.0403 -0.1572  1.1572
 7638SOL     OW26444   1.804  10.689   9.698  0.2661  0.6060  0.0907
 7638SOL    HW126445   1.742  10.752   9.735 -0.3621 -0.0535  0.1755
 7638SOL    HW226446   1.767  10.664   9.614  0.2228 -0.0659  0.3012
 7639SOL     OW26447   0.679   9.853   4.286  0.4628 -0.7663 -0.0834
 7639SOL    HW126448   0.592   9.892   4.280  0.6072 -0.4430 -0.0789
 7639SOL    HW226449   0.708   9.846   4.196  0.0698 -1.7125 -0.1585
 7640SOL     OW26450   6.690   2.579  10.218  0.0948 -0.7641  0.3411
 7640SOL    HW126451   6.732   2.527  10.286  0.3708  0.2786  0.9798
 7640SOL    HW226452   6.740   2.559  10.138  1.2326 -0.2379  0.9057
 7641SOL     OW26453   3.607   2.530   4.366  0.2981  0.7930 -0.2726
 7641SOL    HW126454   3.579   2.503   4.454 -1.1609 -2.7196 -1.6272
 7641SOL    HW226455   3.607   2.625   4.369 -2.7612  0.8771  2.6556
 7642SOL     OW26456   2.204   6.173   8.721  0.5710  0.0465  0.6827
 7642SOL    HW126457   2.151   6.217   8.788  0.7998  2.0505 -0.3722
 7642SOL    HW226458   2.287   6.155   8.764  0.1167 -0.3128  1.4425
 7643SOL     OW26459  10.272   7.091   0.262 -0.2892 -0.5032  0.0351
 7643SOL    HW126460  10.321   7.143   0.198 -3.7072  1.8638 -0.9077
 7643SOL    HW226461  10.254   7.009   0.217 -2.3172  0.9769 -2.1226
 7644SOL     OW26462   8.203   3.913   7.887 -0.0905 -0.0707 -0.2784
 7644SOL    HW126463   8.125   3.967   7.884 -0.7060 -0.7500  1.7390
 7644SOL    HW226464   8.207   3.881   7.978  1.9058 -0.9534 -0.6139
 7645SOL     OW26465   8.581   8.991   5.409  0.7166 -0.4103 -0.6476
 7645SOL    HW126466   8.534   8.957   5.333  0.9200 -1.1796 -0.4483
 7645SOL    HW226467   8.517   8.986   5.481  1.3856 -2.5620 -0.1133
 7646SOL     OW26468   1.820   8.508   8.639 -0.3758  0.4388 -0.8923
 7646SOL    HW126469   1.835   8.560   8.560  0.5933  0.4374 -0.7248
 7646SOL    HW226470   1.757   8.441   8.612  0.2891  0.1530 -1.7913
 7647SOL     OW26471   3.429   1.784   5.474 -0.5394  0.2089 -0.5620
 7647SOL    HW126472   3.369   1.735   5.419 -1.0789  0.1102  0.1028
 7647SOL    HW226473   3.437   1.732   5.554 -0.5120  0.8118 -0.1595
 7648SOL     OW26474   3.466   3.316   1.111 -0.0562 -0.2044  0.5409
 7648SOL    HW126475   3.434   3.326   1.021  0.5275 -1.5172  0.1687
 7648SOL    HW226476   3.400   3.261   1.153 -1.6967  2.4176  1.7226
 7649SOL     OW26477   0.993   0.203   5.389 -0.3388 -0.0744 -0.5485
 7649SOL    HW126478   0.958   0.161   5.468 -0.3101  1.5529  0.3587
 7649SOL    HW226479   0.955   0.152   5.317 -0.9807 -1.1194  0.4900
 7650SOL     OW26480  10.396   7.846   6.341  0.0246 -0.3138  0.0439
 7650SOL    HW126481  10.423   7.850   6.249 -2.6604 -0.8259 -0.8532
 7650SOL    HW226482  10.413   7.755   6.366  0.9440 -0.1253  0.1446
 7651SOL     OW26483  10.517   3.443  10.194  0.5070  0.5429  0.0776
 7651SOL    HW126484  10.423   3.428  10.206  0.4050  0.8893 -0.2777
 7651SOL    HW226485  10.550   3.457  10.282  0.4293 -0.7399  0.3224
 7652SOL     OW26486   5.273   0.263   2.183  0.4777  0.0009 -0.3463
 7652SOL    HW126487   5.226   0.293   2.261 -0.8430  1.9309 -1.7943
 7652SOL    HW226488   5.352   0.221   2.217 -0.5110 -0.0718  2.0442
 7653SOL     OW26489   0.697   2.810   9.795 -0.2660  0.0010 -0.4146
 7653SOL    HW126490   0.731   2.727   9.761 -0.6745 -0.6003  0.6038
 7653SOL    HW226491   0.759   2.876   9.764  1.2171 -0.9222  0.4677
 7654SOL     OW26492   4.858   9.953   4.578  0.0956 -0.7964 -0.3796
 7654SOL    HW126493   4.805   9.947   4.658  0.2103 -0.7851 -0.3033
 7654SOL    HW226494   4.839   9.871   4.531  0.9351 -1.3447  0.2198
 7655SOL     OW26495   0.862   2.060   9.337  0.4812  0.3485  0.7235
 7655SOL    HW126496   0.870   1.990   9.403 -1.5318 -1.1845 -0.5560
 7655SOL    HW226497   0.797   2.120   9.373 -2.1651 -1.5432 -0.5873
 7656SOL     OW26498  11.068   5.723   5.451  0.1703 -0.0089 -0.0512
 7656SOL    HW126499  11.015   5.765   5.384  0.9331  1.0501 -0.0151
 7656SOL    HW226500  11.005   5.677   5.507 -0.7148  1.3131  0.0730
 7657SOL     OW26501   1.444   5.214   6.591  0.3627  0.6672  0.2801
 7657SOL    HW126502   1.369   5.215   6.531  2.0021 -0.5976 -1.9693
 7657SOL    HW226503   1.443   5.126   6.628  0.3444  0.8826  0.7964
 7658SOL     OW26504  10.974   1.533   9.642 -0.0067  0.2517 -0.4350
 7658SOL    HW126505  11.009   1.622   9.637  0.8632 -0.0106  0.5070
 7658SOL    HW226506  10.884   1.544   9.672  0.0789  0.8227 -0.3816
 7659SOL     OW26507   9.346   7.554  10.907  0.2017 -0.8014 -0.1962
 7659SOL    HW126508   9.405   7.548  10.982 -0.2295 -0.6030  0.1681
 7659SOL    HW226509   9.379   7.627  10.856 -0.3621  0.0185  0.5858
 7660SOL     OW26510   0.401   5.865   4.756 -0.3439  0.6204 -0.6203
 7660SOL    HW126511   0.352   5.791   4.720  0.4155 -0.2305  0.0222
 7660SOL    HW226512   0.343   5.900   4.824 -0.5194  0.3190 -0.6092
 7661SOL     OW26513   3.629   3.590   6.260  0.0544 -0.0171  0.1226
 7661SOL    HW126514   3.697   3.524   6.271 -0.6335 -0.4697  2.0469
 7661SOL    HW226515   3.554   3.542   6.225  0.2503  0.2082 -0.6327
 7662SOL     OW26516   0.772  10.684   7.700  0.4214 -0.0352 -0.7843
 7662SOL    HW126517   0.753  10.691   7.606 -1.8389  0.5062 -0.3522
 7662SOL    HW226518   0.738  10.765   7.737  0.2495 -0.7315  0.6577
 7663SOL     OW26519   8.700   3.494   3.524 -0.8273  0.5782 -0.2412
 7663SOL    HW126520   8.620   3.504   3.473 -1.2918  2.0348  0.7267
 7663SOL    HW226521   8.766   3.542   3.474 -0.3860 -1.0219 -1.2900
 7664SOL     OW26522   5.440   4.899   2.110  0.2723  0.5719 -0.0905
 7664SOL    HW126523   5.404   4.860   2.030  0.9367 -1.4047  0.5147
 7664SOL    HW226524   5.367   4.896   2.173  0.3148  0.3162 -0.0525
 7665SOL     OW26525   8.826   1.396   3.930 -0.0507  0.0104 -0.1421
 7665SOL    HW126526   8.831   1.422   4.022  0.0071 -0.8733  0.1168
 7665SOL    HW226527   8.916   1.402   3.899  0.4483 -2.3464  0.6422
 7666SOL     OW26528   0.204   2.921   9.972 -0.3501  0.1737  0.4818
 7666SOL    HW126529   0.288   2.895   9.935 -0.3182 -0.5538  1.0365
 7666SOL    HW226530   0.219   2.922  10.067 -1.1008 -0.5047  0.6191
 7667SOL     OW26531   0.501   3.877   4.011  0.4476 -0.1898  0.6870
 7667SOL    HW126532   0.474   3.792   3.977 -1.3426  0.4962  0.2474
 7667SOL    HW226533   0.586   3.893   3.971 -1.3111  0.3514 -3.3638
 7668SOL     OW26534   5.884   2.511   2.943  0.0777 -0.0145 -0.4107
 7668SOL    HW126535   5.828   2.581   2.978  0.9712  1.5490 -1.9780
 7668SOL    HW226536   5.854   2.498   2.854 -0.9542 -2.6602  0.2273
 7669SOL     OW26537   0.521   5.450   4.702  0.2924  0.0791  0.1598
 7669SOL    HW126538   0.586   5.469   4.770 -0.4905 -1.5223  1.4321
 7669SOL    HW226539   0.573   5.420   4.627  1.0574 -1.0325  1.1046
 7670SOL     OW26540   0.005   1.010   0.841  0.4759 -0.2158  0.5154
 7670SOL    HW126541  -0.036   1.012   0.928 -0.9784  3.6120 -0.0823
 7670SOL    HW226542  -0.060   0.970   0.784  0.7989 -1.2551  0.8420
 7671SOL     OW26543   8.141   0.972   2.366  0.3144 -0.0852  0.0792
 7671SOL    HW126544   8.225   0.963   2.412 -0.0167 -1.4477  0.4563
 7671SOL    HW226545   8.162   1.027   2.290  1.7448 -1.0822 -0.2945
 7672SOL     OW26546   2.993   8.754   1.519  0.4792  0.0759 -0.2224
 7672SOL    HW126547   3.009   8.662   1.541 -1.6328 -0.0078  1.2256
 7672SOL    HW226548   3.008   8.801   1.602 -1.9180  0.5338  0.0121
 7673SOL     OW26549   7.179  10.379  10.642  0.1090 -0.2201  0.2144
 7673SOL    HW126550   7.245  10.445  10.659 -0.0807  0.2980 -0.9430
 7673SOL    HW226551   7.112  10.425  10.590 -0.3367 -1.1448 -0.0565
 7674SOL     OW26552   2.094   2.129   6.352  0.8174  0.1821  0.1578
 7674SOL    HW126553   2.033   2.166   6.288 -2.1756 -0.5596  2.3398
 7674SOL    HW226554   2.069   2.171   6.435  0.7891 -2.7989  1.7762
 7675SOL     OW26555   4.243   0.334   6.648 -0.1187 -0.0295 -0.2788
 7675SOL    HW126556   4.157   0.297   6.630  1.1838 -2.3107 -2.5027
 7675SOL    HW226557   4.233   0.428   6.633 -2.0144 -0.3414 -1.2670
 7676SOL     OW26558   8.552  10.311   2.932 -0.3313  0.7174  0.7192
 7676SOL    HW126559   8.639  10.351   2.930 -0.4414  0.9570  0.6932
 7676SOL    HW226560   8.537  10.290   3.024  0.5577 -1.1142  0.4871
 7677SOL     OW26561   3.572   2.375   1.616  0.2563 -0.1134  0.4898
 7677SOL    HW126562   3.529   2.444   1.666  2.5537  0.7960  1.3192
 7677SOL    HW226563   3.559   2.296   1.670  1.0857  0.4888  1.6039
 7678SOL     OW26564   6.776   2.822   6.615  0.0655  0.7534  0.6532
 7678SOL    HW126565   6.838   2.880   6.572  2.2867 -2.5508 -1.1000
 7678SOL    HW226566   6.718   2.880   6.664  2.8205  4.2693  0.1634
 7679SOL     OW26567   9.674   1.979   8.285  0.3613  0.0716  0.6265
 7679SOL    HW126568   9.641   1.911   8.226 -0.2550  2.4349 -1.9178
 7679SOL    HW226569   9.600   2.038   8.298  0.9739  0.4969  2.5273
 7680SOL     OW26570   0.621   9.213   5.683 -0.4076  0.2306 -0.6532
 7680SOL    HW126571   0.651   9.298   5.715 -0.8595  0.9553 -2.0499
 7680SOL    HW226572   0.621   9.222   5.587 -0.7037 -1.2631 -0.8260
 7681SOL     OW26573   1.660   8.392   4.153  0.2340 -0.7911 -0.1438
 7681SOL    HW126574   1.755   8.391   4.146  0.4511  0.5345  1.8831
 7681SOL    HW226575   1.638   8.313   4.202  0.1358 -1.6907 -1.5671
 7682SOL     OW26576   2.573   0.298   6.940  0.1763 -0.0336 -0.1154
 7682SOL    HW126577   2.573   0.242   7.018 -0.1020 -1.6296 -1.2087
 7682SOL    HW226578   2.490   0.345   6.944 -0.0010 -0.3787  0.3638
 7683SOL     OW26579  10.070   3.802   7.651  0.0721  0.1290  0.2492
 7683SOL    HW126580  10.015   3.871   7.688 -2.5222 -1.0696 -1.0960
 7683SOL    HW226581  10.018   3.767   7.578  2.9058 -0.7403 -1.5123
 7684SOL     OW26582   2.038   0.502   1.671 -0.4756  0.1702  0.2312
 7684SOL    HW126583   1.973   0.568   1.695  1.6807  2.2233  0.7360
 7684SOL    HW226584   2.085   0.484   1.752  0.3112 -0.4685 -0.3471
 7685SOL     OW26585   1.607   2.519   9.242 -0.8299  0.2017 -0.0945
 7685SOL    HW126586   1.522   2.495   9.204 -0.5511 -0.2621 -0.4388
 7685SOL    HW226587   1.646   2.577   9.177 -0.5431 -0.2292 -0.3069
 7686SOL     OW26588   0.151   3.525   5.414  0.2283 -0.0706  0.1832
 7686SOL    HW126589   0.112   3.501   5.498 -0.5205  0.3777 -0.0285
 7686SOL    HW226590   0.214   3.594   5.436 -1.0519  1.1333  0.2165
 7687SOL     OW26591   4.663   6.931   5.212 -0.1893 -0.2078  0.3908
 7687SOL    HW126592   4.627   6.898   5.294 -0.8127  1.1742  0.7070
 7687SOL    HW226593   4.700   6.854   5.169 -0.5626 -1.0911  1.5956
 7688SOL     OW26594   6.844   5.839   3.421 -0.4894  0.5711 -0.5865
 7688SOL    HW126595   6.836   5.877   3.333  0.0348 -0.7162 -1.2096
 7688SOL    HW226596   6.934   5.808   3.426 -1.1442 -1.4805 -0.5014
 7689SOL     OW26597   3.809   7.225   2.027  0.3022 -0.1722  0.2306
 7689SOL    HW126598   3.825   7.195   1.938  0.3985  1.0208 -0.1750
 7689SOL    HW226599   3.896   7.230   2.067  0.2085 -1.3388  0.6279
 7690SOL     OW26600   7.721   6.598   7.550 -0.1262 -0.0918 -0.7443
 7690SOL    HW126601   7.644   6.634   7.594  0.0256  1.1964 -1.5009
 7690SOL    HW226602   7.733   6.511   7.590  0.0556  1.0422  1.8326
 7691SOL     OW26603   4.992   4.292   2.076  0.9501  0.0531  0.2741
 7691SOL    HW126604   5.012   4.211   2.028 -0.4934 -0.4957  0.5371
 7691SOL    HW226605   5.043   4.360   2.031  0.6219 -0.6661 -1.2498
 7692SOL     OW26606   1.541  10.516   3.700 -0.3317  0.9898  0.5924
 7692SOL    HW126607   1.635  10.536   3.698  0.1369 -1.0757 -0.6888
 7692SOL    HW226608   1.500  10.590   3.655  1.4172 -0.9486 -4.9414
 7693SOL     OW26609   4.270  10.397   2.151 -0.0283  0.0693  0.8314
 7693SOL    HW126610   4.270  10.303   2.137 -1.4974  0.2063 -0.2609
 7693SOL    HW226611   4.354  10.415   2.194  1.9893 -1.2518 -2.2338
 7694SOL     OW26612   6.104   4.768   4.477  0.8117 -0.3453 -0.1146
 7694SOL    HW126613   6.124   4.861   4.488 -1.0647  0.1008 -0.1673
 7694SOL    HW226614   6.024   4.754   4.528  1.4826 -2.1371  0.5587
 7695SOL     OW26615   9.438   8.769   7.577 -0.0552 -0.0806 -0.1334
 7695SOL    HW126616   9.362   8.815   7.612  0.2551  0.1421  0.2703
 7695SOL    HW226617   9.407   8.725   7.499 -0.6321 -0.1140  0.1136
 7696SOL     OW26618   5.180   7.823   0.407 -0.3368  0.5218 -0.4825
 7696SOL    HW126619   5.144   7.842   0.494  0.5972 -0.2046  0.0816
 7696SOL    HW226620   5.114   7.769   0.365 -0.7501  0.7843 -0.1811
 7697SOL     OW26621   6.572  10.048   3.539 -0.7942 -0.4014  0.4426
 7697SOL    HW126622   6.555  10.140   3.521 -1.8583 -0.3695  1.5015
 7697SOL    HW226623   6.588  10.009   3.453  1.0065  0.9974  0.0836
 7698SOL     OW26624   3.550   9.134   4.331 -0.5668  0.4496 -0.1154
 7698SOL    HW126625   3.609   9.060   4.341 -1.2499 -0.2537 -1.0419
 7698SOL    HW226626   3.592   9.206   4.378 -0.2568 -0.7152  1.4685
 7699SOL     OW26627   0.681  10.747   5.340  0.0851  0.3497 -0.2111
 7699SOL    HW126628   0.750  10.810   5.360 -1.3161  1.8458  0.1404
 7699SOL    HW226629   0.628  10.790   5.273 -0.7389 -0.5787 -0.1770
 7700SOL     OW26630   4.442   9.467   9.188 -0.0472 -0.1779 -0.3407
 7700SOL    HW126631   4.428   9.466   9.282  0.3264 -0.3429 -0.2855
 7700SOL    HW226632   4.530   9.430   9.176  0.3233  0.7805 -0.6790
 7701SOL     OW26633  10.958   3.249  10.253 -0.0863  0.1001 -0.9676
 7701SOL    HW126634  10.872   3.244  10.211  0.3551 -2.1751 -1.7772
 7701SOL    HW226635  11.014   3.291  10.187 -0.1668 -0.2291 -1.2516
 7702SOL     OW26636   2.709   8.428   3.045 -0.3030 -0.2936  0.7426
 7702SOL    HW126637   2.723   8.350   2.992  0.1509 -0.3801  0.9810
 7702SOL    HW226638   2.652   8.399   3.116  0.6750 -0.6679  1.3968
 7703SOL     OW26639   3.136   9.201   8.826  0.4300  0.1710  0.0019
 7703SOL    HW126640   3.183   9.264   8.880  2.1454 -0.0083 -1.2155
 7703SOL    HW226641   3.144   9.118   8.872  0.1194  0.3871  0.4614
 7704SOL     OW26642   4.775   3.091   9.284 -0.4150  0.6544  0.0174
 7704SOL    HW126643   4.837   3.086   9.357 -1.2964 -1.0011  0.7189
 7704SOL    HW226644   4.736   3.003   9.281 -3.4316  1.8718  0.2456
 7705SOL     OW26645   5.277   7.679   4.365  0.0852  0.1495  0.4464
 7705SOL    HW126646   5.213   7.670   4.435 -0.0219  2.3645  0.6879
 7705SOL    HW226647   5.340   7.609   4.381 -0.8029 -0.3753  1.7920
 7706SOL     OW26648   6.397   4.307   7.570 -0.0116 -0.1792  0.2885
 7706SOL    HW126649   6.399   4.374   7.639  2.8097 -0.3179  0.4536
 7706SOL    HW226650   6.405   4.357   7.489  0.0020 -0.1939  0.2807
 7707SOL     OW26651   6.390  10.641   6.362 -0.3920 -0.2768 -0.2834
 7707SOL    HW126652   6.328  10.712   6.347  0.2095  0.3904  0.2927
 7707SOL    HW226653   6.335  10.563   6.375 -1.0886  0.2368 -0.0866
 7708SOL     OW26654   7.598   8.694   3.627  0.3359 -0.0804 -0.1707
 7708SOL    HW126655   7.565   8.779   3.595  0.2069  0.2884  0.9141
 7708SOL    HW226656   7.693   8.704   3.628  0.3815 -0.3238 -1.0368
 7709SOL     OW26657   8.919   0.282   9.790  0.1214 -0.0381 -0.0718
 7709SOL    HW126658   8.982   0.353   9.804  0.4147  0.2837 -2.5196
 7709SOL    HW226659   8.840   0.326   9.760 -1.5602 -0.3988  3.3868
 7710SOL     OW26660   0.928   4.345   4.893  0.1159  0.1055  0.1034
 7710SOL    HW126661   0.933   4.402   4.815 -1.2833  0.1754  0.0434
 7710SOL    HW226662   0.841   4.307   4.889  1.2209 -2.6001 -0.2030
 7711SOL     OW26663   3.530   2.035   0.762 -0.2776 -0.4045  0.9008
 7711SOL    HW126664   3.477   2.087   0.823 -0.7965 -0.6551  0.6688
 7711SOL    HW226665   3.603   2.003   0.816  0.3353  0.9614  0.9267
 7712SOL     OW26666   4.988   9.165   1.722 -0.2367 -0.1850  0.0246
 7712SOL    HW126667   4.922   9.234   1.731 -0.5515 -0.4628 -0.1538
 7712SOL    HW226668   5.025   9.156   1.810 -0.4527 -0.0464  0.1308
 7713SOL     OW26669   5.740   9.302   7.885 -0.3614  0.2090 -0.3465
 7713SOL    HW126670   5.827   9.270   7.907  0.2461  2.0704  0.1040
 7713SOL    HW226671   5.692   9.300   7.968 -0.6111 -0.3561 -0.4985
 7714SOL     OW26672   7.773   5.721   1.626  0.2556  0.4192  0.6643
 7714SOL    HW126673   7.730   5.799   1.590 -0.2600  1.0180  2.4595
 7714SOL    HW226674   7.754   5.652   1.563 -1.4066  1.1922  0.2531
 7715SOL     OW26675   1.524   5.895   7.604  0.3308 -0.1645  0.3505
 7715SOL    HW126676   1.550   5.841   7.529  1.0651  1.0590 -0.3278
 7715SOL    HW226677   1.429   5.884   7.610  0.2060 -0.0176 -1.0157
 7716SOL     OW26678  10.358   6.458   0.563 -0.1834  0.0922 -0.3786
 7716SOL    HW126679  10.413   6.516   0.510  2.6043 -1.8016  0.2222
 7716SOL    HW226680  10.276   6.506   0.574  0.0912  1.7414 -4.0507
 7717SOL     OW26681   6.991   8.412   2.487 -0.2545 -0.0476  0.0546
 7717SOL    HW126682   7.079   8.431   2.521  0.4015 -0.1997 -1.4589
 7717SOL    HW226683   6.939   8.488   2.510  1.1134  1.5379 -1.7307
 7718SOL     OW26684   2.247   2.328   9.601  0.5015 -0.2239 -0.1544
 7718SOL    HW126685   2.263   2.281   9.519  0.9095 -2.0213  0.9025
 7718SOL    HW226686   2.327   2.316   9.652 -0.1852 -0.1542  0.9771
 7719SOL     OW26687   0.103   1.018  10.769  0.1027 -0.1301  0.7923
 7719SOL    HW126688   0.112   1.112  10.757  0.8042 -0.3195 -0.2974
 7719SOL    HW226689   0.016   0.997  10.734  0.8379 -0.1952 -1.1105
 7720SOL     OW26690   5.597   8.946   5.688  0.2778  0.1503  0.4140
 7720SOL    HW126691   5.553   8.918   5.768 -0.3203 -1.5171 -0.4554
 7720SOL    HW226692   5.672   8.887   5.680  2.5955  2.7173  1.6874
 7721SOL     OW26693   8.862   9.042   8.454  0.0594  0.5261 -0.0011
 7721SOL    HW126694   8.928   8.984   8.415 -1.2664 -1.1270  0.0845
 7721SOL    HW226695   8.867   9.123   8.403  2.8110  0.8722  0.6464
 7722SOL     OW26696   8.956   8.775   7.713 -0.0851 -0.3043  0.1673
 7722SOL    HW126697   9.024   8.842   7.718 -0.4371 -0.0176  1.9193
 7722SOL    HW226698   9.003   8.692   7.722  0.1362 -0.1569  0.3764
 7723SOL     OW26699   6.721   0.237   3.497  0.2422 -0.1835  0.5059
 7723SOL    HW126700   6.783   0.306   3.520  0.6027 -0.3338  0.0047
 7723SOL    HW226701   6.758   0.157   3.534  1.1880 -0.5503 -1.1137
 7724SOL     OW26702   9.477   7.534   3.691 -0.2722  0.6677 -0.3087
 7724SOL    HW126703   9.477   7.630   3.688  0.2256  0.6946  0.3357
 7724SOL    HW226704   9.397   7.512   3.739 -0.3381  0.7638 -0.3748
 7725SOL     OW26705   4.922   8.685   0.742  0.6444 -0.1467  0.0778
 7725SOL    HW126706   4.898   8.678   0.834 -0.9239  1.8065 -0.1181
 7725SOL    HW226707   4.991   8.619   0.730 -0.6197 -1.9738  2.0956
 7726SOL     OW26708   9.454   6.541   6.032 -0.5609  0.4219  0.3381
 7726SOL    HW126709   9.368   6.516   5.997 -0.4899 -1.3661  1.2947
 7726SOL    HW226710   9.459   6.635   6.019 -2.2113  0.4064 -0.7274
 7727SOL     OW26711   6.786   5.366  10.014 -0.3141 -0.5763  0.4920
 7727SOL    HW126712   6.756   5.435  10.073  1.5546 -0.2914  1.1728
 7727SOL    HW226713   6.830   5.412   9.943  1.0331 -1.0437  1.0013
 7728SOL     OW26714   4.576  10.070   0.227 -0.3589  0.0871 -0.2607
 7728SOL    HW126715   4.637  10.012   0.272 -0.8751 -0.4815 -0.2901
 7728SOL    HW226716   4.593  10.156   0.265 -0.9771 -0.4226  1.2402
 7729SOL     OW26717  10.448   3.160   0.837  0.7289 -0.7854  0.0793
 7729SOL    HW126718  10.406   3.149   0.752 -0.0729 -1.1774  0.5135
 7729SOL    HW226719  10.375   3.163   0.899  1.2907 -0.1509  0.7159
 7730SOL     OW26720   4.383   5.606   2.826  0.0745  0.5435 -0.4088
 7730SOL    HW126721   4.412   5.603   2.917 -1.4210 -5.9711  0.3487
 7730SOL    HW226722   4.462   5.589   2.775  0.0117 -2.9089  0.4528
 7731SOL     OW26723   6.744   5.624  10.145 -0.4036  0.1947  0.5947
 7731SOL    HW126724   6.741   5.668  10.060  1.3530  0.7318  0.7684
 7731SOL    HW226725   6.665   5.655  10.190 -1.2483  0.0696 -0.7366
 7732SOL     OW26726   6.361   9.697   3.073  0.8739  0.2938 -0.2994
 7732SOL    HW126727   6.293   9.726   3.013  0.4488 -0.2975 -0.1102
 7732SOL    HW226728   6.401   9.622   3.029 -0.2154 -0.8891  0.6493
 7733SOL     OW26729   4.181   3.101  10.399 -0.2801  0.9010 -0.4935
 7733SOL    HW126730   4.139   3.103  10.313  1.3097 -0.9485 -1.3818
 7733SOL    HW226731   4.198   3.193  10.418 -0.1226  1.3353 -2.4523
 7734SOL     OW26732   9.956   0.516   6.570 -1.2048  0.6811  0.0697
 7734SOL    HW126733   9.889   0.546   6.509 -2.2199 -1.4686  0.0328
 7734SOL    HW226734   9.907   0.493   6.649 -0.1477  1.5720  1.0221
 7735SOL     OW26735   1.649   0.083  10.386 -0.0018 -0.5708 -0.2585
 7735SOL    HW126736   1.621   0.046  10.303 -0.8673 -1.3340  0.3464
 7735SOL    HW226737   1.735   0.121  10.368 -0.3275 -0.4081 -1.5711
 7736SOL     OW26738   8.490   5.079   3.998  0.4135  0.0391  0.0748
 7736SOL    HW126739   8.528   5.082   3.910 -0.9243 -1.4785 -0.5915
 7736SOL    HW226740   8.397   5.062   3.984  0.0813  0.3178  1.7709
 7737SOL     OW26741   8.813   9.167   9.005  0.4952 -0.2133 -0.3682
 7737SOL    HW126742   8.850   9.113   8.935  0.1197  0.0271 -0.7537
 7737SOL    HW226743   8.778   9.244   8.960  1.0482  0.3677  0.1743
 7738SOL     OW26744   1.096   2.485   1.925 -0.1380 -0.2410 -0.4293
 7738SOL    HW126745   1.016   2.477   1.978  1.2344 -1.4853  1.5978
 7738SOL    HW226746   1.064   2.509   1.838 -2.5956  0.8318  0.6522
 7739SOL     OW26747   8.588   8.734  10.846  0.1094  0.5420  0.2192
 7739SOL    HW126748   8.601   8.679  10.923  1.7354 -0.7269 -0.8682
 7739SOL    HW226749   8.515   8.693  10.800  0.3788  0.1152  0.1529
 7740SOL     OW26750   4.535   8.765  10.628 -0.5280  0.5962 -0.3795
 7740SOL    HW126751   4.616   8.716  10.615 -0.9766 -0.4632  0.6881
 7740SOL    HW226752   4.551   8.820  10.705 -0.5956  0.8903 -0.5726
 7741SOL     OW26753   4.247  10.340   0.431  0.1073  0.5213 -0.5828
 7741SOL    HW126754   4.207  10.259   0.462  1.9999 -0.2304  0.0216
 7741SOL    HW226755   4.301  10.313   0.356  0.6145  1.2377 -0.4890
 7742SOL     OW26756   1.121   2.189   0.037 -0.0279 -0.2896 -0.4116
 7742SOL    HW126757   1.120   2.252   0.109 -0.7202  0.9662 -1.4699
 7742SOL    HW226758   1.120   2.104   0.081  1.3719  0.3950  1.0671
 7743SOL     OW26759   8.669   0.264   2.751 -0.1564  0.2961  0.0896
 7743SOL    HW126760   8.671   0.192   2.688 -0.9826 -0.2280  0.6472
 7743SOL    HW226761   8.595   0.318   2.723  0.8255  1.2897 -0.6918
 7744SOL     OW26762   7.209   4.796   5.763  0.6922 -0.0716 -0.4046
 7744SOL    HW126763   7.270   4.749   5.820 -1.3383 -0.9900  1.1156
 7744SOL    HW226764   7.123   4.758   5.782 -0.3897  1.1250 -2.5111
 7745SOL     OW26765   4.219   0.492   9.942  0.1698  0.2759  0.0657
 7745SOL    HW126766   4.256   0.536   9.865  2.7843 -1.4419  0.1995
 7745SOL    HW226767   4.188   0.563   9.998 -2.0886  1.5652 -2.6098
 7746SOL     OW26768   2.124   0.267   8.805  0.0624  0.1506  0.4595
 7746SOL    HW126769   2.202   0.285   8.753  0.2009 -2.1992 -0.2239
 7746SOL    HW226770   2.114   0.346   8.859  1.2965  1.6595 -1.3569
 7747SOL     OW26771   7.852   1.879   1.055  0.4143  0.0087 -0.0216
 7747SOL    HW126772   7.760   1.905   1.054  0.2300 -0.5406 -2.1602
 7747SOL    HW226773   7.900   1.960   1.071 -0.4284  0.0719  2.6631
 7748SOL     OW26774   8.141   2.903   3.422  0.5000  0.1683  0.2682
 7748SOL    HW126775   8.054   2.888   3.459 -0.3481  0.2480 -1.5964
 7748SOL    HW226776   8.152   2.998   3.425  0.1497  0.2281 -0.2842
 7749SOL     OW26777  10.182   2.753  11.020  0.3079  0.0518  0.1583
 7749SOL    HW126778  10.268   2.711  11.031  0.3382  0.7337  3.3992
 7749SOL    HW226779  10.122   2.700  11.073 -1.2324 -0.1262 -1.6731
 7750SOL     OW26780   4.776  10.065   6.502 -0.1294 -0.3904  0.2399
 7750SOL    HW126781   4.773  10.044   6.408 -2.2576 -2.7429  0.7217
 7750SOL    HW226782   4.735  10.151   6.509 -3.4740 -1.7221 -0.7796
 7751SOL     OW26783   1.107   9.336   4.008 -0.5917  0.4236  0.2734
 7751SOL    HW126784   1.163   9.323   4.084  0.1776 -0.5558 -0.4539
 7751SOL    HW226785   1.127   9.425   3.978  0.3369  0.1946  0.2099
 7752SOL     OW26786   1.619   8.765   5.232 -0.3801  0.9283 -0.4174
 7752SOL    HW126787   1.712   8.751   5.212 -0.4277  1.7313 -1.2477
 7752SOL    HW226788   1.619   8.841   5.291 -0.5072  0.9734 -0.4750
 7753SOL     OW26789   1.466   2.776   0.067 -0.1143 -0.3346 -0.7409
 7753SOL    HW126790   1.536   2.773   0.132  0.9874 -0.4339 -1.8893
 7753SOL    HW226791   1.450   2.869   0.053 -0.3557 -0.3125 -0.3431
 7754SOL     OW26792   1.455   0.598   9.560  0.0840 -0.0539  0.1217
 7754SOL    HW126793   1.521   0.564   9.499 -1.3370 -0.7507 -1.1064
 7754SOL    HW226794   1.428   0.682   9.521 -0.7443 -0.4429 -0.1743
 7755SOL     OW26795   8.580   7.820   6.294  0.2377 -0.5778  0.4135
 7755SOL    HW126796   8.496   7.847   6.329  0.2695 -0.4972  0.4260
 7755SOL    HW226797   8.631   7.794   6.370  0.1744 -0.7679  0.3937
 7756SOL     OW26798   9.732   9.094   0.654  0.0681 -0.0874  0.0622
 7756SOL    HW126799   9.683   9.140   0.585  1.0494 -0.6383 -1.0392
 7756SOL    HW226800   9.748   9.161   0.720 -0.1487  0.6958 -0.6557
 7757SOL     OW26801   4.209   0.970   5.325  0.2803 -0.0071  0.2316
 7757SOL    HW126802   4.247   1.054   5.300 -0.8863  0.2162 -0.8934
 7757SOL    HW226803   4.259   0.905   5.277  0.2768  0.1562  0.0087
 7758SOL     OW26804   8.597   3.246   6.811  0.0412 -0.0069  0.3459
 7758SOL    HW126805   8.543   3.321   6.838 -0.7115 -0.5149  0.2781
 7758SOL    HW226806   8.663   3.284   6.753 -0.2065  0.6394  0.4783
 7759SOL     OW26807   5.347   8.547   8.061  0.0377 -0.3376 -0.1609
 7759SOL    HW126808   5.442   8.556   8.070  0.0537 -1.4063  1.0256
 7759SOL    HW226809   5.310   8.606   8.126 -0.0868 -0.7298  0.1255
 7760SOL     OW26810   1.322   1.568   0.891 -0.3008  0.4224  0.7325
 7760SOL    HW126811   1.262   1.545   0.962 -0.6526  0.1121  0.3443
 7760SOL    HW226812   1.405   1.588   0.934 -0.3302 -0.3975  1.1863
 7761SOL     OW26813   7.067   9.170   0.754 -0.1929 -0.2519 -0.1041
 7761SOL    HW126814   6.982   9.170   0.799  0.0060 -0.1878  0.2761
 7761SOL    HW226815   7.077   9.259   0.720 -1.0101 -0.6856 -1.5615
 7762SOL     OW26816   8.650   1.494   4.534  0.0049 -0.1596 -0.2576
 7762SOL    HW126817   8.594   1.560   4.577  1.6681  1.9191 -1.0870
 7762SOL    HW226818   8.614   1.488   4.445  0.0837 -0.0678 -0.2960
 7763SOL     OW26819   0.041   7.372   5.432  0.0150 -0.9695  0.1319
 7763SOL    HW126820  -0.035   7.356   5.376 -0.0874 -1.8781  0.5128
 7763SOL    HW226821   0.107   7.309   5.402  0.1390 -1.1140  0.6933
 7764SOL     OW26822   3.222   9.475   6.564  0.4559  0.4642  0.0974
 7764SOL    HW126823   3.238   9.531   6.641  0.7527  1.1747 -0.4710
 7764SOL    HW226824   3.281   9.400   6.578  1.1249  0.9858  0.1670
 7765SOL     OW26825   0.892   4.960   4.138  0.6623 -0.3699 -0.1862
 7765SOL    HW126826   0.927   5.048   4.154  0.2178  0.1717 -1.9736
 7765SOL    HW226827   0.869   4.927   4.225 -2.9835  2.9055  0.3604
 7766SOL     OW26828   9.474   3.810   0.132 -0.3036  0.1185  0.6281
 7766SOL    HW126829   9.477   3.719   0.159  0.2485 -0.2300 -0.5816
 7766SOL    HW226830   9.557   3.847   0.161 -0.2858  0.0983  0.6011
 7767SOL     OW26831   3.174   6.386   4.930 -0.3096 -0.2780  0.4058
 7767SOL    HW126832   3.182   6.436   4.849 -1.0486  0.2956  0.6723
 7767SOL    HW226833   3.245   6.417   4.986  0.0059 -0.4459  0.1021
 7768SOL     OW26834   5.527  10.331   1.061  0.0127  0.3956  0.4897
 7768SOL    HW126835   5.604  10.335   1.005 -0.1193 -0.6746  0.2109
 7768SOL    HW226836   5.498  10.240   1.055 -1.3364  0.8049  0.5057
 7769SOL     OW26837  10.755   0.549   5.055 -0.1099  0.3667 -0.3618
 7769SOL    HW126838  10.823   0.615   5.065  1.6948 -1.4117 -0.3364
 7769SOL    HW226839  10.781   0.479   5.115 -2.0145 -0.3481 -0.3144
 7770SOL     OW26840   7.558   9.766   1.704  0.5231 -0.1455 -0.1665
 7770SOL    HW126841   7.636   9.800   1.748 -0.3831  0.4970  0.9789
 7770SOL    HW226842   7.486   9.787   1.762 -0.6248 -0.0056 -1.5782
 7771SOL     OW26843   3.091   0.202   9.744  0.4350  0.2270  0.1275
 7771SOL    HW126844   3.082   0.231   9.835  0.3309  0.8749 -0.0834
 7771SOL    HW226845   3.122   0.111   9.751  0.2564  0.2093  0.8074
 7772SOL     OW26846   0.468   6.709   8.525  0.0896  0.6326  0.0868
 7772SOL    HW126847   0.454   6.777   8.590 -1.7745 -0.9838  1.5187
 7772SOL    HW226848   0.419   6.738   8.448 -1.5765  0.5187  1.0411
 7773SOL     OW26849   8.755   6.090   6.127 -0.0835 -0.4980  0.1024
 7773SOL    HW126850   8.752   6.175   6.169  1.0377  0.3950 -1.4791
 7773SOL    HW226851   8.782   6.030   6.196 -0.5644  0.4644  1.1680
 7774SOL     OW26852   1.038   6.351   6.360 -0.2772  0.5419  0.4034
 7774SOL    HW126853   1.022   6.264   6.397  0.7402  0.0893 -0.1479
 7774SOL    HW226854   1.132   6.365   6.373 -0.0871  0.8005 -1.0631
 7775SOL     OW26855   2.504   5.528   1.340 -0.1567 -0.0991  0.0193
 7775SOL    HW126856   2.553   5.527   1.258 -0.0753 -1.7816  0.0593
 7775SOL    HW226857   2.461   5.443   1.344 -2.1909  0.8849  0.5459
 7776SOL     OW26858   4.408   9.976   1.263  0.0844  0.1754 -0.1152
 7776SOL    HW126859   4.324   9.970   1.218  0.8950 -0.2063 -1.6259
 7776SOL    HW226860   4.426   9.886   1.291  0.5982  0.0192 -0.9399
 7777SOL     OW26861   5.058   4.554   0.407 -0.0005  0.2509  0.5867
 7777SOL    HW126862   5.012   4.580   0.486 -0.5100  1.7930 -0.1616
 7777SOL    HW226863   5.018   4.607   0.338  1.1578 -0.2517 -0.5161
 7778SOL     OW26864   2.110   8.325   5.985  0.9830 -0.2382 -0.4294
 7778SOL    HW126865   2.041   8.260   5.968  0.5706 -0.4356  1.6867
 7778SOL    HW226866   2.184   8.273   6.016  2.2246 -0.0393 -2.8112
 7779SOL     OW26867   8.364   4.533  10.209 -0.3900  0.4293  0.2389
 7779SOL    HW126868   8.392   4.443  10.193 -0.3071  0.7338 -1.4719
 7779SOL    HW226869   8.276   4.524  10.246 -0.1553 -0.3558  0.6287
 7780SOL     OW26870   5.191   4.757   5.653  0.3946  0.3258 -0.0826
 7780SOL    HW126871   5.247   4.679   5.649 -1.8202 -1.2928 -0.9931
 7780SOL    HW226872   5.251   4.830   5.635  2.4692 -1.1592  0.4353
 7781SOL     OW26873   3.301   0.214   6.635  0.4778 -0.5407 -0.4737
 7781SOL    HW126874   3.367   0.170   6.689  0.9834 -0.5357 -1.0706
 7781SOL    HW226875   3.349   0.284   6.591 -0.1195  0.0072 -0.2585
 7782SOL     OW26876   6.552  10.795   5.233  0.4986  0.3978  0.3960
 7782SOL    HW126877   6.608  10.747   5.294  1.4292 -0.3697 -0.9976
 7782SOL    HW226878   6.604  10.873   5.211 -0.0869  0.9690  1.0264
 7783SOL     OW26879   0.237   0.392  10.970  0.3634  0.3705 -0.1411
 7783SOL    HW126880   0.276   0.333  11.035  2.4351  0.7643 -0.9497
 7783SOL    HW226881   0.309   0.447  10.941 -0.8355  1.1966 -1.7188
 7784SOL     OW26882   1.370  10.660   3.958  0.4855 -0.3801 -0.0922
 7784SOL    HW126883   1.342  10.600   4.027  0.8025  0.3167  0.6635
 7784SOL    HW226884   1.444  10.617   3.916  0.0835 -0.9558 -0.2232
 7785SOL     OW26885   4.864   0.734   4.002  0.3524 -0.4708 -0.1787
 7785SOL    HW126886   4.873   0.739   4.097 -2.3265 -1.8375  0.2468
 7785SOL    HW226887   4.926   0.666   3.976 -0.0614 -1.2706  0.8518
 7786SOL     OW26888   0.669   0.904   7.424  0.1393  0.5546  0.4727
 7786SOL    HW126889   0.750   0.904   7.475  0.0771  0.8591  0.5730
 7786SOL    HW226890   0.691   0.855   7.344 -0.2901 -1.5387  1.5821
 7787SOL     OW26891  10.813   0.087   3.047  0.0812  0.2563  0.2050
 7787SOL    HW126892  10.764   0.154   2.999  0.2513  0.1912 -0.0594
 7787SOL    HW226893  10.788   0.101   3.139 -1.3714 -0.5376 -0.0298
 7788SOL     OW26894   5.996  10.683   9.556  0.0871  0.4120 -0.6263
 7788SOL    HW126895   5.936  10.610   9.543 -3.0730  3.0403 -2.2338
 7788SOL    HW226896   5.978  10.713   9.645  0.2036  0.2091 -0.5350
 7789SOL     OW26897   3.436   9.642   0.006 -0.3057 -0.1894  0.3021
 7789SOL    HW126898   3.483   9.614   0.084 -2.2287 -0.5566  1.3883
 7789SOL    HW226899   3.486   9.717  -0.026  1.0527 -0.6179  1.3046
 7790SOL     OW26900   0.367   5.731   3.715 -1.1941  0.4085 -0.2303
 7790SOL    HW126901   0.430   5.761   3.781  0.3821 -0.6829 -1.1794
 7790SOL    HW226902   0.353   5.807   3.659  1.8592 -0.1366 -1.9282
 7791SOL     OW26903   3.368   1.227   9.456 -0.9133  0.3072 -0.5684
 7791SOL    HW126904   3.419   1.150   9.431 -1.2524  0.6533 -2.5029
 7791SOL    HW226905   3.277   1.201   9.444 -1.1581  0.2400  1.2108
 7792SOL     OW26906   7.617   9.219   3.077  0.8653 -0.7594  0.3410
 7792SOL    HW126907   7.699   9.253   3.040  0.4810  0.2722  0.4019
 7792SOL    HW226908   7.561   9.206   3.001  0.9384 -1.0713  0.3382
 7793SOL     OW26909   6.978   2.753   2.806 -0.2503 -0.4767 -0.0738
 7793SOL    HW126910   7.040   2.817   2.840  0.3142 -0.4426 -1.1481
 7793SOL    HW226911   6.927   2.726   2.883  1.4113 -0.8798  0.9282
 7794SOL     OW26912   9.582   9.439   0.317  0.3844  0.8360 -0.2140
 7794SOL    HW126913   9.628   9.452   0.234 -0.2825  2.2563 -0.3906
 7794SOL    HW226914   9.634   9.487   0.382  1.2624 -0.7996  0.3576
 7795SOL     OW26915   0.109   9.154   6.899  0.6370 -0.5813  0.0333
 7795SOL    HW126916   0.072   9.243   6.905  2.0720  0.0384  0.0281
 7795SOL    HW226917   0.160   9.155   6.818  0.7841 -1.3659  0.1128
 7796SOL     OW26918   2.414   1.601  10.606 -0.6160 -0.3943  0.3524
 7796SOL    HW126919   2.353   1.669  10.635 -0.9734 -0.4491 -0.2529
 7796SOL    HW226920   2.359   1.523  10.593 -0.4531 -0.4001 -0.3584
 7797SOL     OW26921  10.169   2.226   9.652  0.3758 -0.1753  0.4448
 7797SOL    HW126922  10.158   2.155   9.715  1.4003 -0.5245  0.2489
 7797SOL    HW226923  10.141   2.304   9.699 -0.2627 -0.6376  0.8379
 7798SOL     OW26924   0.590   1.407   0.355 -0.1915  0.1128 -0.2727
 7798SOL    HW126925   0.554   1.453   0.431  1.0874  0.8104 -0.0568
 7798SOL    HW226926   0.554   1.454   0.280 -0.4388  0.2437 -0.0735
 7799SOL     OW26927   8.374   8.703   1.031  0.3821 -0.2059  0.4725
 7799SOL    HW126928   8.309   8.773   1.043  0.6189  0.0263  0.3861
 7799SOL    HW226929   8.445   8.744   0.982  0.1639 -0.7206 -0.2771
 7800SOL     OW26930   0.905   1.324   9.838 -0.0494 -0.3017 -0.2949
 7800SOL    HW126931   0.892   1.249   9.897 -0.7120  0.3733  0.4521
 7800SOL    HW226932   0.896   1.401   9.895  0.8431  0.3511 -1.0059
 7801SOL     OW26933  10.617   6.603   4.725  0.2843 -0.3781 -0.5755
 7801SOL    HW126934  10.624   6.566   4.813  0.8146  0.8222 -0.0979
 7801SOL    HW226935  10.708   6.613   4.696  0.1289 -0.0363 -0.9495
 7802SOL     OW26936   1.930   6.161  10.855  0.0348  0.4022  0.4993
 7802SOL    HW126937   1.849   6.133  10.812 -1.8941  3.5644  1.7558
 7802SOL    HW226938   1.993   6.172  10.782 -0.8318 -1.3812 -0.5809
 7803SOL     OW26939   0.291   2.006   2.714  0.0040 -0.0525 -0.2499
 7803SOL    HW126940   0.334   1.970   2.791  0.4230 -0.9164 -0.8688
 7803SOL    HW226941   0.344   1.976   2.640 -0.8786  0.0170 -0.9361
 7804SOL     OW26942   3.265   7.520   0.148 -0.2941 -0.0730 -1.1415
 7804SOL    HW126943   3.302   7.474   0.073 -1.0386 -1.1980 -0.8610
 7804SOL    HW226944   3.173   7.535   0.124 -0.2243  0.6832 -0.9577
 7805SOL     OW26945  10.534   0.075   5.222  0.2107 -0.5835 -0.0305
 7805SOL    HW126946  10.618   0.029   5.218  0.1105 -0.9393  1.5422
 7805SOL    HW226947  10.504   0.077   5.131  1.0628 -2.0544 -0.3724
 7806SOL     OW26948   0.418   6.033   1.269  0.2162  0.0774 -0.7167
 7806SOL    HW126949   0.337   5.983   1.262  0.1639 -0.0087  0.3621
 7806SOL    HW226950   0.488   5.969   1.253  0.0813  0.5295 -3.7063
 7807SOL     OW26951   1.996  10.031   6.246  0.1670 -0.0425 -0.5910
 7807SOL    HW126952   1.917  10.064   6.287 -1.4672 -2.3998 -1.6375
 7807SOL    HW226953   1.969  10.007   6.157  2.1160 -0.7327 -1.0464
 7808SOL     OW26954   6.807  10.524   3.397 -0.7651 -0.1415 -0.2140
 7808SOL    HW126955   6.763  10.572   3.327  1.3678  1.2922 -0.6603
 7808SOL    HW226956   6.878  10.477   3.354 -0.3718 -0.5120  0.7937
 7809SOL     OW26957   9.415  10.516   8.411 -0.2107 -0.3372  0.3958
 7809SOL    HW126958   9.391  10.437   8.459 -0.2067 -2.5584 -2.9758
 7809SOL    HW226959   9.488  10.554   8.461 -0.3569 -2.3150  2.2204
 7810SOL     OW26960   7.171   0.633   6.841  0.4987 -0.0868 -0.8260
 7810SOL    HW126961   7.093   0.653   6.893 -1.6865  2.2026 -4.5396
 7810SOL    HW226962   7.230   0.706   6.860  0.3658 -0.0798 -0.4204
 7811SOL     OW26963   0.113   0.125   0.791 -0.1487  0.3270 -0.4380
 7811SOL    HW126964   0.107   0.218   0.812 -0.4033  0.5061 -1.2551
 7811SOL    HW226965   0.192   0.117   0.739  0.9535 -0.2547  1.2331
 7812SOL     OW26966   9.124   9.040   2.438  0.6514 -0.1203  0.1674
 7812SOL    HW126967   9.084   9.065   2.354 -1.2311  1.5407  1.4686
 7812SOL    HW226968   9.190   9.108   2.454 -0.2626  0.6255  0.8597
 7813SOL     OW26969   7.645   3.902   5.616 -0.2302 -0.5819  0.1460
 7813SOL    HW126970   7.565   3.922   5.665 -0.1266  1.2014 -0.3263
 7813SOL    HW226971   7.625   3.927   5.526  1.4246  1.8598  0.3397
 7814SOL     OW26972   3.620  11.100  10.977  0.0236 -0.0099 -0.1416
 7814SOL    HW126973   3.652  11.159  11.045 -1.2182  1.3231 -0.6693
 7814SOL    HW226974   3.666  11.017  10.994  2.8006  1.3906 -0.1414
 7815SOL     OW26975   0.938   4.526   0.576 -0.6009 -0.1356 -0.0128
 7815SOL    HW126976   0.918   4.435   0.551  0.3345 -0.3511 -0.0284
 7815SOL    HW226977   0.879   4.579   0.523  0.1940 -0.6590 -1.4826
 7816SOL     OW26978   5.658   5.741   4.379 -0.0014  0.0057 -0.3232
 7816SOL    HW126979   5.716   5.676   4.418 -0.4991 -0.2962 -0.0760
 7816SOL    HW226980   5.717   5.811   4.349  0.3418  1.3616  2.9828
 7817SOL     OW26981   7.232   1.705   4.681 -0.3559  0.0187  0.1743
 7817SOL    HW126982   7.284   1.626   4.699  1.8402  0.8224 -2.0459
 7817SOL    HW226983   7.166   1.676   4.618  0.1472 -0.1640 -0.2768
 7818SOL     OW26984   6.116   1.986  10.137 -0.4325  0.0786  0.0879
 7818SOL    HW126985   6.060   1.914  10.109 -0.6765 -0.2285  1.3116
 7818SOL    HW226986   6.056   2.054  10.167 -0.3214  1.7400 -2.9920
 7819SOL     OW26987   4.281   5.305   8.685 -0.0520 -0.4506  1.1659
 7819SOL    HW126988   4.348   5.255   8.732 -0.5106 -0.2932  2.0199
 7819SOL    HW226989   4.239   5.241   8.628  1.6758 -0.2771 -0.3819
 7820SOL     OW26990  10.893   2.015   2.738 -0.0600  0.2016 -0.2659
 7820SOL    HW126991  10.824   2.081   2.724 -0.6730  0.0727  1.7887
 7820SOL    HW226992  10.952   2.055   2.802 -0.0351 -0.9474  0.4535
 7821SOL     OW26993   0.535   2.553  10.805 -0.2994  0.4874 -0.0460
 7821SOL    HW126994   0.583   2.606  10.868  0.4008 -0.3393  0.1375
 7821SOL    HW226995   0.595   2.544  10.731 -0.8696  0.9207 -0.5711
 7822SOL     OW26996   6.109   5.957   3.078  0.3310  0.3241  0.2200
 7822SOL    HW126997   6.095   5.949   3.172 -3.2179  1.1328 -0.0894
 7822SOL    HW226998   6.162   5.881   3.055 -0.4166 -1.0215  2.5999
 7823SOL     OW26999   1.660   0.585   0.706 -0.3292  0.5273 -0.0506
 7823SOL    HW127000   1.583   0.563   0.653  0.3328 -0.9894 -0.4427
 7823SOL    HW227001   1.665   0.516   0.771  0.6991  0.6016 -0.0352
 7824SOL     OW27002   5.261   0.439   6.218 -0.3968 -0.0520  0.3623
 7824SOL    HW127003   5.279   0.439   6.124  1.3594  1.1931  0.6618
 7824SOL    HW227004   5.166   0.449   6.224 -0.7327 -1.7180 -1.2607
 7825SOL     OW27005   2.862   1.782   8.050 -0.1584  0.3474 -0.8294
 7825SOL    HW127006   2.952   1.785   8.020 -0.0612 -1.4615 -0.8540
 7825SOL    HW227007   2.822   1.712   7.999 -2.1319  2.3020 -2.1523
 7826SOL     OW27008  10.746   1.271   4.753  0.5062 -0.7240 -0.6136
 7826SOL    HW127009  10.657   1.298   4.731  0.6562 -2.2106 -3.4901
 7826SOL    HW227010  10.738   1.179   4.779  0.9119 -0.0933  2.1161
 7827SOL     OW27011  10.078   0.650   7.938 -0.0302 -0.1202  0.0029
 7827SOL    HW127012  10.148   0.681   7.880 -0.2294 -1.1412 -0.8078
 7827SOL    HW227013  10.106   0.677   8.026  1.1113 -0.0176 -0.3770
 7828SOL     OW27014   6.083   8.821   4.408  0.1546 -0.0396 -0.0411
 7828SOL    HW127015   6.097   8.811   4.314  0.9060 -0.9383  0.1436
 7828SOL    HW227016   5.989   8.832   4.418  0.1578  1.0428 -0.9644
 7829SOL     OW27017  10.077   2.802   8.772 -0.6638 -0.0280 -0.1913
 7829SOL    HW127018  10.059   2.891   8.800  0.5789  0.0510  0.3956
 7829SOL    HW227019  10.100   2.755   8.853  0.4813 -0.4200 -0.7281
 7830SOL     OW27020   2.456   1.218   3.943  0.6251  0.3422  0.0018
 7830SOL    HW127021   2.478   1.256   3.858  0.9265 -1.1009 -0.5996
 7830SOL    HW227022   2.527   1.157   3.960  0.2764  0.2177  1.0443
 7831SOL     OW27023   2.612   2.934   4.281 -0.0893  0.0352  0.0936
 7831SOL    HW127024   2.605   2.955   4.187  0.6553  0.3755  0.1038
 7831SOL    HW227025   2.595   2.840   4.285  1.0128 -0.2185 -0.5501
 7832SOL     OW27026   9.935   5.227   9.626 -0.8437 -0.0374 -0.2237
 7832SOL    HW127027   9.849   5.219   9.585  0.2770 -1.4874 -2.5402
 7832SOL    HW227028   9.964   5.315   9.605 -1.1941 -0.0279 -0.6939
 7833SOL     OW27029   4.673   0.361   9.830  0.0022 -0.3049 -0.3555
 7833SOL    HW127030   4.668   0.442   9.881  2.4924 -0.7096  0.6487
 7833SOL    HW227031   4.583   0.329   9.829 -1.2686  2.8435 -1.5475
 7834SOL     OW27032   5.483   1.840  10.196 -0.3428 -0.3711  0.0217
 7834SOL    HW127033   5.546   1.895  10.243  0.5831  1.5154 -3.0974
 7834SOL    HW227034   5.516   1.839  10.106 -3.7453 -0.9077 -1.3541
 7835SOL     OW27035   4.256   2.247   8.042  0.3148 -0.0375 -0.1339
 7835SOL    HW127036   4.250   2.231   7.947  1.2492 -1.0496 -0.0514
 7835SOL    HW227037   4.325   2.313   8.050  0.8509 -0.5845 -0.1269
 7836SOL     OW27038   0.094   7.637   8.019 -0.0800  0.1396 -0.3238
 7836SOL    HW127039   0.169   7.577   8.014  0.9980  1.4086  0.1775
 7836SOL    HW227040   0.051   7.614   8.101 -0.3940 -0.7347 -0.7146
 7837SOL     OW27041   4.436   5.883   8.033 -0.3290  0.2218  0.1356
 7837SOL    HW127042   4.399   5.828   7.964 -0.9232  1.8163 -0.8679
 7837SOL    HW227043   4.406   5.843   8.115 -0.7857 -0.8950 -0.5591
 7838SOL     OW27044   4.246   9.647   8.362 -0.2598 -0.0141  0.1809
 7838SOL    HW127045   4.247   9.581   8.431  0.1442 -0.7606 -0.5228
 7838SOL    HW227046   4.282   9.602   8.285 -0.6852  0.8021 -0.5126
 7839SOL     OW27047   5.580   3.777   1.107 -0.4133 -0.8563 -0.0539
 7839SOL    HW127048   5.556   3.752   1.018 -1.8971  0.1352  0.0218
 7839SOL    HW227049   5.560   3.871   1.111  1.0138 -0.5589  0.8977
 7840SOL     OW27050   9.074   7.394   9.627 -0.5752  0.4495  0.3320
 7840SOL    HW127051   9.025   7.444   9.693 -0.2586  1.3331 -0.0799
 7840SOL    HW227052   9.024   7.313   9.617 -0.9870  0.5837  1.1808
 7841SOL     OW27053   6.826   7.961   3.016 -0.3445  0.0141 -0.2363
 7841SOL    HW127054   6.856   7.872   2.999 -0.8727 -0.2101 -0.0315
 7841SOL    HW227055   6.798   7.994   2.930 -0.7862 -0.2618 -0.1983
 7842SOL     OW27056   9.282   1.068  10.548  0.1270 -0.0691  0.5570
 7842SOL    HW127057   9.198   1.067  10.503  0.2315  1.0596  0.3019
 7842SOL    HW227058   9.307   1.161  10.550 -0.2717  0.0883  3.6433
 7843SOL     OW27059   2.429   1.193   2.444  0.1995 -0.6792 -0.0029
 7843SOL    HW127060   2.358   1.255   2.425 -0.9171 -1.9914 -0.2194
 7843SOL    HW227061   2.452   1.209   2.535 -1.4301 -1.2596  0.5279
 7844SOL     OW27062   4.444   7.253   5.624 -0.3099  0.0004 -0.6280
 7844SOL    HW127063   4.473   7.248   5.533 -0.1434 -3.4083 -0.5376
 7844SOL    HW227064   4.524   7.262   5.675  0.0102 -1.8389 -0.7284
 7845SOL     OW27065   7.200   4.666   7.062 -0.1228 -0.0337 -0.1991
 7845SOL    HW127066   7.145   4.718   7.121 -0.6555 -0.8217  0.0147
 7845SOL    HW227067   7.284   4.711   7.062 -1.3269  2.4955 -2.2492
 7846SOL     OW27068   2.874   0.139   4.320 -0.3313  0.1009 -0.2140
 7846SOL    HW127069   2.941   0.100   4.376  0.1172  0.4506 -0.4952
 7846SOL    HW227070   2.809   0.174   4.381 -1.1673 -1.7641  0.0397
 7847SOL     OW27071   5.029   6.585   6.571 -0.3765  0.4527 -0.1808
 7847SOL    HW127072   4.971   6.641   6.519 -0.9919 -1.2166 -1.3827
 7847SOL    HW227073   5.099   6.560   6.511 -1.6006 -2.2706 -0.6188
 7848SOL     OW27074   7.697   2.469   6.214  0.5855  0.4596  0.1652
 7848SOL    HW127075   7.621   2.516   6.181  0.6296  0.0889 -0.4883
 7848SOL    HW227076   7.732   2.424   6.137  2.2765  1.7274  0.1300
 7849SOL     OW27077   7.267   6.286   7.109 -0.1399  0.0495  0.5331
 7849SOL    HW127078   7.235   6.370   7.144 -0.3007  0.8911 -1.4752
 7849SOL    HW227079   7.360   6.300   7.095 -0.0402 -0.3375  0.8008
 7850SOL     OW27080   0.761   6.930   6.119 -0.4617 -0.0183 -0.0603
 7850SOL    HW127081   0.735   6.926   6.027 -1.2604  1.1303  0.1067
 7850SOL    HW227082   0.812   7.010   6.127  0.0190 -0.3585  0.4111
 7851SOL     OW27083   3.254  10.885   5.645  0.3272  0.2442  0.7756
 7851SOL    HW127084   3.255  10.975   5.613 -0.7654 -0.1914 -0.5933
 7851SOL    HW227085   3.191  10.840   5.588 -1.2546 -0.7606  3.1629
 7852SOL     OW27086  10.426   0.751   3.475 -0.5638 -0.2412  0.1556
 7852SOL    HW127087  10.501   0.791   3.519 -1.8133  1.2984  0.9884
 7852SOL    HW227088  10.398   0.681   3.534 -0.0109 -0.5991  0.0037
 7853SOL     OW27089   9.438   6.010   2.239  0.3968  0.7309  0.0936
 7853SOL    HW127090   9.368   5.957   2.201  1.0974 -0.1455  0.0124
 7853SOL    HW227091   9.444   6.086   2.181 -0.3197  0.7013 -0.0328
 7854SOL     OW27092   6.411   3.722   5.033  0.0736  0.4780  0.8548
 7854SOL    HW127093   6.477   3.655   5.050 -2.1379 -2.0771 -0.0109
 7854SOL    HW227094   6.442   3.766   4.954  0.9914 -0.3154  0.7448
 7855SOL     OW27095   1.538   0.157   4.743 -0.1564 -0.3684 -0.2239
 7855SOL    HW127096   1.494   0.225   4.793  1.7027 -0.1703  1.2637
 7855SOL    HW227097   1.531   0.186   4.652 -0.2512  1.3114  0.2788
 7856SOL     OW27098   2.185   0.442   6.690 -0.3751  0.0966 -0.4249
 7856SOL    HW127099   2.104   0.434   6.739  0.5440  0.5849  1.2419
 7856SOL    HW227100   2.206   0.353   6.663 -0.0110 -0.4939  1.6317
 7857SOL     OW27101   0.078   8.769   7.483 -0.6311  0.2264  0.5543
 7857SOL    HW127102   0.025   8.693   7.460 -2.3718  1.4815  0.2775
 7857SOL    HW227103   0.118   8.746   7.567 -1.2475 -0.9322  0.5468
 7858SOL     OW27104   5.812  10.066   4.096 -0.5813 -0.2300 -0.0936
 7858SOL    HW127105   5.746  10.134   4.105  1.1212  1.3046  1.7024
 7858SOL    HW227106   5.770   9.987   4.130 -1.9548  0.3286 -0.4182
 7859SOL     OW27107   2.942   6.608   4.441  0.2794  0.1068 -0.4458
 7859SOL    HW127108   2.885   6.555   4.496  2.1601  0.0490  1.5827
 7859SOL    HW227109   2.887   6.681   4.413 -1.3456 -1.0352 -0.3547
 7860SOL     OW27110   8.705   9.239   0.865 -0.2090  0.0280  0.1385
 7860SOL    HW127111   8.791   9.280   0.856 -0.3691  0.5501  0.8477
 7860SOL    HW227112   8.709   9.160   0.811  0.7275  0.0358  0.1888
 7861SOL     OW27113   1.621   7.457   2.110  0.0656 -0.0882  0.3931
 7861SOL    HW127114   1.577   7.453   2.195  2.6876  0.0038  1.8326
 7861SOL    HW227115   1.555   7.496   2.051 -1.6278  0.3780  2.4735
 7862SOL     OW27116   8.487   0.817   8.919 -0.8210  0.2759  0.2836
 7862SOL    HW127117   8.402   0.779   8.940 -0.5020 -0.3676  0.4212
 7862SOL    HW227118   8.539   0.805   8.998 -0.1810 -0.5303 -0.2548
 7863SOL     OW27119   4.248   5.430   8.333 -0.1492 -0.4733  0.3699
 7863SOL    HW127120   4.287   5.466   8.254  1.9699  2.4230  2.5227
 7863SOL    HW227121   4.284   5.341   8.339  2.0216  0.3020 -0.4240
 7864SOL     OW27122  11.056   5.671   3.373  0.3771  0.2239  0.2998
 7864SOL    HW127123  11.050   5.646   3.280 -0.0924  0.4165  0.2745
 7864SOL    HW227124  11.132   5.624   3.406 -1.4880 -2.7575  0.7171
 7865SOL     OW27125   9.747   3.737   6.916  0.6585 -0.3015  0.3264
 7865SOL    HW127126   9.697   3.682   6.976  0.0621 -0.1323  0.0014
 7865SOL    HW227127   9.702   3.821   6.917 -1.9223 -1.3856 -3.3431
 7866SOL     OW27128   7.957   9.142   4.019  0.1573  0.4252  0.5441
 7866SOL    HW127129   8.043   9.183   4.021 -0.2219  1.2616  0.2939
 7866SOL    HW227130   7.957   9.082   4.094  1.2533 -0.2388  0.0380
 7867SOL     OW27131   9.617   0.091   3.930 -0.1394  0.1242 -0.4424
 7867SOL    HW127132   9.531   0.089   3.973 -0.3312  0.9066 -0.7743
 7867SOL    HW227133   9.675   0.045   3.991 -0.9238 -1.0371 -0.5287
 7868SOL     OW27134   4.555   7.462   2.509  0.2581  0.7872  0.2706
 7868SOL    HW127135   4.590   7.416   2.433 -0.6928  1.3067 -0.5000
 7868SOL    HW227136   4.530   7.393   2.570 -0.2812  0.3071 -0.4819
 7869SOL     OW27137  10.668   9.340   5.496  0.6031 -0.2794 -0.0095
 7869SOL    HW127138  10.635   9.403   5.559  1.9853  0.6416 -0.1856
 7869SOL    HW227139  10.694   9.264   5.549 -0.1066 -0.3127  0.3015
 7870SOL     OW27140   4.212   4.736   2.379 -0.0820  0.4409  0.5009
 7870SOL    HW127141   4.277   4.805   2.396  0.3574  0.8003 -2.2275
 7870SOL    HW227142   4.254   4.680   2.313 -0.5783 -2.2963  2.3545
 7871SOL     OW27143  10.509   5.674   0.358 -0.5213  0.4206 -0.0315
 7871SOL    HW127144  10.436   5.736   0.355 -1.2161 -0.4109 -1.0177
 7871SOL    HW227145  10.498   5.627   0.440 -1.6818 -0.3766 -0.6277
 7872SOL     OW27146   3.822   5.709   2.970 -0.3527  0.1294 -0.0209
 7872SOL    HW127147   3.770   5.703   3.050  0.3825 -2.8175  0.3332
 7872SOL    HW227148   3.899   5.759   2.995 -1.4051  1.6868  0.3015
 7873SOL     OW27149   8.428   9.411   7.593 -0.6230 -0.4205 -0.0051
 7873SOL    HW127150   8.406   9.323   7.562  0.0487 -0.6306  0.1080
 7873SOL    HW227151   8.360   9.431   7.658 -0.6218 -0.9646  0.1698
 7874SOL     OW27152   5.263   2.478  10.005  0.1897  0.3014  0.1592
 7874SOL    HW127153   5.259   2.383  10.014  1.0758  0.1296 -1.0538
 7874SOL    HW227154   5.224   2.511  10.086 -0.6446 -1.0846  0.3609
 7875SOL     OW27155  10.281   1.220   2.593 -0.1579  0.2394  0.7226
 7875SOL    HW127156  10.370   1.210   2.559 -0.7594  1.0111 -1.1838
 7875SOL    HW227157  10.290   1.204   2.687  1.9325 -0.0233  0.5284
 7876SOL     OW27158   0.912   2.771   1.697 -0.5232  0.1455 -0.4145
 7876SOL    HW127159   0.908   2.787   1.603 -0.1387  2.2218 -0.1342
 7876SOL    HW227160   0.827   2.801   1.730 -0.2357  0.4953  0.0194
 7877SOL     OW27161   3.419   3.489   8.513 -0.0517  0.1628 -0.4276
 7877SOL    HW127162   3.341   3.437   8.495 -0.4827  0.6558 -0.0244
 7877SOL    HW227163   3.472   3.481   8.433 -0.6358  0.0322 -0.8087
 7878SOL     OW27164   6.776   8.191  10.466  0.4961  0.7251 -0.0280
 7878SOL    HW127165   6.827   8.144  10.400 -2.3120  0.0187 -1.8243
 7878SOL    HW227166   6.744   8.269  10.420 -1.2988  0.3623  0.5619
 7879SOL     OW27167   7.885  10.892   3.615  0.6583  0.1714  0.4195
 7879SOL    HW127168   7.943  10.951   3.566  0.1431 -0.3443 -0.8595
 7879SOL    HW227169   7.807  10.884   3.560  1.1828 -2.6201 -0.1084
 7880SOL     OW27170   0.388   3.749   2.484 -0.1943  0.3145  0.4679
 7880SOL    HW127171   0.333   3.824   2.505 -2.3691 -1.0268 -0.1145
 7880SOL    HW227172   0.393   3.749   2.388  0.9687  0.4833  0.5128
 7881SOL     OW27173   2.747   8.699   6.306  0.0637  0.2746 -0.1189
 7881SOL    HW127174   2.775   8.637   6.373 -0.3431  2.5335  2.3171
 7881SOL    HW227175   2.801   8.777   6.321 -1.7719  1.7591 -0.7304
 7882SOL     OW27176  10.358  11.111   9.630 -1.2317 -0.4345 -0.3406
 7882SOL    HW127177  10.361  11.185   9.569 -0.1514 -1.5176 -1.6773
 7882SOL    HW227178  10.431  11.127   9.691 -2.3652  0.6937  0.7763
 7883SOL     OW27179   4.073   9.219   8.443  0.1918 -0.6456 -0.0457
 7883SOL    HW127180   4.054   9.126   8.431  0.4632 -0.7840  0.5352
 7883SOL    HW227181   3.988   9.261   8.447  0.0316 -1.0250  0.7993
 7884SOL     OW27182   7.410   5.354   5.912  0.0848  0.2697  0.4617
 7884SOL    HW127183   7.353   5.302   5.855 -0.5285  0.3525  0.9975
 7884SOL    HW227184   7.498   5.340   5.876 -0.1415 -0.6654  0.2413
 7885SOL     OW27185   3.367   8.356   2.334  0.3691 -0.0981  0.0506
 7885SOL    HW127186   3.301   8.361   2.265 -0.6845 -0.7240  0.9869
 7885SOL    HW227187   3.389   8.447   2.352 -0.0290  0.1085 -0.4697
 7886SOL     OW27188   5.679   4.564   6.604  0.5292 -0.1373  0.0139
 7886SOL    HW127189   5.622   4.489   6.617 -1.4693  1.1077 -1.0680
 7886SOL    HW227190   5.759   4.527   6.565 -0.7158 -1.6370 -1.2501
 7887SOL     OW27191   5.122   8.454   0.439  0.0666  0.1533 -0.0240
 7887SOL    HW127192   5.211   8.426   0.420 -0.7077 -0.4017 -3.4047
 7887SOL    HW227193   5.095   8.504   0.362 -2.6200  0.1640  0.8107
 7888SOL     OW27194  10.304   2.229   2.941 -0.5545 -0.7889  0.1300
 7888SOL    HW127195  10.304   2.255   2.849 -1.0137  1.6434  0.7409
 7888SOL    HW227196  10.393   2.197   2.957  0.2167  0.8841 -0.6348
 7889SOL     OW27197   2.478   8.999   9.144  0.1866 -0.7471 -0.5100
 7889SOL    HW127198   2.526   8.921   9.171 -0.5230 -0.7590  0.8163
 7889SOL    HW227199   2.387   8.980   9.167  0.0398  0.5617  0.1021
 7890SOL     OW27200   3.095   2.448   8.169  0.1730  0.5338 -0.4636
 7890SOL    HW127201   3.087   2.525   8.113  1.2486  0.3524 -0.8861
 7890SOL    HW227202   3.176   2.405   8.140  0.0350 -0.2944  0.3290
 7891SOL     OW27203   7.601   3.747   6.831 -0.4003 -0.8525  0.6214
 7891SOL    HW127204   7.678   3.803   6.836  0.0295 -1.3718  0.0265
 7891SOL    HW227205   7.544   3.777   6.901 -0.8860  1.3654 -0.6437
 7892SOL     OW27206   2.053   0.713   9.878 -0.2014 -0.3917  0.0995
 7892SOL    HW127207   2.145   0.686   9.874 -0.4418 -1.1571 -0.5949
 7892SOL    HW227208   2.035   0.748   9.790 -0.2914  0.7263  0.5533
 7893SOL     OW27209   4.812   1.135   5.560  0.1147  0.0231  0.3421
 7893SOL    HW127210   4.833   1.227   5.576 -0.8434  0.8048 -2.2689
 7893SOL    HW227211   4.734   1.119   5.613 -0.3749  1.0807 -0.0256
 7894SOL     OW27212   0.817   0.854   8.406 -0.3681  0.2053  0.3524
 7894SOL    HW127213   0.892   0.833   8.461 -1.0072  0.8308  1.5021
 7894SOL    HW227214   0.768   0.920   8.456 -0.4696  1.5181 -1.3815
 7895SOL     OW27215   4.375   3.322   3.000  0.2687  0.7662 -1.0500
 7895SOL    HW127216   4.461   3.331   2.959  0.2868 -2.0455 -1.8614
 7895SOL    HW227217   4.381   3.240   3.050 -2.0642  0.2106 -1.5601
 7896SOL     OW27218   5.107  10.582   2.732 -0.1359  0.6168 -0.4266
 7896SOL    HW127219   5.047  10.545   2.796  1.5780 -0.2043  0.7739
 7896SOL    HW227220   5.121  10.672   2.762 -0.0513  0.5271 -0.1990
 7897SOL     OW27221   0.951   7.108   7.819  0.2598  0.0093  0.3319
 7897SOL    HW127222   0.958   7.050   7.894  0.9879 -0.1094  0.1841
 7897SOL    HW227223   0.864   7.147   7.826 -0.4719 -1.5145  0.1359
 7898SOL     OW27224   3.794   0.248  10.232 -0.1777 -0.4748  0.4860
 7898SOL    HW127225   3.848   0.250  10.153 -0.2305 -0.1323  0.4555
 7898SOL    HW227226   3.706   0.268  10.200 -0.0068  0.8852  0.7749
 7899SOL     OW27227   6.865   8.381   5.209  0.1433 -0.5697  0.2462
 7899SOL    HW127228   6.840   8.447   5.144  1.5367  0.3947  0.6246
 7899SOL    HW227229   6.914   8.316   5.159  0.5706 -0.2105  0.1812
 7900SOL     OW27230  10.649   8.180   5.532 -0.3024  0.1408 -0.1254
 7900SOL    HW127231  10.707   8.104   5.528 -0.3447  0.1244 -0.4835
 7900SOL    HW227232  10.707   8.255   5.519 -0.5832  0.0329 -2.3704
 7901SOL     OW27233   8.909   2.653   5.707 -0.2522 -0.1801 -0.1831
 7901SOL    HW127234   8.843   2.641   5.638 -1.1805  1.8183  0.2643
 7901SOL    HW227235   8.992   2.661   5.660 -1.0248  2.5744 -1.3351
 7902SOL     OW27236   7.353   7.258  10.854 -0.2748  0.2145 -0.1073
 7902SOL    HW127237   7.300   7.192  10.898  1.1223 -1.3667 -0.6872
 7902SOL    HW227238   7.387   7.213  10.776 -1.4883  2.4496 -2.0426
 7903SOL     OW27239  10.788   9.835   3.651  0.1036  0.9021 -0.3052
 7903SOL    HW127240  10.830   9.836   3.565  0.5266  0.7794 -0.0973
 7903SOL    HW227241  10.751   9.923   3.661  1.1447  1.3208 -0.0711
 7904SOL     OW27242   2.465   9.864   6.758 -0.5988 -0.3050 -0.5473
 7904SOL    HW127243   2.530   9.934   6.762  1.8721 -2.4151 -1.0085
 7904SOL    HW227244   2.441   9.848   6.849 -1.4725  1.3056 -0.4549
 7905SOL     OW27245   5.829   5.668   6.856 -0.2883 -0.1800 -0.0085
 7905SOL    HW127246   5.800   5.620   6.933  0.5343  0.3153  0.6312
 7905SOL    HW227247   5.801   5.758   6.873 -1.2606 -0.2892 -0.9062
 7906SOL     OW27248   9.215   8.335  10.416  0.2753  0.3135 -0.0367
 7906SOL    HW127249   9.275   8.395  10.373 -0.2719  0.9845  0.1205
 7906SOL    HW227250   9.228   8.252  10.371  0.8928  0.5935 -0.3941
 7907SOL     OW27251   2.813   5.947   7.606 -0.1647 -0.5010 -0.5695
 7907SOL    HW127252   2.759   5.935   7.527  0.1388 -0.2659 -0.8137
 7907SOL    HW227253   2.755   5.922   7.678 -1.7449  2.8686 -0.5140
 7908SOL     OW27254   8.282   1.500   2.248 -0.3186 -0.1011 -0.2832
 7908SOL    HW127255   8.200   1.494   2.200 -0.9108 -2.9514  0.8629
 7908SOL    HW227256   8.350   1.493   2.180 -1.0187  0.5985 -1.0750
 7909SOL     OW27257   7.174   2.208   2.834 -0.6835 -0.7901  0.7458
 7909SOL    HW127258   7.194   2.301   2.822 -0.3745 -0.9804 -0.2589
 7909SOL    HW227259   7.257   2.169   2.860 -1.5125 -0.2131  4.9859
 7910SOL     OW27260   8.715   3.894  10.552 -0.0364 -0.4673 -0.2965
 7910SOL    HW127261   8.691   3.804  10.572 -1.7468  0.1803  0.8772
 7910SOL    HW227262   8.767   3.922  10.628 -1.2413  0.1152  0.3432
 7911SOL     OW27263   0.801   1.296   6.936 -0.1541 -0.0760  0.3910
 7911SOL    HW127264   0.737   1.225   6.926 -0.4181  0.4316 -2.2117
 7911SOL    HW227265   0.831   1.288   7.026 -0.9661 -2.8368  0.5304
 7912SOL     OW27266   7.161   9.768   8.052  0.3301 -0.1288 -0.3202
 7912SOL    HW127267   7.204   9.846   8.086  0.7455 -0.3850 -0.2481
 7912SOL    HW227268   7.233   9.711   8.024  0.0222 -0.3442 -0.6839
 7913SOL     OW27269   6.991   6.975  10.800  0.1996 -0.0430 -0.2473
 7913SOL    HW127270   6.978   6.968  10.895  1.1014  1.6349  0.0445
 7913SOL    HW227271   6.930   7.043  10.773  0.7674  0.3177 -0.6496
 7914SOL     OW27272   8.431   4.596   3.280 -0.0911 -0.1585 -0.1833
 7914SOL    HW127273   8.501   4.531   3.290  0.6932  0.5195 -1.0121
 7914SOL    HW227274   8.432   4.617   3.186 -1.7529 -0.4960 -0.3098
 7915SOL     OW27275   3.931  10.328   0.315  0.0537 -0.2791  0.1596
 7915SOL    HW127276   3.847  10.363   0.285  0.6115  0.9234 -0.1033
 7915SOL    HW227277   3.923  10.233   0.308 -1.7712 -0.2758  1.4838
 7916SOL     OW27278   7.547   4.999  10.333  0.0063  0.0434  0.6698
 7916SOL    HW127279   7.466   5.040  10.365  0.7304  1.5750  0.6450
 7916SOL    HW227280   7.587   5.066  10.277  2.7491  0.5602  3.0090
 7917SOL     OW27281   8.956   1.678   2.664  0.3778  0.0424 -0.1795
 7917SOL    HW127282   9.007   1.716   2.592  0.6721  0.7925  0.4084
 7917SOL    HW227283   8.874   1.651   2.624  1.6257 -2.2102 -1.3882
 7918SOL     OW27284  11.104   4.617   9.037 -0.1912  0.6202 -0.0546
 7918SOL    HW127285  11.168   4.546   9.039  0.5344  1.2728  1.1808
 7918SOL    HW227286  11.156   4.696   9.023 -0.7828  1.1105  0.4783
 7919SOL     OW27287   3.570   3.494   0.831  0.0209  0.3643 -0.0693
 7919SOL    HW127288   3.503   3.536   0.776 -0.6658 -1.0426 -0.3614
 7919SOL    HW227289   3.642   3.556   0.833 -0.3836  0.9308 -1.6607
 7920SOL     OW27290   1.865   6.897   0.337 -0.4723 -0.8403 -0.4392
 7920SOL    HW127291   1.956   6.915   0.312 -1.0636  1.5217 -1.0893
 7920SOL    HW227292   1.873   6.830   0.405  1.8490  0.2272  0.4666
 7921SOL     OW27293  10.740   4.207   2.931 -0.3394 -0.1225  0.6751
 7921SOL    HW127294  10.708   4.295   2.914 -0.5459  0.3122  2.9948
 7921SOL    HW227295  10.833   4.218   2.950 -0.1298 -0.5624 -0.0499
 7922SOL     OW27296  11.054   7.948   5.706 -0.1366 -0.3938  0.2239
 7922SOL    HW127297  10.975   7.932   5.653 -0.5095  1.2592  0.1955
 7922SOL    HW227298  11.030   7.918   5.794 -1.7981  2.2545  0.8149
 7923SOL     OW27299  10.633  10.045   5.558  0.1789 -0.0510 -0.0339
 7923SOL    HW127300  10.636  10.058   5.463 -1.5451 -1.1653 -0.2855
 7923SOL    HW227301  10.678   9.962   5.572 -0.3045 -0.2990  0.0357
 7924SOL     OW27302   7.177   2.780   6.825 -0.1356 -0.1257 -0.2400
 7924SOL    HW127303   7.273   2.786   6.824 -0.0621 -1.1812 -0.0461
 7924SOL    HW227304   7.152   2.813   6.910  0.1351 -0.7919  0.1068
 7925SOL     OW27305   6.269   5.651   7.383  0.0521  0.7182 -0.1079
 7925SOL    HW127306   6.314   5.714   7.438  2.3922 -0.0018 -1.0895
 7925SOL    HW227307   6.325   5.642   7.305  0.6419 -3.5800  0.5805
 7926SOL     OW27308  10.020   8.639   0.417  0.0910  0.2585  0.4259
 7926SOL    HW127309  10.052   8.690   0.491 -1.8923  0.0767  1.4972
 7926SOL    HW227310  10.098   8.619   0.365  1.4375  1.0382  2.0610
 7927SOL     OW27311   8.822   3.391   6.186 -0.4582 -0.2266 -0.0297
 7927SOL    HW127312   8.851   3.482   6.197  2.1892 -0.7533 -1.6708
 7927SOL    HW227313   8.745   3.397   6.130 -0.4297  1.0217  0.0373
 7928SOL     OW27314   5.473   1.765   6.008 -0.2498 -0.3745 -0.4342
 7928SOL    HW127315   5.506   1.698   5.948  0.1328 -0.1916 -0.4359
 7928SOL    HW227316   5.499   1.848   5.967 -2.0636 -0.1626 -1.2117
 7929SOL     OW27317   5.225   8.255   2.371 -0.2323  0.0425  0.3108
 7929SOL    HW127318   5.217   8.344   2.406  0.6355  0.1899  0.1694
 7929SOL    HW227319   5.303   8.220   2.414 -1.0634 -0.9922  1.0537
 7930SOL     OW27320   1.492   5.108   9.190 -0.5830  0.7883  0.1332
 7930SOL    HW127321   1.410   5.071   9.156  0.5788 -1.4473 -0.4095
 7930SOL    HW227322   1.535   5.144   9.112 -0.7312  1.3363  0.3030
 7931SOL     OW27323   4.635   0.864  10.765  0.4164 -0.1375 -0.4842
 7931SOL    HW127324   4.561   0.827  10.717  0.4637 -0.6435 -0.1676
 7931SOL    HW227325   4.695   0.791  10.776 -0.1564 -0.3713  1.4938
 7932SOL     OW27326  10.199   1.983   9.849 -0.7303  0.0871  0.5460
 7932SOL    HW127327  10.252   1.912   9.813  0.3919  0.7269  0.8820
 7932SOL    HW227328  10.110   1.964   9.820 -0.1775 -0.5191 -0.8215
 7933SOL     OW27329   1.864  10.811   7.050 -0.7109 -0.4995  0.1877
 7933SOL    HW127330   1.920  10.889   7.046 -0.5534 -0.6522 -0.8014
 7933SOL    HW227331   1.873  10.780   7.140 -0.8087  0.6498  0.6055
 7934SOL     OW27332   4.531   2.939   5.167  0.3757 -0.2002 -0.5674
 7934SOL    HW127333   4.517   2.845   5.177  4.0505 -0.7066  1.8070
 7934SOL    HW227334   4.488   2.962   5.085 -0.8036 -3.8869 -1.1339
 7935SOL     OW27335   7.879   0.458   6.766 -0.4916 -0.2345  0.0195
 7935SOL    HW127336   7.946   0.391   6.762 -0.0040  0.1395  1.2917
 7935SOL    HW227337   7.910   0.519   6.833 -0.6385  1.5825 -1.4945
 7936SOL     OW27338   5.949   4.466   1.932  0.0513 -0.4830 -0.2602
 7936SOL    HW127339   5.922   4.456   2.023  0.6240 -0.6618 -0.1068
 7936SOL    HW227340   5.974   4.558   1.924  1.2295 -0.7445  0.1171
 7937SOL     OW27341   3.374   2.235   4.883 -0.2679  0.0801 -0.0994
 7937SOL    HW127342   3.365   2.221   4.977  1.9585 -2.0332 -0.0898
 7937SOL    HW227343   3.467   2.257   4.871 -0.6409  0.9238 -1.7438
 7938SOL     OW27344   3.915  10.891   7.771 -0.5217 -0.0801  0.2965
 7938SOL    HW127345   3.984  10.929   7.717 -1.0492  0.7583  0.1919
 7938SOL    HW227346   3.834  10.913   7.725 -0.8675 -1.1230  0.3715
 7939SOL     OW27347   5.863   6.141   3.084 -0.0040 -0.0833  0.1747
 7939SOL    HW127348   5.822   6.120   3.001  0.1290 -0.4645  0.2034
 7939SOL    HW227349   5.929   6.072   3.097 -1.5765 -1.4067  1.7120
 7940SOL     OW27350   9.009   9.214   8.094 -0.0043  0.9606  0.3279
 7940SOL    HW127351   8.928   9.165   8.109  0.5844 -0.1439  0.0685
 7940SOL    HW227352   9.061   9.156   8.038  0.4097  2.2505 -0.6519
 7941SOL     OW27353   9.197   8.864   1.050 -0.5276 -0.0689 -0.2692
 7941SOL    HW127354   9.198   8.960   1.048 -0.1798 -0.0450  0.5823
 7941SOL    HW227355   9.227   8.838   0.963  2.8314  0.6291  0.5444
 7942SOL     OW27356   8.213   5.479   3.550 -0.0047 -0.2272 -0.2613
 7942SOL    HW127357   8.152   5.466   3.623  0.2320 -1.1603 -0.2116
 7942SOL    HW227358   8.287   5.525   3.589 -0.9149  1.4866 -0.4571
 7943SOL     OW27359   9.098   8.485   7.494  0.3211  0.3735  0.0136
 7943SOL    HW127360   9.128   8.562   7.445  1.6086 -0.2709 -0.2558
 7943SOL    HW227361   9.031   8.519   7.553  0.7187  1.6683 -0.2379
 7944SOL     OW27362   9.970   9.215   9.669  0.2248 -0.2026 -0.2126
 7944SOL    HW127363   9.925   9.287   9.714  0.7736  0.3977 -0.6147
 7944SOL    HW227364   9.926   9.208   9.585 -0.6919 -1.2168  0.3200
 7945SOL     OW27365   8.302  11.040   0.579  0.2310 -0.1080 -0.1312
 7945SOL    HW127366   8.343  10.957   0.558 -0.8390 -1.0226  1.2118
 7945SOL    HW227367   8.325  11.098   0.506  0.3836 -1.7832 -1.4548
 7946SOL     OW27368   9.913   1.313   6.173 -0.2399  0.8160 -0.0172
 7946SOL    HW127369   9.921   1.392   6.227  0.1770 -0.2093  1.4856
 7946SOL    HW227370   9.827   1.277   6.194  0.4656 -0.3276  1.0686
 7947SOL     OW27371   9.693   8.170   0.448 -0.6469  0.3039 -0.5376
 7947SOL    HW127372   9.747   8.188   0.525 -0.4108 -0.2836 -0.5645
 7947SOL    HW227373   9.671   8.077   0.454 -0.6614  0.2583 -1.1510
 7948SOL     OW27374   5.723   0.672   5.284 -0.2250 -0.5776 -0.2226
 7948SOL    HW127375   5.628   0.665   5.287 -0.3694  0.0514 -2.0668
 7948SOL    HW227376   5.741   0.737   5.215  1.5156  0.1573  0.8415
 7949SOL     OW27377   6.683   1.212   7.564 -0.1318 -0.2901 -0.2150
 7949SOL    HW127378   6.727   1.130   7.542  0.1764 -0.1593 -0.1066
 7949SOL    HW227379   6.702   1.224   7.657 -0.3221 -0.1831 -0.1897
 7950SOL     OW27380   2.839  10.956   4.183  0.1915 -0.1699  0.2489
 7950SOL    HW127381   2.890  10.918   4.253 -0.6712 -0.7601  0.5705
 7950SOL    HW227382   2.828  11.048   4.208  3.3393  0.7162 -1.1393
 7951SOL     OW27383   8.956   8.545   8.367 -0.2298  0.0939  0.0290
 7951SOL    HW127384   9.049   8.560   8.387 -0.2235 -1.2311  1.0564
 7951SOL    HW227385   8.926   8.484   8.434 -2.0476  1.0436  0.1425
 7952SOL     OW27386   2.008  11.045   0.466  0.1979 -0.5030 -0.4636
 7952SOL    HW127387   2.072  11.076   0.531 -0.1358 -0.9814  0.1063
 7952SOL    HW227388   2.059  10.988   0.408  0.0057 -2.3276  1.0242
 7953SOL     OW27389   9.341   7.840   6.719 -0.2195 -0.0327  0.1810
 7953SOL    HW127390   9.369   7.910   6.659  0.3262  1.1904  1.7923
 7953SOL    HW227391   9.413   7.777   6.717  0.7472  0.9880  1.0156
 7954SOL     OW27392  10.063   7.423   7.543  0.5720  0.1491  0.3276
 7954SOL    HW127393  10.127   7.353   7.530 -0.9218 -1.0089 -1.0879
 7954SOL    HW227394  10.115   7.503   7.536  1.7206 -0.7216 -1.9183
 7955SOL     OW27395   9.495   8.643   2.983  0.0026 -0.0779 -0.1402
 7955SOL    HW127396   9.524   8.586   2.912 -0.3054  0.8436 -1.0166
 7955SOL    HW227397   9.571   8.696   3.005 -0.0586  0.0091 -0.1379
 7956SOL     OW27398   6.145   9.934   5.950  0.5616 -0.3418  0.2863
 7956SOL    HW127399   6.226   9.929   5.898 -0.4340  1.0107 -1.5292
 7956SOL    HW227400   6.162  10.003   6.014  1.0170 -0.3862  0.2164
 7957SOL     OW27401  10.488  10.136   8.267 -0.3035 -0.5591  0.7158
 7957SOL    HW127402  10.515  10.045   8.253  0.3281 -0.4461  1.1512
 7957SOL    HW227403  10.443  10.135   8.351  1.7290 -0.0910  1.8793
 7958SOL     OW27404   0.032   4.720   9.830 -0.1271 -0.8951  0.4151
 7958SOL    HW127405  -0.025   4.646   9.851 -0.3809 -0.7382  0.2738
 7958SOL    HW227406   0.083   4.734   9.910 -0.4269 -0.9056  0.6097
 7959SOL     OW27407   1.165   7.027   6.654 -0.1223  0.1210 -0.1225
 7959SOL    HW127408   1.191   6.964   6.722 -1.3095 -1.0957 -0.7477
 7959SOL    HW227409   1.080   7.059   6.683  0.8761  2.2484  0.6866
 7960SOL     OW27410   9.329   7.586   9.859  0.7903  0.0750  0.0517
 7960SOL    HW127411   9.250   7.539   9.886  1.0143 -0.2456  0.1647
 7960SOL    HW227412   9.338   7.658   9.921  0.6405  0.0545  0.0965
 7961SOL     OW27413   8.608   3.548   9.766 -0.3914 -0.3081 -0.8524
 7961SOL    HW127414   8.640   3.459   9.755 -0.5273 -0.3140 -1.2335
 7961SOL    HW227415   8.684   3.604   9.747 -0.3533 -0.3413 -0.7960
 7962SOL     OW27416   1.885   5.908   6.221 -0.4286 -0.1178 -0.6365
 7962SOL    HW127417   1.932   5.832   6.256 -0.4968  0.2533  0.2930
 7962SOL    HW227418   1.954   5.971   6.200 -0.4704  0.6014  1.1417
 7963SOL     OW27419  10.476   1.637   2.539 -0.1135  0.3767 -0.2213
 7963SOL    HW127420  10.413   1.652   2.609  1.7126  1.5622  1.2849
 7963SOL    HW227421  10.544   1.583   2.579  0.1663 -0.3372 -1.6040
 7964SOL     OW27422  10.696   2.868   9.795  0.1724 -0.2633 -0.0725
 7964SOL    HW127423  10.687   2.839   9.704  0.3819  2.4592 -1.0554
 7964SOL    HW227424  10.787   2.898   9.802 -0.0578  0.2870  0.7754
 7965SOL     OW27425   5.969   3.042   8.746 -0.0739  0.2088 -0.0059
 7965SOL    HW127426   5.912   3.011   8.675  0.1413  1.6467 -0.8281
 7965SOL    HW227427   5.939   2.993   8.823 -0.7512 -0.8912 -0.9323
 7966SOL     OW27428   2.079   8.646   8.625  0.3414  0.1644 -0.0858
 7966SOL    HW127429   2.105   8.565   8.581  0.3877  0.0669  0.1200
 7966SOL    HW227430   1.988   8.632   8.649  0.5405 -0.0902  0.5418
 7967SOL     OW27431  10.582   7.537   4.006  0.3078  0.0730  0.3884
 7967SOL    HW127432  10.587   7.573   4.094 -0.2272  0.5965  0.2123
 7967SOL    HW227433  10.511   7.473   4.011 -1.1508  1.5657 -0.1371
 7968SOL     OW27434   7.155   0.186   4.764 -0.3492 -0.1928  0.2490
 7968SOL    HW127435   7.085   0.171   4.700  0.0394 -1.2326  0.0559
 7968SOL    HW227436   7.205   0.259   4.727 -0.7883 -0.0426 -0.0660
 7969SOL     OW27437   4.067   4.389   6.685 -0.1589  0.1521 -0.2317
 7969SOL    HW127438   4.153   4.429   6.669 -0.1093 -0.3274 -1.2372
 7969SOL    HW227439   4.010   4.428   6.619 -0.0506 -1.5697 -1.4150
 7970SOL     OW27440   4.830   4.212   9.583  0.1303 -0.1710 -0.1618
 7970SOL    HW127441   4.789   4.181   9.502  1.0880  1.8554 -1.5029
 7970SOL    HW227442   4.920   4.232   9.559 -0.1160  2.5271  0.7886
 7971SOL     OW27443  10.594   6.929   9.090 -0.5669 -0.4166  0.2495
 7971SOL    HW127444  10.519   6.961   9.040 -0.4627 -2.3111 -1.2639
 7971SOL    HW227445  10.557   6.867   9.152 -0.3977 -0.2260  0.5421
 7972SOL     OW27446   6.846   3.059   7.847 -0.3629  0.2625  0.0406
 7972SOL    HW127447   6.776   3.002   7.815 -1.3086  1.0568  0.6093
 7972SOL    HW227448   6.806   3.107   7.919 -0.7459  4.0246 -2.3981
 7973SOL     OW27449   9.618   6.579   2.790 -0.3575  0.0763  0.2921
 7973SOL    HW127450   9.655   6.661   2.757 -1.0751  0.7086  0.9952
 7973SOL    HW227451   9.524   6.599   2.801 -0.4463 -0.6780  0.9634
 7974SOL     OW27452   2.639   7.090   5.589 -0.1671 -0.0010 -0.2532
 7974SOL    HW127453   2.690   7.107   5.668  1.8567 -2.0458 -1.0045
 7974SOL    HW227454   2.695   7.119   5.517  0.6088 -3.3518 -1.1733
 7975SOL     OW27455   5.463   4.267   3.459 -0.5301 -0.2185 -0.3310
 7975SOL    HW127456   5.438   4.332   3.524 -2.6332 -3.0124  1.9673
 7975SOL    HW227457   5.405   4.283   3.385 -0.4947  0.9426 -0.1151
 7976SOL     OW27458   3.778   8.147   0.701  0.0849  0.1278 -0.0743
 7976SOL    HW127459   3.775   8.098   0.619 -0.5479  1.0402 -0.6234
 7976SOL    HW227460   3.724   8.097   0.761  4.1499 -3.1107  1.3536
 7977SOL     OW27461   7.883   1.256   7.471  0.7486 -0.3242  0.5565
 7977SOL    HW127462   7.958   1.313   7.486  0.4104 -0.1435  1.6734
 7977SOL    HW227463   7.822   1.309   7.421  0.6820  0.0998  1.0764
 7978SOL     OW27464   4.054   9.469   1.700  0.1011  0.2554  0.1715
 7978SOL    HW127465   4.035   9.539   1.761 -0.6104 -0.5696  0.9150
 7978SOL    HW227466   3.970   9.424   1.687  0.6469 -0.7912  0.1402
 7979SOL     OW27467   6.519   3.226   2.610  0.4048  0.5811  0.1911
 7979SOL    HW127468   6.502   3.290   2.679  1.3527  1.7665 -0.6339
 7979SOL    HW227469   6.604   3.251   2.574 -0.4975  0.6112 -2.0843
 7980SOL     OW27470   6.399   4.530   6.399  0.4958 -0.2923 -0.2008
 7980SOL    HW127471   6.455   4.594   6.355  1.9801 -2.5023 -1.7204
 7980SOL    HW227472   6.399   4.558   6.491 -1.6152  3.7054 -1.1744
 7981SOL     OW27473   2.200   6.306   8.465  0.8429  0.9201  0.0581
 7981SOL    HW127474   2.252   6.236   8.426 -0.6351 -0.7090  0.8386
 7981SOL    HW227475   2.202   6.287   8.559  0.2401  1.8112  0.2595
 7982SOL     OW27476   7.278   1.911   4.372  0.3298  0.4461  0.4138
 7982SOL    HW127477   7.368   1.943   4.380  0.6344 -0.2530 -0.1368
 7982SOL    HW227478   7.268   1.889   4.279 -0.3809  0.4424  0.4867
 7983SOL     OW27479   7.650   8.650   9.475  0.0358 -0.1093 -0.3105
 7983SOL    HW127480   7.614   8.738   9.485  0.8489  0.1222  0.8045
 7983SOL    HW227481   7.744   8.664   9.464  0.1420 -0.8293 -0.3444
 7984SOL     OW27482   0.530   0.616   8.581  0.3712  0.9447 -0.8407
 7984SOL    HW127483   0.437   0.613   8.559 -0.2358 -4.2218  1.0768
 7984SOL    HW227484   0.574   0.589   8.500 -0.1382  0.2295 -0.8882
 7985SOL     OW27485   1.977   3.700   6.287 -0.4452 -0.1597 -0.1638
 7985SOL    HW127486   1.916   3.658   6.227 -1.1593  0.7281 -0.0827
 7985SOL    HW227487   1.982   3.640   6.362  1.0653 -1.6710 -1.3913
 7986SOL     OW27488   5.694   7.158   7.505 -0.1781  0.2087  0.2388
 7986SOL    HW127489   5.772   7.182   7.555 -0.1326 -0.3168  0.4272
 7986SOL    HW227490   5.643   7.239   7.499  0.2329  0.4808  0.3793
 7987SOL     OW27491   3.546   4.182   0.622 -0.3585  0.4772  0.4718
 7987SOL    HW127492   3.459   4.216   0.600  0.0984  1.0630 -0.4818
 7987SOL    HW227493   3.531   4.130   0.701 -1.4452  1.2014  0.7805
 7988SOL     OW27494   7.212  10.500   2.059  0.2901  0.0617  0.0012
 7988SOL    HW127495   7.281  10.433   2.062  0.5423  0.3211  0.0134
 7988SOL    HW227496   7.179  10.495   1.969  0.0981 -0.2880  0.0882
 7989SOL     OW27497   9.837   8.381   3.282 -0.2832 -0.3276  0.6922
 7989SOL    HW127498   9.887   8.306   3.312 -0.0057 -0.0311  0.9777
 7989SOL    HW227499   9.892   8.420   3.213 -1.8629 -2.2457 -1.7965
 7990SOL     OW27500   4.801   9.331   8.882 -0.1501  0.8713  0.5090
 7990SOL    HW127501   4.834   9.344   8.793  0.3411  1.1989  0.7356
 7990SOL    HW227502   4.737   9.260   8.873  0.7309  0.0921  0.0882
 7991SOL     OW27503   8.303   6.844   9.613 -0.3378 -0.4228  0.0527
 7991SOL    HW127504   8.215   6.820   9.582 -0.4666  1.1968 -0.9542
 7991SOL    HW227505   8.359   6.773   9.582 -1.1389 -1.0026 -0.1158
 7992SOL     OW27506  10.635  10.582   2.071  0.2332  0.1956 -0.1503
 7992SOL    HW127507  10.636  10.659   2.014 -1.6570 -0.0374 -0.5458
 7992SOL    HW227508  10.719  10.539   2.053  0.2740  0.8526 -1.7461
 7993SOL     OW27509   1.498  10.334   9.130 -0.0212  0.0698  0.1165
 7993SOL    HW127510   1.477  10.241   9.118 -1.4584  0.4770 -0.8188
 7993SOL    HW227511   1.511  10.343   9.225  1.7184 -1.3619  0.0636
 7994SOL     OW27512  10.579  10.539  10.177  0.7888  0.1203  0.2221
 7994SOL    HW127513  10.670  10.510  10.187  0.6003 -0.5935 -0.0627
 7994SOL    HW227514  10.528  10.459  10.179  0.0481  0.5922  1.4540
 7995SOL     OW27515   8.686   9.400   2.681  0.2680 -0.4994  0.4618
 7995SOL    HW127516   8.607   9.417   2.630  0.5939  1.4310  0.5529
 7995SOL    HW227517   8.741   9.347   2.623 -0.1013  0.1604 -0.5157
 7996SOL     OW27518   6.710   2.676   5.418 -0.6836 -0.0548  0.3470
 7996SOL    HW127519   6.674   2.636   5.498 -0.5929  0.0032  0.4175
 7996SOL    HW227520   6.804   2.659   5.423 -0.3964  1.5358  1.1824
 7997SOL     OW27521   2.325   6.058   4.938  0.1759 -0.5703  0.0130
 7997SOL    HW127522   2.319   6.025   4.849 -0.2255 -2.1005  0.5792
 7997SOL    HW227523   2.253   6.015   4.985 -0.0980  0.7896  0.9093
 7998SOL     OW27524  10.469   6.438   7.347  0.3160 -0.1595 -0.0371
 7998SOL    HW127525  10.426   6.515   7.309  3.5256  2.2433  0.7111
 7998SOL    HW227526  10.452   6.368   7.285 -1.9330  1.3515 -1.2925
 7999SOL     OW27527   6.745  10.512   0.894 -0.1926  0.0649  0.6621
 7999SOL    HW127528   6.668  10.565   0.915 -0.8334 -1.2925  1.9053
 7999SOL    HW227529   6.741  10.500   0.799  0.5218  2.9871  0.1547
 8000SOL     OW27530   5.487   9.104   4.845  0.2877 -0.0526 -0.3679
 8000SOL    HW127531   5.516   9.075   4.758  2.9075 -0.9950  0.7146
 8000SOL    HW227532   5.478   9.199   4.837  1.0028 -0.0589 -1.5430
 8001SOL     OW27533   2.967   5.285   1.877  0.0087  0.1505 -0.0391
 8001SOL    HW127534   2.881   5.328   1.874  0.4425  1.1329  0.8278
 8001SOL    HW227535   2.954   5.210   1.934  0.2443  1.6598  2.1271
 8002SOL     OW27536   1.609   2.116   4.070  0.0750  0.9125  0.4010
 8002SOL    HW127537   1.605   2.084   3.980 -1.6104  2.4144 -0.0977
 8002SOL    HW227538   1.599   2.037   4.123 -0.4306  0.1715 -0.7462
 8003SOL     OW27539   8.978   6.452   3.712 -0.3162  0.4200 -0.0170
 8003SOL    HW127540   9.019   6.379   3.758 -0.0136  0.8503  0.4126
 8003SOL    HW227541   8.917   6.412   3.651 -0.4517 -0.1737  0.5065
 8004SOL     OW27542   8.827   7.465   2.571 -0.2930  0.2467 -0.1014
 8004SOL    HW127543   8.901   7.505   2.526 -0.3791 -0.1640 -0.6179
 8004SOL    HW227544   8.864   7.388   2.615 -0.1669  0.7655  0.7278
 8005SOL     OW27545  10.233   5.968   6.601 -0.3395 -0.9538 -0.1557
 8005SOL    HW127546  10.211   6.061   6.592  1.2452 -0.6020 -0.6353
 8005SOL    HW227547  10.296   5.951   6.531  0.9334 -1.8922  1.1647
 8006SOL     OW27548   1.072   6.676   2.877 -0.4117 -0.2144  0.4195
 8006SOL    HW127549   1.040   6.766   2.889 -0.3436 -0.2237  0.6735
 8006SOL    HW227550   1.165   6.687   2.856 -0.4085 -0.2257  0.4284
 8007SOL     OW27551   6.319   9.181   0.118 -0.2249 -0.0479 -0.0157
 8007SOL    HW127552   6.275   9.255   0.160 -1.0064 -0.9627  0.8314
 8007SOL    HW227553   6.376   9.145   0.186  1.3392  0.6858 -0.8852
 8008SOL     OW27554   0.422  10.946   9.922 -0.0508  0.4814  0.2255
 8008SOL    HW127555   0.493  10.893   9.887 -0.4996 -1.2873  1.8390
 8008SOL    HW227556   0.399  10.904  10.006 -3.0769  0.8706 -0.2821
 8009SOL     OW27557   1.121   5.355   4.708  0.0336 -0.0862  0.5153
 8009SOL    HW127558   1.073   5.381   4.630  1.3283  1.0996  0.0792
 8009SOL    HW227559   1.054   5.353   4.777 -0.7988  0.6579 -0.2401
 8010SOL     OW27560   4.266   1.177  10.994  0.4748  0.1216  0.1678
 8010SOL    HW127561   4.345   1.135  11.027  0.3159  0.7094  1.3617
 8010SOL    HW227562   4.258   1.257  11.047 -1.1087 -0.1243  0.3412
 8011SOL     OW27563   4.883   4.972   1.442 -0.1674  0.2749  0.1619
 8011SOL    HW127564   4.852   4.972   1.532 -1.0553  1.4827 -0.1181
 8011SOL    HW227565   4.820   4.919   1.393 -0.4042  0.6778  0.0279
 8012SOL     OW27566  10.357   6.500   6.192  0.5257  0.1658  0.4765
 8012SOL    HW127567  10.442   6.510   6.234  1.8872  1.8042 -2.3533
 8012SOL    HW227568  10.313   6.584   6.207  0.2336  0.0565  0.2463
 8013SOL     OW27569   7.683   5.765   0.550  0.1963 -0.1433  0.4248
 8013SOL    HW127570   7.776   5.785   0.540  0.5767 -1.4702  1.1446
 8013SOL    HW227571   7.640   5.850   0.542  1.2621  0.2711 -1.9161
 8014SOL     OW27572  10.587   4.861   5.211  0.4066 -0.5873  0.3746
 8014SOL    HW127573  10.599   4.766   5.200 -0.0369 -0.5314 -0.7645
 8014SOL    HW227574  10.499   4.870   5.247  1.3875 -0.7025  3.0488
 8015SOL     OW27575   4.162   3.057   4.711 -0.7596  0.4499 -0.7132
 8015SOL    HW127576   4.118   3.141   4.694 -0.8553  0.4652 -0.3936
 8015SOL    HW227577   4.116   2.994   4.655 -1.0169  0.5171 -0.5783
 8016SOL     OW27578   1.117   0.348   7.996 -0.0975  0.7158 -0.0692
 8016SOL    HW127579   1.116   0.254   8.015 -0.3303  0.8241  0.4870
 8016SOL    HW227580   1.193   0.360   7.940 -1.1883 -0.0954 -1.7918
 8017SOL     OW27581  10.125   2.976   9.768  0.5825 -0.8184  0.0964
 8017SOL    HW127582  10.157   3.016   9.687 -1.2577  3.8676  1.3393
 8017SOL    HW227583  10.038   2.942   9.746 -0.1239  0.8966  0.1162
 8018SOL     OW27584   7.751   8.021   4.638  0.5804 -0.0047  0.4149
 8018SOL    HW127585   7.702   8.098   4.608 -0.3927 -1.0900 -0.8348
 8018SOL    HW227586   7.736   8.020   4.733 -1.5489 -0.0815  0.1306
 8019SOL     OW27587   8.056   3.799   0.967 -0.0645  0.0915  0.8619
 8019SOL    HW127588   8.118   3.860   0.927 -0.7811 -0.1311 -0.6278
 8019SOL    HW227589   8.096   3.713   0.956 -0.8288 -0.1101 -0.5589
 8020SOL     OW27590   3.357   5.814   0.693 -0.1821  0.7673 -0.3845
 8020SOL    HW127591   3.278   5.834   0.743 -1.3068 -0.3262 -1.6700
 8020SOL    HW227592   3.372   5.892   0.640 -1.9905  0.0270 -2.1069
 8021SOL     OW27593   3.312   6.709   8.245  0.2275  0.1333 -0.2523
 8021SOL    HW127594   3.315   6.767   8.321  0.6163 -0.2859  0.0574
 8021SOL    HW227595   3.277   6.763   8.175 -0.5886  0.3957  0.3422
 8022SOL     OW27596   0.855  10.278   2.637 -0.5805 -0.1184  0.3244
 8022SOL    HW127597   0.890  10.299   2.550  0.6437 -1.2179  0.5123
 8022SOL    HW227598   0.808  10.195   2.624 -1.2366  0.2235  0.5139
 8023SOL     OW27599   4.765   0.646   8.933 -0.3756  0.4400 -0.8344
 8023SOL    HW127600   4.722   0.634   8.849 -0.1660 -1.7551 -0.6975
 8023SOL    HW227601   4.720   0.584   8.992  0.9698  0.2704  0.0596
 8024SOL     OW27602   2.657   5.811   9.136 -0.0455 -0.0254 -0.0634
 8024SOL    HW127603   2.696   5.898   9.142 -0.0707 -0.0632  0.6700
 8024SOL    HW227604   2.601   5.804   9.213 -0.4248 -0.5072 -0.3731
 8025SOL     OW27605   3.758   4.334   4.198  0.0299  0.2023 -0.5056
 8025SOL    HW127606   3.747   4.246   4.234  0.1671 -0.2661 -1.5734
 8025SOL    HW227607   3.679   4.380   4.226 -0.0229 -0.2420  0.1092
 8026SOL     OW27608   2.416   2.433   7.234  0.7697 -0.0570 -0.3100
 8026SOL    HW127609   2.431   2.463   7.144  0.2119  0.1231 -0.3491
 8026SOL    HW227610   2.491   2.465   7.283  0.1358  1.5548 -0.3234
 8027SOL     OW27611   7.320   8.790  10.846 -0.5439 -0.2892 -0.6348
 8027SOL    HW127612   7.358   8.875  10.825 -0.7611 -0.2863 -1.0242
 8027SOL    HW227613   7.308   8.792  10.941 -1.3951  0.4685 -0.7499
 8028SOL     OW27614   1.610   6.186   9.579  0.3780  0.3502 -0.1727
 8028SOL    HW127615   1.590   6.241   9.655  1.6282 -0.0789  0.4877
 8028SOL    HW227616   1.557   6.224   9.508 -2.4622 -0.4829  1.3143
 8029SOL     OW27617   5.219   1.161   7.839  0.3473  0.6630 -0.6481
 8029SOL    HW127618   5.261   1.075   7.839  1.4943  1.1942 -1.3110
 8029SOL    HW227619   5.257   1.206   7.764  0.5992  2.1251  0.3143
 8030SOL     OW27620   5.504   4.850   3.080  0.3278  0.6115  0.5586
 8030SOL    HW127621   5.591   4.847   3.040 -0.1123 -1.1294 -0.3799
 8030SOL    HW227622   5.478   4.758   3.087 -0.8881  1.0263  2.0842
 8031SOL     OW27623   9.580   0.374   1.341  0.2377 -0.3678 -0.1412
 8031SOL    HW127624   9.644   0.444   1.332 -0.1063 -0.2203 -1.7168
 8031SOL    HW227625   9.632   0.294   1.342  0.6840 -0.1237  2.3114
 8032SOL     OW27626   6.370   5.373   6.601  0.3253 -0.2126  0.1238
 8032SOL    HW127627   6.439   5.339   6.544  0.5387  0.1962  0.1384
 8032SOL    HW227628   6.388   5.466   6.608  0.9559 -0.4239  1.7426
 8033SOL     OW27629   6.353   1.132   0.520 -0.2668  0.1727  0.2742
 8033SOL    HW127630   6.423   1.132   0.585  0.2111 -0.0336 -0.2395
 8033SOL    HW227631   6.374   1.206   0.463 -0.4398  0.0842  0.0953
 8034SOL     OW27632   6.523   7.299   3.947  0.3327 -0.2861 -0.2417
 8034SOL    HW127633   6.486   7.231   3.889  0.2165  0.7508 -1.4177
 8034SOL    HW227634   6.452   7.318   4.008 -0.1065 -0.3033 -0.7303
 8035SOL     OW27635   8.889   1.367   4.879 -0.3669 -0.4143 -0.3463
 8035SOL    HW127636   8.983   1.359   4.891 -0.3035  0.6069 -0.0247
 8035SOL    HW227637   8.865   1.446   4.928 -1.3981 -0.7037 -0.3562
 8036SOL     OW27638   4.774   6.658   1.956  0.1467  0.0922 -0.5317
 8036SOL    HW127639   4.863   6.668   1.923  1.2904  0.6764  2.4175
 8036SOL    HW227640   4.770   6.716   2.032 -2.9495  0.4461 -0.8235
 8037SOL     OW27641   1.518   9.934   7.314 -0.3348  0.0440 -0.5777
 8037SOL    HW127642   1.497   9.995   7.385  1.7505 -2.1692  2.1327
 8037SOL    HW227643   1.603   9.964   7.281 -0.4140 -0.0253 -0.8438
 8038SOL     OW27644   0.944  10.937   5.184 -0.3510  0.7039  0.4401
 8038SOL    HW127645   1.014  10.872   5.196 -1.3011 -0.4272  0.0143
 8038SOL    HW227646   0.977  10.994   5.114  0.2324  0.3177  0.3910
 8039SOL     OW27647   0.393   3.599   3.950 -0.0275 -0.1870 -0.0094
 8039SOL    HW127648   0.385   3.519   4.002  3.0340 -0.2375  0.5845
 8039SOL    HW227649   0.463   3.581   3.888  1.5900  2.3169  0.9068
 8040SOL     OW27650   0.894   9.965   3.977  0.5859 -0.2066  0.0602
 8040SOL    HW127651   0.865   9.876   3.997  0.4106 -0.2496 -0.3685
 8040SOL    HW227652   0.826  10.022   4.013 -0.1556 -0.3137 -1.1148
 8041SOL     OW27653   2.679   2.728   2.396 -0.0699  0.0300 -0.0047
 8041SOL    HW127654   2.739   2.784   2.347  0.3755 -0.9144 -0.5542
 8041SOL    HW227655   2.625   2.790   2.446 -2.4435  1.2782 -3.6871
 8042SOL     OW27656   5.433   8.742   7.758  0.1329 -0.7586  0.3528
 8042SOL    HW127657   5.453   8.833   7.739 -0.8168 -0.8972 -1.6103
 8042SOL    HW227658   5.376   8.745   7.835 -0.6582  0.4011 -0.2504
 8043SOL     OW27659   4.891   7.204   4.047 -0.4697  1.0061 -0.3904
 8043SOL    HW127660   4.952   7.229   4.117 -0.6940 -0.9717  0.6031
 8043SOL    HW227661   4.914   7.260   3.973  1.8118  1.0900  0.3154
 8044SOL     OW27662   4.238   2.963   3.228 -0.6225 -0.0126  0.3549
 8044SOL    HW127663   4.321   3.001   3.200 -1.1357 -0.1295 -1.4718
 8044SOL    HW227664   4.232   2.983   3.321  1.2358  0.3791  0.4273
 8045SOL     OW27665   5.192   9.122   0.186  0.0451  0.4294 -0.8682
 8045SOL    HW127666   5.263   9.133   0.122  1.4429 -1.2774  0.2967
 8045SOL    HW227667   5.219   9.176   0.260  1.7320 -2.4063  0.7533
 8046SOL     OW27668   5.015   0.556   6.432  0.6392  0.4974  0.0120
 8046SOL    HW127669   5.101   0.556   6.472  1.1106 -1.8643 -0.8482
 8046SOL    HW227670   4.983   0.646   6.443  3.2226  1.4604  0.2486
 8047SOL     OW27671   2.305   3.021   3.271  0.3017  0.3815 -0.0649
 8047SOL    HW127672   2.292   2.955   3.338  0.8875  0.3012 -0.0315
 8047SOL    HW227673   2.394   3.054   3.286  0.6113  0.0369 -1.0829
 8048SOL     OW27674   5.543   5.319   1.650 -0.2855  0.2201 -0.6867
 8048SOL    HW127675   5.472   5.381   1.667 -0.9477 -0.4893 -0.8029
 8048SOL    HW227676   5.621   5.363   1.683 -0.7515  1.0832 -0.7007
 8049SOL     OW27677   3.333   8.405   8.646  0.0232 -0.1571 -0.0349
 8049SOL    HW127678   3.417   8.433   8.610 -0.3320  0.8130 -0.1182
 8049SOL    HW227679   3.294   8.351   8.577  0.1616  0.1675 -0.3654
 8050SOL     OW27680   1.699   5.395   7.392  0.3638 -0.2905 -0.2828
 8050SOL    HW127681   1.671   5.305   7.374  0.5531 -0.7823  1.7003
 8050SOL    HW227682   1.751   5.389   7.472 -0.3122  1.7009  0.3687
 8051SOL     OW27683  10.146   0.095   1.867 -0.5199  0.1334 -0.4605
 8051SOL    HW127684  10.225   0.130   1.909 -1.0033  0.6896  0.0073
 8051SOL    HW227685  10.179   0.039   1.797  0.2901  0.4535 -0.3477
 8052SOL     OW27686   5.886   4.255  11.061 -0.1198  0.5289 -0.1696
 8052SOL    HW127687   5.810   4.209  11.025 -0.5112 -0.3174  1.6312
 8052SOL    HW227688   5.930   4.189  11.116  0.7481  1.6049  0.4674
 8053SOL     OW27689   1.959   7.222   9.232  0.4626  0.2537 -0.3114
 8053SOL    HW127690   1.987   7.279   9.161 -1.3738  0.7453 -0.6903
 8053SOL    HW227691   1.916   7.281   9.295  0.9372 -0.3511  0.6135
 8054SOL     OW27692   2.962   4.158   7.526 -0.0607  0.6404  0.0753
 8054SOL    HW127693   2.934   4.086   7.583  1.7550 -0.7273 -0.6852
 8054SOL    HW227694   2.880   4.197   7.495 -1.0955 -0.9072  0.7288
 8055SOL     OW27695   6.947  11.096   4.003  0.2297 -0.0177  0.1012
 8055SOL    HW127696   6.899  11.163   4.051 -1.5879 -1.7976  0.8983
 8055SOL    HW227697   7.002  11.053   4.069 -0.9495 -1.3122  0.2789
 8056SOL     OW27698  10.081   1.338   6.694 -0.3733  0.0887  0.4609
 8056SOL    HW127699  10.068   1.386   6.776 -0.7168 -1.2047  1.1890
 8056SOL    HW227700  10.008   1.277   6.690  0.2420 -0.6254 -0.2445
 8057SOL     OW27701   4.394   0.466   4.823  0.1813 -0.5280 -0.2586
 8057SOL    HW127702   4.418   0.434   4.736 -2.0414  1.4300 -1.7428
 8057SOL    HW227703   4.334   0.399   4.857  1.1937 -1.3875 -0.1186
 8058SOL     OW27704   2.286   7.419   9.224 -0.6955  0.7580 -0.0218
 8058SOL    HW127705   2.249   7.396   9.139  0.6516 -1.2682 -0.1239
 8058SOL    HW227706   2.312   7.511   9.215 -0.8816  0.6812 -1.6701
 8059SOL     OW27707  10.265   5.447   5.482 -0.1425 -0.1874 -0.1079
 8059SOL    HW127708  10.343   5.444   5.537  0.9050 -1.2181 -1.5710
 8059SOL    HW227709  10.249   5.540   5.469 -0.6537  0.1039  2.1949
 8060SOL     OW27710   9.641   4.495   0.344  0.5776 -0.1511  0.6523
 8060SOL    HW127711   9.664   4.416   0.393 -0.1090 -1.2562 -0.7288
 8060SOL    HW227712   9.546   4.500   0.349  0.7258  2.0199  2.7877
 8061SOL     OW27713   0.432   1.984   1.130 -0.1472  0.3656 -0.1924
 8061SOL    HW127714   0.524   2.012   1.130 -0.4986  1.7974 -2.6319
 8061SOL    HW227715   0.383   2.062   1.156 -0.6979 -0.4204  1.2046
 8062SOL     OW27716   1.828   0.649   1.811  0.4110 -0.2345 -0.0411
 8062SOL    HW127717   1.737   0.631   1.836  0.8561 -0.5964  1.3878
 8062SOL    HW227718   1.821   0.720   1.746 -1.0552 -2.1883 -2.1865
 8063SOL     OW27719   4.205   0.172  10.369 -0.5462 -0.1287  0.1810
 8063SOL    HW127720   4.242   0.139  10.450 -0.5659 -0.2379  0.1467
 8063SOL    HW227721   4.128   0.223  10.396 -0.5639 -0.1810  0.2285
 8064SOL     OW27722   7.904   7.502   5.030 -0.2459  0.3794  0.6450
 8064SOL    HW127723   7.938   7.418   5.002  0.0593  0.1695  1.5985
 8064SOL    HW227724   7.931   7.510   5.121  1.8170  2.5967 -0.0663
 8065SOL     OW27725   7.295   1.018   6.269  0.6413 -0.1035  0.2580
 8065SOL    HW127726   7.291   1.036   6.175  2.0927 -2.8974 -0.4481
 8065SOL    HW227727   7.357   0.945   6.277 -0.1565 -0.5954  3.2859
 8066SOL     OW27728   0.488   0.221   5.995  0.4127  0.6004 -0.1669
 8066SOL    HW127729   0.430   0.163   6.044 -1.3127  1.5434 -0.9730
 8066SOL    HW227730   0.473   0.197   5.903 -1.8489  3.4341 -0.7017
 8067SOL     OW27731   4.592  11.073   9.643  0.2678  0.2670  0.2175
 8067SOL    HW127732   4.590  11.093   9.737 -0.2654  0.1429  0.2353
 8067SOL    HW227733   4.559  10.984   9.637  0.3965  0.2389 -0.0840
 8068SOL     OW27734   8.528   6.089   1.068  0.0632 -0.0039 -0.0389
 8068SOL    HW127735   8.460   6.022   1.075 -1.9971  2.0096  0.4603
 8068SOL    HW227736   8.563   6.078   0.980 -0.8572 -1.1253 -0.2979
 8069SOL     OW27737   1.532   0.158   9.913 -0.4831  0.0697  0.3111
 8069SOL    HW127738   1.582   0.076   9.917  0.9059  0.7182 -2.0009
 8069SOL    HW227739   1.481   0.150   9.832  0.6783  1.9734 -0.6726
 8070SOL     OW27740   8.407  10.380   7.491  0.4240  0.1312  0.2357
 8070SOL    HW127741   8.403  10.475   7.478  0.7380 -0.0819 -1.6995
 8070SOL    HW227742   8.443  10.369   7.579  0.0579  1.7919  0.6310
 8071SOL     OW27743   2.390   0.925   6.506 -0.4102  0.4065  0.0073
 8071SOL    HW127744   2.340   0.943   6.426  1.0947 -1.0740 -1.3546
 8071SOL    HW227745   2.326   0.890   6.567 -1.4237  0.5760 -0.9257
 8072SOL     OW27746   4.058  10.190   9.132 -0.1408 -0.6108  0.1921
 8072SOL    HW127747   4.095  10.205   9.219  1.0131 -0.9248 -0.2220
 8072SOL    HW227748   4.123  10.225   9.072  0.0703 -2.2543 -0.6103
 8073SOL     OW27749   8.732   5.687   3.344  0.0926 -0.7203 -0.3158
 8073SOL    HW127750   8.817   5.649   3.321  1.0163  0.5243  0.8347
 8073SOL    HW227751   8.668   5.628   3.306  1.4626 -0.8971 -2.5662
 8074SOL     OW27752   5.610   5.238   9.160 -0.3236  0.3888 -0.0828
 8074SOL    HW127753   5.668   5.298   9.206 -0.8415  1.8096 -1.2223
 8074SOL    HW227754   5.668   5.184   9.107  0.1153  0.1031  0.6724
 8075SOL     OW27755  10.632   5.895  10.788 -1.0280  0.2901 -0.0635
 8075SOL    HW127756  10.713   5.863  10.748  0.3357  2.5939  0.6589
 8075SOL    HW227757  10.620   5.841  10.866 -0.9502 -0.9390 -0.8841
 8076SOL     OW27758  10.807   0.595   4.357  0.0891  0.2886 -0.4650
 8076SOL    HW127759  10.720   0.621   4.387 -0.5347  0.8354 -2.6204
 8076SOL    HW227760  10.831   0.661   4.292  1.0689 -1.1742 -1.6525
 8077SOL     OW27761  10.543   7.181  10.655  0.4856  0.1516  0.0031
 8077SOL    HW127762  10.509   7.220  10.574 -1.1902  1.5793  1.2940
 8077SOL    HW227763  10.538   7.087  10.641 -0.7339  0.3706 -1.1885
 8078SOL     OW27764   5.866   8.484   1.117  0.2214 -0.2351  0.3330
 8078SOL    HW127765   5.846   8.479   1.023  1.4265 -1.7981  0.1127
 8078SOL    HW227766   5.925   8.409   1.133  2.1267  1.4559  1.8039
 8079SOL     OW27767   1.695   9.065   3.348 -0.1019  0.1699 -0.3494
 8079SOL    HW127768   1.732   9.050   3.435 -2.6917 -0.5389  0.7032
 8079SOL    HW227769   1.648   9.148   3.356 -1.8492 -0.7609 -0.4833
 8080SOL     OW27770   3.317   2.073   6.118 -0.0220 -0.1613  0.2313
 8080SOL    HW127771   3.268   2.114   6.047  1.3776 -1.9073 -1.8888
 8080SOL    HW227772   3.253   2.019   6.164 -0.8841  0.7094  0.0733
 8081SOL     OW27773   8.359   5.927   9.889 -0.0120  0.0554 -0.3701
 8081SOL    HW127774   8.313   5.861   9.837 -1.3154  1.4852 -1.1373
 8081SOL    HW227775   8.365   5.889   9.976 -0.8319 -1.0410 -0.7662
 8082SOL     OW27776   8.275   2.370   6.055 -0.0127  0.2030 -0.2884
 8082SOL    HW127777   8.259   2.428   5.981  1.4462  2.4151  1.0164
 8082SOL    HW227778   8.188   2.355   6.094 -0.6393 -0.0840 -1.7451
 8083SOL     OW27779   2.724   3.853  11.122  0.0810 -0.1524  0.1914
 8083SOL    HW127780   2.801   3.890  11.166 -0.8120  0.7078  1.1010
 8083SOL    HW227781   2.757   3.775  11.078  1.1936 -0.6529  1.7963
 8084SOL     OW27782  10.598   8.226   4.599  0.6150  0.8277 -0.2238
 8084SOL    HW127783  10.621   8.183   4.682  0.8886  1.7787  0.2073
 8084SOL    HW227784  10.505   8.204   4.586  0.8002 -0.0709 -0.1393
 8085SOL     OW27785   0.276   3.363   4.074 -0.4221 -0.1445  0.2214
 8085SOL    HW127786   0.294   3.354   4.167 -0.3536 -2.0082  0.0664
 8085SOL    HW227787   0.189   3.404   4.070 -0.2738  0.2804  1.0769
 8086SOL     OW27788   0.627   3.267   6.579  0.3677  0.6082  0.2178
 8086SOL    HW127789   0.599   3.181   6.548 -0.3258  0.5196  1.0514
 8086SOL    HW227790   0.720   3.255   6.601 -0.0254 -0.2814  1.4940
 8087SOL     OW27791   3.469   9.438   5.116 -0.6730 -0.0989 -0.0127
 8087SOL    HW127792   3.481   9.427   5.211 -2.2706 -0.8590  0.1368
 8087SOL    HW227793   3.374   9.449   5.105 -0.4728  0.3393 -1.4988
 8088SOL     OW27794   1.069   4.527   6.957  0.0197 -0.2298  0.2118
 8088SOL    HW127795   0.992   4.527   6.900  0.4792 -0.3470 -0.4205
 8088SOL    HW227796   1.039   4.483   7.037 -0.7477  0.3000  0.2306
 8089SOL     OW27797   1.500   6.650   2.451  0.2480  0.2005  0.2422
 8089SOL    HW127798   1.414   6.687   2.471  0.4416  0.0698  1.4469
 8089SOL    HW227799   1.483   6.559   2.429 -0.1246  0.7053 -1.7149
 8090SOL     OW27800   8.583  10.392   2.145 -0.1072 -0.4094  0.1627
 8090SOL    HW127801   8.611  10.474   2.186 -0.5957 -0.2806  0.2422
 8090SOL    HW227802   8.554  10.338   2.218 -0.0396 -0.5529  0.0830
 8091SOL     OW27803   3.838   5.649   7.478  0.6640 -0.0693 -0.0772
 8091SOL    HW127804   3.890   5.625   7.554 -1.8132 -1.9312  1.1936
 8091SOL    HW227805   3.813   5.740   7.493 -2.1684 -1.1662  3.0090
 8092SOL     OW27806   0.605   9.179   9.613  0.0395  0.4472 -0.0026
 8092SOL    HW127807   0.600   9.088   9.642 -0.3473  0.9156  1.4754
 8092SOL    HW227808   0.698   9.200   9.615  0.0569  0.3318  0.4932
 8093SOL     OW27809  10.873   1.591   3.116 -0.1465  0.3083  0.3111
 8093SOL    HW127810  10.923   1.607   3.036 -0.7662  0.2509 -0.0946
 8093SOL    HW227811  10.908   1.508   3.150  0.2588  0.4365  0.2225
 8094SOL     OW27812   3.675   4.290   5.643  0.0615 -0.6585  0.2090
 8094SOL    HW127813   3.716   4.236   5.576 -1.3097  0.0907 -1.3070
 8094SOL    HW227814   3.748   4.336   5.684  1.0236 -1.9083 -0.0455
 8095SOL     OW27815   3.713   6.071   9.581  0.7068 -0.1313 -0.0180
 8095SOL    HW127816   3.722   6.018   9.661 -1.3571  0.2953  0.5503
 8095SOL    HW227817   3.771   6.146   9.596  0.6790 -0.2784  0.8976
 8096SOL     OW27818   7.807   1.039   0.599 -0.3074  1.1331  0.1222
 8096SOL    HW127819   7.793   1.041   0.505 -1.1886 -0.1217  0.2005
 8096SOL    HW227820   7.726   1.075   0.636 -0.0962  1.3153  0.4127
 8097SOL     OW27821   6.220   2.170   0.217  0.4669 -0.5998 -0.2362
 8097SOL    HW127822   6.180   2.191   0.301  0.1412  1.6354 -0.8664
 8097SOL    HW227823   6.313   2.188   0.229  0.3940 -0.1015 -0.3849
 8098SOL     OW27824   9.729   4.627   2.763  0.3304  0.0415  0.1420
 8098SOL    HW127825   9.660   4.641   2.699 -0.9852  0.9940  1.6817
 8098SOL    HW227826   9.699   4.551   2.814  0.8320 -0.0634  0.2872
 8099SOL     OW27827   0.757   8.557   9.848 -0.4804  0.0845 -0.2000
 8099SOL    HW127828   0.675   8.605   9.835  1.1568  3.3858  0.5698
 8099SOL    HW227829   0.822   8.608   9.799  1.5067 -1.1149  1.0789
 8100SOL     OW27830   2.404   0.442   1.760 -0.4722 -0.4722 -0.2621
 8100SOL    HW127831   2.348   0.507   1.718 -0.7923  0.2174  1.1739
 8100SOL    HW227832   2.488   0.487   1.771 -0.0476 -1.0256 -1.1272
 8101SOL     OW27833  10.931  11.057   6.162  0.4503  0.3113 -0.0541
 8101SOL    HW127834  10.951  11.021   6.249  0.4152  0.5487  0.0549
 8101SOL    HW227835  10.919  10.980   6.106  0.8031  0.1615  0.0754
 8102SOL     OW27836   7.462   7.744   7.635  0.2087  0.1857  0.1086
 8102SOL    HW127837   7.549   7.779   7.655  1.2625 -2.0833 -0.1642
 8102SOL    HW227838   7.432   7.706   7.718  0.4941 -1.0046 -0.3152
 8103SOL     OW27839   0.875  10.578   0.876  0.2055  0.2652  0.0326
 8103SOL    HW127840   0.944  10.634   0.841 -0.2228  1.7826  1.4793
 8103SOL    HW227841   0.833  10.631   0.944 -2.0702 -0.7750 -0.4552
 8104SOL     OW27842   4.634   8.281   3.632 -0.2960  0.1579  0.0801
 8104SOL    HW127843   4.596   8.276   3.720  1.9488 -0.4240  1.1122
 8104SOL    HW227844   4.559   8.286   3.573 -1.8634  1.6103  2.0706
 8105SOL     OW27845   7.555   7.818   7.956 -0.0935 -0.0985  0.2799
 8105SOL    HW127846   7.499   7.871   8.013 -0.0308  0.4607 -0.1708
 8105SOL    HW227847   7.630   7.875   7.937 -1.1517  0.6336 -2.1790
 8106SOL     OW27848   1.346   5.651   8.700 -0.4250 -0.7639  0.1804
 8106SOL    HW127849   1.282   5.581   8.686 -2.4382  0.9082  0.5503
 8106SOL    HW227850   1.388   5.661   8.615 -3.2472  0.4429 -1.2372
 8107SOL     OW27851   8.031   2.987   7.918  0.0890  0.4565 -0.2134
 8107SOL    HW127852   8.100   2.930   7.953  0.1995  0.0397 -1.0907
 8107SOL    HW227853   8.005   2.945   7.836 -2.2270 -0.1957  0.7871
 8108SOL     OW27854   7.691   7.356   2.404 -0.3001  0.5191  0.7751
 8108SOL    HW127855   7.774   7.350   2.450  0.1364 -1.6744 -0.1522
 8108SOL    HW227856   7.695   7.286   2.338 -2.5067  0.9427  0.0997
 8109SOL     OW27857   8.602   9.338   5.335 -0.1341  0.4273 -0.1352
 8109SOL    HW127858   8.573   9.307   5.421  0.6013  3.9870  1.5803
 8109SOL    HW227859   8.696   9.353   5.345  0.4719 -1.3092 -2.3971
 8110SOL     OW27860   2.279   3.777   8.970  0.3179 -0.5183  0.6747
 8110SOL    HW127861   2.312   3.803   9.056  0.6364 -1.1749  0.7540
 8110SOL    HW227862   2.184   3.774   8.981  0.0506  2.3675  0.1838
 8111SOL     OW27863   6.025   0.057   6.170 -0.5545  0.1124  0.1061
 8111SOL    HW127864   6.072   0.030   6.091 -1.2311 -1.6119  0.2654
 8111SOL    HW227865   6.057   0.146   6.187  1.0003 -0.1899 -1.0264
 8112SOL     OW27866   1.660  10.887   9.983 -0.5618 -0.3384 -0.2122
 8112SOL    HW127867   1.626  10.863   9.897  0.3634 -0.5379 -0.5339
 8112SOL    HW227868   1.741  10.836   9.992 -0.1329  0.4197  0.3583
 8113SOL     OW27869   1.814   6.863   1.121  0.6761  0.1070  0.2475
 8113SOL    HW127870   1.754   6.856   1.047  0.1036 -0.2919  0.7420
 8113SOL    HW227871   1.769   6.919   1.184  1.4579  1.0177  0.0221
 8114SOL     OW27872   6.477   0.312   4.059  0.4802  0.3901 -0.1775
 8114SOL    HW127873   6.449   0.221   4.072  0.2932  0.4464 -0.1911
 8114SOL    HW227874   6.399   0.364   4.075  0.7063  0.5835  0.3069
 8115SOL     OW27875  10.062   0.904   7.079 -0.5146 -0.2674 -0.2660
 8115SOL    HW127876   9.996   0.940   7.019  0.9451  1.4986 -0.9093
 8115SOL    HW227877  10.136   0.964   7.072  0.3964 -1.0069  1.9985
 8116SOL     OW27878   2.736   0.496   3.686  0.1771 -0.2665 -0.0776
 8116SOL    HW127879   2.723   0.476   3.593 -0.3605 -0.1775 -0.0293
 8116SOL    HW227880   2.659   0.458   3.729 -0.0554  0.5070  0.2070
 8117SOL     OW27881   7.493   8.415   3.674 -0.3184 -0.2019 -0.0115
 8117SOL    HW127882   7.550   8.491   3.684 -0.6869  0.0812 -0.0434
 8117SOL    HW227883   7.548   8.349   3.630  0.3863 -0.4021  1.1197
 8118SOL     OW27884   2.434  10.575   2.582  0.7290  0.2069  0.1295
 8118SOL    HW127885   2.507  10.539   2.631  0.5745  0.0648  0.2546
 8118SOL    HW227886   2.376  10.613   2.648 -0.1690 -1.2079  0.1985
 8119SOL     OW27887   4.140  10.676   0.759 -0.0356 -0.0135  0.0818
 8119SOL    HW127888   4.227  10.665   0.721  0.2158 -0.0600  0.6612
 8119SOL    HW227889   4.124  10.594   0.806 -0.3659  0.0244  0.0391
 8120SOL     OW27890   8.626   2.601   7.833  0.8400  0.1808  0.2410
 8120SOL    HW127891   8.711   2.583   7.873  0.6984 -0.0425  0.4426
 8120SOL    HW227892   8.563   2.566   7.895  0.5756  0.9316  0.4106
 8121SOL     OW27893   9.030   2.174   0.213  0.1493  0.1091  0.3063
 8121SOL    HW127894   9.086   2.141   0.283  2.5397 -0.1815 -1.6009
 8121SOL    HW227895   9.001   2.260   0.243  1.8562  0.3752  1.3168
 8122SOL     OW27896   1.130   7.578   3.642 -0.5770 -0.7263 -0.4935
 8122SOL    HW127897   1.178   7.527   3.577 -0.0073  0.9593 -1.4473
 8122SOL    HW227898   1.197   7.618   3.696 -0.8220  1.4889 -1.7098
 8123SOL     OW27899   8.153   1.809   2.944  0.5642 -0.3250 -0.7575
 8123SOL    HW127900   8.165   1.824   2.850 -1.5024  1.1383 -0.8732
 8123SOL    HW227901   8.082   1.868   2.968  0.9986 -0.7184  1.7388
 8124SOL     OW27902   4.614   6.517   1.172 -0.6614 -0.1172  0.1933
 8124SOL    HW127903   4.677   6.585   1.195 -1.3489  0.8476 -0.6796
 8124SOL    HW227904   4.668   6.440   1.152  0.0441 -0.3212  2.6562
 8125SOL     OW27905   3.069   4.851   3.963 -0.0631  0.1199 -0.1037
 8125SOL    HW127906   3.013   4.778   3.988  2.6518 -2.7060 -1.6152
 8125SOL    HW227907   3.073   4.846   3.868  2.2437  0.5488 -0.0759
 8126SOL     OW27908   0.571   0.944   2.193  0.7014 -0.4552 -0.2014
 8126SOL    HW127909   0.482   0.911   2.178  0.8013 -0.7951 -0.0647
 8126SOL    HW227910   0.588   1.002   2.119 -0.3507  1.1423  0.7616
 8127SOL     OW27911   7.930   3.240   9.295 -0.0579  0.6423 -0.1681
 8127SOL    HW127912   7.836   3.244   9.311  0.1674  0.7251  1.3267
 8127SOL    HW227913   7.938   3.222   9.201 -1.5456  0.9463 -0.3768
 8128SOL     OW27914   0.911   3.071   6.261  0.2217 -0.5760 -0.2591
 8128SOL    HW127915   0.914   3.151   6.208  0.2165 -2.0325 -2.6102
 8128SOL    HW227916   1.002   3.051   6.280  0.1687  0.6726  1.5457
 8129SOL     OW27917   2.320   6.924   6.993 -0.1100 -0.2618 -0.0094
 8129SOL    HW127918   2.331   6.950   7.085 -2.4262 -1.2734  0.6365
 8129SOL    HW227919   2.386   6.857   6.979 -0.6109 -1.0879  1.3766
 8130SOL     OW27920   8.404   6.908   2.350 -0.2505  0.5720  0.0266
 8130SOL    HW127921   8.417   6.997   2.317  0.5015  0.0948 -1.0409
 8130SOL    HW227922   8.309   6.899   2.357 -0.4101  0.9888 -1.2666
 8131SOL     OW27923   0.297   5.276  10.555 -0.1827 -0.0429  0.0451
 8131SOL    HW127924   0.380   5.308  10.589  0.4794  1.5124 -2.6926
 8131SOL    HW227925   0.314   5.185  10.531  0.3047 -0.1466  0.7522
 8132SOL     OW27926   9.526   3.022   1.608 -0.6723 -0.3730 -0.3272
 8132SOL    HW127927   9.537   2.966   1.685 -0.8989 -1.4505 -1.0529
 8132SOL    HW227928   9.432   3.031   1.598 -0.6758  2.0047  1.0529
 8133SOL     OW27929   1.028   9.778   4.584 -0.1833  0.5596 -0.6050
 8133SOL    HW127930   0.999   9.865   4.557  1.5827  1.4955  0.3724
 8133SOL    HW227931   1.120   9.774   4.557  0.1613 -0.4407  0.6233
 8134SOL     OW27932   3.364   3.993   1.655  0.0842  0.2847  0.9191
 8134SOL    HW127933   3.289   4.023   1.706 -0.0924  0.6863  0.4273
 8134SOL    HW227934   3.344   3.902   1.634 -0.9273  0.7880 -0.4060
 8135SOL     OW27935   8.346  10.670  11.039 -0.2697 -0.2840 -1.1176
 8135SOL    HW127936   8.361  10.595  11.097 -0.9223  1.1892  1.0748
 8135SOL    HW227937   8.431  10.686  10.999  0.0299 -1.8025 -1.1388
 8136SOL     OW27938   3.319   7.462   1.964  0.5216 -0.5449 -0.7509
 8136SOL    HW127939   3.273   7.527   2.016 -1.7910 -0.2841 -2.9072
 8136SOL    HW227940   3.351   7.398   2.028 -1.5456  0.0879  1.0306
 8137SOL     OW27941   6.807  10.269   2.059  0.1946 -0.1636  0.3319
 8137SOL    HW127942   6.894  10.229   2.055  0.8832  1.0797  1.8206
 8137SOL    HW227943   6.822  10.357   2.092 -1.5047  0.6192 -0.8034
 8138SOL     OW27944   1.307   1.661   6.090  0.5450 -0.1167  0.4124
 8138SOL    HW127945   1.233   1.704   6.132  1.1249  0.6897  0.6274
 8138SOL    HW227946   1.384   1.692   6.138  1.1157 -0.1056 -0.4907
 8139SOL     OW27947   6.292   5.907   3.420  0.2871 -0.1605 -0.3062
 8139SOL    HW127948   6.293   5.983   3.478  0.3564  1.9044 -2.8429
 8139SOL    HW227949   6.375   5.912   3.372 -0.5571 -0.7050 -1.8751
 8140SOL     OW27950   4.014  10.359   7.619  0.6303  0.0342 -0.2446
 8140SOL    HW127951   4.025  10.447   7.582  1.8247 -0.2608 -0.6313
 8140SOL    HW227952   4.043  10.368   7.710 -0.9156  0.4224  0.2341
 8141SOL     OW27953   2.084  10.915   1.638 -0.3768 -0.4243 -0.2564
 8141SOL    HW127954   2.064  10.974   1.565 -0.2028  0.6025  0.5054
 8141SOL    HW227955   2.094  10.829   1.597 -0.2460  0.1391 -1.4471
 8142SOL     OW27956   2.628   2.420   6.796  0.1532 -0.2522 -0.0417
 8142SOL    HW127957   2.572   2.343   6.796  1.0518 -0.9493 -1.5676
 8142SOL    HW227958   2.614   2.460   6.710  0.8706  0.4150  0.1374
 8143SOL     OW27959   2.617   8.742   2.464 -0.4441  0.0860  0.3419
 8143SOL    HW127960   2.630   8.798   2.387 -2.0064  0.8448  0.5719
 8143SOL    HW227961   2.588   8.803   2.532  0.4145 -0.6556  1.3889
 8144SOL     OW27962   4.502  10.864   6.410  0.2963 -1.1444  0.3532
 8144SOL    HW127963   4.590  10.835   6.435 -0.4118 -1.5903  2.5528
 8144SOL    HW227964   4.446  10.790   6.432 -0.7155 -0.6572 -0.5117
 8145SOL     OW27965   6.624   2.518   3.924 -0.3801 -0.5081  0.1395
 8145SOL    HW127966   6.665   2.432   3.913 -0.7555 -0.7770  0.8336
 8145SOL    HW227967   6.599   2.543   3.835  1.3370 -0.3090 -0.3177
 8146SOL     OW27968   1.191   0.964   7.843  0.3986 -0.1253 -0.3316
 8146SOL    HW127969   1.098   0.975   7.825  0.4419  1.1350  0.0669
 8146SOL    HW227970   1.196   0.888   7.901 -0.7161  1.4026  1.9310
 8147SOL     OW27971   5.317   7.071   7.344  0.2890  0.4427  0.5329
 8147SOL    HW127972   5.375   7.147   7.336  0.7118  0.0240 -0.5378
 8147SOL    HW227973   5.376   6.996   7.349 -0.1493  0.0929  0.4570
 8148SOL     OW27974   1.344   6.605   9.833 -0.3107 -0.1880 -0.2742
 8148SOL    HW127975   1.394   6.687   9.833  0.7401 -0.7895  0.5348
 8148SOL    HW227976   1.253   6.632   9.830 -0.0586  1.0937  1.7076
 8149SOL     OW27977   3.888   9.464   4.386 -0.4156  0.7905  0.1944
 8149SOL    HW127978   3.845   9.404   4.324 -0.2218  0.9798 -0.1227
 8149SOL    HW227979   3.820   9.527   4.410 -0.3544  1.0136 -0.2109
 8150SOL     OW27980   8.077   0.390   1.165  0.6207 -0.6311 -0.4575
 8150SOL    HW127981   8.027   0.396   1.084  1.1857 -0.4667 -0.7997
 8150SOL    HW227982   8.107   0.299   1.169 -0.4196 -0.9614  0.1878
 8151SOL     OW27983   7.314   0.924   7.090 -0.8627  0.1072  0.1024
 8151SOL    HW127984   7.374   0.856   7.061  0.2667  1.0546  0.1429
 8151SOL    HW227985   7.228   0.883   7.088 -0.2222 -1.2712 -0.0003
 8152SOL     OW27986   4.866   8.573   5.878 -0.3148 -0.3880  0.4639
 8152SOL    HW127987   4.851   8.574   5.783 -0.9164  0.2883  0.5541
 8152SOL    HW227988   4.841   8.485   5.905  0.8799 -0.9422 -0.1485
 8153SOL     OW27989   7.509  10.264   7.560 -0.5071 -0.0763  0.2811
 8153SOL    HW127990   7.456  10.318   7.619  0.4781  0.2411  0.9144
 8153SOL    HW227991   7.529  10.185   7.611  1.0278  0.5529  0.7213
 8154SOL     OW27992   7.131   8.920   4.792 -0.2035  0.9207 -0.5814
 8154SOL    HW127993   7.088   9.005   4.779  1.3005  1.7035 -0.5844
 8154SOL    HW227994   7.151   8.918   4.886 -0.6605  0.3377 -0.4880
 8155SOL     OW27995   3.223   5.184  10.301  0.1148  0.2726  0.5029
 8155SOL    HW127996   3.292   5.218  10.359  0.4711 -0.6652  0.6426
 8155SOL    HW227997   3.143   5.188  10.354 -0.2123  2.4206 -0.0211
 8156SOL     OW27998   9.965   5.729   5.225  0.5348  0.2412 -0.0749
 8156SOL    HW127999   9.912   5.789   5.173 -0.6122  0.0178  0.8020
 8156SOL    HW228000   9.941   5.642   5.193  0.7293  0.1638 -0.0085
 8157SOL     OW28001   4.514   6.481   5.776  0.2267 -0.1452  1.1024
 8157SOL    HW128002   4.440   6.437   5.818 -3.0693  2.5088 -1.3122
 8157SOL    HW228003   4.539   6.550   5.837  0.3775 -0.7249  1.7045
 8158SOL     OW28004   2.647   4.116   2.861 -0.5294  0.7004 -0.4283
 8158SOL    HW128005   2.733   4.157   2.850  0.4596 -0.7561  1.2525
 8158SOL    HW228006   2.641   4.054   2.788  1.4609 -1.6373  1.2051
 8159SOL     OW28007   1.736   5.229   0.621 -0.4689 -0.0009 -0.2198
 8159SOL    HW128008   1.793   5.181   0.682 -0.2345 -0.2853 -0.6621
 8159SOL    HW228009   1.796   5.278   0.566 -0.6113 -0.8586 -1.1590
 8160SOL     OW28010   7.426   3.177   4.681 -0.5453 -0.0273  0.3183
 8160SOL    HW128011   7.358   3.226   4.726 -2.5122 -1.5314 -0.8265
 8160SOL    HW228012   7.438   3.223   4.598  0.6625  0.8351  0.9361
 8161SOL     OW28013   1.318   3.273   2.464 -0.6169 -0.8173  0.2654
 8161SOL    HW128014   1.309   3.358   2.422  1.1175 -0.8533 -0.2760
 8161SOL    HW228015   1.230   3.235   2.463 -1.1775  0.4732 -0.5469
 8162SOL     OW28016   6.485  10.247   2.733 -0.1349  0.2539  0.2015
 8162SOL    HW128017   6.569  10.290   2.719  1.0093 -1.4135  1.5402
 8162SOL    HW228018   6.491  10.166   2.683 -0.3173 -0.5683  1.4637
 8163SOL     OW28019   6.146   4.439   2.791 -0.2493  0.1842  0.1569
 8163SOL    HW128020   6.133   4.402   2.878 -0.3913  0.1708  0.1299
 8163SOL    HW228021   6.089   4.516   2.788 -0.0641  0.3222  0.1610
 8164SOL     OW28022   0.815   8.661   0.475 -0.8864  0.0583  0.5709
 8164SOL    HW128023   0.807   8.609   0.395 -0.3712 -0.5287  0.8961
 8164SOL    HW228024   0.908   8.685   0.479 -0.3816 -1.8767  2.1847
 8165SOL     OW28025   7.668   8.283   7.992  0.7464  0.6095 -0.2159
 8165SOL    HW128026   7.605   8.222   7.954  0.6565 -0.2938  1.2888
 8165SOL    HW228027   7.730   8.227   8.038  0.2614  1.6351  1.8132
 8166SOL     OW28028   3.258   2.527   4.096  0.2703 -0.1568 -0.0603
 8166SOL    HW128029   3.194   2.581   4.143  0.8085  0.2264  0.2445
 8166SOL    HW228030   3.282   2.459   4.159 -0.4028 -0.7679 -0.4419
 8167SOL     OW28031   3.155   4.445   5.050  0.0033 -0.2167 -0.0123
 8167SOL    HW128032   3.091   4.515   5.032 -0.3107 -0.3642  0.4972
 8167SOL    HW228033   3.176   4.455   5.143  0.5894 -0.2858 -0.1341
 8168SOL     OW28034   9.313   8.361   6.405  0.3711 -0.2622  0.5300
 8168SOL    HW128035   9.257   8.383   6.479 -1.9163  1.3986 -1.5416
 8168SOL    HW228036   9.346   8.445   6.373  1.9526 -1.0032  0.0737
 8169SOL     OW28037   1.162   8.777   1.642 -0.5804  0.7796  0.0204
 8169SOL    HW128038   1.185   8.749   1.731 -2.3463 -1.7079 -0.2109
 8169SOL    HW228039   1.247   8.784   1.598  0.2204 -0.6387  1.1952
 8170SOL     OW28040   7.997   6.181   8.872 -0.1741  0.0141 -0.5136
 8170SOL    HW128041   7.935   6.178   8.799 -0.3589 -2.5692 -0.3262
 8170SOL    HW228042   8.052   6.103   8.861  0.4105  0.0563  1.5940
 8171SOL     OW28043   7.439   3.438   0.132  0.4241  0.1026  0.4229
 8171SOL    HW128044   7.411   3.349   0.113 -0.3635  0.6913 -1.3814
 8171SOL    HW228045   7.367   3.474   0.184  0.3118 -0.0429  0.3718
 8172SOL     OW28046   1.111   6.952   6.003  0.1032 -0.6502  0.0261
 8172SOL    HW128047   1.117   6.873   6.056 -0.9866 -0.9047 -0.1928
 8172SOL    HW228048   1.194   6.997   6.017  0.1882 -1.1423  1.2458
 8173SOL     OW28049   7.110   5.189   4.163 -0.0271 -0.0765  0.1862
 8173SOL    HW128050   7.179   5.255   4.167 -0.7954  0.7055  1.0337
 8173SOL    HW228051   7.098   5.161   4.253 -1.3979  0.4481  0.1994
 8174SOL     OW28052  10.643   1.235  10.529 -0.0240 -0.0067  0.5256
 8174SOL    HW128053  10.582   1.162  10.516 -0.6062  0.6324 -0.5427
 8174SOL    HW228054  10.723   1.209  10.484 -0.3498  0.1365 -0.1575
 8175SOL     OW28055   3.828   0.412  10.874 -0.0698  0.2515  0.0441
 8175SOL    HW128056   3.757   0.388  10.814 -0.1152 -0.6191  0.4240
 8175SOL    HW228057   3.782   0.443  10.953 -0.0560 -0.9102  0.5282
 8176SOL     OW28058   3.928   8.453  10.891  0.0153 -0.1649 -0.0612
 8176SOL    HW128059   3.924   8.514  10.965 -0.4652  0.5152 -0.6302
 8176SOL    HW228060   4.014   8.467  10.853 -0.4817  0.9419 -0.8210
 8177SOL     OW28061   8.260   8.514   6.657  0.3535 -0.1823 -0.0200
 8177SOL    HW128062   8.324   8.462   6.707 -0.5383 -1.2438  0.0444
 8177SOL    HW228063   8.246   8.592   6.711 -2.5918 -2.4521  2.9057
 8178SOL     OW28064   8.049   3.009   9.959  0.1467 -0.0370 -0.1562
 8178SOL    HW128065   7.996   3.088   9.973 -1.1031 -0.6494 -1.2022
 8178SOL    HW228066   8.046   2.995   9.865  1.8560 -0.3511 -0.1978
 8179SOL     OW28067   1.958   2.219   8.739  0.0414  0.5560 -0.0355
 8179SOL    HW128068   1.910   2.191   8.817 -0.3156  0.6087 -0.2345
 8179SOL    HW228069   1.894   2.213   8.668 -0.0473  1.8703 -0.0862
 8180SOL     OW28070   8.232   7.830   3.842 -0.0133  0.2709  0.0566
 8180SOL    HW128071   8.236   7.916   3.884  2.4024  0.6089 -0.6905
 8180SOL    HW228072   8.268   7.770   3.907 -1.8370 -0.2616  0.6356
 8181SOL     OW28073   7.751   9.798   1.043 -0.2669 -0.6921 -0.3205
 8181SOL    HW128074   7.746   9.704   1.058  0.9486 -0.6201  0.6840
 8181SOL    HW228075   7.820   9.809   0.978 -0.0638 -0.4792 -0.0767
 8182SOL     OW28076   5.279   1.058   9.523  0.4829 -0.0228  0.1201
 8182SOL    HW128077   5.221   0.983   9.511  1.1409 -0.5090 -0.0348
 8182SOL    HW228078   5.355   1.039   9.468  0.7770  0.6304  0.2889
 8183SOL     OW28079   3.672   4.500   5.406 -0.3700 -0.6888  0.1488
 8183SOL    HW128080   3.625   4.450   5.339 -1.2772  2.7170 -2.0194
 8183SOL    HW228081   3.607   4.560   5.441  1.0407  0.2292  1.3217
 8184SOL     OW28082   9.030   2.311   5.654  0.1691  0.6170  0.1245
 8184SOL    HW128083   9.038   2.363   5.574 -1.1281 -0.2084 -0.5721
 8184SOL    HW228084   9.084   2.233   5.638 -1.6478 -0.5078 -0.8024
 8185SOL     OW28085   0.184   6.195   3.839  0.5833 -0.4844 -0.6428
 8185SOL    HW128086   0.117   6.209   3.906 -1.3786 -0.3316 -2.5322
 8185SOL    HW228087   0.211   6.104   3.851  2.8992  0.4335  2.5147
 8186SOL     OW28088   9.835   0.595   1.213 -0.2752 -0.0448  0.0817
 8186SOL    HW128089   9.805   0.586   1.303 -1.2690 -0.2293 -0.2471
 8186SOL    HW228090   9.917   0.643   1.219  0.5564 -1.5159  1.2156
 8187SOL     OW28091  10.631   8.872   1.179 -0.0570 -0.1154 -0.0203
 8187SOL    HW128092  10.658   8.789   1.138 -1.8897 -1.1111  0.6547
 8187SOL    HW228093  10.712   8.908   1.214  0.9192 -1.2294 -1.0074
 8188SOL     OW28094   1.730   8.577   0.768  0.1794 -0.7144  0.0919
 8188SOL    HW128095   1.653   8.584   0.711  0.4319  0.6995 -0.1115
 8188SOL    HW228096   1.694   8.572   0.857 -0.1834 -1.6430 -0.1030
 8189SOL     OW28097  10.906  10.191   0.790  0.0944 -0.9108  0.3866
 8189SOL    HW128098  10.956  10.235   0.859  1.9353 -0.6540 -1.0269
 8189SOL    HW228099  10.832  10.250   0.773  0.9941  0.2747  0.4306
 8190SOL     OW28100   1.847   9.632   9.255  0.4584 -0.0873 -0.0575
 8190SOL    HW128101   1.816   9.544   9.277 -0.1541 -0.2556 -1.4977
 8190SOL    HW228102   1.940   9.620   9.237  0.6050 -0.2414  0.7606
 8191SOL     OW28103   1.704   8.823   4.496  0.0053  0.1013 -0.8417
 8191SOL    HW128104   1.645   8.755   4.529 -0.7623 -0.3016 -2.8636
 8191SOL    HW228105   1.671   8.904   4.534 -1.3944 -0.2236 -1.2744
 8192SOL     OW28106   0.866   1.595   9.955 -0.2218 -0.2241 -0.3266
 8192SOL    HW128107   0.810   1.625  10.027  0.1500  0.3268 -0.2594
 8192SOL    HW228108   0.953   1.590   9.993  0.2097  1.2503 -1.0239
 8193SOL     OW28109   3.865   1.752   4.363 -0.3336 -0.2927  0.6617
 8193SOL    HW128110   3.890   1.835   4.322 -0.5623  0.0042  1.1190
 8193SOL    HW228111   3.770   1.758   4.375 -0.1555  0.0265  2.0876
 8194SOL     OW28112  10.952   7.782   6.753  0.7092  0.0978 -0.0495
 8194SOL    HW128113  10.974   7.689   6.756  0.8204  0.1339  0.2946
 8194SOL    HW228114  10.858   7.785   6.738  0.7783 -0.0673 -0.5267
 8195SOL     OW28115   3.341   9.123   9.776 -0.5598  0.6672  0.2735
 8195SOL    HW128116   3.393   9.081   9.845 -1.2364  0.2758  0.5518
 8195SOL    HW228117   3.286   9.187   9.822 -1.4611 -0.0297  0.1867
 8196SOL     OW28118   9.041  10.151   7.296  0.6119 -0.2366  0.6129
 8196SOL    HW128119   8.999  10.214   7.355 -1.4407 -1.8565  0.9838
 8196SOL    HW228120   9.028  10.188   7.209 -0.4398 -0.0689  0.8323
 8197SOL     OW28121  11.035   9.288   0.901  0.3854  0.1845 -0.3113
 8197SOL    HW128122  11.103   9.303   0.966 -1.3202 -0.0076  1.6369
 8197SOL    HW228123  10.986   9.370   0.897  0.0829 -0.0154 -0.8743
 8198SOL     OW28124   6.269   4.964   9.742  0.2553 -0.2543 -0.0486
 8198SOL    HW128125   6.218   4.885   9.724 -0.1625 -0.1825  0.7898
 8198SOL    HW228126   6.355   4.932   9.767  0.0897 -0.4497  0.2795
 8199SOL     OW28127   4.548   1.444   2.710 -0.5414 -0.0693  0.7459
 8199SOL    HW128128   4.470   1.397   2.740  0.0195 -0.8768  0.9650
 8199SOL    HW228129   4.585   1.388   2.642 -0.3999  0.5396  0.3134
 8200SOL     OW28130   1.107   4.028   6.100 -0.1875  0.2243 -0.3010
 8200SOL    HW128131   1.112   4.102   6.160  1.3280  0.1049 -0.2292
 8200SOL    HW228132   1.141   3.954   6.150 -3.4211 -1.0440  0.2832
 8201SOL     OW28133   5.574   6.414   7.704  0.1185  0.5005 -0.3433
 8201SOL    HW128134   5.641   6.348   7.686  1.3678  1.4852  0.5321
 8201SOL    HW228135   5.550   6.449   7.618  0.0928 -0.4626 -0.7330
 8202SOL     OW28136   3.289   4.437   3.126  0.1813 -0.4229  0.6478
 8202SOL    HW128137   3.273   4.354   3.170 -0.0769 -0.0116  1.3489
 8202SOL    HW228138   3.217   4.494   3.155  0.0601 -0.1108 -0.2340
 8203SOL     OW28139   0.363  10.171   9.387  0.6037 -0.1190 -0.0172
 8203SOL    HW128140   0.458  10.168   9.384  0.5900  0.4159 -1.6081
 8203SOL    HW228141   0.335  10.149   9.298 -0.7622 -0.3189  0.4375
 8204SOL     OW28142   7.675   9.182   3.927  0.0401  0.1465 -0.3167
 8204SOL    HW128143   7.695   9.249   3.861 -0.4123 -0.2861 -0.8981
 8204SOL    HW228144   7.748   9.120   3.920 -0.5740 -0.4931 -1.2014
 8205SOL     OW28145   5.021   9.601   8.590 -0.2182  0.4037  0.0375
 8205SOL    HW128146   5.049   9.564   8.506  0.4912  0.9744  0.0101
 8205SOL    HW228147   5.099   9.597   8.645 -0.5854  0.3480  0.5628
 8206SOL     OW28148   4.202   1.368   1.251  0.3966  0.4158  0.4781
 8206SOL    HW128149   4.229   1.298   1.311 -0.4385 -1.5547 -1.3023
 8206SOL    HW228150   4.197   1.325   1.166 -2.2788  2.1166 -0.3381
 8207SOL     OW28151   2.647  11.037   9.195  0.3915 -0.4212 -0.2316
 8207SOL    HW128152   2.563  11.067   9.230  0.0807  0.0794 -1.3300
 8207SOL    HW228153   2.663  10.953   9.238 -0.0577  0.0554  0.9110
 8208SOL     OW28154   7.399   2.632   5.687  0.6453  0.5119 -0.7718
 8208SOL    HW128155   7.390   2.538   5.670 -3.2063  0.7363 -0.8291
 8208SOL    HW228156   7.485   2.641   5.728  1.2867 -2.9656 -1.0566
 8209SOL     OW28157   1.114   9.084   0.446 -0.1905  0.6358 -0.1845
 8209SOL    HW128158   1.199   9.042   0.463  0.7220  1.8629 -1.4493
 8209SOL    HW228159   1.053   9.011   0.437  0.7580 -0.2896  0.5890
 8210SOL     OW28160   7.168   6.425   0.147 -0.7798 -0.5245  0.1401
 8210SOL    HW128161   7.248   6.431   0.095 -0.5823 -1.4623  0.3266
 8210SOL    HW228162   7.097   6.429   0.083 -0.6010  0.3766 -0.0222
 8211SOL     OW28163  10.157   8.674  10.699  0.4782  0.0353 -0.7297
 8211SOL    HW128164  10.221   8.658  10.769 -0.3942 -0.4157 -0.0179
 8211SOL    HW228165  10.077   8.701  10.745 -1.3669 -3.9867 -1.1743
 8212SOL     OW28166   6.791   6.029   8.761  0.1415 -0.0214 -0.0852
 8212SOL    HW128167   6.875   6.060   8.794  1.0048 -1.7887 -0.4875
 8212SOL    HW228168   6.813   5.980   8.681 -1.1728 -1.0764  0.1502
 8213SOL     OW28169   0.637  10.829  10.342 -0.2553 -0.0899 -0.5510
 8213SOL    HW128170   0.608  10.741  10.368  0.0594  0.0796  0.4515
 8213SOL    HW228171   0.567  10.887  10.372 -1.2502 -0.1044 -2.6683
 8214SOL     OW28172   7.481   3.550   4.318 -0.1656  0.5483 -0.0385
 8214SOL    HW128173   7.556   3.604   4.343  0.0583 -0.2224  1.0194
 8214SOL    HW228174   7.519   3.477   4.268 -0.2239  0.2238  0.3898
 8215SOL     OW28175   1.257   4.587  10.457  0.5548  0.3494  0.3649
 8215SOL    HW128176   1.321   4.647  10.498  1.0080  0.3154 -0.2710
 8215SOL    HW228177   1.253   4.513  10.517  1.0051  0.4191  0.4897
 8216SOL     OW28178   3.778  10.571   9.273 -0.5068 -0.7988 -0.2166
 8216SOL    HW128179   3.758  10.649   9.222 -0.0411  0.0180  0.8023
 8216SOL    HW228180   3.762  10.597   9.364 -1.0338 -2.1135  0.0871
 8217SOL     OW28181   1.626   1.439   0.174  0.6764  0.5583  0.3933
 8217SOL    HW128182   1.561   1.437   0.244  0.8246 -1.0393  0.5329
 8217SOL    HW228183   1.603   1.364   0.119  0.5682  1.7626 -1.2896
 8218SOL     OW28184   0.298   9.249   2.702 -0.0248  0.1716  0.2242
 8218SOL    HW128185   0.272   9.340   2.713 -0.9652  0.0984 -1.1007
 8218SOL    HW228186   0.370   9.236   2.763  0.0410  1.7663  0.5036
 8219SOL     OW28187   0.125  10.081   1.936 -0.0260 -0.7802  0.1068
 8219SOL    HW128188   0.118  10.163   1.986  0.6570 -1.4853  1.4182
 8219SOL    HW228189   0.176  10.023   1.993  0.2884 -1.8192 -1.1930
 8220SOL     OW28190   8.633  11.039   7.604  1.0314  0.1446  0.3722
 8220SOL    HW128191   8.654  10.971   7.668  1.4776 -0.3562 -0.2880
 8220SOL    HW228192   8.632  11.120   7.655 -1.7590 -0.5713  1.6193
 8221SOL     OW28193  10.029   0.362   7.556  0.0762 -0.1221 -0.1875
 8221SOL    HW128194   9.962   0.333   7.494 -0.7273  0.3650  0.4300
 8221SOL    HW228195  10.093   0.409   7.503  0.4058 -1.3417 -0.9208
 8222SOL     OW28196   7.881  10.689   7.175 -0.2897 -0.3635  0.5476
 8222SOL    HW128197   7.887  10.700   7.080 -0.1835  1.4776  0.7226
 8222SOL    HW228198   7.795  10.651   7.189 -1.6526  2.1725 -0.1803
 8223SOL     OW28199   7.848   0.745   4.690  1.0046 -0.2504 -0.4945
 8223SOL    HW128200   7.766   0.698   4.703 -0.4187  1.5876 -2.2081
 8223SOL    HW228201   7.880   0.717   4.605  0.7071  0.9974 -1.0426
 8224SOL     OW28202   7.166   7.191   8.911  0.8154 -0.1523 -0.3438
 8224SOL    HW128203   7.156   7.266   8.970 -0.2487 -1.1560  0.7945
 8224SOL    HW228204   7.231   7.135   8.954  0.7113 -0.4638 -0.5889
 8225SOL     OW28205   1.459   6.645   8.276  0.0301  0.5193 -0.5637
 8225SOL    HW128206   1.376   6.609   8.246 -0.2036 -0.2498  0.9153
 8225SOL    HW228207   1.522   6.618   8.210 -0.5313 -0.7677 -0.5976
 8226SOL     OW28208   0.480   9.387   8.060  0.1303 -0.0873 -0.1981
 8226SOL    HW128209   0.556   9.328   8.061 -1.1285 -1.7830  0.7174
 8226SOL    HW228210   0.509   9.462   8.007  2.7053 -0.2751  0.7738
 8227SOL     OW28211   4.782   0.072   8.579 -0.3707 -0.4128 -0.5109
 8227SOL    HW128212   4.860   0.084   8.524 -0.5633 -0.7185 -0.8608
 8227SOL    HW228213   4.743  -0.010   8.547 -1.0421 -0.0673 -0.5922
 8228SOL     OW28214   7.146   0.132   5.187  0.3100 -0.4374  0.3331
 8228SOL    HW128215   7.120   0.186   5.113 -2.5182 -2.1268 -0.0351
 8228SOL    HW228216   7.182   0.194   5.251 -1.1536  1.6266 -0.7628
 8229SOL     OW28217  10.104   2.215   3.124 -0.2618  0.7027 -0.3327
 8229SOL    HW128218  10.103   2.302   3.164 -2.0572  0.5774 -0.0166
 8229SOL    HW228219  10.159   2.225   3.046 -0.5339  2.1598 -0.3739
 8230SOL     OW28220   0.599   4.604  10.825  0.4920  0.4481 -0.6741
 8230SOL    HW128221   0.550   4.682  10.851  0.1781 -0.0751  0.3642
 8230SOL    HW228222   0.531   4.539  10.806  0.7689 -0.1282  0.2673
 8231SOL     OW28223   7.362   5.623  10.373 -0.5201 -0.5749 -0.7434
 8231SOL    HW128224   7.426   5.570  10.325  0.5592  0.7855 -0.8410
 8231SOL    HW228225   7.414   5.675  10.433 -1.3104  1.9022 -2.0867
 8232SOL     OW28226  10.275   9.117   4.634  0.1629  0.1072 -0.0585
 8232SOL    HW128227  10.302   9.031   4.604  0.0246  0.2159 -0.5069
 8232SOL    HW228228  10.307   9.177   4.566  1.7563  0.6024  1.0789
 8233SOL     OW28229   2.075   4.349   6.465  1.1793  0.3599 -0.1608
 8233SOL    HW128230   2.093   4.433   6.422 -0.4645  1.8950  1.9630
 8233SOL    HW228231   2.060   4.288   6.393  0.4501  2.3494 -1.7788
 8234SOL     OW28232   7.186   0.063   7.738 -0.1824  0.1298  0.0494
 8234SOL    HW128233   7.177   0.097   7.649  1.0550  1.7729  0.5044
 8234SOL    HW228234   7.099   0.071   7.776 -0.3241  1.1426 -0.4501
 8235SOL     OW28235  10.474   5.039   7.484 -0.1223 -0.2693 -0.2618
 8235SOL    HW128236  10.482   5.047   7.579  0.7953  0.9876 -0.4084
 8235SOL    HW228237  10.499   4.949   7.465  1.2759 -0.0983  0.5772
 8236SOL     OW28238  10.841  10.186   3.436  0.0923 -0.1933  0.2588
 8236SOL    HW128239  10.924  10.206   3.480 -0.9181 -1.1115  2.7345
 8236SOL    HW228240  10.868  10.146   3.353  2.0672  2.5645 -0.5663
 8237SOL     OW28241   3.319   5.536   8.815 -0.5045 -0.4552 -0.2085
 8237SOL    HW128242   3.242   5.554   8.762 -0.2869 -0.9957 -0.7147
 8237SOL    HW228243   3.286   5.529   8.905 -0.9917 -0.3501 -0.3798
 8238SOL     OW28244   2.494   5.019   6.153  0.0574 -0.2016  0.5002
 8238SOL    HW128245   2.485   5.114   6.164  0.4163 -0.0214 -0.6147
 8238SOL    HW228246   2.405   4.989   6.133  0.0237 -0.0169  0.3632
 8239SOL     OW28247   5.883   0.583   1.566 -0.4096  0.0261  0.3245
 8239SOL    HW128248   5.940   0.507   1.580  0.4131  0.8082  1.3333
 8239SOL    HW228249   5.874   0.623   1.652  2.2242  3.2316 -0.6997
 8240SOL     OW28250  10.151   1.549   1.252  0.0608  0.3068  0.4917
 8240SOL    HW128251  10.057   1.558   1.239  0.3960  3.6363 -0.5718
 8240SOL    HW228252  10.170   1.606   1.327  1.2472 -0.2647  0.6436
 8241SOL     OW28253  10.409  10.689   6.393  0.4520 -0.0560 -0.1458
 8241SOL    HW128254  10.342  10.623   6.374 -1.1083  1.2936  0.4266
 8241SOL    HW228255  10.452  10.656   6.472 -0.6469 -0.1708  0.4295
 8242SOL     OW28256   5.310   4.196   1.306  0.1014 -0.7373  0.0987
 8242SOL    HW128257   5.264   4.261   1.253 -2.4192 -1.6497  1.0380
 8242SOL    HW228258   5.363   4.249   1.366 -0.7403  0.4272 -0.1306
 8243SOL     OW28259   3.687   8.483  10.645 -0.2694  0.1127  0.1578
 8243SOL    HW128260   3.688   8.578  10.632 -2.2900  0.2920  0.9169
 8243SOL    HW228261   3.778   8.456  10.632  0.3410  2.1373 -0.1371
 8244SOL     OW28262   3.515   4.636  10.489 -0.3259 -0.0032 -0.3363
 8244SOL    HW128263   3.565   4.589  10.423 -0.0926 -0.9185  0.4682
 8244SOL    HW228264   3.561   4.618  10.571 -0.3337  1.4949  0.0310
 8245SOL     OW28265   5.608   4.314  10.341  0.1152 -0.1405 -0.3579
 8245SOL    HW128266   5.619   4.294  10.434  0.5637  1.0670 -0.1305
 8245SOL    HW228267   5.682   4.371  10.320 -0.3196  0.0954 -1.3037
 8246SOL     OW28268   6.406   4.647   4.440  0.0485  0.0250  0.3204
 8246SOL    HW128269   6.357   4.649   4.357 -1.2569  2.0848  1.0683
 8246SOL    HW228270   6.430   4.739   4.455  3.1490 -0.7419  0.6259
 8247SOL     OW28271   3.074   3.986   2.432  0.2098  0.6482 -0.1026
 8247SOL    HW128272   3.047   3.985   2.523 -0.2214 -1.5294 -0.1871
 8247SOL    HW228273   2.994   3.970   2.382  0.7720 -0.4734 -0.6939
 8248SOL     OW28274   7.654  10.645   3.690 -0.1743 -0.5512  0.0450
 8248SOL    HW128275   7.727  10.677   3.638  1.1069  2.5584  3.2630
 8248SOL    HW228276   7.686  10.564   3.730 -0.4764 -1.9000 -2.2543
 8249SOL     OW28277   1.356   5.929   4.688  0.1723  0.1582  0.3041
 8249SOL    HW128278   1.273   5.955   4.649 -0.8240 -1.3685  1.3098
 8249SOL    HW228279   1.361   5.978   4.770 -0.1190 -0.3217  0.6127
 8250SOL     OW28280  10.353   9.512   3.452  0.6477 -0.0038  0.3025
 8250SOL    HW128281  10.417   9.508   3.522 -0.1577  0.6518  1.1122
 8250SOL    HW228282  10.270   9.486   3.493  0.7790 -3.4892 -1.3127
 8251SOL     OW28283   3.447   1.959   1.109 -0.3246  0.8420  0.2460
 8251SOL    HW128284   3.493   1.908   1.176  0.2893  0.9684 -0.0755
 8251SOL    HW228285   3.406   2.030   1.158 -0.5447  0.4859  0.5920
 8252SOL     OW28286   3.673   9.489   2.092 -0.6363  0.6791 -0.0389
 8252SOL    HW128287   3.747   9.430   2.109 -0.4820  0.1707 -2.1836
 8252SOL    HW228288   3.596   9.436   2.109 -0.5473  1.0909  1.8282
 8253SOL     OW28289  10.425   5.567  10.204  0.5422 -0.1957  0.5474
 8253SOL    HW128290  10.428   5.611  10.289 -1.0659 -1.2810  1.2170
 8253SOL    HW228291  10.421   5.474  10.225 -1.3984 -0.4389 -0.6108
 8254SOL     OW28292   8.395   2.207   2.942  0.1555  0.2491  0.2204
 8254SOL    HW128293   8.489   2.187   2.945  0.7247  2.7673  2.1978
 8254SOL    HW228294   8.361   2.170   3.023 -0.3457  0.4044  0.0798
 8255SOL     OW28295   0.464   9.358   1.720  0.2789 -0.4497 -0.1786
 8255SOL    HW128296   0.547   9.391   1.754  0.4934 -1.1079 -0.0478
 8255SOL    HW228297   0.406   9.356   1.796 -0.7324  2.5541 -0.7315
 8256SOL     OW28298   4.993   6.288  10.988 -0.0082 -0.0196 -0.1250
 8256SOL    HW128299   5.075   6.254  11.025 -1.2502 -1.9626  1.0259
 8256SOL    HW228300   4.955   6.339  11.059 -0.6339 -0.6295 -0.0162
 8257SOL     OW28301   6.011   8.518   2.506  0.1500  0.6895  0.1081
 8257SOL    HW128302   6.094   8.529   2.552  0.9433  0.8331 -1.3188
 8257SOL    HW228303   5.984   8.608   2.485 -0.1423  0.6155  0.1609
 8258SOL     OW28304   3.972   2.892   6.475 -0.7724  0.0090 -0.1621
 8258SOL    HW128305   3.889   2.935   6.452 -1.0959 -1.2931 -1.5555
 8258SOL    HW228306   3.945   2.809   6.516 -0.1711 -0.6219 -1.0187
 8259SOL     OW28307   7.141   2.336   5.473  0.5032 -0.1488  0.1230
 8259SOL    HW128308   7.161   2.278   5.399  2.8791  1.5933 -0.7256
 8259SOL    HW228309   7.135   2.423   5.435 -1.4893  0.4124  1.5775
 8260SOL     OW28310   3.251   6.071   1.099 -0.2754  0.0485 -0.5026
 8260SOL    HW128311   3.324   6.107   1.151  0.1146 -0.7140 -0.5064
 8260SOL    HW228312   3.227   5.991   1.145  1.2163 -1.5927 -2.3955
 8261SOL     OW28313   6.923  10.758   7.438  0.1593  0.6157  0.5721
 8261SOL    HW128314   7.007  10.731   7.474  0.3935  0.7425  0.1374
 8261SOL    HW228315   6.860  10.745   7.509  1.0872  3.8841  2.1914
 8262SOL     OW28316   4.738   8.857   9.532  0.0345  0.0512  0.4711
 8262SOL    HW128317   4.819   8.810   9.550  0.5245  0.0933 -1.4364
 8262SOL    HW228318   4.669   8.793   9.550  0.7174 -1.9433 -3.1924
 8263SOL     OW28319   0.952   2.703   6.379  0.2456  0.2771  0.0605
 8263SOL    HW128320   0.933   2.668   6.466 -0.4043 -0.3885 -0.3373
 8263SOL    HW228321   0.868   2.735   6.347 -0.4295 -2.7936 -1.7664
 8264SOL     OW28322   2.239   3.209   6.311 -0.6186  0.4608  0.2440
 8264SOL    HW128323   2.259   3.274   6.244  0.4988 -0.7300 -0.6213
 8264SOL    HW228324   2.144   3.205   6.314 -0.6786  1.1280 -0.6881
 8265SOL     OW28325   8.815   6.402   5.829  0.4882  0.2697 -0.0709
 8265SOL    HW128326   8.744   6.430   5.772 -0.7027 -1.7839  0.3319
 8265SOL    HW228327   8.832   6.311   5.804 -0.9363 -1.1587  3.5865
 8266SOL     OW28328   6.882   6.880   9.429 -0.2011  0.4515 -0.5852
 8266SOL    HW128329   6.976   6.887   9.445  0.0797  0.9082 -2.2838
 8266SOL    HW228330   6.845   6.854   9.514  1.4338  0.3343  0.1208
 8267SOL     OW28331   7.374  10.504   6.387  0.0363  0.2071  0.0508
 8267SOL    HW128332   7.360  10.411   6.405  1.3067 -0.2508 -1.1029
 8267SOL    HW228333   7.330  10.550   6.459 -1.3084 -1.2483  0.1971
 8268SOL     OW28334   7.061   8.762   2.419  0.3306 -0.1341 -0.5002
 8268SOL    HW128335   6.982   8.738   2.467 -0.3776 -0.8814 -1.9619
 8268SOL    HW228336   7.056   8.857   2.410  0.9454  0.1414  1.6288
 8269SOL     OW28337   1.641   7.153  10.670  0.7641  0.2719 -0.5151
 8269SOL    HW128338   1.681   7.068  10.690 -2.0504 -1.0940 -0.1022
 8269SOL    HW228339   1.680   7.179  10.586  0.1729 -2.5632 -1.7896
 8270SOL     OW28340   0.779   0.101   1.866  0.7259  0.5295 -0.9715
 8270SOL    HW128341   0.844   0.072   1.931  0.6932 -1.0562 -1.5988
 8270SOL    HW228342   0.696   0.066   1.899  0.4056  1.3343 -0.9119
 8271SOL     OW28343   5.538   9.315   7.565  0.7932 -0.3083  0.4064
 8271SOL    HW128344   5.484   9.237   7.551 -0.1359  0.2466  0.7972
 8271SOL    HW228345   5.493   9.363   7.634  1.1231  0.7849 -0.1205
 8272SOL     OW28346   3.060   7.919   0.957  0.0966  0.0925 -0.1316
 8272SOL    HW128347   3.003   7.848   0.986  0.1579  0.1083  0.0325
 8272SOL    HW228348   3.042   7.990   1.018  1.0232 -0.2440  0.5621
 8273SOL     OW28349   8.605   1.638   8.504 -0.6189  0.2085  0.0252
 8273SOL    HW128350   8.618   1.564   8.444  2.1820  0.9785 -0.4564
 8273SOL    HW228351   8.613   1.715   8.449 -1.2910  0.9186  0.8943
 8274SOL     OW28352   7.202   8.300   9.656 -0.1441 -0.1608 -0.3408
 8274SOL    HW128353   7.219   8.375   9.600  1.1823 -0.9582 -1.0507
 8274SOL    HW228354   7.228   8.328   9.744  2.9931 -0.5950 -1.0178
 8275SOL     OW28355   8.458   4.226   5.211  0.2067 -0.5344  0.0232
 8275SOL    HW128356   8.409   4.166   5.155  1.3422 -1.5092  0.0283
 8275SOL    HW228357   8.504   4.284   5.150  0.6153 -0.9127 -0.0279
 8276SOL     OW28358   0.696   2.651   2.903 -0.0835 -0.6841 -0.5778
 8276SOL    HW128359   0.744   2.612   2.830 -1.6321 -2.9652 -0.4784
 8276SOL    HW228360   0.678   2.740   2.875  2.3114 -0.4018 -1.4769
 8277SOL     OW28361   9.549   2.320   4.053 -0.1907 -0.0291 -0.7424
 8277SOL    HW128362   9.632   2.309   4.100  0.2069  1.4177 -1.0734
 8277SOL    HW228363   9.482   2.308   4.120  0.1831 -2.5969 -0.7145
 8278SOL     OW28364   4.263   2.688   0.749 -0.2003  0.5290 -0.9046
 8278SOL    HW128365   4.273   2.781   0.771  0.8166  0.9301 -2.8424
 8278SOL    HW228366   4.240   2.688   0.656 -1.7280 -1.1431 -0.5862
 8279SOL     OW28367   0.844   7.780  11.093 -0.0626 -0.1647  0.5570
 8279SOL    HW128368   0.835   7.825  11.009 -0.9743  0.7264  1.0978
 8279SOL    HW228369   0.882   7.695  11.071 -0.7597 -0.1554 -0.8209
 8280SOL     OW28370   4.529   2.311   9.479  0.5548 -0.1484  0.0454
 8280SOL    HW128371   4.567   2.230   9.443 -0.5566 -0.2543 -0.9693
 8280SOL    HW228372   4.452   2.281   9.527  1.1530  0.1552  1.2197
 8281SOL     OW28373   0.411   4.406  10.886  0.1513  0.3751 -0.4562
 8281SOL    HW128374   0.404   4.353  10.807  0.6621  0.5816 -0.6465
 8281SOL    HW228375   0.478   4.362  10.939 -0.8591 -0.3061  0.3074
 8282SOL     OW28376   3.263   0.172   0.014 -0.3682 -0.3778 -0.2671
 8282SOL    HW128377   3.276   0.088   0.058  1.7431 -0.8682 -1.6732
 8282SOL    HW228378   3.328   0.230   0.055  0.3321 -0.3323 -1.4137
 8283SOL     OW28379   7.763   4.820   4.266 -0.3172 -0.7406  0.6017
 8283SOL    HW128380   7.731   4.798   4.354 -0.8021  1.3045  0.9990
 8283SOL    HW228381   7.702   4.887   4.235  0.8143 -0.2266 -0.6054
 8284SOL     OW28382   3.150   4.162   0.080  0.3205  0.0575  0.4308
 8284SOL    HW128383   3.192   4.181   0.163  2.3491  0.6721 -0.6729
 8284SOL    HW228384   3.058   4.186   0.094  0.6013  0.1203  2.4635
 8285SOL     OW28385   4.862   7.974   7.578 -0.7757  0.3345  0.3220
 8285SOL    HW128386   4.944   8.009   7.612 -1.0356  1.2773  0.0231
 8285SOL    HW228387   4.818   7.936   7.654 -1.1120  1.9422  0.9767
 8286SOL     OW28388   2.812   2.402   6.579 -0.2892 -0.4656 -0.6257
 8286SOL    HW128389   2.823   2.363   6.666 -1.0380 -2.1351 -1.2278
 8286SOL    HW228390   2.890   2.456   6.566 -0.5028  0.3866  1.3450
 8287SOL     OW28391   8.957   3.060   6.970  0.1995 -0.2715 -0.0422
 8287SOL    HW128392   8.878   3.007   6.968 -1.2777  1.7871 -0.6552
 8287SOL    HW228393   9.028   2.999   6.953 -1.3891 -2.0020 -0.7879
 8288SOL     OW28394   3.176   9.697   5.725 -0.5308  0.2806  0.2363
 8288SOL    HW128395   3.175   9.749   5.805  1.4042 -0.5928  0.8895
 8288SOL    HW228396   3.189   9.761   5.655  0.0339  0.8639  0.8606
 8289SOL     OW28397   8.362   9.167   9.038  0.1810 -0.5485  0.3134
 8289SOL    HW128398   8.435   9.141   8.982  0.1412 -0.0172  0.0018
 8289SOL    HW228399   8.285   9.126   8.998  0.4164 -1.8656  1.1658
 8290SOL     OW28400   5.162   8.453   1.867 -0.7183  0.0865 -0.2391
 8290SOL    HW128401   5.200   8.400   1.937  0.8146  0.1479 -0.9828
 8290SOL    HW228402   5.165   8.543   1.900  1.5750  0.3388 -0.9755
 8291SOL     OW28403  10.143   9.310   0.621  0.5278  0.4501 -0.1056
 8291SOL    HW128404  10.218   9.259   0.590  0.8719  0.9831 -0.1715
 8291SOL    HW228405  10.106   9.348   0.541  0.8903  1.1270  0.0465
 8292SOL     OW28406   6.546   2.385   2.421 -0.4351  0.5642 -0.3707
 8292SOL    HW128407   6.608   2.312   2.433  0.8058  1.0135 -3.2583
 8292SOL    HW228408   6.460   2.343   2.419 -0.0101 -0.4414  0.8290
 8293SOL     OW28409   0.079   4.038  10.067 -0.6107  0.3798  0.1211
 8293SOL    HW128410   0.078   3.981   9.990  0.1497  1.9886 -1.1371
 8293SOL    HW228411   0.070   4.126  10.032  2.2950  1.4104  1.6069
 8294SOL     OW28412   1.183   9.394  10.712  0.9437 -0.3353 -0.4608
 8294SOL    HW128413   1.195   9.482  10.748  0.2244 -0.8616  1.1557
 8294SOL    HW228414   1.265   9.375  10.666  2.5714 -0.1747  2.1592
 8295SOL     OW28415  10.599   3.602   6.587  0.5856 -0.5556  0.2195
 8295SOL    HW128416  10.554   3.656   6.652 -0.4579 -0.4760 -0.5382
 8295SOL    HW228417  10.603   3.515   6.626  0.6703 -0.3378  0.7070
 8296SOL     OW28418   3.364   3.850   6.442  0.5780  0.1957 -0.4046
 8296SOL    HW128419   3.450   3.848   6.484 -0.1851  1.9520  1.4293
 8296SOL    HW228420   3.368   3.925   6.383  0.5544 -0.2406 -0.9701
 8297SOL     OW28421   4.201   0.167   4.039 -0.0676 -0.4194 -0.3977
 8297SOL    HW128422   4.252   0.098   3.997 -0.6053 -0.2386 -1.3786
 8297SOL    HW228423   4.188   0.136   4.129  0.6709 -1.0540 -0.5027
 8298SOL     OW28424  10.418   4.891   2.584  0.4004  0.2432 -0.4801
 8298SOL    HW128425  10.394   4.932   2.500 -0.1722 -1.5645 -1.2442
 8298SOL    HW228426  10.350   4.921   2.645 -1.6806 -1.6755 -1.6924
 8299SOL     OW28427  10.239   9.544   5.873 -0.7970 -0.0047 -0.4709
 8299SOL    HW128428  10.321   9.588   5.894 -1.3849  0.6124  0.5893
 8299SOL    HW228429  10.250   9.455   5.905 -0.0364 -0.3358 -1.5881
 8300SOL     OW28430   4.091   9.713   1.378  0.4783 -0.8392 -0.0011
 8300SOL    HW128431   4.146   9.785   1.347 -1.0144  0.3589  0.0653
 8300SOL    HW228432   4.058   9.672   1.298  0.3454 -0.6840 -0.0250
 8301SOL     OW28433   9.180   3.443   0.042 -0.2700  0.3019 -0.1208
 8301SOL    HW128434   9.168   3.442  -0.053 -0.8031 -1.3775 -0.0620
 8301SOL    HW228435   9.111   3.503   0.074 -0.5564  0.3055 -0.7347
 8302SOL     OW28436   5.945   5.032   9.611 -0.0817 -0.2734  0.4851
 8302SOL    HW128437   5.949   5.056   9.519  0.6810 -0.5778  0.4242
 8302SOL    HW228438   5.980   4.942   9.613  2.0527  0.5053  1.3225
 8303SOL     OW28439   5.289   0.448   3.480 -0.5319  0.3915  0.7066
 8303SOL    HW128440   5.302   0.356   3.461  0.8853  0.4893  1.0801
 8303SOL    HW228441   5.344   0.494   3.417  1.3183  0.8324  2.5191
 8304SOL     OW28442   8.688   0.960   8.643  0.6096  1.2428 -0.5972
 8304SOL    HW128443   8.657   0.921   8.725  1.4482 -1.0287 -1.2688
 8304SOL    HW228444   8.614   1.013   8.612 -1.5178 -1.5021 -0.6199
 8305SOL     OW28445   8.050   6.103   1.625  0.0469 -0.4916 -0.6238
 8305SOL    HW128446   7.964   6.068   1.647  0.3383 -1.0911 -0.3973
 8305SOL    HW228447   8.091   6.033   1.573  1.3448 -1.3103  1.3835
 8306SOL     OW28448   6.814   7.629   7.675 -0.0698 -0.0352 -0.4466
 8306SOL    HW128449   6.801   7.682   7.597  1.8989  1.0240 -0.1197
 8306SOL    HW228450   6.728   7.590   7.692 -1.2527  1.9815 -1.4511
 8307SOL     OW28451   9.203   7.790   8.363  0.1083  0.1441 -0.2960
 8307SOL    HW128452   9.114   7.799   8.330  0.1437  0.6935 -0.2478
 8307SOL    HW228453   9.197   7.812   8.456 -0.2755 -2.8803  0.4926
 8308SOL     OW28454   2.562   6.736   7.430  0.3256 -0.3971  0.3789
 8308SOL    HW128455   2.605   6.798   7.371  1.7291 -2.8095 -1.3022
 8308SOL    HW228456   2.475   6.724   7.393 -0.7103  1.9183  1.8367
 8309SOL     OW28457   3.672   7.551   8.961 -0.1985  0.2115  0.2694
 8309SOL    HW128458   3.630   7.632   8.987 -0.9542  0.5835 -1.9791
 8309SOL    HW228459   3.750   7.578   8.913  0.9246 -0.4556  1.6297
 8310SOL     OW28460   5.249   9.456   6.065 -0.4241  0.2015  0.1966
 8310SOL    HW128461   5.313   9.391   6.033  2.3979  2.0738  1.5699
 8310SOL    HW228462   5.227   9.507   5.987  0.3677 -0.0255 -0.1942
 8311SOL     OW28463   9.421  10.099   2.496 -0.1125 -0.6416  0.3761
 8311SOL    HW128464   9.381  10.113   2.411  2.4524 -2.2220 -1.2446
 8311SOL    HW228465   9.436  10.186   2.531  0.6493  0.1511 -1.7772
 8312SOL     OW28466  10.946   1.130   9.660  0.0718  0.3089 -0.0456
 8312SOL    HW128467  10.964   1.049   9.707  1.8609  1.9362  2.3170
 8312SOL    HW228468  10.872   1.169   9.707  0.3020  0.8189 -0.0972
 8313SOL     OW28469   2.423   3.807   7.053 -0.2630 -0.1191  0.0418
 8313SOL    HW128470   2.339   3.774   7.021 -0.0403 -0.6003 -0.0496
 8313SOL    HW228471   2.487   3.740   7.027  0.1522  0.2531  0.0887
 8314SOL     OW28472   0.829   9.614   3.131  0.0043  0.0353 -0.0105
 8314SOL    HW128473   0.915   9.612   3.089  0.2608  1.6102  0.3732
 8314SOL    HW228474   0.787   9.692   3.097 -0.4965  0.3530  1.2622
 8315SOL     OW28475   3.209   2.305   1.210 -0.1713  0.3591 -0.2096
 8315SOL    HW128476   3.129   2.304   1.156  0.2110  0.4804 -0.7865
 8315SOL    HW228477   3.215   2.395   1.241 -1.0381  0.0126  1.0284
 8316SOL     OW28478   7.237   1.826   4.090 -0.1782 -0.3971 -0.8529
 8316SOL    HW128479   7.239   1.893   4.022  0.4657 -0.3341 -0.7782
 8316SOL    HW228480   7.145   1.800   4.096 -0.2087 -0.5666 -1.9087
 8317SOL     OW28481  10.282  10.416   9.704 -0.0950 -0.1347  0.5301
 8317SOL    HW128482  10.310  10.479   9.637 -0.2961  0.6545  1.1699
 8317SOL    HW228483  10.189  10.435   9.717 -0.1235 -0.4823  0.8236
 8318SOL     OW28484   7.281   7.992   7.609 -0.0489  0.5294 -0.0348
 8318SOL    HW128485   7.272   7.993   7.704  1.1134  0.7173  0.0778
 8318SOL    HW228486   7.360   7.942   7.592  0.4362  1.5282 -0.8326
 8319SOL     OW28487   9.668   3.540   8.521 -0.2059  0.1454  0.0043
 8319SOL    HW128488   9.697   3.610   8.462 -0.8428  1.7991  1.5448
 8319SOL    HW228489   9.694   3.570   8.608 -0.3019 -1.6732  0.7016
 8320SOL     OW28490   6.193   7.524   2.345 -0.0522 -0.6447 -0.4512
 8320SOL    HW128491   6.228   7.541   2.433  1.0152  0.6792 -1.0972
 8320SOL    HW228492   6.187   7.429   2.340  1.3539 -0.8069  0.5025
 8321SOL     OW28493   4.527   0.845   8.737  0.1457  0.3668 -0.1681
 8321SOL    HW128494   4.518   0.905   8.811  1.0165  1.3754 -0.8380
 8321SOL    HW228495   4.472   0.771   8.759  0.1246  0.7945  1.3345
 8322SOL     OW28496   4.070   2.969   5.205  0.4276 -0.8463  0.1241
 8322SOL    HW128497   4.122   2.998   5.280 -2.6057  3.2815  1.0219
 8322SOL    HW228498   4.110   3.013   5.129 -0.0301  0.0246  0.3714
 8323SOL     OW28499   4.261   8.819   4.395  0.0149 -0.1219  0.0513
 8323SOL    HW128500   4.267   8.877   4.319  1.3168  0.3515  0.4918
 8323SOL    HW228501   4.341   8.835   4.445  0.3598 -2.1840  0.2753
 8324SOL     OW28502   7.615   3.761   7.958  0.0545  0.3143 -0.0919
 8324SOL    HW128503   7.700   3.739   7.997  0.3974  1.5791 -0.0713
 8324SOL    HW228504   7.564   3.796   8.031  0.0495  0.9560 -0.3971
 8325SOL     OW28505   3.625   8.266   3.166  0.1156  0.2076  0.2587
 8325SOL    HW128506   3.565   8.304   3.231 -0.0985  1.0690 -0.4216
 8325SOL    HW228507   3.609   8.317   3.087 -0.1559 -1.3061 -0.6965
 8326SOL     OW28508   4.721   6.936  10.437 -0.7168 -0.0425  0.1385
 8326SOL    HW128509   4.763   7.000  10.378 -0.9877 -0.3767 -0.4251
 8326SOL    HW228510   4.789   6.913  10.499 -1.0545  2.0148  1.3759
 8327SOL     OW28511   0.444  11.013   4.800  0.1807 -0.6688  0.0190
 8327SOL    HW128512   0.475  11.088   4.851 -0.3483 -1.5299  1.6640
 8327SOL    HW228513   0.517  10.951   4.802  0.7251 -0.1281 -1.5769
 8328SOL     OW28514   1.418   3.373   6.814 -0.0975 -0.1433  0.0188
 8328SOL    HW128515   1.448   3.283   6.827 -0.6844 -0.3656 -0.1541
 8328SOL    HW228516   1.363   3.392   6.890 -0.5866 -0.1904 -0.3209
 8329SOL     OW28517  11.094   1.607  10.257  0.4338  0.2435 -0.6035
 8329SOL    HW128518  11.035   1.581  10.327 -0.1773 -1.7717 -1.7752
 8329SOL    HW228519  11.085   1.702  10.250  2.3284  0.9345  3.5811
 8330SOL     OW28520   2.051   1.208   8.536  1.1025 -0.3598  0.0332
 8330SOL    HW128521   2.140   1.176   8.517  1.9760  0.8932  1.7588
 8330SOL    HW228522   2.010   1.136   8.585  1.7435 -0.3320  0.6286
 8331SOL     OW28523   3.942   5.523   6.343 -0.8351 -0.6627 -0.4988
 8331SOL    HW128524   3.992   5.479   6.412 -0.0557  1.7755  0.6074
 8331SOL    HW228525   4.009   5.569   6.292 -1.7906  1.8470  0.3998
 8332SOL     OW28526   5.847  10.547   0.223  0.2963  0.1260  0.1404
 8332SOL    HW128527   5.860  10.638   0.197 -1.7563  0.0747 -1.3830
 8332SOL    HW228528   5.793  10.552   0.302 -1.5854  0.2985 -1.0885
 8333SOL     OW28529   1.724   7.911   0.046  0.3920  0.1668  0.0363
 8333SOL    HW128530   1.719   7.840   0.110  2.0459  0.0135  0.0432
 8333SOL    HW228531   1.651   7.895  -0.013  0.2037 -1.0228  0.5589
 8334SOL     OW28532   7.423   6.545   6.466 -0.0214 -0.2665 -0.4379
 8334SOL    HW128533   7.374   6.627   6.464  0.2861 -0.0849 -0.6580
 8334SOL    HW228534   7.500   6.562   6.411 -0.7450 -1.2217 -1.7879
 8335SOL     OW28535   5.123   9.019   6.891 -0.3041 -0.9372 -0.4651
 8335SOL    HW128536   5.185   8.968   6.840  0.0564 -0.3764 -0.5964
 8335SOL    HW228537   5.087   9.083   6.829  0.6830  0.2346  0.1268
 8336SOL     OW28538   2.557   8.985   7.699 -0.4134 -0.2302 -0.2445
 8336SOL    HW128539   2.524   9.015   7.615 -1.5195 -0.4754  0.0797
 8336SOL    HW228540   2.639   8.941   7.679  0.6388  1.8646 -0.8864
 8337SOL     OW28541   0.667   5.581   5.307 -0.1086 -0.7725 -0.0045
 8337SOL    HW128542   0.576   5.571   5.279  0.2457 -2.4512 -0.7031
 8337SOL    HW228543   0.661   5.615   5.397 -1.3186  1.8368 -0.9969
 8338SOL     OW28544   5.690   5.924  10.394  0.1846  0.5157 -0.2419
 8338SOL    HW128545   5.755   5.908  10.461 -0.9956 -0.9430  0.6222
 8338SOL    HW228546   5.670   5.837  10.358  0.0546  1.1392 -1.7854
 8339SOL     OW28547   9.774   9.874   8.603  0.2443 -0.4935 -0.2609
 8339SOL    HW128548   9.817   9.876   8.688  0.3532 -0.3167 -0.3211
 8339SOL    HW228549   9.762   9.966   8.580 -0.5226 -0.5289 -0.0599
 8340SOL     OW28550   2.938   5.000   5.771 -0.2980 -0.0667 -0.1434
 8340SOL    HW128551   2.927   4.905   5.774  0.5804 -0.1926 -0.6037
 8340SOL    HW228552   2.850   5.035   5.782 -0.6060 -0.9329  0.1920
 8341SOL     OW28553   2.016   1.786   4.031 -0.7917 -0.5266  0.0827
 8341SOL    HW128554   2.026   1.844   4.106 -0.4510 -0.8999  0.3342
 8341SOL    HW228555   2.014   1.845   3.955  0.0111 -0.2043  0.2951
 8342SOL     OW28556   9.983  10.224   6.157 -0.7119  0.3775  0.0526
 8342SOL    HW128557   9.955  10.134   6.170 -1.9591  0.5496 -1.1573
 8342SOL    HW228558  10.076  10.218   6.135 -0.4338 -0.4719  1.3466
 8343SOL     OW28559   8.629   2.616   9.136 -0.5558  0.1580  0.2131
 8343SOL    HW128560   8.706   2.647   9.183 -0.6059  0.4878  0.0846
 8343SOL    HW228561   8.596   2.542   9.188  0.2735 -0.4595 -0.1233
 8344SOL     OW28562   9.560   2.739  11.007 -0.2165 -0.1461 -0.6532
 8344SOL    HW128563   9.589   2.651  11.030 -0.3115  0.5748  2.8049
 8344SOL    HW228564   9.640   2.791  11.005 -0.3648  0.0922 -0.4786
 8345SOL     OW28565   5.801   5.414   8.619  0.2374 -0.2894  0.5532
 8345SOL    HW128566   5.780   5.466   8.696 -0.5813 -0.8911  0.7480
 8345SOL    HW228567   5.897   5.407   8.620  0.2241 -0.5216  1.6759
 8346SOL     OW28568   7.642   9.316   5.683  0.4786  0.0614 -0.3093
 8346SOL    HW128569   7.547   9.328   5.672  0.5082 -0.4426 -1.2149
 8346SOL    HW228570   7.680   9.393   5.641  0.4762  0.1666 -0.1189
 8347SOL     OW28571   5.178   9.550   8.388  0.0828 -0.4839  0.0488
 8347SOL    HW128572   5.255   9.500   8.363 -1.0312 -1.7091 -1.1264
 8347SOL    HW228573   5.171   9.618   8.320  0.4046 -0.0617  0.4370
 8348SOL     OW28574   9.473   3.403  10.448  0.4681 -0.8565  0.3110
 8348SOL    HW128575   9.440   3.361  10.369  2.4314 -0.5819 -0.7121
 8348SOL    HW228576   9.527   3.476  10.416  1.5970 -0.9585  1.8615
 8349SOL     OW28577   0.058  10.465   7.488 -0.1428 -0.4566 -0.9899
 8349SOL    HW128578   0.081  10.558   7.495 -0.7951 -0.1894 -2.1913
 8349SOL    HW228579  -0.020  10.464   7.434 -1.9450 -1.4835  1.4431
 8350SOL     OW28580   6.896   9.121   9.623  0.1561 -0.0201  0.5413
 8350SOL    HW128581   6.808   9.119   9.662 -0.0001  0.0375  0.1971
 8350SOL    HW228582   6.923   9.029   9.619 -0.7635 -0.2536 -1.2946
 8351SOL     OW28583   3.644   9.826   8.145 -0.1431  0.5864  0.5201
 8351SOL    HW128584   3.628   9.817   8.239  0.5987 -2.1507  0.4847
 8351SOL    HW228585   3.735   9.851   8.138 -0.1301  0.5460  0.5418
 8352SOL     OW28586   9.434   8.887   6.402 -0.5815  0.6097  0.0088
 8352SOL    HW128587   9.346   8.876   6.366 -0.3265  0.6171 -0.6142
 8352SOL    HW228588   9.483   8.812   6.370 -0.8743 -0.4925  1.9882
 8353SOL     OW28589   7.212   6.153   9.616  0.3407  0.4829  1.1025
 8353SOL    HW128590   7.175   6.074   9.655  1.0780  0.5872  2.0564
 8353SOL    HW228591   7.156   6.172   9.541 -0.7680 -0.0689  1.7761
 8354SOL     OW28592   5.348   6.983   1.992 -0.0059 -0.0002 -0.0894
 8354SOL    HW128593   5.365   7.077   1.984  0.8304 -0.2730 -3.4430
 8354SOL    HW228594   5.432   6.946   2.020 -0.0819  0.1642  0.3620
 8355SOL     OW28595   5.932   9.765   1.117  0.3010 -0.2131  0.3267
 8355SOL    HW128596   6.019   9.732   1.095  1.0409  1.4870  0.5843
 8355SOL    HW228597   5.901   9.805   1.035 -0.0081 -0.3298  0.3863
 8356SOL     OW28598  10.013   5.467   6.869  0.2612  0.2887 -0.0129
 8356SOL    HW128599  10.050   5.424   6.946  0.2519  1.9026  0.9396
 8356SOL    HW228600  10.038   5.559   6.879 -0.2822  0.6399 -1.6259
 8357SOL     OW28601   0.553   6.382   1.449 -0.4575  0.1822 -0.2933
 8357SOL    HW128602   0.467   6.348   1.424 -0.1476 -1.6859  1.0043
 8357SOL    HW228603   0.615   6.330   1.398  0.0620 -1.9491  2.3165
 8358SOL     OW28604  10.219  11.063   3.899 -1.1941 -0.4294 -0.1281
 8358SOL    HW128605  10.153  10.995   3.896 -0.8401 -0.8371  1.0873
 8358SOL    HW228606  10.291  11.025   3.948 -0.3506  0.2762 -0.7754
 8359SOL     OW28607   9.436   1.126   8.164  0.5842 -0.1574  0.5009
 8359SOL    HW128608   9.507   1.107   8.225 -0.5945  2.0654  2.7545
 8359SOL    HW228609   9.357   1.119   8.217 -0.9199 -2.0251 -1.7970
 8360SOL     OW28610   1.550   7.704   9.133 -0.0381  0.0076  0.6306
 8360SOL    HW128611   1.465   7.709   9.090 -0.3748 -2.9578  0.7355
 8360SOL    HW228612   1.532   7.726   9.224 -0.5448  0.0922  0.5142
 8361SOL     OW28613   4.483   1.319   5.911 -0.5554  0.0554 -0.2320
 8361SOL    HW128614   4.420   1.384   5.877 -0.6939  0.9290  1.5685
 8361SOL    HW228615   4.561   1.370   5.930 -0.7056 -0.2452  1.3286
 8362SOL     OW28616   3.905   3.725   6.443 -0.0969  0.0658  0.4031
 8362SOL    HW128617   3.948   3.807   6.467 -1.1752  0.8924 -0.4208
 8362SOL    HW228618   3.916   3.719   6.348  0.3771 -0.9989  0.5069
 8363SOL     OW28619   0.790   9.235   1.647  0.2801 -0.1357 -0.7069
 8363SOL    HW128620   0.792   9.167   1.580  0.1222 -0.1040 -0.7427
 8363SOL    HW228621   0.859   9.297   1.621  0.4743 -0.3178 -0.6347
 8364SOL     OW28622   6.289   3.678   8.620 -0.3589 -0.6338  0.5892
 8364SOL    HW128623   6.352   3.734   8.665  1.1992 -1.3421 -0.6249
 8364SOL    HW228624   6.343   3.616   8.570 -1.9767  0.0818 -2.2404
 8365SOL     OW28625   4.471   9.513   0.798  0.0166 -0.2287 -0.4138
 8365SOL    HW128626   4.515   9.428   0.801 -0.8195 -0.6547  1.2851
 8365SOL    HW228627   4.440   9.521   0.708  0.5353 -1.5067 -0.7281
 8366SOL     OW28628   4.241   1.631  10.019 -0.2075 -0.1360  0.5370
 8366SOL    HW128629   4.331   1.633   9.986  0.4792 -1.6278  2.1228
 8366SOL    HW228630   4.227   1.540  10.045 -1.7588  0.3117  1.4337
 8367SOL     OW28631   0.992   2.992   7.507  0.5156 -0.0867  0.1891
 8367SOL    HW128632   0.933   2.941   7.451  0.1577 -0.3890  0.8327
 8367SOL    HW228633   1.061   3.022   7.448  0.3809 -0.7788 -0.3317
 8368SOL     OW28634   1.197   8.720   0.831 -0.2236  0.2205  0.1849
 8368SOL    HW128635   1.126   8.670   0.873  0.3157 -0.9381 -0.2394
 8368SOL    HW228636   1.243   8.655   0.778 -0.3215  1.4617 -1.4781
 8369SOL     OW28637   6.095   4.082   3.205  0.3109  0.2347  0.1243
 8369SOL    HW128638   6.073   4.115   3.292  2.3133 -0.7064  1.0772
 8369SOL    HW228639   6.126   4.159   3.157  0.1109  0.6050  0.5880
 8370SOL     OW28640   3.072   3.055   2.972  0.5479 -0.2130  0.0762
 8370SOL    HW128641   3.052   3.133   3.023 -0.5623 -0.1700 -0.3934
 8370SOL    HW228642   3.080   2.985   3.036  0.7991  0.1456  0.4382
 8371SOL     OW28643   3.495   9.152   0.033 -0.2193  0.3152  0.0180
 8371SOL    HW128644   3.590   9.146   0.023 -0.2643 -1.0978  0.1547
 8371SOL    HW228645   3.474   9.079   0.092 -1.0521  2.4103  2.4911
 8372SOL     OW28646   7.390   8.264   5.667 -0.0309  0.3702  0.2098
 8372SOL    HW128647   7.445   8.327   5.620 -0.7009  0.1008 -0.9724
 8372SOL    HW228648   7.313   8.314   5.693 -0.6015  0.0389 -0.8026
 8373SOL     OW28649   1.888   8.281   4.522  0.3705 -0.0052 -1.4405
 8373SOL    HW128650   1.801   8.304   4.554  1.2274 -0.3751  1.5348
 8373SOL    HW228651   1.917   8.358   4.473 -0.8715  0.9685 -0.7113
 8374SOL     OW28652   2.812   0.654   0.145 -0.1157 -0.0012  0.0288
 8374SOL    HW128653   2.728   0.608   0.154 -0.4126  0.7390  1.2054
 8374SOL    HW228654   2.871   0.608   0.205 -0.3939  1.0804  1.1538
 8375SOL     OW28655   3.912   3.325   7.067 -0.1219 -0.0496 -0.4627
 8375SOL    HW128656   3.975   3.303   7.136 -1.2996  2.1388  1.4254
 8375SOL    HW228657   3.964   3.369   7.000  0.6373  0.2489  0.3066
 8376SOL     OW28658   5.581   8.173   7.245 -0.2849  0.4302  0.7244
 8376SOL    HW128659   5.506   8.152   7.300 -1.0664  0.4774 -0.3034
 8376SOL    HW228660   5.621   8.089   7.225 -1.2113  0.2283 -0.3158
 8377SOL     OW28661   5.709   9.680   9.692 -0.0432  0.4696 -0.2855
 8377SOL    HW128662   5.664   9.663   9.609 -0.8607  2.2843 -0.2588
 8377SOL    HW228663   5.783   9.619   9.692 -1.1528 -0.9340 -1.4247
 8378SOL     OW28664  10.153   0.646   9.847  0.3076  0.0970 -0.2426
 8378SOL    HW128665  10.082   0.653   9.911  1.6254 -0.5030  1.3621
 8378SOL    HW228666  10.221   0.705   9.880  1.1522 -0.4788 -0.9141
 8379SOL     OW28667   5.713  10.322   3.310  0.3087  0.7266 -0.5183
 8379SOL    HW128668   5.799  10.282   3.303  0.4953  0.7035  1.3864
 8379SOL    HW228669   5.658  10.255   3.350  0.0631  1.5583  0.6036
 8380SOL     OW28670   5.269   6.120  10.971  0.1060 -0.0586  0.3969
 8380SOL    HW128671   5.210   6.066  10.918 -0.6508 -0.0697  1.2206
 8380SOL    HW228672   5.355   6.081  10.958  0.0114  0.1970 -1.1334
 8381SOL     OW28673   0.834   5.382   6.973  0.2110 -0.3518  0.3249
 8381SOL    HW128674   0.829   5.286   6.970 -1.2586 -0.2705 -1.1769
 8381SOL    HW228675   0.916   5.402   6.928 -1.0556 -0.8645 -2.4293
 8382SOL     OW28676   0.066   4.766   0.949 -0.7628 -0.7197  0.1619
 8382SOL    HW128677   0.014   4.812   0.883 -2.9129 -1.4057  1.2839
 8382SOL    HW228678   0.090   4.833   1.012  2.2351  0.1731 -1.7060
 8383SOL     OW28679   1.943  10.731   2.604  0.0414  0.0994  0.2927
 8383SOL    HW128680   1.995  10.795   2.556 -0.3662  0.3057  0.1183
 8383SOL    HW228681   1.877  10.702   2.542 -2.0852  2.2233  1.3866
 8384SOL     OW28682   6.899   8.022   0.192 -0.5024  0.0425  0.2977
 8384SOL    HW128683   6.858   8.107   0.178  0.8489  0.8575  1.0969
 8384SOL    HW228684   6.956   8.010   0.115  0.8980  0.8589  1.1717
 8385SOL     OW28685  10.042   5.156  10.356  0.5180 -0.0389  0.5076
 8385SOL    HW128686  10.011   5.066  10.361  0.0432 -0.2056 -2.9082
 8385SOL    HW228687  10.123   5.151  10.305  0.4428  1.4782  0.1972
 8386SOL     OW28688  10.929   4.245  10.924 -0.3279  0.0692 -0.2189
 8386SOL    HW128689  10.880   4.242  11.006 -1.3177 -1.2228 -0.8218
 8386SOL    HW228690  11.014   4.206  10.946 -0.7924 -0.8084  0.0753
 8387SOL     OW28691   4.997   4.677   7.135  0.4633  0.6113 -0.3702
 8387SOL    HW128692   4.938   4.676   7.210  0.7735 -0.0024 -0.1326
 8387SOL    HW228693   4.942   4.652   7.061 -0.0084  1.8844 -0.4902
 8388SOL     OW28694   7.659   4.011   3.396  0.3264  0.3186 -0.6360
 8388SOL    HW128695   7.700   4.097   3.407 -1.6720  1.1863  0.5526
 8388SOL    HW228696   7.613   4.017   3.313 -0.3534  0.6583 -0.2436
 8389SOL     OW28697   1.801   0.938   3.836  0.4065  0.2180  0.1933
 8389SOL    HW128698   1.795   0.847   3.867 -0.0965  0.6254  1.3675
 8389SOL    HW228699   1.869   0.977   3.892 -0.4905  0.9634  0.7896
 8390SOL     OW28700   6.298   8.294   6.099  0.0441 -0.2237  0.1171
 8390SOL    HW128701   6.360   8.253   6.160  0.7258  0.0018 -0.4125
 8390SOL    HW228702   6.317   8.387   6.105 -2.5706  0.3076  2.5269
 8391SOL     OW28703   1.665   8.777   8.089 -0.1347  0.1247 -0.2065
 8391SOL    HW128704   1.605   8.804   8.158 -0.4494  2.5693 -1.2973
 8391SOL    HW228705   1.752   8.799   8.122 -0.0654 -0.8718  0.2983
 8392SOL     OW28706   9.709   2.991   5.329  0.1253 -0.4361 -0.4887
 8392SOL    HW128707   9.621   2.999   5.293  1.1936  2.4288 -2.7621
 8392SOL    HW228708   9.731   2.898   5.317 -1.8673 -0.8262 -1.5561
 8393SOL     OW28709   7.902   2.550  10.642  0.0015 -0.3973  0.3177
 8393SOL    HW128710   7.844   2.586  10.575  1.2088  3.1333  0.9566
 8393SOL    HW228711   7.973   2.509  10.592 -0.5256 -0.3171 -0.5276
 8394SOL     OW28712   8.228   8.286   5.804  0.1984  0.3097  0.1015
 8394SOL    HW128713   8.245   8.264   5.896  0.6408  1.0031  0.1865
 8394SOL    HW228714   8.186   8.207   5.769 -1.0572  0.4517  1.1900
 8395SOL     OW28715   6.224   3.164   4.869 -0.5849 -0.4474  0.4246
 8395SOL    HW128716   6.192   3.146   4.958 -0.1823 -1.7690  0.3089
 8395SOL    HW228717   6.178   3.245   4.844 -0.3559  0.2094  1.9990
 8396SOL     OW28718   3.484   7.113   7.219 -0.4640 -0.1559  0.1164
 8396SOL    HW128719   3.491   7.018   7.211 -3.3436 -0.4120 -0.2242
 8396SOL    HW228720   3.511   7.147   7.133 -0.0881 -0.6908  0.0194
 8397SOL     OW28721   3.493   2.929   5.029  0.5829 -0.0274  0.1462
 8397SOL    HW128722   3.523   2.849   4.986 -2.1785 -1.8417  1.3330
 8397SOL    HW228723   3.445   2.898   5.105 -4.3699  2.3753 -1.5860
 8398SOL     OW28724   6.778   9.727   7.426  0.3384  0.1693 -0.2113
 8398SOL    HW128725   6.716   9.793   7.396 -1.4652 -0.6697  1.4636
 8398SOL    HW228726   6.733   9.644   7.415  2.7622 -0.9482 -2.7731
 8399SOL     OW28727   8.114   5.650   1.140  0.1171 -0.2413 -0.1149
 8399SOL    HW128728   8.071   5.671   1.223  1.4473  1.8661  0.0978
 8399SOL    HW228729   8.200   5.617   1.165  1.1875  1.9711 -0.5873
 8400SOL     OW28730   9.321   8.106   2.388  0.2004  0.3856  0.4560
 8400SOL    HW128731   9.294   8.059   2.309 -0.6481 -1.5340  1.8164
 8400SOL    HW228732   9.407   8.069   2.410  0.3489  0.7783  0.5501
 8401SOL     OW28733   9.916  10.194   1.671 -0.6376 -0.0833 -0.6046
 8401SOL    HW128734   9.868  10.249   1.610 -0.0078  0.3739 -0.7013
 8401SOL    HW228735   9.999  10.240   1.685 -0.9231  0.0418  0.9154
 8402SOL     OW28736   7.452   2.503   3.064 -0.0327 -0.1798  0.5544
 8402SOL    HW128737   7.383   2.515   3.129 -0.4353  3.6589 -0.3636
 8402SOL    HW228738   7.533   2.513   3.114 -0.0512 -2.8032  1.2864
 8403SOL     OW28739   5.375   1.459   5.941  0.1597 -0.6583 -0.0564
 8403SOL    HW128740   5.291   1.498   5.914  1.7880  1.3268 -2.7580
 8403SOL    HW228741   5.357   1.366   5.949 -2.6988 -0.1046  1.3022
 8404SOL     OW28742   9.754   8.216   0.708  0.4392  0.6605  0.7566
 8404SOL    HW128743   9.700   8.176   0.776  0.2820 -1.8832 -0.7601
 8404SOL    HW228744   9.768   8.306   0.739  1.3238 -0.6462  4.6692
 8405SOL     OW28745   0.312   6.376   8.096 -0.4726  0.2453  0.0490
 8405SOL    HW128746   0.318   6.289   8.057 -2.6532  0.5596 -1.1495
 8405SOL    HW228747   0.365   6.371   8.175  0.4293 -1.7878 -0.6270
 8406SOL     OW28748   4.145  10.301   4.742 -0.1710  0.5206  0.1553
 8406SOL    HW128749   4.076  10.239   4.765 -0.8033  1.3146  0.4318
 8406SOL    HW228750   4.131  10.319   4.649 -1.4195  1.9733  0.5844
 8407SOL     OW28751   8.121   8.271   6.580  0.2759  0.2557 -0.0910
 8407SOL    HW128752   8.094   8.264   6.488 -0.9109  0.7445  0.1947
 8407SOL    HW228753   8.137   8.365   6.593 -0.0664  0.2593  0.3273
 8408SOL     OW28754   2.567   2.823   2.134  0.7289  0.2405 -0.3893
 8408SOL    HW128755   2.546   2.887   2.065  1.3641 -0.5894 -1.3921
 8408SOL    HW228756   2.628   2.869   2.191 -0.6126  1.3003  0.2625
 8409SOL     OW28757   9.538   1.435   9.384 -0.6550 -0.0391 -0.5131
 8409SOL    HW128758   9.610   1.456   9.325 -0.9641  0.9085 -0.5694
 8409SOL    HW228759   9.577   1.437   9.471 -0.9691  2.5487 -0.3297
 8410SOL     OW28760   5.923   1.596   2.872 -0.5368 -0.5538  0.6410
 8410SOL    HW128761   5.860   1.524   2.870  0.2741 -1.2566 -0.8503
 8410SOL    HW228762   5.975   1.585   2.793 -0.2501  1.5558  0.4802
 8411SOL     OW28763   5.858   3.090   9.241  0.1403  0.6050  0.0474
 8411SOL    HW128764   5.781   3.090   9.298  0.2593  0.4606  0.2089
 8411SOL    HW228765   5.822   3.083   9.153 -0.1462  2.6631 -0.0504
 8412SOL     OW28766   5.736  10.557   0.469  1.1305  0.0727  0.0808
 8412SOL    HW128767   5.714  10.638   0.514  0.4483  1.2392 -2.1910
 8412SOL    HW228768   5.704  10.488   0.526  1.1649  1.4028  1.7831
 8413SOL     OW28769   7.943   0.838  10.751 -0.0061  0.0648  0.4940
 8413SOL    HW128770   7.888   0.768  10.787  0.5758 -0.7682 -0.1954
 8413SOL    HW228771   7.902   0.919  10.782 -0.0494 -0.5795  2.2686
 8414SOL     OW28772   0.728   2.085   6.144  0.3467  0.3808  0.0674
 8414SOL    HW128773   0.652   2.143   6.143 -0.2993 -0.4198  1.1813
 8414SOL    HW228774   0.780   2.114   6.219  0.3478 -0.0785  0.2449
 8415SOL     OW28775   9.967   5.314  10.058 -0.7232 -0.0536 -0.1385
 8415SOL    HW128776   9.894   5.272  10.012 -1.3571  0.0577  0.7527
 8415SOL    HW228777   9.934   5.332  10.145  1.0758 -2.0294  1.0465
 8416SOL     OW28778   5.796  11.077   4.871  0.5474 -0.2566 -0.1529
 8416SOL    HW128779   5.749  11.061   4.790  0.9731 -0.9659 -0.2711
 8416SOL    HW228780   5.729  11.106   4.933 -0.4153 -2.9671  0.2097
 8417SOL     OW28781   5.020   9.370  10.517 -0.2144  0.2479 -0.5857
 8417SOL    HW128782   4.962   9.294  10.513  1.2852 -1.0136  0.2109
 8417SOL    HW228783   5.107   9.335  10.498  0.6544  1.5843  0.6545
 8418SOL     OW28784   8.236   7.607   8.401 -0.4826 -0.2808  0.4729
 8418SOL    HW128785   8.255   7.542   8.468 -2.5724 -0.6745  0.7667
 8418SOL    HW228786   8.149   7.641   8.424 -0.4783  0.8792 -1.0270
 8419SOL     OW28787   9.629   1.383   7.154 -0.0479  0.1326  0.2781
 8419SOL    HW128788   9.642   1.323   7.081  0.2459  0.8562 -0.2870
 8419SOL    HW228789   9.716   1.419   7.171 -0.3503  0.9846  0.0731
 8420SOL     OW28790   7.834   0.710   9.421  0.0374  0.0149 -0.3095
 8420SOL    HW128791   7.864   0.640   9.364  0.2440 -1.2292  1.2365
 8420SOL    HW228792   7.906   0.721   9.484 -1.0271 -0.1705  0.9913
 8421SOL     OW28793   7.248   4.291   6.249  0.5529 -0.3045 -0.0236
 8421SOL    HW128794   7.235   4.210   6.199 -1.4114  0.4043 -0.7169
 8421SOL    HW228795   7.268   4.357   6.183  0.6769  0.0928  0.4086
 8422SOL     OW28796   0.338   0.035   7.526  0.7440  0.4960  0.4937
 8422SOL    HW128797   0.316   0.054   7.617  0.5367 -2.6124  1.2016
 8422SOL    HW228798   0.373  -0.054   7.527  0.0804  0.0690 -2.5522
 8423SOL     OW28799   8.582   0.183   2.288 -0.1102 -0.0309 -0.1626
 8423SOL    HW128800   8.606   0.152   2.201  0.7743 -1.0823  0.4407
 8423SOL    HW228801   8.493   0.217   2.277 -0.0906 -0.3281 -1.4272
 8424SOL     OW28802  10.508   2.884  10.575 -0.6091  0.2457 -0.2576
 8424SOL    HW128803  10.509   2.793  10.545  0.6047  0.2991 -0.4370
 8424SOL    HW228804  10.417   2.911  10.567 -1.1418 -1.2043  0.5537
 8425SOL     OW28805   7.469   8.851   9.491 -0.3823  0.1526 -0.7493
 8425SOL    HW128806   7.462   8.939   9.528 -2.6842 -1.0096  1.9749
 8425SOL    HW228807   7.436   8.860   9.401 -0.4049  2.0863 -0.5847
 8426SOL     OW28808   4.373   5.686   7.851  0.4147  0.3479 -0.6368
 8426SOL    HW128809   4.439   5.654   7.790  1.5353 -0.1444  0.7901
 8426SOL    HW228810   4.303   5.719   7.794  1.1876 -0.5270 -2.1781
 8427SOL     OW28811   8.140   2.849  10.583 -0.1732 -0.4231  0.0161
 8427SOL    HW128812   8.079   2.922  10.582 -0.6470 -0.7980 -1.8210
 8427SOL    HW228813   8.111   2.792  10.512  2.2248 -0.6796 -0.8527
 8428SOL     OW28814   5.511   0.515  10.952 -0.3093 -0.4941  0.1208
 8428SOL    HW128815   5.523   0.422  10.969  0.9738 -0.0711  1.7846
 8428SOL    HW228816   5.477   0.550  11.035 -1.7946  0.3585 -0.8132
 8429SOL     OW28817   5.688   1.948   9.281 -0.4983  0.4201 -0.0855
 8429SOL    HW128818   5.698   1.986   9.194  2.0168  1.2939  0.4874
 8429SOL    HW228819   5.664   1.857   9.265  0.1525  0.4987 -1.7157
 8430SOL     OW28820  10.711   3.490   7.688 -0.1860  0.2453 -0.6094
 8430SOL    HW128821  10.719   3.424   7.619 -0.3185 -1.5876  1.0641
 8430SOL    HW228822  10.801   3.517   7.706 -0.1405  0.6546 -1.3870
 8431SOL     OW28823   3.768  10.455   1.111  0.3473  0.3558 -0.4289
 8431SOL    HW128824   3.707  10.528   1.107  0.3813  0.3521 -2.2791
 8431SOL    HW228825   3.714  10.379   1.131  0.2074  0.7691  0.8156
 8432SOL     OW28826  10.739   0.825   3.863 -0.5683  0.4119 -0.0889
 8432SOL    HW128827  10.683   0.800   3.790 -1.3407 -2.4017  1.3368
 8432SOL    HW228828  10.817   0.771   3.854 -0.2611  0.7163  0.6610
 8433SOL     OW28829   1.114   1.849   7.014  0.0671  0.3779 -0.2095
 8433SOL    HW128830   1.170   1.850   6.936  0.3503 -0.1486 -0.0172
 8433SOL    HW228831   1.128   1.934   7.055 -1.9848  1.7190 -2.0571
 8434SOL     OW28832   7.064   8.153   9.261  0.1412 -0.0693 -0.2220
 8434SOL    HW128833   7.018   8.080   9.301  0.1965  0.1237  0.1961
 8434SOL    HW228834   7.068   8.131   9.168  0.6156 -0.8411 -0.0220
 8435SOL     OW28835   9.856   4.280  10.579  0.1201  0.5980  0.0556
 8435SOL    HW128836   9.881   4.191  10.552 -0.6045  0.4139 -0.0081
 8435SOL    HW228837   9.872   4.281  10.673  0.0108  0.3583  0.0785
 8436SOL     OW28838   7.053   4.111   5.871 -0.6545 -0.1194 -0.4750
 8436SOL    HW128839   6.999   4.159   5.808 -1.6546 -1.2380 -0.5111
 8436SOL    HW228840   7.034   4.019   5.853 -0.0786 -0.4902  0.7101
 8437SOL     OW28841   9.096   3.714   1.521  0.1371 -0.1180  0.0891
 8437SOL    HW128842   9.010   3.756   1.513 -1.3128 -3.1112 -1.7840
 8437SOL    HW228843   9.088   3.632   1.472  4.5628  0.1068 -1.5362
 8438SOL     OW28844   4.110   6.295   9.820 -0.2495 -0.2084 -0.4022
 8438SOL    HW128845   4.118   6.341   9.903 -0.7136  0.4936 -0.7343
 8438SOL    HW228846   4.072   6.211   9.843  0.7123 -0.4855  0.2277
 8439SOL     OW28847  10.693   1.427   0.561 -0.2839  0.2254  0.1223
 8439SOL    HW128848  10.722   1.474   0.639  0.4358  0.7958 -0.4689
 8439SOL    HW228849  10.601   1.408   0.577 -0.8136  2.4939  0.0892
 8440SOL     OW28850   4.121   7.429   8.596 -0.0275 -0.5163  0.7138
 8440SOL    HW128851   4.033   7.405   8.566 -0.5073 -0.4190  1.9913
 8440SOL    HW228852   4.109   7.454   8.687  1.0696  1.0242  0.4737
 8441SOL     OW28853   3.540   8.464   4.075  0.0424  0.3254 -0.0988
 8441SOL    HW128854   3.544   8.385   4.021  1.5750 -0.0847  0.5686
 8441SOL    HW228855   3.446   8.481   4.085 -0.3039 -0.2544 -1.8815
 8442SOL     OW28856   8.730   1.446   5.464 -0.6201  0.7240 -0.3499
 8442SOL    HW128857   8.788   1.453   5.388 -1.1610  1.9247 -0.6710
 8442SOL    HW228858   8.751   1.361   5.503  1.3546  1.1283 -0.4467
 8443SOL     OW28859   6.125   6.567   4.733 -0.0104 -0.5799 -0.1256
 8443SOL    HW128860   6.105   6.623   4.658 -1.0130 -0.8517 -0.0703
 8443SOL    HW228861   6.105   6.478   4.704 -3.5302 -0.4570  1.3770
 8444SOL     OW28862   5.388  10.452  10.667 -0.0040  0.0870  0.2307
 8444SOL    HW128863   5.368  10.516  10.599  2.0029 -1.0508 -1.5249
 8444SOL    HW228864   5.306  10.404  10.679 -0.7959  1.2575 -0.3009
 8445SOL     OW28865   1.525   8.724   7.054  0.1383 -0.0207  0.2972
 8445SOL    HW128866   1.478   8.669   6.992  0.3621  0.5125 -0.3648
 8445SOL    HW228867   1.456   8.770   7.102 -0.0575  1.0154 -0.9016
 8446SOL     OW28868   9.877   1.509   9.372 -0.4909 -0.4968 -0.1934
 8446SOL    HW128869   9.926   1.429   9.350 -0.0038 -0.0597 -0.7413
 8446SOL    HW228870   9.912   1.536   9.457  1.0355  0.4141 -1.0702
 8447SOL     OW28871   1.056   1.591   4.690 -0.1838 -0.1055  0.5969
 8447SOL    HW128872   0.974   1.602   4.642  0.6854  1.9649 -0.5620
 8447SOL    HW228873   1.029   1.587   4.782 -1.5440  2.2884  0.3924
 8448SOL     OW28874   3.848   7.542   2.649 -0.2507  0.2492  0.3859
 8448SOL    HW128875   3.935   7.578   2.634  0.2346 -1.5568 -1.5702
 8448SOL    HW228876   3.853   7.503   2.736  1.0092 -0.1127  0.1648
 8449SOL     OW28877   9.010   0.682   8.721  0.9457 -0.3140  0.1863
 8449SOL    HW128878   8.933   0.718   8.677 -0.4887 -1.9660  1.2207
 8449SOL    HW228879   9.048   0.622   8.657  0.1721 -1.0178  0.3646
 8450SOL     OW28880  10.865   5.968   9.130  0.0200  1.0796 -0.3642
 8450SOL    HW128881  10.939   5.919   9.095 -1.7166 -1.8756 -0.2642
 8450SOL    HW228882  10.813   5.992   9.054 -0.4378  0.3890 -0.2877
 8451SOL     OW28883   3.203   6.976   6.964  0.2134 -0.1395 -0.1705
 8451SOL    HW128884   3.243   6.908   7.019 -0.4841  0.0517  0.5898
 8451SOL    HW228885   3.263   6.984   6.890  0.5547 -1.2503 -0.0392
 8452SOL     OW28886   0.716   8.191  10.995  0.1120  0.4807  0.0133
 8452SOL    HW128887   0.669   8.111  11.018 -0.4104  1.0151  0.8928
 8452SOL    HW228888   0.808   8.165  10.989 -0.2430 -0.5633 -1.6174
 8453SOL     OW28889   3.527   0.343   2.580 -0.6003  0.5624  0.2586
 8453SOL    HW128890   3.491   0.425   2.613 -0.7951  0.6721 -0.2175
 8453SOL    HW228891   3.521   0.351   2.484 -1.3591 -0.3262  0.2207
 8454SOL     OW28892   0.323   9.570   5.890 -0.1042 -0.1924  0.2124
 8454SOL    HW128893   0.364   9.484   5.891  1.3331  0.4705  0.3887
 8454SOL    HW228894   0.233   9.553   5.860  0.8576 -1.4488 -2.2181
 8455SOL     OW28895  11.045   5.082   4.866 -0.4664 -0.1616 -0.0804
 8455SOL    HW128896  11.012   5.165   4.830  0.1661  0.3543  0.4953
 8455SOL    HW228897  10.970   5.023   4.865 -1.2650  0.8087  0.6831
 8456SOL     OW28898   9.475   8.192   0.159 -0.1382 -0.5719 -0.4632
 8456SOL    HW128899   9.451   8.119   0.101  1.0997 -0.1303 -1.6054
 8456SOL    HW228900   9.425   8.266   0.125  0.9841 -0.1891 -1.3681
 8457SOL     OW28901   9.862   9.876   5.663 -0.0503 -0.3159 -0.0844
 8457SOL    HW128902   9.809   9.860   5.585  0.9795 -0.3847 -0.7961
 8457SOL    HW228903   9.951   9.853   5.636  0.9685  3.0023 -0.0671
 8458SOL     OW28904   0.560   9.244   4.442  0.6290  0.0655  0.4450
 8458SOL    HW128905   0.570   9.339   4.437  1.3168 -0.0054  0.3528
 8458SOL    HW228906   0.648   9.212   4.463  0.4825 -0.5747  0.0991
 8459SOL     OW28907   5.977   0.740   6.862  0.6127  0.5863 -0.0144
 8459SOL    HW128908   6.055   0.689   6.886  1.0871  1.4122  0.2290
 8459SOL    HW228909   5.909   0.707   6.921  0.5731 -0.6529 -0.7189
 8460SOL     OW28910   1.066   7.214   9.377  0.6975 -0.3405 -0.5269
 8460SOL    HW128911   1.028   7.208   9.289 -1.2307 -1.6415  0.3081
 8460SOL    HW228912   1.068   7.124   9.408 -1.9296  0.2899  1.9687
 8461SOL     OW28913  10.125   7.037   2.201  0.2366  0.2584  0.0858
 8461SOL    HW128914  10.160   7.096   2.135 -0.0316  0.5286  0.1824
 8461SOL    HW228915  10.139   7.083   2.284 -0.3002  0.3511  0.1305
 8462SOL     OW28916   1.104   9.771   7.238  0.0144  0.2492  0.1229
 8462SOL    HW128917   1.070   9.858   7.258 -1.1675 -0.1033 -0.2255
 8462SOL    HW228918   1.090   9.760   7.144  0.5474 -0.1520  0.0856
 8463SOL     OW28919   2.376   3.837   9.246  0.3354 -0.4626  0.3176
 8463SOL    HW128920   2.325   3.917   9.260 -1.5167 -1.2305 -1.5685
 8463SOL    HW228921   2.330   3.770   9.297 -1.5596 -1.4692 -2.4857
 8464SOL     OW28922   4.371  10.204   0.801 -0.2075  0.5099  0.4401
 8464SOL    HW128923   4.298  10.210   0.863  0.4330  1.9215  1.0955
 8464SOL    HW228924   4.354  10.272   0.736 -0.3178 -0.2585 -0.3505
 8465SOL     OW28925   3.638   8.424   6.574  0.4380 -0.5877  0.2074
 8465SOL    HW128926   3.545   8.403   6.588  0.3760  0.4259  1.3995
 8465SOL    HW228927   3.679   8.339   6.558 -0.6584 -1.0695 -0.1866
 8466SOL     OW28928   6.895   9.590   5.022  0.0540 -0.5153 -0.6838
 8466SOL    HW128929   6.864   9.652   4.956  2.4162  0.2075 -1.2282
 8466SOL    HW228930   6.904   9.507   4.975 -2.0610 -1.0453 -0.2278
 8467SOL     OW28931   5.546   9.580   3.635  0.4465 -0.0186  0.5995
 8467SOL    HW128932   5.547   9.564   3.541 -1.0512 -2.9490  0.9676
 8467SOL    HW228933   5.635   9.558   3.664  1.1552  1.6704 -0.1598
 8468SOL     OW28934   3.565   3.033  10.068 -0.1466 -0.0217 -0.1823
 8468SOL    HW128935   3.484   2.984  10.079 -0.9333  1.2711 -0.0409
 8468SOL    HW228936   3.571   3.050   9.974 -0.3671  0.3999 -0.1244
 8469SOL     OW28937   4.050   0.935   5.655  0.2123  0.1597 -0.5369
 8469SOL    HW128938   3.984   0.912   5.589 -0.1410  0.6846 -0.3759
 8469SOL    HW228939   4.010   1.007   5.704  0.1677 -0.7040  0.7279
 8470SOL     OW28940   5.829   0.217   7.374 -0.1498  0.3877 -0.5462
 8470SOL    HW128941   5.792   0.131   7.357  0.3437  0.3414 -1.4251
 8470SOL    HW228942   5.805   0.270   7.298 -1.1456  1.2822  0.3380
 8471SOL     OW28943   2.749   6.936   6.042 -0.4669  0.4330  0.1857
 8471SOL    HW128944   2.664   6.903   6.072 -1.4053  0.4646 -2.2205
 8471SOL    HW228945   2.728   6.993   5.968  1.6004  1.2757  0.1937
 8472SOL     OW28946   2.259   3.676   6.543 -0.2015 -0.1001  0.3561
 8472SOL    HW128947   2.296   3.658   6.457  0.1912  0.1900  0.4577
 8472SOL    HW228948   2.307   3.753   6.574  1.0698 -1.3484  1.6521
 8473SOL     OW28949   5.742   7.662  10.347 -0.0140  0.0483 -0.0057
 8473SOL    HW128950   5.655   7.641  10.381 -0.0274  2.1483  1.4321
 8473SOL    HW228951   5.742   7.757  10.336  2.7946  0.4337  2.1825
 8474SOL     OW28952  10.801   1.732   2.757  0.0038 -0.3062  0.2660
 8474SOL    HW128953  10.726   1.720   2.815 -0.9561  0.6656 -0.7105
 8474SOL    HW228954  10.798   1.825   2.734  3.0151  0.4239  2.1603
 8475SOL     OW28955   4.535   3.392   1.306  0.4480 -0.0525 -0.4828
 8475SOL    HW128956   4.523   3.479   1.267  0.0327 -0.2775 -0.8711
 8475SOL    HW228957   4.497   3.400   1.394  1.3011  0.4311 -0.1469
 8476SOL     OW28958   8.530   3.014   6.973 -0.3030 -0.2872  0.0182
 8476SOL    HW128959   8.536   3.098   6.928 -2.7301 -0.1758 -0.2067
 8476SOL    HW228960   8.498   3.036   7.061 -2.4530 -1.0332 -0.5211
 8477SOL     OW28961   9.946  11.006   0.421  0.4407  0.3303  0.3314
 8477SOL    HW128962   9.918  11.085   0.468  1.4531  0.8139  0.1688
 8477SOL    HW228963  10.041  11.003   0.435  0.2748 -1.5305  1.3063
 8478SOL     OW28964  10.057  11.021   5.760  0.0741 -0.0505 -0.1038
 8478SOL    HW128965  10.010  11.103   5.748  1.9203  1.0546 -0.1601
 8478SOL    HW228966  10.042  10.998   5.852  1.4366  1.6480  0.5944
 8479SOL     OW28967   8.198   1.210   6.110  0.0749 -0.2456  0.8217
 8479SOL    HW128968   8.277   1.241   6.066 -0.6023  0.1132 -0.1864
 8479SOL    HW228969   8.172   1.132   6.060  0.4316 -1.0608  1.8687
 8480SOL     OW28970  10.448   7.852   0.783 -0.2526  0.3422  0.0589
 8480SOL    HW128971  10.454   7.852   0.878  2.3156 -0.0435 -0.0147
 8480SOL    HW228972  10.386   7.781   0.763  0.6403 -0.8960  1.4308
 8481SOL     OW28973   4.641   7.745   0.199 -0.2646 -0.1020 -0.1685
 8481SOL    HW128974   4.598   7.815   0.150 -0.4391  0.2799  0.5146
 8481SOL    HW228975   4.591   7.738   0.280  0.7114  0.0729  0.4676
 8482SOL     OW28976   2.883   2.178   0.246 -0.0407  0.2507 -0.4317
 8482SOL    HW128977   2.928   2.206   0.326 -0.2212 -0.2402 -0.1564
 8482SOL    HW228978   2.807   2.129   0.277 -0.8973  1.2480 -0.8861
 8483SOL     OW28979   1.855   1.091   8.005 -0.6897  0.3872  0.0424
 8483SOL    HW128980   1.820   1.179   7.995 -0.4974  0.2452 -2.8418
 8483SOL    HW228981   1.829   1.046   7.924  0.8379 -1.6136  0.5791
 8484SOL     OW28982   0.211   6.506   5.303 -0.7718  0.3469  0.1477
 8484SOL    HW128983   0.165   6.498   5.387 -1.2417  1.7160  0.0404
 8484SOL    HW228984   0.215   6.600   5.286 -0.0335  0.1294 -1.0184
 8485SOL     OW28985   5.175   0.349   5.580  0.4045 -0.0013 -0.2796
 8485SOL    HW128986   5.193   0.340   5.486  0.1504 -1.2373 -0.2206
 8485SOL    HW228987   5.124   0.272   5.602 -0.0064  0.5574  0.7745
 8486SOL     OW28988   0.500   8.788   4.718  0.4736 -0.1980  0.0736
 8486SOL    HW128989   0.522   8.808   4.809 -2.2991  1.0820  0.5838
 8486SOL    HW228990   0.415   8.743   4.723 -1.2953  2.5866 -1.9034
 8487SOL     OW28991   7.359   7.759   5.110  0.0668 -0.6788 -0.1843
 8487SOL    HW128992   7.354   7.792   5.020  0.4987 -1.1595 -0.3917
 8487SOL    HW228993   7.270   7.764   5.143 -0.2340 -1.1904 -0.8914
 8488SOL     OW28994   7.692   9.037   1.388  0.7265  0.5847  0.1129
 8488SOL    HW128995   7.731   9.012   1.472  1.0222  0.0442 -0.1767
 8488SOL    HW228996   7.612   8.984   1.382  2.4553 -2.1212 -1.4951
 8489SOL     OW28997   3.636   7.626   2.236 -0.4979 -0.0142  0.0064
 8489SOL    HW128998   3.601   7.646   2.322 -0.5773 -1.4991  0.3474
 8489SOL    HW228999   3.640   7.710   2.191 -0.1359  0.8361  1.5691
 8490SOL     OW29000   1.398   9.079   6.463  0.3827 -0.3360  0.3316
 8490SOL    HW129001   1.322   9.071   6.406  0.3682 -0.5531  0.3799
 8490SOL    HW229002   1.361   9.101   6.549  0.3456 -0.7995  0.4383
 8491SOL     OW29003   3.016  10.811   7.730  0.0431 -0.2372  0.8471
 8491SOL    HW129004   2.942  10.871   7.728  0.5815  0.4493  0.8913
 8491SOL    HW229005   3.021  10.776   7.642  1.4061  1.9412 -0.0379
 8492SOL     OW29006   7.623   2.977   1.846 -0.1122 -0.8110 -0.1212
 8492SOL    HW129007   7.688   2.938   1.904 -0.2089  0.1769  0.6627
 8492SOL    HW229008   7.673   3.003   1.768  0.4068 -0.2300  0.3968
 8493SOL     OW29009   0.030   7.720   6.968  0.4940 -0.1642 -0.3783
 8493SOL    HW129010  -0.054   7.737   7.011  0.8818 -1.7157  1.1330
 8493SOL    HW229011   0.013   7.645   6.911  0.8035 -0.3578 -0.2165
 8494SOL     OW29012   6.262   3.922   6.535 -0.6593  0.7059  0.4515
 8494SOL    HW129013   6.316   3.942   6.459  2.0745  0.2010  2.1303
 8494SOL    HW229014   6.234   3.831   6.521  1.1369  0.0672  0.6843
 8495SOL     OW29015   7.814   6.439  11.034 -0.5875  0.0459  0.0833
 8495SOL    HW129016   7.724   6.419  11.060 -0.5027 -0.8797 -0.2998
 8495SOL    HW229017   7.822   6.403  10.946  0.5952 -1.2187  0.6773
 8496SOL     OW29018   3.214   1.531   1.780  0.1490  0.7003 -0.0680
 8496SOL    HW129019   3.147   1.589   1.745  0.0125  0.4831 -0.1732
 8496SOL    HW229020   3.204   1.450   1.729  2.0184  1.4308 -1.7561
 8497SOL     OW29021   4.334   9.463   3.928 -0.3768  0.3532 -0.2322
 8497SOL    HW129022   4.275   9.444   3.856 -0.0281 -1.9008  0.0082
 8497SOL    HW229023   4.278   9.474   4.004 -0.5639 -0.5114 -0.2433
 8498SOL     OW29024   4.876   2.121   6.378  0.2204  0.2953  0.6585
 8498SOL    HW129025   4.873   2.093   6.469  1.5879  0.6242  0.8230
 8498SOL    HW229026   4.933   2.058   6.335 -2.6452 -1.5993 -0.6679
 8499SOL     OW29027  10.192   1.872   2.315  0.1280 -0.0664 -0.0568
 8499SOL    HW129028  10.154   1.872   2.227 -1.4670  1.4512  0.5795
 8499SOL    HW229029  10.117   1.881   2.374  1.3624  3.1021  1.2707
 8500SOL     OW29030   2.473   5.512   4.532 -0.5439  0.0634  0.0984
 8500SOL    HW129031   2.563   5.537   4.513 -0.2542 -0.2265  1.0365
 8500SOL    HW229032   2.458   5.433   4.481 -0.8076  0.9905 -1.3156
 8501SOL     OW29033   4.694   5.862   0.284  0.0535  0.1524  0.1386
 8501SOL    HW129034   4.638   5.909   0.346 -0.2607  1.8894 -1.3622
 8501SOL    HW229035   4.776   5.913   0.283 -0.2108  0.5916 -1.3627
 8502SOL     OW29036   3.120   5.562   9.713 -0.4460 -0.1871 -0.7939
 8502SOL    HW129037   3.193   5.583   9.654  1.5088  0.4649  1.6851
 8502SOL    HW229038   3.149   5.483   9.758 -0.7663  0.6958  1.0162
 8503SOL     OW29039   1.965   3.312   4.892 -0.0474  0.0075 -0.5861
 8503SOL    HW129040   1.894   3.371   4.864 -0.7794 -1.1988 -1.3769
 8503SOL    HW229041   1.984   3.338   4.982 -0.1796  1.5943 -0.9822
 8504SOL     OW29042   3.310   4.285  10.648 -0.1053  0.3850 -0.6661
 8504SOL    HW129043   3.387   4.320  10.691 -0.0097  0.6525 -1.0480
 8504SOL    HW229044   3.255   4.252  10.719  1.1324 -1.4011 -0.4864
 8505SOL     OW29045   9.950   9.068   1.603 -0.3015 -0.2108 -0.3723
 8505SOL    HW129046   9.950   9.093   1.510  1.3081  0.6159 -0.1725
 8505SOL    HW229047   9.860   9.085   1.632 -0.4813  0.8074 -1.4462
 8506SOL     OW29048   4.837   3.584   0.525  0.0045 -0.0899  0.1726
 8506SOL    HW129049   4.873   3.515   0.581  0.7808 -0.0765 -0.2959
 8506SOL    HW229050   4.798   3.647   0.586  0.3778 -0.3315  0.6671
 8507SOL     OW29051   3.930   4.802   6.443 -0.9324 -0.1578 -0.3537
 8507SOL    HW129052   3.919   4.758   6.359 -0.4959 -0.3973 -0.2859
 8507SOL    HW229053   3.975   4.884   6.421  2.2659 -1.6625 -0.0299
 8508SOL     OW29054  10.766   3.047   5.003 -0.2723  0.0592 -0.2828
 8508SOL    HW129055  10.772   3.051   5.098 -2.3579 -2.1384  0.0142
 8508SOL    HW229056  10.827   3.115   4.973  0.5258  0.7469  2.5728
 8509SOL     OW29057   4.625   5.864   9.083 -0.3061  0.1526  0.3478
 8509SOL    HW129058   4.585   5.879   8.998  0.1047 -0.3822  0.0496
 8509SOL    HW229059   4.636   5.951   9.121  0.9325  0.5309 -0.8078
 8510SOL     OW29060   1.124   2.508   8.626 -0.2874  0.2886 -0.2458
 8510SOL    HW129061   1.093   2.448   8.559  0.2727  0.8300 -0.9986
 8510SOL    HW229062   1.113   2.459   8.708  0.5267 -0.9975 -0.8641
 8511SOL     OW29063  10.746  10.057   6.508 -0.3500 -0.2956 -0.0741
 8511SOL    HW129064  10.732  10.131   6.566  0.9330  0.3436 -0.5357
 8511SOL    HW229065  10.728   9.980   6.562  0.0233  0.3053  0.9385
 8512SOL     OW29066   9.644   5.492   5.102  0.3025  0.3827 -0.0168
 8512SOL    HW129067   9.590   5.496   5.024 -1.4775 -0.9495  1.0631
 8512SOL    HW229068   9.727   5.454   5.072  0.4269  1.8068 -1.5873
 8513SOL     OW29069  10.117   5.666  10.951 -0.0679 -0.2552 -0.0487
 8513SOL    HW129070  10.137   5.598  11.015  2.2557 -0.2342 -0.6475
 8513SOL    HW229071  10.152   5.746  10.989 -1.7790  0.4352  0.1482
 8514SOL     OW29072   6.939   1.325   6.925  0.5398 -0.7295 -0.9104
 8514SOL    HW129073   7.029   1.300   6.943  0.7370 -0.6412 -1.7342
 8514SOL    HW229074   6.936   1.419   6.943  0.5905 -0.7499 -0.7962
 8515SOL     OW29075   1.247   1.870   0.553 -0.2912 -0.2277  0.1348
 8515SOL    HW129076   1.152   1.874   0.565 -0.2224  3.8311  0.4457
 8515SOL    HW229077   1.259   1.842   0.462 -1.8527  0.9845 -0.4802
 8516SOL     OW29078   3.229   8.231   9.001 -0.0908 -0.0240  0.0765
 8516SOL    HW129079   3.296   8.195   9.059 -0.1025  0.0824  0.1564
 8516SOL    HW229080   3.275   8.297   8.949 -0.3714  0.8869  0.9402
 8517SOL     OW29081   6.891   7.573   0.277  0.4628 -0.2798 -0.3013
 8517SOL    HW129082   6.924   7.624   0.351 -0.7311 -0.2435  0.2310
 8517SOL    HW229083   6.826   7.629   0.236 -1.4617 -1.5984  0.7671
 8518SOL     OW29084   8.981   3.481   1.385 -0.5887  0.4484 -0.4748
 8518SOL    HW129085   8.946   3.480   1.474 -0.8340 -2.0051 -0.5225
 8518SOL    HW229086   8.910   3.446   1.331  0.5823 -1.0824 -1.1129
 8519SOL     OW29087   8.265   1.683   1.556  0.1783  0.4887  0.0152
 8519SOL    HW129088   8.239   1.596   1.585  0.6317  0.6849  1.0748
 8519SOL    HW229089   8.274   1.676   1.461 -2.2481  0.0402 -0.2271
 8520SOL     OW29090   7.986   7.056   2.702 -0.4214  0.9602  0.3064
 8520SOL    HW129091   7.936   6.978   2.682 -1.4539  1.1713  1.8453
 8520SOL    HW229092   8.022   7.039   2.789  2.6796  0.6076 -0.9179
 8521SOL     OW29093   3.961   6.155   9.028  0.0695 -0.0842  0.0687
 8521SOL    HW129094   4.054   6.169   9.044  0.1657  1.9371 -1.8467
 8521SOL    HW229095   3.937   6.223   8.966 -2.4107 -1.3607 -0.4864
 8522SOL     OW29096   4.197  11.053   6.944 -0.2497  0.5668  0.1266
 8522SOL    HW129097   4.244  11.042   6.861  2.4612 -0.5012  1.6818
 8522SOL    HW229098   4.190  11.148   6.955 -0.8900  0.7249 -1.4036
 8523SOL     OW29099   4.642  10.625   8.490 -0.0370 -0.6662 -0.0493
 8523SOL    HW129100   4.674  10.696   8.547 -0.2641 -1.2356  0.8108
 8523SOL    HW229101   4.707  10.555   8.501 -0.1414 -0.8190 -0.4140
 8524SOL     OW29102   0.129   2.391   6.201 -0.7304  0.1822 -0.8912
 8524SOL    HW129103   0.199   2.439   6.158  0.2818  0.6694  1.1895
 8524SOL    HW229104   0.085   2.456   6.256 -0.6054 -0.8006  0.4405
 8525SOL     OW29105   5.411   1.499   9.248 -0.3906  0.5523 -0.7133
 8525SOL    HW129106   5.406   1.418   9.197  0.8911  0.5167 -0.8050
 8525SOL    HW229107   5.436   1.470   9.336 -0.8994  0.7648 -0.4982
 8526SOL     OW29108   6.355   9.084   0.855 -0.0459 -0.0325 -0.5222
 8526SOL    HW129109   6.384   9.029   0.927 -1.6368  0.5386  0.5994
 8526SOL    HW229110   6.403   9.050   0.779  1.4417 -0.8398  0.7150
 8527SOL     OW29111   5.178   1.894  10.691 -0.1206  0.4483  0.9139
 8527SOL    HW129112   5.234   1.937  10.627 -2.0206  0.0950 -1.0812
 8527SOL    HW229113   5.240   1.854  10.753  1.9111 -0.7835 -1.6860
 8528SOL     OW29114   4.248   3.732   1.753  0.2866 -0.3321  0.0268
 8528SOL    HW129115   4.236   3.824   1.732  0.1189 -0.7154 -1.6959
 8528SOL    HW229116   4.185   3.715   1.823  0.0149  0.7475  0.0631
 8529SOL     OW29117  10.769   4.251   6.719  0.1951  0.0619 -0.2873
 8529SOL    HW129118  10.853   4.207   6.732 -0.1601 -0.4027  0.5318
 8529SOL    HW229119  10.712   4.183   6.683 -0.4783 -0.3156  1.3855
 8530SOL     OW29120   6.773  11.098   9.187 -0.1064  0.3501 -0.1591
 8530SOL    HW129121   6.760  11.193   9.179  0.2106  0.4883  0.8265
 8530SOL    HW229122   6.732  11.062   9.108  0.1921  1.3357 -0.7872
 8531SOL     OW29123  10.160   6.700   6.927  0.0059 -0.5918  0.1032
 8531SOL    HW129124  10.136   6.772   6.985  0.1956  0.3451 -0.9492
 8531SOL    HW229125  10.123   6.724   6.842 -0.9431 -2.3093 -0.0139
 8532SOL     OW29126   4.209  10.740   2.213 -0.6474  0.3840 -0.2018
 8532SOL    HW129127   4.134  10.681   2.200 -0.8249  0.2245  1.3302
 8532SOL    HW229128   4.276  10.707   2.153 -1.2124 -0.5510 -0.3414
 8533SOL     OW29129  10.314   4.094  10.414 -0.4645 -0.2484  0.4463
 8533SOL    HW129130  10.336   4.025  10.476 -0.5593 -0.8520 -0.1772
 8533SOL    HW229131  10.396   4.112  10.368 -0.2145  0.7225  1.2413
 8534SOL     OW29132   9.959  10.993   7.901  0.4965 -0.0828  0.5501
 8534SOL    HW129133   9.944  10.942   7.981 -0.3486  1.0453  1.1392
 8534SOL    HW229134  10.011  11.069   7.930 -1.1035  1.1313  0.3467
 8535SOL     OW29135   4.904   8.548   4.460 -0.2320 -0.0534 -0.0682
 8535SOL    HW129136   4.981   8.557   4.516  0.3277  0.2356 -0.8477
 8535SOL    HW229137   4.854   8.629   4.474 -0.9869 -0.7197  1.2660
 8536SOL     OW29138   1.982   0.307   4.687  0.2655  0.0729  0.5433
 8536SOL    HW129139   1.948   0.271   4.605  1.2579  0.3992 -0.0296
 8536SOL    HW229140   1.974   0.235   4.750  1.6998 -1.0123 -0.4364
 8537SOL     OW29141  10.758   1.618   8.076 -0.3439  0.0191 -0.5590
 8537SOL    HW129142  10.709   1.632   7.995  0.2439  0.9693 -0.7683
 8537SOL    HW229143  10.691   1.609   8.144 -0.8321  1.0738 -0.8772
 8538SOL     OW29144   6.863   2.094   9.202  0.3481  0.1178 -0.0951
 8538SOL    HW129145   6.807   2.171   9.215 -0.4021 -0.1932 -1.3717
 8538SOL    HW229146   6.804   2.025   9.173  1.4088 -0.1531 -1.7470
 8539SOL     OW29147   2.922   5.014   8.924 -0.2510  0.2964 -0.1738
 8539SOL    HW129148   2.883   5.094   8.959  0.2505  0.4202  0.1199
 8539SOL    HW229149   2.848   4.960   8.899 -0.6342  0.1910  1.1114
 8540SOL     OW29150  10.380   6.960   2.389 -0.1342  0.4513  0.0625
 8540SOL    HW129151  10.441   7.015   2.437 -1.0978  1.7142 -0.1181
 8540SOL    HW229152  10.294   6.995   2.410 -0.7655 -0.7970 -0.3128
 8541SOL     OW29153   2.935   8.536   2.198  0.2959 -0.0392 -0.1062
 8541SOL    HW129154   2.887   8.549   2.116  0.8556  0.0461 -0.4271
 8541SOL    HW229155   2.892   8.595   2.260 -0.4574 -0.4806 -0.1952
 8542SOL     OW29156   1.591  10.532   6.294 -0.1827 -0.0254  0.5303
 8542SOL    HW129157   1.564  10.490   6.375  0.9281  0.7653  1.3341
 8542SOL    HW229158   1.525  10.599   6.277 -1.1565 -1.0852  0.0288
 8543SOL     OW29159   6.546   2.830   7.500  0.1704  0.3710  0.5540
 8543SOL    HW129160   6.629   2.806   7.460 -1.2414 -0.2326 -2.3381
 8543SOL    HW229161   6.491   2.752   7.487 -0.8531  0.7458  2.3942
 8544SOL     OW29162   2.112   2.176   2.537  0.6358  0.0205  0.1885
 8544SOL    HW129163   2.141   2.110   2.474 -1.7484 -1.8973  0.9818
 8544SOL    HW229164   2.088   2.126   2.615  0.2220  2.0026  1.3997
 8545SOL     OW29165   2.663   5.812   4.340 -0.1999 -0.3036 -0.2069
 8545SOL    HW129166   2.759   5.809   4.338 -0.1291  0.8326  0.7000
 8545SOL    HW229167   2.641   5.840   4.429 -1.4428 -2.0000  0.0746
 8546SOL     OW29168  10.086   8.343   8.816 -0.1857 -0.4986 -0.0106
 8546SOL    HW129169  10.170   8.328   8.859  0.9413  0.1018 -1.8554
 8546SOL    HW229170  10.068   8.261   8.770 -0.3666 -0.4589 -0.0126
 8547SOL     OW29171  10.413   6.746   8.958 -0.1017  0.0892  0.4366
 8547SOL    HW129172  10.483   6.716   8.900 -0.5548 -0.2585  0.0648
 8547SOL    HW229173  10.420   6.689   9.035 -1.6062 -1.7375 -0.6893
 8548SOL     OW29174   6.871   5.825   1.409 -0.6122 -0.2375 -0.1593
 8548SOL    HW129175   6.886   5.907   1.362 -0.7357 -0.4174 -0.5192
 8548SOL    HW229176   6.909   5.839   1.495  1.4889 -0.6003 -0.9565
 8549SOL     OW29177  10.994   7.934  10.814 -0.2851  0.0256 -0.8384
 8549SOL    HW129178  11.035   7.985  10.744 -1.3686  0.0458 -1.4830
 8549SOL    HW229179  10.973   7.850  10.774 -1.6237  0.3150 -0.7665
 8550SOL     OW29180   4.004   7.113   1.493 -0.4755  0.0045 -0.1963
 8550SOL    HW129181   4.081   7.125   1.437 -0.5107 -0.6218 -0.3822
 8550SOL    HW229182   3.968   7.029   1.467 -0.2074 -0.5330  1.1065
 8551SOL     OW29183   9.084   4.042  10.811 -0.2678 -0.2156 -0.2925
 8551SOL    HW129184   8.993   4.013  10.808 -0.6328  0.7501  0.6332
 8551SOL    HW229185   9.116   4.030  10.722 -0.8939 -1.8015 -0.3273
 8552SOL     OW29186  10.254   0.877   8.428 -0.1480  0.4615  0.0406
 8552SOL    HW129187  10.310   0.799   8.428  1.0334  1.2865 -0.8035
 8552SOL    HW229188  10.171   0.847   8.467  0.1139 -1.3293 -0.7155
 8553SOL     OW29189   6.850   6.267   0.997  0.3561  0.0975  0.2785
 8553SOL    HW129190   6.923   6.219   1.034  0.6675 -0.0288 -0.4795
 8553SOL    HW229191   6.885   6.355   0.980 -0.1819  0.5950  1.5680
 8554SOL     OW29192   1.904   8.106   7.000 -0.0684  0.1659 -0.3782
 8554SOL    HW129193   1.870   8.049   7.070 -1.3851  0.3456 -0.8317
 8554SOL    HW229194   1.981   8.147   7.038 -1.7333  1.6232  1.6650
 8555SOL     OW29195   8.680  11.002   6.132 -0.7581 -0.1125  0.4949
 8555SOL    HW129196   8.595  11.046   6.125 -1.1191 -0.9072 -0.4090
 8555SOL    HW229197   8.669  10.922   6.080  0.9553  0.4136 -0.7566
 8556SOL     OW29198   9.708  10.906   9.774  0.2812 -0.3189 -0.4768
 8556SOL    HW129199   9.630  10.859   9.745 -0.4556 -0.6314  1.8734
 8556SOL    HW229200   9.676  10.988   9.810  0.9108 -0.7589  1.1860
 8557SOL     OW29201   8.559   2.624   8.842  0.2687  0.0202 -0.1625
 8557SOL    HW129202   8.545   2.547   8.788  0.9116  0.6786 -1.3198
 8557SOL    HW229203   8.652   2.621   8.864  0.5878  1.0947 -1.2663
 8558SOL     OW29204   0.735   7.988   6.592  0.8247  0.6251  0.0132
 8558SOL    HW129205   0.792   7.913   6.573  1.5621  1.3489 -0.7083
 8558SOL    HW229206   0.683   7.960   6.668  1.4736 -0.4073  0.0941
 8559SOL     OW29207   3.084   1.657  10.500  0.0298 -0.0196 -0.5282
 8559SOL    HW129208   3.008   1.602  10.479 -0.6500  0.4122  0.6800
 8559SOL    HW229209   3.045   1.739  10.532  0.9134 -0.5810  2.2735
 8560SOL     OW29210   4.723   6.683   2.917 -0.0574  0.0945 -0.0119
 8560SOL    HW129211   4.750   6.602   2.874 -0.1973 -0.0579  0.1879
 8560SOL    HW229212   4.646   6.712   2.867 -1.2176 -0.9369  1.1098
 8561SOL     OW29213   5.360   9.366   2.244  0.7864 -0.1614  0.1383
 8561SOL    HW129214   5.399   9.280   2.258  3.8781  1.1408  0.3200
 8561SOL    HW229215   5.285   9.369   2.303  1.8217 -1.9813  1.6227
 8562SOL     OW29216   7.967   5.384   0.469  0.4596  0.1769 -0.6787
 8562SOL    HW129217   7.964   5.454   0.535 -0.1298  0.5602 -1.0986
 8562SOL    HW229218   8.047   5.336   0.488  0.0625 -0.0083  0.6070
 8563SOL     OW29219   4.988   4.721   4.858 -0.4705 -0.7141 -0.1468
 8563SOL    HW129220   4.993   4.673   4.776 -1.0450 -3.1170  1.1527
 8563SOL    HW229221   5.074   4.713   4.897  0.5531  2.3750 -1.4173
 8564SOL     OW29222   6.590   9.888   1.440 -1.1499  0.0610 -0.0788
 8564SOL    HW129223   6.526   9.868   1.507  0.7601 -0.2151  1.7750
 8564SOL    HW229224   6.637   9.806   1.425  0.0607  0.6842  0.0883
 8565SOL     OW29225   4.224   6.429  10.043  0.4541  0.3190 -0.5396
 8565SOL    HW129226   4.294   6.494  10.039  1.1727  0.1220  3.7744
 8565SOL    HW229227   4.147   6.477  10.073  0.2156 -0.3099 -0.1084
 8566SOL     OW29228   1.975  10.201   7.624  0.3301  0.1443 -0.1563
 8566SOL    HW129229   2.019  10.130   7.671 -0.2482 -1.0319 -1.3443
 8566SOL    HW229230   1.903  10.227   7.681  0.0042 -0.8398 -0.1182
 8567SOL     OW29231   7.372   6.311   7.375 -0.1186 -0.0615  0.4685
 8567SOL    HW129232   7.317   6.321   7.298 -0.4299  1.5054  0.8602
 8567SOL    HW229233   7.313   6.283   7.444 -0.3201  0.9363  0.7172
 8568SOL     OW29234   6.743   9.393   0.432 -0.0341  0.8294  0.0079
 8568SOL    HW129235   6.778   9.398   0.521 -3.8998 -1.9207  1.9734
 8568SOL    HW229236   6.751   9.301   0.408  0.2734  1.3866 -2.2720
 8569SOL     OW29237   9.671   1.282   3.531 -0.4139 -0.0529  0.3704
 8569SOL    HW129238   9.688   1.257   3.622 -0.3359 -2.8154 -0.3237
 8569SOL    HW229239   9.751   1.326   3.503  1.0537 -2.3627  0.6557
 8570SOL     OW29240   0.183  10.953   8.509  0.0728 -0.1399 -0.3684
 8570SOL    HW129241   0.138  10.879   8.550 -0.3654 -1.2373 -2.7033
 8570SOL    HW229242   0.276  10.931   8.517  0.0012 -0.2733  0.1297
 8571SOL     OW29243   4.945   2.181   8.130 -0.3927 -0.5186  0.2372
 8571SOL    HW129244   4.962   2.098   8.175  0.0897 -0.9067 -0.6418
 8571SOL    HW229245   5.032   2.219   8.118 -0.5165 -0.4347 -0.3877
 8572SOL     OW29246   8.076  11.041   9.820 -0.3127 -0.2406 -0.4058
 8572SOL    HW129247   8.077  10.997   9.905 -1.4475 -1.4483 -0.9764
 8572SOL    HW229248   8.106  10.975   9.758  0.1249  0.5057 -1.0086
 8573SOL     OW29249  10.288   7.717   6.653  0.1211  0.0277 -0.2608
 8573SOL    HW129250  10.323   7.718   6.743 -0.5493 -0.0879  0.0046
 8573SOL    HW229251  10.340   7.650   6.609  0.4377  0.0653  0.0473
 8574SOL     OW29252   7.889  10.608   3.410 -0.1489 -0.0619 -0.3078
 8574SOL    HW129253   7.974  10.566   3.403 -0.6556 -1.2413  0.3132
 8574SOL    HW229254   7.901  10.695   3.372  1.1730 -0.4259 -0.7470
 8575SOL     OW29255   9.407   5.698   6.552  0.1511 -0.1870 -0.1708
 8575SOL    HW129256   9.378   5.610   6.576  1.3896 -0.2089  1.3565
 8575SOL    HW229257   9.346   5.724   6.482  0.3530 -2.6081 -1.3774
 8576SOL     OW29258   9.594   0.210   8.518  0.1212  0.2390  0.6229
 8576SOL    HW129259   9.600   0.262   8.598  0.1271  1.0823  0.0833
 8576SOL    HW229260   9.685   0.185   8.499  0.7034  3.1915 -1.1316
 8577SOL     OW29261  10.412   3.880   2.918  0.4634 -0.1256 -0.6149
 8577SOL    HW129262  10.405   3.797   2.965 -3.0884  1.3629  2.0341
 8577SOL    HW229263  10.491   3.921   2.954  0.4677 -1.0476  0.5196
 8578SOL     OW29264   1.107   8.893   9.910  0.0680 -0.0308  0.0620
 8578SOL    HW129265   1.185   8.839   9.895 -0.2699 -1.0042  1.5310
 8578SOL    HW229266   1.129   8.946   9.986 -1.1509 -1.3580  1.4197
 8579SOL     OW29267   4.583  10.113  10.766 -0.8280 -0.5064  0.4465
 8579SOL    HW129268   4.658  10.137  10.821 -0.2006  0.2501 -0.7127
 8579SOL    HW229269   4.586  10.174  10.693 -0.3285 -2.8316 -1.6146
 8580SOL     OW29270   6.346   4.815  10.803  0.1377 -0.5250 -0.2495
 8580SOL    HW129271   6.411   4.822  10.732  1.3291  1.4626  0.9372
 8580SOL    HW229272   6.284   4.886  10.785 -0.4744 -1.0491 -0.1915
 8581SOL     OW29273   5.557   7.982   1.470  0.0872 -0.1180  0.2883
 8581SOL    HW129274   5.650   7.975   1.490  0.2533  0.0252 -0.3991
 8581SOL    HW229275   5.549   8.067   1.425 -0.4535  0.0900  0.7618
 8582SOL     OW29276   3.373   1.914   2.576  0.1217 -1.0531 -0.0722
 8582SOL    HW129277   3.397   2.006   2.566  0.7914 -1.2295 -0.1096
 8582SOL    HW229278   3.348   1.886   2.488  1.8105 -1.4233 -0.4790
 8583SOL     OW29279   3.900   0.246   8.567  0.0287  0.3195  0.3698
 8583SOL    HW129280   3.949   0.164   8.577  1.1256  0.7871 -0.9346
 8583SOL    HW229281   3.812   0.218   8.543  0.5524 -0.4966 -0.6979
 8584SOL     OW29282   9.031   0.517   7.204  0.3803  0.4811  0.3012
 8584SOL    HW129283   9.082   0.577   7.258  0.0957  0.1075  0.9955
 8584SOL    HW229284   8.940   0.535   7.227  0.2743  0.0630  0.2167
 8585SOL     OW29285   6.033   9.460   6.620  0.1035 -0.1411 -0.1070
 8585SOL    HW129286   5.950   9.413   6.617  0.6362 -1.2377  1.3112
 8585SOL    HW229287   6.098   9.396   6.590  0.6353  0.1941  0.3175
 8586SOL     OW29288   0.487   9.866   0.282 -0.4110 -0.3143 -0.1828
 8586SOL    HW129289   0.569   9.882   0.328 -0.1428 -0.7637 -0.4913
 8586SOL    HW229290   0.454   9.953   0.260  0.5583 -0.1422 -1.0408
 8587SOL     OW29291   1.807   2.958   5.067  0.0796 -0.2128  0.4194
 8587SOL    HW129292   1.869   2.978   4.996 -0.7589 -0.3849 -0.3926
 8587SOL    HW229293   1.726   2.935   5.021  0.3388 -3.3524  1.3147
 8588SOL     OW29294   7.024   6.285   8.513 -0.1739 -0.4659  0.1839
 8588SOL    HW129295   7.010   6.191   8.521 -0.0761 -0.3696  1.7933
 8588SOL    HW229296   7.118   6.297   8.531  0.0118 -0.1286 -0.9016
 8589SOL     OW29297   0.017   3.246   2.931 -0.1579  0.3519  0.6711
 8589SOL    HW129298   0.070   3.299   2.872  0.0118 -1.8573 -1.3198
 8589SOL    HW229299  -0.056   3.302   2.955  1.3188  2.3343  0.8184
 8590SOL     OW29300  10.859   9.159   6.040 -0.3218  0.4217  0.2248
 8590SOL    HW129301  10.941   9.117   6.017 -0.0990  1.4709 -0.9509
 8590SOL    HW229302  10.863   9.168   6.136 -0.3719 -2.1337  0.5489
 8591SOL     OW29303   2.187  10.486  10.668 -0.1999  0.3304 -0.5382
 8591SOL    HW129304   2.243  10.458  10.741 -0.3443 -1.6834 -1.1408
 8591SOL    HW229305   2.113  10.530  10.710 -0.1495 -0.5680  0.5352
 8592SOL     OW29306   9.107   3.986   1.425 -0.7934  0.1797  0.7875
 8592SOL    HW129307   9.103   3.915   1.361 -0.6979  1.6751 -0.9698
 8592SOL    HW229308   9.170   3.956   1.490  0.0448 -0.9196 -0.4644
 8593SOL     OW29309   6.211   2.813   8.901 -0.9104  0.5507  0.2245
 8593SOL    HW129310   6.178   2.879   8.963  0.8252  2.2436 -0.5396
 8593SOL    HW229311   6.297   2.845   8.876 -0.2253 -1.7685 -0.6512
 8594SOL     OW29312   8.963   5.319   6.077 -0.2201 -0.4351  0.1860
 8594SOL    HW129313   9.029   5.387   6.087  1.5889 -1.8593 -1.3358
 8594SOL    HW229314   9.005   5.239   6.109 -1.4148 -1.2819 -0.2539
 8595SOL     OW29315   9.889  10.401   5.219  0.4359 -0.5447  0.0599
 8595SOL    HW129316   9.839  10.476   5.252  2.0022 -0.0693  1.4538
 8595SOL    HW229317   9.959  10.440   5.166  0.5325 -1.1024 -0.2365
 8596SOL     OW29318   0.271   0.808   7.641  0.3783  0.6402  0.5477
 8596SOL    HW129319   0.280   0.767   7.555  1.1852  0.1690  0.8454
 8596SOL    HW229320   0.274   0.735   7.703  1.6084  1.1122  1.0740
 8597SOL     OW29321   3.543   0.103   8.134  0.1361  1.4839 -0.9322
 8597SOL    HW129322   3.627   0.144   8.154 -0.4233  1.5481  1.6901
 8597SOL    HW229323   3.563   0.035   8.070  2.5726  0.1931  1.0267
 8598SOL     OW29324   8.167  10.191   5.893  0.0213 -0.2243  0.2445
 8598SOL    HW129325   8.124  10.274   5.872 -0.2759 -0.4306  0.0434
 8598SOL    HW229326   8.173  10.145   5.809 -1.5389 -1.2257  0.6426
 8599SOL     OW29327   5.261   7.543   6.419  0.0156 -0.1669  0.4446
 8599SOL    HW129328   5.309   7.526   6.500  0.9047  0.5228  0.0766
 8599SOL    HW229329   5.313   7.609   6.373 -1.1176  0.3601 -0.1283
 8600SOL     OW29330   6.803   8.303   4.641  0.8557  0.4863  0.0828
 8600SOL    HW129331   6.898   8.311   4.649  0.9177 -0.4087  0.3010
 8600SOL    HW229332   6.789   8.282   4.548  0.9516 -0.4024  0.2621
 8601SOL     OW29333   0.669   7.850   4.408 -0.3376 -0.1838  0.0227
 8601SOL    HW129334   0.578   7.876   4.390 -0.0383  1.2072  0.3932
 8601SOL    HW229335   0.704   7.922   4.461  1.7747  0.6196 -2.2901
 8602SOL     OW29336   4.856   9.423   6.040 -0.4685  0.1685  0.2140
 8602SOL    HW129337   4.800   9.350   6.065  1.4069 -0.8940  1.5192
 8602SOL    HW229338   4.885   9.402   5.951  0.6780 -1.1576  0.8539
 8603SOL     OW29339   5.331   8.203  10.014  0.6173 -0.8929  0.0327
 8603SOL    HW129340   5.310   8.257   9.938  1.7319 -0.1075  0.2468
 8603SOL    HW229341   5.249   8.196  10.063  0.7261  1.9188  0.7854
 8604SOL     OW29342   2.981   8.335   1.869 -0.2971 -0.5217  0.4048
 8604SOL    HW129343   3.045   8.406   1.865  0.1468 -0.8397  1.5012
 8604SOL    HW229344   2.897   8.376   1.848  0.0288  0.2125  0.5097
 8605SOL     OW29345   4.871   8.218   4.236  0.1067 -0.2666 -0.3409
 8605SOL    HW129346   4.789   8.223   4.186  1.7664  1.3292 -3.1814
 8605SOL    HW229347   4.906   8.132   4.216 -0.0971 -0.3204 -0.4673
 8606SOL     OW29348   0.062   4.719   7.727 -0.0047 -0.1016  0.2074
 8606SOL    HW129349   0.051   4.813   7.737  2.2961  0.0551  2.1373
 8606SOL    HW229350  -0.026   4.683   7.739 -0.9891  1.7741 -0.8927
 8607SOL     OW29351   2.690   8.450   7.931  0.3486  0.0158 -0.4441
 8607SOL    HW129352   2.660   8.359   7.938  2.6012 -0.8966 -1.7145
 8607SOL    HW229353   2.648   8.483   7.851 -2.4507  1.0123  1.2912
 8608SOL     OW29354   3.314   2.847   9.467 -0.1830  0.2829 -0.3874
 8608SOL    HW129355   3.290   2.783   9.400 -0.8728  0.5476 -0.3968
 8608SOL    HW229356   3.311   2.931   9.422 -0.6957  0.4652 -0.0165
 8609SOL     OW29357   0.855   7.203   2.960 -0.2996 -0.3088 -0.1298
 8609SOL    HW129358   0.776   7.200   3.014  0.1186 -3.0416  0.4821
 8609SOL    HW229359   0.909   7.272   3.000 -1.2474 -0.2527  1.1152
 8610SOL     OW29360   9.714   0.810  10.647  0.3450 -0.1038  0.3024
 8610SOL    HW129361   9.645   0.855  10.598 -0.6593 -0.8492  1.0019
 8610SOL    HW229362   9.780   0.789  10.581 -0.6843 -0.4946 -0.6356
 8611SOL     OW29363   2.569   6.979   6.423  0.6784 -0.5850  0.1168
 8611SOL    HW129364   2.503   6.995   6.490  0.0097 -0.6042 -0.5172
 8611SOL    HW229365   2.648   7.021   6.456  0.1490  0.0961  0.5437
 8612SOL     OW29366   3.431   4.025   6.225 -0.0633 -0.5069 -0.3134
 8612SOL    HW129367   3.397   4.086   6.160  1.5536 -0.6068 -1.3267
 8612SOL    HW229368   3.504   3.981   6.180  0.8176 -0.9126  1.4227
 8613SOL     OW29369   3.253   8.012   5.954  0.2455 -0.1111  0.1306
 8613SOL    HW129370   3.275   8.076   6.022  2.3266 -0.0827 -0.5106
 8613SOL    HW229371   3.231   8.065   5.878 -1.2302 -0.1545  0.5030
 8614SOL     OW29372   1.017  10.805   2.356  0.2150  0.3027  0.2548
 8614SOL    HW129373   1.040  10.736   2.293  2.3767  1.5008 -0.3676
 8614SOL    HW229374   0.938  10.845   2.320  0.6987  0.1311 -1.0545
 8615SOL     OW29375   4.534  10.338   2.924 -0.1269  0.2282  0.7221
 8615SOL    HW129376   4.629  10.352   2.933 -0.3721  0.9021  2.5884
 8615SOL    HW229377   4.519  10.252   2.964 -0.3265  0.1621  0.5053
 8616SOL     OW29378   9.567   5.604   3.978  0.0930  0.2376 -0.2218
 8616SOL    HW129379   9.636   5.595   3.912  2.2138  1.1369  1.7254
 8616SOL    HW229380   9.560   5.518   4.018 -1.5506 -0.4507 -1.8096
 8617SOL     OW29381  10.327   8.419   8.457  0.2134  0.2330  0.2983
 8617SOL    HW129382  10.246   8.394   8.413  0.8734 -0.9214 -0.3106
 8617SOL    HW229383  10.341   8.350   8.522  1.0714  0.0221 -0.0972
 8618SOL     OW29384   7.521   3.756   4.681  0.0233  0.0164  0.2751
 8618SOL    HW129385   7.565   3.730   4.601 -0.3367 -0.9724  0.3875
 8618SOL    HW229386   7.528   3.852   4.682  2.8086 -0.1094  0.6876
 8619SOL     OW29387   0.992   1.575   2.087 -0.0926  0.0587 -0.5803
 8619SOL    HW129388   0.964   1.541   2.173  1.2048  0.5257  0.0513
 8619SOL    HW229389   0.982   1.670   2.094  1.1318  0.1912 -0.5204
 8620SOL     OW29390   0.200   3.321   9.786  0.1298  0.1645 -0.3838
 8620SOL    HW129391   0.286   3.280   9.797 -0.6424 -1.0775  1.6571
 8620SOL    HW229392   0.144   3.275   9.848 -1.9953  1.0417 -1.5471
 8621SOL     OW29393   9.307   4.779  10.868 -0.2133  0.0393  0.3967
 8621SOL    HW129394   9.225   4.750  10.908  0.3379 -1.2922  0.6285
 8621SOL    HW229395   9.375   4.747  10.928  0.4853  1.1700  0.2427
 8622SOL     OW29396   4.560   3.339   8.280 -0.1554  0.5365 -0.0247
 8622SOL    HW129397   4.479   3.343   8.330 -0.4490  2.3934 -0.5737
 8622SOL    HW229398   4.534   3.308   8.193 -0.1643  0.4643  0.0038
 8623SOL     OW29399  10.590   1.205   3.053  0.3242 -0.1473  0.8217
 8623SOL    HW129400  10.499   1.189   3.029  0.7794 -0.7818 -0.6038
 8623SOL    HW229401  10.596   1.300   3.063 -0.1727  0.0498 -0.5506
 8624SOL     OW29402   0.725   2.156   2.343  0.5697 -0.2702  0.7298
 8624SOL    HW129403   0.677   2.097   2.284  0.0245  1.0185 -0.1703
 8624SOL    HW229404   0.797   2.190   2.289  0.1955  0.7567  0.8581
 8625SOL     OW29405   6.723   9.922   6.797  0.9401  0.4942  0.5417
 8625SOL    HW129406   6.745   9.895   6.886  0.9388  0.0858  0.4191
 8625SOL    HW229407   6.736   9.844   6.744 -1.2629  0.0780  0.5207
 8626SOL     OW29408   9.315   3.420   9.237 -0.1951 -0.3907  0.3923
 8626SOL    HW129409   9.286   3.485   9.300 -0.8492 -2.0344  1.8572
 8626SOL    HW229410   9.358   3.471   9.168 -0.5422  1.5486  1.5431
 8627SOL     OW29411   4.019   6.820   4.799  0.2442  0.2035 -0.2374
 8627SOL    HW129412   4.096   6.817   4.856 -0.4120 -0.1122  0.6610
 8627SOL    HW229413   4.053   6.800   4.712  1.0004 -1.3250  0.3632
 8628SOL     OW29414   9.824   3.983   9.655  0.0340  0.1362  0.1282
 8628SOL    HW129415   9.775   3.923   9.710 -0.7622  0.1105 -0.5855
 8628SOL    HW229416   9.907   3.997   9.701 -0.1926 -0.6949  0.7991
 8629SOL     OW29417   0.736   2.508   9.158  0.0215 -0.0018 -0.0516
 8629SOL    HW129418   0.757   2.538   9.069  0.6564 -0.7062 -0.1493
 8629SOL    HW229419   0.645   2.478   9.152 -0.0993  0.4132 -0.3386
 8630SOL     OW29420   2.999   9.265   2.338  0.3575  0.1134  0.0566
 8630SOL    HW129421   2.985   9.170   2.333  0.4859 -0.1084  2.5275
 8630SOL    HW229422   3.089   9.277   2.310 -0.3079 -0.1546 -2.4661
 8631SOL     OW29423  10.222   0.466  10.335  0.4011  0.3369 -0.7395
 8631SOL    HW129424  10.191   0.419  10.413 -0.9857  3.2312  0.6030
 8631SOL    HW229425  10.180   0.421  10.262  0.6906 -1.6567  0.2429
 8632SOL     OW29426   2.487   8.929   2.309 -0.4455  0.1153  0.0756
 8632SOL    HW129427   2.425   8.916   2.382 -2.0645  0.4780 -1.1745
 8632SOL    HW229428   2.546   8.998   2.341  0.5385 -1.4971  2.0014
 8633SOL     OW29429   8.761   7.515   7.791  0.0448 -0.0050  0.3444
 8633SOL    HW129430   8.777   7.481   7.879  0.4729  1.0419  0.6958
 8633SOL    HW229431   8.671   7.489   7.772 -0.4477  0.6783  1.5606
 8634SOL     OW29432   6.981   8.898  10.187 -0.1050 -0.1380 -0.6121
 8634SOL    HW129433   7.053   8.875  10.245 -0.8897 -1.0102  0.0561
 8634SOL    HW229434   6.966   8.991  10.203 -0.1028 -0.2914  0.3843
 8635SOL     OW29435  10.343   7.849   7.407 -0.2026 -0.2830  0.0234
 8635SOL    HW129436  10.389   7.898   7.476  0.2904  0.8454 -1.0585
 8635SOL    HW229437  10.410   7.791   7.371 -0.2190 -0.2437 -0.0699
 8636SOL     OW29438   5.129  10.554   9.707  0.3111 -0.4442 -0.1400
 8636SOL    HW129439   5.134  10.531   9.800 -0.8061 -1.6618 -0.3525
 8636SOL    HW229440   5.045  10.518   9.678 -0.4292  1.8710 -1.1107
 8637SOL     OW29441   0.411   0.371   3.451  0.7137  0.0794 -0.3384
 8637SOL    HW129442   0.330   0.383   3.402 -0.3344 -2.3308  0.6333
 8637SOL    HW229443   0.391   0.406   3.538  0.8164 -0.1813 -0.2075
 8638SOL     OW29444   1.654   9.570   6.715 -0.0992  0.2916 -0.4732
 8638SOL    HW129445   1.625   9.485   6.684  0.6337 -0.1893  0.1332
 8638SOL    HW229446   1.748   9.559   6.731 -0.4675  0.4192  2.1604
 8639SOL     OW29447   9.378   6.031  10.553 -0.0594  0.2006 -0.2589
 8639SOL    HW129448   9.391   6.123  10.574 -3.1134  0.6675 -0.0595
 8639SOL    HW229449   9.367   6.029  10.458 -0.4019  0.1064 -0.2183
 8640SOL     OW29450   2.915  10.725   1.327 -0.1671  0.2776 -0.4500
 8640SOL    HW129451   2.835  10.733   1.379 -0.1784  0.3001 -0.4714
 8640SOL    HW229452   2.959  10.648   1.364  0.0801  0.6024 -0.0592
 8641SOL     OW29453   4.457   4.105   3.616  0.3480 -0.7813  0.0746
 8641SOL    HW129454   4.392   4.171   3.639 -0.6016 -1.9695  0.9581
 8641SOL    HW229455   4.446   4.092   3.522 -0.2195 -0.4593  0.0938
 8642SOL     OW29456   1.501   1.379   6.744 -0.0337  0.1310  0.4148
 8642SOL    HW129457   1.432   1.389   6.808 -2.5333 -2.0261 -1.6826
 8642SOL    HW229458   1.493   1.288   6.714  0.7359  1.0466 -3.0811
 8643SOL     OW29459   8.080   6.838  10.619 -0.5687  0.0862  0.0399
 8643SOL    HW129460   8.105   6.774  10.553 -1.3752  0.5107 -0.6911
 8643SOL    HW229461   8.114   6.921  10.586 -1.5004  0.3990 -0.1508
 8644SOL     OW29462   0.127   9.686   2.994 -0.6387 -0.0899  0.0522
 8644SOL    HW129463   0.140   9.632   2.916 -0.9623  0.6082 -0.4974
 8644SOL    HW229464   0.134   9.776   2.962 -0.6174  0.2017  0.8617
 8645SOL     OW29465   7.694  10.468   7.860  0.3911 -0.7192 -0.2450
 8645SOL    HW129466   7.704  10.417   7.780 -0.1111  0.8909 -1.3919
 8645SOL    HW229467   7.741  10.550   7.842 -1.4822  0.5348  0.2527
 8646SOL     OW29468   0.258   6.998   3.209  0.8003  0.0058 -0.3167
 8646SOL    HW129469   0.335   6.955   3.172 -0.1606 -0.1491 -2.2401
 8646SOL    HW229470   0.218   7.043   3.135  0.1028  1.7338  1.0384
 8647SOL     OW29471   8.103   5.790   0.900  0.3416  0.5571  0.3714
 8647SOL    HW129472   8.162   5.734   0.848  2.9214  1.5292  2.0637
 8647SOL    HW229473   8.087   5.739   0.980  1.1402  1.3845  1.0813
 8648SOL     OW29474   9.928   2.941   3.356 -0.4080  0.2262  0.1479
 8648SOL    HW129475   9.929   2.884   3.279 -0.6400 -0.4538  0.6466
 8648SOL    HW229476   9.942   2.883   3.430  1.0466  1.0186  0.5492
 8649SOL     OW29477  11.093   4.733   2.426 -0.4235  0.3145 -0.5939
 8649SOL    HW129478  11.088   4.762   2.517 -0.7908 -0.8816 -0.2157
 8649SOL    HW229479  11.183   4.701   2.415 -0.6805 -0.5200 -0.3312
 8650SOL     OW29480   6.758  10.270   6.622 -0.0333 -0.0471 -0.2128
 8650SOL    HW129481   6.694  10.339   6.635  0.7658  0.5256  0.8097
 8650SOL    HW229482   6.819  10.305   6.558  1.0458  0.7109  1.1781
 8651SOL     OW29483   6.314   4.157   0.109  0.0964  0.0668  0.1432
 8651SOL    HW129484   6.294   4.097   0.181  0.6827 -0.1625  0.1177
 8651SOL    HW229485   6.354   4.233   0.152  0.0063  0.1359  0.1051
 8652SOL     OW29486   3.747   5.361   5.864  0.2141 -0.1236 -0.4919
 8652SOL    HW129487   3.841   5.353   5.854 -0.0414 -3.3820 -1.5628
 8652SOL    HW229488   3.735   5.432   5.927  3.4507 -0.8355  1.1617
 8653SOL     OW29489   9.591   3.829   4.754  0.2001 -0.1516  0.6905
 8653SOL    HW129490   9.517   3.780   4.789 -0.3602 -0.5666 -0.9753
 8653SOL    HW229491   9.624   3.880   4.828 -0.6071 -1.3392  1.9062
 8654SOL     OW29492   7.801  10.389   3.743  0.8561  0.2106  0.1427
 8654SOL    HW129493   7.762  10.329   3.807  0.6167  0.6659  0.4314
 8654SOL    HW229494   7.895  10.388   3.764  0.6922  0.9125  0.9881
 8655SOL     OW29495   1.799   2.607   6.202 -0.2659 -0.0661  0.3224
 8655SOL    HW129496   1.845   2.591   6.120 -0.0768  2.0812 -0.0571
 8655SOL    HW229497   1.857   2.570   6.269  0.9552  0.6255 -0.3129
 8656SOL     OW29498   9.355  10.611  10.784  0.3720  0.1805  0.3417
 8656SOL    HW129499   9.447  10.629  10.761  0.6938 -1.4284  0.2349
 8656SOL    HW229500   9.307  10.622  10.702  0.4584  1.0270  0.3972
 8657SOL     OW29501   3.270   5.586   9.101 -0.0504  0.1965  0.6095
 8657SOL    HW129502   3.348   5.629   9.136 -0.4478 -0.1750  2.0294
 8657SOL    HW229503   3.201   5.606   9.164 -0.7397 -0.7248  0.1797
 8658SOL     OW29504   6.124   8.341  10.477  0.4799 -0.0358 -0.8468
 8658SOL    HW129505   6.066   8.265  10.481  0.0635  0.3160 -0.0862
 8658SOL    HW229506   6.147   8.348  10.384 -1.5693  0.4620 -1.3859
 8659SOL     OW29507   9.225   4.550   9.707  0.0952 -0.1058 -0.2656
 8659SOL    HW129508   9.318   4.570   9.716 -0.6094  2.8725  2.0573
 8659SOL    HW229509   9.197   4.598   9.630  0.1472  0.6665  0.1814
 8660SOL     OW29510   1.758   7.134   4.403  0.5735 -0.1864  0.0718
 8660SOL    HW129511   1.747   7.228   4.396 -1.7230 -0.4606 -1.0585
 8660SOL    HW229512   1.824   7.122   4.472  0.6378  2.2026  0.5001
 8661SOL     OW29513   9.725   0.425   9.801 -0.7755 -0.3155 -0.6155
 8661SOL    HW129514   9.696   0.395   9.714  0.6290 -0.7643 -0.9495
 8661SOL    HW229515   9.771   0.350   9.838 -1.0380  0.0039  0.3730
 8662SOL     OW29516   5.208   7.585  11.061 -0.2017  0.0023  0.1093
 8662SOL    HW129517   5.294   7.621  11.040 -0.8068  1.7965  0.5573
 8662SOL    HW229518   5.219   7.546  11.148  0.7580 -2.0759 -0.8666
 8663SOL     OW29519   8.749   3.277   0.364  0.2204 -0.8238  0.1526
 8663SOL    HW129520   8.685   3.212   0.335 -0.5452 -0.2209  0.4590
 8663SOL    HW229521   8.831   3.228   0.375 -0.7594 -2.1173  2.1449
 8664SOL     OW29522   5.019   0.194   7.361  0.5590 -0.6893 -0.2167
 8664SOL    HW129523   4.965   0.267   7.390  1.9836 -0.0006  0.8340
 8664SOL    HW229524   5.089   0.189   7.426  2.8147 -0.3289 -2.4480
 8665SOL     OW29525   9.887   8.233   7.094  0.2821 -0.0298 -0.4059
 8665SOL    HW129526   9.888   8.151   7.144  0.3375 -1.0143 -1.9557
 8665SOL    HW229527   9.979   8.253   7.077  0.4008  1.4529  1.6030
 8666SOL     OW29528   0.824   7.042   3.244 -0.0944 -0.3718  0.2607
 8666SOL    HW129529   0.837   6.949   3.226  1.9109 -0.1145  0.0434
 8666SOL    HW229530   0.795   7.046   3.335  2.2095 -1.1468  1.1081
 8667SOL     OW29531   9.858   1.350   5.030 -0.3950 -0.2542 -0.5362
 8667SOL    HW129532   9.767   1.335   5.055 -0.0707 -0.6561  0.4577
 8667SOL    HW229533   9.901   1.265   5.040 -0.0042 -0.1881 -1.4864
 8668SOL     OW29534   8.815  10.052   3.337 -0.0529  0.5144  0.4336
 8668SOL    HW129535   8.818  10.046   3.242  0.5625  1.6235  0.3683
 8668SOL    HW229536   8.722  10.067   3.357 -0.2870 -0.4055  0.0653
 8669SOL     OW29537   1.993   0.180   1.606 -0.4662  0.2048 -0.0772
 8669SOL    HW129538   1.924   0.246   1.595  1.0639  1.9665  0.2499
 8669SOL    HW229539   2.071   0.222   1.569  0.4694 -1.6656 -0.3343
 8670SOL     OW29540   0.865   4.870   0.174  0.1403 -0.0029 -0.0669
 8670SOL    HW129541   0.910   4.953   0.158  0.2545  0.0245  0.3724
 8670SOL    HW229542   0.777   4.882   0.138  0.5007 -0.0779 -0.9879
 8671SOL     OW29543   4.864   1.242   2.170 -0.0389  0.2752  0.2006
 8671SOL    HW129544   4.825   1.162   2.204  0.3230  0.6664  1.6156
 8671SOL    HW229545   4.949   1.248   2.215  1.3783 -0.1873 -2.2705
 8672SOL     OW29546   0.407   3.191   3.564  0.2601  0.3431  0.4405
 8672SOL    HW129547   0.455   3.110   3.582 -0.5164 -0.1002  0.5256
 8672SOL    HW229548   0.377   3.221   3.650  0.1298  0.4648  0.3538
 8673SOL     OW29549  10.547  10.903   8.217  0.1985 -0.3244 -0.0307
 8673SOL    HW129550  10.496  10.981   8.194 -0.6631 -0.0145  2.5833
 8673SOL    HW229551  10.607  10.933   8.285  1.1735 -1.5582 -0.3135
 8674SOL     OW29552   3.778   6.509   7.547 -0.2588  0.0540  0.1567
 8674SOL    HW129553   3.715   6.469   7.487  1.6267 -0.5832 -1.4763
 8674SOL    HW229554   3.805   6.590   7.503  0.8744 -0.2395  0.2821
 8675SOL     OW29555   1.863   7.888   4.727 -0.1404  0.2217 -0.1060
 8675SOL    HW129556   1.832   7.943   4.655 -0.5765  0.1746  0.0427
 8675SOL    HW229557   1.802   7.905   4.798 -1.5652 -1.9847 -0.7096
 8676SOL     OW29558   9.673   8.093   6.187 -0.1234  0.1870  0.5968
 8676SOL    HW129559   9.709   8.013   6.223 -2.0925 -0.7875  0.5642
 8676SOL    HW229560   9.606   8.063   6.125  0.3851  1.8476 -0.8469
 8677SOL     OW29561   6.993   9.813   6.542  0.6677 -0.1457 -0.2115
 8677SOL    HW129562   6.929   9.756   6.499 -0.1576 -1.7253  2.8089
 8677SOL    HW229563   6.983   9.898   6.500 -1.7598 -0.9482 -1.4102
 8678SOL     OW29564   7.020  10.748  10.560 -0.4577 -0.6529  0.6972
 8678SOL    HW129565   7.095  10.806  10.555 -0.9842 -0.0021  0.2154
 8678SOL    HW229566   6.944  10.806  10.562 -1.0984 -1.2899 -1.6090
 8679SOL     OW29567  10.298   8.677   1.705 -0.1132  0.2781  0.1158
 8679SOL    HW129568  10.218   8.721   1.675 -1.6580 -2.5597 -0.3073
 8679SOL    HW229569  10.317   8.716   1.790 -3.0780 -0.1313  1.1071
 8680SOL     OW29570   5.568   8.788   6.910  0.4723 -0.1784  0.1071
 8680SOL    HW129571   5.544   8.696   6.903 -1.2902  0.1644  1.0125
 8680SOL    HW229572   5.611   8.808   6.827 -1.1017 -1.2679 -1.0378
 8681SOL     OW29573   9.729   8.842   0.922  0.0650 -0.0495 -0.2962
 8681SOL    HW129574   9.688   8.894   0.991  0.8310 -0.4063  0.4415
 8681SOL    HW229575   9.781   8.776   0.969 -1.2016 -1.7644 -1.1867
 8682SOL     OW29576   1.199   6.617   7.957 -1.0884 -0.0815  0.2175
 8682SOL    HW129577   1.171   6.572   7.878  0.8696  0.7332 -1.0120
 8682SOL    HW229578   1.237   6.548   8.012 -1.4594 -0.4897 -0.0382
 8683SOL     OW29579   9.100   5.681   4.487  0.7352  0.0823  0.1946
 8683SOL    HW129580   9.131   5.770   4.471  1.4649  0.1064  1.6074
 8683SOL    HW229581   9.007   5.684   4.465  0.9099  1.0018 -0.4585
 8684SOL     OW29582   7.933   7.944   1.567 -0.6035  0.2384 -0.1364
 8684SOL    HW129583   8.020   7.948   1.527  0.2897  1.8568  1.7742
 8684SOL    HW229584   7.878   7.996   1.509 -0.2426 -0.5695 -1.2234
 8685SOL     OW29585   2.527   0.237   0.142 -0.2005  0.1046 -0.1007
 8685SOL    HW129586   2.452   0.253   0.200 -1.1184  0.1845 -1.2786
 8685SOL    HW229587   2.543   0.322   0.100  0.5383  0.0773  0.1198
 8686SOL     OW29588   4.749   0.943   7.704 -0.1839  0.0268  0.0492
 8686SOL    HW129589   4.694   0.906   7.635 -0.2584 -0.9025  0.5977
 8686SOL    HW229590   4.692   0.950   7.780  0.6981 -2.0500  0.9828
 8687SOL     OW29591   2.296   7.863   2.067  0.2043  0.4721  0.8033
 8687SOL    HW129592   2.272   7.793   2.007  1.9736  0.4900  0.0233
 8687SOL    HW229593   2.245   7.939   2.038 -0.2269  0.0257  0.4016
 8688SOL     OW29594  10.796   7.748   1.463  0.6940  0.4194 -0.1099
 8688SOL    HW129595  10.722   7.687   1.470  0.6249  0.5560  0.3588
 8688SOL    HW229596  10.768   7.813   1.400  0.1055  0.9053  0.6434
 8689SOL     OW29597   6.443   1.890   1.876 -0.3526  0.0414 -0.5882
 8689SOL    HW129598   6.448   1.829   1.950 -0.6429  0.5985 -0.0984
 8689SOL    HW229599   6.535   1.906   1.852 -0.2102  0.5461  0.2442
 8690SOL     OW29600   4.661   5.800   9.634 -0.1278  0.0945  0.3602
 8690SOL    HW129601   4.619   5.764   9.711 -0.6444 -0.2221 -0.0651
 8690SOL    HW229602   4.595   5.857   9.594  0.3492  0.7624  0.4946
 8691SOL     OW29603   9.992   0.032   0.709  0.4743 -0.1062  0.0176
 8691SOL    HW129604   9.948   0.064   0.631  1.0843 -1.0548 -0.7489
 8691SOL    HW229605  10.064  -0.022   0.676  2.1760  1.3149  1.2045
 8692SOL     OW29606   0.617  10.823   0.217  0.3446 -0.5239 -0.1009
 8692SOL    HW129607   0.592  10.914   0.229  3.5614  0.6871 -1.3069
 8692SOL    HW229608   0.622  10.812   0.122  1.8608 -1.3299  0.0421
 8693SOL     OW29609  10.032   5.906   0.577 -0.1737 -0.0436 -0.0237
 8693SOL    HW129610  10.011   5.850   0.652  1.2103 -1.1992 -0.4539
 8693SOL    HW229611  10.088   5.975   0.614 -0.0889 -0.1915  0.1247
 8694SOL     OW29612   3.483   2.255   7.312 -0.5294  0.3527  0.2577
 8694SOL    HW129613   3.560   2.294   7.270 -1.5692  1.8753 -0.3224
 8694SOL    HW229614   3.412   2.268   7.249 -1.5954  0.4221  1.4403
 8695SOL     OW29615   8.732   0.294   7.532  0.1060  0.0499  0.0090
 8695SOL    HW129616   8.822   0.272   7.507  0.6834  0.8395  1.3120
 8695SOL    HW229617   8.736   0.310   7.626 -1.7428 -1.5317  0.4065
 8696SOL     OW29618   0.033   2.561   3.608 -0.2542 -0.5516 -0.3782
 8696SOL    HW129619   0.019   2.583   3.701 -0.6593 -1.5419 -0.1960
 8696SOL    HW229620  -0.047   2.517   3.582 -0.2193 -0.0966 -1.2706
 8697SOL     OW29621   0.001   8.415   1.623 -0.0579  0.0845  0.0725
 8697SOL    HW129622  -0.068   8.429   1.559  0.1724 -1.0835 -0.4594
 8697SOL    HW229623  -0.045   8.409   1.707 -0.4733  0.5485 -0.1227
 8698SOL     OW29624   5.319   8.308   1.410  0.5708 -0.5179 -0.0101
 8698SOL    HW129625   5.256   8.331   1.342  0.5961  0.8311  0.3963
 8698SOL    HW229626   5.269   8.260   1.475  0.1859 -0.3311 -0.1686
 8699SOL     OW29627   0.977   1.785   6.632  0.2224 -0.0930 -0.1138
 8699SOL    HW129628   1.067   1.814   6.649 -0.5033  2.8517 -0.6645
 8699SOL    HW229629   0.960   1.811   6.541 -1.3663 -0.0546  0.1686
 8700SOL     OW29630   9.975   0.690  10.043  0.1648 -0.4074  0.3709
 8700SOL    HW129631   9.880   0.688  10.048  0.2137 -0.6259  1.8244
 8700SOL    HW229632   9.999   0.771  10.088  0.6424  0.2467 -1.0034
 8701SOL     OW29633   3.064   8.196   3.173  0.9640  0.1396 -0.2323
 8701SOL    HW129634   2.979   8.171   3.209  1.4987 -1.9437 -0.2505
 8701SOL    HW229635   3.053   8.286   3.143 -0.9106  0.2668  0.7223
 8702SOL     OW29636   6.249   8.474   1.382  0.0322 -0.2802  0.4889
 8702SOL    HW129637   6.331   8.492   1.427 -0.0738 -0.7693  0.8979
 8702SOL    HW229638   6.252   8.380   1.363 -0.0906 -0.1509 -0.1931
 8703SOL     OW29639   9.497   2.451   5.000 -0.1186 -0.1299  0.1368
 8703SOL    HW129640   9.440   2.517   4.960 -1.6223 -1.4707 -0.0242
 8703SOL    HW229641   9.569   2.440   4.938 -0.3986  0.5884 -0.3328
 8704SOL     OW29642   1.291   0.890   5.361  0.0797  0.0368  0.0079
 8704SOL    HW129643   1.327   0.964   5.312  0.8513 -1.0716 -1.1731
 8704SOL    HW229644   1.344   0.886   5.441  1.7910 -0.7506 -1.0898
 8705SOL     OW29645   9.753   6.293   0.016 -0.1863 -0.1926  0.3002
 8705SOL    HW129646   9.757   6.308   0.110 -1.0335  0.2887  0.2712
 8705SOL    HW229647   9.725   6.202   0.007 -1.8625  0.2717  0.5445
 8706SOL     OW29648   2.106   7.370   5.438 -0.4867  0.2798  0.1433
 8706SOL    HW129649   2.130   7.278   5.432  1.4387  0.7402  0.0847
 8706SOL    HW229650   2.100   7.400   5.347  0.9462  0.6766  0.1612
 8707SOL     OW29651   6.789   2.691   7.379  0.4166  0.2396  0.2464
 8707SOL    HW129652   6.804   2.786   7.380 -2.0887  0.7353 -1.3900
 8707SOL    HW229653   6.789   2.668   7.286  1.0652 -1.4105  0.6268
 8708SOL     OW29654   2.333   2.379   8.494 -0.0968 -0.0052  0.2216
 8708SOL    HW129655   2.367   2.426   8.417 -1.5643 -1.5264 -1.4495
 8708SOL    HW229656   2.382   2.296   8.494 -1.6765 -0.9719 -0.4676
 8709SOL     OW29657   5.396   5.979  10.373  0.1547 -0.3837  0.5070
 8709SOL    HW129658   5.387   6.069  10.340  0.2304  0.3391  2.3292
 8709SOL    HW229659   5.490   5.961  10.364  0.2274 -0.0761  0.6164
 8710SOL     OW29660   7.084  10.367  10.022 -0.8299  0.7594  0.0521
 8710SOL    HW129661   7.134  10.440  10.058 -0.7715  0.0763  1.4078
 8710SOL    HW229662   7.143  10.292  10.027 -1.6775  0.1217  0.9311
 8711SOL     OW29663   1.049   1.896   8.394 -0.8530 -0.5453  0.3647
 8711SOL    HW129664   0.991   1.868   8.323 -2.2167 -1.6857  1.8413
 8711SOL    HW229665   1.000   1.964   8.440  0.0884  0.3011  0.1660
 8712SOL     OW29666  10.901   2.517   9.960 -0.2001 -0.6070  0.4865
 8712SOL    HW129667  10.913   2.567   9.880  2.0478 -2.8561 -0.7387
 8712SOL    HW229668  10.856   2.437   9.932  0.2955 -1.2693  1.5144
 8713SOL     OW29669   8.272   9.812   0.363  0.0573  0.3892  0.4176
 8713SOL    HW129670   8.222   9.796   0.443 -0.9336 -0.0276 -0.2606
 8713SOL    HW229671   8.307   9.726   0.339  0.3403  0.5087  0.3980
 8714SOL     OW29672   1.014  10.094   1.774  0.1238  0.4336 -0.0725
 8714SOL    HW129673   0.949  10.157   1.741  0.0603  0.5111  0.1961
 8714SOL    HW229674   1.031  10.036   1.700  1.2292  1.6094 -0.7845
 8715SOL     OW29675   1.439   2.380  10.132 -0.9746 -0.7807 -0.3588
 8715SOL    HW129676   1.352   2.403  10.100 -0.4316 -1.0651 -2.1650
 8715SOL    HW229677   1.481   2.336  10.058  0.8652 -0.2359  0.2979
 8716SOL     OW29678   4.766   0.907   6.938  0.0265  0.4440 -0.1783
 8716SOL    HW129679   4.852   0.919   6.979 -0.0666  0.3324  0.0479
 8716SOL    HW229680   4.786   0.869   6.852  0.1379 -0.7574  0.3606
 8717SOL     OW29681   4.652   2.601  10.207 -0.0915 -0.4160 -0.2252
 8717SOL    HW129682   4.625   2.627  10.295 -0.3358  0.1826 -0.4714
 8717SOL    HW229683   4.575   2.558  10.170  0.2243 -1.2818  0.0829
 8718SOL     OW29684   6.821   9.289   6.608  0.4582 -0.2785 -0.2794
 8718SOL    HW129685   6.857   9.377   6.618 -0.8917  0.4193 -1.2705
 8718SOL    HW229686   6.884   9.233   6.653  1.3914  1.1696  0.3166
 8719SOL     OW29687   0.307   9.109   9.124  0.3991  0.2565  0.2853
 8719SOL    HW129688   0.244   9.099   9.195  1.3602 -1.4672  0.9532
 8719SOL    HW229689   0.383   9.149   9.166  1.4336 -1.8785  0.5749
 8720SOL     OW29690   5.822   8.545   6.660  0.2902  0.0257  0.5607
 8720SOL    HW129691   5.893   8.541   6.724  0.5027  0.4856  0.3553
 8720SOL    HW229692   5.850   8.487   6.589  0.5793  0.3988  0.3661
 8721SOL     OW29693   8.082   7.163   4.176  0.0533 -0.0101 -0.2318
 8721SOL    HW129694   8.064   7.143   4.267  0.0325  2.8989  0.4874
 8721SOL    HW229695   8.174   7.140   4.164 -0.2459 -1.5142  0.1316
 8722SOL     OW29696   4.463   7.896   1.732  0.1209 -0.1966  0.5990
 8722SOL    HW129697   4.493   7.919   1.644  0.4714  0.4568  0.8791
 8722SOL    HW229698   4.544   7.889   1.783 -0.0744 -0.6867  0.8416
 8723SOL     OW29699   4.319   5.442  10.791 -0.0106  0.4502  0.2214
 8723SOL    HW129700   4.330   5.351  10.819  1.8942  0.6221  0.1648
 8723SOL    HW229701   4.405   5.482  10.805 -0.5508  2.0021 -0.6456
 8724SOL     OW29702   9.725   5.869   2.638 -0.3011  0.2630  0.1832
 8724SOL    HW129703   9.676   5.940   2.596 -0.2469  0.2171  0.0449
 8724SOL    HW229704   9.659   5.822   2.689 -0.4055  0.1866 -0.0235
 8725SOL     OW29705   8.361   7.134   6.797  0.2359  0.0622 -0.5610
 8725SOL    HW129706   8.350   7.112   6.890  1.5357 -0.2020 -0.4388
 8725SOL    HW229707   8.444   7.182   6.795 -0.0864  0.5884 -1.5118
 8726SOL     OW29708   0.090   8.285   6.355 -0.1333 -0.1675 -0.2070
 8726SOL    HW129709   0.174   8.247   6.331 -0.1380 -0.2053 -0.1631
 8726SOL    HW229710   0.109   8.342   6.429 -0.1831 -0.3367 -0.0641
 8727SOL     OW29711   1.368  10.257   6.712  0.5040  0.5953 -0.3413
 8727SOL    HW129712   1.273  10.248   6.710  0.3548  1.9692 -2.0201
 8727SOL    HW229713   1.401  10.168   6.727 -1.0262  0.3614  2.1439
 8728SOL     OW29714   9.670   1.533   1.980 -0.0376  0.1462  0.0060
 8728SOL    HW129715   9.590   1.497   1.942 -0.3038 -0.7051  1.2981
 8728SOL    HW229716   9.732   1.461   1.979  0.5464  0.6438 -0.4734
 8729SOL     OW29717   9.982   2.520   3.476  0.0589  0.4110  0.0165
 8729SOL    HW129718   9.969   2.472   3.558  1.7947 -0.5456 -0.2340
 8729SOL    HW229719  10.018   2.605   3.503  0.3042  0.2305  0.2483
 8730SOL     OW29720   2.366   2.951   1.389  0.2937  0.2408 -0.4323
 8730SOL    HW129721   2.398   2.996   1.468 -1.2160 -1.3335  1.1633
 8730SOL    HW229722   2.293   3.005   1.359 -0.7684 -0.4549  0.7926
 8731SOL     OW29723   7.047   0.625   3.384  0.0877  0.0533 -0.0245
 8731SOL    HW129724   7.029   0.648   3.475  0.8863  1.7047 -0.2524
 8731SOL    HW229725   6.979   0.561   3.362 -0.1599 -0.3269  1.6943
 8732SOL     OW29726   8.037   2.523  10.886 -0.2444  0.3712  0.3377
 8732SOL    HW129727   8.084   2.603  10.909  1.0324  0.0390 -1.0117
 8732SOL    HW229728   8.007   2.537  10.797 -1.3610 -0.0681  0.6244
 8733SOL     OW29729   7.661   3.506   1.580 -0.0898 -0.2203  0.6529
 8733SOL    HW129730   7.750   3.498   1.614 -0.1727 -2.5383  0.4565
 8733SOL    HW229731   7.605   3.484   1.654 -0.6042  2.1456  1.0481
 8734SOL     OW29732   3.790   4.254   0.988  0.1426 -0.1279 -0.2103
 8734SOL    HW129733   3.777   4.259   1.083  1.8461 -0.5377  0.0710
 8734SOL    HW229734   3.816   4.163   0.972  1.5215  0.3435 -0.8175
 8735SOL     OW29735   3.915  10.325   4.272 -0.0707  0.1884  0.2921
 8735SOL    HW129736   3.986  10.280   4.227  0.3338  0.6662  0.4501
 8735SOL    HW229737   3.879  10.385   4.206  0.2881  0.6254  0.4853
 8736SOL     OW29738   2.553  10.665  10.546  0.3878  0.2908 -0.0842
 8736SOL    HW129739   2.462  10.636  10.536  0.5296  0.4187 -2.1180
 8736SOL    HW229740   2.603  10.607  10.489  1.3151  1.4056 -0.4327
 8737SOL     OW29741   4.843   9.307   4.429  0.2671  0.1688 -0.9162
 8737SOL    HW129742   4.906   9.374   4.401  0.8381  0.2454  0.4530
 8737SOL    HW229743   4.777   9.355   4.477  1.2159 -0.3202  0.9610
 8738SOL     OW29744   8.495   7.805   8.712  0.4474  0.2129 -0.6473
 8738SOL    HW129745   8.507   7.750   8.634 -1.0642  0.1588 -0.8898
 8738SOL    HW229746   8.491   7.894   8.677 -0.9420  0.1320 -0.7506
 8739SOL     OW29747   7.078   0.691   9.806 -0.7949 -0.2489  0.5449
 8739SOL    HW129748   7.032   0.756   9.753  0.4835  0.4821  0.2954
 8739SOL    HW229749   7.009   0.649   9.857 -1.8363  0.2357 -0.4183
 8740SOL     OW29750   1.028   5.371   6.240 -0.1192 -0.1150  0.3508
 8740SOL    HW129751   1.041   5.463   6.262 -1.8819  0.5244 -0.9742
 8740SOL    HW229752   1.093   5.324   6.292  1.7797  1.9682  0.0090
 8741SOL     OW29753   8.272   9.376   2.907  0.4360  0.0743  0.0409
 8741SOL    HW129754   8.195   9.365   2.852 -0.1058  0.7356  0.6448
 8741SOL    HW229755   8.335   9.313   2.873 -0.1044  0.0408 -0.9321
 8742SOL     OW29756  10.978   7.804   5.937  0.1076 -0.9675  0.3012
 8742SOL    HW129757  11.013   7.838   6.019  1.1053 -1.8088  0.2468
 8742SOL    HW229758  10.950   7.715   5.958 -2.7182 -0.1309  0.5075
 8743SOL     OW29759   8.901   9.768   7.448  0.7055 -0.2676  0.1990
 8743SOL    HW129760   8.898   9.673   7.461  1.7476 -0.3869 -0.2662
 8743SOL    HW229761   8.867   9.805   7.530 -0.3669 -1.0397  0.1122
 8744SOL     OW29762   1.682   0.998   6.851 -0.3698  0.4893 -0.1010
 8744SOL    HW129763   1.685   0.988   6.946 -0.2084  0.0326 -0.1492
 8744SOL    HW229764   1.699   1.091   6.836  0.0115  0.4895  0.3022
 8745SOL     OW29765   7.013   8.114   7.932 -0.2963  0.4283 -0.1707
 8745SOL    HW129766   6.983   8.048   7.995 -2.1682  0.1228 -1.3014
 8745SOL    HW229767   7.058   8.180   7.985 -1.6097  0.0746  1.4546
 8746SOL     OW29768   5.132   9.013   0.920 -0.0189  0.2422  0.3743
 8746SOL    HW129769   5.050   8.983   0.960  0.3821  1.0180  1.8284
 8746SOL    HW229770   5.151   9.096   0.963  1.0987  0.5018 -0.5722
 8747SOL     OW29771   0.602   1.655   8.729 -0.2016  0.3226 -0.0356
 8747SOL    HW129772   0.531   1.696   8.681 -0.2390  1.9165  1.3030
 8747SOL    HW229773   0.679   1.667   8.673 -0.6127  0.3468 -0.6004
 8748SOL     OW29774   0.901   5.768   4.361 -0.0909  0.0131  0.2462
 8748SOL    HW129775   0.894   5.794   4.270 -0.2302 -0.4512  0.1223
 8748SOL    HW229776   0.995   5.776   4.381  0.3279 -2.1226 -0.6221
 8749SOL     OW29777   1.388   8.593   6.634 -0.0921  0.3012 -0.0304
 8749SOL    HW129778   1.347   8.632   6.557 -1.0320  1.9220  1.2159
 8749SOL    HW229779   1.474   8.635   6.639  1.2524 -1.9880 -1.7864
 8750SOL     OW29780  10.940   9.284   5.692  0.6357  0.4859  0.1412
 8750SOL    HW129781  10.976   9.332   5.617 -0.4035 -0.5477 -1.0688
 8750SOL    HW229782  11.017   9.245   5.735  1.4477  2.7160  0.8496
 8751SOL     OW29783   5.155   8.774   3.375  0.3497 -0.3854 -0.4122
 8751SOL    HW129784   5.211   8.793   3.299  0.8380  1.9324  0.4666
 8751SOL    HW229785   5.217   8.749   3.444  0.3524  1.6775  0.4087
 8752SOL     OW29786   7.074   3.661   9.284 -0.3900 -0.2593  0.5649
 8752SOL    HW129787   7.150   3.602   9.283  0.0875  0.3314 -0.4859
 8752SOL    HW229788   7.018   3.628   9.213 -1.3622 -0.9626  1.6198
 8753SOL     OW29789   8.690   7.727   1.329  0.4031 -0.6453  0.2120
 8753SOL    HW129790   8.623   7.677   1.376 -0.3383  1.4331  1.5066
 8753SOL    HW229791   8.767   7.724   1.387  0.3704 -0.3197  0.2707
 8754SOL     OW29792   1.857   7.209   3.641  0.0348 -0.1811 -0.3797
 8754SOL    HW129793   1.867   7.215   3.546 -0.2746 -0.0340 -0.4039
 8754SOL    HW229794   1.778   7.260   3.661 -0.2499 -0.7044 -0.1169
 8755SOL     OW29795   3.041   0.985   3.403  0.8199 -0.2456 -0.3468
 8755SOL    HW129796   3.044   0.985   3.307  0.2897 -0.9943 -0.3740
 8755SOL    HW229797   2.968   0.926   3.424  0.9964 -0.1611  0.5170
 8756SOL     OW29798   5.136   0.380   0.509 -0.0227 -0.2898  0.0975
 8756SOL    HW129799   5.230   0.378   0.490  0.1946 -1.1862  1.1642
 8756SOL    HW229800   5.095   0.392   0.424  1.0304 -0.7848 -0.5003
 8757SOL     OW29801   0.499   3.046   6.498 -0.1559 -0.1960  0.3638
 8757SOL    HW129802   0.479   3.023   6.407  1.0459  0.4016 -0.0733
 8757SOL    HW229803   0.438   2.993   6.550 -1.6202  0.2848 -0.8081
 8758SOL     OW29804   8.679   9.885   7.367  0.1611 -0.2808 -0.5247
 8758SOL    HW129805   8.628   9.806   7.388  1.4458 -1.3472 -1.2668
 8758SOL    HW229806   8.770   9.854   7.363  0.8829  1.5347  0.5910
 8759SOL     OW29807   1.762   5.780   5.856 -0.1220  0.9069 -0.4004
 8759SOL    HW129808   1.852   5.798   5.884 -0.2649 -0.8449  1.4107
 8759SOL    HW229809   1.770   5.707   5.793 -0.3387 -0.3739  1.0020
 8760SOL     OW29810   7.719   3.511   6.907 -0.6807  0.5868 -0.5122
 8760SOL    HW129811   7.675   3.516   6.992  0.5240 -0.6301  0.2334
 8760SOL    HW229812   7.680   3.581   6.855 -3.1720 -0.1376  0.2209
 8761SOL     OW29813   0.963   0.132   3.094 -0.0828  0.1783 -0.2831
 8761SOL    HW129814   1.005   0.218   3.083 -0.6785  0.4704 -0.3334
 8761SOL    HW229815   0.983   0.108   3.185  1.2467 -0.2730 -0.6822
 8762SOL     OW29816  10.238   6.431   3.836  0.7913  0.2041 -0.4825
 8762SOL    HW129817  10.318   6.460   3.793  1.0097 -0.5953 -0.6427
 8762SOL    HW229818  10.193   6.511   3.861  2.5601  0.6854  1.3628
 8763SOL     OW29819   9.319   9.821   2.202  0.0420 -0.0580 -0.2503
 8763SOL    HW129820   9.400   9.842   2.154 -0.8710  1.0039 -1.3897
 8763SOL    HW229821   9.259   9.892   2.179 -1.0942 -0.6193  0.8917
 8764SOL     OW29822   2.362   9.106   9.475  0.0883  0.1035  0.3938
 8764SOL    HW129823   2.276   9.148   9.486  0.0153 -0.0021  0.2274
 8764SOL    HW229824   2.347   9.039   9.409  0.6963  1.2173 -0.9045
 8765SOL     OW29825   3.900  10.912   5.909 -0.0352 -0.1059  0.5419
 8765SOL    HW129826   3.856  10.869   5.982  1.8189 -2.3399  0.4780
 8765SOL    HW229827   3.881  10.857   5.833  1.0068  0.1321  0.0898
 8766SOL     OW29828   1.698   0.467   0.351 -0.1721  0.4422  0.1369
 8766SOL    HW129829   1.608   0.460   0.320  0.3353 -0.1081 -1.2866
 8766SOL    HW229830   1.732   0.547   0.309  1.3198 -1.6626 -3.0297
 8767SOL     OW29831   5.583   2.296  10.922  0.2390 -0.0654 -0.1617
 8767SOL    HW129832   5.610   2.342  10.842 -0.5368 -2.4426 -1.9026
 8767SOL    HW229833   5.619   2.208  10.913  1.0126 -0.1391  2.6738
 8768SOL     OW29834   3.499   9.309   2.577 -0.4705 -0.1123 -0.5014
 8768SOL    HW129835   3.580   9.276   2.536 -0.7873 -0.6336 -0.7106
 8768SOL    HW229836   3.492   9.260   2.659 -1.5009 -1.3740 -1.2998
 8769SOL     OW29837  10.947   1.611  11.069 -0.1147  0.6732  0.3219
 8769SOL    HW129838  11.042   1.616  11.068  0.0005 -0.4446  2.0291
 8769SOL    HW229839  10.921   1.648  11.153 -1.0768 -0.2047  0.4376
 8770SOL     OW29840   3.782   4.788   0.791  0.0066  0.0184 -0.2842
 8770SOL    HW129841   3.721   4.728   0.750 -0.4356  0.7363 -0.7019
 8770SOL    HW229842   3.730   4.867   0.808  0.5909  0.3138  0.1730
 8771SOL     OW29843  10.960   0.097  10.066 -0.2521  0.5015 -0.2375
 8771SOL    HW129844  10.974   0.178  10.018 -0.2666  0.3285 -0.5350
 8771SOL    HW229845  10.895   0.119  10.133  0.9583  1.1551  0.7623
 8772SOL     OW29846   1.079   3.173   9.128 -0.0336 -0.6866  0.1970
 8772SOL    HW129847   1.015   3.110   9.095 -0.3534 -0.6237  0.6921
 8772SOL    HW229848   1.148   3.119   9.167 -0.6948 -0.7312  1.3464
 8773SOL     OW29849   2.833   7.659   3.370  0.0118 -0.1367  0.0206
 8773SOL    HW129850   2.916   7.647   3.417  0.7679  0.3498 -1.1216
 8773SOL    HW229851   2.857   7.713   3.294 -1.7097  1.6616  0.6712
 8774SOL     OW29852   1.512   2.517   4.811 -0.1544  0.1955 -0.0698
 8774SOL    HW129853   1.586   2.518   4.871 -1.5261  0.2704  1.6954
 8774SOL    HW229854   1.552   2.516   4.724  1.9590  3.3676  0.7053
 8775SOL     OW29855   4.955   2.347   4.602  0.0951 -0.0239 -0.5300
 8775SOL    HW129856   4.890   2.279   4.619  0.7024 -0.9701 -1.8054
 8775SOL    HW229857   4.910   2.429   4.621 -1.0129 -0.7219 -0.0348
 8776SOL     OW29858   8.705   4.668   2.441  0.2970 -0.5757  0.1311
 8776SOL    HW129859   8.746   4.583   2.460 -0.3933 -1.5325 -2.3072
 8776SOL    HW229860   8.632   4.647   2.384 -0.0271  1.6639 -0.3612
 8777SOL     OW29861   5.386   0.064   9.564  0.7107  0.0607 -0.0603
 8777SOL    HW129862   5.334  -0.004   9.520  0.5620  0.2025 -0.1065
 8777SOL    HW229863   5.410   0.124   9.494 -0.7729  1.0845  0.2682
 8778SOL     OW29864   4.193   0.846   1.874 -0.5655  0.0403 -0.2484
 8778SOL    HW129865   4.163   0.893   1.796 -0.7398 -1.0280 -0.8467
 8778SOL    HW229866   4.168   0.755   1.858 -0.8151 -0.1692  1.1632
 8779SOL     OW29867  10.713   8.042   7.090 -0.2246  0.0490 -0.0762
 8779SOL    HW129868  10.698   8.088   7.172  0.4703  1.5377 -0.7637
 8779SOL    HW229869  10.640   7.980   7.084 -0.1865 -0.2079  1.7299
 8780SOL     OW29870  10.217   2.249   9.399 -0.2492  0.5489 -0.0559
 8780SOL    HW129871  10.191   2.261   9.491 -1.5863 -0.9531 -0.2000
 8780SOL    HW229872  10.134   2.247   9.351  0.4503  1.8118 -1.4006
 8781SOL     OW29873   6.180   5.228  10.319 -0.0754  0.2539 -0.1982
 8781SOL    HW129874   6.206   5.148  10.274 -0.3860 -0.6259  1.1239
 8781SOL    HW229875   6.120   5.272  10.258  0.5339 -0.2281 -1.1679
 8782SOL     OW29876   0.601   2.592   6.468 -0.4036  0.1217 -0.1750
 8782SOL    HW129877   0.635   2.661   6.411 -1.2942  0.2494 -0.5729
 8782SOL    HW229878   0.506   2.596   6.456 -0.5358 -0.4997  0.5799
 8783SOL     OW29879   3.762   6.318   9.177 -0.1386  0.1257  0.2439
 8783SOL    HW129880   3.827   6.265   9.130 -0.6329  0.4233 -0.8197
 8783SOL    HW229881   3.731   6.261   9.248 -0.5327 -0.9676 -0.7601
 8784SOL     OW29882   6.145   8.987   9.118 -0.2812 -0.1740  0.2209
 8784SOL    HW129883   6.183   9.041   9.187  1.2088 -0.7543 -0.1149
 8784SOL    HW229884   6.218   8.937   9.083 -1.2983 -1.0814 -0.7042
 8785SOL     OW29885   2.118   1.529   7.790 -0.3609 -0.4710 -0.2261
 8785SOL    HW129886   2.046   1.589   7.773  0.7204  0.7084 -0.8299
 8785SOL    HW229887   2.078   1.442   7.790 -1.2415 -0.2857 -4.4920
 8786SOL     OW29888  10.092   6.547   5.330 -0.3305  0.0430  0.6904
 8786SOL    HW129889  10.100   6.637   5.362  0.4573  0.1381  0.2511
 8786SOL    HW229890  10.177   6.527   5.291 -1.1040 -0.2318 -0.9306
 8787SOL     OW29891   0.885  11.095   7.805  0.4217 -0.4545 -0.1416
 8787SOL    HW129892   0.837  11.141   7.736 -1.0352  1.0292  1.7562
 8787SOL    HW229893   0.971  11.079   7.767  0.1297  1.5257 -1.8352
 8788SOL     OW29894   9.339   6.765   5.136  0.5590  0.2140  0.0097
 8788SOL    HW129895   9.325   6.670   5.146 -0.9111  0.4439  0.4094
 8788SOL    HW229896   9.304   6.785   5.050  2.9665  0.0600 -1.0700
 8789SOL     OW29897   5.999   6.266   8.452  0.1058  0.6850 -0.1411
 8789SOL    HW129898   6.040   6.332   8.395 -1.3812  1.3780 -0.4760
 8789SOL    HW229899   5.942   6.317   8.509 -1.9576 -0.3611 -1.1607
 8790SOL     OW29900   5.089   4.987   5.358 -0.4783  0.1307 -0.6813
 8790SOL    HW129901   5.138   5.049   5.412 -0.7601  0.4902 -0.8354
 8790SOL    HW229902   5.032   4.941   5.420 -1.9564  1.6437 -0.8626
 8791SOL     OW29903   0.496   3.114   3.962  0.3341 -0.3983 -0.6929
 8791SOL    HW129904   0.565   3.180   3.974  0.4127 -0.4249 -0.9707
 8791SOL    HW229905   0.543   3.030   3.961  0.3522 -0.3890 -1.2901
 8792SOL     OW29906   4.297   5.221   9.061 -0.5341 -0.4496  0.2616
 8792SOL    HW129907   4.307   5.179   8.975 -1.5230 -0.2211  0.0177
 8792SOL    HW229908   4.281   5.313   9.041 -3.4648 -0.7866  0.4868
 8793SOL     OW29909   9.744   7.534   3.974 -0.0225 -0.8309 -0.5970
 8793SOL    HW129910   9.789   7.514   4.056 -0.4352 -3.1094 -0.8524
 8793SOL    HW229911   9.783   7.474   3.910  0.3874  0.9739 -2.1511
 8794SOL     OW29912  10.867   4.385   3.633 -0.1381 -0.4776  0.0504
 8794SOL    HW129913  10.924   4.330   3.686  0.9790  1.0777  0.5599
 8794SOL    HW229914  10.803   4.325   3.595  1.0346 -2.0944  0.5329
 8795SOL     OW29915   3.147   8.686   4.893 -0.3381 -0.2659  0.4167
 8795SOL    HW129916   3.182   8.602   4.861 -1.3275 -0.2006 -0.8880
 8795SOL    HW229917   3.223   8.744   4.894  0.0201 -0.7110 -0.2927
 8796SOL     OW29918   1.073   9.577   9.659 -0.3163 -0.4280 -0.4048
 8796SOL    HW129919   0.989   9.545   9.693 -0.7625  1.2133  0.1255
 8796SOL    HW229920   1.050   9.640   9.592  0.5114 -0.3878 -0.6619
 8797SOL     OW29921   5.325  10.668  10.185 -0.2441  0.0904 -0.4621
 8797SOL    HW129922   5.401  10.725  10.177 -0.3261  0.2533 -0.1063
 8797SOL    HW229923   5.302  10.672  10.278  1.5487 -2.8451  0.2326
 8798SOL     OW29924   2.290  10.944   9.730  0.5876 -0.3391 -0.4436
 8798SOL    HW129925   2.203  10.984   9.736  0.7781 -0.0422  0.3868
 8798SOL    HW229926   2.275  10.862   9.683 -0.0284  0.0398 -0.9287
 8799SOL     OW29927   1.429   0.344   2.452 -0.3022  0.5141  0.0335
 8799SOL    HW129928   1.419   0.313   2.542  0.8184  0.9769  0.3288
 8799SOL    HW229929   1.394   0.433   2.453 -0.3232  0.5062  0.0037
 8800SOL     OW29930  10.126  10.186   3.643 -0.3156 -0.4826 -0.1019
 8800SOL    HW129931  10.126  10.278   3.614 -0.8024 -0.4259  0.0680
 8800SOL    HW229932  10.149  10.137   3.564 -0.1713 -0.2227 -0.2250
 8801SOL     OW29933  10.254   4.469   3.947  0.0403 -0.4187  0.3021
 8801SOL    HW129934  10.308   4.391   3.940  2.3189  1.1284 -0.3716
 8801SOL    HW229935  10.197   4.466   3.870  0.2872 -1.2713  0.1441
 8802SOL     OW29936   6.227  10.494   6.001  0.0725 -0.8196  0.3934
 8802SOL    HW129937   6.197  10.584   5.989  0.3832 -0.8500 -0.7511
 8802SOL    HW229938   6.296  10.500   6.067  0.0146 -0.2377  0.4020
 8803SOL     OW29939   7.506   8.107  10.418  1.0276 -0.3641  0.5932
 8803SOL    HW129940   7.553   8.143  10.343 -0.1028  0.6620  0.3533
 8803SOL    HW229941   7.482   8.018  10.390  0.7203 -0.0342 -0.2084
 8804SOL     OW29942   7.433   4.958   9.680  0.1460 -0.1929  0.1854
 8804SOL    HW129943   7.461   5.022   9.745 -0.0058  0.0947 -0.0313
 8804SOL    HW229944   7.458   4.996   9.596  0.7411 -0.7613  0.0901
 8805SOL     OW29945   7.736   5.478   3.201 -0.1929 -0.3169 -0.3195
 8805SOL    HW129946   7.736   5.557   3.148 -0.4992  0.4039  0.7269
 8805SOL    HW229947   7.659   5.430   3.172  0.3173 -0.5352 -1.3700
 8806SOL     OW29948   7.158   1.291   3.450 -0.4222  0.0219  0.2118
 8806SOL    HW129949   7.070   1.258   3.466 -0.5454  0.2714  0.0580
 8806SOL    HW229950   7.200   1.289   3.536 -0.9141  0.8664  0.4873
 8807SOL     OW29951   3.845   4.173   8.067 -0.2429 -0.4992  0.0552
 8807SOL    HW129952   3.897   4.212   7.997 -0.5622  0.0280  0.1083
 8807SOL    HW229953   3.757   4.209   8.055  0.0731  1.0184  1.7932
 8808SOL     OW29954   6.390   5.414   6.898 -0.4292  0.1419 -0.0143
 8808SOL    HW129955   6.471   5.363   6.890  0.5733  1.6262  0.2371
 8808SOL    HW229956   6.351   5.411   6.810  1.0582  1.2037 -0.7500
 8809SOL     OW29957   5.338   3.380   5.532  0.2115  0.2211 -0.4434
 8809SOL    HW129958   5.302   3.449   5.476  0.7024 -0.0939 -1.1585
 8809SOL    HW229959   5.359   3.309   5.471  1.6989  0.2554 -0.0053
 8810SOL     OW29960   4.527   5.264   6.994  0.0626  0.0874  0.6953
 8810SOL    HW129961   4.518   5.312   6.913 -2.5810  0.8666  1.3485
 8810SOL    HW229962   4.619   5.272   7.017  0.6179  0.8668 -1.5687
 8811SOL     OW29963   1.252  10.121   2.584 -0.2621 -0.0268 -0.2031
 8811SOL    HW129964   1.167  10.093   2.618  0.1999 -1.0935  0.1347
 8811SOL    HW229965   1.316  10.082   2.644  0.4631  1.1032 -0.2102
 8812SOL     OW29966   3.969   9.650   6.343 -0.8809  0.0779 -0.3128
 8812SOL    HW129967   3.962   9.565   6.299 -2.5235  0.4335 -0.7886
 8812SOL    HW229968   4.001   9.709   6.275  0.4517 -0.1546  0.0684
 8813SOL     OW29969   8.052  11.052   3.485 -0.6737  0.4584  0.2082
 8813SOL    HW129970   8.031  11.084   3.397 -1.5724 -1.5831 -0.3746
 8813SOL    HW229971   8.148  11.048   3.486 -0.5184  2.5476  0.1536
 8814SOL     OW29972   7.909   6.974   1.694 -0.0491  0.1614  0.3129
 8814SOL    HW129973   7.929   6.883   1.716  0.9880  0.1728 -0.5228
 8814SOL    HW229974   7.871   7.010   1.774 -0.9797 -1.1409  0.4898
 8815SOL     OW29975   2.173   9.948   8.981 -0.3236 -0.0295 -0.0624
 8815SOL    HW129976   2.109  10.018   8.970  1.7475  1.7483 -1.8374
 8815SOL    HW229977   2.210   9.962   9.068 -0.4335  0.6402 -0.1234
 8816SOL     OW29978   8.461   9.269   3.182 -0.1600 -0.7738  0.3647
 8816SOL    HW129979   8.408   9.213   3.126  0.8580  0.8609 -2.4162
 8816SOL    HW229980   8.407   9.347   3.196 -0.4456 -1.1950  1.8465
 8817SOL     OW29981   8.657   1.071   0.273  0.4468 -0.6198 -0.4473
 8817SOL    HW129982   8.633   1.012   0.345  0.6422 -0.7730 -0.5063
 8817SOL    HW229983   8.647   1.017   0.195  1.5699 -0.8692 -0.4255
 8818SOL     OW29984   1.205   9.594   7.938  0.0561 -0.0462 -0.2167
 8818SOL    HW129985   1.170   9.654   8.005  2.4442  0.5058  0.6506
 8818SOL    HW229986   1.164   9.623   7.856  0.1613  1.9703  0.3819
 8819SOL     OW29987   4.748   0.878   0.023  0.4376  0.0918 -0.9591
 8819SOL    HW129988   4.653   0.886   0.028  0.4461 -0.1867 -0.1784
 8819SOL    HW229989   4.763   0.785   0.004  0.5567  0.1252 -1.0268
 8820SOL     OW29990   7.186   4.684   2.724 -0.3194  0.5077 -0.6409
 8820SOL    HW129991   7.154   4.653   2.809  2.7030  0.3653  0.5660
 8820SOL    HW229992   7.200   4.604   2.673  2.7663  0.0468  0.7004
 8821SOL     OW29993   3.690   4.101   4.726  0.5101 -0.0373  0.2788
 8821SOL    HW129994   3.706   4.068   4.638 -0.4103  1.0974 -0.3412
 8821SOL    HW229995   3.756   4.169   4.739  0.8301 -0.4045  0.5783
 8822SOL     OW29996   4.919   5.339   6.234 -1.3259 -0.5259 -0.1516
 8822SOL    HW129997   4.954   5.362   6.321 -1.4535 -3.9122  0.9297
 8822SOL    HW229998   4.875   5.419   6.205  0.7233  1.4831  1.8057
 8823SOL     OW29999   5.093   4.299   1.085 -0.0553  0.3238 -0.2775
 8823SOL    HW130000   5.027   4.366   1.099 -1.5989 -0.8699 -1.4456
 8823SOL    HW230001   5.153   4.338   1.021 -0.6010  0.7945 -0.5125
 8824SOL     OW30002   3.051   4.560  10.345 -0.4702  0.7487  0.0531
 8824SOL    HW130003   2.976   4.505  10.322  0.1149  0.4353 -1.1751
 8824SOL    HW230004   3.045   4.635  10.286  2.4171 -1.2335 -3.1287
 8825SOL     OW30005   6.731   3.768   6.547 -0.2512  0.0631  0.3892
 8825SOL    HW130006   6.650   3.776   6.597  0.4157 -0.9525  1.6820
 8825SOL    HW230007   6.704   3.730   6.463 -0.9488 -1.6306  1.3416
 8826SOL     OW30008   9.267   2.896   8.697  0.8284 -0.0655 -0.1783
 8826SOL    HW130009   9.282   2.957   8.769 -0.4327 -2.1548  1.9984
 8826SOL    HW230010   9.174   2.871   8.705  0.4108  0.1929 -3.0519
 8827SOL     OW30011   4.523   5.747   8.692  0.0887  0.7187 -0.3185
 8827SOL    HW130012   4.573   5.668   8.711  1.3251  1.9681  1.9217
 8827SOL    HW230013   4.440   5.714   8.656  0.3655 -1.6167  0.9676
 8828SOL     OW30014   1.600   8.915  11.080 -0.3869  0.1352  0.1683
 8828SOL    HW130015   1.506   8.929  11.083 -0.4387  0.3611 -1.4978
 8828SOL    HW230016   1.637   9.002  11.071 -0.0375  0.0124  0.3860
 8829SOL     OW30017   5.691   7.270   4.000 -0.2151  0.2597 -0.0426
 8829SOL    HW130018   5.765   7.240   4.052 -0.7682  0.2270  0.7530
 8829SOL    HW230019   5.677   7.361   4.029  0.5106  0.8210 -1.3494
 8830SOL     OW30020   7.504   1.409   2.398 -0.4207  0.2249 -0.2240
 8830SOL    HW130021   7.563   1.419   2.323  2.1794 -1.3036  1.4815
 8830SOL    HW230022   7.503   1.496   2.439  0.5737  0.2974 -0.3377
 8831SOL     OW30023   2.491  10.437   3.022 -0.1425 -0.1294 -0.3291
 8831SOL    HW130024   2.525  10.348   3.014 -0.0581 -0.5534  3.1511
 8831SOL    HW230025   2.400  10.431   2.993  0.1593 -1.0423 -1.1518
 8832SOL     OW30026   7.792   7.900   7.201  0.3129 -0.0422  0.2490
 8832SOL    HW130027   7.772   7.980   7.153 -2.0947 -1.5582 -1.4619
 8832SOL    HW230028   7.883   7.880   7.177  1.3585  2.5946  1.5180
 8833SOL     OW30029   6.638   7.565  10.816 -0.1681 -0.0074 -0.0326
 8833SOL    HW130030   6.655   7.515  10.737  1.6118 -0.8879  0.8371
 8833SOL    HW230031   6.576   7.512  10.866 -0.0153 -0.2530 -0.1038
 8834SOL     OW30032   6.708   1.986   4.178  0.2976 -0.2360 -0.2774
 8834SOL    HW130033   6.624   1.965   4.135  0.1539  1.1910 -0.7516
 8834SOL    HW230034   6.739   2.063   4.131 -0.2780  1.9789  2.7092
 8835SOL     OW30035   9.864   3.114   5.752  0.0684 -0.4870 -0.5399
 8835SOL    HW130036   9.881   3.093   5.843 -1.0301 -0.1215 -0.2345
 8835SOL    HW230037   9.863   3.210   5.749 -0.7847 -0.4956 -0.7486
 8836SOL     OW30038   7.633   5.055   5.964 -0.3064  0.0519  0.1514
 8836SOL    HW130039   7.642   4.998   6.040 -0.8882 -2.0053 -1.2379
 8836SOL    HW230040   7.722   5.078   5.940 -0.1079  0.4930  1.2610
 8837SOL     OW30041   4.910   0.805  10.448  0.1436  0.1014 -0.3821
 8837SOL    HW130042   4.936   0.843  10.532 -0.8987  1.6831 -0.7191
 8837SOL    HW230043   4.905   0.880  10.389 -2.7486 -0.4012 -0.9084
 8838SOL     OW30044   9.401  10.202  11.072 -0.1583 -0.1928 -0.3325
 8838SOL    HW130045   9.393  10.274  11.135  0.7084 -0.0504 -0.3768
 8838SOL    HW230046   9.488  10.213  11.034  0.3916 -1.8491  0.3808
 8839SOL     OW30047   6.781  10.662   9.820 -0.2728 -0.0493 -0.2641
 8839SOL    HW130048   6.695  10.633   9.850 -0.6654  1.8630  0.6200
 8839SOL    HW230049   6.835  10.665   9.899  0.3225 -0.2747 -0.6513
 8840SOL     OW30050   6.696   0.018   1.536  0.5593  0.1772 -0.2215
 8840SOL    HW130051   6.644   0.033   1.457  0.3102 -0.7719 -0.2564
 8840SOL    HW230052   6.726  -0.073   1.528 -0.1215 -0.1919  1.1344
 8841SOL     OW30053   0.508   7.265  10.189 -0.3511  0.1835  0.1742
 8841SOL    HW130054   0.519   7.173  10.166  0.2104  0.2311  0.2325
 8841SOL    HW230055   0.423   7.269  10.232  0.5239 -0.6932  2.0973
 8842SOL     OW30056   5.285   2.738   4.221  0.6508 -0.5803 -0.4059
 8842SOL    HW130057   5.374   2.703   4.208  1.8792  2.6362 -1.6844
 8842SOL    HW230058   5.294   2.800   4.292 -0.4974  0.0183 -0.7650
 8843SOL     OW30059   0.258   2.162  11.040  0.2187  0.0697  0.1278
 8843SOL    HW130060   0.256   2.069  11.018 -0.8774 -0.1111  0.9407
 8843SOL    HW230061   0.301   2.203  10.965  0.5625 -1.0624 -0.3214
 8844SOL     OW30062   0.145   1.219   4.521 -0.0045  0.0957  0.2327
 8844SOL    HW130063   0.073   1.216   4.585 -0.5775 -1.0206 -0.4200
 8844SOL    HW230064   0.220   1.181   4.568 -0.7026 -1.7476 -0.0298
 8845SOL     OW30065   9.491   5.658  10.226 -0.4230  0.0334 -0.0114
 8845SOL    HW130066   9.469   5.632  10.316  2.1625  3.3277  1.7947
 8845SOL    HW230067   9.576   5.616  10.210 -0.9468 -0.6614 -1.0194
 8846SOL     OW30068   4.298   7.695   9.053  0.4990  0.4730 -0.5191
 8846SOL    HW130069   4.310   7.602   9.033 -1.5777  0.3882 -1.6271
 8846SOL    HW230070   4.268   7.734   8.971 -5.8807  0.6313  1.3149
 8847SOL     OW30071   1.901   7.242   3.091  0.5609  0.2525  0.5817
 8847SOL    HW130072   1.927   7.329   3.061  1.5326  0.6041  2.3088
 8847SOL    HW230073   1.806   7.247   3.100  0.5592  0.9956  0.2528
 8848SOL     OW30074   6.322   2.469   5.760  0.2679 -0.0625  0.1403
 8848SOL    HW130075   6.285   2.489   5.674  1.4837 -1.8447 -0.8677
 8848SOL    HW230076   6.246   2.464   5.818 -0.7827 -0.5128 -1.2041
 8849SOL     OW30077   7.642   5.195   8.426 -0.0207 -0.0898  0.1237
 8849SOL    HW130078   7.658   5.211   8.333 -0.8825  1.4658  0.2039
 8849SOL    HW230079   7.566   5.137   8.428  0.0611 -0.2063 -0.1399
 8850SOL     OW30080   2.014   9.553   3.363 -0.4048 -0.1659 -0.2860
 8850SOL    HW130081   2.051   9.482   3.415  0.2593 -1.0746 -1.9480
 8850SOL    HW230082   2.018   9.629   3.421  0.6342 -1.0653  0.8751
 8851SOL     OW30083   0.681   2.073  10.153 -0.2319  0.2134 -0.0739
 8851SOL    HW130084   0.699   2.073  10.247  1.1307 -0.0311 -0.3172
 8851SOL    HW230085   0.727   2.149  10.119  0.8633 -0.7454 -0.8065
 8852SOL     OW30086   8.759   8.169   9.246 -0.5403 -0.1538 -0.0232
 8852SOL    HW130087   8.797   8.137   9.165  1.3085 -0.8064  1.0444
 8852SOL    HW230088   8.799   8.254   9.260  1.0953 -1.0950  1.4070
 8853SOL     OW30089   7.724   2.855   3.865  0.1662 -0.3865  0.0204
 8853SOL    HW130090   7.639   2.883   3.831 -0.5331 -1.2802  1.0066
 8853SOL    HW230091   7.726   2.761   3.850 -0.1846 -0.8299  2.4215
 8854SOL     OW30092   1.066   3.374   0.182 -0.5778  0.1378 -0.1028
 8854SOL    HW130093   0.975   3.389   0.208 -0.9707 -2.4470  0.2337
 8854SOL    HW230094   1.067   3.285   0.148  2.2805 -0.9360  2.3688
 8855SOL     OW30095   7.833   0.582   0.880  0.1871  0.5379 -0.0415
 8855SOL    HW130096   7.854   0.658   0.827  0.8135 -0.1162 -0.7632
 8855SOL    HW230097   7.813   0.513   0.816 -2.1865  0.5595  0.5849
 8856SOL     OW30098  10.705   0.541   7.253  0.2780  0.0142 -0.3416
 8856SOL    HW130099  10.776   0.503   7.304  0.7414 -1.1280 -1.7543
 8856SOL    HW230100  10.689   0.477   7.183 -1.2212  0.8820 -0.8500
 8857SOL     OW30101   9.123   9.702  10.761 -0.6756 -0.0837 -0.1121
 8857SOL    HW130102   9.046   9.650  10.738 -1.2352  0.4828  0.4613
 8857SOL    HW230103   9.089   9.791  10.773  0.0818  0.1856  0.0653
 8858SOL     OW30104   3.649   3.819  10.210 -0.4499 -0.2619 -0.5724
 8858SOL    HW130105   3.606   3.733  10.210 -0.7754 -0.2325  2.5770
 8858SOL    HW230106   3.626   3.856  10.295  0.2309  2.7059 -1.5893
 8859SOL     OW30107   2.151   0.336   1.483 -0.0994  0.2468 -0.0814
 8859SOL    HW130108   2.156   0.328   1.387  2.5468 -1.2972  0.0905
 8859SOL    HW230109   2.120   0.425   1.498 -1.5403  0.2124 -2.3540
 8860SOL     OW30110   2.291   7.727   9.254  0.0387  0.2040  0.2834
 8860SOL    HW130111   2.343   7.787   9.307  0.6742 -0.9996  1.0756
 8860SOL    HW230112   2.313   7.750   9.163 -0.1662  1.5191  0.5532
 8861SOL     OW30113   9.306  10.146   2.257  0.0584 -0.0186  0.2536
 8861SOL    HW130114   9.312  10.150   2.162 -1.0905 -1.3006  0.0813
 8861SOL    HW230115   9.213  10.163   2.275 -0.0705 -1.3890  0.9948
 8862SOL     OW30116   6.630   5.734   0.922  0.6341  0.1804 -0.2212
 8862SOL    HW130117   6.693   5.801   0.948  0.3856  0.3107  0.0394
 8862SOL    HW230118   6.630   5.738   0.826  2.2029 -0.9056 -0.3024
 8863SOL     OW30119   5.141   1.558   6.576  0.1823 -0.0156  0.8522
 8863SOL    HW130120   5.151   1.586   6.667 -0.2350 -1.3086  1.3176
 8863SOL    HW230121   5.188   1.475   6.572  1.6257  0.8078 -0.5519
 8864SOL     OW30122   0.063   4.387  10.721 -0.0241  0.7052 -0.5196
 8864SOL    HW130123   0.069   4.401  10.626 -1.6729  0.1246 -0.7394
 8864SOL    HW230124   0.019   4.465  10.754  0.1125  0.6901 -0.3035
 8865SOL     OW30125   4.692   2.939   8.673  0.1405  0.3952  0.8170
 8865SOL    HW130126   4.614   2.928   8.728 -1.2956  1.2416 -0.9601
 8865SOL    HW230127   4.707   2.852   8.635  0.3968  0.1148  1.5217
 8866SOL     OW30128   8.765   7.960   1.198 -0.0700  0.1584  0.6675
 8866SOL    HW130129   8.722   7.889   1.247  0.8266  0.0681  1.3531
 8866SOL    HW230130   8.717   8.039   1.224 -0.1320 -0.0047  1.0622
 8867SOL     OW30131   5.769   0.823   9.770 -0.1801 -0.5680  0.3827
 8867SOL    HW130132   5.700   0.762   9.743  0.6211 -1.0188 -0.6685
 8867SOL    HW230133   5.814   0.778   9.841 -1.4861  0.0946  1.6952
 8868SOL     OW30134   0.278   8.801   8.783 -0.0451 -0.0637  0.4154
 8868SOL    HW130135   0.291   8.822   8.690 -0.6097  1.9247  0.7468
 8868SOL    HW230136   0.183   8.802   8.794  0.0491  1.1572  1.2904
 8869SOL     OW30137   1.340   2.119   3.486 -0.1028  0.1243 -0.2683
 8869SOL    HW130138   1.283   2.150   3.556 -0.7656 -2.7253  0.6271
 8869SOL    HW230139   1.282   2.111   3.410 -1.1464 -2.9232  0.6815
 8870SOL     OW30140   4.237   5.325   5.944 -0.3012 -0.2444 -0.2233
 8870SOL    HW130141   4.275   5.279   6.019 -2.0267  0.5428  1.2272
 8870SOL    HW230142   4.257   5.417   5.960  1.6083 -0.2433 -2.1824
 8871SOL     OW30143   8.338   7.780   8.201 -0.1364  0.6173 -0.3057
 8871SOL    HW130144   8.269   7.739   8.254  0.9970  1.3678  1.8741
 8871SOL    HW230145   8.354   7.863   8.244  1.9545  0.5730 -0.9120
 8872SOL     OW30146   8.732   5.250   6.384 -0.0105  0.5017  1.1059
 8872SOL    HW130147   8.731   5.329   6.330 -0.4273 -0.5485 -0.5153
 8872SOL    HW230148   8.649   5.253   6.432  0.3391  1.4271  1.6672
 8873SOL     OW30149   8.136   2.843   8.313  0.3129 -0.7559  0.0584
 8873SOL    HW130150   8.100   2.905   8.250  0.7285 -1.3122 -0.7442
 8873SOL    HW230151   8.084   2.763   8.302 -1.4537 -0.0487  2.3707
 8874SOL     OW30152   6.849   4.251   3.765 -0.1557  0.0513 -0.4514
 8874SOL    HW130153   6.927   4.279   3.814  0.5589 -0.6406 -1.1615
 8874SOL    HW230154   6.825   4.327   3.712 -0.7897  0.7239  0.7695
 8875SOL     OW30155  10.536   5.332   9.999 -0.1156 -0.0430  0.1976
 8875SOL    HW130156  10.471   5.332  10.069  1.8354  0.2262  2.1146
 8875SOL    HW230157  10.584   5.250  10.010  2.1692  1.3232  1.1984
 8876SOL     OW30158   2.659   0.897   1.677 -0.3897  0.2776 -0.0651
 8876SOL    HW130159   2.633   0.810   1.709 -2.1183  0.4340 -0.9489
 8876SOL    HW230160   2.592   0.920   1.613 -0.1015  2.3903  0.3391
 8877SOL     OW30161   7.244   9.776   4.992  0.1214  0.8787  0.8717
 8877SOL    HW130162   7.314   9.834   5.024 -0.2149  2.0547 -0.3997
 8877SOL    HW230163   7.212   9.820   4.914 -0.5343 -0.7939  0.1699
 8878SOL     OW30164   4.046   8.640   9.144  0.4671 -0.1120 -0.0776
 8878SOL    HW130165   4.047   8.654   9.239 -0.0047  3.4916 -0.4690
 8878SOL    HW230166   4.062   8.726   9.107 -2.0392 -0.8345 -3.3189
 8879SOL     OW30167   1.903   4.492   1.436  0.3057  0.1977 -0.0078
 8879SOL    HW130168   1.921   4.495   1.530  1.4936 -0.5702 -0.1952
 8879SOL    HW230169   1.857   4.409   1.423  1.1517 -0.2459 -0.2514
 8880SOL     OW30170   6.751   7.512   8.018  0.2466 -0.2790 -0.0525
 8880SOL    HW130171   6.664   7.551   8.005  1.1029  1.0908 -2.2454
 8880SOL    HW230172   6.734   7.432   8.067 -2.1619  0.3375  0.2621
 8881SOL     OW30173   9.148   0.123   4.960 -0.1811  0.1734 -0.3530
 8881SOL    HW130174   9.186   0.187   4.900 -1.1651  0.2563 -0.9105
 8881SOL    HW230175   9.093   0.175   5.019  1.0365  0.1334  0.8649
 8882SOL     OW30176   3.219  10.708   8.845 -0.6318  0.2682  0.0353
 8882SOL    HW130177   3.204  10.694   8.751 -2.2935  1.4047  0.0835
 8882SOL    HW230178   3.132  10.725   8.881 -0.0377 -0.2778  1.8254
 8883SOL     OW30179  10.542   7.496   8.207  0.0398 -0.8042  0.6355
 8883SOL    HW130180  10.618   7.505   8.149 -0.9343  0.7815 -0.4620
 8883SOL    HW230181  10.580   7.489   8.295  1.4634  0.3416  0.1589
 8884SOL     OW30182   0.275   3.299   6.762 -0.1186  0.6429 -0.3925
 8884SOL    HW130183   0.358   3.347   6.770 -0.4542  1.1790 -0.1184
 8884SOL    HW230184   0.301   3.207   6.764  0.2393  0.7364  2.5131
 8885SOL     OW30185   8.342   0.198   5.551  0.0514 -0.1243 -0.2644
 8885SOL    HW130186   8.401   0.125   5.530  0.7208 -0.3642  2.1374
 8885SOL    HW230187   8.262   0.180   5.502  1.1893 -0.9383 -1.9242
 8886SOL     OW30188   3.407   4.179   9.330  0.1451  0.2742  0.1991
 8886SOL    HW130189   3.339   4.194   9.265 -2.3525  2.3959  2.9874
 8886SOL    HW230190   3.417   4.084   9.333 -1.8673 -0.0380 -1.1370
 8887SOL     OW30191   3.127  10.085   7.868  0.5689 -0.3951 -0.4347
 8887SOL    HW130192   3.105  10.049   7.782 -3.6003  1.5726 -0.4293
 8887SOL    HW230193   3.124  10.180   7.855 -2.4586  0.0318  2.1733
 8888SOL     OW30194  10.012   0.871   1.363 -0.1854  0.0712  0.1184
 8888SOL    HW130195   9.991   0.799   1.423  1.1036 -0.4972 -0.0872
 8888SOL    HW230196  10.037   0.828   1.281 -1.1251  0.8207 -0.5889
 8889SOL     OW30197   8.456   7.344   4.762 -0.1912  0.2202 -0.6289
 8889SOL    HW130198   8.409   7.368   4.682 -1.0490  0.6015 -0.0249
 8889SOL    HW230199   8.389   7.308   4.819 -0.1937  2.6112  1.0203
 8890SOL     OW30200   9.272  10.459   3.049 -0.3663  0.1783 -0.5827
 8890SOL    HW130201   9.268  10.372   3.088  0.2278  0.4129  0.0283
 8890SOL    HW230202   9.332  10.508   3.106  0.3321  0.6069 -1.6595
 8891SOL     OW30203   1.725  10.040   7.150  0.0614  0.5929  0.0571
 8891SOL    HW130204   1.736   9.988   7.071 -0.5545 -0.3155  0.5381
 8891SOL    HW230205   1.701  10.127   7.119 -2.6692 -0.3517 -0.7787
 8892SOL     OW30206   3.199   3.687   9.047 -0.6105  0.3212  0.3784
 8892SOL    HW130207   3.203   3.763   8.989 -0.7224  1.2142  1.4961
 8892SOL    HW230208   3.251   3.620   9.003 -0.4852  1.0498 -0.6195
 8893SOL     OW30209   8.964   5.971   9.743  0.3451 -0.0961 -0.2378
 8893SOL    HW130210   8.895   5.906   9.728  1.0356 -0.6346 -1.1535
 8893SOL    HW230211   8.916   6.053   9.756 -0.4485 -0.1988 -2.1990
 8894SOL     OW30212   2.870   2.893  10.197  0.4729  0.6727 -0.2068
 8894SOL    HW130213   2.778   2.910  10.217  0.2009 -0.3840 -0.4934
 8894SOL    HW230214   2.892   2.958  10.130  0.1959  1.5011  0.4943
 8895SOL     OW30215  10.058   8.140   0.398  0.3736 -0.5773  0.1967
 8895SOL    HW130216   9.988   8.106   0.453 -0.9295 -0.3847 -1.2474
 8895SOL    HW230217  10.086   8.066   0.345 -0.9025 -0.0231 -1.3580
 8896SOL     OW30218   3.714   6.067   8.833 -0.7688 -0.0926 -0.0778
 8896SOL    HW130219   3.709   6.088   8.926 -1.0828  0.7611 -0.2677
 8896SOL    HW230220   3.793   6.015   8.823 -1.1402 -0.8308  0.7806
 8897SOL     OW30221   8.721   1.483  10.676 -0.1712  0.0613  0.0890
 8897SOL    HW130222   8.781   1.488  10.751  1.2966 -0.9906 -0.9480
 8897SOL    HW230223   8.694   1.573  10.661 -0.2073  0.3429  1.6317
 8898SOL     OW30224  11.029   3.910  10.252  0.4325 -0.5701  0.2239
 8898SOL    HW130225  10.954   3.865  10.214  0.2309 -1.0733  1.1934
 8898SOL    HW230226  11.092   3.916  10.180  0.1438 -1.6626 -0.1390
 8899SOL     OW30227   5.263   4.046   6.154 -0.1857  0.1543  0.0099
 8899SOL    HW130228   5.245   4.101   6.078 -1.6733  0.7121  0.7314
 8899SOL    HW230229   5.292   3.963   6.117 -0.0614  0.6907 -1.1437
 8900SOL     OW30230   1.359   2.779  10.835  0.1679 -0.2168 -0.2541
 8900SOL    HW130231   1.353   2.847  10.902 -2.0312 -0.7531  0.1910
 8900SOL    HW230232   1.272   2.738  10.834  0.3867 -0.8389 -2.8137
 8901SOL     OW30233   7.835   5.391   6.028 -0.1934 -0.1474 -0.3706
 8901SOL    HW130234   7.871   5.305   6.050 -0.3388  0.3907  2.2735
 8901SOL    HW230235   7.908   5.452   6.044 -0.6778  0.4185 -0.2959
 8902SOL     OW30236   4.150   8.102   4.400 -0.3516  0.2726 -0.2950
 8902SOL    HW130237   4.179   8.011   4.410 -2.5078 -0.9392 -3.5303
 8902SOL    HW230238   4.231   8.154   4.408  1.7961 -2.3554 -2.7092
 8903SOL     OW30239   3.368   5.914   4.025 -0.5016 -0.0632 -0.0707
 8903SOL    HW130240   3.420   5.842   4.062 -1.2531 -1.2207 -1.1820
 8903SOL    HW230241   3.283   5.875   4.005 -0.5231  0.8066 -1.8734
 8904SOL     OW30242   1.838   7.335   4.839  0.1580 -0.5288  0.6285
 8904SOL    HW130243   1.808   7.423   4.863  0.4848 -0.3690  0.4600
 8904SOL    HW230244   1.779   7.276   4.885  0.7291 -0.2347  1.7872
 8905SOL     OW30245   3.578  11.069   8.606  0.1744  0.1204 -0.2716
 8905SOL    HW130246   3.604  10.977   8.608  1.4107  0.4593  0.2478
 8905SOL    HW230247   3.536  11.080   8.521 -1.7108 -1.3517  0.4118
 8906SOL     OW30248   8.804   8.540   7.266  0.1819 -0.2772  0.7451
 8906SOL    HW130249   8.710   8.527   7.278  0.1252  0.5339  1.2995
 8906SOL    HW230250   8.824   8.618   7.318  1.4331 -1.2706  1.8401
 8907SOL     OW30251   0.380   4.157   8.861 -0.3626 -0.0216 -0.2723
 8907SOL    HW130252   0.372   4.067   8.893 -1.9483  0.1922  0.0228
 8907SOL    HW230253   0.459   4.191   8.903 -0.9920 -0.5619  1.4373
 8908SOL     OW30254   3.689   9.951   6.561  0.0806  0.5353 -0.3210
 8908SOL    HW130255   3.750   9.908   6.621 -0.3039  1.0456  0.4613
 8908SOL    HW230256   3.648  10.020   6.614  1.7101  2.8541 -1.8460
 8909SOL     OW30257   1.389   7.907   4.194 -0.4672  0.2521  0.2496
 8909SOL    HW130258   1.464   7.859   4.158  0.7645  0.4157  2.3977
 8909SOL    HW230259   1.322   7.903   4.126  1.3827 -0.1760 -1.6161
 8910SOL     OW30260   1.150   0.682   4.808 -0.5001  0.2420 -0.1671
 8910SOL    HW130261   1.113   0.651   4.890  0.0790  0.3648  0.1445
 8910SOL    HW230262   1.192   0.605   4.769 -0.6580  0.2143 -0.2825
 8911SOL     OW30263   4.532   9.757   0.894  0.0625  0.1082  0.0322
 8911SOL    HW130264   4.513   9.670   0.856  0.5408 -0.6471  1.4465
 8911SOL    HW230265   4.501   9.819   0.828 -3.4279 -1.0766  0.3356
 8912SOL     OW30266   3.772   9.196   5.569  0.0715  0.5277  0.0561
 8912SOL    HW130267   3.844   9.245   5.609  0.5974  0.0912 -0.3366
 8912SOL    HW230268   3.808   9.164   5.486 -0.1689 -0.7307  0.4140
 8913SOL     OW30269   9.566   7.154  10.792 -0.2364 -0.2151 -0.6135
 8913SOL    HW130270   9.560   7.081  10.730  0.8119 -0.1421 -0.8109
 8913SOL    HW230271   9.597   7.114  10.873  2.3173  0.2501 -1.2647
 8914SOL     OW30272   0.898   3.739   0.198 -0.1704 -0.1961 -0.0853
 8914SOL    HW130273   0.911   3.653   0.157 -0.7469 -0.2349 -0.2069
 8914SOL    HW230274   0.805   3.757   0.185 -0.6193 -0.6791  2.1259
 8915SOL     OW30275  10.023   7.738   1.116  0.3291  0.1394 -0.1047
 8915SOL    HW130276  10.081   7.680   1.165  0.1084 -0.1310 -0.1620
 8915SOL    HW230277   9.941   7.737   1.165  0.4912  0.8271  0.1925
 8916SOL     OW30278   5.988   2.157   7.066  0.2491  0.1534 -0.6575
 8916SOL    HW130279   5.983   2.080   7.123  1.8474 -0.2063 -0.9470
 8916SOL    HW230280   6.024   2.226   7.123 -0.7175  0.5774 -0.5312
 8917SOL     OW30281   0.181   9.252   1.581 -0.7104  0.3561 -0.2471
 8917SOL    HW130282   0.260   9.200   1.593  0.3782  2.3146  2.0894
 8917SOL    HW230283   0.208   9.324   1.523 -0.6150  1.2220  0.8300
 8918SOL     OW30284   8.126   8.193   7.862  0.1087  0.0155  0.2189
 8918SOL    HW130285   8.061   8.259   7.887 -0.6131 -0.7383  0.3914
 8918SOL    HW230286   8.076   8.129   7.811  0.4496 -1.2279  1.4041
 8919SOL     OW30287   7.035   6.404   6.288  0.1895  0.2752  0.3875
 8919SOL    HW130288   7.049   6.495   6.263  0.4365  0.2567  0.4535
 8919SOL    HW230289   6.959   6.406   6.347  1.0769  0.6341  1.5705
 8920SOL     OW30290   3.255   5.046   7.603  0.5635 -0.5371  0.0945
 8920SOL    HW130291   3.344   5.011   7.595  0.5037 -0.8219  0.6198
 8920SOL    HW230292   3.198   4.969   7.600  0.4155 -0.4767  1.0228
 8921SOL     OW30293   6.657   0.585   4.000 -0.0748 -0.0717 -0.3422
 8921SOL    HW130294   6.612   0.595   3.916 -3.1463  0.5089  1.2639
 8921SOL    HW230295   6.637   0.496   4.028 -0.3882  0.2544  0.4861
 8922SOL     OW30296   1.155  11.051   6.549 -0.1733 -0.2834 -0.0712
 8922SOL    HW130297   1.150  11.130   6.496  1.8314 -0.8669 -1.2482
 8922SOL    HW230298   1.089  11.063   6.617  0.4255  2.6516  0.1399
 8923SOL     OW30299   2.415  11.058   3.351  0.4616 -0.3040 -0.0827
 8923SOL    HW130300   2.507  11.082   3.362  0.3908 -0.3019  0.5820
 8923SOL    HW230301   2.373  11.139   3.321  0.2750  0.3896  1.8873
 8924SOL     OW30302   5.506   7.971   2.557  0.1383  0.4573 -0.0514
 8924SOL    HW130303   5.441   7.901   2.549  0.9354 -0.2936 -0.0864
 8924SOL    HW230304   5.590   7.928   2.541  0.7603  1.1713  1.1501
 8925SOL     OW30305   7.490   6.650   8.956 -0.4055 -0.0995 -0.1497
 8925SOL    HW130306   7.438   6.724   8.924  1.7438  1.6675  0.2568
 8925SOL    HW230307   7.547   6.628   8.883 -1.3052 -1.6990 -0.4145
 8926SOL     OW30308   7.675   6.999   0.701 -0.8884 -0.0217  0.2312
 8926SOL    HW130309   7.719   7.078   0.731 -0.9499  0.3453 -0.6295
 8926SOL    HW230310   7.744   6.945   0.664 -0.9974  0.0708 -0.1083
 8927SOL     OW30311   9.450   1.297   4.245 -0.4505  0.0447  0.0365
 8927SOL    HW130312   9.416   1.212   4.273 -0.5026  0.3365  0.8609
 8927SOL    HW230313   9.520   1.317   4.307 -1.6494  1.4538  0.9847
 8928SOL     OW30314   6.390   6.388   3.737  0.2177  0.6644  0.3379
 8928SOL    HW130315   6.420   6.414   3.649  1.7946 -0.5210  0.4754
 8928SOL    HW230316   6.296   6.406   3.737 -0.2707 -1.2820 -2.3629
 8929SOL     OW30317   2.422   0.012   1.399  0.5657  0.1389 -0.2983
 8929SOL    HW130318   2.342  -0.009   1.351 -0.0661 -0.6595  1.0457
 8929SOL    HW230319   2.401   0.092   1.447  0.3447 -0.3729  0.4915
 8930SOL     OW30320   6.590   5.711   5.975 -0.1128  0.0629 -0.3065
 8930SOL    HW130321   6.620   5.782   6.032 -0.6788  0.6229 -0.7040
 8930SOL    HW230322   6.589   5.748   5.887  1.3965 -0.9902 -0.8177
 8931SOL     OW30323   2.816   9.724   7.879 -0.2072  0.4685  0.3669
 8931SOL    HW130324   2.886   9.763   7.931  1.3245 -0.0017 -1.2541
 8931SOL    HW230325   2.746   9.789   7.882  1.6604  2.7260 -0.9274
 8932SOL     OW30326   4.666   7.464   2.232  0.4723 -0.2138  0.0713
 8932SOL    HW130327   4.647   7.485   2.140 -1.1554  1.1045  0.6593
 8932SOL    HW230328   4.744   7.409   2.228  0.4147 -0.2323 -2.1037
 8933SOL     OW30329   1.657   7.642  10.372 -0.1238  0.3522 -0.1629
 8933SOL    HW130330   1.708   7.639  10.291  0.4997 -0.1151  0.2443
 8933SOL    HW230331   1.722   7.644  10.442 -0.6564  0.9751  0.3318
 8934SOL     OW30332   8.039  10.400   8.755 -0.2125 -0.2257 -0.3284
 8934SOL    HW130333   8.035  10.424   8.662  0.2175 -2.3405 -0.9657
 8934SOL    HW230334   8.017  10.480   8.802 -0.1588  0.9798 -2.2480
 8935SOL     OW30335   0.171   4.147   0.961  0.8370 -0.0710  0.7558
 8935SOL    HW130336   0.188   4.187   0.875  0.2412 -0.9596  0.2094
 8935SOL    HW230337   0.134   4.217   1.014 -1.4948 -0.1765 -0.5983
 8936SOL     OW30338   7.492   5.481   9.561 -0.0255  0.0751 -0.6927
 8936SOL    HW130339   7.491   5.471   9.656 -0.7814 -1.3146 -0.8150
 8936SOL    HW230340   7.434   5.412   9.529  1.4821 -0.5475 -2.2603
 8937SOL     OW30341   1.113   8.009   1.478 -0.1770  0.1943 -0.1273
 8937SOL    HW130342   1.137   8.061   1.401  1.0524 -1.0339 -0.6164
 8937SOL    HW230343   1.110   7.919   1.446  1.4985 -0.4863  1.4612
 8938SOL     OW30344   2.026   4.730   3.905  0.5088 -0.3048  0.3857
 8938SOL    HW130345   1.992   4.747   3.817  1.2615 -0.3086  0.0939
 8938SOL    HW230346   1.969   4.660   3.938 -0.4545  0.4294  0.3168
 8939SOL     OW30347   3.798   3.629   9.272 -0.1951  0.6297  0.1289
 8939SOL    HW130348   3.814   3.595   9.360 -0.6378  1.2902  0.4701
 8939SOL    HW230349   3.866   3.694   9.258  1.2246 -0.9673 -0.8830
 8940SOL     OW30350   6.370  11.002   2.181 -0.1148 -0.1948  0.2593
 8940SOL    HW130351   6.417  11.007   2.098 -0.3069 -2.4619 -0.0696
 8940SOL    HW230352   6.429  11.042   2.245  0.9631 -0.3355 -0.6276
 8941SOL     OW30353   1.683   2.022   3.547 -0.0925 -0.6459  0.1583
 8941SOL    HW130354   1.774   2.018   3.516  0.1258  0.1709  0.6388
 8941SOL    HW230355   1.647   1.937   3.526  0.2678 -0.4142 -1.6295
 8942SOL     OW30356   6.441   5.297   0.881  0.6190 -0.1796  0.1817
 8942SOL    HW130357   6.396   5.311   0.798 -1.5467 -1.1736  1.1152
 8942SOL    HW230358   6.519   5.248   0.857  0.6457  0.5486 -1.3751
 8943SOL     OW30359   6.496   6.219   3.390 -0.3382 -1.0023  0.7310
 8943SOL    HW130360   6.560   6.176   3.447 -0.7758  0.0878  2.0953
 8943SOL    HW230361   6.547   6.279   3.336  0.2103 -2.7610 -0.8113
 8944SOL     OW30362  10.170   3.928   9.371 -0.2094  0.0333 -0.0130
 8944SOL    HW130363  10.177   3.837   9.342 -0.1935  0.2006 -0.5603
 8944SOL    HW230364  10.218   3.931   9.454 -0.0249 -0.4091 -0.1000
 8945SOL     OW30365   5.271  10.294   4.841  1.1045  0.9315 -0.2928
 8945SOL    HW130366   5.222  10.373   4.821  0.9869  0.8892 -0.1725
 8945SOL    HW230367   5.319  10.314   4.921 -1.4425 -0.1735  1.6702
 8946SOL     OW30368   6.206   9.793   5.197  0.1895 -0.3232  0.5072
 8946SOL    HW130369   6.220   9.703   5.167 -0.8453 -0.9489  1.8110
 8946SOL    HW230370   6.220   9.789   5.291  1.2205  1.1413  0.4638
 8947SOL     OW30371  10.049   9.686   6.389 -0.6554  0.1274 -0.4799
 8947SOL    HW130372  10.090   9.637   6.318  0.8266  0.4678  0.0980
 8947SOL    HW230373  10.049   9.624   6.463 -0.7318  0.2949 -0.3391
 8948SOL     OW30374  10.502  10.402   7.464 -0.9162 -0.0481  0.0322
 8948SOL    HW130375  10.458  10.442   7.539 -0.7631 -0.9704  0.6366
 8948SOL    HW230376  10.522  10.312   7.493  2.8943  0.7385  0.4831
 8949SOL     OW30377   7.649   3.231   6.917  0.1606  0.6979  0.2130
 8949SOL    HW130378   7.621   3.205   6.829  2.9850 -1.1642 -0.2852
 8949SOL    HW230379   7.663   3.325   6.912 -1.1926  0.8672 -0.8394
 8950SOL     OW30380   1.292   1.817  10.755  0.3985  0.4617 -0.8956
 8950SOL    HW130381   1.276   1.795  10.663  0.1851 -0.2187 -0.6970
 8950SOL    HW230382   1.335   1.903  10.751 -0.2117  0.7462 -1.5939
 8951SOL     OW30383  10.064   7.383   3.565 -0.1297 -0.1443  0.3995
 8951SOL    HW130384  10.115   7.311   3.600 -1.1601 -0.7074  0.7784
 8951SOL    HW230385  10.101   7.400   3.478  1.6799  0.4862  1.2553
 8952SOL     OW30386   5.121   1.419   1.722  0.2249 -0.5367  0.1881
 8952SOL    HW130387   5.102   1.325   1.729  0.8504 -0.6701  0.1981
 8952SOL    HW230388   5.036   1.462   1.731 -0.0765 -1.1070  0.0960
 8953SOL     OW30389   6.067   2.838   3.050 -0.0801 -0.1922 -0.0870
 8953SOL    HW130390   6.073   2.749   3.016 -1.3213 -0.7419  1.0438
 8953SOL    HW230391   6.158   2.869   3.051  0.5584 -1.9657  0.8484
 8954SOL     OW30392   3.238   7.180   8.617  0.1241 -0.0221  0.0562
 8954SOL    HW130393   3.145   7.191   8.597  0.6183  2.6245 -1.3964
 8954SOL    HW230394   3.242   7.172   8.712 -1.5506  0.3183  0.1854
 8955SOL     OW30395   9.107   8.133   0.280 -0.6194 -0.2655  1.0906
 8955SOL    HW130396   9.012   8.142   0.271 -0.3724  1.1473 -0.6696
 8955SOL    HW230397   9.141   8.221   0.264  1.1276 -1.2258 -0.9524
 8956SOL     OW30398   8.453   4.721   8.755  0.2319  0.0360  0.7658
 8956SOL    HW130399   8.378   4.716   8.695  0.6274  1.0553  0.1579
 8956SOL    HW230400   8.456   4.635   8.797 -0.3048 -0.5727 -0.3877
 8957SOL     OW30401  10.841   2.304   0.678 -0.7787  0.2560  0.0393
 8957SOL    HW130402  10.807   2.364   0.612  0.7982  0.4461 -0.6400
 8957SOL    HW230403  10.831   2.351   0.761 -1.0381  0.7898 -0.2924
 8958SOL     OW30404   4.863   6.541   5.056  0.3512 -0.1609  0.1594
 8958SOL    HW130405   4.847   6.630   5.025  0.7107 -0.4075 -0.7395
 8958SOL    HW230406   4.865   6.550   5.152 -1.2930  0.5078  0.1726
 8959SOL     OW30407   2.541   5.590  10.872 -0.1937 -0.1779 -0.0047
 8959SOL    HW130408   2.549   5.650  10.798 -1.3640  2.4587  1.8491
 8959SOL    HW230409   2.573   5.640  10.947  2.4321 -3.2771  1.1619
 8960SOL     OW30410   3.446   1.716   8.849 -0.1521  0.2783  0.0798
 8960SOL    HW130411   3.524   1.692   8.900 -0.7402 -0.8661  0.4534
 8960SOL    HW230412   3.459   1.673   8.765 -0.1198  0.5686 -0.0675
 8961SOL     OW30413   4.531  10.275  10.540  0.3892 -0.0119 -0.4191
 8961SOL    HW130414   4.595  10.208  10.514  0.1737 -0.4269  0.0917
 8961SOL    HW230415   4.495  10.307  10.458 -1.0114 -2.0184 -0.6581
 8962SOL     OW30416   4.879   0.453   5.465  0.5882 -0.0730  0.2517
 8962SOL    HW130417   4.916   0.375   5.422  0.8514  0.2017 -0.0304
 8962SOL    HW230418   4.951   0.516   5.465  0.7432 -0.2267  1.5314
 8963SOL     OW30419   6.459  10.757   4.596 -0.3716 -0.0402 -0.2878
 8963SOL    HW130420   6.477  10.850   4.592 -0.1290 -0.1003 -0.6611
 8963SOL    HW230421   6.399  10.741   4.523 -1.4440  0.0428  0.5408
 8964SOL     OW30422   7.386   9.409   6.423 -0.4113  0.1792 -0.2855
 8964SOL    HW130423   7.347   9.399   6.336 -1.1302  0.3306  0.0045
 8964SOL    HW230424   7.310   9.411   6.482  0.0793 -0.1886  0.3653
 8965SOL     OW30425  11.076   3.792   5.601  0.1234  0.2601  0.5844
 8965SOL    HW130426  11.092   3.783   5.507  0.9426 -1.5552  0.8747
 8965SOL    HW230427  10.982   3.778   5.611  0.2316 -0.8122  0.1636
 8966SOL     OW30428   6.782   6.503   5.911 -0.1303 -0.5001  0.1885
 8966SOL    HW130429   6.753   6.516   6.001 -0.6965 -3.8027  0.6087
 8966SOL    HW230430   6.862   6.450   5.918 -0.5460 -1.3842 -1.2160
 8967SOL     OW30431   6.190   0.494   1.342 -0.1167 -0.2493 -0.0984
 8967SOL    HW130432   6.186   0.565   1.406  0.7254  0.7942 -1.1589
 8967SOL    HW230433   6.112   0.441   1.359 -2.8278  2.9196 -1.5187
 8968SOL     OW30434   3.829   0.968   3.595  0.0747 -0.5798  0.0914
 8968SOL    HW130435   3.890   0.993   3.526  0.2509  0.7274  0.6744
 8968SOL    HW230436   3.881   0.974   3.675 -0.5948 -0.2502  0.5066
 8969SOL     OW30437   0.398   5.754   8.321  0.4109 -0.1381 -0.0312
 8969SOL    HW130438   0.427   5.845   8.327 -1.5394  0.5149  0.0256
 8969SOL    HW230439   0.381   5.741   8.228  0.9446 -0.5512 -0.0784
 8970SOL     OW30440   8.226   1.995   4.347  0.5173  0.4752  0.2406
 8970SOL    HW130441   8.153   1.968   4.292  0.9609 -1.0460  0.3415
 8970SOL    HW230442   8.190   2.061   4.406 -0.7377 -0.1478  0.1900
 8971SOL     OW30443   8.178   7.661   2.652 -0.5698 -0.5839  0.1720
 8971SOL    HW130444   8.256   7.680   2.599 -1.6502  1.2071 -0.8855
 8971SOL    HW230445   8.195   7.703   2.736  1.0409 -3.2177  1.3175
 8972SOL     OW30446   4.096   0.569   6.864  0.3991 -0.0206 -0.2249
 8972SOL    HW130447   4.061   0.646   6.908  1.5640  0.4502 -0.0896
 8972SOL    HW230448   4.154   0.604   6.796  1.1885 -0.7683  0.0427
 8973SOL     OW30449   3.064   3.890   1.493  0.3156  0.3287 -0.1676
 8973SOL    HW130450   3.031   3.952   1.558  2.3583 -0.8167  2.1094
 8973SOL    HW230451   3.010   3.906   1.416 -2.4533  1.5547  1.8613
 8974SOL     OW30452   1.165   8.729   8.328 -0.0311 -0.1678  0.2788
 8974SOL    HW130453   1.232   8.668   8.298  1.4367  0.4769  2.1326
 8974SOL    HW230454   1.149   8.786   8.252  2.4976  0.5072  0.1835
 8975SOL     OW30455   7.438  10.128   2.407  0.2198  0.1151  0.1906
 8975SOL    HW130456   7.375  10.149   2.477 -1.1945 -0.8241 -0.7489
 8975SOL    HW230457   7.522  10.158   2.442 -0.6319  0.8697  1.7522
 8976SOL     OW30458   9.846  10.707   1.999  0.0721 -0.4307  0.2395
 8976SOL    HW130459   9.763  10.675   1.962  0.1219 -0.0918 -0.1763
 8976SOL    HW230460   9.889  10.752   1.926 -0.8614  2.2993  1.2571
 8977SOL     OW30461  10.030   3.517   5.964 -0.4225  0.6474 -0.0595
 8977SOL    HW130462  10.102   3.555   5.913  0.8388  1.1251  1.9483
 8977SOL    HW230463   9.995   3.591   6.014 -1.4065  0.1358  0.0217
 8978SOL     OW30464   6.354   4.236   6.018 -0.0343  0.8208  0.3601
 8978SOL    HW130465   6.321   4.324   6.032 -0.2037  0.7915  0.1549
 8978SOL    HW230466   6.314   4.209   5.935 -0.8576  0.1379  0.9603
 8979SOL     OW30467   9.834   6.840   9.469  0.3236  0.9739  0.9563
 8979SOL    HW130468   9.907   6.811   9.523 -0.2370 -1.7580  0.4171
 8979SOL    HW230469   9.759   6.844   9.528  0.6187  2.6853  1.2769
 8980SOL     OW30470   7.456   5.630   5.834  0.9782 -0.4074  0.1399
 8980SOL    HW130471   7.466   5.542   5.870 -2.6516 -0.5645  1.1029
 8980SOL    HW230472   7.471   5.688   5.909 -0.6999 -0.4488  0.5325
 8981SOL     OW30473   0.059   8.113   3.813 -0.1869 -0.1347 -0.5294
 8981SOL    HW130474   0.059   8.018   3.799  0.9242 -0.0975 -0.8894
 8981SOL    HW230475   0.007   8.126   3.892 -2.0300 -0.8596 -1.5462
 8982SOL     OW30476   4.347   9.789   5.357 -0.7825 -0.3706  0.2716
 8982SOL    HW130477   4.340   9.868   5.411  0.2973  0.2007 -0.3872
 8982SOL    HW230478   4.425   9.745   5.390  0.0340  0.1090 -0.9415
 8983SOL     OW30479   0.378   1.352   2.090 -0.1870 -0.0672  0.3698
 8983SOL    HW130480   0.397   1.323   2.179 -0.4220 -0.1346  0.3974
 8983SOL    HW230481   0.345   1.274   2.046 -0.1578 -0.0118  0.2502
 8984SOL     OW30482   9.084   4.554   5.766 -0.7653  0.3130 -0.0674
 8984SOL    HW130483   9.099   4.637   5.719 -1.3749  0.2289 -0.4236
 8984SOL    HW230484   9.138   4.561   5.844 -0.0437  0.6329 -0.5829
 8985SOL     OW30485   3.609  11.037   3.158 -0.2132 -0.1527  0.0111
 8985SOL    HW130486   3.676  11.075   3.100 -0.5628 -0.7960 -0.8357
 8985SOL    HW230487   3.636  11.064   3.246  2.6097 -2.4209  0.0004
 8986SOL     OW30488  10.207  10.385   0.399  0.3106  0.4339  0.1475
 8986SOL    HW130489  10.120  10.364   0.432  0.0752  0.8977 -0.1628
 8986SOL    HW230490  10.216  10.331   0.320 -0.3265  1.5192 -0.6951
 8987SOL     OW30491   4.196   1.757   8.891 -0.1058 -0.3583 -0.2804
 8987SOL    HW130492   4.170   1.849   8.891 -2.5317 -0.9490 -1.9509
 8987SOL    HW230493   4.116   1.709   8.914  0.4639 -2.1383 -1.7471
 8988SOL     OW30494   8.160   8.251   5.208 -0.2426 -0.1106 -0.4782
 8988SOL    HW130495   8.206   8.333   5.226 -2.3826  1.1240 -0.1775
 8988SOL    HW230496   8.165   8.241   5.114 -0.1407  0.5113 -0.5467
 8989SOL     OW30497   9.373   0.437   5.906  0.4641 -0.1680  0.4281
 8989SOL    HW130498   9.380   0.345   5.932  0.6390  0.0170  1.0442
 8989SOL    HW230499   9.351   0.434   5.813  0.5912 -0.8330  0.4164
 8990SOL     OW30500  11.055   0.199   5.361 -0.0972 -0.2937  0.4195
 8990SOL    HW130501  11.131   0.255   5.375  0.5773 -1.7737  3.5573
 8990SOL    HW230502  11.088   0.110   5.374 -1.6059 -1.3168 -2.0436
 8991SOL     OW30503  10.672   8.684   0.488 -0.3065  0.0673 -0.5443
 8991SOL    HW130504  10.681   8.675   0.583  1.6431  3.6398 -0.1931
 8991SOL    HW230505  10.692   8.598   0.453  1.6067 -0.7369  2.2064
 8992SOL     OW30506   8.591   7.120   2.500  0.5986  0.4094 -0.1532
 8992SOL    HW130507   8.572   7.213   2.516  0.2973  0.5026 -1.0104
 8992SOL    HW230508   8.514   7.088   2.452  0.6721 -0.3045  0.1954
 8993SOL     OW30509   1.924   6.603   7.678  0.3923 -0.0195  0.2209
 8993SOL    HW130510   1.830   6.590   7.665  0.4110 -0.0299  0.0968
 8993SOL    HW230511   1.935   6.697   7.687  0.4050  0.0048 -0.0397
 8994SOL     OW30512   0.259  10.176   6.867  0.4509 -0.3419  0.0715
 8994SOL    HW130513   0.350  10.158   6.844  0.2922 -1.8574  0.5129
 8994SOL    HW230514   0.213  10.095   6.847 -1.0084  0.6962 -1.0404
 8995SOL     OW30515  10.978   9.678   9.241  0.1978 -0.0485  0.8160
 8995SOL    HW130516  10.895   9.643   9.273 -0.1423  1.9360  2.3394
 8995SOL    HW230517  11.043   9.614   9.268 -0.8291 -1.8556 -0.7856
 8996SOL     OW30518  10.826   6.821   4.028 -0.4039 -0.2575  0.3779
 8996SOL    HW130519  10.855   6.754   4.090 -1.5169 -0.2649  0.9025
 8996SOL    HW230520  10.747   6.858   4.067  0.1283  1.3018  0.0583
 8997SOL     OW30521   4.118   0.282   3.559  0.2797  0.4099  0.1202
 8997SOL    HW130522   4.084   0.241   3.639 -2.7606  0.1642 -1.1377
 8997SOL    HW230523   4.172   0.214   3.519 -0.0416 -0.2944  0.8430
 8998SOL     OW30524   1.827   3.020   6.996 -0.1811 -0.1241  0.6587
 8998SOL    HW130525   1.870   3.073   7.063  1.1763 -2.6983  1.9800
 8998SOL    HW230526   1.898   2.988   6.940 -0.7394 -1.5165  0.6844
 8999SOL     OW30527   0.665   6.105   3.247 -0.3936  0.7629  0.2255
 8999SOL    HW130528   0.753   6.144   3.245 -0.2725  0.5394  0.9146
 8999SOL    HW230529   0.637   6.105   3.155  0.8249 -0.2939 -0.1865
 9000SOL     OW30530   7.624   5.130   7.521 -0.0142  0.5721 -0.1520
 9000SOL    HW130531   7.712   5.109   7.551  0.1368  0.4669 -0.6637
 9000SOL    HW230532   7.631   5.217   7.482  0.0979  0.1302 -1.1484
 9001SOL     OW30533   0.137   2.113   5.762  0.2177 -0.4772 -0.2627
 9001SOL    HW130534   0.101   2.146   5.845  1.2008 -1.1324  0.4568
 9001SOL    HW230535   0.155   2.192   5.711 -0.7338 -0.0799 -0.0036
 9002SOL     OW30536   9.171   9.256   5.994 -0.4151 -0.5328  0.5389
 9002SOL    HW130537   9.248   9.305   5.965  0.1353 -1.5768  0.2035
 9002SOL    HW230538   9.099   9.295   5.944  0.0927 -0.4144 -0.1243
 9003SOL     OW30539   8.717   2.252  10.340  0.6572  0.6525  0.2256
 9003SOL    HW130540   8.671   2.203  10.409  0.6287 -0.3036 -0.4503
 9003SOL    HW230541   8.795   2.200  10.323  0.5150  0.7245 -0.6688
 9004SOL     OW30542   1.967  10.218   1.343 -0.1275 -0.0561 -0.0634
 9004SOL    HW130543   2.048  10.265   1.322 -0.2157 -0.0130 -0.3065
 9004SOL    HW230544   1.903  10.288   1.359  0.3747 -0.0305  2.1630
 9005SOL     OW30545   1.217   1.200   7.029  0.7825 -0.4958 -0.3103
 9005SOL    HW130546   1.301   1.159   7.005  0.6116 -0.7480 -0.4918
 9005SOL    HW230547   1.155   1.165   6.965  0.1931 -1.6133  0.8285
 9006SOL     OW30548   1.167  10.177   6.248 -0.2672  0.3646  0.5908
 9006SOL    HW130549   1.123  10.135   6.322 -0.7655  1.1749  0.7649
 9006SOL    HW230550   1.221  10.246   6.288 -3.9640  3.9648  0.0572
 9007SOL     OW30551   2.212  10.924  10.856 -0.5455 -0.3998 -0.1860
 9007SOL    HW130552   2.173  10.900  10.771 -0.8570 -0.9521  0.1024
 9007SOL    HW230553   2.140  10.911  10.919  0.1485 -1.6132  0.3853
 9008SOL     OW30554   2.962   5.626   1.184 -0.6718 -0.4185  0.0386
 9008SOL    HW130555   2.960   5.627   1.279  0.5457  0.2153  0.0824
 9008SOL    HW230556   2.871   5.632   1.157 -0.9314  1.9313  1.1704
 9009SOL     OW30557   8.384   4.278   3.313  0.1886  0.1937 -0.2146
 9009SOL    HW130558   8.385   4.190   3.276 -1.1485 -0.1696  0.5736
 9009SOL    HW230559   8.352   4.333   3.242  0.0050 -0.1118 -0.3697
 9010SOL     OW30560   6.271  10.875   7.141 -0.1064  0.0130 -0.3081
 9010SOL    HW130561   6.352  10.826   7.142  0.5741  1.1092  0.3182
 9010SOL    HW230562   6.270  10.920   7.056 -0.0947 -0.0611 -0.3468
 9011SOL     OW30563  10.270   8.679  10.240 -0.5210  0.6270  0.0785
 9011SOL    HW130564  10.222   8.597  10.228 -0.4877  0.7414 -0.8857
 9011SOL    HW230565  10.355   8.651  10.275 -0.6573  0.2890  0.1446
 9012SOL     OW30566   2.899   0.356   5.012 -0.0634 -0.2268  0.0054
 9012SOL    HW130567   2.872   0.362   5.104  0.2755  0.4576  0.0634
 9012SOL    HW230568   2.895   0.446   4.980  0.4039 -0.3755 -0.4820
 9013SOL     OW30569   1.719   0.979   9.448  0.1814 -0.2296 -0.3325
 9013SOL    HW130570   1.724   0.886   9.425  0.9252 -0.0639 -0.8782
 9013SOL    HW230571   1.655   0.983   9.519 -0.4396 -1.0564 -0.8365
 9014SOL     OW30572  10.464   0.495   9.697  0.0300 -0.6185  0.4091
 9014SOL    HW130573  10.462   0.569   9.637 -0.1967 -0.6194  0.4150
 9014SOL    HW230574  10.438   0.420   9.644  0.2979 -0.7031  0.3929
 9015SOL     OW30575   1.373   6.610   4.068 -0.6244  0.2118  0.0716
 9015SOL    HW130576   1.377   6.581   4.159  0.4896  0.4935  0.1269
 9015SOL    HW230577   1.294   6.664   4.063 -0.7128  0.1611  0.8534
 9016SOL     OW30578  11.122   2.763   3.831  0.0372  0.3554  0.4478
 9016SOL    HW130579  11.048   2.800   3.782  0.2265 -1.2413 -1.1275
 9016SOL    HW230580  11.081   2.703   3.894 -0.0167 -0.9121 -0.7661
 9017SOL     OW30581   4.129   6.576   2.863  0.2660  0.2416 -0.4723
 9017SOL    HW130582   4.202   6.628   2.895 -0.7068  0.6666  1.1587
 9017SOL    HW230583   4.052   6.630   2.880 -0.5722 -0.8466 -0.7177
 9018SOL     OW30584   3.991   1.107   8.826  0.0327 -0.4565 -0.4498
 9018SOL    HW130585   4.008   1.111   8.732 -0.3382 -0.3074 -0.5114
 9018SOL    HW230586   3.941   1.026   8.838  4.2818 -3.2662  0.3004
 9019SOL     OW30587   3.821   5.823  11.108 -0.0768  0.2536 -0.2743
 9019SOL    HW130588   3.819   5.729  11.125  3.3955  0.1410  0.3962
 9019SOL    HW230589   3.874   5.832  11.029  0.1042  1.6647 -0.0222
 9020SOL     OW30590   1.501   4.837  10.947 -0.5689 -0.4217  0.1861
 9020SOL    HW130591   1.595   4.832  10.961 -0.5558  2.0690  1.8043
 9020SOL    HW230592   1.490   4.907  10.882 -1.2801  1.7478  2.4577
 9021SOL     OW30593   9.597   2.048   5.416 -0.0590  0.2553 -0.2104
 9021SOL    HW130594   9.686   2.029   5.387  0.2880  2.2941 -0.5953
 9021SOL    HW230595   9.543   1.981   5.374  1.1998 -0.5866 -0.5269
 9022SOL     OW30596   2.081   4.967   5.731  0.9459 -0.2636 -0.1578
 9022SOL    HW130597   2.058   5.058   5.750 -1.5048 -1.1374  1.6617
 9022SOL    HW230598   1.997   4.922   5.720  2.0928 -2.1519 -2.1528
 9023SOL     OW30599  11.029   0.692   9.510 -0.9126 -0.2456 -0.1222
 9023SOL    HW130600  11.020   0.703   9.415  0.5260  2.0376 -0.0739
 9023SOL    HW230601  10.960   0.748   9.546 -0.8968 -0.4315  0.1935
 9024SOL     OW30602   5.935   9.881   1.948  0.4337 -0.0783  0.4420
 9024SOL    HW130603   5.982   9.900   1.867  0.5860 -1.8552  0.0545
 9024SOL    HW230604   5.937   9.785   1.955  0.0031 -0.0006  2.3023
 9025SOL     OW30605   1.918   1.733   0.734  0.0290 -0.5659  0.7268
 9025SOL    HW130606   1.854   1.798   0.705 -0.3461 -1.4090 -0.4100
 9025SOL    HW230607   1.916   1.738   0.829 -1.6308 -0.4498  0.7213
 9026SOL     OW30608   6.767   0.159   3.166  0.1344  0.1271 -0.2654
 9026SOL    HW130609   6.765   0.195   3.255  1.8509  0.4027 -0.3152
 9026SOL    HW230610   6.836   0.093   3.168 -0.1241 -0.1935 -1.2907
 9027SOL     OW30611   4.802   6.064   0.632  0.1173 -0.3734 -0.2430
 9027SOL    HW130612   4.893   6.039   0.648  0.6325  1.1201 -0.6438
 9027SOL    HW230613   4.786   6.138   0.690 -1.0571 -0.9972  0.2661
 9028SOL     OW30614   0.745   7.313   2.144 -0.3642  0.4993  0.0840
 9028SOL    HW130615   0.660   7.285   2.111 -0.2730  0.1535  0.1429
 9028SOL    HW230616   0.749   7.406   2.123 -0.2894  0.2833 -0.9068
 9029SOL     OW30617  10.780   7.022   1.801 -0.2432 -0.6488 -0.5429
 9029SOL    HW130618  10.792   6.928   1.806  0.0911 -0.5550  0.9072
 9029SOL    HW230619  10.857   7.054   1.753 -1.0552 -1.2164 -2.2800
 9030SOL     OW30620   1.437   4.383   7.729 -0.3345  0.7004 -0.4651
 9030SOL    HW130621   1.508   4.444   7.748 -1.2843  1.3840  1.1729
 9030SOL    HW230622   1.376   4.433   7.674 -0.5234  0.8262 -0.1460
 9031SOL     OW30623   6.947   1.423   1.276  0.1048  0.0375 -0.2774
 9031SOL    HW130624   6.944   1.459   1.365 -0.1465 -2.4751  0.8008
 9031SOL    HW230625   6.859   1.435   1.242 -0.3253 -0.7052  0.5561
 9032SOL     OW30626   5.497   7.650   0.609 -0.5250  0.1621 -0.3490
 9032SOL    HW130627   5.571   7.707   0.630 -2.1796  1.3097  3.0789
 9032SOL    HW230628   5.464   7.683   0.525  1.1569  1.4062 -0.5776
 9033SOL     OW30629   7.419   5.750   6.069 -0.2473 -0.1508 -0.1564
 9033SOL    HW130630   7.367   5.824   6.099 -1.6265 -1.6126  1.3081
 9033SOL    HW230631   7.498   5.752   6.123 -1.2924 -0.9590  1.4758
 9034SOL     OW30632   7.994   0.066   7.573  0.0203 -0.2849  0.2520
 9034SOL    HW130633   7.930   0.061   7.502 -0.1755 -0.5227  0.4423
 9034SOL    HW230634   8.054  -0.007   7.557  1.6924  1.3534 -1.3019
 9035SOL     OW30635   0.314   9.801   5.584  0.4143  0.6599 -0.1603
 9035SOL    HW130636   0.365   9.882   5.583 -0.8721  1.5608  1.4761
 9035SOL    HW230637   0.276   9.796   5.497  0.6626  1.7263 -0.3443
 9036SOL     OW30638   5.328   3.671   2.189 -0.9033 -0.5028  0.0452
 9036SOL    HW130639   5.359   3.612   2.120 -3.8784 -0.3960 -1.5400
 9036SOL    HW230640   5.292   3.746   2.141  0.0822  1.2651  1.9219
 9037SOL     OW30641   9.137  10.883   1.253  0.4519 -0.4765  0.1197
 9037SOL    HW130642   9.187  10.897   1.173  0.9953 -0.3791  0.4691
 9037SOL    HW230643   9.147  10.964   1.302  0.4732 -0.6877  0.4710
 9038SOL     OW30644   8.937   0.115   2.720  0.1565  0.4113  0.5456
 9038SOL    HW130645   8.867   0.073   2.669  1.5952  0.0014 -1.2285
 9038SOL    HW230646   9.016   0.067   2.694  1.1066  0.8436  2.5003
 9039SOL     OW30647   6.484   1.497   1.330 -0.3153  0.2911  0.1604
 9039SOL    HW130648   6.462   1.436   1.259  0.2370  0.2394  0.0297
 9039SOL    HW230649   6.477   1.444   1.409  1.6274 -0.3808 -0.0589
 9040SOL     OW30650   5.960  10.983   9.106 -0.3275  0.2301  0.5041
 9040SOL    HW130651   5.983  11.076   9.101 -2.1010  0.6508 -0.6835
 9040SOL    HW230652   5.922  10.973   9.193 -0.7462  0.7826  0.3933
 9041SOL     OW30653   3.655   7.250   8.206  0.6057  0.4293  0.2840
 9041SOL    HW130654   3.635   7.240   8.113  1.4190  0.3429  0.1158
 9041SOL    HW230655   3.750   7.248   8.211  0.5724 -2.1073  1.4041
 9042SOL     OW30656   1.249  11.096   4.278  0.0614  0.3672 -0.1893
 9042SOL    HW130657   1.165  11.136   4.254  0.0763 -0.7470 -2.2587
 9042SOL    HW230658   1.300  11.095   4.197  1.0542 -1.4041  0.3947
 9043SOL     OW30659   9.328   0.032  10.750  0.1448  0.0503  0.0294
 9043SOL    HW130660   9.309   0.125  10.767 -1.3044 -0.3585  0.8755
 9043SOL    HW230661   9.423   0.027  10.748  0.3201  1.2547  1.9690
 9044SOL     OW30662   0.484   7.570   3.500  0.2659  0.4401  0.5076
 9044SOL    HW130663   0.526   7.620   3.569 -0.2703 -1.1260  2.0349
 9044SOL    HW230664   0.404   7.619   3.480  1.2201  1.7623 -0.2018
 9045SOL     OW30665   0.503   4.278  10.468 -0.1042  0.2957  0.2000
 9045SOL    HW130666   0.593   4.255  10.447 -0.2974 -0.7293  0.4368
 9045SOL    HW230667   0.474   4.210  10.528 -1.3566  0.0354 -0.6530
 9046SOL     OW30668   7.168  10.561   3.551  0.4189 -0.4028  0.7697
 9046SOL    HW130669   7.153  10.653   3.572  1.7618 -0.0800  0.4570
 9046SOL    HW230670   7.244  10.537   3.604  1.3501 -0.7262 -0.6636
 9047SOL     OW30671   4.084   1.625   1.250 -0.3165  0.4191  0.0700
 9047SOL    HW130672   4.071   1.648   1.342  1.4120  0.8836  0.2236
 9047SOL    HW230673   4.109   1.533   1.252  0.5332  0.6429  0.1560
 9048SOL     OW30674  10.154   3.194   2.862 -0.4098 -0.2212  0.4953
 9048SOL    HW130675  10.174   3.280   2.826  0.8400  0.0743  1.7945
 9048SOL    HW230676  10.080   3.209   2.921 -0.1146  0.0011  0.8152
 9049SOL     OW30677   4.505   1.452   7.159  0.0175 -0.0892 -0.1754
 9049SOL    HW130678   4.555   1.374   7.138  0.6365  0.3079 -0.2070
 9049SOL    HW230679   4.451   1.427   7.234  2.0095  0.1309  1.4359
 9050SOL     OW30680   4.821   2.221   4.879  0.7658 -0.0761 -0.7074
 9050SOL    HW130681   4.772   2.172   4.944  2.9366 -2.4165 -0.6544
 9050SOL    HW230682   4.884   2.273   4.930  1.4203 -0.7091 -0.8445
 9051SOL     OW30683   6.429   7.926   7.562  0.3211  0.1668 -0.0757
 9051SOL    HW130684   6.500   7.990   7.566  0.1078  0.3601  0.8474
 9051SOL    HW230685   6.373   7.957   7.491  1.7201 -0.6109 -1.6068
 9052SOL     OW30686   1.760  10.906   5.697 -0.1333  0.6535  0.2059
 9052SOL    HW130687   1.843  10.860   5.704 -0.3778 -0.1267 -1.4240
 9052SOL    HW230688   1.704  10.866   5.764  0.3388  0.1171  0.2808
 9053SOL     OW30689   7.110   0.639   3.993 -0.0233  0.2713 -0.0449
 9053SOL    HW130690   7.188   0.586   3.976  1.3856  1.5720  1.9236
 9053SOL    HW230691   7.057   0.585   4.053 -0.4683 -0.4410 -1.0554
 9054SOL     OW30692   9.380   8.439   0.055 -0.2819 -0.0480 -0.0590
 9054SOL    HW130693   9.446   8.479   0.113  0.4298 -0.2188 -0.7312
 9054SOL    HW230694   9.385   8.490  -0.026  0.0100 -0.9195 -0.6084
 9055SOL     OW30695  10.922   7.481   5.967  0.4964  0.2347  0.0869
 9055SOL    HW130696  10.957   7.505   6.053  2.3270 -2.4012  0.1818
 9055SOL    HW230697  10.997   7.482   5.909 -0.4942  0.7195 -1.2487
 9056SOL     OW30698   7.034   9.241  10.780  0.0243  0.2314  0.1565
 9056SOL    HW130699   7.036   9.316  10.839  1.2890  0.6080 -0.3381
 9056SOL    HW230700   6.940   9.227  10.763 -0.2520  1.4902  0.5113
 9057SOL     OW30701   1.529   6.974  10.344  0.7303  0.0363 -0.1182
 9057SOL    HW130702   1.488   7.060  10.332  0.6966 -0.2170 -2.1103
 9057SOL    HW230703   1.622   6.993  10.356  0.4042  0.4769  2.3472
 9058SOL     OW30704   5.692   9.580   8.477 -0.3103  0.2913  0.0459
 9058SOL    HW130705   5.755   9.596   8.406 -0.3165  2.2417  0.4038
 9058SOL    HW230706   5.692   9.662   8.527 -2.6589  0.1265  0.4346
 9059SOL     OW30707   4.898  10.462   2.986 -0.2810 -0.7052 -0.5192
 9059SOL    HW130708   4.846  10.405   2.930 -1.2384  1.2005 -1.7029
 9059SOL    HW230709   4.853  10.459   3.071 -2.6049  1.0592 -1.5661
 9060SOL     OW30710   2.092   5.006   6.703  0.0900 -0.2971  0.0439
 9060SOL    HW130711   2.061   5.038   6.788 -0.0832  1.2791 -0.5820
 9060SOL    HW230712   2.080   5.080   6.644  1.0625 -1.0749 -1.1643
 9061SOL     OW30713   1.202   8.747   6.457  0.1891  0.1016  0.7276
 9061SOL    HW130714   1.128   8.686   6.446 -0.1394  0.8009 -1.4626
 9061SOL    HW230715   1.170   8.813   6.519 -1.3403  0.7622 -0.6872
 9062SOL     OW30716   1.161   3.452   9.053 -0.2474 -0.0009 -0.2392
 9062SOL    HW130717   1.137   3.507   9.128  2.5070 -0.2926  0.9882
 9062SOL    HW230718   1.166   3.363   9.088 -1.2800 -0.5282 -1.3744
 9063SOL     OW30719   7.101   6.983   9.527  0.3230 -0.0018  0.1611
 9063SOL    HW130720   7.183   6.942   9.555  1.2640  1.4608 -0.3181
 9063SOL    HW230721   7.127   7.045   9.458 -1.6041 -1.7090 -2.2610
 9064SOL     OW30722   0.358   1.453   5.877  0.3095 -0.5798 -0.3432
 9064SOL    HW130723   0.383   1.433   5.787  0.5715 -1.0329 -0.1741
 9064SOL    HW230724   0.400   1.384   5.929 -0.0420 -0.4619  0.0981
 9065SOL     OW30725   7.961   0.141   7.860  0.1339  0.0088 -0.3136
 9065SOL    HW130726   8.048   0.165   7.829  0.3627 -0.5807 -0.1457
 9065SOL    HW230727   7.925   0.086   7.789 -0.5009  1.0580 -0.8333
 9066SOL     OW30728   4.566   9.132   7.524  0.5203  0.2215  0.0060
 9066SOL    HW130729   4.533   9.044   7.540 -2.1734  0.9978 -0.8145
 9066SOL    HW230730   4.551   9.179   7.606 -0.4225  0.5611 -0.3495
 9067SOL     OW30731   3.027   6.109   8.757  0.3812 -0.5171 -0.2932
 9067SOL    HW130732   2.987   6.154   8.683  0.0291  0.2293  0.3419
 9067SOL    HW230733   3.121   6.108   8.736  0.4293  0.7619 -0.1980
 9068SOL     OW30734   1.712   5.207   2.041 -0.0365 -0.2929  0.7340
 9068SOL    HW130735   1.727   5.179   2.131 -2.8507  0.5769  1.5841
 9068SOL    HW230736   1.699   5.125   1.992 -0.9766 -0.7085  1.6539
 9069SOL     OW30737   7.957   4.609   9.340  0.2035  0.2732  0.0503
 9069SOL    HW130738   8.045   4.599   9.303  0.4997 -0.5630  0.9469
 9069SOL    HW230739   7.954   4.698   9.373  1.0328  0.0268  0.8162
 9070SOL     OW30740   5.668   6.226   0.785  0.4188  0.1319 -0.1393
 9070SOL    HW130741   5.603   6.254   0.720 -1.7337  1.1789  2.3054
 9070SOL    HW230742   5.635   6.143   0.819  0.8017  0.2466  0.5440
 9071SOL     OW30743   4.619   5.407   6.736 -0.1179  0.3590 -0.3003
 9071SOL    HW130744   4.677   5.385   6.663  0.9372 -1.1221  0.9069
 9071SOL    HW230745   4.672   5.463   6.793 -0.9497  1.5462 -0.6687
 9072SOL     OW30746  10.128   6.298   5.459  0.4197 -0.4921  0.2688
 9072SOL    HW130747  10.160   6.344   5.381 -0.3392  0.1025  0.2923
 9072SOL    HW230748  10.181   6.333   5.531 -1.2314  1.6614  0.5542
 9073SOL     OW30749   2.001   6.076   0.742 -0.0886 -0.6444  0.6735
 9073SOL    HW130750   1.941   6.003   0.726 -1.7818  0.4712  1.6461
 9073SOL    HW230751   1.948   6.142   0.787  0.5643  2.3502 -2.4803
 9074SOL     OW30752   2.306   8.744   6.581 -0.3995  0.3556  0.5176
 9074SOL    HW130753   2.216   8.762   6.554 -0.7260  1.2215  2.0682
 9074SOL    HW230754   2.303   8.748   6.676  0.9581 -1.2694  0.6735
 9075SOL     OW30755   2.373   6.706   9.480 -0.2553  0.2070  0.1307
 9075SOL    HW130756   2.438   6.740   9.418  0.7063  1.4859  1.7532
 9075SOL    HW230757   2.384   6.611   9.475  0.1913  0.2956 -1.2158
 9076SOL     OW30758   8.753   3.873   8.342 -0.1744 -0.4701 -0.6376
 9076SOL    HW130759   8.825   3.823   8.381 -1.7871 -1.1523  1.7697
 9076SOL    HW230760   8.792   3.956   8.316  1.5434 -0.9255  0.3319
 9077SOL     OW30761   7.925   7.665   8.455  0.6551 -0.6538 -0.1614
 9077SOL    HW130762   7.905   7.635   8.367 -1.1547 -1.3610  0.4363
 9077SOL    HW230763   7.967   7.589   8.497 -0.7296 -1.2095  0.2892
 9078SOL     OW30764   1.497   5.298   5.351 -0.2288 -0.2181 -0.1579
 9078SOL    HW130765   1.417   5.301   5.298  0.8277  0.6380 -1.7626
 9078SOL    HW230766   1.489   5.374   5.409  0.5694  1.5018 -2.1539
 9079SOL     OW30767   4.907   8.007   3.978  0.3313 -0.5890 -0.0551
 9079SOL    HW130768   4.992   8.025   4.019  0.3974  0.7513 -0.7285
 9079SOL    HW230769   4.928   7.970   3.893  0.4928  3.8145 -2.2014
 9080SOL     OW30770   9.471   8.561   9.923 -0.0324  0.3610 -0.5531
 9080SOL    HW130771   9.534   8.559   9.852 -0.9809 -0.1015 -1.4142
 9080SOL    HW230772   9.494   8.486   9.979  0.0032  0.0245 -1.0193
 9081SOL     OW30773  10.011   4.575   5.107 -0.1081  0.1067  0.3615
 9081SOL    HW130774   9.958   4.654   5.120 -0.0815  0.1859 -0.0140
 9081SOL    HW230775  10.026   4.571   5.013 -1.5529 -1.2809  0.1437
 9082SOL     OW30776   6.025   1.449   0.808  0.3393  0.1822  0.3087
 9082SOL    HW130777   6.087   1.501   0.758 -0.1015  0.2619 -0.1689
 9082SOL    HW230778   6.071   1.367   0.826  0.4415  0.0742 -0.4022
 9083SOL     OW30779   5.516   8.897   3.626 -0.1203 -0.6305 -0.0208
 9083SOL    HW130780   5.561   8.961   3.682 -1.0076  0.8965 -0.9938
 9083SOL    HW230781   5.482   8.831   3.687 -0.7646  0.8022  1.2302
 9084SOL     OW30782   9.477   2.960   2.978  0.4036  0.6418 -0.4686
 9084SOL    HW130783   9.436   2.975   3.063  0.3636 -0.2907 -0.3127
 9084SOL    HW230784   9.567   2.936   2.999  0.2858  0.0040 -0.6559
 9085SOL     OW30785   3.992   0.473   5.062 -0.4609  0.6747  0.7139
 9085SOL    HW130786   4.008   0.472   5.156 -0.4558  2.1491  0.7474
 9085SOL    HW230787   4.072   0.434   5.024  0.9125  2.8562  1.1857
 9086SOL     OW30788   5.400   2.117   2.288 -0.0209 -0.0101 -0.8364
 9086SOL    HW130789   5.430   2.050   2.349 -1.1453 -0.7321 -1.0254
 9086SOL    HW230790   5.446   2.097   2.206  1.3931  0.8855 -0.2972
 9087SOL     OW30791   2.528   7.842   1.300 -0.3799 -0.0335  0.1136
 9087SOL    HW130792   2.499   7.895   1.375  0.4750  0.2630  0.2554
 9087SOL    HW230793   2.619   7.868   1.288 -0.2660 -0.7081 -0.4988
 9088SOL     OW30794   3.081   8.760   1.239 -0.0501 -0.0114  0.1009
 9088SOL    HW130795   3.019   8.790   1.173 -0.4402  1.2650  1.0102
 9088SOL    HW230796   3.037   8.775   1.322  0.7049 -0.9407  0.6936
 9089SOL     OW30797   3.659  10.104   0.712  0.2242  0.2821 -0.3450
 9089SOL    HW130798   3.623  10.040   0.651  0.1925 -0.9303  0.8936
 9089SOL    HW230799   3.606  10.095   0.791  1.2651  0.6634  0.4277
 9090SOL     OW30800   6.125   5.511   3.469  0.2656 -0.2141  0.6182
 9090SOL    HW130801   6.096   5.496   3.559 -0.1153 -0.5852  0.4389
 9090SOL    HW230802   6.181   5.436   3.449  0.9211  0.2245  0.7774
 9091SOL     OW30803   6.438   1.503   4.593  0.6368  0.1575 -0.1868
 9091SOL    HW130804   6.436   1.476   4.501  0.9084  0.7753 -0.3774
 9091SOL    HW230805   6.360   1.463   4.631  1.9459 -2.4395 -0.0085
 9092SOL     OW30806  10.057  10.389   4.342 -0.4493 -0.5632  0.7321
 9092SOL    HW130807  10.001  10.461   4.313 -0.1407 -0.3742  0.5879
 9092SOL    HW230808  10.010  10.310   4.316 -0.5885 -0.4067  0.4959
 9093SOL     OW30809   7.349   7.395   7.250  0.6055 -0.2230 -0.2849
 9093SOL    HW130810   7.427   7.425   7.202 -1.5890  2.7160 -2.3818
 9093SOL    HW230811   7.330   7.466   7.311 -0.4156 -0.9156  0.2163
 9094SOL     OW30812   8.382   1.073   2.469 -0.1223 -0.6218 -0.4956
 9094SOL    HW130813   8.431   1.085   2.387  0.5059 -0.6028 -0.1228
 9094SOL    HW230814   8.351   1.161   2.491 -0.0637 -0.5833 -0.5658
 9095SOL     OW30815   9.232   1.845  10.217  0.5370  0.4280 -0.5196
 9095SOL    HW130816   9.193   1.917  10.167 -2.9013 -0.8209  0.0909
 9095SOL    HW230817   9.202   1.766  10.172 -0.5134 -0.6767  1.9152
 9096SOL     OW30818   1.564   3.208   0.054 -0.1330 -0.0360  0.1317
 9096SOL    HW130819   1.633   3.141   0.052  1.2249  1.3364 -0.6079
 9096SOL    HW230820   1.509   3.188  -0.022 -0.2291 -0.7742  0.3802
 9097SOL     OW30821   9.194   7.009   9.855  0.4840 -0.0473 -0.1823
 9097SOL    HW130822   9.117   6.957   9.878 -1.1051  1.0830 -2.6007
 9097SOL    HW230823   9.249   6.950   9.804 -0.7096  0.2141 -1.8360
 9098SOL     OW30824   0.817   5.654  10.836 -0.1276  0.5027 -0.0472
 9098SOL    HW130825   0.806   5.707  10.757 -0.9492  0.8947  0.3149
 9098SOL    HW230826   0.752   5.585  10.827 -1.7387  1.7827  1.2722
 9099SOL     OW30827   8.441   9.053   9.595 -0.2376 -0.3498  0.1695
 9099SOL    HW130828   8.437   9.114   9.522 -0.5478 -2.9469 -2.1815
 9099SOL    HW230829   8.354   9.058   9.635 -0.5179  0.2023 -0.4909
 9100SOL     OW30830   7.815   1.619   6.051  0.0301  1.1601 -0.3209
 9100SOL    HW130831   7.769   1.613   5.967 -0.6568 -0.2765  0.1278
 9100SOL    HW230832   7.885   1.555   6.045 -0.2029  0.8437  0.3116
 9101SOL     OW30833   7.522  10.867   9.820 -0.3313  0.2703 -0.4907
 9101SOL    HW130834   7.600  10.908   9.783 -0.9548  2.9730  0.8967
 9101SOL    HW230835   7.451  10.895   9.763 -0.5939 -0.1841 -0.3923
 9102SOL     OW30836   0.032   3.012   9.075  0.2664 -0.0395 -0.1869
 9102SOL    HW130837   0.059   3.072   9.005  0.6690  1.1841  0.9808
 9102SOL    HW230838   0.013   3.069   9.149  0.0678 -1.3261  0.7802
 9103SOL     OW30839   5.767   1.844   3.804 -0.4101 -0.3384 -0.2685
 9103SOL    HW130840   5.846   1.805   3.765 -0.1736  0.1632 -0.3036
 9103SOL    HW230841   5.801   1.903   3.872 -0.6910  0.6414 -0.9454
 9104SOL     OW30842   4.703  10.158   1.339  0.1510 -0.1319 -0.0533
 9104SOL    HW130843   4.778  10.153   1.280 -0.8423 -0.8860 -1.3335
 9104SOL    HW230844   4.673  10.249   1.331 -0.8089 -0.5487 -1.8854
 9105SOL     OW30845   8.634   7.229   4.488  0.0068  0.4420 -0.2944
 9105SOL    HW130846   8.681   7.282   4.551  0.8126 -1.1937  0.5162
 9105SOL    HW230847   8.701   7.194   4.430 -0.3134 -1.0105  0.1862
 9106SOL     OW30848   3.999   8.986   7.980 -0.4692 -0.2897  0.1100
 9106SOL    HW130849   4.086   8.966   7.946 -0.0098  0.3086  0.8818
 9106SOL    HW230850   3.971   8.905   8.024 -0.4563 -0.5960 -0.4430
 9107SOL     OW30851  10.341   7.733   2.233  0.0315  0.1502 -0.5458
 9107SOL    HW130852  10.272   7.758   2.294  2.1041 -0.0343  2.0248
 9107SOL    HW230853  10.397   7.810   2.226  0.4560 -0.2141 -1.2979
 9108SOL     OW30854   5.883   9.632   3.345 -0.4189 -0.1220  0.2368
 9108SOL    HW130855   5.861   9.692   3.273 -0.4820  0.5225  0.7830
 9108SOL    HW230856   5.929   9.560   3.302 -2.5432 -0.9490 -0.7776
 9109SOL     OW30857   2.905   9.698   1.790  0.9686 -0.6405  0.4528
 9109SOL    HW130858   2.852   9.666   1.717 -0.1219 -0.6625  1.2415
 9109SOL    HW230859   2.995   9.686   1.761  0.6371 -3.8434  0.4437
 9110SOL     OW30860  10.521   5.118   3.261 -1.0270  0.2118 -0.5946
 9110SOL    HW130861  10.501   5.172   3.184 -0.0119  2.3046  0.5516
 9110SOL    HW230862  10.512   5.177   3.335  1.3955 -0.8280  0.6351
 9111SOL     OW30863   8.804   7.309   5.093  0.2266 -0.1856 -0.0198
 9111SOL    HW130864   8.759   7.283   5.013  0.3600 -0.3044 -0.0563
 9111SOL    HW230865   8.779   7.242   5.157  0.1759 -0.1303  0.0179
 9112SOL     OW30866   6.108   6.393   0.115 -0.6254  0.3244 -0.5237
 9112SOL    HW130867   6.094   6.434   0.030  0.4836  0.2972 -0.7380
 9112SOL    HW230868   6.168   6.453   0.161 -0.6802  0.0023 -0.0239
 9113SOL     OW30869   6.400  10.311   1.531 -0.2174 -0.1070 -0.1898
 9113SOL    HW130870   6.397  10.399   1.496 -0.7554  0.1664  0.5135
 9113SOL    HW230871   6.402  10.254   1.454  0.3993  0.5138 -0.6485
 9114SOL     OW30872   5.932   1.717   1.902 -0.3168  0.4558  0.0597
 9114SOL    HW130873   5.880   1.638   1.889  0.2546  0.0476  0.2171
 9114SOL    HW230874   5.881   1.786   1.859 -0.0316 -0.2901 -1.5690
 9115SOL     OW30875   8.472   9.251   5.566  0.1252 -0.2814  0.2986
 9115SOL    HW130876   8.402   9.309   5.536  0.3675  0.2446  0.7357
 9115SOL    HW230877   8.428   9.168   5.584 -0.3633 -0.0024  0.4096
 9116SOL     OW30878   5.583  10.415   9.003  0.2851  0.0176 -0.5692
 9116SOL    HW130879   5.631  10.445   9.080  0.2615  2.0452 -1.2755
 9116SOL    HW230880   5.629  10.456   8.929 -0.8411 -0.3264 -1.4827
 9117SOL     OW30881   7.656   6.431   1.058  0.7905  0.2978 -0.0581
 9117SOL    HW130882   7.624   6.341   1.056  0.5131  0.2887  2.4157
 9117SOL    HW230883   7.744   6.424   1.094  0.1087  1.1419  1.8502
 9118SOL     OW30884   5.398   0.396   7.092 -0.4178  0.2849 -0.0226
 9118SOL    HW130885   5.303   0.388   7.101 -0.3128 -0.6964  0.3187
 9118SOL    HW230886   5.418   0.351   7.010 -0.1927  0.0347  0.1687
 9119SOL     OW30887   8.750   7.497   5.769  0.2169 -0.1252  0.2109
 9119SOL    HW130888   8.841   7.471   5.782  0.5950  1.7456  1.6147
 9119SOL    HW230889   8.750   7.544   5.685 -0.0635 -2.4608 -1.2148
 9120SOL     OW30890   6.601   2.535   3.644  0.3370  0.0433 -0.3489
 9120SOL    HW130891   6.536   2.598   3.614 -0.3566 -0.3067  0.4110
 9120SOL    HW230892   6.616   2.478   3.568 -0.7200 -0.2693 -0.3407
 9121SOL     OW30893   9.195   7.360   7.801  0.1784 -0.1693  0.4370
 9121SOL    HW130894   9.263   7.347   7.735  0.5809  0.0625  0.8040
 9121SOL    HW230895   9.167   7.451   7.789 -0.9507 -0.6030 -0.5310
 9122SOL     OW30896   3.610   5.335   6.584  0.2111  0.6736  0.1547
 9122SOL    HW130897   3.579   5.387   6.510 -0.3461 -0.1381 -0.2063
 9122SOL    HW230898   3.579   5.381   6.661 -0.8743  0.5308 -0.1756
 9123SOL     OW30899   1.744   6.692   4.948  0.5595 -0.5818 -0.0898
 9123SOL    HW130900   1.796   6.772   4.949  0.1164 -0.2814 -0.6236
 9123SOL    HW230901   1.722   6.677   5.040  0.9644 -0.3097  0.0574
 9124SOL     OW30902   4.461  10.837   7.324  0.0327 -0.3981 -0.5039
 9124SOL    HW130903   4.455  10.845   7.229 -0.5059  1.3573 -0.3585
 9124SOL    HW230904   4.371  10.822   7.353 -0.0917  0.8841 -0.1631
 9125SOL     OW30905   6.965   2.289   0.592  0.1902 -0.3239  0.0834
 9125SOL    HW130906   6.930   2.203   0.568  1.7800 -0.4283 -2.2383
 9125SOL    HW230907   7.023   2.272   0.666 -0.5833 -0.9938  0.5499
 9126SOL     OW30908   7.192   5.079   3.726 -0.0236  0.4290 -0.1629
 9126SOL    HW130909   7.158   5.064   3.639  0.3715 -2.2933  0.0786
 9126SOL    HW230910   7.272   5.027   3.730 -0.1713  0.2692  1.8994
 9127SOL     OW30911   0.115   0.081   0.213 -0.0481  0.0499 -0.2160
 9127SOL    HW130912   0.048   0.064   0.279  0.4286  0.1656  0.3099
 9127SOL    HW230913   0.168   0.001   0.212 -0.2759 -0.0946 -0.7271
 9128SOL     OW30914   9.291   3.073   0.273 -0.0596 -0.3625 -0.2275
 9128SOL    HW130915   9.232   3.001   0.253 -1.9445  1.3700 -1.3111
 9128SOL    HW230916   9.316   3.108   0.188  0.1532  0.7614  0.2794
 9129SOL     OW30917  10.378   5.892   9.894 -0.0930  0.0293  0.0231
 9129SOL    HW130918  10.307   5.918   9.835 -1.2213 -0.2916  1.1893
 9129SOL    HW230919  10.448   5.864   9.835 -0.8209  0.6191 -1.1737
 9130SOL     OW30920  10.075   5.639   8.274  0.2928  0.9046  0.5097
 9130SOL    HW130921  10.126   5.692   8.213  0.9245  1.3575  1.4117
 9130SOL    HW230922  10.038   5.702   8.336  0.5071  0.3716  1.1974
 9131SOL     OW30923   6.248   9.327   9.592 -0.3535 -0.0438 -0.0852
 9131SOL    HW130924   6.250   9.420   9.615  0.8489  0.0978 -0.6863
 9131SOL    HW230925   6.264   9.282   9.675  2.8712  0.4353 -0.3103
 9132SOL     OW30926   4.938   2.575   7.272  0.4117 -0.4110  0.0319
 9132SOL    HW130927   4.937   2.494   7.324  1.0016  0.6707  1.8265
 9132SOL    HW230928   5.017   2.620   7.300  0.6677  0.3113 -1.7592
 9133SOL     OW30929   4.298   5.840   9.241 -0.4030  0.0335 -0.2295
 9133SOL    HW130930   4.268   5.751   9.221  0.2764 -0.0710 -0.7831
 9133SOL    HW230931   4.281   5.890   9.161  1.0665 -0.0717 -0.6230
 9134SOL     OW30932   9.086   1.191   5.992 -0.7617  1.0967 -0.7558
 9134SOL    HW130933   9.161   1.132   5.999 -2.1443 -0.6200  0.6689
 9134SOL    HW230934   9.101   1.239   5.911  1.0869 -0.2917 -1.3242
 9135SOL     OW30935   4.264   7.598   7.011  0.3156 -0.6688  0.5765
 9135SOL    HW130936   4.269   7.663   6.940  0.6636 -2.3242 -0.9886
 9135SOL    HW230937   4.296   7.645   7.088 -2.5711  2.0012  0.3241
 9136SOL     OW30938   8.096   4.473   2.994  1.3242  0.0507 -0.2090
 9136SOL    HW130939   8.076   4.545   3.054 -1.0591 -0.2521 -0.5416
 9136SOL    HW230940   8.023   4.412   3.005  2.0008 -1.0916 -1.7787
 9137SOL     OW30941  10.374   9.715   6.656 -0.8188 -0.1517 -0.1406
 9137SOL    HW130942  10.358   9.626   6.689  0.0901  0.3411  1.7570
 9137SOL    HW230943  10.449   9.746   6.706 -1.3278  1.8179 -0.5270
 9138SOL     OW30944   9.013   6.319   1.568 -0.0345 -0.0367 -0.2007
 9138SOL    HW130945   9.087   6.377   1.550  0.8570 -0.8158  0.8341
 9138SOL    HW230946   9.045   6.258   1.634 -1.7140 -0.1938  0.5365
 9139SOL     OW30947   4.353  10.474   0.648  0.8898  0.1989  0.2202
 9139SOL    HW130948   4.349  10.417   0.572 -0.1899  0.0247  0.3902
 9139SOL    HW230949   4.447  10.490   0.662  1.1419 -0.6265 -0.4886
 9140SOL     OW30950  11.089   0.455   8.916  0.2442 -0.2208  0.9626
 9140SOL    HW130951  11.092   0.373   8.867 -0.2608 -0.2166  0.9203
 9140SOL    HW230952  11.006   0.495   8.890  1.1468  1.0309 -0.1949
 9141SOL     OW30953   4.082   9.210   0.067 -0.8724  0.3006 -0.3464
 9141SOL    HW130954   4.037   9.207   0.151 -1.6300  0.2314 -0.7479
 9141SOL    HW230955   4.131   9.292   0.069  0.6418 -0.5824  0.9197
 9142SOL     OW30956   9.968  10.898   9.024  0.7769 -0.2447 -0.2462
 9142SOL    HW130957   9.891  10.943   9.059  0.2496 -3.6070  3.5940
 9142SOL    HW230958   9.948  10.886   8.931 -2.1005  1.2762  0.0638
 9143SOL     OW30959   2.981   5.262  10.417 -1.0088  0.5559  0.4405
 9143SOL    HW130960   3.000   5.236  10.507 -0.4148 -0.8585 -0.0527
 9143SOL    HW230961   2.897   5.220  10.397  0.0533 -1.2551 -0.4306
 9144SOL     OW30962   3.863   4.807   7.192 -0.0199  0.2126 -0.1944
 9144SOL    HW130963   3.783   4.783   7.147  0.6079  0.3277 -1.4223
 9144SOL    HW230964   3.834   4.854   7.270 -1.2165 -2.4828  1.1274
 9145SOL     OW30965   1.283   0.378   3.267  0.4002 -0.6538  0.2353
 9145SOL    HW130966   1.296   0.364   3.360  0.5495  1.5513  0.6057
 9145SOL    HW230967   1.321   0.301   3.225 -2.8034 -3.4864  2.0308
 9146SOL     OW30968   4.753  10.683   7.069 -0.0676 -0.1521  0.6925
 9146SOL    HW130969   4.822  10.617   7.077  1.2166  1.0780  0.1862
 9146SOL    HW230970   4.759  10.735   7.150  0.9885  1.1989 -0.2039
 9147SOL     OW30971   8.668   8.529   0.658  0.3371  0.1399  0.1919
 9147SOL    HW130972   8.647   8.472   0.585 -1.8856  0.6271  0.3844
 9147SOL    HW230973   8.583   8.557   0.693  1.3308  1.2896  1.8831
 9148SOL     OW30974   1.456   6.100   8.665  0.2944 -1.0575 -0.8879
 9148SOL    HW130975   1.499   6.026   8.708 -0.6392 -1.3062 -0.3605
 9148SOL    HW230976   1.474   6.088   8.572 -0.7595 -2.5722 -0.9263
 9149SOL     OW30977   4.851   5.840   3.815 -0.0222  0.0970  0.5308
 9149SOL    HW130978   4.900   5.788   3.750 -1.2266  0.5402 -0.7692
 9149SOL    HW230979   4.904   5.918   3.828  0.7399 -0.4616  0.8919
 9150SOL     OW30980   7.221   8.036   5.320  0.1754  0.0575  0.4028
 9150SOL    HW130981   7.203   7.943   5.308  0.0923  0.0455  0.6333
 9150SOL    HW230982   7.251   8.044   5.410 -2.2308  0.6265  1.2079
 9151SOL     OW30983   9.534   3.959   1.059  0.3569  0.5397  0.0392
 9151SOL    HW130984   9.619   3.985   1.023  1.3119 -1.9898  0.2616
 9151SOL    HW230985   9.553   3.938   1.151 -0.8874  1.4961  0.5496
 9152SOL     OW30986   5.880   3.962   7.056 -0.1060 -1.1244 -0.1164
 9152SOL    HW130987   5.853   3.963   6.965 -0.1991  0.4614 -0.1014
 9152SOL    HW230988   5.936   3.884   7.064  1.5963 -0.1949 -2.0405
 9153SOL     OW30989   1.261   4.147   2.980  0.5361  0.1666 -0.2438
 9153SOL    HW130990   1.335   4.179   3.031  0.8740 -1.2085  0.1882
 9153SOL    HW230991   1.193   4.129   3.046 -0.6854  2.5574 -0.7322
 9154SOL     OW30992   5.236   4.072   2.697  0.1593  0.0980 -0.1584
 9154SOL    HW130993   5.194   4.125   2.630  2.3377  1.1336 -0.8121
 9154SOL    HW230994   5.252   4.134   2.769  0.1756 -0.3701  0.2436
 9155SOL     OW30995  10.096   9.794   3.624 -0.5382 -0.7132  0.2850
 9155SOL    HW130996  10.070   9.707   3.592 -0.1468 -1.3591  1.6532
 9155SOL    HW230997  10.113   9.781   3.717 -0.8836  0.9460  0.5984
 9156SOL     OW30998   6.320   8.918   4.486  0.4432 -0.2031 -0.7950
 9156SOL    HW130999   6.248   8.866   4.448  0.8039 -0.1564 -1.5581
 9156SOL    HW231000   6.318   8.896   4.580 -0.5940 -0.1638 -0.7964
 9157SOL     OW31001   1.956   3.121   1.838  0.0457 -0.5622  0.2553
 9157SOL    HW131002   1.876   3.087   1.798  0.3584 -1.8913  0.7194
 9157SOL    HW231003   1.976   3.059   1.907  0.6087  0.6295  1.1926
 9158SOL     OW31004   3.610   0.502   5.957  0.3414  0.4395 -0.0067
 9158SOL    HW131005   3.620   0.460   6.042  0.0200 -0.9554 -0.6261
 9158SOL    HW231006   3.681   0.465   5.904  1.8182  2.8008  0.1767
 9159SOL     OW31007   9.884   2.991   4.285  0.7386 -0.8316  0.0885
 9159SOL    HW131008   9.907   3.083   4.295  1.2265 -0.9400 -0.0047
 9159SOL    HW231009   9.919   2.948   4.364  1.8569 -1.1794 -0.5772
 9160SOL     OW31010   7.941   3.429   7.715 -0.1845  0.1146  0.1642
 9160SOL    HW131011   8.035   3.438   7.728 -0.0340 -0.2941 -0.5642
 9160SOL    HW231012   7.902   3.491   7.776  0.4972 -0.8045  1.5940
 9161SOL     OW31013   7.633   8.367   5.829 -0.6441 -0.5784  0.4569
 9161SOL    HW131014   7.699   8.435   5.819 -0.5152 -0.8019 -0.2904
 9161SOL    HW231015   7.557   8.399   5.779 -0.1542 -1.5147 -0.9715
 9162SOL     OW31016   9.182   1.712   6.607  0.0272 -0.4339  0.3141
 9162SOL    HW131017   9.152   1.622   6.623  0.1868 -0.6860 -0.7147
 9162SOL    HW231018   9.114   1.767   6.644  0.3924 -0.9565  1.8434
 9163SOL     OW31019   6.964   7.751   4.183  0.1669 -0.0033 -0.5129
 9163SOL    HW131020   6.954   7.739   4.088 -0.7593 -2.2170 -0.1874
 9163SOL    HW231021   6.971   7.662   4.218 -2.0430  0.5985  1.7356
 9164SOL     OW31022   6.662   1.750   3.505 -0.5412 -0.6417 -0.2074
 9164SOL    HW131023   6.653   1.820   3.441  1.1609 -0.1024  0.0870
 9164SOL    HW231024   6.590   1.762   3.566 -1.3999 -0.3534 -1.2481
 9165SOL     OW31025  11.081   4.876   7.144 -0.5089 -0.5698 -0.0460
 9165SOL    HW131026  11.025   4.800   7.127 -2.1993  0.4889  0.5163
 9165SOL    HW231027  11.086   4.881   7.239  0.7195 -0.7578 -0.0964
 9166SOL     OW31028   0.636   1.634   6.871  0.0342  0.2409 -0.0803
 9166SOL    HW131029   0.710   1.687   6.901  0.6488 -0.9876  0.6511
 9166SOL    HW231030   0.568   1.650   6.936  0.0731  0.4495 -0.0897
 9167SOL     OW31031  10.355   4.581  10.850  0.4206  0.1190 -0.2826
 9167SOL    HW131032  10.338   4.675  10.860 -0.0203 -0.1047  1.3462
 9167SOL    HW231033  10.446   4.576  10.823  0.4941  1.0063 -0.2344
 9168SOL     OW31034   4.790   5.407   9.787 -0.2361 -0.3032  0.2157
 9168SOL    HW131035   4.801   5.363   9.703 -1.4094  2.0690 -1.3105
 9168SOL    HW231036   4.879   5.426   9.816  0.2014 -1.5885 -0.2160
 9169SOL     OW31037   0.139   8.114   5.104 -0.6119  0.4828 -0.2666
 9169SOL    HW131038   0.048   8.097   5.081  0.4439 -3.3439 -2.4623
 9169SOL    HW231039   0.185   8.116   5.019  1.5987  0.4885  0.8654
 9170SOL     OW31040   8.244   9.628  10.319  0.2149  0.1186  0.0870
 9170SOL    HW131041   8.280   9.668  10.240 -0.1495 -0.2626 -0.2723
 9170SOL    HW231042   8.307   9.560  10.343 -0.6417 -1.1311 -1.0265
 9171SOL     OW31043   5.040   0.139   6.505 -0.1230 -0.1385 -0.2174
 9171SOL    HW131044   5.119   0.124   6.452  0.1959 -0.4312  0.3351
 9171SOL    HW231045   4.983   0.066   6.483 -0.0486 -0.1821 -0.2684
 9172SOL     OW31046   2.255   6.320   7.143 -0.3322 -0.4156  0.1085
 9172SOL    HW131047   2.175   6.281   7.179 -2.0690  0.7966 -2.1332
 9172SOL    HW231048   2.242   6.315   7.048  2.6791 -0.8819 -0.3586
 9173SOL     OW31049   9.270   6.084   8.817  0.3219 -0.1358  0.1640
 9173SOL    HW131050   9.339   6.087   8.752 -0.5019  1.4236 -0.7096
 9173SOL    HW231051   9.253   6.176   8.838  0.0109 -0.5635  2.0067
 9174SOL     OW31052   7.257   6.678   6.856 -0.0372  0.7814  0.4549
 9174SOL    HW131053   7.341   6.668   6.811  1.1477 -0.3501  2.7633
 9174SOL    HW231054   7.217   6.591   6.849 -1.1198  1.3502 -0.7451
 9175SOL     OW31055   1.983   5.647   0.312  0.4779 -0.2956 -0.2251
 9175SOL    HW131056   1.943   5.703   0.245 -0.2749 -0.4938  0.0494
 9175SOL    HW231057   2.075   5.644   0.288  0.3408  0.1989 -0.8579
 9176SOL     OW31058   7.950   7.803  10.467 -0.2276 -0.0871 -0.4650
 9176SOL    HW131059   7.920   7.845  10.547 -0.1124 -0.4066 -0.2464
 9176SOL    HW231060   8.042   7.782  10.485 -0.2055 -0.1713 -0.6761
 9177SOL     OW31061   1.279   1.540   5.842 -0.3289 -0.1591 -0.1137
 9177SOL    HW131062   1.204   1.595   5.818 -0.9682 -0.6927  0.6492
 9177SOL    HW231063   1.301   1.567   5.931 -0.5941 -1.0749  0.2380
 9178SOL     OW31064   6.824   7.846   5.914 -0.0182 -0.2649 -0.2420
 9178SOL    HW131065   6.904   7.817   5.958  0.2212  2.0101  1.0277
 9178SOL    HW231066   6.842   7.937   5.890 -0.9651 -0.7706 -3.2154
 9179SOL     OW31067   8.075   6.991   4.927  0.2990 -0.0265  0.0896
 9179SOL    HW131068   8.107   7.057   4.989  2.4854  0.1236 -1.0890
 9179SOL    HW231069   8.056   7.041   4.847  1.3684 -0.7064 -0.6068
 9180SOL     OW31070   5.010   0.976   0.243 -0.4184  0.1116  0.5005
 9180SOL    HW131071   5.066   1.035   0.192 -0.5045 -1.1491 -1.1353
 9180SOL    HW231072   5.043   0.983   0.333  0.9638  1.0061 -0.0447
 9181SOL     OW31073   3.954   2.442   8.025  0.4411 -0.0441  0.3968
 9181SOL    HW131074   4.028   2.485   8.067  0.6573  0.9542 -0.9602
 9181SOL    HW231075   3.904   2.404   8.098  1.9655 -0.2618  1.3755
 9182SOL     OW31076   4.690   3.972   1.316 -0.2773 -0.2567 -0.4518
 9182SOL    HW131077   4.715   3.916   1.243 -1.5289  1.0576 -1.9430
 9182SOL    HW231078   4.702   4.061   1.284 -1.3629  0.3520  0.7384
 9183SOL     OW31079   8.350   8.630   6.416 -0.1391  0.1697  0.3313
 9183SOL    HW131080   8.315   8.581   6.491 -1.8019  0.2939 -0.3335
 9183SOL    HW231081   8.444   8.614   6.420 -0.3589 -1.0570  1.5758
 9184SOL     OW31082   5.442   0.939   8.693 -0.2605 -0.0851  0.2583
 9184SOL    HW131083   5.457   1.009   8.630 -0.0175 -0.2199  0.1654
 9184SOL    HW231084   5.403   0.869   8.641 -0.8786  0.1278  0.4272
 9185SOL     OW31085   7.062   6.136   1.135 -0.6776  0.1842  0.0596
 9185SOL    HW131086   7.097   6.068   1.191 -2.3449 -1.3828 -0.7233
 9185SOL    HW231087   7.108   6.125   1.051 -1.7024 -0.7171 -0.4056
 9186SOL     OW31088   6.976   2.035   2.810 -0.1321 -0.5502 -0.1822
 9186SOL    HW131089   6.921   2.055   2.886 -1.6511 -1.2266 -1.0506
 9186SOL    HW231090   7.048   2.097   2.815 -0.4205 -0.3129  1.5868
 9187SOL     OW31091  10.654   4.337   1.590  0.1836 -0.1322 -0.6760
 9187SOL    HW131092  10.689   4.406   1.646  0.3128 -0.6465 -0.1036
 9187SOL    HW231093  10.653   4.259   1.646 -0.1215 -0.5546 -1.2537
 9188SOL     OW31094   2.418   0.922   4.623  0.1853 -0.5889 -0.2756
 9188SOL    HW131095   2.323   0.917   4.635  0.0090 -0.5492 -1.5457
 9188SOL    HW231096   2.429   0.951   4.532  1.4124  1.8095  0.5747
 9189SOL     OW31097   5.484   3.250   4.344  0.2645  0.3981  0.3875
 9189SOL    HW131098   5.514   3.279   4.430  1.8191  0.4138 -0.1395
 9189SOL    HW231099   5.563   3.239   4.293 -0.5426 -1.1052 -0.6043
 9190SOL     OW31100  10.539  10.861   6.857  0.1304 -0.1058  0.0613
 9190SOL    HW131101  10.572  10.781   6.899  0.0803 -0.0975  0.1160
 9190SOL    HW231102  10.586  10.865   6.774  1.3106  0.6596  0.7471
 9191SOL     OW31103   1.617   3.994   8.088  0.1496 -0.1000 -0.1677
 9191SOL    HW131104   1.677   4.068   8.092  0.5435 -0.4566  2.5334
 9191SOL    HW231105   1.674   3.919   8.069  0.1237 -0.0493 -0.4473
 9192SOL     OW31106   3.880   3.043   2.592 -0.0653 -0.0574  0.6802
 9192SOL    HW131107   3.941   3.008   2.527  0.9893  0.7236  1.2370
 9192SOL    HW231108   3.865   2.970   2.652 -0.0395 -0.3834  0.2997
 9193SOL     OW31109  10.547   6.724   9.745 -0.0320  0.3492  0.5706
 9193SOL    HW131110  10.617   6.729   9.810 -1.4620  1.3635  2.0881
 9193SOL    HW231111  10.593   6.705   9.663  2.0636  1.2962  1.4447
 9194SOL     OW31112   4.880   3.053   8.256 -0.4142 -0.6705  0.1402
 9194SOL    HW131113   4.938   3.018   8.188 -0.2228 -0.4371  0.1857
 9194SOL    HW231114   4.867   2.980   8.316  1.6620 -0.0863  1.3780
 9195SOL     OW31115  10.307   5.096   0.719  0.5375  0.6375  0.0834
 9195SOL    HW131116  10.345   5.013   0.690  0.8128  0.8481 -0.1775
 9195SOL    HW231117  10.237   5.114   0.656  1.5271  1.3942 -0.8512
 9196SOL     OW31118   4.014   7.299   6.250 -0.3773 -0.3990 -0.4263
 9196SOL    HW131119   4.052   7.214   6.267 -1.6763 -0.7721  0.7995
 9196SOL    HW231120   4.016   7.345   6.334  0.3498  0.8275 -1.0723
 9197SOL     OW31121   9.731   9.021   2.563 -0.4145 -0.2300 -0.0027
 9197SOL    HW131122   9.683   9.040   2.483  0.8476  0.4745 -0.6355
 9197SOL    HW231123   9.702   8.934   2.589 -0.7081 -0.5526 -1.3467
 9198SOL     OW31124   5.755  10.858   8.295  0.7673  0.0127  0.1688
 9198SOL    HW131125   5.745  10.767   8.265  1.4097  0.2537 -0.8236
 9198SOL    HW231126   5.696  10.865   8.371 -0.4812 -0.7882 -0.6851
 9199SOL     OW31127   6.740   4.836   4.871  0.1160  0.4284  0.4123
 9199SOL    HW131128   6.814   4.785   4.904 -1.6526 -1.4704  1.7336
 9199SOL    HW231129   6.705   4.783   4.799  0.1505  1.4125 -0.3494
 9200SOL     OW31130   5.908   3.760   6.744  0.1952  0.3101 -0.2934
 9200SOL    HW131131   5.880   3.852   6.742 -1.1168 -0.0350  0.9897
 9200SOL    HW231132   5.946   3.748   6.830 -2.2004 -1.0024  0.6990
 9201SOL     OW31133   0.518   9.810   2.415  1.2638  0.5125  0.5356
 9201SOL    HW131134   0.565   9.868   2.475 -1.7156  0.2928  3.3363
 9201SOL    HW231135   0.513   9.726   2.460 -2.7893  0.8830  1.1621
 9202SOL     OW31136   9.668   6.172   9.358  0.4723  0.2760  0.1218
 9202SOL    HW131137   9.608   6.099   9.352 -0.7132  1.2316 -0.0793
 9202SOL    HW231138   9.614   6.249   9.339  1.2735  1.3940  2.0962
 9203SOL     OW31139  11.001   3.576   6.494  0.2060  0.1710 -0.1644
 9203SOL    HW131140  11.026   3.668   6.490  1.8411 -0.1038  2.0724
 9203SOL    HW231141  11.081   3.531   6.521 -0.6443 -1.8926 -0.9002
 9204SOL     OW31142   0.208   4.615   7.943  0.4336  0.2376  0.2026
 9204SOL    HW131143   0.114   4.601   7.938  0.6029 -1.4770  0.9194
 9204SOL    HW231144   0.219   4.688   8.004 -0.4114  0.0414  0.5927
 9205SOL     OW31145   8.850   2.874   2.355 -0.2066  0.7651  0.3651
 9205SOL    HW131146   8.918   2.938   2.378 -0.4481  1.3327 -0.4538
 9205SOL    HW231147   8.772   2.927   2.337 -0.3664  0.2613 -0.5011
 9206SOL     OW31148  10.489   6.310   4.421 -0.5099  0.3666 -0.7694
 9206SOL    HW131149  10.492   6.217   4.399  0.4538 -0.1315  1.2413
 9206SOL    HW231150  10.425   6.316   4.493  0.1503  1.0835 -0.2239
 9207SOL     OW31151   4.956   6.650   7.187  0.4618 -0.0085  0.2283
 9207SOL    HW131152   4.943   6.704   7.265 -1.0858  1.3371 -0.8833
 9207SOL    HW231153   4.969   6.562   7.221 -2.0815  0.1769  2.0058
 9208SOL     OW31154   6.840   3.373   1.502 -0.0415 -0.4435 -0.0093
 9208SOL    HW131155   6.882   3.315   1.566  0.9264 -2.8385 -2.5985
 9208SOL    HW231156   6.783   3.315   1.452 -1.3782  1.4979 -0.8425
 9209SOL     OW31157  10.603   9.318   7.951  0.3398 -0.2584 -0.3543
 9209SOL    HW131158  10.585   9.328   8.045  1.1850  2.4760 -0.3951
 9209SOL    HW231159  10.639   9.229   7.943  2.2334  0.1539  2.2735
 9210SOL     OW31160   9.493   4.359   4.039  0.4936  0.1341  0.1669
 9210SOL    HW131161   9.487   4.278   4.088 -2.6199  0.0111 -0.2124
 9210SOL    HW231162   9.470   4.428   4.102  0.2075  0.3753 -0.1901
 9211SOL     OW31163   3.543   4.146   3.381 -0.2428 -0.1551  0.0279
 9211SOL    HW131164   3.574   4.159   3.292 -0.2267 -1.5448 -0.1914
 9211SOL    HW231165   3.518   4.234   3.411 -0.7920  0.2504 -1.5360
 9212SOL     OW31166   7.185   6.938   4.140  0.7823  0.0113 -0.1576
 9212SOL    HW131167   7.126   6.869   4.108  1.6273 -0.7265 -0.1480
 9212SOL    HW231168   7.226   6.972   4.061  1.1337 -0.2149 -0.0765
 9213SOL     OW31169   8.368   5.756   2.013 -0.2812 -0.2776  0.7757
 9213SOL    HW131170   8.316   5.813   1.957 -1.3091 -1.0509  0.9119
 9213SOL    HW231171   8.359   5.794   2.100 -1.2181 -0.7964  0.9194
 9214SOL     OW31172   9.379   3.720   1.539 -0.2347  0.9596  0.1235
 9214SOL    HW131173   9.286   3.740   1.546 -0.0589  2.1846 -0.6352
 9214SOL    HW231174   9.387   3.669   1.457 -0.2369  0.8455  0.1938
 9215SOL     OW31175   3.245   0.858   7.609  0.2616  0.8317 -0.2669
 9215SOL    HW131176   3.206   0.864   7.522  0.1806  0.6092 -0.2447
 9215SOL    HW231177   3.174   0.882   7.669  0.6114  2.0939 -0.3194
 9216SOL     OW31178   4.481   5.183   9.260 -0.2339 -0.6833  0.3759
 9216SOL    HW131179   4.452   5.255   9.316  0.5048 -1.6087  2.0141
 9216SOL    HW231180   4.416   5.180   9.190  0.0835  1.9869 -0.1345
 9217SOL     OW31181   0.558   4.282   5.700 -0.3118  0.1724  0.0716
 9217SOL    HW131182   0.515   4.362   5.670 -0.6709  1.0299  2.6579
 9217SOL    HW231183   0.487   4.229   5.737  0.1298 -0.7594 -0.3730
 9218SOL     OW31184   2.142   8.552   3.006 -0.3694  0.3090  0.2549
 9218SOL    HW131185   2.112   8.562   2.916  0.1615  1.0319  0.1565
 9218SOL    HW231186   2.148   8.457   3.019 -0.7917  0.1997 -0.3495
 9219SOL     OW31187   7.268   6.379   3.240 -0.2423  0.8467 -0.2425
 9219SOL    HW131188   7.274   6.470   3.270  1.0315  1.1187 -1.2261
 9219SOL    HW231189   7.320   6.329   3.303 -1.2915  0.7110  0.5430
 9220SOL     OW31190   8.581   7.009   4.671 -0.0403 -0.0050  0.6435
 9220SOL    HW131191   8.557   7.091   4.629 -1.4875 -1.6872 -2.1854
 9220SOL    HW231192   8.672   6.994   4.644 -0.3504 -0.1331 -0.4110
 9221SOL     OW31193  10.549  10.078   1.835  0.6660 -0.0502  0.0940
 9221SOL    HW131194  10.554  10.000   1.889  1.6434 -0.2947 -0.3344
 9221SOL    HW231195  10.547  10.044   1.745 -0.9156  0.3450 -0.0541
 9222SOL     OW31196   0.430   3.528   0.258  0.2831  0.2060  0.8135
 9222SOL    HW131197   0.434   3.490   0.170 -0.2060  0.6907  0.5761
 9222SOL    HW231198   0.455   3.620   0.245  0.9218  0.1086  1.2977
 9223SOL     OW31199   8.113   7.871   9.638  0.1913 -0.3731 -0.0257
 9223SOL    HW131200   8.134   7.787   9.680 -0.0947 -1.4328 -1.9267
 9223SOL    HW231201   8.193   7.922   9.646  0.6126 -1.0913  0.4850
 9224SOL     OW31202   7.948   7.091   4.389  0.1771  0.3834 -0.0415
 9224SOL    HW131203   7.859   7.117   4.411 -1.1458 -2.2906 -1.6173
 9224SOL    HW231204   7.966   7.016   4.446  0.4528 -0.5573 -1.3230
 9225SOL     OW31205   2.997   8.210   5.204  0.5604  0.4827  0.2099
 9225SOL    HW131206   2.965   8.197   5.293 -0.1304  0.8307  0.0158
 9225SOL    HW231207   3.036   8.298   5.206 -1.9556  1.7182 -0.5102
 9226SOL     OW31208   8.661   7.491   4.839  0.0039  0.1049  0.0567
 9226SOL    HW131209   8.586   7.433   4.828 -0.6694  0.6559  1.4198
 9226SOL    HW231210   8.733   7.447   4.794 -0.7729 -1.1753  0.0230
 9227SOL     OW31211   8.031   6.908   2.127 -0.1605  0.6872 -0.3611
 9227SOL    HW131212   8.028   6.828   2.075  2.2479 -0.0014  0.4037
 9227SOL    HW231213   8.071   6.973   2.068  1.2511  0.2876  0.1022
 9228SOL     OW31214   1.672   3.361   9.946 -0.3882 -0.0672  0.2472
 9228SOL    HW131215   1.750   3.390   9.994 -0.8597  1.2649  0.2422
 9228SOL    HW231216   1.706   3.320   9.867  0.3382 -0.5496  0.7953
 9229SOL     OW31217   9.597   4.989   6.537  0.2657  0.3459 -0.5088
 9229SOL    HW131218   9.635   4.914   6.583  2.3541 -0.0213 -2.6000
 9229SOL    HW231219   9.503   4.981   6.551  0.6494 -1.0198  1.6744
 9230SOL     OW31220   5.585  10.638  10.461  0.3426 -0.5715  0.1775
 9230SOL    HW131221   5.596  10.733  10.458 -0.8838 -0.3472  1.5678
 9230SOL    HW231222   5.491  10.625  10.450  0.5551 -1.6697 -0.4466
 9231SOL     OW31223   9.211   3.281   6.257  0.2610 -0.0750  0.0630
 9231SOL    HW131224   9.272   3.228   6.206  0.9512  0.6241  0.1463
 9231SOL    HW231225   9.133   3.226   6.266  0.1947 -0.2993 -1.5655
 9232SOL     OW31226   1.508   8.022   6.814 -0.5976 -0.2197 -0.2308
 9232SOL    HW131227   1.537   7.944   6.766 -2.3185 -0.0082 -1.7126
 9232SOL    HW231228   1.467   7.987   6.893  0.8831 -0.6467  0.3867
 9233SOL     OW31229   5.901   9.489   2.648  0.4485 -0.3137 -0.4530
 9233SOL    HW131230   5.983   9.463   2.690 -0.4489  0.1177  1.7129
 9233SOL    HW231231   5.891   9.429   2.575  0.8838 -2.9053  1.4653
 9234SOL     OW31232   4.297   5.496   8.969 -0.2505 -0.2420 -0.1300
 9234SOL    HW131233   4.387   5.482   8.939 -0.0740  1.2972 -0.3909
 9234SOL    HW231234   4.260   5.560   8.908 -1.2228 -0.1484  0.5289
 9235SOL     OW31235   4.138   3.922   3.568  0.1261  0.3544 -0.1409
 9235SOL    HW131236   4.177   3.984   3.507  0.3796  0.5718  0.2316
 9235SOL    HW231237   4.074   3.974   3.617  0.7526  0.4701  0.5697
 9236SOL     OW31238   7.042   8.885   0.731  0.0188 -0.2199  0.2434
 9236SOL    HW131239   7.026   8.975   0.757  1.2799 -0.1392  0.8256
 9236SOL    HW231240   7.138   8.878   0.725 -0.0484 -1.5475  0.3147
 9237SOL     OW31241   0.658   4.879  10.161 -0.4404 -0.2299  0.1339
 9237SOL    HW131242   0.731   4.818  10.149 -0.4844 -0.7658  2.2085
 9237SOL    HW231243   0.629   4.865  10.252 -0.5190  2.7564  0.6920
 9238SOL     OW31244  10.866  10.679   5.568 -0.0501 -0.0682  0.1586
 9238SOL    HW131245  10.780  10.711   5.540 -0.5636  0.2669  1.9919
 9238SOL    HW231246  10.846  10.615   5.636  1.1446  2.3098  2.9288
 9239SOL     OW31247   8.022   2.521   2.914  0.1529 -0.0272  0.1861
 9239SOL    HW131248   8.079   2.597   2.924 -1.7372  1.5746 -0.3701
 9239SOL    HW231249   8.077   2.454   2.874  2.3708  0.3862  2.3547
 9240SOL     OW31250   8.486   1.062   9.239  0.4096  0.3317 -0.0010
 9240SOL    HW131251   8.460   1.153   9.252  0.9929  0.2951  1.7260
 9240SOL    HW231252   8.413   1.022   9.193 -0.5249  1.3249  0.5715
 9241SOL     OW31253   2.694   6.894   7.232  0.1785 -0.7477  0.1494
 9241SOL    HW131254   2.689   6.820   7.172 -1.5566 -0.2922 -0.3208
 9241SOL    HW231255   2.719   6.968   7.177  1.5099 -0.8780  0.5471
 9242SOL     OW31256   2.604   7.369   5.109 -0.0222 -0.3813 -0.0760
 9242SOL    HW131257   2.616   7.414   5.025 -1.2049 -1.1265 -0.6772
 9242SOL    HW231258   2.564   7.434   5.166  1.6387  0.4221  0.2438
 9243SOL     OW31259   2.547   1.764   2.557 -0.1513  0.1439 -0.3786
 9243SOL    HW131260   2.496   1.707   2.499  1.2687 -0.7601 -0.8053
 9243SOL    HW231261   2.516   1.852   2.538 -1.5050 -0.3677 -0.6384
 9244SOL     OW31262   9.980   6.886   3.192 -0.8946  0.5551 -0.3195
 9244SOL    HW131263   9.907   6.923   3.241 -0.9843 -0.3040  0.1966
 9244SOL    HW231264   9.948   6.881   3.102 -1.4333  0.2981 -0.1194
 9245SOL     OW31265   7.794   2.661   2.836  0.7819  0.1596 -0.2811
 9245SOL    HW131266   7.846   2.714   2.776  1.5710  2.1202  1.9632
 9245SOL    HW231267   7.858   2.622   2.895  0.0267 -1.6098 -0.5650
 9246SOL     OW31268   2.442   7.222   3.583  0.2631  0.4740  0.2124
 9246SOL    HW131269   2.358   7.266   3.573 -0.7194 -1.1232  0.9422
 9246SOL    HW231270   2.484   7.229   3.497 -0.4016  1.6872 -0.0265
 9247SOL     OW31271   0.920  10.616   4.755  0.0878 -0.3953  0.1533
 9247SOL    HW131272   0.853  10.557   4.722 -0.9110  0.3632  0.7595
 9247SOL    HW231273   0.883  10.651   4.836  1.1830  0.1117  0.4533
 9248SOL     OW31274   5.133   0.825   9.512 -0.0257  0.4732  0.1133
 9248SOL    HW131275   5.047   0.866   9.518  0.6066  1.8589  0.2430
 9248SOL    HW231276   5.143   0.801   9.420 -0.1534  1.2452 -0.1072
 9249SOL     OW31277   0.247   0.195   8.021 -0.0051 -0.1250 -0.6934
 9249SOL    HW131278   0.227   0.182   8.114 -0.9474 -0.9525 -0.9961
 9249SOL    HW231279   0.207   0.279   7.999  2.0582  1.1530  0.1381
 9250SOL     OW31280   0.930   8.170   7.189 -0.1035 -0.2248 -0.7760
 9250SOL    HW131281   0.886   8.254   7.201 -0.2229 -0.5539  1.4793
 9250SOL    HW231282   0.862   8.111   7.157 -1.1093 -0.4456  1.5886
 9251SOL     OW31283   5.137   3.823   7.619  0.6771  0.7329  0.2286
 9251SOL    HW131284   5.146   3.773   7.700  0.6837 -0.7043 -0.6073
 9251SOL    HW231285   5.068   3.887   7.637 -0.1576 -0.3443  1.0219
 9252SOL     OW31286   1.654   2.803   6.826  0.5653 -0.4583 -0.2699
 9252SOL    HW131287   1.613   2.777   6.743  0.4336  1.3580 -0.8258
 9252SOL    HW231288   1.702   2.726   6.855 -0.5768 -1.5982 -1.2895
 9253SOL     OW31289   5.381  10.536  11.124 -0.1654  0.3671 -0.5341
 9253SOL    HW131290   5.335  10.461  11.162 -0.4524 -0.7954 -2.9852
 9253SOL    HW231291   5.353  10.611  11.177  0.2940 -1.2137  2.1409
 9254SOL     OW31292   0.142   8.832   0.872  0.0060  0.1028 -0.1844
 9254SOL    HW131293   0.186   8.881   0.941 -0.4028 -0.3979  0.4463
 9254SOL    HW231294   0.176   8.743   0.880 -0.0534  0.0381 -0.6221
 9255SOL     OW31295   3.235  10.985   1.953  0.0234 -0.0587  0.6590
 9255SOL    HW131296   3.156  11.031   1.979 -1.0588 -0.2906 -1.9162
 9255SOL    HW231297   3.302  11.053   1.948 -0.4208  0.4315  1.2494
 9256SOL     OW31298   4.106   5.034   4.469  0.1812 -0.1828 -0.2741
 9256SOL    HW131299   4.191   5.001   4.498 -0.2108 -0.4116  0.6493
 9256SOL    HW231300   4.045   5.003   4.535 -0.7780 -0.8721 -1.4566
 9257SOL     OW31301   2.765   6.007   5.804  0.0525  0.7064  0.4363
 9257SOL    HW131302   2.736   5.939   5.865  2.4857 -1.5747 -0.7466
 9257SOL    HW231303   2.824   6.061   5.856  0.5466 -0.0109  0.6414
 9258SOL     OW31304   1.605   8.490   0.353 -0.0182  0.0610 -0.1852
 9258SOL    HW131305   1.588   8.544   0.431  0.6606 -0.7177  0.5188
 9258SOL    HW231306   1.626   8.553   0.285 -1.0795  0.7891  0.1321
 9259SOL     OW31307   0.329   9.758   7.880  0.2338 -0.0398 -0.4189
 9259SOL    HW131308   0.374   9.813   7.816 -0.0912  0.1648 -0.4767
 9259SOL    HW231309   0.244   9.741   7.840 -0.0222  0.1974  0.0174
 9260SOL     OW31310   7.482   1.528  10.185  0.2551 -0.1601  0.1653
 9260SOL    HW131311   7.419   1.461  10.213  1.2276 -0.8179  0.8516
 9260SOL    HW231312   7.534   1.486  10.118  0.6853  0.0080  0.3915
 9261SOL     OW31313   7.095  10.693   7.803  0.0095 -0.8022 -0.3693
 9261SOL    HW131314   7.077  10.775   7.756  1.3181  0.1955  0.8153
 9261SOL    HW231315   7.016  10.640   7.788 -1.5849  1.2734  0.1636
 9262SOL     OW31316   8.851   9.190   9.510 -0.9758  0.1172 -0.0311
 9262SOL    HW131317   8.815   9.102   9.524 -1.9228  0.3680 -0.7935
 9262SOL    HW231318   8.899   9.183   9.427  2.9768 -0.8575  2.0578
 9263SOL     OW31319   3.395   7.378   9.255  0.0958  0.0480 -0.0646
 9263SOL    HW131320   3.341   7.457   9.256 -0.1940 -0.1571  1.1939
 9263SOL    HW231321   3.431   7.375   9.166 -0.3995  1.2434 -0.3203
 9264SOL     OW31322   6.863   2.778   1.068  0.5791  0.3379 -0.0285
 9264SOL    HW131323   6.843   2.871   1.061  2.6552  0.7670 -1.1055
 9264SOL    HW231324   6.811   2.737   0.999  0.4763  0.8785 -0.2780
 9265SOL     OW31325   3.879   8.112   1.903 -0.0372  0.1947  0.6532
 9265SOL    HW131326   3.959   8.060   1.898  0.0689  0.4411 -0.4157
 9265SOL    HW231327   3.859   8.116   1.997  0.9136 -0.2962  0.8895
 9266SOL     OW31328   0.679   3.063   7.172 -0.3492 -0.3377 -0.0128
 9266SOL    HW131329   0.639   3.114   7.102 -0.8674  0.1580  0.6279
 9266SOL    HW231330   0.641   3.099   7.252  0.3322 -0.8039  0.5313
 9267SOL     OW31331   2.944  10.119   4.250  0.3755  0.0558  0.3949
 9267SOL    HW131332   2.952  10.079   4.336  0.2920  0.9543  0.8394
 9267SOL    HW231333   2.951  10.213   4.267 -3.5080  0.5660 -0.0627
 9268SOL     OW31334   7.544   8.665  10.518 -0.1363  0.1682 -0.1192
 9268SOL    HW131335   7.622   8.638  10.567 -0.9014  1.6407  2.0509
 9268SOL    HW231336   7.540   8.604  10.444  1.2293 -2.0422  1.5099
 9269SOL     OW31337   9.500   7.076   3.627  0.0421 -0.0007 -0.0490
 9269SOL    HW131338   9.424   7.106   3.579  1.3039  2.3038 -0.7384
 9269SOL    HW231339   9.464   7.028   3.702 -2.0154 -0.1634 -1.0858
 9270SOL     OW31340   7.623   0.747   2.974  0.0447  0.1859 -0.6605
 9270SOL    HW131341   7.676   0.762   3.053  1.5191 -1.5018 -1.2608
 9270SOL    HW231342   7.581   0.831   2.958  0.5039  0.8708  1.3333
 9271SOL     OW31343   7.767   5.090   2.854 -0.1836  0.3218  0.3408
 9271SOL    HW131344   7.744   5.181   2.874 -2.1849 -0.0138 -0.1959
 9271SOL    HW231345   7.785   5.089   2.760 -1.0622  0.0251  0.1645
 9272SOL     OW31346   7.851   0.876   4.056  0.1812 -0.3964  0.8352
 9272SOL    HW131347   7.904   0.843   4.129  1.4637  0.0719  0.1468
 9272SOL    HW231348   7.789   0.937   4.096  1.6051  0.7112  1.4116
 9273SOL     OW31349   0.883  10.302   3.871  0.4802 -0.1375  0.4340
 9273SOL    HW131350   0.858  10.293   3.779  0.3676 -0.2864  0.4797
 9273SOL    HW231351   0.978  10.316   3.869  0.2792  1.4327  0.1951
 9274SOL     OW31352   6.738   5.447   0.445  0.1341  0.3961 -0.2493
 9274SOL    HW131353   6.831   5.440   0.467  0.0935 -1.2432 -0.4390
 9274SOL    HW231354   6.733   5.521   0.384  1.4231  0.0865 -0.7626
 9275SOL     OW31355   5.952   6.659   7.134 -0.2750  0.2997  0.0107
 9275SOL    HW131356   5.891   6.693   7.201 -0.4044 -1.0047  0.5891
 9275SOL    HW231357   5.900   6.657   7.054 -0.7836 -0.1179  0.3432
 9276SOL     OW31358   9.542   1.192   9.046  0.3448 -0.1977  0.6148
 9276SOL    HW131359   9.556   1.286   9.032  1.2335 -0.6483 -2.0187
 9276SOL    HW231360   9.555   1.180   9.140  0.5405  2.2520  0.9714
 9277SOL     OW31361   7.519   2.903   4.632 -0.4209  0.0067 -0.8135
 9277SOL    HW131362   7.459   2.828   4.638  0.5085 -0.7119 -0.3589
 9277SOL    HW231363   7.464   2.979   4.655 -0.8815 -0.7737  0.8098
 9278SOL     OW31364   8.573  10.600   4.764  0.0249 -0.6253  0.5241
 9278SOL    HW131365   8.486  10.632   4.791 -0.0962 -1.4752  1.2024
 9278SOL    HW231366   8.608  10.559   4.843  0.1175 -2.2418 -0.3130
 9279SOL     OW31367  10.858   7.109   2.451  0.2372 -0.1573  0.2207
 9279SOL    HW131368  10.884   7.028   2.406 -1.2100  0.2761 -1.5088
 9279SOL    HW231369  10.872   7.178   2.386 -2.4049  0.4366  0.1786
 9280SOL     OW31370   8.303   3.525   8.509  0.0453  0.2162  0.3018
 9280SOL    HW131371   8.343   3.518   8.596  0.4431 -1.8937 -0.0133
 9280SOL    HW231372   8.377   3.517   8.448 -0.0243  3.0551 -0.3063
 9281SOL     OW31373   1.965   2.760  10.954  0.4932 -0.0929 -0.1202
 9281SOL    HW131374   1.884   2.789  10.913  0.1404 -0.7270  0.1144
 9281SOL    HW231375   1.937   2.713  11.032  1.0695 -0.7105 -0.2774
 9282SOL     OW31376   3.757  10.245   8.075 -0.0092 -0.2897  0.2109
 9282SOL    HW131377   3.809  10.257   8.155 -0.6012  0.1519  0.5324
 9282SOL    HW231378   3.666  10.246   8.105 -0.2714  0.7004 -0.5671
 9283SOL     OW31379   7.202   8.594   1.156  0.2428 -0.1866  0.6622
 9283SOL    HW131380   7.142   8.579   1.228 -0.2596  0.9316  0.4963
 9283SOL    HW231381   7.286   8.612   1.199 -0.3059  1.7107  1.0806
 9284SOL     OW31382   7.434   8.880   5.018  0.4975  0.1440 -0.6915
 9284SOL    HW131383   7.353   8.931   5.016  0.1709 -0.1450  1.8514
 9284SOL    HW231384   7.492   8.930   5.075  1.8022 -0.1447 -1.7268
 9285SOL     OW31385   1.713   4.114   1.635 -0.2753  0.3328 -0.3753
 9285SOL    HW131386   1.641   4.112   1.572  0.0320  1.8777 -0.8104
 9285SOL    HW231387   1.672   4.132   1.719 -0.6094 -1.0116 -0.2279
 9286SOL     OW31388   6.416   4.009  10.877 -0.5561  0.1570  0.0629
 9286SOL    HW131389   6.501   3.968  10.892 -0.4512  0.2550 -0.2476
 9286SOL    HW231390   6.435   4.084  10.821 -0.8879 -0.0047 -0.2746
 9287SOL     OW31391   7.908   0.458   7.967 -0.0760 -0.4051 -0.3016
 9287SOL    HW131392   7.993   0.434   8.005 -0.2706  0.7060  0.8968
 9287SOL    HW231393   7.844   0.405   8.015 -0.3585  1.2746  1.2873
 9288SOL     OW31394   9.795   1.243   3.777 -0.4725  0.1724 -0.3558
 9288SOL    HW131395   9.870   1.296   3.803 -0.1175 -1.5873  2.6482
 9288SOL    HW231396   9.734   1.250   3.850 -2.4252 -0.0009 -1.8826
 9289SOL     OW31397   1.999   0.482   5.447  0.1443  0.4984  0.0167
 9289SOL    HW131398   1.997   0.436   5.363  0.3421 -0.5482  0.5737
 9289SOL    HW231399   1.908   0.503   5.465  0.1985  1.6446 -0.9391
 9290SOL     OW31400  10.178   1.425   4.624  0.1161  0.2221 -0.4059
 9290SOL    HW131401  10.130   1.446   4.704  0.2388  2.2601 -0.8018
 9290SOL    HW231402  10.143   1.340   4.596 -0.6269 -0.0616  1.2511
 9291SOL     OW31403  11.040   1.387   0.811  0.4010 -0.0568 -0.1631
 9291SOL    HW131404  11.012   1.384   0.720 -0.5550  0.3616  0.1040
 9291SOL    HW231405  11.026   1.478   0.837  0.0915 -0.3064  0.5700
 9292SOL     OW31406  10.009   6.258   7.003 -0.3758  0.0468 -0.1615
 9292SOL    HW131407   9.914   6.253   7.008 -0.4136  1.2198  0.5801
 9292SOL    HW231408  10.029   6.252   6.910 -1.2016  0.3108 -0.3581
 9293SOL     OW31409   5.912   2.561   9.286  0.0867 -0.1048  0.1801
 9293SOL    HW131410   5.867   2.583   9.367 -1.2801  0.9558 -0.8251
 9293SOL    HW231411   6.000   2.598   9.296 -0.2763  0.5738  0.9074
 9294SOL     OW31412   2.013   3.657  10.733  0.1413 -0.2427 -0.2874
 9294SOL    HW131413   1.955   3.643  10.657 -0.3981  0.8596 -0.0941
 9294SOL    HW231414   2.049   3.570  10.751 -2.2998 -1.2429  0.2523
 9295SOL     OW31415   8.257   0.921   8.000 -0.5466 -0.1782  0.1382
 9295SOL    HW131416   8.165   0.921   8.028 -0.4966  1.9560  0.4050
 9295SOL    HW231417   8.307   0.906   8.080 -0.6144 -1.1626  0.0192
 9296SOL     OW31418   1.522   6.214   2.670 -0.1165  0.2646  0.4113
 9296SOL    HW131419   1.534   6.152   2.598 -1.0176  0.5327  0.0214
 9296SOL    HW231420   1.548   6.299   2.634 -1.8668  0.6478 -0.0750
 9297SOL     OW31421   6.282   8.038   2.161 -0.0426 -0.7118  0.1580
 9297SOL    HW131422   6.361   8.005   2.120  2.3967  2.5410  1.8117
 9297SOL    HW231423   6.309   8.063   2.249 -3.0148  0.1706  0.9386
 9298SOL     OW31424   0.067   9.655  10.476 -0.0018  0.7168 -0.6717
 9298SOL    HW131425   0.073   9.743  10.437  0.9344  0.4841 -1.0701
 9298SOL    HW231426  -0.026   9.645  10.497 -0.1997  1.6164 -1.0659
 9299SOL     OW31427   9.478   4.819   5.423 -0.4035  0.3408  0.0995
 9299SOL    HW131428   9.572   4.804   5.426 -0.4999 -0.4611 -0.7541
 9299SOL    HW231429   9.449   4.778   5.342 -2.0234 -2.5068  1.9709
 9300SOL     OW31430   4.718   1.132   6.299  0.6444 -0.2487  0.0935
 9300SOL    HW131431   4.722   1.089   6.385 -1.0083 -0.1573  0.2538
 9300SOL    HW231432   4.637   1.099   6.260  1.7891 -0.9484 -1.8284
 9301SOL     OW31433   1.912  10.385   4.090  0.6943 -0.3886  0.4176
 9301SOL    HW131434   1.878  10.465   4.050  0.3513 -1.1501 -0.8768
 9301SOL    HW231435   2.003  10.380   4.061  1.1144  0.2022  1.5876
 9302SOL     OW31436   9.081   0.745   2.015 -0.6330 -0.4040  0.4614
 9302SOL    HW131437   9.138   0.712   2.084 -0.3729 -1.1530 -0.0992
 9302SOL    HW231438   9.012   0.792   2.061  0.7745  1.0997  1.1446
 9303SOL     OW31439   4.156   1.324   2.271 -0.4168  0.5041 -0.0199
 9303SOL    HW131440   4.179   1.364   2.354 -1.1295 -0.9508  0.9160
 9303SOL    HW231441   4.144   1.231   2.291 -0.5486  0.1019 -1.7562
 9304SOL     OW31442   2.119   0.333   2.158 -0.2191 -0.5151  0.1864
 9304SOL    HW131443   2.180   0.352   2.086 -1.9995 -0.1121 -1.3008
 9304SOL    HW231444   2.163   0.366   2.236  0.3553  2.2976 -1.1831
 9305SOL     OW31445   5.079   8.191  10.137  0.0897 -0.5572  0.2396
 9305SOL    HW131446   5.039   8.113  10.175 -1.8787 -0.6683 -1.8693
 9305SOL    HW231447   5.057   8.261  10.199 -2.2400 -0.8871 -0.1201
 9306SOL     OW31448   5.122   2.875   7.175 -0.1987 -0.3987 -0.3512
 9306SOL    HW131449   5.108   2.937   7.247 -0.1206 -0.1517 -0.5451
 9306SOL    HW231450   5.201   2.827   7.200  0.0939  0.0051 -0.4896
 9307SOL     OW31451   7.202   4.591   4.913 -0.4609  0.2660  0.4855
 9307SOL    HW131452   7.258   4.664   4.888  0.6861 -0.6916  0.1543
 9307SOL    HW231453   7.258   4.514   4.903 -1.2314 -0.5386  2.0563
 9308SOL     OW31454   8.499   2.808   7.664 -0.6097  0.3113 -0.2324
 9308SOL    HW131455   8.421   2.754   7.652 -2.0310  2.0723  0.5837
 9308SOL    HW231456   8.556   2.756   7.721 -0.1444 -1.9365 -2.5615
 9309SOL     OW31457   4.631   0.372   4.418  0.3340  0.7333  0.0655
 9309SOL    HW131458   4.556   0.405   4.468  0.3970 -0.7288  1.1849
 9309SOL    HW231459   4.601   0.290   4.380  1.0089  0.7194 -0.4632
 9310SOL     OW31460  10.093  11.081  10.774 -0.3255  0.3981 -0.4690
 9310SOL    HW131461  10.128  11.016  10.714 -0.0830  0.5962 -0.5425
 9310SOL    HW231462  10.160  11.150  10.777 -1.3816  1.5811 -1.8998
 9311SOL     OW31463   7.408   6.318   5.240  0.4307  0.1392 -0.3989
 9311SOL    HW131464   7.431   6.242   5.294 -0.9781 -1.1740 -1.5461
 9311SOL    HW231465   7.460   6.389   5.276 -0.1238 -0.7363  2.4557
 9312SOL     OW31466   9.980   6.799   9.040 -0.4878 -0.0899 -0.1250
 9312SOL    HW131467   9.905   6.843   9.080 -1.7434 -1.5165 -0.7975
 9312SOL    HW231468   9.985   6.715   9.084  1.1261  0.2098  0.3207
 9313SOL     OW31469   5.040   7.379   0.856 -0.0078 -0.0122  0.5889
 9313SOL    HW131470   5.040   7.450   0.920  0.2944 -2.2862  3.3326
 9313SOL    HW231471   5.105   7.404   0.791  0.1312  2.1471  1.4878
 9314SOL     OW31472   0.654   0.693   5.995  0.0349  0.8450  0.0236
 9314SOL    HW131473   0.735   0.648   5.970 -0.7754 -2.3494  2.5244
 9314SOL    HW231474   0.684   0.767   6.049  1.3177  1.4296 -1.4204
 9315SOL     OW31475   8.672   6.230   6.743  0.0748  0.3086 -1.1573
 9315SOL    HW131476   8.706   6.299   6.800 -0.9875  0.5084 -0.7303
 9315SOL    HW231477   8.710   6.149   6.777 -0.8713  0.3718  0.1458
 9316SOL     OW31478   2.397   1.501   1.249  0.2198 -0.1286  0.0457
 9316SOL    HW131479   2.409   1.421   1.198  0.1471 -0.5694  0.7091
 9316SOL    HW231480   2.448   1.567   1.203  0.6965 -0.6779 -0.2197
 9317SOL     OW31481   3.088   1.215   0.791  0.1636 -0.1832 -0.1844
 9317SOL    HW131482   3.157   1.168   0.744 -0.0435  0.6176 -1.3214
 9317SOL    HW231483   3.110   1.202   0.884  1.6307 -0.2823 -0.5098
 9318SOL     OW31484   9.093   4.464  10.231  0.9645  0.1930 -0.2475
 9318SOL    HW131485   9.116   4.377  10.198 -0.8844 -0.8221  0.9931
 9318SOL    HW231486   9.086   4.453  10.326 -0.7242  1.2989 -0.1988
 9319SOL     OW31487   0.127   5.651  10.959  0.4879  0.2079 -0.2228
 9319SOL    HW131488   0.077   5.731  10.940  1.3117  1.0452  0.8987
 9319SOL    HW231489   0.141   5.610  10.874 -0.9093  0.6665 -0.7067
 9320SOL     OW31490   4.452   5.124   3.433 -0.3152 -0.7487 -0.3590
 9320SOL    HW131491   4.540   5.134   3.398  0.8052 -2.5032  1.7339
 9320SOL    HW231492   4.404   5.200   3.400  2.4988  1.3242  0.0510
 9321SOL     OW31493   8.697   3.511   2.093 -0.2724 -0.0564  0.4132
 9321SOL    HW131494   8.699   3.589   2.039  3.5779  2.1402  3.1872
 9321SOL    HW231495   8.765   3.454   2.055  0.2590  0.1223  1.0702
 9322SOL     OW31496   0.430  10.172   2.408 -0.0830 -0.2284 -0.4003
 9322SOL    HW131497   0.448  10.264   2.427 -1.4732  0.0007 -0.1027
 9322SOL    HW231498   0.504  10.125   2.448 -0.3412  0.6162  1.1612
 9323SOL     OW31499   5.083   2.970   6.655 -0.0335 -0.3118 -0.4394
 9323SOL    HW131500   5.171   2.966   6.617  0.5756 -2.1279  1.0127
 9323SOL    HW231501   5.084   3.049   6.710 -0.0219  0.7934 -1.9731
 9324SOL     OW31502   0.001  10.687   1.582  0.5724 -0.0906  0.2899
 9324SOL    HW131503  -0.063  10.633   1.536  0.6698 -0.6720  0.8241
 9324SOL    HW231504  -0.018  10.672   1.675  0.9682  0.3540  0.4455
 9325SOL     OW31505   0.841   6.511   5.451  0.5738  0.3098  0.2670
 9325SOL    HW131506   0.745   6.507   5.451  0.5049  0.4905 -1.9330
 9325SOL    HW231507   0.866   6.488   5.361  2.6728 -0.8285  1.0763
 9326SOL     OW31508   0.487   4.842  10.898  0.0972  0.2148  0.0863
 9326SOL    HW131509   0.558   4.902  10.877  0.0277  0.1322 -0.4026
 9326SOL    HW231510   0.426   4.893  10.950  0.1882  0.4790 -0.0672
 9327SOL     OW31511   4.198   0.334   6.322  0.3166  0.1088 -0.1405
 9327SOL    HW131512   4.250   0.373   6.393  1.6163 -0.8134 -0.5358
 9327SOL    HW231513   4.149   0.407   6.286  1.7222  1.1492 -0.0443
 9328SOL     OW31514   8.932   4.469   9.331  0.0351 -0.6324  0.3592
 9328SOL    HW131515   8.908   4.421   9.411  0.1142 -1.4239 -0.0751
 9328SOL    HW231516   9.026   4.452   9.322 -0.0109 -0.6970  0.0032
 9329SOL     OW31517   0.868   7.513  10.199 -0.1548 -0.7114 -0.7260
 9329SOL    HW131518   0.940   7.544  10.143 -0.2430 -1.1039 -1.0618
 9329SOL    HW231519   0.893   7.541  10.287 -0.0903  0.0547 -0.9752
 9330SOL     OW31520   6.062   4.386  10.540 -0.4791 -0.4785  0.5309
 9330SOL    HW131521   6.156   4.379  10.522 -0.9035 -1.2933 -1.6080
 9330SOL    HW231522   6.050   4.340  10.623  1.2519  1.3316  1.9057
 9331SOL     OW31523   2.176   4.661   0.824  0.0706 -0.2590 -0.4038
 9331SOL    HW131524   2.120   4.730   0.789  1.8159  0.8062 -1.2395
 9331SOL    HW231525   2.125   4.623   0.895 -0.8598  2.0747  0.2783
 9332SOL     OW31526   3.837   6.822   9.707  0.2905 -0.5828 -0.4177
 9332SOL    HW131527   3.896   6.835   9.632 -1.4789  2.2034 -1.4809
 9332SOL    HW231528   3.868   6.742   9.748  2.5775 -1.1555 -2.9753
 9333SOL     OW31529   2.461  10.893   8.552 -0.1564  0.0545  0.0968
 9333SOL    HW131530   2.445  10.985   8.533 -2.3625 -0.2189  0.3559
 9333SOL    HW231531   2.510  10.861   8.477 -1.5440  0.9020 -1.2276
 9334SOL     OW31532   1.267   3.264   7.637  0.0698  0.0740  0.0389
 9334SOL    HW131533   1.218   3.273   7.555 -1.2726 -0.2893  0.7693
 9334SOL    HW231534   1.358   3.282   7.613 -0.1998 -0.6463 -1.6570
 9335SOL     OW31535   6.299   0.167   9.274  0.2539 -0.2657 -0.7825
 9335SOL    HW131536   6.208   0.192   9.258  0.7576  1.3936 -1.3276
 9335SOL    HW231537   6.300   0.137   9.364 -0.8049 -0.1437 -0.7149
 9336SOL     OW31538   6.610   8.143   6.874 -0.5099 -0.5206  0.4365
 9336SOL    HW131539   6.686   8.173   6.923 -0.9577 -0.7952  1.3241
 9336SOL    HW231540   6.601   8.206   6.802  0.3749 -0.3252  0.4937
 9337SOL     OW31541   9.925   9.957   6.723 -0.1673  0.2003 -0.0801
 9337SOL    HW131542   9.874  10.038   6.729 -1.5392 -0.4329 -2.1641
 9337SOL    HW231543   9.894   9.915   6.643  1.3442 -1.8402  0.3295
 9338SOL     OW31544   4.857   2.859   8.429 -0.2207 -0.2301 -0.0071
 9338SOL    HW131545   4.942   2.816   8.428  0.8676  1.7919 -0.5851
 9338SOL    HW231546   4.796   2.792   8.398  1.0839 -1.7987  0.6383
 9339SOL     OW31547   8.657   4.806   9.498 -0.0687  0.2128 -0.1835
 9339SOL    HW131548   8.618   4.823   9.412 -0.7091 -2.9260 -0.6281
 9339SOL    HW231549   8.609   4.863   9.558  1.5813  3.8399 -2.0025
 9340SOL     OW31550   6.529  10.170   8.345 -0.0644 -0.1188  0.1756
 9340SOL    HW131551   6.567  10.090   8.383  1.7569  0.3982 -0.4396
 9340SOL    HW231552   6.530  10.233   8.416  0.0227 -0.1792  0.2286
 9341SOL     OW31553   3.096   4.161  10.203 -0.2620  0.6421 -0.2337
 9341SOL    HW131554   3.076   4.081  10.252  2.4929 -0.7708 -1.1920
 9341SOL    HW231555   3.014   4.210  10.203 -1.2204 -0.6218  3.1972
 9342SOL     OW31556   0.921   8.939   3.798 -0.3354  0.3891  0.1374
 9342SOL    HW131557   0.929   8.930   3.703  0.0425 -1.1944  0.3026
 9342SOL    HW231558   0.999   8.897   3.834 -0.7935  0.3775  1.1698
 9343SOL     OW31559   4.531   8.262   3.900 -0.1612  0.6690 -0.3077
 9343SOL    HW131560   4.441   8.252   3.868 -0.6315  0.8784  0.8799
 9343SOL    HW231561   4.547   8.183   3.952  0.7083  0.1670 -1.3152
 9344SOL     OW31562   3.256   3.540   4.531  0.0574 -0.2686 -0.3069
 9344SOL    HW131563   3.275   3.448   4.513  0.0054  0.0021 -1.8868
 9344SOL    HW231564   3.227   3.541   4.622  0.3775 -1.7619 -0.1590
 9345SOL     OW31565   5.970   7.419   0.391  0.2830 -0.2881 -0.1870
 9345SOL    HW131566   6.020   7.500   0.384 -0.9235  0.3392 -2.7820
 9345SOL    HW231567   5.898   7.440   0.450 -0.9521  1.1307 -2.0991
 9346SOL     OW31568   4.583  10.188   3.158  0.8190  0.7694 -0.5300
 9346SOL    HW131569   4.563  10.231   3.241 -0.6979  0.0099 -0.4619
 9346SOL    HW231570   4.645  10.118   3.182 -1.6112 -1.1720  0.4915
 9347SOL     OW31571   5.246   9.098   8.392  0.0901 -0.4195  0.3870
 9347SOL    HW131572   5.162   9.054   8.406 -1.1413  1.6998  0.0566
 9347SOL    HW231573   5.241   9.131   8.303  1.1748 -0.0511  0.4527
 9348SOL     OW31574   9.026   3.291  10.785  0.7458  0.5951  0.1321
 9348SOL    HW131575   9.089   3.353  10.821  0.5439  1.9387 -1.6996
 9348SOL    HW231576   9.074   3.247  10.714 -0.2972  1.6214 -1.2681
 9349SOL     OW31577   0.522   4.036   3.343  0.2680 -0.7925 -0.5248
 9349SOL    HW131578   0.442   4.069   3.385  0.5451 -1.0055  0.1840
 9349SOL    HW231579   0.494   4.009   3.256 -0.4517 -0.9452 -0.2537
 9350SOL     OW31580   1.377   5.525   1.401 -0.5641 -0.0994  0.4762
 9350SOL    HW131581   1.381   5.534   1.305 -0.5219  1.1921  0.5744
 9350SOL    HW231582   1.320   5.597   1.428 -0.8429 -0.6654  1.4007
 9351SOL     OW31583   1.677   5.936   3.515  0.2462 -0.0340  0.3046
 9351SOL    HW131584   1.671   5.988   3.435  2.7503  0.5948  0.4319
 9351SOL    HW231585   1.589   5.900   3.527 -1.2832  3.1252 -0.4704
 9352SOL     OW31586   2.438   0.883   5.730  0.4137  0.1227 -0.3625
 9352SOL    HW131587   2.409   0.840   5.649  0.3648 -1.5145  0.4862
 9352SOL    HW231588   2.506   0.825   5.765  0.4457  0.8162  0.7696
 9353SOL     OW31589   3.180   8.934   6.147  0.2083 -0.5257  0.3097
 9353SOL    HW131590   3.093   8.974   6.138  0.3790  0.2378  1.6645
 9353SOL    HW231591   3.162   8.842   6.168 -0.2322 -0.6882 -0.7279
 9354SOL     OW31592   4.073   1.192  10.800  0.1375 -0.2992 -0.3482
 9354SOL    HW131593   4.150   1.185  10.857  0.4893  1.4638 -0.5794
 9354SOL    HW231594   4.107   1.179  10.712 -0.1176 -1.1441 -0.3376
 9355SOL     OW31595   1.398   6.675   5.603  0.1253  0.2930 -0.0095
 9355SOL    HW131596   1.404   6.768   5.624 -1.6531  0.2597  0.8765
 9355SOL    HW231597   1.457   6.633   5.666 -1.6102  0.6041  1.9644
 9356SOL     OW31598   8.763   4.244   5.984  0.4294  0.0498 -0.5634
 9356SOL    HW131599   8.731   4.199   5.906 -0.5435  0.4941 -0.4331
 9356SOL    HW231600   8.843   4.197   6.007 -0.0436 -0.9965 -0.9859
 9357SOL     OW31601  10.384   5.260   7.840 -0.1241  0.0649  0.2684
 9357SOL    HW131602  10.387   5.324   7.769  0.0117 -0.2786 -0.0360
 9357SOL    HW231603  10.375   5.313   7.920  1.1810  0.5380  0.1280
 9358SOL     OW31604   8.153   9.826   7.766  0.1018  0.1804  0.4488
 9358SOL    HW131605   8.107   9.827   7.682  0.3452 -1.3453  0.2754
 9358SOL    HW231606   8.223   9.762   7.755  0.5919  0.4858  1.5894
 9359SOL     OW31607   0.929   8.319   5.410 -0.7656 -0.2462 -0.2994
 9359SOL    HW131608   0.866   8.286   5.347  0.1784 -0.7917 -0.9856
 9359SOL    HW231609   1.005   8.261   5.401  0.0548  0.7264  0.0921
 9360SOL     OW31610  10.776   0.565   6.699 -0.2952 -0.2261  0.2084
 9360SOL    HW131611  10.753   0.478   6.666  0.8332  0.1074 -1.6364
 9360SOL    HW231612  10.864   0.581   6.665 -1.1550  2.3677 -1.1557
 9361SOL     OW31613   9.084   7.689   4.147  0.2651  0.2682 -0.7268
 9361SOL    HW131614   9.071   7.783   4.164  2.1227  0.5096 -0.4280
 9361SOL    HW231615   9.139   7.659   4.219  1.8060 -0.4608 -2.1421
 9362SOL     OW31616   2.414   0.450   0.821 -0.3269  0.1831 -0.2358
 9362SOL    HW131617   2.429   0.530   0.872  1.5016  0.1108 -0.5930
 9362SOL    HW231618   2.412   0.480   0.730  2.6688 -0.3733 -0.5696
 9363SOL     OW31619   5.119   9.591   2.506 -0.2771  1.0823  0.1836
 9363SOL    HW131620   5.167   9.645   2.443  0.3622  0.6848  0.3192
 9363SOL    HW231621   5.074   9.526   2.452 -1.5381  2.0822 -0.0340
 9364SOL     OW31622   8.258   2.311   4.893  0.1342 -0.5878  0.0517
 9364SOL    HW131623   8.317   2.386   4.904 -2.0057  1.1828  0.3360
 9364SOL    HW231624   8.258   2.295   4.798  0.2765  0.1145 -0.0789
 9365SOL     OW31625   5.022   4.053   3.927  0.3339  0.0620 -0.0630
 9365SOL    HW131626   5.097   4.112   3.914  1.0537 -0.6528  0.7567
 9365SOL    HW231627   4.950   4.111   3.952  0.5260  0.7861 -1.1043
 9366SOL     OW31628   3.972   9.527   8.090  0.1745 -0.0162 -0.1527
 9366SOL    HW131629   3.878   9.519   8.074  0.2255  0.7503 -0.8653
 9366SOL    HW231630   3.999   9.437   8.111 -1.0285  0.0483  1.9543
 9367SOL     OW31631   8.660  10.057   2.904 -0.3244 -0.4783 -0.1127
 9367SOL    HW131632   8.584  10.001   2.888 -2.1723  1.3870  1.4793
 9367SOL    HW231633   8.624  10.145   2.913  1.8218  0.3123  2.1192
 9368SOL     OW31634   3.558  11.004   5.842  0.1871 -0.0857  0.0750
 9368SOL    HW131635   3.646  11.035   5.860  0.0290 -0.3931  1.5610
 9368SOL    HW231636   3.569  10.938   5.774  1.1175 -0.1562  0.2754
 9369SOL     OW31637   4.583   0.163  10.501 -0.3910  0.4199  0.6446
 9369SOL    HW131638   4.545   0.249  10.481  1.5653  1.3047  0.5065
 9369SOL    HW231639   4.633   0.177  10.581  1.2611 -0.1521 -0.2404
 9370SOL     OW31640   6.045   1.711   9.484 -0.1496  0.3300 -0.1848
 9370SOL    HW131641   5.956   1.696   9.453 -0.6586 -2.0720  2.0869
 9370SOL    HW231642   6.087   1.625   9.483  0.6745  0.5748  2.8318
 9371SOL     OW31643   4.329   3.683   2.806  0.0850 -0.0994 -0.0616
 9371SOL    HW131644   4.388   3.618   2.769  2.6949  1.1653  1.6122
 9371SOL    HW231645   4.298   3.733   2.730  1.6213 -0.4695 -0.9759
 9372SOL     OW31646   0.068   6.377   2.396 -0.1399 -0.5327  0.0992
 9372SOL    HW131647   0.028   6.461   2.374  0.5762  0.1028  1.1091
 9372SOL    HW231648   0.046   6.319   2.323 -1.2656  0.3229 -0.2612
 9373SOL     OW31649   2.828   2.579   2.131 -0.3469  0.3069 -0.7148
 9373SOL    HW131650   2.899   2.617   2.079  0.6955  0.0469  0.4765
 9373SOL    HW231651   2.867   2.501   2.172 -1.2735  0.2373  0.0666
 9374SOL     OW31652   3.567   8.579   4.690 -0.3878 -0.1450  0.4351
 9374SOL    HW131653   3.493   8.614   4.640  0.3585  0.6587 -0.1292
 9374SOL    HW231654   3.541   8.589   4.781 -0.4879  1.2295  0.2722
 9375SOL     OW31655   1.521   9.545  10.812 -0.2612  0.3691  0.3862
 9375SOL    HW131656   1.565   9.470  10.852  0.4747 -0.3908 -1.7026
 9375SOL    HW231657   1.473   9.586  10.884  0.1582 -1.4872  1.8021
 9376SOL     OW31658   4.092   9.354  10.549 -0.0272  0.0457 -0.0503
 9376SOL    HW131659   4.134   9.372  10.634  0.5566  2.2387 -0.7184
 9376SOL    HW231660   4.022   9.419  10.543 -1.9291 -1.8797 -0.1120
 9377SOL     OW31661  10.369   8.414   5.226  0.1773 -0.6118 -0.6225
 9377SOL    HW131662  10.357   8.319   5.232  1.3962 -0.7017  3.0985
 9377SOL    HW231663  10.451   8.425   5.177  1.2668 -1.6804  0.8689
 9378SOL     OW31664  10.439   7.449   1.688  0.2860  0.4180 -0.5213
 9378SOL    HW131665  10.504   7.424   1.623 -0.3784  0.6046 -1.2858
 9378SOL    HW231666  10.488   7.497   1.754  1.1837 -0.8621 -0.2308
 9379SOL     OW31667   1.115   3.638   4.459 -0.2126  0.3164 -0.1920
 9379SOL    HW131668   1.191   3.693   4.441 -0.5329  0.8217 -0.0044
 9379SOL    HW231669   1.116   3.625   4.554 -0.6188  0.7023 -0.1325
 9380SOL     OW31670   9.463   2.862   2.700  0.3725 -0.1639  0.3674
 9380SOL    HW131671   9.453   2.862   2.796 -1.0755  0.1744  0.2452
 9380SOL    HW231672   9.557   2.859   2.686  0.7527  1.9514  1.8449
 9381SOL     OW31673   5.776   5.913   6.044 -0.1652  0.2085 -0.2333
 9381SOL    HW131674   5.843   5.902   6.111 -0.2610 -0.7888 -0.2993
 9381SOL    HW231675   5.725   5.832   6.046  0.5616 -0.3568 -2.3121
 9382SOL     OW31676   1.915   6.001   4.933  0.1266  0.1562 -0.3818
 9382SOL    HW131677   1.911   5.931   4.998  1.4424  0.6547  0.2726
 9382SOL    HW231678   1.940   6.079   4.982 -0.6827  0.9566 -1.2047
 9383SOL     OW31679   4.352   6.658   9.955 -0.3654  0.2916  0.1333
 9383SOL    HW131680   4.281   6.698   9.905  0.2563  0.9779 -0.2227
 9383SOL    HW231681   4.431   6.685   9.909  0.0926 -1.1467  0.0432
 9384SOL     OW31682   5.836   3.172   4.794  0.3675  0.1155  0.3712
 9384SOL    HW131683   5.764   3.157   4.855  0.6706 -1.1744  0.4309
 9384SOL    HW231684   5.880   3.251   4.827  0.2059 -0.2522  1.5035
 9385SOL     OW31685  10.099   7.720   9.251 -0.4619 -0.4244 -0.2430
 9385SOL    HW131686  10.179   7.764   9.280  0.0349 -0.6578 -1.2186
 9385SOL    HW231687  10.047   7.790   9.212 -0.1537 -0.4982 -0.7945
 9386SOL     OW31688   8.902   2.962  10.236 -0.0129 -0.6264 -0.6097
 9386SOL    HW131689   8.866   2.876  10.257 -1.1714 -0.2805 -1.1338
 9386SOL    HW231690   8.993   2.944  10.210 -0.2515 -1.6942 -0.7420
 9387SOL     OW31691   1.926   6.795   4.374  0.2015  0.6121  0.2052
 9387SOL    HW131692   2.014   6.771   4.401 -0.0920 -1.5776 -0.6415
 9387SOL    HW231693   1.870   6.766   4.446  0.0922  1.6690  0.5770
 9388SOL     OW31694   4.506   3.186   8.065  0.9399 -0.3209  0.3134
 9388SOL    HW131695   4.536   3.199   7.975 -1.6573  1.2553 -0.4386
 9388SOL    HW231696   4.434   3.124   8.057 -1.1965  1.9419  0.7859
 9389SOL     OW31697   2.035   4.341   5.966  0.1470  0.1885  0.5366
 9389SOL    HW131698   1.957   4.378   6.007  0.6624  1.2551  0.5894
 9389SOL    HW231699   2.056   4.402   5.895  0.5381 -0.4588  0.0826
 9390SOL     OW31700   2.443   6.618   1.450 -0.2317  0.0867  0.5003
 9390SOL    HW131701   2.424   6.528   1.424 -1.2247  0.3395  0.2932
 9390SOL    HW231702   2.537   6.619   1.469 -0.5928 -1.5666  2.7396
 9391SOL     OW31703   9.576   4.318   5.311 -0.0275  0.1217 -0.5655
 9391SOL    HW131704   9.578   4.227   5.282  2.1305  0.4840 -1.8095
 9391SOL    HW231705   9.653   4.357   5.271  1.6098  1.4544  3.3713
 9392SOL     OW31706   8.211   9.241   8.246  1.3136  0.4107  0.3891
 9392SOL    HW131707   8.200   9.155   8.286 -0.0463  0.1815 -0.4215
 9392SOL    HW231708   8.144   9.296   8.287 -0.8962 -0.1193 -2.2320
 9393SOL     OW31709   1.140   2.791   9.431  0.1945  0.4275  0.1351
 9393SOL    HW131710   1.206   2.814   9.365  2.0594  0.4509  1.9174
 9393SOL    HW231711   1.072   2.744   9.382  0.8803  1.5096 -1.9883
 9394SOL     OW31712   5.313   0.333   1.286 -0.1538  1.2198  0.0534
 9394SOL    HW131713   5.377   0.299   1.349 -0.0131  2.5052  0.6385
 9394SOL    HW231714   5.251   0.383   1.339 -0.4700  1.6902 -0.7405
 9395SOL     OW31715  10.658   7.808   9.247  0.6858 -0.4156 -0.7897
 9395SOL    HW131716  10.750   7.823   9.266  0.4927  0.8479 -0.7676
 9395SOL    HW231717  10.611   7.841   9.323  0.1906 -0.6613 -0.9796
 9396SOL     OW31718   1.063   2.433   3.959  0.0867 -0.0473 -0.3783
 9396SOL    HW131719   1.089   2.430   4.051 -0.8046 -3.2130 -0.1294
 9396SOL    HW231720   1.146   2.444   3.911  1.2379 -2.9162  0.6977
 9397SOL     OW31721   7.183   9.814  10.850 -0.5097  0.5472  0.3558
 9397SOL    HW131722   7.149   9.771  10.929  2.4233 -3.1596 -0.1362
 9397SOL    HW231723   7.126   9.783  10.780 -0.3297  0.0007  0.4418
 9398SOL     OW31724  10.221   0.994  10.421  0.3130 -0.2651  0.2916
 9398SOL    HW131725  10.213   0.903  10.392 -2.2011  0.0251 -0.1765
 9398SOL    HW231726  10.187   0.994  10.510 -0.8319  0.3511 -0.1139
 9399SOL     OW31727   3.458   4.246   1.123 -0.0172 -0.5781  0.0836
 9399SOL    HW131728   3.503   4.180   1.175  0.5611  0.7389  1.3288
 9399SOL    HW231729   3.471   4.328   1.171 -0.0614  0.5870 -1.7783
 9400SOL     OW31730   9.014   0.193   0.812  0.6851  0.2163 -0.4837
 9400SOL    HW131731   8.931   0.237   0.797  0.8171  0.8368  0.4825
 9400SOL    HW231732   9.007   0.159   0.902  1.5626  0.4890 -0.3045
 9401SOL     OW31733   5.101   1.094   1.077  0.2111  0.2044  0.2638
 9401SOL    HW131734   5.048   1.074   1.154  0.8420 -0.6012  0.5076
 9401SOL    HW231735   5.168   1.025   1.076  0.6459  0.6276 -0.5937
 9402SOL     OW31736   9.308   4.001   1.694 -0.5408 -0.4932 -0.1056
 9402SOL    HW131737   9.291   3.973   1.784 -0.5805 -0.9722 -0.2541
 9402SOL    HW231738   9.394   3.964   1.674 -0.4435 -0.2180 -0.1981
 9403SOL     OW31739   7.984   1.943   8.641 -0.3719 -0.1652  0.0014
 9403SOL    HW131740   7.982   1.975   8.731 -0.8705 -0.3004  0.0412
 9403SOL    HW231741   8.001   1.850   8.649  0.7429  0.0146 -0.0995
 9404SOL     OW31742   4.449   1.996   9.505 -0.7172  0.5432  0.0355
 9404SOL    HW131743   4.369   2.016   9.457 -0.5723 -0.7407 -0.7866
 9404SOL    HW231744   4.520   2.023   9.447 -0.5311 -1.4755 -0.7602
 9405SOL     OW31745   0.666   7.658   3.684 -0.3382  0.3246  0.5149
 9405SOL    HW131746   0.678   7.621   3.771  0.5579 -0.9756 -0.1173
 9405SOL    HW231747   0.729   7.729   3.679  2.7309 -2.1953 -0.4177
 9406SOL     OW31748   8.046   1.569   9.815  0.5907  0.1587 -0.0680
 9406SOL    HW131749   8.011   1.640   9.761 -0.4241 -0.9713 -0.9707
 9406SOL    HW231750   8.067   1.500   9.752  1.8430 -0.2391  0.7560
 9407SOL     OW31751   2.524  10.667   0.329  0.0774  0.1006 -0.0355
 9407SOL    HW131752   2.508  10.594   0.268 -0.1329 -0.3697  0.5710
 9407SOL    HW231753   2.448  10.724   0.317 -0.0614 -0.0882 -0.0818
 9408SOL     OW31754   8.958   5.040   5.840 -0.4688 -0.0307  0.2890
 9408SOL    HW131755   8.989   4.974   5.777 -0.9748 -1.1606  1.1912
 9408SOL    HW231756   9.037   5.073   5.882 -0.3352 -1.7339  1.4421
 9409SOL     OW31757   5.256   2.121  10.288  0.6951 -0.3448 -0.2030
 9409SOL    HW131758   5.342   2.164  10.292 -0.0131  1.0203  2.3675
 9409SOL    HW231759   5.266   2.045  10.345  0.0346  0.1477  0.5721
 9410SOL     OW31760   7.028   3.921   8.845  0.1918 -0.3176 -0.1970
 9410SOL    HW131761   6.980   3.951   8.922  1.5611  0.4911  0.3796
 9410SOL    HW231762   7.113   3.893   8.879  0.3398 -1.2244 -1.2496
 9411SOL     OW31763   3.237   7.392   7.567 -0.3227  0.2021 -0.1252
 9411SOL    HW131764   3.146   7.398   7.594  0.0551 -1.4244  1.7717
 9411SOL    HW231765   3.282   7.459   7.620 -0.3313  0.6211 -0.6449
 9412SOL     OW31766  10.811   6.291   0.872 -0.6117  0.3455  0.2343
 9412SOL    HW131767  10.847   6.365   0.921  2.0944 -0.4663 -0.3122
 9412SOL    HW231768  10.888   6.250   0.832 -2.1784 -1.8835 -0.6897
 9413SOL     OW31769   0.067   3.109   3.886  0.7478  0.2861  0.1138
 9413SOL    HW131770   0.106   3.023   3.901  0.3072  0.3694  1.9543
 9413SOL    HW231771   0.141   3.169   3.878  1.0625 -0.2469 -1.3294
 9414SOL     OW31772   3.059   1.723   7.016  0.1693 -0.0321 -0.3885
 9414SOL    HW131773   3.018   1.759   7.094  0.4131  0.3932 -0.4558
 9414SOL    HW231774   3.125   1.787   6.991  0.9142 -0.7271 -0.2580
 9415SOL     OW31775   8.132   5.549   3.266 -0.1600  0.1932 -0.8689
 9415SOL    HW131776   8.179   5.507   3.337 -2.1540 -1.4448 -0.4124
 9415SOL    HW231777   8.122   5.640   3.294  0.8951  0.0734 -0.0489
 9416SOL     OW31778   4.591   9.567   2.248  0.9421  0.1472  0.3897
 9416SOL    HW131779   4.594   9.476   2.217 -1.9972 -0.2622  0.9382
 9416SOL    HW231780   4.615   9.619   2.171 -0.2155 -1.0581 -0.8609
 9417SOL     OW31781  10.483   1.566   6.311 -0.4283 -0.5307  0.3715
 9417SOL    HW131782  10.490   1.567   6.406 -1.1463 -2.7467  0.5001
 9417SOL    HW231783  10.423   1.494   6.292 -1.2929  0.6509 -1.7217
 9418SOL     OW31784   5.286   7.306   6.132 -0.6350  0.3036  0.5923
 9418SOL    HW131785   5.302   7.359   6.053  0.3673  1.8020  1.7377
 9418SOL    HW231786   5.280   7.216   6.100 -1.9463  1.0172 -1.3921
 9419SOL     OW31787   6.269   2.613   7.846  0.3908  0.1129  0.3793
 9419SOL    HW131788   6.277   2.565   7.929  1.3525 -0.0567  0.2032
 9419SOL    HW231789   6.357   2.608   7.808 -0.2155 -0.3868 -0.9824
 9420SOL     OW31790  10.631   8.859   3.176 -0.1703 -0.2687  0.0032
 9420SOL    HW131791  10.717   8.870   3.216 -1.0220  2.4076  1.3305
 9420SOL    HW231792  10.604   8.771   3.201  0.9510 -0.0852  2.0863
 9421SOL     OW31793   3.817   1.194   9.018 -0.0008 -0.2802 -0.5238
 9421SOL    HW131794   3.889   1.207   8.957  1.1336 -0.8636  0.6446
 9421SOL    HW231795   3.843   1.118   9.071 -0.4313  0.7882  1.3421
 9422SOL     OW31796   0.869   2.732   4.230  0.2364  0.2090 -0.1289
 9422SOL    HW131797   0.949   2.723   4.282 -1.0945 -0.7147  1.8499
 9422SOL    HW231798   0.856   2.827   4.222  1.4025  0.3669 -0.3344
 9423SOL     OW31799   1.136   0.150   1.949 -0.1638 -0.1215 -0.0194
 9423SOL    HW131800   1.056   0.127   1.996 -0.0062  0.2291  0.4362
 9423SOL    HW231801   1.121   0.121   1.859  0.1324 -2.2299  0.5714
 9424SOL     OW31802   2.187   9.435   2.268  0.2584  0.1660  0.3356
 9424SOL    HW131803   2.256   9.404   2.327  0.5478 -0.1829 -0.1771
 9424SOL    HW231804   2.141   9.502   2.318  2.0782  1.7064  0.0906
 9425SOL     OW31805   5.863   3.079   5.384  0.1251  0.1828 -0.6521
 9425SOL    HW131806   5.884   3.160   5.430 -2.7712  1.5604 -1.5202
 9425SOL    HW231807   5.920   3.079   5.307  2.0815 -0.0732  0.7309
 9426SOL     OW31808   3.062   9.689   4.625 -0.5334 -0.5075  0.2805
 9426SOL    HW131809   2.978   9.730   4.605 -0.0492  0.1084 -0.5112
 9426SOL    HW231810   3.093   9.653   4.542 -0.3529 -1.3943  0.7093
 9427SOL     OW31811   4.922   7.684   3.779  0.3886  0.3849 -0.0824
 9427SOL    HW131812   5.002   7.631   3.783  0.0914 -0.0009  1.2091
 9427SOL    HW231813   4.880   7.670   3.864 -2.7444 -2.1057 -1.7957
 9428SOL     OW31814   1.378   0.050   6.755 -0.5318  0.1724 -0.0773
 9428SOL    HW131815   1.355   0.047   6.662  1.0071  2.4242 -0.6357
 9428SOL    HW231816   1.465   0.012   6.760 -1.5480 -2.2261  0.9272
 9429SOL     OW31817   0.709   1.230   0.784  0.0685  0.1700 -0.2693
 9429SOL    HW131818   0.736   1.318   0.757  0.3631  0.0246 -0.4565
 9429SOL    HW231819   0.631   1.244   0.837  0.3482  0.5757  0.0446
 9430SOL     OW31820  10.490   6.013   6.964  0.2153  0.4022  0.1805
 9430SOL    HW131821  10.398   6.009   6.991 -0.7501  1.5662 -2.6221
 9430SOL    HW231822  10.499   5.944   6.899  1.3823  0.2717  0.4468
 9431SOL     OW31823   4.571   3.588   7.014 -0.1724  0.3147 -0.2856
 9431SOL    HW131824   4.570   3.665   7.069  0.3744  0.7494 -0.8725
 9431SOL    HW231825   4.658   3.587   6.974  0.1235 -1.0639  0.3513
 9432SOL     OW31826  10.038   9.857   5.219  0.0072 -0.4257  0.7536
 9432SOL    HW131827   9.960   9.801   5.218 -0.1523 -0.2476 -1.3100
 9432SOL    HW231828  10.004   9.946   5.231  0.0775 -0.5225  1.7655
 9433SOL     OW31829   3.053   3.801   3.968 -0.7512 -0.0408  0.1067
 9433SOL    HW131830   3.112   3.729   3.943 -1.4473 -1.0529  1.2738
 9433SOL    HW231831   3.097   3.843   4.042 -1.0175 -0.1518  0.3267
 9434SOL     OW31832   8.611   1.414   3.616  0.1801 -0.4048  0.3365
 9434SOL    HW131833   8.687   1.465   3.587 -0.2845 -0.4552 -1.0306
 9434SOL    HW231834   8.586   1.455   3.699  1.7571 -0.4684  0.8737
 9435SOL     OW31835   9.812   2.322   5.048 -0.4108  0.3147  0.4220
 9435SOL    HW131836   9.766   2.375   5.114 -2.9721 -1.0071 -0.1572
 9435SOL    HW231837   9.778   2.355   4.965 -3.3916 -3.0418  0.0423
 9436SOL     OW31838   7.300   2.693   5.284 -0.0760  0.2426 -0.7373
 9436SOL    HW131839   7.309   2.736   5.369  0.3008 -0.9046 -0.1771
 9436SOL    HW231840   7.319   2.762   5.221 -0.1819  1.0718  0.1060
 9437SOL     OW31841   6.590   2.639   6.504 -0.0962 -0.0409  0.5015
 9437SOL    HW131842   6.656   2.707   6.518 -1.2196  1.6450 -1.7769
 9437SOL    HW231843   6.514   2.669   6.554 -0.7039  0.6115 -0.7709
 9438SOL     OW31844   0.642   5.928   5.378  0.1186 -0.3898  0.0709
 9438SOL    HW131845   0.719   5.872   5.373 -0.8013 -2.0305  2.3277
 9438SOL    HW231846   0.668   5.998   5.439 -0.2345 -1.1435  1.1187
 9439SOL     OW31847   2.498   6.780   0.831  0.3442 -0.3468  0.1373
 9439SOL    HW131848   2.518   6.874   0.824  0.9682 -0.5755 -1.9897
 9439SOL    HW231849   2.425   6.768   0.771  0.3929 -1.2658  0.2585
 9440SOL     OW31850   9.270   6.030  10.256  0.0489  0.0113  0.2505
 9440SOL    HW131851   9.346   6.026  10.196 -0.9293 -2.2660 -0.9783
 9440SOL    HW231852   9.204   6.079  10.207  0.2045  0.6864  0.7037
 9441SOL     OW31853   3.358   0.411   0.179  0.3399  0.0037  0.3827
 9441SOL    HW131854   3.296   0.468   0.134  0.4958  0.1434  0.3433
 9441SOL    HW231855   3.318   0.395   0.265 -0.3983 -1.0062 -0.1250
 9442SOL     OW31856   3.386   7.277   6.504 -0.5127  0.6820 -0.4378
 9442SOL    HW131857   3.409   7.278   6.411  0.9769  1.0953 -0.1052
 9442SOL    HW231858   3.338   7.196   6.517  1.5771 -0.7450 -1.0787
 9443SOL     OW31859   1.368   4.213  10.139  0.0785  0.9058 -0.3920
 9443SOL    HW131860   1.341   4.304  10.131  0.4052  1.0606  0.2005
 9443SOL    HW231861   1.287   4.163  10.137  0.0037  1.0261 -2.8820
 9444SOL     OW31862   1.376   2.447   3.062  0.1508  0.0414 -0.0268
 9444SOL    HW131863   1.352   2.471   3.152 -0.3583 -0.4996 -0.0150
 9444SOL    HW231864   1.430   2.521   3.032  3.1055 -1.1856  1.7934
 9445SOL     OW31865   6.625   6.233   5.952 -0.0516  0.2694  0.0273
 9445SOL    HW131866   6.664   6.203   6.034 -1.4143 -1.0873  0.2055
 9445SOL    HW231867   6.672   6.315   5.932  1.9695 -0.6178  0.8681
 9446SOL     OW31868  10.050   9.223   3.116  0.1000  0.1909  0.1848
 9446SOL    HW131869  10.126   9.222   3.058 -1.0135  1.8002 -1.4243
 9446SOL    HW231870  10.047   9.135   3.154  0.0775 -1.5060 -3.3735
 9447SOL     OW31871   4.091   8.916  10.118  0.3343  0.3495  0.7702
 9447SOL    HW131872   4.181   8.927  10.087  0.5250 -1.2282  0.7167
 9447SOL    HW231873   4.088   8.828  10.153 -0.9289  0.7518  1.7367
 9448SOL     OW31874  10.579   7.117   2.443  0.2741  0.6012  0.4058
 9448SOL    HW131875  10.674   7.123   2.443  0.2662  0.9730  2.1064
 9448SOL    HW231876  10.550   7.186   2.502 -1.0432  0.3718  0.0576
 9449SOL     OW31877   8.046   8.807   1.631  0.6034  0.3054  0.4610
 9449SOL    HW131878   8.095   8.834   1.554 -1.0597  2.6620  0.1364
 9449SOL    HW231879   8.100   8.738   1.670  2.2187  0.0630 -1.9465
 9450SOL     OW31880   6.047   4.319   3.015 -0.1997 -0.3168  0.0041
 9450SOL    HW131881   5.987   4.362   3.075 -0.7614 -1.8706  0.5992
 9450SOL    HW231882   6.019   4.227   3.013  1.3747 -0.8309 -0.6693
 9451SOL     OW31883   2.613   0.923   4.927  0.0114  0.1659 -0.3309
 9451SOL    HW131884   2.696   0.914   4.974  0.8224 -1.3345 -1.9470
 9451SOL    HW231885   2.630   0.992   4.862  0.4986 -1.1122 -1.6041
 9452SOL     OW31886  11.068   2.584   0.550 -0.2139  0.4989  0.1263
 9452SOL    HW131887  11.052   2.609   0.641 -0.8988  2.3581 -0.4535
 9452SOL    HW231888  11.106   2.663   0.510 -0.4233 -0.1123 -1.3244
 9453SOL     OW31889   6.934   1.126   9.988 -0.2217 -0.0821  0.1202
 9453SOL    HW131890   6.865   1.092   9.931  1.4487  0.2198 -2.2038
 9453SOL    HW231891   7.015   1.113   9.939  0.9355  3.8394  0.6565
 9454SOL     OW31892   2.162   1.946   5.952  0.5013  0.7119  0.5534
 9454SOL    HW131893   2.186   1.877   5.891 -0.2026  0.0149  1.0476
 9454SOL    HW231894   2.244   1.990   5.973  0.8758  0.3708 -0.1859
 9455SOL     OW31895   7.643  10.471   4.428  0.1827 -0.4629 -0.2611
 9455SOL    HW131896   7.574  10.408   4.409 -0.1761 -0.0831 -0.2277
 9455SOL    HW231897   7.609  10.523   4.501  0.0628  0.3927 -0.9066
 9456SOL     OW31898   3.115   3.135   9.609  0.1569 -0.5581  0.2117
 9456SOL    HW131899   3.158   3.185   9.540 -1.5635  1.3769  0.4569
 9456SOL    HW231900   3.062   3.070   9.562 -3.4122  2.6475 -0.6845
 9457SOL     OW31901  10.196   1.428   9.880  0.3409 -0.6151 -0.3221
 9457SOL    HW131902  10.126   1.365   9.899  1.0936 -0.4769  3.7669
 9457SOL    HW231903  10.159   1.512   9.904  1.3778 -0.3525  0.4257
 9458SOL     OW31904   5.938   7.612   6.677 -0.1924 -0.5273  0.6684
 9458SOL    HW131905   5.859   7.660   6.655  0.5722  1.3795  1.8229
 9458SOL    HW231906   5.996   7.627   6.602  0.2667  0.9693  1.2789
 9459SOL     OW31907   2.110   8.211   7.152  0.3330 -0.1289 -0.1521
 9459SOL    HW131908   2.179   8.148   7.134 -0.4761 -0.7939 -1.0737
 9459SOL    HW231909   2.147   8.296   7.128  0.7931 -0.4868 -0.7235
 9460SOL     OW31910   8.003   8.244   3.636  0.3655 -1.0251  0.8066
 9460SOL    HW131911   7.957   8.180   3.581 -0.0197  1.1314 -1.5617
 9460SOL    HW231912   8.079   8.269   3.584 -1.5609  3.3076 -0.3595
 9461SOL     OW31913  10.531   3.848   4.016  0.1959  0.0826 -0.1989
 9461SOL    HW131914  10.513   3.766   3.969  0.7279 -1.0383  1.4706
 9461SOL    HW231915  10.576   3.902   3.951  0.4680 -1.2119 -1.1502
 9462SOL     OW31916   0.604   9.959  11.037  0.4019  0.1773 -0.3801
 9462SOL    HW131917   0.648   9.992  10.958 -0.5149 -0.6993 -1.2951
 9462SOL    HW231918   0.575   9.871  11.012 -0.4478  0.1238  0.7475
 9463SOL     OW31919   8.715   5.507   8.815  0.2090 -0.1122 -0.4201
 9463SOL    HW131920   8.803   5.533   8.787 -0.6455  2.3156 -1.1515
 9463SOL    HW231921   8.727   5.421   8.855  3.0566  0.5433  0.3802
 9464SOL     OW31922   6.701   2.056   6.168  0.1248 -0.4593 -0.1746
 9464SOL    HW131923   6.675   2.011   6.088 -0.2737  0.7036 -0.7301
 9464SOL    HW231924   6.646   2.018   6.236 -2.4498  1.2463 -1.1501
 9465SOL     OW31925   6.189   2.326   8.309  0.2748 -0.8146 -0.6279
 9465SOL    HW131926   6.139   2.244   8.309  0.5006 -0.9525 -0.4609
 9465SOL    HW231927   6.152   2.377   8.381  1.0496 -1.3301  0.1491
 9466SOL     OW31928   0.466   8.927  11.054 -0.6089  0.3111  0.0700
 9466SOL    HW131929   0.464   8.985  10.977 -0.8826  1.8140  1.1689
 9466SOL    HW231930   0.558   8.923  11.079 -0.5513  0.0215 -0.1856
 9467SOL     OW31931   2.519   6.145   7.168  0.2799  0.7320  0.2613
 9467SOL    HW131932   2.488   6.099   7.090 -2.9627 -1.1918  2.4237
 9467SOL    HW231933   2.453   6.213   7.183  0.3845  0.5256  1.7459
 9468SOL     OW31934   5.527   7.509   2.522 -0.2794  0.1778 -0.4253
 9468SOL    HW131935   5.606   7.458   2.541 -0.7675 -1.0698 -1.5830
 9468SOL    HW231936   5.501   7.545   2.607  2.2247  1.7230 -0.2182
 9469SOL     OW31937   3.007   3.237   1.754 -0.2522  0.1841  0.3642
 9469SOL    HW131938   3.084   3.256   1.807 -0.3635  1.5586  0.0659
 9469SOL    HW231939   3.028   3.154   1.711  1.3374  0.8204 -0.1776
 9470SOL     OW31940   9.791   4.998   6.195  0.0589 -0.0604  0.2669
 9470SOL    HW131941   9.857   5.033   6.135  1.0333 -0.2524  1.2143
 9470SOL    HW231942   9.820   4.910   6.214 -1.2220 -0.6506 -0.3689
 9471SOL     OW31943   1.787   4.321   7.169  0.1245  0.2193 -0.1351
 9471SOL    HW131944   1.852   4.273   7.117 -0.6153  0.1444 -1.0273
 9471SOL    HW231945   1.719   4.256   7.188 -0.3634  0.6283 -0.4320
 9472SOL     OW31946   7.355   9.280   5.309 -0.4051  0.0140  0.4734
 9472SOL    HW131947   7.360   9.367   5.270 -1.9854 -0.0966 -0.0523
 9472SOL    HW231948   7.430   9.233   5.272 -0.9369  0.4072 -1.2174
 9473SOL     OW31949   8.889   8.289  10.211  0.1911 -0.2427  0.7740
 9473SOL    HW131950   8.934   8.327  10.135 -0.0643 -0.9280  0.2655
 9473SOL    HW231951   8.881   8.361  10.273 -1.2659  0.8417 -0.5985
 9474SOL     OW31952   8.749   5.623   4.918 -0.1534  0.7327  0.7818
 9474SOL    HW131953   8.790   5.593   4.837 -0.2057  1.5965  0.4220
 9474SOL    HW231954   8.678   5.561   4.933 -1.8214  2.0113 -1.2690
 9475SOL     OW31955  10.627  10.685   3.410 -0.2182  0.1467 -0.1268
 9475SOL    HW131956  10.678  10.623   3.462 -1.8557 -0.6365  0.6437
 9475SOL    HW231957  10.689  10.721   3.347  1.2646 -0.7221  0.7766
 9476SOL     OW31958   2.861   0.147   8.156 -0.2002  0.1289  0.3508
 9476SOL    HW131959   2.779   0.181   8.191 -1.1093 -2.4005  0.9021
 9476SOL    HW231960   2.919   0.139   8.232 -0.1447  0.0498  0.3009
 9477SOL     OW31961   6.829   5.205   2.004  0.0283 -0.3998 -0.2343
 9477SOL    HW131962   6.744   5.248   2.013  1.4778  2.6267  0.3702
 9477SOL    HW231963   6.826   5.134   2.067 -1.6295  0.3639  0.6243
 9478SOL     OW31964   0.389   9.189  10.568 -0.0307 -0.1922  0.4891
 9478SOL    HW131965   0.396   9.277  10.606  0.0735 -0.5061  1.2168
 9478SOL    HW231966   0.479   9.158  10.560 -0.1232 -0.8798  1.8202
 9479SOL     OW31967  10.199   6.299   1.534  0.6147 -0.2556 -0.0918
 9479SOL    HW131968  10.252   6.238   1.584 -0.9157 -1.8574 -0.3153
 9479SOL    HW231969  10.138   6.336   1.599  0.6836  0.0666 -0.2064
 9480SOL     OW31970  10.671   7.627   6.959 -0.7130 -0.3909 -0.1774
 9480SOL    HW131971  10.659   7.538   6.928 -0.9484 -0.5675  0.4118
 9480SOL    HW231972  10.747   7.623   7.017  0.0639  0.0419 -1.1303
 9481SOL     OW31973   1.622   8.726   6.616  0.1564  0.1272  0.0824
 9481SOL    HW131974   1.656   8.814   6.633  1.8806 -0.4949  0.0286
 9481SOL    HW231975   1.672   8.695   6.540  1.5280 -1.9003  1.7082
 9482SOL     OW31976   3.422  10.957   1.300  0.1512 -0.8453  0.3072
 9482SOL    HW131977   3.508  10.981   1.266  0.6895 -2.8287  0.1660
 9482SOL    HW231978   3.417  11.003   1.385 -0.2530  2.2546 -1.2363
 9483SOL     OW31979   9.278   5.841   6.344 -0.1893 -0.3786  0.5953
 9483SOL    HW131980   9.337   5.916   6.358 -1.0892  0.6015 -0.6298
 9483SOL    HW231981   9.247   5.852   6.254  0.0672 -2.5486  0.1949
 9484SOL     OW31982  11.113   0.300   8.667 -0.4812 -0.4447  0.4269
 9484SOL    HW131983  11.102   0.206   8.656 -0.8053 -0.3095 -0.4444
 9484SOL    HW231984  11.055   0.339   8.602 -1.3520  0.3773  1.6375
 9485SOL     OW31985   4.554  10.853   9.097  0.2309 -0.4196  0.4839
 9485SOL    HW131986   4.471  10.831   9.139 -0.7083  0.9700 -0.5466
 9485SOL    HW231987   4.576  10.777   9.044 -0.5966 -0.6442  0.4626
 9486SOL     OW31988   6.280   9.089   2.287 -0.0095  0.5147 -0.9439
 9486SOL    HW131989   6.304   8.996   2.284 -0.0315  0.4807 -0.3081
 9486SOL    HW231990   6.247   9.108   2.199 -0.7465 -0.2850 -0.8542
 9487SOL     OW31991   0.525   1.826   3.364  0.0579  0.3839  0.4219
 9487SOL    HW131992   0.479   1.744   3.346 -1.3923  1.2356  0.0925
 9487SOL    HW231993   0.457   1.884   3.400  1.1654  1.2747  1.1203
 9488SOL     OW31994   5.429   3.999   5.280 -0.3261 -0.0784 -0.0023
 9488SOL    HW131995   5.420   4.094   5.271 -1.8214 -0.1895 -0.0122
 9488SOL    HW231996   5.523   3.983   5.281  0.0395  1.6521  2.5882
 9489SOL     OW31997   4.229   8.394   5.719 -0.4295  0.3994 -0.0761
 9489SOL    HW131998   4.300   8.413   5.781 -1.0875 -1.3989  1.3167
 9489SOL    HW231999   4.152   8.381   5.774 -1.1913 -0.5398 -1.3220
 9490SOL     OW32000   0.674   7.553   3.286  0.4816 -0.0573  0.5339
 9490SOL    HW132001   0.594   7.523   3.329 -0.4906  0.8052 -0.5920
 9490SOL    HW232002   0.732   7.576   3.358 -0.1864 -0.9142  1.3839
 9491SOL     OW32003   0.736   5.785  10.622  0.9562  0.2126 -0.4998
 9491SOL    HW132004   0.776   5.746  10.544 -0.0776 -1.2741 -0.3412
 9491SOL    HW232005   0.732   5.878  10.603  1.1120 -0.0688 -2.0530
 9492SOL     OW32006   6.322   4.070   9.706  0.2345  0.8236 -0.0031
 9492SOL    HW132007   6.322   3.987   9.659 -2.4937  0.2432  0.8320
 9492SOL    HW232008   6.326   4.137   9.638 -0.2888 -0.0016 -0.8705
 9493SOL     OW32009   6.291   6.877   7.544  0.2331 -0.1033 -0.1516
 9493SOL    HW132010   6.234   6.847   7.473  0.3731  3.2305 -1.8788
 9493SOL    HW232011   6.379   6.852   7.516  0.2573  0.9437 -1.0751
 9494SOL     OW32012   5.878   7.781   8.666  0.3285  0.0389 -0.2407
 9494SOL    HW132013   5.909   7.692   8.649 -0.1538 -0.1730 -0.0474
 9494SOL    HW232014   5.905   7.800   8.756  0.9905  0.3336 -0.4998
 9495SOL     OW32015   4.913   8.224   9.221  0.4176  0.2942 -0.0421
 9495SOL    HW132016   4.935   8.158   9.155  0.8281 -0.4431  0.8210
 9495SOL    HW232017   4.959   8.196   9.300 -1.0485  0.4799  0.9181
 9496SOL     OW32018   1.466   3.871   8.298 -0.0962 -0.0404 -0.2629
 9496SOL    HW132019   1.371   3.860   8.286 -0.1879 -0.1493  0.5217
 9496SOL    HW232020   1.496   3.905   8.213 -1.0152  1.1213 -0.1636
 9497SOL     OW32021  10.439  10.778   7.399  0.6928  1.0434  0.2601
 9497SOL    HW132022  10.518  10.769   7.452 -0.4728  0.0047  1.9136
 9497SOL    HW232023  10.443  10.705   7.338  0.0134 -0.3076  1.7660
 9498SOL     OW32024   4.319   0.679   1.083 -0.4644  0.4499  0.0442
 9498SOL    HW132025   4.244   0.706   1.135 -1.5497 -1.0459 -0.6924
 9498SOL    HW232026   4.363   0.761   1.061 -1.6198  1.3199  0.8423
 9499SOL     OW32027   0.353   5.371   0.553  0.1979 -0.2602  0.4266
 9499SOL    HW132028   0.313   5.398   0.636  0.8655  1.2693  0.2905
 9499SOL    HW232029   0.347   5.449   0.498  1.2173 -0.7517 -0.4063
 9500SOL     OW32030   7.016   9.674   4.597  0.0631  0.3882 -0.3448
 9500SOL    HW132031   7.029   9.580   4.609  1.2572  0.5778 -0.0793
 9500SOL    HW232032   7.050   9.691   4.509 -0.3857  0.5429 -0.4923
 9501SOL     OW32033   0.445   2.803   9.899 -0.1414 -0.2210 -0.3403
 9501SOL    HW132034   0.401   2.724   9.932 -0.9858  0.5558  0.4162
 9501SOL    HW232035   0.534   2.773   9.879 -0.1585 -1.1627  0.8414
 9502SOL     OW32036  10.988   7.978   0.180 -0.2216 -0.0021  0.2381
 9502SOL    HW132037  11.033   7.894   0.172  0.6168  0.4345  0.2191
 9502SOL    HW232038  10.986   8.012   0.090  2.1424  1.3319  0.5919
 9503SOL     OW32039   1.252   6.115   9.668  0.1904 -0.1092  0.5240
 9503SOL    HW132040   1.206   6.051   9.614 -0.4293 -0.2528  1.2037
 9503SOL    HW232041   1.307   6.163   9.606 -1.8953  1.0095 -0.5564
 9504SOL     OW32042   4.630   6.994   6.707 -0.4258  0.1879 -0.2217
 9504SOL    HW132043   4.674   6.912   6.731 -0.9524 -0.3284 -0.9830
 9504SOL    HW232044   4.564   6.968   6.643 -1.1260  1.1063  0.1069
 9505SOL     OW32045   3.389  10.012   2.198  0.0268  0.3931  0.2589
 9505SOL    HW132046   3.463  10.050   2.244  1.0037 -1.7109  0.5386
 9505SOL    HW232047   3.342  10.087   2.162  1.6477  1.8445  1.0340
 9506SOL     OW32048   5.443   0.242   3.155  0.1325 -0.2222 -0.8648
 9506SOL    HW132049   5.470   0.154   3.131  0.5305  0.2446 -2.2225
 9506SOL    HW232050   5.525   0.291   3.164  0.1442 -0.6278  2.8697
 9507SOL     OW32051   2.549   6.085   5.630 -0.1649  0.1278  0.0075
 9507SOL    HW132052   2.565   6.174   5.598  0.1869 -0.3983 -1.3195
 9507SOL    HW232053   2.623   6.066   5.687  0.1683  0.4007 -0.3316
 9508SOL     OW32054   3.982   5.121   1.012  0.5780 -0.3211 -0.0576
 9508SOL    HW132055   4.016   5.207   1.038  0.3128 -0.0139 -0.7251
 9508SOL    HW232056   3.923   5.097   1.084 -1.4525  1.2770 -1.0804
 9509SOL     OW32057   3.002   7.557   7.966 -0.6502 -0.3673  0.2578
 9509SOL    HW132058   3.021   7.463   7.963  1.2160 -0.0127 -0.9282
 9509SOL    HW232059   2.907   7.562   7.955 -0.7267 -2.0978 -0.2529
 9510SOL     OW32060   9.509   5.756   5.815 -0.2856  0.6497  0.4757
 9510SOL    HW132061   9.464   5.822   5.763 -1.9141 -0.8092 -0.0891
 9510SOL    HW232062   9.583   5.728   5.761 -0.1211  1.3399  0.3364
 9511SOL     OW32063   4.187   6.805   4.082  0.1490 -0.3091 -0.2534
 9511SOL    HW132064   4.201   6.898   4.062  2.0080 -0.3720  0.5595
 9511SOL    HW232065   4.206   6.761   3.999  0.1265 -0.0340 -0.4092
 9512SOL     OW32066   3.716   2.490   4.110 -0.0715 -0.5457 -0.4037
 9512SOL    HW132067   3.772   2.558   4.072 -1.1909 -0.2032 -1.5070
 9512SOL    HW232068   3.688   2.527   4.194 -0.2365  0.1360 -0.7483
 9513SOL     OW32069  10.002   6.822   1.658 -0.3825 -0.0081  0.7293
 9513SOL    HW132070  10.025   6.736   1.694 -1.2659 -1.4072 -1.8086
 9513SOL    HW232071  10.067   6.882   1.695  2.8564 -2.4670 -0.5159
 9514SOL     OW32072   6.711   2.946   8.876  0.8792 -0.0405  0.4912
 9514SOL    HW132073   6.739   2.897   8.799 -1.6665  0.5265 -0.8971
 9514SOL    HW232074   6.630   2.902   8.904  1.6103 -0.1032  2.7770
 9515SOL     OW32075   5.230   0.814   4.476 -0.1720  0.6261 -0.7737
 9515SOL    HW132076   5.163   0.824   4.544  2.1503 -0.6887  1.8976
 9515SOL    HW232077   5.261   0.724   4.486  3.1069  1.6288 -0.6993
 9516SOL     OW32078  10.185   6.156   7.460 -0.4390  0.1018 -0.1089
 9516SOL    HW132079  10.152   6.221   7.522  1.4411  2.1226 -1.0630
 9516SOL    HW232080  10.177   6.198   7.375  2.6910  0.0127 -0.5729
 9517SOL     OW32081   1.770   1.371   6.028  0.1935 -0.4518 -0.2764
 9517SOL    HW132082   1.686   1.355   6.071  1.0338 -0.6991  1.3479
 9517SOL    HW232083   1.747   1.403   5.941 -1.5700 -1.1861 -0.1095
 9518SOL     OW32084   7.988  11.050   4.541  0.1849  0.4075 -0.0964
 9518SOL    HW132085   8.055  11.041   4.609  2.5923 -0.4526 -2.3837
 9518SOL    HW232086   7.948  10.964   4.535 -0.7767  0.7667  0.8849
 9519SOL     OW32087   0.629   0.745   1.559  0.7759  0.1323 -0.3012
 9519SOL    HW132088   0.683   0.821   1.584 -0.1810  0.3883  1.0956
 9519SOL    HW232089   0.692   0.674   1.548  2.0196  1.5262 -3.9401
 9520SOL     OW32090  10.959   8.446   5.444  0.2433 -0.4164  0.3472
 9520SOL    HW132091  10.878   8.452   5.493  0.3922 -0.4472  0.5982
 9520SOL    HW232092  11.015   8.515   5.480  0.7345 -1.1087  0.9348
 9521SOL     OW32093   8.609   2.068   6.663  0.1036  0.8185 -0.0985
 9521SOL    HW132094   8.538   2.132   6.670 -0.6335 -0.0460  0.4573
 9521SOL    HW232095   8.590   2.019   6.583 -1.4849 -1.1994  1.3991
 9522SOL     OW32096   9.737   3.386   4.146  0.1667 -0.2605  0.1845
 9522SOL    HW132097   9.650   3.405   4.182  0.5932  0.2763  0.9583
 9522SOL    HW232098   9.737   3.427   4.060 -0.6494 -1.0172 -0.1881
 9523SOL     OW32099   9.452   5.246   7.469  0.1407 -0.3844 -0.2308
 9523SOL    HW132100   9.405   5.166   7.492  0.0111  0.2332  1.7887
 9523SOL    HW232101   9.390   5.294   7.414 -0.3862 -0.9692 -0.1673
 9524SOL     OW32102   7.783   9.699   2.185 -0.0768  0.1070  0.5879
 9524SOL    HW132103   7.758   9.790   2.167 -0.0013 -0.0467 -0.3266
 9524SOL    HW232104   7.862   9.685   2.133 -0.1546 -0.5183  0.6330
 9525SOL     OW32105   9.755   1.180   5.303  0.0258 -0.2337 -0.1055
 9525SOL    HW132106   9.785   1.090   5.312 -2.1616 -0.9665  0.3959
 9525SOL    HW232107   9.821   1.232   5.350  1.0881 -1.5907 -0.0333
 9526SOL     OW32108   3.696   1.937   2.276 -0.3181 -0.0410  0.4122
 9526SOL    HW132109   3.699   1.842   2.264  0.0742 -0.2594  1.9704
 9526SOL    HW232110   3.754   1.953   2.350 -1.8371  1.1846  1.4076
 9527SOL     OW32111  10.086   8.763   3.503 -0.3691  0.5161 -0.3291
 9527SOL    HW132112  10.003   8.733   3.465  0.0404 -0.0162 -0.8309
 9527SOL    HW232113  10.072   8.758   3.598 -0.7125 -0.1636 -0.4052
 9528SOL     OW32114   2.693  10.245   6.288  0.3734 -0.3860 -0.6230
 9528SOL    HW132115   2.782  10.240   6.252 -0.2385 -0.5296 -2.1906
 9528SOL    HW232116   2.662  10.155   6.287  0.5389 -0.4841  0.8730
 9529SOL     OW32117   3.080   0.342   6.596 -0.3020 -0.4421 -0.5423
 9529SOL    HW132118   3.018   0.334   6.669 -0.9758  0.7194 -0.9535
 9529SOL    HW232119   3.156   0.292   6.624 -0.8723 -0.7213  0.5966
 9530SOL     OW32120   1.903   4.128   7.722  0.1325 -0.3715 -0.4827
 9530SOL    HW132121   1.822   4.159   7.764  1.0253 -0.8252  1.6911
 9530SOL    HW232122   1.921   4.044   7.764  2.8072  0.6529  0.5629
 9531SOL     OW32123   4.182   4.622   4.836 -0.0696 -1.0694  0.4596
 9531SOL    HW132124   4.247   4.552   4.836  0.4996 -0.6472 -1.8297
 9531SOL    HW232125   4.204   4.675   4.759 -0.5222  1.6207  2.0744
 9532SOL     OW32126   3.513  10.573   4.015  0.1898 -0.2062  0.6601
 9532SOL    HW132127   3.453  10.614   4.077 -0.6153  1.3099 -1.0372
 9532SOL    HW232128   3.466  10.496   3.984 -0.4231  0.3426  0.1948
 9533SOL     OW32129   9.267   8.589   1.579  0.3770 -0.2447  0.5450
 9533SOL    HW132130   9.272   8.571   1.673  0.9086 -2.6007  0.1246
 9533SOL    HW232131   9.182   8.632   1.567 -0.0439 -0.6380  1.9891
 9534SOL     OW32132  10.315   4.621   9.585  0.1067 -0.0136  0.3721
 9534SOL    HW132133  10.321   4.688   9.654 -0.7361  0.3648  0.0844
 9534SOL    HW232134  10.226   4.587   9.592  0.7325 -1.6497  0.9883
 9535SOL     OW32135   5.258   7.413   2.972  0.1951 -0.3518  0.1810
 9535SOL    HW132136   5.268   7.344   3.038  1.2685  1.3941  1.9399
 9535SOL    HW232137   5.180   7.461   2.998  0.6439  0.3700  0.2209
 9536SOL     OW32138   1.845   8.309   2.290  0.2529 -0.0766  0.3899
 9536SOL    HW132139   1.770   8.250   2.300  1.8383 -1.8275  2.9755
 9536SOL    HW232140   1.845   8.361   2.371  3.0266 -1.7014  1.5592
 9537SOL     OW32141  10.167   9.922   7.071  0.4244  0.2585  0.3660
 9537SOL    HW132142  10.080   9.883   7.061 -0.6354  2.3382  0.8046
 9537SOL    HW232143  10.216   9.891   6.996 -0.5010 -1.4158  0.4054
 9538SOL     OW32144   9.568   0.572  10.795 -0.1363  0.3132 -0.2715
 9538SOL    HW132145   9.509   0.595  10.867 -1.4335  1.0897 -1.5221
 9538SOL    HW232146   9.648   0.621  10.814 -0.5514  0.7106  0.5104
 9539SOL     OW32147   9.933   6.786   0.344 -0.3426 -0.2713 -0.0782
 9539SOL    HW132148   9.977   6.864   0.376  0.5322 -0.5265 -0.6276
 9539SOL    HW232149   9.847   6.789   0.385  0.1507  0.2798  0.9605
 9540SOL     OW32150   4.538   1.978   5.455 -0.2943 -0.5870 -0.2657
 9540SOL    HW132151   4.485   1.912   5.501 -0.9907 -0.2171 -0.5212
 9540SOL    HW232152   4.508   2.062   5.491 -0.2758 -0.3412 -0.8229
 9541SOL     OW32153   3.463   3.915  10.832  0.7685 -0.2352  0.4176
 9541SOL    HW132154   3.428   3.849  10.892  0.1409  0.0340  0.3585
 9541SOL    HW232155   3.548   3.938  10.868  0.3977 -0.0783  1.2068
 9542SOL     OW32156   9.331   2.566   3.117 -0.2384  0.0991 -0.0516
 9542SOL    HW132157   9.282   2.605   3.045  1.1336  2.7894  0.3212
 9542SOL    HW232158   9.290   2.601   3.196  0.8748  0.6359  0.3172
 9543SOL     OW32159   5.130   7.502   3.777 -0.1292 -0.3744  0.4863
 9543SOL    HW132160   5.202   7.524   3.718  0.5712 -2.5690  0.4398
 9543SOL    HW232161   5.166   7.517   3.864 -0.5737  1.1359  0.4492
 9544SOL     OW32162   7.913   8.369   9.549 -0.3132  0.2963  0.4528
 9544SOL    HW132163   7.905   8.355   9.643  0.4128 -0.6596  0.3844
 9544SOL    HW232164   7.826   8.350   9.514 -0.2442 -0.6751  0.7838
 9545SOL     OW32165   0.352   5.172   5.135  0.5912  0.0268  0.0828
 9545SOL    HW132166   0.391   5.247   5.090 -0.9155 -1.1121 -3.5386
 9545SOL    HW232167   0.259   5.195   5.145  0.3476 -0.8415 -0.0224
 9546SOL     OW32168   0.393   0.209   4.930  0.3563  0.1972 -0.4641
 9546SOL    HW132169   0.325   0.186   4.866  0.1073  1.0392 -0.5077
 9546SOL    HW232170   0.352   0.274   4.987  1.4412  1.4928 -1.1153
 9547SOL     OW32171   2.458   1.781   7.332 -0.0295 -0.1851 -0.5063
 9547SOL    HW132172   2.474   1.727   7.409 -0.0025 -0.7484 -0.8968
 9547SOL    HW232173   2.366   1.766   7.310  0.1132 -0.4831 -0.9216
 9548SOL     OW32174   7.855   1.565  10.738  0.2585  0.2530 -0.5017
 9548SOL    HW132175   7.924   1.499  10.729  0.3498  0.2390  0.1872
 9548SOL    HW232176   7.883   1.637  10.682  1.3856  0.6775  0.5644
 9549SOL     OW32177   6.067   2.989   7.489  0.2947 -0.0985 -0.1152
 9549SOL    HW132178   6.112   2.907   7.467  1.5910  0.2368  1.2328
 9549SOL    HW232179   6.058   2.987   7.584 -0.1355  1.0945 -0.1199
 9550SOL     OW32180   4.994   2.643   3.689  0.5798 -0.3358  0.2563
 9550SOL    HW132181   5.011   2.689   3.771 -0.1070 -2.1862  1.5067
 9550SOL    HW232182   4.912   2.682   3.656  1.0854  0.7067  0.1936
 9551SOL     OW32183   6.262   9.172   3.251 -0.1203 -0.6305 -0.0967
 9551SOL    HW132184   6.264   9.146   3.159 -0.6382 -0.4367 -0.1644
 9551SOL    HW232185   6.295   9.096   3.298  0.0488 -0.7699 -0.4331
 9552SOL     OW32186   3.237   9.822   2.720 -0.3287  0.3074 -0.4075
 9552SOL    HW132187   3.154   9.848   2.761 -0.0765  0.2692  0.1372
 9552SOL    HW232188   3.214   9.806   2.628 -0.6978  1.4496 -0.5391
 9553SOL     OW32189   2.196  10.480   0.228 -0.1567  0.5270 -0.4042
 9553SOL    HW132190   2.199  10.482   0.323 -0.9657 -0.2195 -0.3454
 9553SOL    HW232191   2.219  10.390   0.205 -2.3191 -0.0100 -0.7568
 9554SOL     OW32192   9.232   4.346   6.622 -0.0334 -0.2960 -0.0599
 9554SOL    HW132193   9.198   4.260   6.646  1.6742 -0.8939  0.4024
 9554SOL    HW232194   9.157   4.405   6.629 -1.2832 -1.7679 -0.5598
 9555SOL     OW32195   3.798   8.711   3.429  0.0399 -0.3568 -0.5132
 9555SOL    HW132196   3.840   8.731   3.513  0.7580  0.3224 -1.0189
 9555SOL    HW232197   3.803   8.616   3.422  1.0334 -0.3321 -0.3161
 9556SOL     OW32198  10.627   5.811   9.468 -0.2126 -0.2489  0.4073
 9556SOL    HW132199  10.687   5.753   9.421  0.1985  0.3426  0.1906
 9556SOL    HW232200  10.554   5.824   9.408 -0.4818 -0.8287  0.6009
 9557SOL     OW32201   3.367   2.760   6.871 -0.3374 -0.6539 -0.4611
 9557SOL    HW132202   3.396   2.797   6.954 -1.5031  0.7136 -0.6245
 9557SOL    HW232203   3.443   2.712   6.838  0.1698 -1.1690  1.3394
 9558SOL     OW32204   9.094   0.193   8.395  0.9230  0.7430 -0.3008
 9558SOL    HW132205   9.103   0.160   8.306  0.0163  0.5689 -0.3468
 9558SOL    HW232206   8.999   0.194   8.410  1.0863 -1.6826  1.5702
 9559SOL     OW32207   2.509   6.915   5.777  0.4145  0.0823  0.0188
 9559SOL    HW132208   2.544   6.962   5.701 -0.4743  0.9606  0.1341
 9559SOL    HW232209   2.491   6.984   5.842  0.2189 -0.5469  0.6484
 9560SOL     OW32210   4.794   0.466   2.914  0.3810  0.1691  0.4299
 9560SOL    HW132211   4.807   0.476   2.819 -0.9852  0.5018  0.2568
 9560SOL    HW232212   4.826   0.378   2.933  1.8332  0.5412 -0.1050
 9561SOL     OW32213   4.448   2.284   5.381  1.0715 -0.4144 -0.0405
 9561SOL    HW132214   4.514   2.326   5.326 -0.9214  1.0420 -1.4391
 9561SOL    HW232215   4.377   2.261   5.322  0.0538 -1.4499  1.4863
 9562SOL     OW32216   8.566   3.872   9.115 -0.4945  0.0597  0.5854
 9562SOL    HW132217   8.605   3.959   9.103 -0.1872 -0.1923 -0.2900
 9562SOL    HW232218   8.545   3.869   9.208  0.7673  0.5522  0.9214
 9563SOL     OW32219  11.066   3.939   2.628 -0.4340 -0.0185 -0.5494
 9563SOL    HW132220  11.092   3.999   2.698  0.1173 -1.2209  0.3248
 9563SOL    HW232221  10.974   3.919   2.647 -0.8748  1.1878 -1.3428
 9564SOL     OW32222   2.231   2.338  11.011 -0.1792  0.1976 -0.2636
 9564SOL    HW132223   2.292   2.409  11.025  0.4133 -0.0226 -1.5150
 9564SOL    HW232224   2.145   2.376  11.027  0.1209  1.2336 -1.0004
 9565SOL     OW32225   4.570   5.818   7.417 -0.7075 -0.9667  0.3084
 9565SOL    HW132226   4.629   5.893   7.411  1.1661 -2.2797  1.2890
 9565SOL    HW232227   4.485   5.852   7.389  0.3122  1.2179 -0.3452
 9566SOL     OW32228   1.258   2.672   8.120  0.1638  0.3552  0.2101
 9566SOL    HW132229   1.301   2.629   8.046 -0.3327  1.4531 -0.7434
 9566SOL    HW232230   1.317   2.744   8.143 -0.6006  1.1976 -0.3931
 9567SOL     OW32231   6.072   7.373   4.784 -0.2182 -0.0965  0.0462
 9567SOL    HW132232   6.123   7.403   4.859 -1.6664  1.7704  0.3504
 9567SOL    HW232233   6.053   7.281   4.803  1.5188 -0.3396  0.7407
 9568SOL     OW32234   0.339   3.981   1.980  0.1721  0.1936 -0.0618
 9568SOL    HW132235   0.363   3.904   1.929  0.7730  0.5819 -0.3728
 9568SOL    HW232236   0.422   4.017   2.011 -0.1255  0.5136  0.3807
 9569SOL     OW32237   2.895   1.951   5.775 -0.1044 -0.3721 -0.0446
 9569SOL    HW132238   2.979   1.934   5.817  1.0590 -0.2526 -2.1707
 9569SOL    HW232239   2.909   2.031   5.724 -2.0652  0.6460  0.9172
 9570SOL     OW32240   0.639   7.945   9.940 -0.0464 -0.0716 -0.3343
 9570SOL    HW132241   0.626   7.888   9.865 -1.7785 -0.1837  0.0095
 9570SOL    HW232242   0.642   7.886  10.015 -2.5751  0.2411  0.1041
 9571SOL     OW32243   6.580   4.525   5.540 -0.0040 -0.0839 -0.3939
 9571SOL    HW132244   6.585   4.535   5.635 -0.9464 -1.8419 -0.1140
 9571SOL    HW232245   6.528   4.600   5.511 -0.7385 -0.1609  0.6437
 9572SOL     OW32246   3.254   9.249  10.977 -0.0408  0.3983  0.2517
 9572SOL    HW132247   3.202   9.169  10.972  0.8152 -0.1161 -0.9806
 9572SOL    HW232248   3.322   9.229  11.041 -0.2585  0.4037  0.4848
 9573SOL     OW32249   3.615   4.951   8.458  0.1166 -0.3959  0.3119
 9573SOL    HW132250   3.647   4.875   8.409 -0.5406  0.4456 -1.5054
 9573SOL    HW232251   3.649   5.026   8.410 -0.4259  0.4765  1.2560
 9574SOL     OW32252   6.471  10.642   9.896 -0.0361  0.1584  0.6216
 9574SOL    HW132253   6.436  10.554   9.881  2.1888 -0.5377 -0.9827
 9574SOL    HW232254   6.496  10.642   9.989 -0.2095 -0.8482  0.6824
 9575SOL     OW32255  10.622   0.796   6.991 -0.1390 -0.3893 -0.1432
 9575SOL    HW132256  10.658   0.816   7.078  0.3032 -0.9931 -0.1846
 9575SOL    HW232257  10.616   0.701   6.988 -0.6118 -0.3499 -0.5977
 9576SOL     OW32258   9.595   7.791   3.323  0.4428 -0.1451 -0.6010
 9576SOL    HW132259   9.564   7.839   3.400 -1.1017 -0.3335 -1.0796
 9576SOL    HW232260   9.617   7.859   3.260  2.1049  0.0279  0.1068
 9577SOL     OW32261   3.348   0.731   6.811 -0.3855 -0.5179 -0.0916
 9577SOL    HW132262   3.314   0.655   6.859 -0.0710  1.0469  2.7699
 9577SOL    HW232263   3.277   0.755   6.752 -1.4084 -1.6111  0.6428
 9578SOL     OW32264   2.756   6.517   5.166  0.1519  0.4177 -0.5071
 9578SOL    HW132265   2.802   6.512   5.082  0.6673 -0.7004 -0.1770
 9578SOL    HW232266   2.825   6.538   5.229 -0.1880  0.9690 -0.3134
 9579SOL     OW32267   0.401   2.592   7.068 -0.0953  0.2573  0.0231
 9579SOL    HW132268   0.447   2.660   7.118  0.2525  0.1341 -0.1292
 9579SOL    HW232269   0.309   2.602   7.093  0.3651 -1.5193  2.7147
 9580SOL     OW32270   1.424   7.416   9.098 -0.2727  0.2562 -0.2872
 9580SOL    HW132271   1.443   7.472   9.174 -1.6193 -2.2373  2.0515
 9580SOL    HW232272   1.500   7.359   9.090 -0.5327 -0.1137 -0.1720
 9581SOL     OW32273   5.897   6.723   5.972 -0.6398  0.1982  0.7736
 9581SOL    HW132274   5.922   6.705   5.881 -1.9777  0.7873  0.2552
 9581SOL    HW232275   5.959   6.791   6.001 -1.2339  1.2330 -0.2816
 9582SOL     OW32276   1.290   3.417   5.028  0.4867  0.4336 -0.4805
 9582SOL    HW132277   1.211   3.364   5.044  1.9263 -1.2011  1.8359
 9582SOL    HW232278   1.262   3.507   5.047 -0.3994 -0.3434  2.4772
 9583SOL     OW32279   1.330   4.323   1.806  0.1415 -0.0528 -0.4048
 9583SOL    HW132280   1.370   4.260   1.866  0.5940 -0.0456 -0.6954
 9583SOL    HW232281   1.310   4.399   1.860 -2.4301 -1.2269  0.4563
 9584SOL     OW32282   1.802   6.388   0.532  0.3236 -0.1388 -0.9173
 9584SOL    HW132283   1.810   6.391   0.437 -2.9845  1.1895 -1.2678
 9584SOL    HW232284   1.732   6.325   0.548 -0.3765  0.9616  0.5033
 9585SOL     OW32285   6.534   8.158   3.554 -0.2581 -0.0113  0.4790
 9585SOL    HW132286   6.629   8.158   3.561 -0.3547  0.6149  2.6531
 9585SOL    HW232287   6.507   8.081   3.604 -0.8923 -0.4597 -0.5347
 9586SOL     OW32288   0.288   0.366   0.676 -0.5915  0.1609 -0.3613
 9586SOL    HW132289   0.253   0.325   0.596 -1.3820 -1.3182  0.6771
 9586SOL    HW232290   0.212   0.370   0.735 -0.2534  2.1369  0.0057
 9587SOL     OW32291   3.636   2.695   1.568 -0.3006 -0.5176 -0.0472
 9587SOL    HW132292   3.708   2.730   1.620 -0.3979  2.3454 -1.6512
 9587SOL    HW232293   3.573   2.664   1.633  0.4698  1.0119  1.5168
 9588SOL     OW32294  10.042   5.018  10.642  0.3831 -0.5569 -0.0805
 9588SOL    HW132295   9.995   5.102  10.644  1.8051  0.2973  2.5006
 9588SOL    HW232296  10.117   5.034  10.586  1.4247  0.4434  1.5120
 9589SOL     OW32297   0.916   9.291   3.795 -0.4002 -0.0830 -0.2492
 9589SOL    HW132298   0.962   9.306   3.877 -1.2065  1.0741  0.0157
 9589SOL    HW232299   0.973   9.231   3.746  2.5173  2.9045 -0.8570
 9590SOL     OW32300   6.346   6.326   6.555 -0.3765  0.4233 -0.4411
 9590SOL    HW132301   6.326   6.416   6.532  2.4089  0.8064 -1.7987
 9590SOL    HW232302   6.385   6.331   6.642 -0.2423  0.5193 -0.5074
 9591SOL     OW32303   5.345   8.884   6.755  0.0484  0.0485 -0.6468
 9591SOL    HW132304   5.394   8.868   6.835 -0.6036 -0.3256 -0.3131
 9591SOL    HW232305   5.392   8.955   6.711  0.1193  0.6180  0.3256
 9592SOL     OW32306  10.730   7.621   6.339 -0.2000 -0.2066  0.5673
 9592SOL    HW132307  10.638   7.599   6.326 -0.5894  2.4664 -2.4128
 9592SOL    HW232308  10.772   7.599   6.256  0.9907  2.1259  0.4670
 9593SOL     OW32309   6.160   9.148   9.391 -0.1987  0.4473  0.3704
 9593SOL    HW132310   6.186   9.212   9.458  0.1125 -0.9810  1.6550
 9593SOL    HW232311   6.238   9.137   9.337  1.5964 -2.5488  3.1898
 9594SOL     OW32312   0.657   7.769  10.126 -0.5504  0.6301  0.4093
 9594SOL    HW132313   0.646   7.757  10.220 -0.0901 -1.3101  0.2646
 9594SOL    HW232314   0.642   7.682  10.089  0.6086  1.0546 -1.1778
 9595SOL     OW32315   1.294   3.017   7.779  0.4640 -0.4185 -0.7015
 9595SOL    HW132316   1.206   3.030   7.813 -0.9153 -1.2811 -3.6554
 9595SOL    HW232317   1.313   3.097   7.730  1.5360 -0.0801  0.2152
 9596SOL     OW32318   9.076   1.753   2.417 -0.1147  0.8109  0.3099
 9596SOL    HW132319   9.100   1.833   2.369  1.5595  0.9437  1.2717
 9596SOL    HW232320   9.122   1.683   2.370 -0.9281  0.5107 -0.0532
 9597SOL     OW32321   9.645   3.266   1.616 -0.4326 -0.1100 -0.0246
 9597SOL    HW132322   9.569   3.325   1.614 -0.5086 -0.2238 -0.5746
 9597SOL    HW232323   9.607   3.179   1.622 -0.3251 -0.0750  2.9204
 9598SOL     OW32324   3.445   9.948   7.327  0.2293 -0.4667 -0.1881
 9598SOL    HW132325   3.401  10.033   7.319  0.5343 -0.2367  0.5423
 9598SOL    HW232326   3.399   9.891   7.265 -0.0505  0.2012 -0.5997
 9599SOL     OW32327   4.263   8.075   1.869 -0.5019  0.1363 -0.1752
 9599SOL    HW132328   4.325   8.031   1.810  0.2959  2.7437 -1.4349
 9599SOL    HW232329   4.177   8.045   1.839  0.0032 -0.7919 -0.7741
 9600SOL     OW32330   1.088   7.522   5.184 -0.7345 -0.4064  0.4674
 9600SOL    HW132331   1.089   7.473   5.102  1.8967 -1.3993  1.0116
 9600SOL    HW232332   1.000   7.507   5.220 -1.9967  0.1594 -2.1530
 9601SOL     OW32333  10.622  10.947   6.092  0.4290  0.0022  0.2825
 9601SOL    HW132334  10.710  10.927   6.061  0.4081  0.5590 -0.1534
 9601SOL    HW232335  10.627  11.037   6.123 -0.2672  0.4701 -0.8959
 9602SOL     OW32336   7.305  11.047   3.155 -0.0198  0.5086 -0.3127
 9602SOL    HW132337   7.233  11.028   3.095 -0.4346 -0.9792  0.6095
 9602SOL    HW232338   7.342  10.962   3.176  2.6585  1.2517 -1.4548
 9603SOL     OW32339   5.443   2.558   5.826 -0.4977  0.0705  0.2501
 9603SOL    HW132340   5.522   2.603   5.795 -0.6465 -0.5435 -1.0984
 9603SOL    HW232341   5.382   2.564   5.753 -0.6028 -2.0905  0.0934
 9604SOL     OW32342   9.904   3.188   9.691  0.1107 -0.1015 -0.2794
 9604SOL    HW132343   9.853   3.248   9.635 -0.9388 -0.4760  0.2376
 9604SOL    HW232344   9.995   3.208   9.670 -0.2010  1.6015 -0.2241
 9605SOL     OW32345   0.238   0.750   5.585  0.0685  0.1762  0.4888
 9605SOL    HW132346   0.238   0.844   5.570  0.7345  0.2216  0.7259
 9605SOL    HW232347   0.164   0.734   5.643 -0.4959  0.4486 -0.1382
 9606SOL     OW32348  11.045   7.285   9.979  0.2164  0.0614  0.1508
 9606SOL    HW132349  11.032   7.248  10.067 -0.2064  0.5486  0.3049
 9606SOL    HW232350  10.964   7.334   9.962 -0.5669 -1.6615 -1.3524
 9607SOL     OW32351  11.015  10.946  10.706  0.0602  0.4346 -0.3849
 9607SOL    HW132352  10.922  10.967  10.692 -0.1989  0.8051  1.5861
 9607SOL    HW232353  11.016  10.853  10.729  0.0493  0.6382  0.4778
 9608SOL     OW32354   0.488   9.987   5.526 -0.3946 -0.2323  0.0123
 9608SOL    HW132355   0.568   9.960   5.481  0.9095  1.6344  1.0396
 9608SOL    HW232356   0.499  10.082   5.539 -2.3293 -0.1027  1.0634
 9609SOL     OW32357   1.364   2.441   9.137  0.0413 -0.4515  0.3478
 9609SOL    HW132358   1.301   2.439   9.065  0.7396 -0.7539 -0.2704
 9609SOL    HW232359   1.353   2.357   9.182 -0.7199 -0.0718  0.8930
 9610SOL     OW32360   3.260   8.954  10.099 -0.9897  0.5225  0.2555
 9610SOL    HW132361   3.251   8.907  10.182 -1.2394 -0.9554 -0.5897
 9610SOL    HW232362   3.340   9.006  10.110 -0.6786 -0.1267  1.2047
 9611SOL     OW32363   9.913   2.145   9.507  0.3234 -0.0849  0.6371
 9611SOL    HW132364   9.851   2.128   9.577 -1.1473  0.9467 -0.3554
 9611SOL    HW232365   9.977   2.205   9.546 -0.4560  0.4532  1.1203
 9612SOL     OW32366   1.086   0.909   6.292  0.2155 -0.3498 -0.2774
 9612SOL    HW132367   1.167   0.935   6.248  0.8358 -0.1360  0.9719
 9612SOL    HW232368   1.082   0.963   6.371 -0.8541 -0.7647 -0.0257
 9613SOL     OW32369   0.931  10.209   8.701  0.0028 -0.2160 -0.0998
 9613SOL    HW132370   0.886  10.145   8.756  0.6931  2.2992  3.7779
 9613SOL    HW232371   1.020  10.175   8.693 -0.4523 -1.2778 -0.9367
 9614SOL     OW32372   6.718   6.534   7.318  0.1584 -0.5110  0.5196
 9614SOL    HW132373   6.771   6.454   7.321  1.1207 -0.0676 -2.0394
 9614SOL    HW232374   6.770   6.599   7.365  0.7893 -0.6682  0.0535
 9615SOL     OW32375   1.420   7.156   8.768  0.1033 -0.0117 -0.3208
 9615SOL    HW132376   1.339   7.184   8.726 -0.4026  0.0564  0.6693
 9615SOL    HW232377   1.486   7.218   8.737 -0.6566  1.2604  0.5236
 9616SOL     OW32378   7.721   4.069   1.980 -0.1997 -0.0531 -0.3827
 9616SOL    HW132379   7.700   4.133   1.913  1.9681  0.1093 -0.9936
 9616SOL    HW232380   7.644   4.066   2.037 -1.7484  0.4349 -2.3631
 9617SOL     OW32381   8.036   9.930   2.496  0.2879 -0.0380  0.0485
 9617SOL    HW132382   8.105   9.933   2.562  1.3426  1.6454 -1.0387
 9617SOL    HW232383   8.081   9.903   2.416 -0.2028  1.4296 -0.7555
 9618SOL     OW32384   2.138   1.074  10.140 -0.5870 -0.0517  0.6505
 9618SOL    HW132385   2.101   1.154  10.103  0.0854  0.1538  0.4262
 9618SOL    HW232386   2.197   1.041  10.073 -0.4049 -0.4185  0.9878
 9619SOL     OW32387   9.394   8.920   6.771 -0.3901  0.2725 -0.3196
 9619SOL    HW132388   9.386   8.953   6.682 -0.3615  0.1016 -0.3853
 9619SOL    HW232389   9.416   8.997   6.823  0.4446  0.2296 -0.5911
 9620SOL     OW32390   2.503   9.645   2.932 -0.1042  0.2182  0.4532
 9620SOL    HW132391   2.572   9.707   2.909 -0.3666  0.5739  0.6134
 9620SOL    HW232392   2.538   9.597   3.007  0.7098 -0.8728 -0.5870
 9621SOL     OW32393   2.288   9.646   0.214  0.5155 -0.3896 -0.0335
 9621SOL    HW132394   2.204   9.647   0.169  0.0974 -0.3730  0.7210
 9621SOL    HW232395   2.353   9.630   0.145 -0.0753 -0.1182 -0.6660
 9622SOL     OW32396   0.055   3.893   9.219  0.4203 -0.0132  0.5106
 9622SOL    HW132397  -0.023   3.903   9.164 -0.1804  0.3765  1.4035
 9622SOL    HW232398   0.021   3.895   9.308  1.3911 -0.5116  0.9041
 9623SOL     OW32399   8.413   5.053   7.735  0.4816  0.0279  0.7261
 9623SOL    HW132400   8.393   5.129   7.681 -0.9062  0.5290  1.8974
 9623SOL    HW232401   8.492   5.079   7.784  0.9844  0.0601 -0.0880
 9624SOL     OW32402   6.339   4.978   5.935 -0.3399 -0.7817  0.2111
 9624SOL    HW132403   6.353   5.041   5.864  0.1142 -3.3309 -2.1205
 9624SOL    HW232404   6.407   4.999   6.000  2.0516 -0.9272 -2.0934
 9625SOL     OW32405   2.535   9.926   2.773 -0.2614 -0.4887  0.6982
 9625SOL    HW132406   2.608   9.872   2.742 -0.5408 -0.6443  0.3086
 9625SOL    HW232407   2.471   9.922   2.703 -1.0867 -1.1939  1.4591
 9626SOL     OW32408   2.024   0.357   9.223  0.2948 -0.1048 -0.0005
 9626SOL    HW132409   2.024   0.423   9.292 -1.6133  0.5916 -0.6015
 9626SOL    HW232410   2.066   0.400   9.149 -0.3182  0.2329 -0.1683
 9627SOL     OW32411   9.063  10.313   9.388  0.0239  0.6293  0.4210
 9627SOL    HW132412   8.980  10.346   9.354  0.3848 -0.9255 -2.2078
 9627SOL    HW232413   9.042  10.281   9.476 -2.2202  0.0359 -0.2739
 9628SOL     OW32414   1.340   4.987   4.074  0.0768  0.5395  0.1799
 9628SOL    HW132415   1.410   5.052   4.078 -0.1875  0.9706 -1.5124
 9628SOL    HW232416   1.295   5.005   3.991 -0.6526 -1.1345  0.1726
 9629SOL     OW32417   3.050  10.657   7.199  0.2075  0.5113 -0.4228
 9629SOL    HW132418   3.014  10.650   7.111 -0.5511  0.8881 -0.1465
 9629SOL    HW232419   3.128  10.600   7.197 -1.1158 -1.3858 -0.6649
 9630SOL     OW32420   4.940   5.080   1.884  0.2034 -0.5681  0.1519
 9630SOL    HW132421   4.969   5.071   1.975  2.3597 -0.5163 -0.4801
 9630SOL    HW232422   4.942   5.174   1.867 -3.2804 -0.2054  0.8979
 9631SOL     OW32423   8.088   7.136   1.959 -0.1624  0.4040 -0.4481
 9631SOL    HW132424   8.165   7.175   2.001  1.5516 -0.7927 -2.2991
 9631SOL    HW232425   8.096   7.161   1.867  0.0035 -2.6918 -1.3650
 9632SOL     OW32426   6.032   6.540   3.984 -0.1341  0.4069 -0.2541
 9632SOL    HW132427   5.988   6.624   3.978 -3.3225 -1.0033  1.0006
 9632SOL    HW232428   6.055   6.518   3.894  1.3743  2.8360 -0.5243
 9633SOL     OW32429   9.121   5.874   4.706  0.1984 -0.4341 -0.0212
 9633SOL    HW132430   9.114   5.779   4.712 -0.2528 -0.3678  0.6701
 9633SOL    HW232431   9.192   5.889   4.644 -0.0872 -1.2178 -0.5589
 9634SOL     OW32432   5.752  10.767   4.675  0.1901  0.0670 -0.4811
 9634SOL    HW132433   5.743  10.692   4.616  0.2845 -0.7811  0.5315
 9634SOL    HW232434   5.759  10.727   4.762 -2.7126  1.3157  0.4426
 9635SOL     OW32435   0.844   2.720   3.725 -0.0140  0.4587 -0.5947
 9635SOL    HW132436   0.894   2.720   3.806  2.6130  0.9051 -2.1019
 9635SOL    HW232437   0.840   2.628   3.699  0.1734  0.4392 -0.5539
 9636SOL     OW32438   7.679   1.879   4.757 -0.0215 -0.1225 -0.1515
 9636SOL    HW132439   7.707   1.970   4.753 -1.1341  0.3003  1.0171
 9636SOL    HW232440   7.702   1.843   4.671  2.0798  0.7405 -0.0160
 9637SOL     OW32441   9.464   6.047   9.674 -0.0027 -0.4697 -0.4794
 9637SOL    HW132442   9.403   5.973   9.669 -0.5840 -0.4583  3.2362
 9637SOL    HW232443   9.505   6.038   9.760  1.4580  2.4068 -0.7502
 9638SOL     OW32444   9.877   0.216   8.407 -0.1251  0.2280 -0.0007
 9638SOL    HW132445   9.970   0.202   8.389 -0.1957  0.5525 -0.6179
 9638SOL    HW232446   9.876   0.273   8.484  0.1813  0.0551  0.1343
 9639SOL     OW32447   6.416   5.690   2.566 -0.2448 -0.1201  0.4694
 9639SOL    HW132448   6.407   5.742   2.646 -0.1702  0.4498  0.1130
 9639SOL    HW232449   6.510   5.678   2.556 -0.2708 -0.4902  0.6532
 9640SOL     OW32450  10.426   8.300  10.545 -0.0414  0.4675 -0.2895
 9640SOL    HW132451  10.445   8.281  10.636  2.0893  2.1206 -0.3091
 9640SOL    HW232452  10.372   8.379  10.547  1.4944  1.5716 -0.4299
 9641SOL     OW32453  10.959   7.047   5.416  0.1865 -0.9899 -0.8791
 9641SOL    HW132454  10.904   7.065   5.493 -0.3732  0.7401 -1.6268
 9641SOL    HW232455  10.929   6.961   5.386  0.4759 -1.7519  0.8522
 9642SOL     OW32456   5.720   1.249   1.708 -0.1548  0.2068  0.3044
 9642SOL    HW132457   5.627   1.235   1.695 -0.5317  0.1831  2.6268
 9642SOL    HW232458   5.756   1.161   1.720  0.2258  0.2028 -0.7278
 9643SOL     OW32459  10.777   4.925   7.820 -0.5743  0.2137 -0.1616
 9643SOL    HW132460  10.800   4.921   7.727 -0.0454  0.4237 -0.0442
 9643SOL    HW232461  10.681   4.932   7.821 -0.4420  3.1756 -0.7899
 9644SOL     OW32462  10.446   5.247   3.490  0.2581 -0.4094 -0.0305
 9644SOL    HW132463  10.487   5.191   3.556  0.0597  0.9454  1.2956
 9644SOL    HW232464  10.459   5.336   3.523 -1.3713  0.2085 -0.9583
 9645SOL     OW32465   5.074   6.633   6.850 -0.5196  0.3807 -0.2843
 9645SOL    HW132466   5.050   6.591   6.768  0.4059  0.1596 -0.4556
 9645SOL    HW232467   5.074   6.563   6.915  2.5238 -0.2840 -0.8611
 9646SOL     OW32468   4.250   1.167   3.213  0.6192  0.7231 -0.1833
 9646SOL    HW132469   4.300   1.248   3.223 -1.2910  1.8691  0.5708
 9646SOL    HW232470   4.243   1.132   3.302  2.4625 -0.9954 -0.6342
 9647SOL     OW32471   0.652  10.551  10.383  0.0044  0.0512 -0.1476
 9647SOL    HW132472   0.557  10.544  10.377 -0.0984  0.4599  0.7435
 9647SOL    HW232473   0.685  10.501  10.308 -0.8959 -0.5169 -0.1821
 9648SOL     OW32474   1.300   2.514   0.126 -0.0355  0.5197  0.1455
 9648SOL    HW132475   1.321   2.600   0.090  1.9141  0.5558  1.2316
 9648SOL    HW232476   1.312   2.453   0.053 -0.8412  1.0803 -0.4684
 9649SOL     OW32477   8.889  10.732   8.487  0.0870  0.5043  0.1660
 9649SOL    HW132478   8.944  10.669   8.441  0.0487  0.3598  0.3184
 9649SOL    HW232479   8.929  10.817   8.467  0.0399  0.4488 -0.1773
 9650SOL     OW32480   7.171   3.427   6.355 -0.8795 -0.0850  0.4724
 9650SOL    HW132481   7.152   3.521   6.356 -1.2221 -0.1134 -1.0148
 9650SOL    HW232482   7.267   3.422   6.359 -0.8454  0.3363  0.2314
 9651SOL     OW32483  10.819   3.570   8.227  0.0512  0.4153  0.3800
 9651SOL    HW132484  10.820   3.524   8.144 -3.7366  4.3505 -2.2288
 9651SOL    HW232485  10.881   3.642   8.215  0.7391  0.0847  1.7130
 9652SOL     OW32486   3.016  10.055   5.331  0.0550 -0.3451 -0.4678
 9652SOL    HW132487   3.047  10.112   5.261  0.4503 -0.0638 -0.0710
 9652SOL    HW232488   2.973  10.113   5.393  3.5441  0.1910  1.7630
 9653SOL     OW32489   8.149   0.036   0.318 -0.2146 -0.6184  0.4667
 9653SOL    HW132490   8.220   0.082   0.363 -0.6584 -0.3316  0.8899
 9653SOL    HW232491   8.155  -0.055   0.348 -0.0006 -0.6016  0.4697
 9654SOL     OW32492   2.843   2.808   4.056 -0.2108  0.2920  0.5285
 9654SOL    HW132493   2.818   2.758   4.133 -0.0278  0.7231  0.8682
 9654SOL    HW232494   2.903   2.751   4.008  1.1511  0.7430  1.6512
 9655SOL     OW32495   9.203   8.111   4.559  0.0100  0.1419 -0.0286
 9655SOL    HW132496   9.263   8.123   4.633 -0.7079  0.1196  0.5683
 9655SOL    HW232497   9.169   8.022   4.569 -0.1775  0.1764 -0.3239
 9656SOL     OW32498   0.576   1.482   3.407 -0.8268  0.0270  0.0186
 9656SOL    HW132499   0.513   1.470   3.336 -0.6223  0.1130 -0.1776
 9656SOL    HW232500   0.522   1.504   3.484 -0.9781  1.2596 -0.4078
 9657SOL     OW32501   6.681   6.440   3.818  0.4251  0.4341  0.8893
 9657SOL    HW132502   6.592   6.426   3.786  1.2162  0.3170 -1.4445
 9657SOL    HW232503   6.670   6.497   3.894 -1.5065  2.4633 -0.7596
 9658SOL     OW32504   8.823   9.056   5.477 -0.1456 -0.0289  0.3236
 9658SOL    HW132505   8.797   9.001   5.551  1.2332 -1.4437 -0.1916
 9658SOL    HW232506   8.746   9.056   5.419 -1.0714  0.7227  1.4981
 9659SOL     OW32507   2.841   8.765   1.027 -0.4888  0.0991 -0.1132
 9659SOL    HW132508   2.774   8.784   0.961  1.2667  0.6257 -1.8367
 9659SOL    HW232509   2.901   8.704   0.983 -0.7622 -1.8082  2.0085
 9660SOL     OW32510   6.506   9.057   5.629  0.0270 -0.2594  0.1193
 9660SOL    HW132511   6.534   9.143   5.599 -0.9238 -0.3147 -0.9958
 9660SOL    HW232512   6.582   9.022   5.677  0.4299  1.1671  0.5639
 9661SOL     OW32513   1.812   9.647   7.804 -1.0817 -0.2858  0.8394
 9661SOL    HW132514   1.776   9.602   7.880  0.4417 -1.0885  1.1248
 9661SOL    HW232515   1.787   9.592   7.729 -1.5688 -0.1228  0.8775
 9662SOL     OW32516   3.369   3.451   4.862  0.3189 -0.9028 -0.3435
 9662SOL    HW132517   3.289   3.492   4.828  0.9017  1.7651  1.1980
 9662SOL    HW232518   3.339   3.375   4.910 -1.2776 -0.1601 -0.1163
 9663SOL     OW32519   7.406  11.095   6.328 -0.5776  0.4310 -0.0951
 9663SOL    HW132520   7.350  11.023   6.299  0.6951 -0.5893 -0.1064
 9663SOL    HW232521   7.347  11.152   6.378 -1.6157 -0.6168 -0.0756
 9664SOL     OW32522   6.846  10.225   9.722 -0.8430  0.3429 -0.4904
 9664SOL    HW132523   6.894  10.162   9.775 -0.8447  1.8959  1.4574
 9664SOL    HW232524   6.901  10.238   9.645 -0.4964 -1.4445 -0.6010
 9665SOL     OW32525   9.980  10.490   9.709  0.5890 -0.1114  0.3806
 9665SOL    HW132526   9.972  10.423   9.778 -0.3545 -1.2115 -0.7404
 9665SOL    HW232527   9.898  10.539   9.714  0.3213 -0.4861 -0.2309
 9666SOL     OW32528  10.968   2.085   9.460 -0.1314 -0.0829 -0.2931
 9666SOL    HW132529  10.916   2.165   9.457 -0.3616 -0.2406 -3.4066
 9666SOL    HW232530  10.929   2.027   9.395  1.0265 -2.1414  0.7049
 9667SOL     OW32531   8.600   2.040   3.022 -0.3031  0.2963  0.7499
 9667SOL    HW132532   8.649   2.118   3.047 -0.1832  0.0777  1.1863
 9667SOL    HW232533   8.544   2.021   3.098 -1.5939  0.9580  0.0174
 9668SOL     OW32534   0.167   5.161   6.458  0.4192 -0.3843 -0.0246
 9668SOL    HW132535   0.118   5.191   6.535 -1.3974 -2.5446 -0.2618
 9668SOL    HW232536   0.142   5.222   6.389 -0.6559 -0.4978  0.2553
 9669SOL     OW32537   3.878   5.016   4.334 -0.3449 -0.1205  0.5156
 9669SOL    HW132538   3.966   5.048   4.357 -0.5851  2.1991 -1.4914
 9669SOL    HW232539   3.819   5.073   4.384 -0.7422 -0.5944  0.5852
 9670SOL     OW32540   3.644   9.209   3.305 -0.0548  0.2077 -0.1227
 9670SOL    HW132541   3.696   9.159   3.243 -1.2062  1.4074 -2.1605
 9670SOL    HW232542   3.612   9.144   3.368  2.9208 -0.7136  0.5890
 9671SOL     OW32543  10.591   7.926   5.261  0.1564  0.1697  0.2690
 9671SOL    HW132544  10.559   7.918   5.350  2.2954 -1.6840  0.9878
 9671SOL    HW232545  10.560   7.846   5.217  1.3887 -0.2978  0.2043
 9672SOL     OW32546   4.980   1.733   4.365 -0.3267 -0.5424 -0.4991
 9672SOL    HW132547   4.911   1.703   4.306 -0.3372 -0.1223 -0.7032
 9672SOL    HW232548   4.962   1.826   4.378 -1.0252 -0.8806  1.1372
 9673SOL     OW32549   4.732   0.108   2.234 -1.0390 -0.0241 -0.0177
 9673SOL    HW132550   4.803   0.079   2.291 -0.5847 -0.6653 -0.8852
 9673SOL    HW232551   4.776   0.138   2.155 -1.7266 -0.2053 -0.4694
 9674SOL     OW32552   4.279   7.224   3.158  0.1626 -0.3444 -0.2193
 9674SOL    HW132553   4.328   7.151   3.120 -1.1240 -1.1095 -0.4735
 9674SOL    HW232554   4.347   7.282   3.193  1.3776 -0.0267 -2.8757
 9675SOL     OW32555   3.888   3.715   4.832  0.4662  0.0565  0.7103
 9675SOL    HW132556   3.849   3.691   4.917 -0.9141  0.2047  0.1433
 9675SOL    HW232557   3.819   3.697   4.768  0.6145  2.2469 -0.1284
 9676SOL     OW32558  10.802   4.218   6.146  0.3508 -0.1168 -0.1412
 9676SOL    HW132559  10.707   4.223   6.145  0.2912 -1.0171 -1.5974
 9676SOL    HW232560  10.830   4.309   6.155 -0.6246  0.0774  1.2074
 9677SOL     OW32561   7.436   4.793   2.774 -0.2612 -0.0762 -0.8853
 9677SOL    HW132562   7.346   4.768   2.754 -0.6497 -0.4134  1.0362
 9677SOL    HW232563   7.448   4.877   2.730 -1.2378 -0.4032 -1.8195
 9678SOL     OW32564   1.079   9.388   4.408 -0.2131  0.3949  0.4013
 9678SOL    HW132565   1.071   9.443   4.486 -0.4495  0.3516  0.4081
 9678SOL    HW232566   1.161   9.340   4.421  0.1638  0.9808  0.2401
 9679SOL     OW32567   6.917   4.407   0.266 -0.2339  0.1399  0.1684
 9679SOL    HW132568   6.940   4.325   0.223 -1.2211  0.2254 -0.5676
 9679SOL    HW232569   6.921   4.473   0.197  1.1165  0.8389  0.8706
 9680SOL     OW32570   4.959   2.272   0.569 -0.1333  0.3434 -0.5859
 9680SOL    HW132571   5.049   2.252   0.544  0.1912  0.1433  0.6584
 9680SOL    HW232572   4.965   2.357   0.614 -0.2064 -0.6215  1.3386
 9681SOL     OW32573   1.300   0.795   1.431 -0.6787  0.2156  0.1944
 9681SOL    HW132574   1.351   0.843   1.365 -1.7265  1.6907  0.4040
 9681SOL    HW232575   1.212   0.830   1.423 -0.4603  2.0690  3.7788
 9682SOL     OW32576   5.123   1.658   8.129 -0.6523 -0.0434 -0.1313
 9682SOL    HW132577   5.050   1.618   8.178 -0.3059 -0.7492 -0.1864
 9682SOL    HW232578   5.122   1.750   8.157 -2.1453  0.1928 -0.8272
 9683SOL     OW32579   9.169   7.474  10.051 -0.1647  0.4330  0.0358
 9683SOL    HW132580   9.226   7.514  10.117  0.2910 -1.0278  0.5537
 9683SOL    HW232581   9.206   7.387  10.037 -0.5428  0.5376 -1.8070
 9684SOL     OW32582   8.262   2.388   3.124 -0.0205  0.1447 -0.0551
 9684SOL    HW132583   8.340   2.422   3.167  0.0608 -0.4578  0.2864
 9684SOL    HW232584   8.296   2.324   3.060 -0.2359 -0.2044  0.1752
 9685SOL     OW32585   1.009   5.800   6.015 -0.0025  0.3795 -0.7220
 9685SOL    HW132586   0.942   5.764   5.958  1.0309 -0.9734 -1.1079
 9685SOL    HW232587   1.092   5.772   5.977  0.7782  1.4079  0.1493
 9686SOL     OW32588   8.467   4.521   6.086 -0.0699 -1.0102 -0.0929
 9686SOL    HW132589   8.403   4.591   6.098  0.9460 -0.2008  0.8037
 9686SOL    HW232590   8.483   4.520   5.991  0.4525  0.4962 -0.0500
 9687SOL     OW32591   4.272   8.335   8.708 -0.2170  0.3315 -0.0807
 9687SOL    HW132592   4.196   8.321   8.764 -0.6854  0.6731 -0.6234
 9687SOL    HW232593   4.330   8.261   8.727 -1.1687 -0.5327 -0.4660
 9688SOL     OW32594   1.458   1.219   8.757 -0.2724 -0.1005 -0.5984
 9688SOL    HW132595   1.456   1.179   8.844  2.4769  0.4726 -0.1732
 9688SOL    HW232596   1.487   1.148   8.699  1.5109  0.3855 -0.3672
 9689SOL     OW32597   9.526   5.956   8.363 -0.1875 -0.3306  0.1712
 9689SOL    HW132598   9.439   5.985   8.393  0.8293  1.5979  1.4735
 9689SOL    HW232599   9.552   5.889   8.427 -1.0369 -1.5659 -0.7335
 9690SOL     OW32600   4.829   8.632   7.151  0.2918 -0.6499 -0.1270
 9690SOL    HW132601   4.826   8.602   7.060  0.5112 -0.7290 -0.1099
 9690SOL    HW232602   4.768   8.575   7.198  2.4894 -2.7669  0.3896
 9691SOL     OW32603   7.585   2.852   9.656 -0.0258  0.0923  0.3188
 9691SOL    HW132604   7.672   2.823   9.631  0.3077  0.6337  0.8037
 9691SOL    HW232605   7.591   2.948   9.656 -0.1376  0.1262  1.9234
 9692SOL     OW32606   9.626   1.025   5.006  0.1260 -0.0518  0.3310
 9692SOL    HW132607   9.550   0.985   5.049  0.3183  0.2424  0.9556
 9692SOL    HW232608   9.666   0.954   4.956 -2.6500  0.4880 -3.1366
 9693SOL     OW32609  11.040   2.409  10.194 -0.1074 -0.0580  0.0741
 9693SOL    HW132610  11.002   2.462  10.124 -1.1566  0.8873  1.2982
 9693SOL    HW232611  11.133   2.433  10.195 -0.2165  0.4101 -0.5399
 9694SOL     OW32612   3.417   4.714   3.772  0.1157 -0.0154  0.1592
 9694SOL    HW132613   3.392   4.716   3.864 -0.6988 -1.0006 -0.0219
 9694SOL    HW232614   3.468   4.794   3.759 -1.3729  1.1244  1.0030
 9695SOL     OW32615  10.786   6.941  10.568 -0.1338  0.9578  0.0287
 9695SOL    HW132616  10.725   6.993  10.516  0.8689  1.4536 -0.6749
 9695SOL    HW232617  10.858   7.001  10.588  0.6186  0.0949 -0.0397
 9696SOL     OW32618   4.036   8.224  10.684 -0.2067 -0.2478 -0.1428
 9696SOL    HW132619   3.973   8.258  10.747 -0.2720  1.7274 -1.1746
 9696SOL    HW232620   3.993   8.148  10.645 -0.2713 -1.3533  1.9329
 9697SOL     OW32621  10.421   7.189   9.238  0.3927 -0.0467  0.2619
 9697SOL    HW132622  10.493   7.130   9.216  1.3274  0.6449  1.3455
 9697SOL    HW232623  10.425   7.256   9.170 -0.3368 -0.9169 -0.6677
 9698SOL     OW32624   9.763  11.055   0.151  0.1603  0.1651  0.3443
 9698SOL    HW132625   9.786  11.099   0.069 -1.8996  1.4138  0.3544
 9698SOL    HW232626   9.829  11.085   0.214 -0.6049  2.6046  0.1120
 9699SOL     OW32627  10.932   2.139   6.008  0.0559  0.5045 -0.1537
 9699SOL    HW132628  10.837   2.145   5.996  0.1569  0.9833 -0.7731
 9699SOL    HW232629  10.948   2.047   6.028 -0.5940  0.5213  0.4708
 9700SOL     OW32630   2.238   8.444   8.505 -0.4670  0.0453  0.2800
 9700SOL    HW132631   2.242   8.419   8.412  2.3462 -0.0342  0.3569
 9700SOL    HW232632   2.185   8.375   8.546  0.0011 -1.0621 -0.9165
 9701SOL     OW32633   9.538   2.674   8.354 -0.3444  0.0420 -0.0523
 9701SOL    HW132634   9.567   2.702   8.267  2.4516 -0.4900  0.5939
 9701SOL    HW232635   9.585   2.733   8.414 -1.1705 -0.4729  1.1298
 9702SOL     OW32636   5.417   1.122   5.683  0.0603  0.3881 -0.0862
 9702SOL    HW132637   5.333   1.140   5.725  0.6572  0.6303  1.0476
 9702SOL    HW232638   5.474   1.094   5.754  0.0591 -3.1461 -1.2795
 9703SOL     OW32639   1.147   4.963   9.938  0.5324 -0.4788 -0.2164
 9703SOL    HW132640   1.077   5.004   9.989  1.3065 -0.4983  0.9127
 9703SOL    HW232641   1.114   4.875   9.920  0.3498 -0.5714  0.5194
 9704SOL     OW32642   2.519  10.337   8.195 -0.2322  0.8559  0.2085
 9704SOL    HW132643   2.518  10.292   8.110 -0.8797  2.3465 -0.6036
 9704SOL    HW232644   2.509  10.267   8.259 -3.7895 -0.0164 -1.0873
 9705SOL     OW32645   0.741   6.599   4.111  0.8530 -0.5990  0.2122
 9705SOL    HW132646   0.676   6.664   4.085  0.8815 -0.5844  0.1760
 9705SOL    HW232647   0.788   6.579   4.031  0.9690 -0.5229  0.2598
 9706SOL     OW32648   8.382   9.872   8.122  0.1844 -0.7614  0.1705
 9706SOL    HW132649   8.463   9.840   8.162  0.4152  0.4105  0.6855
 9706SOL    HW232650   8.411   9.909   8.038  0.4491  1.0372  1.0195
 9707SOL     OW32651   2.920   6.957   1.371  0.0142  0.1105 -0.3786
 9707SOL    HW132652   2.995   6.980   1.315  1.8597  0.3008  2.0404
 9707SOL    HW232653   2.844   6.964   1.312  1.8114  0.2167 -2.8641
 9708SOL     OW32654   3.992  10.686  11.119  0.1907  0.3005 -0.2734
 9708SOL    HW132655   3.932  10.711  11.190  2.2430 -0.6485  1.9468
 9708SOL    HW232656   4.049  10.763  11.108  0.4499  0.1121 -0.2472
 9709SOL     OW32657   9.152   8.790  10.121  0.3669  0.1073 -0.6069
 9709SOL    HW132658   9.067   8.747  10.110  0.4063  0.0779 -0.7922
 9709SOL    HW232659   9.204   8.761  10.046  1.2292 -1.5155  0.5577
 9710SOL     OW32660   5.389   9.180   0.664  0.2894  0.9795  0.0778
 9710SOL    HW132661   5.418   9.234   0.738  0.5181  0.6014  0.2679
 9710SOL    HW232662   5.461   9.186   0.601  0.1327  1.2313 -0.0798
 9711SOL     OW32663   5.420   5.897   2.698 -0.0814  0.4847 -0.1164
 9711SOL    HW132664   5.514   5.882   2.702 -0.2409 -0.3693  2.7823
 9711SOL    HW232665   5.410   5.992   2.708  0.4768  0.4440  0.9827
 9712SOL     OW32666   3.946   3.386   5.654  0.6177  0.2613  0.3694
 9712SOL    HW132667   4.018   3.448   5.649  0.4087  0.4167 -1.8826
 9712SOL    HW232668   3.870   3.438   5.680  0.9278  0.4586  0.8866
 9713SOL     OW32669   9.153   9.998   1.671  0.3959  0.0302  0.3375
 9713SOL    HW132670   9.131  10.050   1.593  0.1702  0.7980  0.9020
 9713SOL    HW232671   9.075   9.947   1.689  0.2808  0.2044  0.3348
 9714SOL     OW32672   1.722   6.751  10.733  0.0484 -0.0347 -0.5067
 9714SOL    HW132673   1.758   6.799  10.658 -1.2476  0.1433 -1.0486
 9714SOL    HW232674   1.769   6.668  10.733  0.9485  0.4655 -0.7518
 9715SOL     OW32675  10.539   0.440  10.501 -0.2612  0.2751  0.1106
 9715SOL    HW132676  10.583   0.496  10.437 -0.3072  0.0137 -0.1494
 9715SOL    HW232677  10.509   0.365  10.451  1.5452 -0.9710  0.8113
 9716SOL     OW32678   9.323   9.750   2.826 -0.0935  0.3751 -0.2325
 9716SOL    HW132679   9.391   9.773   2.762  1.1155 -1.9606  0.0853
 9716SOL    HW232680   9.372   9.725   2.904 -1.3375 -0.7787  0.2124
 9717SOL     OW32681   0.763   7.647   2.373  0.4523 -0.4203 -0.2864
 9717SOL    HW132682   0.746   7.672   2.282 -0.5836 -0.7702 -0.1918
 9717SOL    HW232683   0.749   7.552   2.375 -0.5021 -0.2760  0.4482
 9718SOL     OW32684   8.197   2.498   5.292  0.2796 -0.3571 -0.3113
 9718SOL    HW132685   8.192   2.592   5.305 -0.8533 -0.6410  1.7285
 9718SOL    HW232686   8.290   2.477   5.304  0.3908  0.3901  0.2326
 9719SOL     OW32687   1.990   5.974   4.673  0.6357  0.1911 -0.2576
 9719SOL    HW132688   1.954   5.977   4.762  0.2830 -0.5385 -0.3582
 9719SOL    HW232689   2.071   5.923   4.682  0.4881 -0.0689 -0.3819
 9720SOL     OW32690   7.942   4.529   5.976  0.1023 -0.7319 -0.1770
 9720SOL    HW132691   7.882   4.525   6.051 -2.0144 -0.6939 -1.7649
 9720SOL    HW232692   7.916   4.608   5.928  2.2643 -0.0522 -0.3174
 9721SOL     OW32693   7.034   3.287  11.104 -0.5312 -0.2307 -0.1547
 9721SOL    HW132694   7.015   3.312  11.013 -0.1507  0.3027 -0.0932
 9721SOL    HW232695   6.983   3.207  11.118 -1.5981  0.3723 -0.4450
 9722SOL     OW32696  10.991   8.205   4.027  0.1986 -0.0714 -0.4769
 9722SOL    HW132697  10.897   8.191   4.026  0.2258 -0.5636 -2.4560
 9722SOL    HW232698  11.004   8.290   4.068 -0.9315 -0.8394  1.5621
 9723SOL     OW32699   9.191   5.963   5.225 -0.0103 -0.0254  0.5129
 9723SOL    HW132700   9.149   5.973   5.140  0.2522 -0.3098  0.3505
 9723SOL    HW232701   9.160   5.879   5.257  1.3934 -0.8257 -0.1525
 9724SOL     OW32702  10.959   0.952   3.227  0.4649  0.4117 -0.3394
 9724SOL    HW132703  11.044   0.914   3.250 -0.3818 -0.7192  1.0142
 9724SOL    HW232704  10.925   0.986   3.309 -0.6482  0.3261 -0.7536
 9725SOL     OW32705   1.361   5.069  10.815  0.2593  0.2155 -0.4609
 9725SOL    HW132706   1.325   4.994  10.768  1.1008  0.4934 -1.5872
 9725SOL    HW232707   1.322   5.145  10.772  1.5919  0.4940 -1.2026
 9726SOL     OW32708   8.898   6.565   5.440  0.2782  0.0768 -0.3880
 9726SOL    HW132709   8.845   6.634   5.401  0.1201 -0.0444 -0.3883
 9726SOL    HW232710   8.847   6.485   5.428  0.1342  0.0697  0.2479
 9727SOL     OW32711   8.069   8.764   3.098  0.1581 -0.1213  0.7152
 9727SOL    HW132712   8.032   8.718   3.023  0.0478 -0.9123  1.2388
 9727SOL    HW232713   8.157   8.790   3.070  0.4671 -1.2347  0.6326
 9728SOL     OW32714   6.530   9.189  10.531 -0.5435  0.8247 -0.1431
 9728SOL    HW132715   6.568   9.277  10.530  1.0772  0.1573 -0.1680
 9728SOL    HW232716   6.589   9.137  10.477 -1.8995 -0.1354 -0.7742
 9729SOL     OW32717   9.013   3.620   0.457  0.4056 -0.8268 -0.6195
 9729SOL    HW132718   9.001   3.644   0.548  0.0149 -0.7764 -0.6823
 9729SOL    HW232719   9.083   3.677   0.425 -1.0030  0.7540 -0.9700
 9730SOL     OW32720   8.911   8.139   9.680  0.1631 -0.3328  0.8024
 9730SOL    HW132721   8.936   8.090   9.602  1.7695 -1.1485  1.7869
 9730SOL    HW232722   8.822   8.108   9.700  0.3339 -1.2660  0.1842
 9731SOL     OW32723   2.678   0.135  10.297 -0.1950  0.0329  0.7309
 9731SOL    HW132724   2.614   0.067  10.277  0.2757 -0.3750  0.5791
 9731SOL    HW232725   2.649   0.172  10.380 -0.4969 -0.3110  0.7789
 9732SOL     OW32726   2.649   9.950   6.277  0.4418 -0.1657  0.1587
 9732SOL    HW132727   2.599   9.930   6.357  0.7864  1.0341  0.6888
 9732SOL    HW232728   2.732   9.905   6.290  1.4151  1.8916  1.5881
 9733SOL     OW32729   0.412   7.865   2.716  0.2102 -0.5762  0.0728
 9733SOL    HW132730   0.345   7.817   2.666 -0.7151  0.4894  0.2348
 9733SOL    HW232731   0.367   7.944   2.745  1.5031  0.0717  0.3725
 9734SOL     OW32732   0.962   5.170   0.762  0.7356 -0.0522  0.0912
 9734SOL    HW132733   0.871   5.196   0.778  0.0906 -1.2249 -1.3810
 9734SOL    HW232734   0.955   5.095   0.703  2.6980  0.3382 -0.7240
 9735SOL     OW32735   5.647   4.325   7.947 -0.1223  1.0745 -0.3008
 9735SOL    HW132736   5.739   4.351   7.954 -0.0424  0.3599  2.3620
 9735SOL    HW232737   5.650   4.230   7.934 -0.4817  0.9862  0.2582
 9736SOL     OW32738   9.476   8.437   6.686  0.1659 -0.0377  0.5809
 9736SOL    HW132739   9.525   8.494   6.745  1.1066  0.4858 -0.6409
 9736SOL    HW232740   9.469   8.488   6.605  1.5445 -1.8200 -0.7642
 9737SOL     OW32741   8.260   5.890   8.102  0.2831 -0.4354  0.1634
 9737SOL    HW132742   8.182   5.851   8.063 -0.8912  0.7616  1.2397
 9737SOL    HW232743   8.258   5.982   8.075  1.4779 -0.4384 -0.0087
 9738SOL     OW32744   5.089   2.977   3.928 -0.1026 -0.1574 -0.3045
 9738SOL    HW132745   5.110   3.035   3.855 -0.9373  1.0872  0.4204
 9738SOL    HW232746   4.999   2.948   3.911  0.1550 -0.9278 -0.4332
 9739SOL     OW32747   1.417   7.487   0.450  0.5220 -0.1742 -0.4229
 9739SOL    HW132748   1.455   7.401   0.434  0.8157  0.0389 -0.9217
 9739SOL    HW232749   1.323   7.472   0.456  0.4162 -0.3302 -2.0956
 9740SOL     OW32750   1.030   4.265   4.295  0.0926  0.5656  0.4275
 9740SOL    HW132751   1.079   4.196   4.341 -1.5790 -0.2192  1.1079
 9740SOL    HW232752   1.088   4.341   4.299  2.0572 -0.7754 -0.4530
 9741SOL     OW32753   8.083   8.045   6.724  0.0327  0.1787  0.2730
 9741SOL    HW132754   8.132   8.042   6.807 -0.5226  1.4298  0.6616
 9741SOL    HW232755   8.125   8.114   6.674 -0.3287  0.1623 -0.0501
 9742SOL     OW32756   7.742   6.338   8.803 -0.3173  0.3406  0.9262
 9742SOL    HW132757   7.671   6.274   8.806  0.2817 -0.3815  0.1601
 9742SOL    HW232758   7.733   6.381   8.718  0.3113  0.0663  0.7178
 9743SOL     OW32759   6.785   0.859   2.063 -0.1229  0.1640 -0.3968
 9743SOL    HW132760   6.733   0.784   2.034  0.5447 -0.5420  0.1992
 9743SOL    HW232761   6.724   0.933   2.059 -0.8005 -0.4114 -0.9518
 9744SOL     OW32762   3.016   0.229   7.706  0.3840 -0.1265 -0.1398
 9744SOL    HW132763   3.020   0.219   7.801 -0.8071  1.9697  0.1995
 9744SOL    HW232764   2.923   0.218   7.685  0.5271  0.1435 -0.9433
 9745SOL     OW32765  11.124   3.752   3.759 -0.5779  0.4908 -0.0394
 9745SOL    HW132766  11.141   3.729   3.668 -1.2151  0.7775 -0.2420
 9745SOL    HW232767  11.206   3.735   3.804 -0.0578  0.9605 -0.7892
 9746SOL     OW32768   6.046   8.174   3.913  0.6421 -0.3804 -0.1452
 9746SOL    HW132769   6.137   8.160   3.942  0.2885 -0.5762  0.9364
 9746SOL    HW232770   6.037   8.269   3.908  0.5182 -0.3000  1.1473
 9747SOL     OW32771   0.047   3.683   1.560 -0.1730 -0.0550 -0.0855
 9747SOL    HW132772   0.010   3.700   1.474  0.0849 -0.4912 -0.2909
 9747SOL    HW232773   0.110   3.753   1.574  0.7396 -0.6980 -0.8297
 9748SOL     OW32774   6.250  10.898   5.177 -0.4217 -0.0370  0.2137
 9748SOL    HW132775   6.322  10.849   5.217 -0.5988 -0.0596  0.5055
 9748SOL    HW232776   6.231  10.968   5.240  1.1527  1.6496 -1.0639
 9749SOL     OW32777   5.085   5.678   0.616 -0.4861 -0.3442 -0.5575
 9749SOL    HW132778   5.043   5.652   0.699 -0.0474 -1.9992 -0.8131
 9749SOL    HW232779   5.084   5.773   0.617 -0.1097 -0.3195  1.5540
 9750SOL     OW32780   5.309   5.372   9.224  0.2625  0.0670  0.0750
 9750SOL    HW132781   5.272   5.319   9.154  1.0250  0.3573 -0.5669
 9750SOL    HW232782   5.242   5.438   9.242 -0.0877 -0.2278 -0.1264
 9751SOL     OW32783   2.740   1.877   0.940  0.1389 -0.6332 -0.2572
 9751SOL    HW132784   2.798   1.929   0.996  0.7389 -0.9227 -0.5989
 9751SOL    HW232785   2.770   1.896   0.851 -1.6706  0.8796 -0.6007
 9752SOL     OW32786  10.931   5.739   4.068 -0.1632 -0.8172  0.0801
 9752SOL    HW132787  10.998   5.702   4.124 -0.4363  0.6438  1.4504
 9752SOL    HW232788  10.975   5.755   3.984  1.0115 -0.5426  0.7288
 9753SOL     OW32789   8.199   7.231   5.259  0.2548  0.1698  0.3477
 9753SOL    HW132790   8.254   7.183   5.196 -2.3942  0.8166 -2.7013
 9753SOL    HW232791   8.205   7.322   5.231  0.1337  0.7180  2.0160
 9754SOL     OW32792   1.069   6.597   7.429 -0.2527 -0.1790  0.3441
 9754SOL    HW132793   0.984   6.641   7.427 -0.1131  0.0719 -0.1414
 9754SOL    HW232794   1.053   6.514   7.383  0.0738  0.4410 -0.9418
 9755SOL     OW32795   1.132   8.229   9.279 -0.8981  0.1131  0.2205
 9755SOL    HW132796   1.168   8.174   9.349 -0.4480 -1.0295 -0.8732
 9755SOL    HW232797   1.209   8.260   9.231 -1.2067  0.8351  0.1856
 9756SOL     OW32798   5.304   1.101   4.724  0.0819  0.1286 -0.2877
 9756SOL    HW132799   5.347   1.145   4.797 -1.5266  0.6559  0.3752
 9756SOL    HW232800   5.302   1.009   4.748 -1.1163  0.3944  0.7198
 9757SOL     OW32801   3.554   5.952   1.608 -0.0873 -0.0208 -0.3003
 9757SOL    HW132802   3.627   5.943   1.547  0.4515  1.0273  0.1642
 9757SOL    HW232803   3.539   6.046   1.614 -2.9339 -0.2351 -2.0529
 9758SOL     OW32804   9.639   3.457   9.097  0.0617  0.1451  0.7145
 9758SOL    HW132805   9.614   3.365   9.101  0.9707 -0.0899  1.0803
 9758SOL    HW232806   9.729   3.460   9.128  0.7035  0.9157 -1.0723
 9759SOL     OW32807   1.007   9.385  10.032 -0.4065  0.0917  0.4515
 9759SOL    HW132808   0.997   9.297   9.995  1.7594  0.4277 -1.1454
 9759SOL    HW232809   1.048   9.435   9.962  1.5383  1.4972  2.4814
 9760SOL     OW32810   7.950  10.262   9.465 -0.3127 -0.0537  0.7549
 9760SOL    HW132811   7.860  10.234   9.449  0.0632 -0.4278 -0.9555
 9760SOL    HW232812   7.992  10.256   9.379  1.8606 -1.7778  1.8387
 9761SOL     OW32813   7.145  10.814   3.695  0.1122  0.0829 -0.4923
 9761SOL    HW132814   7.235  10.845   3.693  0.0887  0.1493 -1.5310
 9761SOL    HW232815   7.092  10.894   3.689  0.0472 -0.0420 -2.7351
 9762SOL     OW32816   3.697   4.255   3.761  0.0985 -0.1902 -0.4206
 9762SOL    HW132817   3.665   4.192   3.696 -1.7392 -0.5429  0.7432
 9762SOL    HW232818   3.668   4.340   3.727  1.3901 -0.0820 -1.3106
 9763SOL     OW32819  10.769   2.710   0.428  0.1052  0.2451  0.3887
 9763SOL    HW132820  10.840   2.690   0.489  1.3333  1.4612 -0.5849
 9763SOL    HW232821  10.734   2.793   0.459 -0.1085  0.2286  0.1890
 9764SOL     OW32822   0.868   5.997   8.735 -0.0980 -0.3939  0.7778
 9764SOL    HW132823   0.837   5.980   8.646 -0.0262  0.2041  0.6324
 9764SOL    HW232824   0.916   5.918   8.759  1.0214 -0.0483 -0.2181
 9765SOL     OW32825   2.239   0.703   8.837  0.0268 -0.2654 -0.3088
 9765SOL    HW132826   2.331   0.680   8.820 -0.4675 -2.1642 -0.6611
 9765SOL    HW232827   2.233   0.796   8.815  1.8327 -0.1171 -0.3713
 9766SOL     OW32828   4.625   4.106   1.578  0.9032  0.0672  0.3873
 9766SOL    HW132829   4.644   4.026   1.627 -2.5991 -0.9865  0.2425
 9766SOL    HW232830   4.648   4.084   1.487 -1.2321 -1.3516  0.1196
 9767SOL     OW32831   9.392   7.736   7.866 -0.0742 -0.5478  0.1940
 9767SOL    HW132832   9.424   7.700   7.949  0.3330  0.2176  0.3777
 9767SOL    HW232833   9.314   7.787   7.890  0.5454  0.4029  0.2534
 9768SOL     OW32834   7.738   3.581   4.872 -0.3196  0.1370 -0.5566
 9768SOL    HW132835   7.794   3.510   4.904 -1.1140 -0.2565  0.0096
 9768SOL    HW232836   7.708   3.551   4.787  0.1159  0.2316 -0.7454
 9769SOL     OW32837   7.115   7.631   1.120  0.6562 -0.8662  0.0946
 9769SOL    HW132838   7.048   7.671   1.175  0.5764  0.6553 -1.0441
 9769SOL    HW232839   7.072   7.614   1.036  1.2628 -1.3576 -0.1305
 9770SOL     OW32840   8.326   5.608  10.787  0.0116  0.0098  0.1192
 9770SOL    HW132841   8.306   5.615  10.694 -0.9732 -0.9934  0.2284
 9770SOL    HW232842   8.384   5.682  10.805 -1.9158  1.8579 -0.7162
 9771SOL     OW32843   0.042   9.410  10.013  0.1075  0.2540  0.3473
 9771SOL    HW132844   0.029   9.434  10.105 -0.7301  0.5036  0.1711
 9771SOL    HW232845   0.022   9.490   9.964  0.7977  0.1965 -0.0426
 9772SOL     OW32846   3.657   1.769   1.649  0.0435 -0.4759 -0.1993
 9772SOL    HW132847   3.642   1.806   1.736 -0.7537  1.7070 -1.1907
 9772SOL    HW232848   3.730   1.819   1.613 -0.6090 -0.2784 -1.3200
 9773SOL     OW32849   0.573   8.325   5.002 -0.6515 -0.2682 -0.0672
 9773SOL    HW132850   0.513   8.310   5.074 -1.6698 -2.2561 -1.2268
 9773SOL    HW232851   0.524   8.380   4.940  0.3216  1.6810  0.8071
 9774SOL     OW32852   5.905   2.458   5.736 -0.5601 -0.0386 -0.0467
 9774SOL    HW132853   5.987   2.434   5.693 -1.1083 -0.8911 -0.6452
 9774SOL    HW232854   5.917   2.429   5.827  0.4818  1.4944  0.3410
 9775SOL     OW32855   9.984  10.944   1.515 -0.5673 -0.0714  0.2322
 9775SOL    HW132856   9.992  11.039   1.502  1.9019 -0.4140 -1.5421
 9775SOL    HW232857   9.924  10.916   1.446  1.3399 -0.1159 -1.5213
 9776SOL     OW32858   4.240   2.853   0.296 -0.4358 -0.0075  0.4099
 9776SOL    HW132859   4.328   2.890   0.305 -1.0987  2.7554 -2.4551
 9776SOL    HW232860   4.245   2.799   0.217 -1.1778 -0.2171  0.5002
 9777SOL     OW32861   1.746   2.319   8.057  0.0155  0.7318  0.4812
 9777SOL    HW132862   1.714   2.408   8.042  1.6435  1.3782  0.6609
 9777SOL    HW232863   1.787   2.323   8.143 -0.2966 -0.3342  0.6954
 9778SOL     OW32864   7.242   6.875   7.237  0.2491 -0.0277 -0.0663
 9778SOL    HW132865   7.331   6.852   7.212  0.0601 -0.4040 -0.4052
 9778SOL    HW232866   7.248   6.965   7.269  0.6412  0.1556 -0.6535
 9779SOL     OW32867   3.671   0.049  10.699  0.2713  0.8639  0.0057
 9779SOL    HW132868   3.654   0.029  10.791  1.3917  0.9685  0.2492
 9779SOL    HW232869   3.738  -0.014  10.672 -1.4612 -0.4995 -1.3314
 9780SOL     OW32870   1.372   0.085   7.054  0.1924  0.6324  0.3173
 9780SOL    HW132871   1.307   0.144   7.092 -0.5021  1.0904 -1.4811
 9780SOL    HW232872   1.379   0.113   6.963  2.8946  0.5540  0.4361
 9781SOL     OW32873   7.262   1.656   2.563 -0.0842 -0.0554 -0.1218
 9781SOL    HW132874   7.352   1.668   2.533  0.1371  0.5449  0.7659
 9781SOL    HW232875   7.242   1.735   2.613 -1.1869 -0.0784 -0.4896
 9782SOL     OW32876   4.988   3.866  10.135 -0.2501 -0.3383 -0.2982
 9782SOL    HW132877   5.055   3.888  10.200  0.0199 -0.5101 -0.5171
 9782SOL    HW232878   4.909   3.909  10.167  0.3022  1.1589 -0.8105
 9783SOL     OW32879   3.665   5.688   8.581 -0.4406 -0.5795  0.3566
 9783SOL    HW132880   3.657   5.623   8.651  0.2123 -1.0703 -0.0066
 9783SOL    HW232881   3.744   5.738   8.605  0.8425 -1.9002 -0.9147
 9784SOL     OW32882   8.985   0.483   6.094 -0.0687 -0.0038 -0.1063
 9784SOL    HW132883   9.028   0.567   6.079  0.7498 -0.3193  0.4041
 9784SOL    HW232884   9.027   0.423   6.033  0.9914 -0.5556  1.1247
 9785SOL     OW32885   3.829   4.455   3.358 -0.2940 -0.3517 -0.0507
 9785SOL    HW132886   3.874   4.539   3.348 -0.5424 -0.2945 -0.6838
 9785SOL    HW232887   3.773   4.448   3.281 -1.4889 -0.3493  0.7865
 9786SOL     OW32888   5.647   6.416   3.083 -0.4908 -0.3808 -0.4634
 9786SOL    HW132889   5.641   6.413   2.987 -2.5089 -0.9024 -0.3567
 9786SOL    HW232890   5.685   6.332   3.108 -0.2265 -0.3581 -0.7837
 9787SOL     OW32891   9.355   9.426   4.583  0.2893 -0.2824  0.0461
 9787SOL    HW132892   9.433   9.415   4.527  0.1742 -1.0448  0.0135
 9787SOL    HW232893   9.380   9.492   4.647  0.2649  0.9664 -1.1943
 9788SOL     OW32894  11.034   8.139   9.042  0.6008 -0.0953 -0.1725
 9788SOL    HW132895  11.031   8.109   9.133  0.8020 -1.1881 -0.5049
 9788SOL    HW232896  10.996   8.227   9.044 -1.2982 -0.8848  0.6497
 9789SOL     OW32897   7.587   0.950  10.739  0.7582 -0.1501  0.6994
 9789SOL    HW132898   7.525   0.913  10.677  0.8043 -1.1862  1.2568
 9789SOL    HW232899   7.575   0.899  10.819  0.3744  1.4456  1.7256
 9790SOL     OW32900   6.667   7.201   6.039 -0.1931 -0.0244 -0.8520
 9790SOL    HW132901   6.682   7.273   5.978 -0.1146  0.4144 -0.3297
 9790SOL    HW232902   6.730   7.134   6.013  0.9309  0.7789 -0.2853
 9791SOL     OW32903   6.061  11.049   0.194  0.9090 -0.2357 -0.0059
 9791SOL    HW132904   6.050  11.078   0.104 -0.4179 -0.1059  0.1817
 9791SOL    HW232905   6.050  10.954   0.191 -0.6842 -0.0823  0.2162
 9792SOL     OW32906   1.889   9.113  10.927 -0.0430  0.4964 -0.0253
 9792SOL    HW132907   1.965   9.097  10.984 -2.0504  0.0935  2.7647
 9792SOL    HW232908   1.914   9.075  10.843  2.3023 -0.9067  1.1853
 9793SOL     OW32909   7.945  11.116   9.266 -0.3417  0.2718  0.1603
 9793SOL    HW132910   7.962  11.105   9.360 -0.9363 -1.7791  0.0811
 9793SOL    HW232911   8.032  11.122   9.227  0.0645 -1.7532  0.6021
 9794SOL     OW32912   4.963   6.506  10.074  0.0104 -0.4368  0.5195
 9794SOL    HW132913   4.995   6.555   9.998 -0.9668 -0.1945  0.2484
 9794SOL    HW232914   4.918   6.430  10.036  1.0564 -1.2907  0.9214
 9795SOL     OW32915   3.808   1.012   8.097 -0.0029 -0.6181  0.3521
 9795SOL    HW132916   3.863   1.049   8.028 -1.9801  0.5368 -0.6895
 9795SOL    HW232917   3.751   0.949   8.052 -0.9176 -0.2975  1.0229
 9796SOL     OW32918   5.134   4.615   7.925  0.2141  0.4194  0.0388
 9796SOL    HW132919   5.131   4.612   8.021 -1.5712  0.4181  0.0117
 9796SOL    HW232920   5.206   4.556   7.901  1.3844  1.2359  1.3911
 9797SOL     OW32921   5.728   1.605   4.411 -0.0691 -0.1775 -0.1101
 9797SOL    HW132922   5.729   1.608   4.507  0.8086 -1.1788 -0.0656
 9797SOL    HW232923   5.751   1.694   4.385 -1.7989  0.5119  0.5655
 9798SOL     OW32924   3.050  10.265   1.952 -0.1382 -0.3379  0.2026
 9798SOL    HW132925   3.130  10.222   1.982 -0.9599 -1.0175  1.5240
 9798SOL    HW232926   3.009  10.297   2.033 -0.2853  1.6789 -0.6116
 9799SOL     OW32927   9.450   1.578   6.254 -0.7141 -0.4753  0.0910
 9799SOL    HW132928   9.433   1.520   6.179 -1.0866 -0.4293  0.1347
 9799SOL    HW232929   9.412   1.662   6.228  0.3148 -0.0811 -0.1989
 9800SOL     OW32930   1.531   1.152   7.597  0.0341 -0.0966  0.1639
 9800SOL    HW132931   1.572   1.237   7.583 -0.3582  0.1277  0.3427
 9800SOL    HW232932   1.441   1.164   7.566  0.3659 -0.8744 -1.1775
 9801SOL     OW32933  10.223   7.292  11.037  1.0682  0.0900 -0.3422
 9801SOL    HW132934  10.193   7.383  11.038 -2.4558 -0.8629  2.1682
 9801SOL    HW232935  10.278   7.284  11.115  1.8836  0.1745 -0.9000
 9802SOL     OW32936   3.167   3.194   6.330  0.8410  0.3256 -1.0391
 9802SOL    HW132937   3.125   3.271   6.370 -0.3338 -0.9007  0.1869
 9802SOL    HW232938   3.222   3.159   6.400 -2.3782 -2.7285  0.2604
 9803SOL     OW32939   0.256   2.973   1.276  0.2962 -0.4278  0.6994
 9803SOL    HW132940   0.287   3.062   1.260  0.0599 -0.4191  0.2756
 9803SOL    HW232941   0.309   2.919   1.217  0.3616 -0.5552  0.8750
 9804SOL     OW32942   5.376   0.757   0.844  0.1731  0.0179  0.0825
 9804SOL    HW132943   5.315   0.804   0.788  2.0224  2.0735 -0.3207
 9804SOL    HW232944   5.361   0.664   0.822 -0.8112  0.6113 -2.0749
 9805SOL     OW32945   4.286   4.522   5.395 -0.2784 -0.3337  0.0751
 9805SOL    HW132946   4.279   4.444   5.450 -0.4475 -0.3051  0.0923
 9805SOL    HW232947   4.362   4.569   5.430 -0.4950 -0.2233  0.3975
 9806SOL     OW32948   6.810   9.327   8.573  0.2913 -0.0890  0.3816
 9806SOL    HW132949   6.868   9.257   8.541  1.6091  1.0533  0.1595
 9806SOL    HW232950   6.732   9.319   8.519  0.3816 -1.4320  0.4130
 9807SOL     OW32951   7.031   0.636   7.723  0.2105  0.3078 -0.6946
 9807SOL    HW132952   7.074   0.561   7.683  0.9346  1.4776 -2.2292
 9807SOL    HW232953   7.053   0.630   7.816  0.0848 -1.4510 -0.7452
 9808SOL     OW32954   3.607   5.042   4.711  0.1511 -0.1822  0.5113
 9808SOL    HW132955   3.544   4.974   4.687  1.2860 -1.0108 -0.2057
 9808SOL    HW232956   3.576   5.075   4.795 -0.8666 -1.0197  0.4842
 9809SOL     OW32957   6.038  10.677   5.724 -0.3919  0.3722  0.0375
 9809SOL    HW132958   6.110  10.733   5.695 -1.3911  1.6296 -0.1397
 9809SOL    HW232959   6.014  10.627   5.646  1.2487 -1.2066  0.4836
 9810SOL     OW32960   9.714   2.993   6.218 -0.7496  0.0681 -0.2219
 9810SOL    HW132961   9.791   2.973   6.270 -0.5583 -0.3937 -0.6716
 9810SOL    HW232962   9.656   2.918   6.231 -0.9235  0.1950 -0.2591
 9811SOL     OW32963   3.519   1.492   9.405 -0.2612  0.4987  0.5685
 9811SOL    HW132964   3.442   1.439   9.426 -2.4715  3.0831 -0.4030
 9811SOL    HW232965   3.560   1.446   9.332 -1.3252 -0.5558  0.5941
 9812SOL     OW32966   7.852   5.132   5.707 -0.3066  0.3276  0.0589
 9812SOL    HW132967   7.872   5.131   5.800 -1.6381 -1.7573  0.3940
 9812SOL    HW232968   7.770   5.180   5.700 -1.5456 -1.6214  0.3658
 9813SOL     OW32969   9.041   9.019   1.836 -0.0986 -0.5207 -0.0097
 9813SOL    HW132970   9.014   9.111   1.837 -0.5529 -0.6402 -0.6271
 9813SOL    HW232971   8.986   8.977   1.901  0.4556 -0.2694  0.6357
 9814SOL     OW32972  10.060  10.156   4.069  0.1473 -0.1596  0.6913
 9814SOL    HW132973   9.966  10.147   4.087  0.1310 -0.5263  0.4359
 9814SOL    HW232974  10.071  10.246   4.042 -0.1999 -0.2246  0.3263
 9815SOL     OW32975   0.303   5.083   8.061 -0.2219  0.5772 -0.3886
 9815SOL    HW132976   0.348   5.011   8.017  1.3048  0.7094  0.8717
 9815SOL    HW232977   0.279   5.143   7.990  0.2404 -0.2319 -1.2520
 9816SOL     OW32978   7.193   9.304   2.764  0.1327  0.8793  0.6786
 9816SOL    HW132979   7.221   9.367   2.697  1.1543 -0.8929 -0.6376
 9816SOL    HW232980   7.116   9.262   2.727  0.8283 -0.2617  0.4869
 9817SOL     OW32981   7.292   2.384   8.096 -0.4854  0.3853  0.1008
 9817SOL    HW132982   7.321   2.436   8.171 -1.8248  0.1021  0.8460
 9817SOL    HW232983   7.314   2.437   8.020  0.5803  0.8323  0.6940
 9818SOL     OW32984   0.148   7.617   7.322  0.2449 -0.2570 -0.0934
 9818SOL    HW132985   0.104   7.565   7.389 -0.6786 -0.6863 -1.0129
 9818SOL    HW232986   0.168   7.555   7.252 -0.5587  0.5244 -1.0528
 9819SOL     OW32987   7.166   0.012   5.969  0.2664 -0.1775  0.0253
 9819SOL    HW132988   7.214  -0.069   5.949  1.1202  0.2724  0.2430
 9819SOL    HW232989   7.233   0.075   5.991 -0.5343 -0.2745  3.1574
 9820SOL     OW32990  10.981   5.929   8.035  0.3226  0.1871  0.6089
 9820SOL    HW132991  10.902   5.884   8.064  0.2739 -1.2201 -1.4745
 9820SOL    HW232992  10.953   5.982   7.960  1.0543  0.9860  0.8849
 9821SOL     OW32993   0.331   5.311   1.249 -0.3104 -0.1841 -0.4581
 9821SOL    HW132994   0.388   5.237   1.225  1.3242  0.7170  0.4477
 9821SOL    HW232995   0.282   5.330   1.169  1.0748 -0.6567 -1.4741
 9822SOL     OW32996   3.135   5.091   2.507  0.0966  0.5329  0.1790
 9822SOL    HW132997   3.082   5.102   2.586  0.2125 -1.6651  0.6518
 9822SOL    HW232998   3.122   5.171   2.457 -3.5052  0.2486  0.3691
 9823SOL     OW32999   5.207   6.270   6.497  0.1268  0.5995  0.1216
 9823SOL    HW133000   5.208   6.360   6.467 -0.2036 -0.2195 -2.5334
 9823SOL    HW233001   5.123   6.260   6.542  0.5011  1.7796  1.1334
 9824SOL     OW33002  10.144   7.549   1.236  0.1903  0.1653 -0.4124
 9824SOL    HW133003  10.224   7.587   1.272  1.1904 -1.4898 -0.7499
 9824SOL    HW233004  10.162   7.455   1.232 -1.8165 -0.2646 -0.4272
 9825SOL     OW33005   8.422   6.848   0.619  0.1814 -0.6296  0.6536
 9825SOL    HW133006   8.496   6.827   0.562  0.5811 -0.9712  1.2829
 9825SOL    HW233007   8.353   6.787   0.594 -0.5342  0.8362 -1.1472
 9826SOL     OW33008   7.752   8.131   7.039 -0.0601  0.2772 -0.8158
 9826SOL    HW133009   7.749   8.121   6.944 -0.6683 -0.5225 -0.7302
 9826SOL    HW233010   7.668   8.172   7.062 -0.5036 -0.7364 -0.5257
 9827SOL     OW33011   3.271  10.835   9.318  0.7614  0.3061  0.0140
 9827SOL    HW133012   3.277  10.774   9.392 -0.7458 -0.2603 -0.3064
 9827SOL    HW233013   3.290  10.781   9.241 -0.7248  0.1808 -0.2854
 9828SOL     OW33014  10.947   0.427   1.669 -0.1505  0.2664 -0.9242
 9828SOL    HW133015  10.933   0.426   1.763  2.1403  0.6140 -0.5377
 9828SOL    HW233016  10.863   0.397   1.632 -0.5705 -1.4818  1.2538
 9829SOL     OW33017   8.618   8.483   5.456  0.2880  0.5215 -0.4784
 9829SOL    HW133018   8.549   8.528   5.505 -0.6286  0.8789 -2.0196
 9829SOL    HW233019   8.698   8.501   5.505 -0.4762  1.4998  0.4652
 9830SOL     OW33020   8.482   0.575   0.437 -0.5769 -0.2347  0.1433
 9830SOL    HW133021   8.388   0.562   0.423 -0.5531  0.4886 -0.8195
 9830SOL    HW233022   8.498   0.666   0.410  0.3910 -0.3447  0.3136
 9831SOL     OW33023   8.490   8.141   2.713 -0.2950 -0.3972  0.3795
 9831SOL    HW133024   8.407   8.097   2.729 -0.4660  0.2062  1.2140
 9831SOL    HW233025   8.523   8.163   2.801 -1.3405  3.2061  0.0432
 9832SOL     OW33026   4.016   4.249   3.465  0.4467 -0.7512  0.2697
 9832SOL    HW133027   3.961   4.206   3.530  1.6828 -0.2492  1.7165
 9832SOL    HW233028   3.957   4.313   3.422 -0.8690 -2.4085 -0.5099
 9833SOL     OW33029   7.974   3.313   9.537  0.1977  0.6645 -0.4810
 9833SOL    HW133030   7.945   3.239   9.590  2.0471 -0.9074 -1.5216
 9833SOL    HW233031   7.977   3.279   9.447  2.5302  1.4565 -0.7912
 9834SOL     OW33032   7.919   7.292   2.518  0.0197  0.0733  0.2892
 9834SOL    HW133033   7.917   7.252   2.604 -0.5154 -1.6662 -0.4850
 9834SOL    HW233034   7.985   7.242   2.470 -0.7293  0.0393 -0.7401
 9835SOL     OW33035   7.682  10.658  10.077  0.5992 -0.7334 -0.3046
 9835SOL    HW133036   7.615  10.688  10.138  0.9450 -1.2152  0.3123
 9835SOL    HW233037   7.633  10.638   9.997  0.3719  1.7514 -0.8726
 9836SOL     OW33038   9.583   4.030   9.424  0.4825 -0.8429  0.5044
 9836SOL    HW133039   9.676   4.049   9.425  0.4257 -0.4888 -0.4728
 9836SOL    HW233040   9.576   3.942   9.461  1.2152 -0.9457  0.3997
 9837SOL     OW33041   2.567   0.729   9.042  0.0991  0.2587 -0.1117
 9837SOL    HW133042   2.617   0.649   9.023 -0.6270 -0.3796  0.5622
 9837SOL    HW233043   2.489   0.697   9.090 -1.4995  1.0887 -2.0351
 9838SOL     OW33044   8.410   4.619   1.856  0.9286  0.4576 -0.6482
 9838SOL    HW133045   8.333   4.610   1.912 -0.2507 -1.2458 -2.3847
 9838SOL    HW233046   8.379   4.668   1.780  1.8828  0.7420 -0.8689
 9839SOL     OW33047   6.890  10.595  10.063 -0.5812  0.5651  0.0893
 9839SOL    HW133048   6.882  10.514  10.012  0.0566  1.1492 -0.9818
 9839SOL    HW233049   6.931  10.567  10.145 -0.7953 -0.2596 -0.0681
 9840SOL     OW33050   2.511   8.512   5.063  0.4836 -0.9194 -0.0323
 9840SOL    HW133051   2.536   8.429   5.104 -0.5942 -2.6330 -2.5463
 9840SOL    HW233052   2.433   8.540   5.110  0.3839 -1.7911  0.3353
 9841SOL     OW33053   6.894   2.305   1.950 -0.3356 -0.2342 -0.2670
 9841SOL    HW133054   6.928   2.349   2.028 -0.3100  0.4021 -0.6262
 9841SOL    HW233055   6.967   2.254   1.917 -0.3073 -0.4020  0.0499
 9842SOL     OW33056   0.071   6.161  10.477  0.4965  0.1195 -0.4309
 9842SOL    HW133057   0.133   6.213  10.426 -0.9616  1.6571 -0.7580
 9842SOL    HW233058  -0.014   6.182  10.438 -0.5026  0.1474  1.6594
 9843SOL     OW33059   0.371   5.988  10.229  0.0282  0.0672 -0.4369
 9843SOL    HW133060   0.385   5.947  10.315  1.1238  0.5490 -0.3662
 9843SOL    HW233061   0.414   6.073  10.236 -0.7961  0.5569 -1.1239
 9844SOL     OW33062   9.583   6.678   5.483 -0.1885 -0.2712 -0.0947
 9844SOL    HW133063   9.493   6.710   5.480  0.5510  2.1855  0.7754
 9844SOL    HW233064   9.601   6.667   5.577  1.0340  1.4487 -0.0723
 9845SOL     OW33065   1.196   4.368   1.102  0.4060 -0.2933 -0.3415
 9845SOL    HW133066   1.251   4.351   1.178  0.0321 -0.2491 -0.0599
 9845SOL    HW233067   1.132   4.432   1.132 -0.4911 -1.1612 -0.3439
 9846SOL     OW33068   4.728  10.488   2.382  0.1469 -0.0035  1.0313
 9846SOL    HW133069   4.800  10.478   2.319 -1.3367  0.3644 -0.8302
 9846SOL    HW233070   4.757  10.559   2.439  1.6434 -0.4798  0.9171
 9847SOL     OW33071   0.565   0.613   1.895 -0.1772 -0.2931 -0.2540
 9847SOL    HW133072   0.508   0.656   1.831 -0.8567 -2.3780 -1.1555
 9847SOL    HW233073   0.562   0.520   1.871  1.0733 -0.8973  1.6687
 9848SOL     OW33074   0.540   9.852   9.473 -0.0152 -0.1519 -0.0886
 9848SOL    HW133075   0.581   9.818   9.393  0.7997 -2.5834  1.2538
 9848SOL    HW233076   0.613   9.876   9.529 -0.4850 -0.8340  0.8431
 9849SOL     OW33077   3.400   1.806   5.003  0.4893 -0.1047 -0.4409
 9849SOL    HW133078   3.451   1.841   5.076 -0.6912 -1.8777  1.3112
 9849SOL    HW233079   3.429   1.715   4.995 -0.4570 -0.3500 -1.2329
 9850SOL     OW33080   6.404   2.595  10.248 -0.0266  0.1491 -0.0695
 9850SOL    HW133081   6.413   2.643  10.330  0.4251  0.7913 -0.4838
 9850SOL    HW233082   6.493   2.586  10.215 -0.2025 -0.1014 -0.4861
 9851SOL     OW33083   9.573   0.394   8.723 -0.7998  0.7254  0.0988
 9851SOL    HW133084   9.486   0.381   8.761 -0.9751 -0.5002 -0.6639
 9851SOL    HW233085   9.575   0.486   8.697 -1.5166  0.9997  0.9685
 9852SOL     OW33086   4.254   0.895   8.814  0.5947  0.2744 -0.3197
 9852SOL    HW133087   4.232   0.940   8.732 -1.7872  0.5213  0.3697
 9852SOL    HW233088   4.271   0.966   8.876  1.2069  0.1188 -0.3093
 9853SOL     OW33089   8.107   9.173   7.635  0.1533  0.3598 -0.9953
 9853SOL    HW133090   8.088   9.142   7.723  2.9167  0.5377 -0.2223
 9853SOL    HW233091   8.192   9.134   7.614 -0.5812  0.0069 -3.7865
 9854SOL     OW33092   6.841   0.733   6.163  0.6765 -0.2226  0.5791
 9854SOL    HW133093   6.748   0.735   6.140  0.7855 -0.9096  0.0621
 9854SOL    HW233094   6.862   0.640   6.172  1.5716 -0.1411 -0.4050
 9855SOL     OW33095  10.266   8.595   7.604 -0.7837 -0.0657  0.1132
 9855SOL    HW133096  10.277   8.686   7.577 -1.0587 -0.4418 -1.3529
 9855SOL    HW233097  10.191   8.564   7.552 -0.8370 -1.0629  0.7708
 9856SOL     OW33098   8.159   6.588   4.968 -0.0295 -0.2584  0.4019
 9856SOL    HW133099   8.124   6.525   5.031  1.4876 -0.9104  0.6115
 9856SOL    HW233100   8.081   6.631   4.933 -1.0234 -1.3501  1.1840
 9857SOL     OW33101  11.073   7.671  10.994  0.3093 -0.0846 -0.2494
 9857SOL    HW133102  10.986   7.639  10.970 -0.2128  1.2381 -0.2154
 9857SOL    HW233103  11.083   7.753  10.945  1.9453 -0.6864 -1.0043
 9858SOL     OW33104   1.831   8.600   3.743  0.0782  0.7152  0.2853
 9858SOL    HW133105   1.775   8.662   3.789 -0.9104 -0.0495  0.1330
 9858SOL    HW233106   1.890   8.655   3.691 -1.7997  1.5498 -1.0973
 9859SOL     OW33107   9.065   4.714  11.002  0.5463 -0.3781  0.1986
 9859SOL    HW133108   8.984   4.722  10.951  0.6998 -0.2141 -0.0211
 9859SOL    HW233109   9.051   4.635  11.056  0.2710 -0.3928  0.1106
 9860SOL     OW33110   2.527   8.273   2.572  0.1784  0.6268 -0.0648
 9860SOL    HW133111   2.552   8.351   2.523  0.7479 -0.2271 -1.1831
 9860SOL    HW233112   2.607   8.220   2.577 -0.0514  0.3549  1.1625
 9861SOL     OW33113  10.817   4.213   9.371  0.3771  0.5378 -0.0704
 9861SOL    HW133114  10.747   4.270   9.338  0.8897  1.4481  0.3579
 9861SOL    HW233115  10.848   4.166   9.293  0.2851  1.2320 -0.5396
 9862SOL     OW33116   9.702   9.310   5.297  0.2512  0.2255 -0.4306
 9862SOL    HW133117   9.685   9.392   5.344  0.4416 -0.1247  0.2656
 9862SOL    HW233118   9.765   9.334   5.230 -0.7206  0.9287 -1.1183
 9863SOL     OW33119   1.019   8.638   7.759  0.2866  0.4033  0.1660
 9863SOL    HW133120   1.082   8.650   7.831 -0.1914 -0.4934  0.7467
 9863SOL    HW233121   1.068   8.590   7.692 -0.0055 -1.0695  0.9748
 9864SOL     OW33122   9.418   2.192   2.001 -0.3242 -0.0766 -0.0413
 9864SOL    HW133123   9.397   2.273   2.048 -2.7332  0.0565 -1.1923
 9864SOL    HW233124   9.433   2.220   1.911  0.2901 -0.7619 -0.1560
 9865SOL     OW33125   8.079  10.718  11.012 -0.2962 -0.4760  0.1146
 9865SOL    HW133126   8.086  10.810  10.987 -0.3251 -0.8917 -1.5532
 9865SOL    HW233127   8.169  10.687  11.015 -0.3139 -0.5255  0.1204
 9866SOL     OW33128  10.269   8.626   4.680  0.1830 -0.2434 -0.2249
 9866SOL    HW133129  10.185   8.598   4.715 -0.9967  1.1145 -1.8090
 9866SOL    HW233130  10.323   8.645   4.757 -1.5096  0.4693  0.8274
 9867SOL     OW33131   9.069   4.827   5.995 -0.2468 -0.2983 -0.2290
 9867SOL    HW133132   9.131   4.759   6.022  0.0417 -0.5898 -1.5535
 9867SOL    HW233133   9.117   4.909   6.004  0.3477 -0.5187 -1.2175
 9868SOL     OW33134   5.893   7.423   7.091  0.2754  0.0600 -0.0163
 9868SOL    HW133135   5.958   7.414   7.161  0.2228  2.0535  0.3422
 9868SOL    HW233136   5.943   7.458   7.017  0.3179 -1.9695 -1.0244
 9869SOL     OW33137  10.816   7.452  10.005  0.6004  0.0550 -0.1706
 9869SOL    HW133138  10.795   7.477   9.915  0.8821  1.7035  0.1858
 9869SOL    HW233139  10.741   7.484  10.057  0.3962 -0.9626  0.1763
 9870SOL     OW33140   4.665   8.122   4.436  0.1960 -0.6749  0.2414
 9870SOL    HW133141   4.701   8.033   4.435  0.7470 -0.4649  0.8338
 9870SOL    HW233142   4.726   8.172   4.490  1.1371  0.5955 -1.8683
 9871SOL     OW33143  10.809   7.904  10.040 -0.3760 -0.4896 -0.0368
 9871SOL    HW133144  10.759   7.892  10.121 -1.2074 -3.1408 -0.8449
 9871SOL    HW233145  10.746   7.889   9.970  0.8746 -0.8174 -1.1358
 9872SOL     OW33146   9.187   5.284  10.840  0.3453  0.4294 -0.2949
 9872SOL    HW133147   9.118   5.339  10.877  1.3270  1.9246 -0.6297
 9872SOL    HW233148   9.145   5.198  10.830 -1.1149  0.9901  0.5743
 9873SOL     OW33149   8.424   4.919   6.004 -0.1056  0.2162 -0.4461
 9873SOL    HW133150   8.370   4.992   6.035  0.7588  0.1083  1.4019
 9873SOL    HW233151   8.456   4.877   6.083  0.4398 -1.4303 -1.4863
 9874SOL     OW33152   5.799   7.652   5.909 -0.0164 -0.2646 -0.1402
 9874SOL    HW133153   5.789   7.747   5.917  0.8484 -0.1126 -0.7259
 9874SOL    HW233154   5.710   7.617   5.916 -0.2884  0.5511  0.5378
 9875SOL     OW33155   2.485   2.597   2.656 -0.1932  0.4374 -0.8677
 9875SOL    HW133156   2.459   2.632   2.741 -0.8597 -1.1411 -0.3910
 9875SOL    HW233157   2.576   2.626   2.644 -0.0225  0.4943  0.4784
 9876SOL     OW33158   1.608   0.418   2.732  0.3634 -0.0055  0.4170
 9876SOL    HW133159   1.561   0.481   2.786  1.1045  0.1828  0.8552
 9876SOL    HW233160   1.545   0.347   2.718 -0.3319  0.6254  0.2750
 9877SOL     OW33161   7.069   1.721   0.231 -0.1751 -0.2711  0.2824
 9877SOL    HW133162   7.076   1.795   0.171  3.0192  0.5167  1.4324
 9877SOL    HW233163   7.049   1.760   0.316 -1.1417 -1.0219  0.4137
 9878SOL     OW33164   3.642   9.569   9.940  0.2759 -0.3527 -0.4169
 9878SOL    HW133165   3.577   9.507   9.975 -0.5797  1.1848  0.8267
 9878SOL    HW233166   3.592   9.625   9.881  0.4976  0.7197  0.3936
 9879SOL     OW33167   9.585  10.216  10.139 -0.3273  0.3191  0.5745
 9879SOL    HW133168   9.545  10.209  10.226 -0.0685 -1.8700  0.5550
 9879SOL    HW233169   9.667  10.167  10.147  2.1800  4.0446  0.4156
 9880SOL     OW33170   8.976   3.388   7.820  0.0299 -0.0799  0.4176
 9880SOL    HW133171   8.971   3.481   7.841  1.9045  0.0016  0.6600
 9880SOL    HW233172   8.960   3.384   7.726  0.1021  0.5239  0.3745
 9881SOL     OW33173   3.084   9.844   6.634 -0.0600 -0.1057 -0.2700
 9881SOL    HW133174   3.160   9.808   6.679 -0.9902 -0.1318  1.3466
 9881SOL    HW233175   3.115   9.927   6.597 -0.0477  1.8472  3.5466
 9882SOL     OW33176  10.472   5.732  11.108  0.8389 -0.3364  0.6883
 9882SOL    HW133177  10.560   5.756  11.137  0.4549 -1.0920  2.5815
 9882SOL    HW233178  10.486   5.662  11.044  1.6471  0.5189 -0.1041
 9883SOL     OW33179   9.623  10.010   0.285  0.6923 -0.0395  0.2903
 9883SOL    HW133180   9.592   9.964   0.363  0.8421  2.4234  1.8937
 9883SOL    HW233181   9.691   9.953   0.249 -0.3402 -1.8967  1.0993
 9884SOL     OW33182   4.357  10.017   7.455  0.4549  0.1508 -0.0879
 9884SOL    HW133183   4.318  10.053   7.535  0.1807  1.0109 -0.5929
 9884SOL    HW233184   4.412   9.945   7.485 -0.1346  0.0620  0.8145
 9885SOL     OW33185   5.492   4.606   0.717  0.4245  0.2290 -0.0960
 9885SOL    HW133186   5.550   4.573   0.648  0.2797 -0.7612  0.2389
 9885SOL    HW233187   5.536   4.582   0.799  0.7381  1.6508  0.1777
 9886SOL     OW33188   5.284   7.220  10.289 -0.2956 -0.3037  0.4930
 9886SOL    HW133189   5.248   7.292  10.340 -0.6137  0.2765 -0.5025
 9886SOL    HW233190   5.379   7.237  10.287 -0.6127  2.1491 -2.5785
 9887SOL     OW33191   5.078   4.138   3.330 -0.0678  0.4921 -0.4500
 9887SOL    HW133192   5.137   4.210   3.308  1.3782 -0.3477  0.5497
 9887SOL    HW233193   5.033   4.167   3.409  0.7295  0.2090  0.1233
 9888SOL     OW33194   4.400   8.331   1.690 -0.4593 -0.0223  0.2267
 9888SOL    HW133195   4.461   8.399   1.661 -0.0882 -0.8410 -0.9872
 9888SOL    HW233196   4.439   8.296   1.770 -1.1048  1.7648  1.3667
 9889SOL     OW33197   2.556   4.371  11.064  0.3367  0.4240 -0.2407
 9889SOL    HW133198   2.627   4.337  11.119 -0.1462  1.0934  0.8243
 9889SOL    HW233199   2.601   4.425  10.998  0.9060 -0.2515 -0.4241
 9890SOL     OW33200   4.124   4.317   4.214 -0.6551  0.4849 -0.1031
 9890SOL    HW133201   4.172   4.304   4.297 -0.1741 -2.8213 -0.7686
 9890SOL    HW233202   4.060   4.385   4.234  0.6392  1.0920  2.4406
 9891SOL     OW33203   7.111  10.774   1.778  0.1327  0.0599  0.2508
 9891SOL    HW133204   7.031  10.786   1.727 -0.1647  0.3060  0.7679
 9891SOL    HW233205   7.128  10.680   1.774 -0.6068 -0.1052  0.7574
 9892SOL     OW33206  10.700   9.187  10.443  0.6242 -0.0227  0.2291
 9892SOL    HW133207  10.727   9.192  10.351 -0.6087 -0.2785 -0.1550
 9892SOL    HW233208  10.747   9.111  10.477  0.7728 -0.1759 -0.3018
 9893SOL     OW33209   9.972   1.888  11.040  0.2319  0.1330 -0.2315
 9893SOL    HW133210   9.918   1.938  10.979 -1.2947  0.6547  1.4230
 9893SOL    HW233211  10.009   1.955  11.099  0.4164 -0.4456  0.3194
 9894SOL     OW33212   8.595   2.046   0.711  0.3974  0.0752 -0.4333
 9894SOL    HW133213   8.663   2.037   0.778 -0.6251 -1.2467  0.4697
 9894SOL    HW233214   8.532   1.977   0.731  0.2218 -0.6161 -2.9797
 9895SOL     OW33215   2.160   3.064   2.341  0.1147 -0.0627 -0.7659
 9895SOL    HW133216   2.141   2.976   2.309 -0.1864 -0.2396 -0.1065
 9895SOL    HW233217   2.123   3.066   2.429  0.4146  0.6146 -0.6528
 9896SOL     OW33218   4.939   0.215   1.036 -0.1321 -0.3419 -0.3630
 9896SOL    HW133219   4.978   0.128   1.022 -0.8654 -0.6761 -0.3911
 9896SOL    HW233220   4.879   0.226   0.962  0.6503  0.6045 -0.8740
 9897SOL     OW33221   7.568   7.373  11.029  0.2823  0.0194  0.2872
 9897SOL    HW133222   7.521   7.312  10.973  0.6319 -0.6616  0.7254
 9897SOL    HW233223   7.653   7.385  10.986 -0.1012  0.8891 -0.2591
 9898SOL     OW33224  10.569   5.966   7.991 -0.0137 -0.4262  0.2817
 9898SOL    HW133225  10.521   5.995   7.914 -0.3352 -1.5634  0.0326
 9898SOL    HW233226  10.541   6.025   8.061 -1.9229 -1.1663  0.1861
 9899SOL     OW33227   8.274  10.393   0.338  0.2006  0.1751  0.0630
 9899SOL    HW133228   8.225  10.454   0.393 -2.5630 -1.2070 -0.7146
 9899SOL    HW233229   8.266  10.309   0.383  1.7282 -0.1553 -0.2249
 9900SOL     OW33230   8.137   2.922   1.951 -0.0886 -0.2551 -0.5091
 9900SOL    HW133231   8.121   2.949   1.861 -0.2442 -1.7004 -0.9342
 9900SOL    HW233232   8.210   2.860   1.946  0.4120  0.2253  0.4585
 9901SOL     OW33233   9.866   6.416  10.944 -0.3416 -0.2092  0.1467
 9901SOL    HW133234   9.951   6.373  10.951  0.2424  0.9375  0.2255
 9901SOL    HW233235   9.816   6.381  11.018  1.0796  1.3296  1.9458
 9902SOL     OW33236   3.967   7.617  10.043 -0.2773  0.5388 -0.0024
 9902SOL    HW133237   3.879   7.599  10.013  0.0870 -1.5242  0.0284
 9902SOL    HW233238   4.003   7.531  10.066  1.8319  1.2793 -0.2896
 9903SOL     OW33239   4.612   5.418   5.237 -0.1585  0.4426 -0.3762
 9903SOL    HW133240   4.539   5.370   5.198  1.3236 -0.4572 -2.1527
 9903SOL    HW233241   4.622   5.496   5.182  1.6249 -0.5799 -1.6030
 9904SOL     OW33242   6.439   7.083   6.982  0.3087  0.4464 -0.1332
 9904SOL    HW133243   6.386   7.062   7.059  1.8094  1.4935  1.2530
 9904SOL    HW233244   6.397   7.161   6.945 -0.0766  0.2871 -0.0397
 9905SOL     OW33245   0.300   1.207   0.547 -0.1425 -0.1866 -0.5027
 9905SOL    HW133246   0.291   1.223   0.641  1.9953 -0.3973 -0.2054
 9905SOL    HW233247   0.249   1.278   0.506 -0.6325  0.2489  0.8035
 9906SOL     OW33248   3.206  10.067   6.451 -0.1257  0.1972 -0.0187
 9906SOL    HW133249   3.225  10.160   6.459  1.4373 -0.0243 -0.6504
 9906SOL    HW233250   3.218  10.048   6.358 -0.5975 -0.6021  0.0745
 9907SOL     OW33251   9.385   2.397   1.454 -0.0567 -0.5627 -0.3922
 9907SOL    HW133252   9.393   2.491   1.472  0.1830 -0.9016  1.4252
 9907SOL    HW233253   9.466   2.359   1.488 -0.5768 -1.5522 -0.2364
 9908SOL     OW33254   5.718   8.412   4.086 -0.0706 -0.1699 -0.1133
 9908SOL    HW133255   5.767   8.334   4.114  0.0434 -0.0739 -0.0450
 9908SOL    HW233256   5.627   8.382   4.080 -0.3275  0.1266  1.6639
 9909SOL     OW33257   5.734   0.795   3.018 -0.0730  0.5180 -0.3404
 9909SOL    HW133258   5.749   0.880   2.977  0.3631  0.8588  0.4989
 9909SOL    HW233259   5.818   0.750   3.013 -0.4339 -0.0823 -1.2454
 9910SOL     OW33260   1.037  10.482   1.710 -0.1863  0.3973 -0.0831
 9910SOL    HW133261   1.122  10.514   1.680 -0.2886  1.2034  0.4603
 9910SOL    HW233262   0.980  10.559   1.709 -0.3605  0.3194  1.5438
 9911SOL     OW33263   3.193   6.156   9.359  0.0982 -0.0148  0.0866
 9911SOL    HW133264   3.263   6.210   9.396 -0.7147  1.4325 -0.3997
 9911SOL    HW233265   3.232   6.069   9.349  1.7736  0.7235 -0.0652
 9912SOL     OW33266   7.828   5.042   0.900  0.3205 -0.1414 -0.6663
 9912SOL    HW133267   7.748   5.081   0.866  0.8083  1.3162 -0.1985
 9912SOL    HW233268   7.891   5.049   0.828  0.4205 -0.0235 -0.5680
 9913SOL     OW33269   0.345   3.702   5.477 -0.7274 -0.3408  0.2482
 9913SOL    HW133270   0.400   3.624   5.473  0.0743  0.1582  1.0177
 9913SOL    HW233271   0.396   3.770   5.433 -1.4717 -0.2653 -0.5294
 9914SOL     OW33272   1.953   5.108   4.937  0.0284 -0.0672  0.5813
 9914SOL    HW133273   1.965   5.043   4.868  1.6657 -0.4670  1.2048
 9914SOL    HW233274   1.882   5.164   4.905  0.2290 -0.6981 -1.0678
 9915SOL     OW33275   4.676   8.144   0.209  0.1998 -0.1060  0.5388
 9915SOL    HW133276   4.643   8.080   0.272  1.3931 -0.5289  0.7717
 9915SOL    HW233277   4.650   8.109   0.124 -1.2186  0.3452  0.7739
 9916SOL     OW33278   6.437   2.902   2.637  0.2001  0.4727  0.0349
 9916SOL    HW133279   6.452   2.941   2.551 -0.0911  1.1232  0.2679
 9916SOL    HW233280   6.380   2.965   2.682  0.5548  0.2679  0.7900
 9917SOL     OW33281   2.784   5.326  10.100 -0.1178  0.0305  0.0723
 9917SOL    HW133282   2.727   5.390  10.056  1.1547  1.5736  0.5802
 9917SOL    HW233283   2.821   5.373  10.174  0.7658 -1.3580  0.5545
 9918SOL     OW33284   0.347   2.428   7.609  0.2691 -0.0600  0.9219
 9918SOL    HW133285   0.311   2.502   7.658 -1.3930 -0.1592 -0.0755
 9918SOL    HW233286   0.271   2.377   7.583  1.3011 -1.4165  0.4585
 9919SOL     OW33287  10.145   4.246   7.259  0.0946  0.0903 -0.3531
 9919SOL    HW133288  10.112   4.187   7.327 -0.6105  0.0826 -0.6892
 9919SOL    HW233289  10.068   4.297   7.234  0.4265  0.3062 -0.9264
 9920SOL     OW33290  10.129   3.568  10.891  0.4985 -0.0990 -0.5177
 9920SOL    HW133291  10.066   3.540  10.957  0.0580  1.4960 -0.2108
 9920SOL    HW233292  10.150   3.658  10.915 -0.1615  0.7754 -2.8797
 9921SOL     OW33293   6.805   1.064   9.186  0.2294 -0.4044  0.2424
 9921SOL    HW133294   6.884   1.119   9.187 -0.6115  0.8669 -0.8281
 9921SOL    HW233295   6.786   1.052   9.093 -1.5042  0.3189  0.4759
 9922SOL     OW33296   4.764   9.311   8.318 -0.7429  0.5151  0.3626
 9922SOL    HW133297   4.692   9.355   8.364 -2.0303 -0.0117 -1.0436
 9922SOL    HW233298   4.723   9.275   8.239  0.6893 -1.4747  0.4613
 9923SOL     OW33299   5.018  10.863   4.447  0.8356 -0.1868 -0.1068
 9923SOL    HW133300   4.986  10.807   4.376  1.0998 -0.7060  0.1777
 9923SOL    HW233301   4.941  10.881   4.501  0.7032 -0.0802 -0.3324
 9924SOL     OW33302   6.954  10.491   0.571 -0.0310  0.0422 -0.5143
 9924SOL    HW133303   6.865  10.456   0.580 -0.1061  0.5707  1.1175
 9924SOL    HW233304   7.009  10.413   0.560 -0.6956 -0.2839 -1.6593
 9925SOL     OW33305  10.640   9.952  10.773 -0.1740 -0.2765 -0.4231
 9925SOL    HW133306  10.605  10.030  10.817 -0.3535  1.4522 -3.3258
 9925SOL    HW233307  10.677   9.986  10.692  2.8508 -2.8523 -0.2939
 9926SOL     OW33308   7.689   7.473   4.492  0.5308  0.1397 -0.9024
 9926SOL    HW133309   7.682   7.459   4.397 -1.5049  0.8859 -0.9117
 9926SOL    HW233310   7.686   7.384   4.529 -1.6715 -0.0841 -1.4496
 9927SOL     OW33311   0.114   5.076   1.892 -0.5436  0.0097  0.2456
 9927SOL    HW133312   0.061   5.071   1.813 -0.5878 -2.5226  0.3457
 9927SOL    HW233313   0.075   5.147   1.943 -2.1236  0.0178 -0.8993
 9928SOL     OW33314   2.589   8.820   5.882 -0.9910 -0.3644 -0.0876
 9928SOL    HW133315   2.505   8.818   5.927 -0.5379  0.3357  0.8274
 9928SOL    HW233316   2.613   8.728   5.872 -2.3070 -0.6192 -1.2710
 9929SOL     OW33317   9.527   3.966   9.971  0.3128  0.0873  0.3165
 9929SOL    HW133318   9.469   3.975   9.895  0.0287  0.1431  0.5395
 9929SOL    HW233319   9.471   3.987  10.046  0.8228  0.9454  0.4708
 9930SOL     OW33320   1.339   5.895   1.119  0.3185 -0.2448  0.3194
 9930SOL    HW133321   1.267   5.879   1.180  0.5663  0.8248  0.9292
 9930SOL    HW233322   1.307   5.863   1.035 -1.1093  0.7273  0.4576
 9931SOL     OW33323   9.933   9.227   6.941  0.5096 -0.0328 -0.0366
 9931SOL    HW133324   9.995   9.192   6.876  0.9692  0.8113 -0.0618
 9931SOL    HW233325   9.958   9.318   6.951 -1.2119  0.5449 -0.5995
 9932SOL     OW33326   4.912   0.226   2.984 -0.1492  0.0810  0.7481
 9932SOL    HW133327   4.940   0.145   2.940  0.4339 -0.0402  1.3269
 9932SOL    HW233328   4.874   0.196   3.067 -0.5780  0.3577  0.6549
 9933SOL     OW33329   3.745   2.124   6.905 -0.2219  0.7574  0.1871
 9933SOL    HW133330   3.701   2.054   6.952  0.4610  1.1022  1.3801
 9933SOL    HW233331   3.818   2.149   6.961  0.9544  0.8330 -1.3103
 9934SOL     OW33332  10.779   3.015   6.034  0.2541  0.5405 -0.1823
 9934SOL    HW133333  10.852   3.076   6.037 -0.1693  1.0082  1.1039
 9934SOL    HW233334  10.751   3.006   6.125 -1.9362  1.1679 -0.7331
 9935SOL     OW33335   0.730  10.672   9.992 -0.5833 -0.3790 -0.1602
 9935SOL    HW133336   0.779  10.591  10.006  0.7780  0.8010  2.6777
 9935SOL    HW233337   0.640  10.649  10.013 -0.1185 -1.0696  1.2375
 9936SOL     OW33338   4.579   8.365   0.427 -0.4315  0.6445  0.4742
 9936SOL    HW133339   4.583   8.285   0.480 -0.9246  0.9530  0.9762
 9936SOL    HW233340   4.639   8.425   0.471 -1.1968  1.0624  0.9648
 9937SOL     OW33341   5.319  10.595   2.948  0.3156 -0.3798  0.3330
 9937SOL    HW133342   5.335  10.514   2.900 -1.3230  0.1147 -1.1779
 9937SOL    HW233343   5.301  10.567   3.038 -0.4590 -1.7250 -0.2112
 9938SOL     OW33344   9.683   9.250   3.248  0.2784  0.5651  0.5212
 9938SOL    HW133345   9.736   9.330   3.244  1.0100  0.0451 -0.7110
 9938SOL    HW233346   9.605   9.270   3.197 -0.2303  0.9681  1.4350
 9939SOL     OW33347   2.631   1.029   7.408 -0.2772 -0.9147  0.3575
 9939SOL    HW133348   2.567   0.960   7.391  0.7114 -1.3477 -2.1083
 9939SOL    HW233349   2.703   1.009   7.348  0.0686  2.2309 -0.4621
 9940SOL     OW33350   6.925   9.252   7.153 -0.1938 -0.3136  0.3149
 9940SOL    HW133351   6.900   9.162   7.137 -0.5464 -0.0635 -0.6076
 9940SOL    HW233352   6.852   9.288   7.205 -0.4583 -0.3315 -0.0386
 9941SOL     OW33353   3.296   6.384   6.870  0.2727 -0.4478 -0.0838
 9941SOL    HW133354   3.337   6.343   6.946 -0.7074  0.4524  0.9692
 9941SOL    HW233355   3.232   6.444   6.907  0.8280  1.1644 -1.5841
 9942SOL     OW33356   7.886   2.150   9.493  0.1185  0.1716  0.3776
 9942SOL    HW133357   7.841   2.133   9.577  1.8100  1.4174  1.6039
 9942SOL    HW233358   7.873   2.243   9.477 -0.0915 -0.0323 -0.7306
 9943SOL     OW33359   0.612   3.377   2.156  0.7978  0.0532  0.4618
 9943SOL    HW133360   0.649   3.465   2.153 -0.9157  0.7956 -0.9496
 9943SOL    HW233361   0.633   3.339   2.071 -0.8175  0.1780 -0.0298
 9944SOL     OW33362   0.162   8.211   1.126 -0.3870  0.2343  0.4713
 9944SOL    HW133363   0.162   8.306   1.110 -1.3758  0.1011 -0.4240
 9944SOL    HW233364   0.253   8.185   1.111 -0.0213  1.0944  1.1109
 9945SOL     OW33365   0.621   4.683   2.022  0.6816 -0.2049  0.6909
 9945SOL    HW133366   0.667   4.704   1.941  0.1386 -2.7715 -0.3669
 9945SOL    HW233367   0.545   4.742   2.023  2.5542  2.4005  1.2725
 9946SOL     OW33368   4.131   7.090   9.842  0.4468 -0.0060  0.1889
 9946SOL    HW133369   4.215   7.136   9.840  0.6600 -0.3173 -2.4440
 9946SOL    HW233370   4.154   6.998   9.824 -0.3631 -0.3147  0.6901
 9947SOL     OW33371   7.168   1.416   2.481 -0.0633  0.0597  0.2189
 9947SOL    HW133372   7.078   1.399   2.507 -0.1548 -0.0865 -0.1814
 9947SOL    HW233373   7.192   1.497   2.526 -0.0841 -0.3893  1.0617
 9948SOL     OW33374   2.572   3.599   4.972 -0.0362 -0.1656  0.0290
 9948SOL    HW133375   2.560   3.565   5.061 -0.5777  1.9671  0.8284
 9948SOL    HW233376   2.537   3.530   4.915 -2.5973 -0.3008  1.6271
 9949SOL     OW33377   5.961   4.161   9.407  0.0656 -0.3889  0.0440
 9949SOL    HW133378   5.883   4.198   9.448  1.1488  1.9547  0.1557
 9949SOL    HW233379   5.936   4.071   9.385 -2.5814  0.2156  0.2335
 9950SOL     OW33380   4.009  10.509   1.640  0.6160 -0.0499 -0.0423
 9950SOL    HW133381   4.002  10.450   1.715 -0.7367 -0.9849 -0.8665
 9950SOL    HW233382   3.934  10.568   1.648  1.1835  0.6676  0.0263
 9951SOL     OW33383   1.206   8.525   2.588  0.2836  0.6769 -0.4817
 9951SOL    HW133384   1.220   8.469   2.664 -1.9669 -0.5136 -0.8661
 9951SOL    HW233385   1.157   8.599   2.623 -1.0574 -0.0401 -0.7884
 9952SOL     OW33386   9.262   7.936   6.962 -0.2738  0.4844 -0.0483
 9952SOL    HW133387   9.189   7.995   6.940  0.2566  0.7885 -1.0985
 9952SOL    HW233388   9.265   7.874   6.889 -0.7159 -0.7678  0.9658
 9953SOL     OW33389   0.081  10.051   3.324 -0.4571  0.6275  0.6000
 9953SOL    HW133390   0.070   9.958   3.304 -1.1657  0.9399 -0.6016
 9953SOL    HW233391   0.175  10.062   3.340 -0.1066 -0.0013 -0.9027
 9954SOL     OW33392   3.828   6.810   4.566 -0.1836  0.1838  0.2771
 9954SOL    HW133393   3.827   6.723   4.528  0.7481  0.2181  0.1622
 9954SOL    HW233394   3.915   6.819   4.605 -0.1715  1.1488  0.0669
 9955SOL     OW33395   6.686  10.033  10.522  0.4518  0.1772 -0.0605
 9955SOL    HW133396   6.621  10.088  10.478  0.5818 -0.8897 -1.6676
 9955SOL    HW233397   6.770  10.076  10.503  0.2833  1.7422  2.2919
 9956SOL     OW33398   4.106   4.919   6.904  0.1193 -0.7075  0.2760
 9956SOL    HW133399   4.011   4.920   6.894  0.1971 -1.0540 -0.5397
 9956SOL    HW233400   4.123   4.845   6.963 -0.0180 -1.5511 -0.7266
 9957SOL     OW33401   4.404   5.880   0.275 -0.3908 -0.3382 -0.0778
 9957SOL    HW133402   4.458   5.825   0.218  1.1984  1.8314 -0.8003
 9957SOL    HW233403   4.332   5.910   0.220 -0.4141 -0.4920 -0.1298
 9958SOL     OW33404   2.713   6.589   7.612 -0.1398 -0.0118 -0.0492
 9958SOL    HW133405   2.652   6.622   7.547 -0.8414  2.3971  1.6851
 9958SOL    HW233406   2.678   6.503   7.636  1.1137 -1.8506 -3.9155
 9959SOL     OW33407   3.786   8.485   9.852  0.1800  0.7179  0.1373
 9959SOL    HW133408   3.769   8.393   9.834  0.1776  0.8297 -0.4453
 9959SOL    HW233409   3.754   8.531   9.774  0.7351  1.1573  0.1635
 9960SOL     OW33410   4.777   3.890  11.116 -0.0940 -0.2641  0.4820
 9960SOL    HW133411   4.770   3.914  11.208 -0.6438 -2.4227  1.0425
 9960SOL    HW233412   4.864   3.850  11.107 -0.3652 -0.8116  0.2559
 9961SOL     OW33413   6.989   9.906   3.715 -0.3457 -0.0895 -0.0743
 9961SOL    HW133414   7.042   9.828   3.730  1.5269  0.8512 -1.4474
 9961SOL    HW233415   6.978   9.945   3.802 -0.2366 -1.1998  0.4459
 9962SOL     OW33416   5.084   2.876   1.948 -0.1094 -0.5343 -0.2266
 9962SOL    HW133417   5.029   2.811   1.905  0.0036 -0.4800 -0.4536
 9962SOL    HW233418   5.023   2.929   2.001 -0.0824 -1.4370  0.7367
 9963SOL     OW33419   1.884   4.375   1.967 -0.7154 -0.3181  0.3022
 9963SOL    HW133420   1.869   4.330   1.884 -1.2110 -0.0498  0.2445
 9963SOL    HW233421   1.898   4.305   2.030  0.0111 -0.5200 -0.0682
 9964SOL     OW33422   9.017   9.293   4.667  0.2677  0.1717 -0.4164
 9964SOL    HW133423   9.102   9.264   4.635  0.5245  2.2542 -1.8350
 9964SOL    HW233424   9.031   9.311   4.760  0.7136 -1.7019 -0.0756
 9965SOL     OW33425   8.199   1.518  10.526 -0.4647 -0.0316  0.6202
 9965SOL    HW133426   8.256   1.443  10.538 -0.1863  0.2899  1.3219
 9965SOL    HW233427   8.256   1.594  10.535 -0.7315  0.2713 -0.1463
 9966SOL     OW33428   7.597   2.930   8.876  0.2276  0.0267  0.0152
 9966SOL    HW133429   7.633   3.018   8.868 -0.0527  0.1225 -0.1940
 9966SOL    HW233430   7.673   2.874   8.894  0.4362  0.2720 -0.1107
 9967SOL     OW33431   2.038   8.563   2.754 -0.5501 -0.2003 -0.0918
 9967SOL    HW133432   2.006   8.620   2.684  1.7924  0.0208 -1.0647
 9967SOL    HW233433   2.083   8.492   2.708  1.3797  0.1438  1.1459
 9968SOL     OW33434   0.354   3.581  10.122 -0.2837 -0.5574  0.0360
 9968SOL    HW133435   0.352   3.629  10.039 -1.7481  0.8563  0.8376
 9968SOL    HW233436   0.272   3.533  10.123  0.1356 -1.2768  0.2868
 9969SOL     OW33437   8.400   8.773   5.944  0.0533  0.0811 -0.2560
 9969SOL    HW133438   8.342   8.848   5.962  0.4760  0.2269  0.5571
 9969SOL    HW233439   8.364   8.702   5.998  0.8645  0.2894  0.5827
 9970SOL     OW33440   5.798   1.121   9.830  0.4277 -0.2945 -0.4999
 9970SOL    HW133441   5.714   1.157   9.802  0.4457  1.3288  1.3279
 9970SOL    HW233442   5.800   1.033   9.793 -1.8632 -0.2050 -0.9741
 9971SOL     OW33443   8.751   4.656   6.439  0.5795 -0.3738 -0.0955
 9971SOL    HW133444   8.832   4.690   6.476  0.8218 -1.3409  0.2855
 9971SOL    HW233445   8.767   4.563   6.429  0.3525 -0.2346 -2.2042
 9972SOL     OW33446   5.605   3.977   9.258 -0.4650 -0.7550 -0.1753
 9972SOL    HW133447   5.696   3.966   9.286 -0.6462 -1.9955  0.0097
 9972SOL    HW233448   5.606   3.958   9.165 -0.2366  1.1472 -0.5929
 9973SOL     OW33449   7.245   2.646   0.392  0.1256  0.8096 -0.3395
 9973SOL    HW133450   7.158   2.666   0.426  1.0912  3.5849  0.7216
 9973SOL    HW233451   7.253   2.700   0.313  0.8195  0.3856 -0.5719
 9974SOL     OW33452   8.108   3.337   7.316 -0.4199 -0.2422 -0.4524
 9974SOL    HW133453   8.086   3.371   7.230  2.2719  0.1142 -1.0801
 9974SOL    HW233454   8.057   3.391   7.377  0.7687  2.3322 -1.6297
 9975SOL     OW33455  10.072   4.194   2.785  0.0316  0.3818 -0.2371
 9975SOL    HW133456  10.158   4.187   2.826  0.4844  0.3105 -1.1559
 9975SOL    HW233457  10.090   4.224   2.696 -0.7226 -1.3617 -1.0366
 9976SOL     OW33458   9.964   5.236   5.985 -0.2725 -0.2621 -0.1964
 9976SOL    HW133459   9.954   5.316   6.036 -1.0458 -0.7533  0.4518
 9976SOL    HW233460   9.957   5.265   5.894  0.3233  0.5152 -0.0079
 9977SOL     OW33461   6.980   4.658   7.403 -0.3433 -0.2783 -0.5109
 9977SOL    HW133462   6.993   4.630   7.493 -0.4793  0.5739 -0.2162
 9977SOL    HW233463   6.898   4.617   7.376  0.5181 -1.8968 -0.8254
 9978SOL     OW33464   2.881   7.478   3.016 -0.6840  0.3780 -0.3940
 9978SOL    HW133465   2.842   7.459   3.101 -0.1664  0.0026 -0.2345
 9978SOL    HW233466   2.926   7.562   3.029  0.9759 -0.5719  0.2610
 9979SOL     OW33467   5.887   6.665   1.597 -0.4623  0.0829 -0.0314
 9979SOL    HW133468   5.921   6.601   1.534  0.1881  0.8905 -0.5273
 9979SOL    HW233469   5.803   6.629   1.626 -0.7670 -0.3135 -1.3514
 9980SOL     OW33470   1.800   2.418   3.240  0.1950 -0.0063 -0.2010
 9980SOL    HW133471   1.726   2.462   3.282 -0.0047  0.3679 -0.9129
 9980SOL    HW233472   1.801   2.330   3.278  1.1445  0.8529  1.8848
 9981SOL     OW33473   2.224   0.310  10.722 -0.4686  0.0091  0.1867
 9981SOL    HW133474   2.196   0.227  10.760  2.2523 -0.0596  2.3679
 9981SOL    HW233475   2.181   0.377  10.775  0.9943 -0.0941  1.5893
 9982SOL     OW33476   7.140   8.255   8.384 -0.2244 -0.4035  0.8403
 9982SOL    HW133477   7.155   8.290   8.296 -0.8359 -2.2958 -0.0765
 9982SOL    HW233478   7.223   8.267   8.429  1.0531 -1.8600 -0.9320
 9983SOL     OW33479   4.500   5.136  11.007 -0.3475 -0.0982  0.3835
 9983SOL    HW133480   4.522   5.227  11.028  1.9067 -0.9379  2.1869
 9983SOL    HW233481   4.426   5.142  10.948  0.2951  2.9333 -0.2895
 9984SOL     OW33482   9.525  10.930   0.210  0.9035  0.2648 -0.3068
 9984SOL    HW133483   9.490  11.013   0.176  1.9690  1.5304  1.4926
 9984SOL    HW233484   9.620  10.940   0.204  1.0500 -1.0518 -0.5139
 9985SOL     OW33485   1.368  10.209  10.661 -0.4395  0.4260 -0.1162
 9985SOL    HW133486   1.410  10.123  10.652  0.6284  1.0212 -1.0786
 9985SOL    HW233487   1.364  10.224  10.756 -0.0234 -0.3963  0.0380
 9986SOL     OW33488   5.922   9.992   2.346 -0.6612  0.1980  0.3977
 9986SOL    HW133489   5.849   9.972   2.405  0.6543  0.0669  2.0584
 9986SOL    HW233490   5.951   9.907   2.314  0.2830  0.0092  1.6803
 9987SOL     OW33491   2.680   3.773   0.684  0.4293 -0.3344  0.1741
 9987SOL    HW133492   2.592   3.735   0.683 -1.0634  2.8086 -0.4733
 9987SOL    HW233493   2.710   3.763   0.775 -1.1997 -0.1941  0.7490
 9988SOL     OW33494   6.249   8.176   8.465  0.4415 -0.1736 -0.6127
 9988SOL    HW133495   6.255   8.132   8.381 -0.0004 -1.5216  0.0318
 9988SOL    HW233496   6.189   8.248   8.451  0.5851 -0.2259 -1.5167
 9989SOL     OW33497   3.823   6.437   6.476  0.2696 -0.0262 -0.2343
 9989SOL    HW133498   3.885   6.486   6.530 -0.3482 -0.2248  0.6785
 9989SOL    HW233499   3.777   6.381   6.538 -1.9199  1.2167 -0.6323
 9990SOL     OW33500   1.906   3.720   9.296 -0.2285 -0.4234  0.5434
 9990SOL    HW133501   1.923   3.629   9.317 -1.9735 -0.3129  2.8314
 9990SOL    HW233502   1.941   3.769   9.370 -1.0199  0.6019  0.2709
 9991SOL     OW33503   6.563   9.985  10.782  0.6851  0.4947  0.1732
 9991SOL    HW133504   6.551   9.901  10.738  1.3989  0.5177 -0.0783
 9991SOL    HW233505   6.615  10.037  10.721 -0.8589  1.6100 -0.2501
 9992SOL     OW33506   2.924   6.516   3.458 -0.0254 -0.0347 -0.1195
 9992SOL    HW133507   2.982   6.580   3.417  1.4922 -2.5420 -2.2395
 9992SOL    HW233508   2.948   6.517   3.551 -0.0385  2.3626 -0.0898
 9993SOL     OW33509   2.910   1.174   6.035 -0.0733  0.3181  0.0301
 9993SOL    HW133510   2.890   1.085   6.067 -1.5567  1.0193  1.1848
 9993SOL    HW233511   2.867   1.179   5.950  0.1784 -0.1273 -0.1277
 9994SOL     OW33512   1.291  10.549   6.872 -0.0345 -0.2459  0.3010
 9994SOL    HW133513   1.308  10.462   6.908  1.0268 -0.3728 -0.4307
 9994SOL    HW233514   1.280  10.606   6.948 -2.6718 -1.3258  0.8149
 9995SOL     OW33515  10.331   9.809  10.316  0.1134  0.0678  0.1826
 9995SOL    HW133516  10.237   9.826  10.323  0.0466 -0.2517  0.0761
 9995SOL    HW233517  10.344   9.783  10.225  0.2509 -0.2121  0.2798
 9996SOL     OW33518   8.321   8.172   4.677 -0.0938 -0.6153 -0.8342
 9996SOL    HW133519   8.286   8.176   4.766 -1.7682 -4.0436 -1.1430
 9996SOL    HW233520   8.245   8.187   4.621  1.0758  2.2687 -1.8317
 9997SOL     OW33521   9.741   5.476  10.213  0.3525 -0.6028 -0.1365
 9997SOL    HW133522   9.704   5.447  10.130  2.5820  0.7190 -1.7195
 9997SOL    HW233523   9.720   5.406  10.274 -1.9069 -1.3469 -1.6246
 9998SOL     OW33524  10.276   2.947   2.242  0.0599  0.5501 -0.1815
 9998SOL    HW133525  10.338   2.879   2.269 -0.2533  0.1250 -0.5283
 9998SOL    HW233526  10.216   2.903   2.182 -0.7719  0.8844  0.3821
 9999SOL     OW33527   8.814   7.711   0.930 -0.1023 -0.2581  0.2651
 9999SOL    HW133528   8.853   7.764   0.860 -0.0708 -0.9440 -0.2470
 9999SOL    HW233529   8.732   7.756   0.951  0.4418  0.6022  0.6146
10000SOL     OW33530   7.918   9.492   2.334 -0.4942 -0.0615 -0.6167
10000SOL    HW133531   7.845   9.546   2.305 -1.6757 -0.8523  0.7803
10000SOL    HW233532   7.960   9.463   2.253 -1.4916  0.6868 -1.4303
10001SOL     OW33533   9.394   5.764   3.142  0.2295 -0.1255 -0.7188
10001SOL    HW133534   9.353   5.739   3.224 -0.0502  0.9509 -0.5127
10001SOL    HW233535   9.467   5.821   3.167  0.7027 -0.5169 -1.1762
10002SOL     OW33536   9.596  10.603   2.420  0.2443 -0.2750  0.3978
10002SOL    HW133537   9.524  10.603   2.483  0.8476 -0.4421  1.1001
10002SOL    HW233538   9.585  10.522   2.371  0.6375 -0.8792  1.3010
10003SOL     OW33539   7.407   9.610   1.486 -0.7549  0.3338  0.0081
10003SOL    HW133540   7.363   9.679   1.437 -0.3488  0.5960  0.0005
10003SOL    HW233541   7.439   9.654   1.565 -1.5821 -0.1303  0.6122
10004SOL     OW33542   5.434   0.841   2.846  0.0519  0.7392  0.3513
10004SOL    HW133543   5.393   0.880   2.768  0.7610  2.2461  0.6836
10004SOL    HW233544   5.516   0.803   2.813  0.1403  0.9894  0.2748
10005SOL     OW33545   6.691   6.582   1.456 -0.2525  0.2294 -0.3967
10005SOL    HW133546   6.646   6.662   1.483  0.4818  0.9229 -1.2030
10005SOL    HW233547   6.701   6.590   1.361  1.8588  0.2599 -0.2176
10006SOL     OW33548  10.355   7.481  10.744 -0.4227  0.2003 -0.1666
10006SOL    HW133549  10.260   7.491  10.742 -0.6933 -0.9739  2.4182
10006SOL    HW233550  10.374   7.417  10.675 -1.4762  0.5336 -0.7856
10007SOL     OW33551   8.904   2.413   4.523  1.1937 -0.5248 -0.2036
10007SOL    HW133552   8.977   2.460   4.484  0.6220  0.3586 -0.2380
10007SOL    HW233553   8.916   2.322   4.496  0.6937  0.0789 -2.6551
10008SOL     OW33554   3.904   0.176   7.875  0.5239  0.4472  0.1178
10008SOL    HW133555   3.887   0.096   7.926  0.5282 -1.0840 -2.1164
10008SOL    HW233556   3.843   0.169   7.801  1.1218  2.1015 -0.5620
10009SOL     OW33557  11.120   4.555  10.942 -0.6498  0.2660  0.2325
10009SOL    HW133558  11.078   4.566  11.027 -0.3542  0.4969  0.3493
10009SOL    HW233559  11.212   4.578  10.957  0.4361 -3.6831  0.8626
10010SOL     OW33560   2.129   8.593   0.806 -0.0428  0.8728  0.2509
10010SOL    HW133561   2.083   8.544   0.738  0.2217  2.0533 -0.8362
10010SOL    HW233562   2.218   8.558   0.804 -0.1486  0.5979  0.3035
10011SOL     OW33563   4.519  10.698   5.663 -0.4137 -0.5230 -0.3168
10011SOL    HW133564   4.569  10.706   5.582  0.1090  1.5481  0.1466
10011SOL    HW233565   4.446  10.640   5.641 -0.0721 -0.3055 -2.1570
10012SOL     OW33566   4.473   1.782   8.369  0.4031  0.0475  0.0890
10012SOL    HW133567   4.448   1.862   8.415 -2.0094 -0.0527 -0.9038
10012SOL    HW233568   4.449   1.711   8.428 -2.8823 -0.0897 -1.2183
10013SOL     OW33569   3.769   7.368   0.672 -0.0574 -0.1778 -0.0114
10013SOL    HW133570   3.810   7.426   0.735  0.6953  0.1300 -0.7581
10013SOL    HW233571   3.679   7.401   0.663  0.6202  1.4816 -1.1134
10014SOL     OW33572   8.632  11.065   0.155  0.3134  0.0616 -0.4993
10014SOL    HW133573   8.631  11.081   0.061 -1.0542  2.2507 -0.1958
10014SOL    HW233574   8.678  11.141   0.192 -0.5515  0.0513  0.6780
10015SOL     OW33575   2.592   7.270   8.048  0.2225  0.1268  0.0589
10015SOL    HW133576   2.498   7.283   8.057 -0.6424 -2.3724 -3.3689
10015SOL    HW233577   2.607   7.179   8.073  1.8428  0.5748  0.8761
10016SOL     OW33578   1.613   8.555   3.555  0.5150  0.1142 -0.3270
10016SOL    HW133579   1.665   8.539   3.634 -1.5817 -0.5776  1.0291
10016SOL    HW233580   1.587   8.647   3.561  2.4014  0.7806 -1.5922
10017SOL     OW33581   7.682   6.705   9.695 -0.1044  0.0177  0.1159
10017SOL    HW133582   7.708   6.697   9.604 -1.9251  1.5080 -0.5930
10017SOL    HW233583   7.605   6.649   9.703 -0.5243  0.6257  0.4577
10018SOL     OW33584   8.748   5.587  10.731 -0.3262 -0.5032 -0.0196
10018SOL    HW133585   8.677   5.523  10.729 -0.6000 -0.2010 -0.1937
10018SOL    HW233586   8.704   5.670  10.750 -0.2442 -0.0395 -1.7121
10019SOL     OW33587   0.945   2.200   1.973  0.2041  0.6248  0.1417
10019SOL    HW133588   0.877   2.148   1.930  1.4077 -1.4352  0.5920
10019SOL    HW233589   1.015   2.207   1.909  1.0272 -0.3991  0.9121
10020SOL     OW33590   9.307   1.398   6.119  0.0951 -0.1717  0.5967
10020SOL    HW133591   9.292   1.319   6.171  1.7935  0.8098  2.7065
10020SOL    HW233592   9.369   1.370   6.051 -0.8078 -1.0724  0.1246
10021SOL     OW33593   5.043   8.685   7.329 -0.6524  0.3318  0.0895
10021SOL    HW133594   5.035   8.607   7.383 -0.8371  0.2919  0.0060
10021SOL    HW233595   4.981   8.672   7.257  1.4674 -0.8474 -1.6585
10022SOL     OW33596   6.314   1.749   5.046  0.8745 -0.4239 -0.0266
10022SOL    HW133597   6.233   1.736   4.996  1.3673 -0.6146 -0.7992
10022SOL    HW233598   6.285   1.767   5.135 -0.0815  1.1652 -0.6141
10023SOL     OW33599   1.349  10.727  10.989 -0.0329 -0.2383  0.0350
10023SOL    HW133600   1.423  10.786  10.972  0.5042 -0.5611  1.1535
10023SOL    HW233601   1.275  10.767  10.943  0.1992  1.5920  1.1536
10024SOL     OW33602   9.390   9.386   5.912  0.4491 -0.0268  0.0443
10024SOL    HW133603   9.430   9.308   5.874  0.2135 -0.8271  1.3645
10024SOL    HW233604   9.464   9.445   5.927  0.7525 -0.3553 -0.1298
10025SOL     OW33605   2.870   0.839   2.056  0.7209  0.3933  0.4042
10025SOL    HW133606   2.863   0.838   1.960  1.3872  0.9284  0.3408
10025SOL    HW233607   2.785   0.870   2.086  0.4511  0.0692 -0.0074
10026SOL     OW33608   9.212   2.836   6.570 -0.1391 -0.1015 -0.1443
10026SOL    HW133609   9.219   2.808   6.479  0.6321 -0.1880 -0.0733
10026SOL    HW233610   9.194   2.929   6.566 -1.7705 -0.4077 -0.3836
10027SOL     OW33611   9.577   8.519  10.702  0.6638 -0.6648  0.2086
10027SOL    HW133612   9.591   8.523  10.607 -2.0725 -3.5908 -0.5330
10027SOL    HW233613   9.601   8.430  10.726 -0.9507 -0.7459  1.7554
10028SOL     OW33614   1.594   3.935   3.783 -0.7334 -0.1827  0.2914
10028SOL    HW133615   1.563   3.985   3.707  0.1593 -0.0184  0.0154
10028SOL    HW233616   1.569   3.845   3.765  0.1799 -0.2763 -0.6060
10029SOL     OW33617   6.174   2.903   0.262 -0.4614  0.5195 -0.7690
10029SOL    HW133618   6.148   2.979   0.314 -0.7819 -1.4838  2.2292
10029SOL    HW233619   6.091   2.861   0.237 -0.3088 -0.8355  0.8524
10030SOL     OW33620   3.219   4.576   0.227 -0.6678 -0.1023  0.2575
10030SOL    HW133621   3.311   4.552   0.234 -0.4082  0.9808  0.6813
10030SOL    HW233622   3.205   4.592   0.134 -1.2973 -3.5160 -0.3661
10031SOL     OW33623   6.575   2.507   4.677  0.1691  0.3457  0.0394
10031SOL    HW133624   6.523   2.427   4.671  0.5559  0.1026 -0.1096
10031SOL    HW233625   6.652   2.482   4.728  0.8159  0.3363 -0.9059
10032SOL     OW33626  10.212   5.285   1.309 -0.7909 -0.2513  0.1056
10032SOL    HW133627  10.195   5.209   1.364 -0.9248  0.3014  0.8553
10032SOL    HW233628  10.300   5.313   1.333 -0.7828 -0.1126 -0.0818
10033SOL     OW33629   6.262   4.436   9.177  0.1896  0.1656  0.3017
10033SOL    HW133630   6.232   4.521   9.145  1.3440  0.4959  0.0309
10033SOL    HW233631   6.195   4.409   9.239 -0.0100  1.4623  0.6936
10034SOL     OW33632   2.359   3.032   0.479 -0.2232  0.8275 -0.4661
10034SOL    HW133633   2.422   3.104   0.473  0.1259  0.4093 -2.7850
10034SOL    HW233634   2.279   3.073   0.513  0.6023  1.8390  0.3206
10035SOL     OW33635   1.669   7.490   7.946  0.3725 -0.3182 -0.1143
10035SOL    HW133636   1.634   7.563   7.995  1.2586 -0.9160  1.4857
10035SOL    HW233637   1.734   7.529   7.888  0.0181  0.2882 -0.1114
10036SOL     OW33638   4.068   1.682   0.192 -0.2025 -0.1614  0.0278
10036SOL    HW133639   4.043   1.590   0.184 -0.5689 -0.2485  1.8099
10036SOL    HW233640   4.153   1.681   0.236 -0.2596  0.3516  0.1617
10037SOL     OW33641   2.173   5.224   5.557 -0.2058 -0.0897  0.0055
10037SOL    HW133642   2.211   5.149   5.512  0.1068  0.7433 -1.1944
10037SOL    HW233643   2.248   5.272   5.592 -0.1939  0.8805 -1.2672
10038SOL     OW33644   1.286   1.510   6.874  0.2171  0.1625  0.4759
10038SOL    HW133645   1.254   1.575   6.811  0.5601 -1.2709 -1.2507
10038SOL    HW233646   1.211   1.493   6.931 -0.7622  0.0074 -0.8151
10039SOL     OW33647   0.076   8.767  11.015 -0.1065 -0.5922 -0.3412
10039SOL    HW133648   0.042   8.853  10.993  0.8566 -0.0275  0.2781
10039SOL    HW233649   0.059   8.713  10.937 -0.6609  0.1670 -0.7560
10040SOL     OW33650  10.490   1.021   5.497  0.1029  0.3149  0.0485
10040SOL    HW133651  10.503   1.073   5.576 -0.2951  0.8325 -0.2174
10040SOL    HW233652  10.398   1.037   5.473  0.3340  0.5024 -0.7477
10041SOL     OW33653   7.621   6.684   9.237 -0.2408  0.1821 -0.1701
10041SOL    HW133654   7.704   6.732   9.239  0.6394 -1.3018  0.0918
10041SOL    HW233655   7.607   6.666   9.144 -1.2105  1.9385 -0.4132
10042SOL     OW33656   7.421   8.769   2.054  0.4940 -0.5484  0.1429
10042SOL    HW133657   7.373   8.689   2.032  1.0190 -0.9465  0.4102
10042SOL    HW233658   7.366   8.814   2.118  0.0226 -0.5124 -0.2838
10043SOL     OW33659   3.773   3.301   2.566 -0.0622  0.2716 -0.5312
10043SOL    HW133660   3.807   3.356   2.636  0.0956 -0.3457 -0.1181
10043SOL    HW233661   3.804   3.213   2.587 -0.0332  0.0726 -1.3584
10044SOL     OW33662   7.262   1.128   5.082 -0.0733  0.0167  0.5325
10044SOL    HW133663   7.267   1.058   5.147  1.3474 -0.9275 -0.5265
10044SOL    HW233664   7.310   1.094   5.006 -1.4541  1.1653 -0.9463
10045SOL     OW33665   1.174  10.321   7.687 -0.3556  0.0687  0.3223
10045SOL    HW133666   1.156  10.392   7.749  1.5614  0.5556  0.3842
10045SOL    HW233667   1.218  10.364   7.614  1.4816 -1.1137  0.6739
10046SOL     OW33668   5.973   6.662   2.484 -0.2183  0.0608  0.4239
10046SOL    HW133669   5.964   6.674   2.579  0.0100 -0.0002  0.4529
10046SOL    HW233670   6.033   6.731   2.456  0.0927 -0.2180  0.3989
10047SOL     OW33671   5.967   8.487   9.983 -0.5059 -0.3592  0.2219
10047SOL    HW133672   6.017   8.538   9.919 -0.2418  0.0473  0.7456
10047SOL    HW233673   5.949   8.549  10.054  1.5348 -1.4665  1.8182
10048SOL     OW33674   4.555   3.870   3.254  0.6764 -0.0109 -0.2011
10048SOL    HW133675   4.492   3.914   3.311 -0.7043 -0.2517 -1.4641
10048SOL    HW233676   4.638   3.915   3.270 -0.0499  1.0310  0.7447
10049SOL     OW33677   0.841   4.841   8.296  0.7599 -0.0512 -0.5725
10049SOL    HW133678   0.760   4.795   8.275  0.4095  0.5869 -0.6650
10049SOL    HW233679   0.907   4.772   8.303 -0.1212 -0.7929  1.2675
10050SOL     OW33680   5.875   1.631   5.854  0.3559 -0.2532  0.1871
10050SOL    HW133681   5.899   1.586   5.935  0.5144 -0.5885 -0.0409
10050SOL    HW233682   5.857   1.560   5.792 -0.0177  0.0009  0.0011
10051SOL     OW33683   3.426   4.902  10.449  0.5008  0.5449  0.3594
10051SOL    HW133684   3.511   4.945  10.463  0.6633  0.3507 -0.0262
10051SOL    HW233685   3.441   4.810  10.471  0.6418  0.3237 -0.6209
10052SOL     OW33686   3.238   8.234   6.940  0.6845  0.4529 -0.2161
10052SOL    HW133687   3.160   8.195   6.980  1.3843 -0.2365  0.5211
10052SOL    HW233688   3.310   8.180   6.971  1.6664  2.1014  0.5099
10053SOL     OW33689  10.146   0.763   5.228  0.0456 -0.3565  0.5118
10053SOL    HW133690  10.175   0.835   5.172  1.0115  0.3241  1.8034
10053SOL    HW233691  10.094   0.806   5.297  0.1605 -0.9589  0.9889
10054SOL     OW33692   7.968   0.178   4.435 -0.3049 -0.0001 -0.4943
10054SOL    HW133693   8.059   0.192   4.406  0.1333  2.2000  1.6153
10054SOL    HW233694   7.973   0.100   4.489  0.2533 -0.1330 -0.7214
10055SOL     OW33695   9.801   6.497   4.227 -1.3848  0.0650 -0.2073
10055SOL    HW133696   9.820   6.555   4.154 -1.8197  2.2999  1.3181
10055SOL    HW233697   9.709   6.516   4.249 -0.8593  0.6235  1.7886
10056SOL     OW33698   9.393  10.699   6.762 -0.1821  0.5430 -0.3742
10056SOL    HW133699   9.328  10.769   6.762 -0.2694  0.4607 -0.3689
10056SOL    HW233700   9.446  10.715   6.684  0.0645  0.8626 -0.1444
10057SOL     OW33701  11.076   9.835   6.011 -0.1691 -0.0621  0.1047
10057SOL    HW133702  11.116   9.750   5.999 -0.6698 -0.4832  1.2336
10057SOL    HW233703  11.009   9.821   6.078  1.0802  1.6054  1.8103
10058SOL     OW33704  10.290   0.304   3.851 -0.3012  0.3648 -0.0270
10058SOL    HW133705  10.199   0.292   3.879  0.0253 -1.5536  0.3975
10058SOL    HW233706  10.299   0.249   3.774  0.3659  0.9642 -0.3848
10059SOL     OW33707   3.244  10.610  10.392 -0.1755  0.1673  0.5321
10059SOL    HW133708   3.315  10.592  10.331 -0.2851  3.4720 -0.7837
10059SOL    HW233709   3.264  10.557  10.469  1.4658 -2.0569 -1.3015
10060SOL     OW33710   6.040   1.184   4.681  1.1129  0.2702 -0.4241
10060SOL    HW133711   6.032   1.094   4.649 -0.9451  0.0049  0.6366
10060SOL    HW233712   5.985   1.235   4.621 -0.4650  0.2151  0.8771
10061SOL     OW33713   7.188   9.447   5.523 -0.0097 -0.1094  0.5828
10061SOL    HW133714   7.268   9.484   5.486 -0.8090  0.1210 -0.9614
10061SOL    HW233715   7.144   9.405   5.449 -1.3396 -0.2187  1.4074
10062SOL     OW33716  10.022   2.331   0.480 -0.4021 -0.7107 -0.3608
10062SOL    HW133717  10.114   2.330   0.506 -0.5790 -0.3897  0.2982
10062SOL    HW233718  10.024   2.333   0.384  0.3140  0.9102 -0.3449
10063SOL     OW33719  10.089   3.053   5.505  0.0038 -0.1589 -0.0611
10063SOL    HW133720  10.037   3.132   5.492  1.7840  1.6470  2.8181
10063SOL    HW233721  10.025   2.986   5.528 -1.2797  1.3315  0.9228
10064SOL     OW33722   2.518   0.603   3.990  0.4123 -0.0741  0.1670
10064SOL    HW133723   2.478   0.553   4.061  0.4978 -0.0998  0.1982
10064SOL    HW233724   2.527   0.540   3.918 -1.6421  0.4888 -0.6296
10065SOL     OW33725   8.968  10.873   7.096  0.2370  0.5320  0.0822
10065SOL    HW133726   8.991  10.783   7.071  0.1315  0.7229 -0.7256
10065SOL    HW233727   8.875  10.869   7.116  0.5908  0.1050  1.7562
10066SOL     OW33728   4.528  11.094   7.201 -0.0562 -0.0756  0.5371
10066SOL    HW133729   4.437  11.114   7.225 -0.1105 -0.5676  0.7625
10066SOL    HW233730   4.563  11.050   7.279  0.5852  0.7321  0.7133
10067SOL     OW33731   7.481   0.794   2.541 -0.2803  0.2499 -0.4013
10067SOL    HW133732   7.419   0.796   2.468 -0.5502 -2.6773 -0.3865
10067SOL    HW233733   7.434   0.748   2.611  0.8074  0.8765  0.7710
10068SOL     OW33734   3.943   2.829   2.997  0.2516 -0.1336 -0.4186
10068SOL    HW133735   3.854   2.819   2.964  0.3054  1.2782 -1.0543
10068SOL    HW233736   3.944   2.914   3.041  1.3135 -0.0576 -0.5553
10069SOL     OW33737   8.148   5.349   4.377  0.0632 -0.6233  0.2310
10069SOL    HW133738   8.128   5.400   4.298 -1.4873 -0.2766  0.8052
10069SOL    HW233739   8.080   5.375   4.440  0.0938 -2.3505  1.0254
10070SOL     OW33740   5.239  10.867   6.105 -0.6237  0.1804 -0.2970
10070SOL    HW133741   5.161  10.867   6.162  0.6665  1.5481  1.5979
10070SOL    HW233742   5.245  10.957   6.072  0.9391  0.5229  0.8043
10071SOL     OW33743  10.705   0.456  11.114 -0.0992  0.6473 -0.3559
10071SOL    HW133744  10.665   0.382  11.069 -0.9007 -0.1413  1.5379
10071SOL    HW233745  10.665   0.533  11.074 -1.4370 -0.0510 -0.4204
10072SOL     OW33746   6.841   5.887   6.652  0.5965 -0.3576  0.1864
10072SOL    HW133747   6.754   5.914   6.682  0.4699  0.0216 -0.4894
10072SOL    HW233748   6.902   5.931   6.711  0.3310 -0.6382  0.6748
10073SOL     OW33749   8.848   7.273   0.494  0.0320  0.0897  0.1222
10073SOL    HW133750   8.764   7.231   0.476  0.0888 -0.6544  1.4522
10073SOL    HW233751   8.854   7.343   0.429 -1.0972 -0.5448 -0.7080
10074SOL     OW33752   0.388   3.415   8.183 -0.6039  0.1560  0.0782
10074SOL    HW133753   0.421   3.387   8.098 -1.0945  0.0053 -0.0692
10074SOL    HW233754   0.367   3.334   8.229 -2.0557  0.2459 -0.3620
10075SOL     OW33755   6.950   6.259   0.536 -0.1782 -0.0670  0.6609
10075SOL    HW133756   6.979   6.249   0.627  0.3903 -0.6710  0.4198
10075SOL    HW233757   7.030   6.261   0.485 -0.4755  0.8223  0.2109
10076SOL     OW33758   2.638   1.478   8.659 -0.4043  0.1048  0.0429
10076SOL    HW133759   2.616   1.495   8.567  2.6710 -1.4682 -1.1154
10076SOL    HW233760   2.565   1.423   8.691 -2.5668  2.3389 -0.7106
10077SOL     OW33761   0.942   7.810   6.089  0.4119  0.4445 -0.1212
10077SOL    HW133762   0.926   7.896   6.127 -0.4231  0.2826 -0.0839
10077SOL    HW233763   1.037   7.805   6.079  0.4794  1.3043  0.0209
10078SOL     OW33764   0.382   4.490   6.419  0.0864 -0.1420 -0.2428
10078SOL    HW133765   0.343   4.430   6.483  1.5833  0.5147  1.3641
10078SOL    HW233766   0.477   4.481   6.432  0.3708  2.8693  0.3890
10079SOL     OW33767   9.688  10.570   5.287  0.5864  0.2289  0.3737
10079SOL    HW133768   9.719  10.641   5.344 -0.6580  0.6940  0.5002
10079SOL    HW233769   9.636  10.514   5.345  2.3624 -1.3746  0.5002
10080SOL     OW33770   0.142  10.069   8.400 -0.2073  0.0499 -0.2383
10080SOL    HW133771   0.190  10.107   8.327 -2.9332  0.3418 -2.0313
10080SOL    HW233772   0.209  10.043   8.463  2.0528  3.9334 -0.7779
10081SOL     OW33773   3.580   0.980   3.709  0.1193  0.0152 -0.0513
10081SOL    HW133774   3.664   0.945   3.678 -0.6924  0.0738 -2.4931
10081SOL    HW233775   3.531   0.903   3.736  0.3751 -0.1670 -0.1006
10082SOL     OW33776   1.647  10.604   6.998 -0.9873 -0.2541 -0.2484
10082SOL    HW133777   1.586  10.593   7.072  0.7430 -0.6744  1.1743
10082SOL    HW233778   1.701  10.679   7.022  0.2581 -1.0173 -0.6076
10083SOL     OW33779   3.668   2.670   5.172  0.1767 -0.5022  0.6318
10083SOL    HW133780   3.754   2.648   5.137 -0.0152 -0.1761 -0.0627
10083SOL    HW233781   3.607   2.646   5.102 -0.6089 -3.4695  2.1327
10084SOL     OW33782   0.611   4.140   8.016 -0.1778  0.4433  0.4131
10084SOL    HW133783   0.654   4.068   8.061  0.9977  1.0896  0.3591
10084SOL    HW233784   0.525   4.148   8.059 -1.1752 -2.2317 -0.8835
10085SOL     OW33785   7.693   1.263   9.361 -0.3731  0.0386 -0.5042
10085SOL    HW133786   7.704   1.269   9.266  0.9293 -1.3393 -0.4901
10085SOL    HW233787   7.622   1.200   9.373 -0.6411  0.3298 -0.5739
10086SOL     OW33788   4.995  11.111   3.890 -0.4769 -0.4697  0.0273
10086SOL    HW133789   4.917  11.164   3.906 -1.7690 -2.1989 -0.2611
10086SOL    HW233790   5.067  11.162   3.928 -1.8256  0.8525  0.9216
10087SOL     OW33791   5.738   6.900   4.639 -0.2548  0.1021  0.3666
10087SOL    HW133792   5.648   6.930   4.624 -0.0240  1.2693  1.1456
10087SOL    HW233793   5.739   6.811   4.606 -1.4485  0.3847 -0.5365
10088SOL     OW33794   3.913  10.808   2.143 -0.2206 -0.0104  0.0930
10088SOL    HW133795   3.883  10.888   2.100  0.1828  0.4113  0.5785
10088SOL    HW233796   3.998  10.832   2.181  1.0340 -1.3267 -1.7223
10089SOL     OW33797   6.346   9.678  11.039  0.0094  0.2080 -0.2108
10089SOL    HW133798   6.408   9.700  11.109  0.5113 -0.6642 -0.3672
10089SOL    HW233799   6.312   9.592  11.063  1.5859 -0.9932 -1.9324
10090SOL     OW33800   9.611   9.928   6.727  0.3900 -0.2411  0.1652
10090SOL    HW133801   9.625   9.897   6.817  0.5658 -0.1784  0.1610
10090SOL    HW233802   9.607   9.847   6.675 -1.8770 -0.4022  0.4997
10091SOL     OW33803   0.440   9.058   8.519  0.1301 -0.1429 -0.3696
10091SOL    HW133804   0.468   9.150   8.515  1.4134 -0.5485 -1.2471
10091SOL    HW233805   0.499   9.019   8.583 -0.5399 -0.3281  0.1421
10092SOL     OW33806   0.543   9.012  10.318 -0.0868  0.1497  0.1085
10092SOL    HW133807   0.478   9.066  10.363 -0.9500 -0.1988 -0.6916
10092SOL    HW233808   0.504   8.925  10.313  0.6208 -0.1754 -0.0106
10093SOL     OW33809   8.596   8.323   1.554  0.2471 -0.3244  0.1803
10093SOL    HW133810   8.605   8.232   1.583 -1.0083 -0.1509  1.2071
10093SOL    HW233811   8.675   8.366   1.586  1.1052 -1.1300 -0.7552
10094SOL     OW33812   7.713   8.723   2.090 -0.4168 -0.1750  0.6436
10094SOL    HW133813   7.649   8.785   2.056  0.1481 -0.2322 -0.5744
10094SOL    HW233814   7.733   8.755   2.178 -1.3290  0.4377  0.6428
10095SOL     OW33815   5.296   1.481   4.216  0.2721  0.0025 -0.2110
10095SOL    HW133816   5.341   1.521   4.140  0.0968 -0.9018 -0.8074
10095SOL    HW233817   5.303   1.387   4.200 -0.5744 -0.1717  0.4425
10096SOL     OW33818   7.857   6.467  10.379 -0.9281  0.5265  0.0539
10096SOL    HW133819   7.873   6.494  10.469  4.3616 -0.6070 -0.2338
10096SOL    HW233820   7.888   6.540  10.326 -2.9712  0.7352 -0.9538
10097SOL     OW33821   0.240   6.780   5.683  0.4276 -0.2517  0.8780
10097SOL    HW133822   0.212   6.806   5.595  0.1091  0.7667  1.2581
10097SOL    HW233823   0.192   6.839   5.742  3.1136  1.4247  1.6037
10098SOL     OW33824   4.633   4.842   7.321  0.2602 -0.1563 -0.5059
10098SOL    HW133825   4.695   4.782   7.363  0.4314  0.8951  0.7946
10098SOL    HW233826   4.653   4.835   7.227  1.5746 -0.6882 -0.2046
10099SOL     OW33827  10.355   5.446   2.025 -0.0573  0.1797 -0.2130
10099SOL    HW133828  10.361   5.353   2.004 -0.2419  0.7511 -3.2495
10099SOL    HW233829  10.273   5.455   2.073  0.8300 -1.4132  1.7240
10100SOL     OW33830   0.628   4.466   1.189  0.6540  0.1611  0.2334
10100SOL    HW133831   0.701   4.404   1.194 -0.6120 -1.6203 -1.5904
10100SOL    HW233832   0.598   4.460   1.098 -2.3358  0.1179  1.1285
10101SOL     OW33833   5.276   3.016   1.735  0.1376 -0.4244 -0.1439
10101SOL    HW133834   5.255   3.065   1.814 -0.6331  1.4505 -1.4184
10101SOL    HW233835   5.210   2.947   1.731 -1.1073  0.7055 -0.1357
10102SOL     OW33836   2.228   0.919   7.372  0.0809  0.4055  0.0368
10102SOL    HW133837   2.320   0.893   7.362 -0.3129 -0.9905 -0.1371
10102SOL    HW233838   2.178   0.849   7.332 -1.1189  0.5898  1.1152
10103SOL     OW33839   1.034   5.993   1.483 -0.2462 -0.8426 -0.7319
10103SOL    HW133840   1.044   5.915   1.428  0.3063  0.4971 -2.6053
10103SOL    HW233841   0.980   6.052   1.432  0.1176  0.3824  0.2442
10104SOL     OW33842   7.194   1.593   6.757  0.6392 -0.2046  0.0048
10104SOL    HW133843   7.192   1.502   6.728  0.2215  0.3315 -1.7217
10104SOL    HW233844   7.230   1.642   6.683 -1.2756  1.3309  0.0105
10105SOL     OW33845   7.488   0.883   5.440  0.5649 -0.2206  0.5604
10105SOL    HW133846   7.538   0.875   5.359 -0.0382  0.2650  0.1212
10105SOL    HW233847   7.419   0.817   5.432  1.2257 -1.0112  1.2427
10106SOL     OW33848   6.212   2.381   6.030 -0.0705  0.2988  0.0503
10106SOL    HW133849   6.145   2.448   6.019  0.2813  1.1028  2.2653
10106SOL    HW233850   6.182   2.328   6.104 -0.4352 -2.1847 -1.7442
10107SOL     OW33851   2.662   9.819  11.093 -0.6125 -0.1119  0.5191
10107SOL    HW133852   2.748   9.808  11.052 -0.1338  1.9839  0.8654
10107SOL    HW233853   2.604   9.839  11.020 -0.7728 -1.2323  0.3209
10108SOL     OW33854   0.254   5.596   9.165  0.2761 -0.4375 -0.0527
10108SOL    HW133855   0.240   5.595   9.259 -0.3674 -0.0507 -0.1342
10108SOL    HW233856   0.279   5.686   9.145 -2.3308  0.2512 -0.5883
10109SOL     OW33857   6.725   7.869   2.467  0.2199 -0.5890 -0.1950
10109SOL    HW133858   6.662   7.939   2.486  0.6193 -1.0306  3.5480
10109SOL    HW233859   6.670   7.793   2.447 -0.3807 -0.3530  0.4948
10110SOL     OW33860   0.289   3.716   0.953 -0.3101 -0.3503  0.4861
10110SOL    HW133861   0.259   3.690   0.866  0.3082  1.5301 -0.3470
10110SOL    HW233862   0.385   3.709   0.948 -0.2692 -0.1768  0.9821
10111SOL     OW33863   7.764   4.494   9.488 -0.1013  0.5177  0.7285
10111SOL    HW133864   7.838   4.534   9.442 -0.2700 -0.1523 -0.1628
10111SOL    HW233865   7.758   4.542   9.570  2.9300 -1.0428  2.0180
10112SOL     OW33866   8.113  10.877   7.995  0.1624  0.4682  0.0618
10112SOL    HW133867   8.110  10.821   7.917  1.1248  0.5755 -0.0646
10112SOL    HW233868   8.145  10.961   7.962  0.2990  0.5993  0.5288
10113SOL     OW33869   3.115   4.712   6.793 -0.0570 -0.4414  0.3133
10113SOL    HW133870   3.150   4.732   6.880 -0.6657  0.8563  0.2909
10113SOL    HW233871   3.167   4.766   6.733 -1.0842  0.3859  0.1285
10114SOL     OW33872   3.438   4.818   4.649  0.1106 -0.1291  0.2252
10114SOL    HW133873   3.353   4.823   4.692 -0.4546  1.4245 -1.0058
10114SOL    HW233874   3.423   4.763   4.572  0.0400  0.6972 -0.3608
10115SOL     OW33875  11.077   4.964   0.782 -0.2175  0.1048  0.3997
10115SOL    HW133876  11.091   5.059   0.783 -1.8321  0.3863 -0.4165
10115SOL    HW233877  10.988   4.953   0.814  0.0019 -1.1639  0.6204
10116SOL     OW33878   7.974   9.342   0.736  0.2207 -0.0273  0.3385
10116SOL    HW133879   8.070   9.344   0.731  0.6423 -2.8726  3.7405
10116SOL    HW233880   7.948   9.271   0.678 -0.1477  1.8127 -1.9183
10117SOL     OW33881   3.796   6.573   8.560  0.3535 -0.1644 -0.6749
10117SOL    HW133882   3.751   6.501   8.605 -2.0658  0.0057 -2.5842
10117SOL    HW233883   3.776   6.650   8.613  0.2007 -0.4198 -0.3514
10118SOL     OW33884   8.126  11.045   6.068 -0.1069  0.1266  0.2481
10118SOL    HW133885   8.035  11.070   6.050 -0.8849 -2.6431 -0.2068
10118SOL    HW233886   8.148  11.092   6.149 -1.7675  1.2163  0.1309
10119SOL     OW33887   9.509   5.864   4.792  0.4143  0.7375  0.2572
10119SOL    HW133888   9.520   5.882   4.698 -0.2700 -1.8264 -0.4100
10119SOL    HW233889   9.430   5.810   4.796  1.4744 -0.7804  2.0978
10120SOL     OW33890   4.186   2.448  11.100 -0.4059  0.2349  0.4759
10120SOL    HW133891   4.179   2.543  11.091 -1.5733 -0.0345 -3.1973
10120SOL    HW233892   4.117   2.425  11.163 -1.1126  1.7015  0.2857
10121SOL     OW33893   2.312   8.104   0.938 -0.2353 -0.1756 -0.5702
10121SOL    HW133894   2.273   8.032   0.889 -1.3830  1.3811 -2.0539
10121SOL    HW233895   2.246   8.126   1.004  0.1467 -0.5068 -0.0689
10122SOL     OW33896   4.392   8.309   3.515 -0.0943 -0.3779  0.2969
10122SOL    HW133897   4.335   8.252   3.465 -1.0634  2.0413 -1.5824
10122SOL    HW233898   4.332   8.362   3.568  0.3752  1.6323 -1.0739
10123SOL     OW33899   8.139   2.343   1.524  0.1893 -0.2728  0.1769
10123SOL    HW133900   8.097   2.354   1.609  0.0365  0.7125 -0.0068
10123SOL    HW233901   8.109   2.258   1.493 -0.1713 -0.4072  0.8748
10124SOL     OW33902   3.598   8.232   7.710  0.3878  0.0346  0.2000
10124SOL    HW133903   3.679   8.250   7.757  0.9050 -0.4650 -0.4703
10124SOL    HW233904   3.616   8.260   7.620 -0.3556  0.3765  0.1538
10125SOL     OW33905  10.228   6.925   7.959 -0.2610 -0.0079  0.1283
10125SOL    HW133906  10.159   6.988   7.940 -0.9565 -0.7587  0.0636
10125SOL    HW233907  10.239   6.930   8.054 -0.4061  0.1262  0.1390
10126SOL     OW33908   1.690   8.676  10.023 -0.0776  0.3547  0.6268
10126SOL    HW133909   1.672   8.720   9.940 -0.6909 -2.3338 -0.7789
10126SOL    HW233910   1.743   8.600   9.999 -2.1764 -1.8179  2.2672
10127SOL     OW33911   3.800   2.372   8.257 -0.3678  0.3618  0.0045
10127SOL    HW133912   3.818   2.340   8.346  2.1668  1.9209  0.1307
10127SOL    HW233913   3.794   2.467   8.267 -0.6324  0.5098 -1.4356
10128SOL     OW33914   6.890  11.083   4.908 -0.7824  0.4143  0.2151
10128SOL    HW133915   6.910  11.073   5.001  0.4948 -1.4694 -0.1850
10128SOL    HW233916   6.975  11.083   4.865 -1.2416  3.0637 -0.8941
10129SOL     OW33917   6.026   4.510   4.458 -0.3208 -0.6261  0.1879
10129SOL    HW133918   5.990   4.524   4.370 -2.7820  0.1458  1.2351
10129SOL    HW233919   6.079   4.588   4.474 -0.9949 -0.0937 -0.1032
10130SOL     OW33920   6.375  10.821   2.877  0.0973  0.2190  0.3400
10130SOL    HW133921   6.396  10.755   2.943 -0.9055 -0.7577 -0.2903
10130SOL    HW233922   6.330  10.890   2.925 -1.4214 -0.8917  0.5695
10131SOL     OW33923   6.851  10.462   1.120 -0.2925 -0.1764 -0.2236
10131SOL    HW133924   6.927  10.413   1.090  0.9184  2.0289 -0.9336
10131SOL    HW233925   6.790  10.459   1.046 -1.1514 -2.2645  0.4796
10132SOL     OW33926   9.767   2.371   6.922  0.3514  0.4422 -0.1073
10132SOL    HW133927   9.804   2.318   6.992  0.2093 -0.6693 -0.8506
10132SOL    HW233928   9.684   2.402   6.957  1.6331  2.4859  1.3627
10133SOL     OW33929   0.935   6.779   5.485  0.0525  0.0667  0.2453
10133SOL    HW133930   0.945   6.684   5.487 -1.0440 -0.0805  2.2368
10133SOL    HW233931   1.003   6.812   5.543 -1.6837  0.1464  2.3880
10134SOL     OW33932   1.879   7.133   2.306 -0.4109  0.5929  0.0891
10134SOL    HW133933   1.930   7.207   2.272  0.9243 -0.8151 -1.0739
10134SOL    HW233934   1.910   7.057   2.257  0.6797 -1.3713  3.5264
10135SOL     OW33935   0.301   9.325   8.240 -0.0864 -0.2504  0.2327
10135SOL    HW133936   0.371   9.340   8.177  0.2267  0.8072  0.8095
10135SOL    HW233937   0.259   9.243   8.211 -0.9455  0.9768 -2.2532
10136SOL     OW33938   7.774   5.275   6.866 -0.1650  0.3863  0.3772
10136SOL    HW133939   7.800   5.284   6.774 -0.4247  2.4860  0.4643
10136SOL    HW233940   7.736   5.360   6.889 -1.7087 -0.6606  1.9419
10137SOL     OW33941   4.849   2.614   2.431 -0.2502  0.0572 -0.1344
10137SOL    HW133942   4.860   2.652   2.518 -0.1309 -0.9700  0.3070
10137SOL    HW233943   4.937   2.614   2.394 -0.5285  2.0677 -0.9614
10138SOL     OW33944   6.101   6.077   1.755  0.2060 -0.0750 -0.1878
10138SOL    HW133945   6.182   6.031   1.775 -0.7373 -1.5990  0.3272
10138SOL    HW233946   6.033   6.009   1.760 -1.3946  1.5166  1.5443
10139SOL     OW33947   4.216   0.334  10.614 -0.5099 -0.1071  0.6260
10139SOL    HW133948   4.151   0.332  10.545  1.6477 -1.8280 -1.5274
10139SOL    HW233949   4.297   0.360  10.571  0.9087 -1.0737  2.5139
10140SOL     OW33950   3.457  10.813  10.207  0.1881  0.0287 -0.2145
10140SOL    HW133951   3.467  10.718  10.214 -0.5294  0.0246  1.3412
10140SOL    HW233952   3.487  10.846  10.292 -0.6339  1.0820 -0.3119
10141SOL     OW33953   0.286   5.664   5.673 -0.2033 -0.7356 -0.8343
10141SOL    HW133954   0.349   5.721   5.629 -0.5686 -0.8116 -1.4630
10141SOL    HW233955   0.341   5.606   5.726  0.1167  1.3658  1.3228
10142SOL     OW33956   7.505  10.815   8.517 -0.2094 -0.5549 -0.6995
10142SOL    HW133957   7.433  10.839   8.459 -2.1358 -2.0928  0.9499
10142SOL    HW233958   7.549  10.898   8.536 -1.7237  0.4795 -1.5154
10143SOL     OW33959   3.305   6.240  10.027 -0.9096  0.4756 -0.1534
10143SOL    HW133960   3.346   6.157  10.006  0.9453  0.7075  2.1535
10143SOL    HW233961   3.218   6.234   9.989  0.0919 -1.4017 -2.3685
10144SOL     OW33962   9.685   2.166   3.888 -0.5239  0.0777 -0.2813
10144SOL    HW133963   9.609   2.205   3.931  1.0759  2.4346  0.6194
10144SOL    HW233964   9.680   2.196   3.797 -0.8683 -0.1013 -0.3221
10145SOL     OW33965   4.682   4.417   6.267 -0.3328  0.5996 -0.0611
10145SOL    HW133966   4.699   4.496   6.319  1.4731  0.3525 -0.2116
10145SOL    HW233967   4.749   4.419   6.199  0.3919 -1.5510  0.5132
10146SOL     OW33968  10.927   4.699  10.841  0.2690 -0.0138  0.5136
10146SOL    HW133969  11.000   4.639  10.853 -0.4754 -0.8464  0.9440
10146SOL    HW233970  10.918   4.744  10.925 -0.4597 -0.7595  0.8356
10147SOL     OW33971   9.780   6.714   6.212  0.6179 -0.2495 -0.0666
10147SOL    HW133972   9.813   6.732   6.124 -2.0403 -0.1128 -1.1455
10147SOL    HW233973   9.834   6.641   6.244  3.2332  1.2609 -0.7614
10148SOL     OW33974   8.152   3.259   8.642  0.1424 -0.5219 -0.1447
10148SOL    HW133975   8.121   3.265   8.552  1.4947  0.7347 -0.5546
10148SOL    HW233976   8.242   3.229   8.635 -0.0347 -1.3698  0.8671
10149SOL     OW33977   9.905   7.058  10.641  0.1359  0.4442  0.0652
10149SOL    HW133978   9.960   6.981  10.628  0.6491  1.0346 -1.4338
10149SOL    HW233979   9.930   7.091  10.728  1.1810 -0.0690 -0.0288
10150SOL     OW33980   1.375   8.798   8.096  0.4002  0.1696 -0.2258
10150SOL    HW133981   1.356   8.717   8.142 -0.8519  0.4088 -0.2974
10150SOL    HW233982   1.443   8.774   8.032  2.4701 -0.0920  1.9397
10151SOL     OW33983   2.533   5.294   4.304  0.0310  0.2009  0.1535
10151SOL    HW133984   2.488   5.250   4.376  0.1316  0.4693  0.3835
10151SOL    HW233985   2.564   5.223   4.249  1.3055 -0.0881  1.1837
10152SOL     OW33986  10.372   1.770   9.665  0.0541  0.0814  0.3323
10152SOL    HW133987  10.458   1.794   9.631 -0.9666  0.6108 -2.0208
10152SOL    HW233988  10.383   1.774   9.760  2.3401  1.1430  0.1000
10153SOL     OW33989  10.067   4.547   8.861  0.6173 -0.4088  0.0605
10153SOL    HW133990  10.063   4.488   8.936 -1.2764 -1.6903 -0.9596
10153SOL    HW233991  10.155   4.536   8.827  0.6780 -1.7815  0.5909
10154SOL     OW33992   3.953  10.963   6.649  0.1280 -0.4463  0.5444
10154SOL    HW133993   4.029  11.004   6.608 -1.4309  2.9012  0.6370
10154SOL    HW233994   3.906  10.923   6.576 -0.8929  2.5745 -0.6473
10155SOL     OW33995   3.126  10.824   3.056  0.0559 -0.1344  0.1401
10155SOL    HW133996   3.125  10.751   3.118 -0.5214 -0.1773  0.0875
10155SOL    HW233997   3.057  10.803   2.993 -1.1609  1.2002  0.9931
10156SOL     OW33998   2.874   3.791   9.141  0.1069  0.1754 -0.0479
10156SOL    HW133999   2.877   3.734   9.064  1.8258 -0.9974  0.8117
10156SOL    HW234000   2.781   3.808   9.154 -0.2771 -0.2399 -1.9082
10157SOL     OW34001   5.151   1.150   8.711  0.0523 -0.6100 -0.1746
10157SOL    HW134002   5.091   1.133   8.639  0.8476 -0.6753 -0.8296
10157SOL    HW234003   5.197   1.230   8.686 -0.6225  0.1338  0.8981
10158SOL     OW34004   8.293   3.562   4.611  0.6548  0.1084  0.3337
10158SOL    HW134005   8.330   3.515   4.686  0.4437  0.8179  0.8972
10158SOL    HW234006   8.292   3.498   4.540 -0.5118 -1.0258  1.3351
10159SOL     OW34007   8.412   6.889   6.651 -0.2645  0.2925 -0.2460
10159SOL    HW134008   8.386   6.852   6.735  2.9646 -0.6725  0.4707
10159SOL    HW234009   8.366   6.973   6.647 -2.0967 -0.5254  1.4838
10160SOL     OW34010   5.565   1.371   4.455 -0.1518 -0.2828 -0.6884
10160SOL    HW134011   5.480   1.382   4.498  1.0437  1.1181  1.5501
10160SOL    HW234012   5.597   1.461   4.442  1.6124 -0.7727 -0.0569
10161SOL     OW34013   2.515   2.109   9.953  0.4802 -0.4799 -0.5548
10161SOL    HW134014   2.437   2.053   9.958  0.9398 -1.3108 -2.0228
10161SOL    HW234015   2.532   2.117   9.859  2.9304 -1.4228 -0.2619
10162SOL     OW34016   3.817   8.869  10.465  0.4454  0.1361 -0.3813
10162SOL    HW134017   3.885   8.937  10.467 -0.8431  1.4684  0.4380
10162SOL    HW234018   3.792   8.858  10.556 -1.2502  0.5732 -0.7529
10163SOL     OW34019   4.000   3.611   5.874  0.5577 -0.7696 -0.0348
10163SOL    HW134020   3.916   3.603   5.829  1.5663  0.8719 -2.4271
10163SOL    HW234021   4.048   3.532   5.850  0.7811 -0.2865 -1.2970
10164SOL     OW34022   4.111  10.983   7.583 -0.0068  0.1978  0.2048
10164SOL    HW134023   4.081  10.992   7.492  1.0214  0.5772 -0.1108
10164SOL    HW234024   4.130  10.890   7.593  0.4831  0.2495 -0.1796
10165SOL     OW34025   0.019  10.847   2.791  0.0846  0.2509  0.0844
10165SOL    HW134026  -0.046  10.809   2.850  1.1282 -1.9729 -0.1299
10165SOL    HW234027   0.095  10.790   2.798  0.1410 -0.4019 -3.7070
10166SOL     OW34028   2.831   7.653   9.291  0.1629 -0.8712  0.4289
10166SOL    HW134029   2.789   7.715   9.352 -0.1699 -1.9128  1.2936
10166SOL    HW234030   2.923   7.653   9.317  0.0879 -1.0416  0.6982
10167SOL     OW34031   4.695   2.754   7.249 -0.1405 -0.0729 -0.3754
10167SOL    HW134032   4.707   2.793   7.336 -1.2198 -2.4615  0.9397
10167SOL    HW234033   4.601   2.759   7.233 -0.1694 -1.1092 -0.6341
10168SOL     OW34034   7.079   6.888   4.551  0.3251 -0.3211  0.3943
10168SOL    HW134035   7.050   6.932   4.630 -0.5221 -2.3142  1.2559
10168SOL    HW234036   7.175   6.893   4.554  0.2891 -0.1424  1.4020
10169SOL     OW34037   7.739   4.776   2.855  0.1320  0.3043  0.0314
10169SOL    HW134038   7.686   4.821   2.789 -1.8167  1.1206  2.0198
10169SOL    HW234039   7.814   4.833   2.868  2.4457 -1.4602 -3.7350
10170SOL     OW34040   9.808   0.312   5.560  0.1155  0.4772 -0.2452
10170SOL    HW134041   9.740   0.284   5.499  1.5974 -0.2215 -1.6451
10170SOL    HW234042   9.820   0.406   5.542  1.6857 -0.0401 -2.3081
10171SOL     OW34043  10.940   8.063   0.434  0.2409 -0.3186 -0.3010
10171SOL    HW134044  10.971   7.994   0.493  0.2638  0.0861  0.1603
10171SOL    HW234045  10.959   8.029   0.346  1.8579 -0.1512 -0.0419
10172SOL     OW34046   3.684   4.723   3.395 -0.5005 -0.1848  0.1963
10172SOL    HW134047   3.696   4.652   3.332 -0.5651 -2.3581  2.4835
10172SOL    HW234048   3.598   4.706   3.434 -0.2244  0.7562  1.2611
10173SOL     OW34049   4.730   8.794   4.552  0.1918 -0.5054 -0.5598
10173SOL    HW134050   4.697   8.824   4.468  1.3604  0.5526 -0.6606
10173SOL    HW234051   4.781   8.868   4.586 -0.3339 -0.8786  1.1185
10174SOL     OW34052   6.739   3.911   1.195  0.3067  0.0356 -0.1865
10174SOL    HW134053   6.673   3.842   1.210 -0.1256  0.9468  2.8646
10174SOL    HW234054   6.687   3.988   1.169  0.2166  0.4193  1.0310
10175SOL     OW34055  10.026   6.319   3.715 -0.2199  0.1990  0.1264
10175SOL    HW134056   9.993   6.295   3.801  0.0781 -1.9433 -0.3060
10175SOL    HW234057  10.110   6.362   3.732 -0.0620 -0.3949  0.8851
10176SOL     OW34058  10.667   7.244   3.948  0.0483 -0.2212 -0.1971
10176SOL    HW134059  10.614   7.165   3.958 -0.6886  0.0971 -1.3543
10176SOL    HW234060  10.604   7.313   3.929  0.4898  1.0822  2.6340
10177SOL     OW34061   6.581   3.645   6.978 -0.6799 -0.3381  0.6926
10177SOL    HW134062   6.537   3.600   7.050  0.9289  2.4458  3.7305
10177SOL    HW234063   6.671   3.613   6.982 -0.1994  1.0021  1.0437
10178SOL     OW34064   1.788   3.378   0.543  0.4494  0.0613  0.0102
10178SOL    HW134065   1.818   3.326   0.618  0.8183  0.1509 -0.0705
10178SOL    HW234066   1.802   3.322   0.467  0.1219 -0.0108  0.0033
10179SOL     OW34067   0.431   4.479   8.030 -0.2514  0.4318 -0.1935
10179SOL    HW134068   0.503   4.542   8.034 -0.5896  0.9565 -1.7556
10179SOL    HW234069   0.356   4.530   8.001 -0.5482 -0.6640 -1.4219
10180SOL     OW34070   8.926   6.316   7.524 -0.1791  0.0687 -0.4954
10180SOL    HW134071   8.984   6.295   7.450 -1.4699  0.0014 -1.5335
10180SOL    HW234072   8.843   6.273   7.502 -1.1168  1.4827  0.1355
10181SOL     OW34073   8.476   8.714   5.526  0.1423 -0.1032 -1.0726
10181SOL    HW134074   8.564   8.750   5.537 -0.2908  1.5611 -2.5011
10181SOL    HW234075   8.457   8.672   5.609  2.7240 -1.5956 -1.1077
10182SOL     OW34076   2.597   7.514   1.326 -0.3180 -0.8444  0.3432
10182SOL    HW134077   2.608   7.562   1.408  2.9105 -0.9988  0.0929
10182SOL    HW234078   2.583   7.423   1.353  1.1575 -0.9650  0.7371
10183SOL     OW34079  10.273   1.667   2.749  0.1738  0.5061 -0.1356
10183SOL    HW134080  10.249   1.756   2.772  1.6879  0.9435 -0.1776
10183SOL    HW234081  10.210   1.642   2.681 -0.9963  1.0918  0.7059
10184SOL     OW34082   0.171  10.006   6.521 -0.7553  0.2336  0.2110
10184SOL    HW134083   0.233   9.946   6.479  0.9791  1.6716  0.6184
10184SOL    HW234084   0.103  10.020   6.455 -0.0387 -0.4428 -0.6951
10185SOL     OW34085   5.610   2.016   4.248  0.0722 -0.8764  0.2869
10185SOL    HW134086   5.530   2.001   4.299  0.7972  0.7379  2.0240
10185SOL    HW234087   5.677   1.965   4.294  0.0516 -2.4862 -1.3480
10186SOL     OW34088   7.981   5.988   3.215 -0.4383 -0.2172  0.1342
10186SOL    HW134089   8.026   5.974   3.131  1.4848 -1.4066  1.2868
10186SOL    HW234090   7.990   6.082   3.231 -0.7463  0.0069 -0.9484
10187SOL     OW34091   0.773   9.177   1.002 -0.3583 -0.1764 -0.1913
10187SOL    HW134092   0.715   9.119   0.953 -0.7080  0.1395 -0.1474
10187SOL    HW234093   0.852   9.183   0.948 -0.1990 -0.9338 -0.0541
10188SOL     OW34094   8.479   2.087   1.796  0.4144  0.4454  0.5125
10188SOL    HW134095   8.409   2.056   1.739  0.2622  1.3053  0.2072
10188SOL    HW234096   8.528   2.009   1.819 -0.6777 -0.1831  0.7766
10189SOL     OW34097   2.742   3.161   6.692 -0.5177  0.0353  0.0133
10189SOL    HW134098   2.647   3.173   6.697 -0.6973 -0.5109 -1.3708
10189SOL    HW234099   2.758   3.142   6.599  0.9860  0.4161  0.1681
10190SOL     OW34100   0.180   3.590   2.932  0.5770  0.1643  0.2839
10190SOL    HW134101   0.244   3.602   2.862 -0.7132  1.9128 -0.7008
10190SOL    HW234102   0.098   3.569   2.886  0.1240 -0.6586  1.4153
10191SOL     OW34103   9.485   0.016   1.025 -0.0385 -0.2863  0.6948
10191SOL    HW134104   9.482   0.044   1.116 -1.1544  1.5127  0.1521
10191SOL    HW234105   9.529   0.088   0.979  2.0806 -1.9029  0.0157
10192SOL     OW34106   6.623   4.523   9.336  0.4168  0.1707 -0.3029
10192SOL    HW134107   6.569   4.593   9.301 -0.7871 -0.2851  0.5700
10192SOL    HW234108   6.562   4.468   9.386  1.2919 -1.5551 -1.0352
10193SOL     OW34109   7.450   3.651  11.074  0.0176 -0.0073  0.2411
10193SOL    HW134110   7.412   3.576  11.120  0.5996 -0.4772 -0.0290
10193SOL    HW234111   7.517   3.685  11.133 -0.5154  0.5594  0.5351
10194SOL     OW34112   7.296  11.108  11.095  0.6458  0.2991 -0.2172
10194SOL    HW134113   7.218  11.056  11.116  1.4486 -0.5125  0.8841
10194SOL    HW234114   7.269  11.199  11.107 -0.2389  0.0459 -0.2332
10195SOL     OW34115   3.316   6.982   3.392  0.3443 -0.1652  0.1435
10195SOL    HW134116   3.299   7.051   3.327 -0.9161  0.3067  0.9223
10195SOL    HW234117   3.273   7.014   3.471  0.0100 -1.7179  0.6115
10196SOL     OW34118   6.535   5.723   4.698 -0.2031  0.0789  0.3707
10196SOL    HW134119   6.616   5.763   4.729  0.2025 -1.0721  0.8817
10196SOL    HW234120   6.560   5.633   4.676 -0.7153  0.5035 -2.2832
10197SOL     OW34121   0.691   5.442   7.487  0.4583  0.6060 -0.2923
10197SOL    HW134122   0.731   5.416   7.570 -2.0754  0.2709  0.9230
10197SOL    HW234123   0.758   5.423   7.421  3.6834  3.4481  1.7962
10198SOL     OW34124   7.370   4.608   9.049 -0.7611  0.7269  0.3687
10198SOL    HW134125   7.392   4.525   9.009  0.4002  0.5879  1.2468
10198SOL    HW234126   7.397   4.599   9.141 -0.8818  1.9531  0.5508
10199SOL     OW34127   5.813   0.246   0.495  0.0813 -0.1074 -0.5147
10199SOL    HW134128   5.757   0.307   0.543  0.8655  0.9464 -0.9017
10199SOL    HW234129   5.874   0.302   0.448  0.8557 -1.2083 -0.8500
10200SOL     OW34130  10.081   0.733   1.144 -0.0606 -0.5246  0.1994
10200SOL    HW134131  10.139   0.660   1.125 -1.3187 -1.3911 -0.5108
10200SOL    HW234132  10.119   0.807   1.098  1.4733 -0.5915  1.2821
10201SOL     OW34133   7.896   5.444  10.336 -0.6225  0.7116 -0.6747
10201SOL    HW134134   7.887   5.481  10.424 -1.4444  0.5710 -0.6831
10201SOL    HW234135   7.973   5.387  10.341  0.9126  2.7108 -0.7810
10202SOL     OW34136  10.898   0.777   5.995  0.0079 -0.4112  0.3507
10202SOL    HW134137  10.920   0.710   5.930  0.7306  2.1129 -2.1512
10202SOL    HW234138  10.975   0.782   6.052  1.1071  0.2014 -1.1568
10203SOL     OW34139   9.712   1.435   1.312 -0.0594 -0.1044  0.3286
10203SOL    HW134140   9.632   1.384   1.299  1.0145 -1.4253 -1.6080
10203SOL    HW234141   9.755   1.394   1.387 -0.8715  0.2474  1.0094
10204SOL     OW34142   1.373   6.600   6.763 -0.1791  0.1186  0.7120
10204SOL    HW134143   1.463   6.616   6.795  0.6249 -1.3851 -0.6654
10204SOL    HW234144   1.369   6.647   6.680 -1.1462  1.2494  1.3638
10205SOL     OW34145   5.335  11.119   1.383 -0.8788  0.0284 -0.2796
10205SOL    HW134146   5.378  11.042   1.421 -1.8341 -0.6806 -0.6027
10205SOL    HW234147   5.407  11.170   1.345 -0.0595  0.0523  1.2147
10206SOL     OW34148   7.617   6.865  10.048 -0.1762 -0.4970 -0.2183
10206SOL    HW134149   7.668   6.807   9.990  1.0599 -0.4242  0.7514
10206SOL    HW234150   7.683   6.914  10.097 -1.1822 -0.4784  1.1765
10207SOL     OW34151   1.297   5.301   3.666 -0.5838 -0.0837 -0.1858
10207SOL    HW134152   1.289   5.392   3.636 -2.2206 -0.0877  0.1210
10207SOL    HW234153   1.349   5.258   3.599 -1.6581  0.5924 -1.4935
10208SOL     OW34154   0.088   3.892   8.578  0.5124  0.0914  0.1507
10208SOL    HW134155   0.155   3.823   8.577  0.1539 -0.6041  4.5848
10208SOL    HW234156   0.006   3.846   8.563  0.4333 -0.2408  1.4920
10209SOL     OW34157   6.665   9.416  10.541 -0.9518 -0.8681 -0.0622
10209SOL    HW134158   6.714   9.448  10.465  0.0312 -1.0896  0.4643
10209SOL    HW234159   6.651   9.494  10.595 -1.7071 -0.6981 -0.4774
10210SOL     OW34160   5.024   4.916   5.099  0.0236 -0.1231  0.0711
10210SOL    HW134161   5.033   4.942   5.190  0.4265 -1.6675  0.5138
10210SOL    HW234162   4.955   4.850   5.099  1.0856 -1.2945 -0.4400
10211SOL     OW34163   0.249   2.507   3.970  0.1263  0.0816  0.2698
10211SOL    HW134164   0.286   2.462   3.894 -0.5416  1.1999 -0.7608
10211SOL    HW234165   0.157   2.522   3.946  0.2146  1.5281  0.7639
10212SOL     OW34166   1.771   4.233   4.985 -0.0032  0.2502  0.3215
10212SOL    HW134167   1.852   4.250   4.936 -1.2187  0.0743 -1.8620
10212SOL    HW234168   1.796   4.168   5.051  1.9040  1.1732  0.5931
10213SOL     OW34169   2.185   3.415  10.626  0.1686 -0.2820 -0.1295
10213SOL    HW134170   2.221   3.462  10.701 -1.1098 -0.7065  0.8055
10213SOL    HW234171   2.113   3.363  10.663 -0.2896 -0.7580 -1.6011
10214SOL     OW34172   8.810   6.789   8.532 -0.1367  0.3699 -0.1819
10214SOL    HW134173   8.836   6.697   8.530 -0.4625  0.2544 -2.6974
10214SOL    HW234174   8.736   6.791   8.591 -0.5619 -1.1429 -0.6014
10215SOL     OW34175   9.731   3.846   2.116  0.4390 -0.0773 -0.0873
10215SOL    HW134176   9.636   3.850   2.122  0.2204  0.6947 -2.6540
10215SOL    HW234177   9.762   3.920   2.168 -0.3498 -0.3007  0.7213
10216SOL     OW34178   6.838   4.853   3.567 -0.4493 -0.6715 -0.3542
10216SOL    HW134179   6.770   4.837   3.632 -1.0323  0.0222 -0.7897
10216SOL    HW234180   6.919   4.858   3.617 -0.9512  0.3327  0.3809
10217SOL     OW34181  10.417   2.011   3.809 -0.3832 -0.3840 -0.7683
10217SOL    HW134182  10.376   1.964   3.736  0.5427 -1.4168 -0.6537
10217SOL    HW234183  10.425   1.946   3.878 -1.3985  0.6252  0.3592
10218SOL     OW34184   1.791   2.770   3.272  0.3197 -0.0827  0.0057
10218SOL    HW134185   1.834   2.856   3.266  0.8307 -0.3872 -0.9306
10218SOL    HW234186   1.769   2.761   3.364  0.5715  0.9119  0.1787
10219SOL     OW34187   7.958   8.255  10.117 -0.4053  0.2075  0.1989
10219SOL    HW134188   7.875   8.241  10.161  0.6738 -0.1181  2.2716
10219SOL    HW234189   7.992   8.167  10.101  0.3487  0.3246  1.0617
10220SOL     OW34190   2.456   1.939   8.477 -0.3866 -0.0270 -0.0449
10220SOL    HW134191   2.447   2.020   8.428  0.8218  0.3256  0.2720
10220SOL    HW234192   2.551   1.925   8.482 -0.2284  1.1241  3.9983
10221SOL     OW34193   0.556   3.753   7.228 -0.2668  0.7305 -0.1328
10221SOL    HW134194   0.534   3.728   7.138  2.5616  3.4590 -1.8028
10221SOL    HW234195   0.487   3.815   7.253 -0.2222  1.2039 -1.1173
10222SOL     OW34196   6.527   1.134   5.430 -0.5266  0.0058 -0.1484
10222SOL    HW134197   6.542   1.133   5.525  0.4676 -0.2986 -0.3026
10222SOL    HW234198   6.574   1.057   5.398 -1.3951 -0.2681 -0.8242
10223SOL     OW34199   9.597   7.704   5.924 -0.1822  0.2028  0.3077
10223SOL    HW134200   9.507   7.720   5.894 -0.2687 -1.3040 -0.3211
10223SOL    HW234201   9.620   7.783   5.972 -1.8890  0.5786  0.5912
10224SOL     OW34202  10.417   9.923   1.226 -0.2548 -0.2543  0.1518
10224SOL    HW134203  10.493   9.929   1.284  0.3669  2.8855 -0.8049
10224SOL    HW234204  10.351   9.979   1.267 -0.4331  0.5949 -1.2209
10225SOL     OW34205   7.514   3.534   1.826  0.3969  0.7900  0.2382
10225SOL    HW134206   7.537   3.530   1.919  1.7870  1.1415 -0.0709
10225SOL    HW234207   7.480   3.623   1.814  1.0701  1.0576  0.2416
10226SOL     OW34208   4.530   1.253   0.755 -0.2737 -0.0744  0.6627
10226SOL    HW134209   4.505   1.161   0.753 -1.0764  0.1342  0.7571
10226SOL    HW234210   4.516   1.280   0.846 -0.3154  0.2177  0.5703
10227SOL     OW34211   9.891   1.656   1.693 -0.4663 -0.2006  0.4978
10227SOL    HW134212   9.829   1.588   1.667  0.3411 -0.8748  0.2921
10227SOL    HW234213   9.895   1.650   1.789  1.8497 -2.5469  0.3683
10228SOL     OW34214   1.517   1.407  10.627 -0.2818 -0.7305  0.3208
10228SOL    HW134215   1.603   1.430  10.592 -0.7271  2.2091  0.9515
10228SOL    HW234216   1.521   1.431  10.719 -1.5067 -1.4094  0.5767
10229SOL     OW34217   8.233   6.869   3.431 -0.3449 -0.3956  0.8939
10229SOL    HW134218   8.257   6.795   3.376  1.3265  0.5024  0.3293
10229SOL    HW234219   8.166   6.835   3.491 -0.4625 -2.0201 -0.1191
10230SOL     OW34220   6.111   7.448  10.304 -0.4615  0.4358  0.6135
10230SOL    HW134221   6.155   7.491  10.378  1.6649  0.9496 -0.8473
10230SOL    HW234222   6.120   7.510  10.231  0.9799 -1.5919 -1.0637
10231SOL     OW34223   7.419   9.796   9.436 -0.0520  0.2539 -0.0693
10231SOL    HW134224   7.514   9.807   9.430 -0.1462  1.0059 -0.3061
10231SOL    HW234225   7.407   9.721   9.494  0.6817  0.5910  0.5376
10232SOL     OW34226   9.571   4.413   4.999 -0.1001 -0.1792  0.3381
10232SOL    HW134227   9.646   4.393   5.055 -0.2017 -1.3774  0.0777
10232SOL    HW234228   9.599   4.387   4.911  0.5419  2.8776 -0.4763
10233SOL     OW34229   7.156   3.624   7.880 -0.2478  0.1951  0.1122
10233SOL    HW134230   7.073   3.582   7.856  0.1296 -0.3574 -0.2527
10233SOL    HW234231   7.134   3.716   7.890 -1.6181 -0.3231  3.2207
10234SOL     OW34232  10.841   5.324   5.685  0.8679  0.5765 -0.2858
10234SOL    HW134233  10.891   5.278   5.753 -1.2618  0.0574  1.0147
10234SOL    HW234234  10.825   5.257   5.618  1.0901  0.4901 -0.2549
10235SOL     OW34235   1.360   3.080   3.540 -0.2716 -0.0837 -0.3379
10235SOL    HW134236   1.418   3.063   3.614  0.4678  0.3973 -0.7942
10235SOL    HW234237   1.415   3.126   3.476 -0.8702 -0.5656 -1.2253
10236SOL     OW34238   5.718   8.403   7.325 -0.0588  0.2149  0.2399
10236SOL    HW134239   5.668   8.326   7.297 -0.3141  0.4685 -0.0059
10236SOL    HW234240   5.806   8.369   7.344  0.5445  0.2274 -2.1860
10237SOL     OW34241   4.248   2.179   7.057  0.4932  0.1344  0.3837
10237SOL    HW134242   4.175   2.118   7.064  0.9306 -0.3804  0.4795
10237SOL    HW234243   4.305   2.158   7.130  0.7560  0.5181  0.2948
10238SOL     OW34244   2.467   4.802   5.434  0.7172 -0.3920 -0.2166
10238SOL    HW134245   2.375   4.805   5.461 -0.0181  2.0683 -2.5423
10238SOL    HW234246   2.469   4.739   5.362  1.6546 -3.0154  1.9177
10239SOL     OW34247   7.491   3.656   6.070 -0.1041 -0.0815 -0.5561
10239SOL    HW134248   7.401   3.643   6.041  0.0180 -1.1749 -0.4749
10239SOL    HW234249   7.543   3.653   5.990  0.0837 -1.7285 -0.4134
10240SOL     OW34250  10.222   9.668   7.834 -0.2893 -1.2735 -0.7527
10240SOL    HW134251  10.275   9.646   7.758  3.3358  0.5970  0.9584
10240SOL    HW234252  10.205   9.584   7.877  2.0031 -1.9443 -1.0338
10241SOL     OW34253   7.089   9.558   7.815  0.5354 -0.3613 -0.1018
10241SOL    HW134254   7.151   9.603   7.873  0.5581  0.3751 -0.6737
10241SOL    HW234255   7.067   9.624   7.749 -0.0101 -0.9708 -0.5370
10242SOL     OW34256   5.381   8.332   9.301 -0.3322  0.3240  0.0593
10242SOL    HW134257   5.470   8.344   9.268 -0.1932  0.0193  0.3247
10242SOL    HW234258   5.333   8.297   9.226 -0.2690  0.6273 -0.1285
10243SOL     OW34259   5.692   7.139   3.155  0.6237 -0.1004 -0.0465
10243SOL    HW134260   5.708   7.233   3.143 -2.9625  0.5380 -1.1206
10243SOL    HW234261   5.620   7.135   3.218  1.9428 -2.2897  1.4266
10244SOL     OW34262   7.477   7.490   2.305 -0.0652  0.1103 -0.3340
10244SOL    HW134263   7.527   7.421   2.349 -1.1553  0.6711  1.9739
10244SOL    HW234264   7.534   7.567   2.309 -0.3326  0.2718  0.5557
10245SOL     OW34265   5.776   2.419   1.192  0.3904 -0.4404  0.1305
10245SOL    HW134266   5.777   2.359   1.266 -1.3289  2.0712  2.4010
10245SOL    HW234267   5.863   2.458   1.191  0.6573 -1.0266  0.3347
10246SOL     OW34268   8.539   5.979   9.430  0.0991  0.0442  0.1806
10246SOL    HW134269   8.545   5.884   9.420  0.2395 -0.0763  1.2343
10246SOL    HW234270   8.517   5.991   9.523 -0.5411  1.0185 -0.0870
10247SOL     OW34271   3.588   8.069   1.460 -0.1539 -0.2143 -0.0715
10247SOL    HW134272   3.507   8.059   1.410 -0.1693  2.5065 -0.7259
10247SOL    HW234273   3.559   8.085   1.550 -0.8189  5.0991 -0.9069
10248SOL     OW34274   8.775   5.769   1.519  0.4652  0.1092 -0.0946
10248SOL    HW134275   8.768   5.864   1.523 -0.1986  0.1439 -1.4042
10248SOL    HW234276   8.799   5.743   1.607  0.0894  1.4466  0.4291
10249SOL     OW34277   0.342   7.614   3.888 -0.2302  0.0583  0.3531
10249SOL    HW134278   0.270   7.551   3.881 -1.1847  1.1726 -0.1694
10249SOL    HW234279   0.325   7.677   3.819 -0.2146  1.8068  1.8792
10250SOL     OW34280  10.998  10.635   5.055  0.4864 -0.1022  0.5347
10250SOL    HW134281  11.064  10.598   5.113  1.7400  1.5459  0.2257
10250SOL    HW234282  11.044  10.704   5.006 -0.6926 -0.9028 -1.8888
10251SOL     OW34283   4.117   5.891   9.660 -0.2001 -0.3685  0.0806
10251SOL    HW134284   4.140   5.949   9.587 -0.4122 -0.3913 -0.0054
10251SOL    HW234285   4.079   5.949   9.725  0.4366 -0.2744  0.3757
10252SOL     OW34286   9.531   6.589   4.301 -0.0506 -0.5021  0.0357
10252SOL    HW134287   9.542   6.655   4.370 -0.3277  0.2316 -0.6111
10252SOL    HW234288   9.458   6.621   4.248  0.0219 -1.1639 -0.4848
10253SOL     OW34289   5.712   9.924   2.543  0.0542 -0.3346  0.1410
10253SOL    HW134290   5.635   9.980   2.552 -0.3050 -0.8978  0.6734
10253SOL    HW234291   5.676   9.836   2.531  0.6068 -0.4180 -1.0109
10254SOL     OW34292   9.110   8.402  10.102  0.1968 -0.2813  0.6585
10254SOL    HW134293   9.157   8.341  10.159  3.2431 -0.7382 -2.0293
10254SOL    HW234294   9.168   8.478  10.095 -0.8608  0.4737 -0.4687
10255SOL     OW34295  10.537   1.160   5.739 -0.0716 -0.3609  0.2246
10255SOL    HW134296  10.609   1.170   5.801  2.5308 -1.2047 -2.4401
10255SOL    HW234297  10.461   1.197   5.784  2.5275  3.1222  2.2220
10256SOL     OW34298   0.149   1.165   3.033  0.0353  0.4416 -0.4957
10256SOL    HW134299   0.202   1.207   2.965  0.4316  1.7462  0.5715
10256SOL    HW234300   0.124   1.081   2.995  2.8494 -0.2462 -1.0864
10257SOL     OW34301   0.110   2.000   5.187  0.1428  0.3410 -0.0494
10257SOL    HW134302   0.138   2.091   5.203  1.1157  0.1713 -0.6455
10257SOL    HW234303   0.140   1.982   5.098  0.8146 -0.8661  0.3923
10258SOL     OW34304   8.951   5.097   7.247  0.0996  0.2455  0.1034
10258SOL    HW134305   8.946   5.105   7.342  1.3804 -0.1284  0.2228
10258SOL    HW234306   8.948   5.003   7.230  0.5343  0.2797 -0.1806
10259SOL     OW34307   1.389   8.877  10.572  0.1599 -0.0487  0.3252
10259SOL    HW134308   1.309   8.852  10.617  0.0480  0.1352  0.2288
10259SOL    HW234309   1.459   8.829  10.618  0.0169 -0.0693  0.5194
10260SOL     OW34310   3.534   1.152  10.731  0.1544  0.3264 -0.2815
10260SOL    HW134311   3.628   1.152  10.748  0.0510  0.5887  0.3273
10260SOL    HW234312   3.496   1.194  10.808 -0.2814  2.2659 -1.4866
10261SOL     OW34313   8.385   9.113   7.644 -0.1067 -0.1883 -0.1781
10261SOL    HW134314   8.410   9.030   7.602  1.4243  1.0445 -1.8718
10261SOL    HW234315   8.446   9.122   7.717 -0.6960 -0.8561  0.3973
10262SOL     OW34316   9.377  10.478   0.426  0.5317 -0.0447  0.3150
10262SOL    HW134317   9.393  10.468   0.333 -0.6959 -2.0565  0.2764
10262SOL    HW234318   9.282  10.488   0.434  0.7758  2.5281  1.2281
10263SOL     OW34319   6.541   7.355   7.663 -0.0776 -0.0372 -0.1057
10263SOL    HW134320   6.548   7.299   7.740  0.8586  0.9632  0.5608
10263SOL    HW234321   6.619   7.335   7.611 -0.0910  0.1623 -0.2035
10264SOL     OW34322   2.876   1.394   3.807 -0.0687 -0.6313  0.3620
10264SOL    HW134323   2.855   1.346   3.727 -1.7477  0.5817  0.0187
10264SOL    HW234324   2.825   1.475   3.801  0.3048 -0.1874  2.3245
10265SOL     OW34325   3.188   4.908  10.600  0.3199  0.2321  0.1901
10265SOL    HW134326   3.259   4.883  10.541  0.5718  2.0808 -0.3635
10265SOL    HW234327   3.108   4.886  10.552  0.4399 -1.9032  0.8357
10266SOL     OW34328   6.301   4.066   8.319 -0.3583  0.1601  0.2645
10266SOL    HW134329   6.331   4.156   8.327 -0.3586  0.2485 -0.6211
10266SOL    HW234330   6.357   4.016   8.379 -1.0427  0.8903  1.5285
10267SOL     OW34331   6.267   2.451   1.809  0.2004  0.5814  0.4289
10267SOL    HW134332   6.347   2.436   1.758 -0.4012  0.2068 -0.4108
10267SOL    HW234333   6.298   2.456   1.899  1.1331  0.0499  0.1554
10268SOL     OW34334   5.745   8.354   6.113 -0.0564 -0.1145 -0.6382
10268SOL    HW134335   5.818   8.321   6.165 -0.9043 -0.6326  0.2711
10268SOL    HW234336   5.670   8.301   6.141 -0.7353  0.2454 -1.7107
10269SOL     OW34337   8.137   7.403   2.769 -0.1491 -0.3147  0.4040
10269SOL    HW134338   8.154   7.490   2.732 -1.0914  0.0110  0.7091
10269SOL    HW234339   8.217   7.355   2.753  0.1411  0.3971 -0.4014
10270SOL     OW34340  11.047   6.882   0.224 -0.3379 -0.4285 -0.1611
10270SOL    HW134341  10.996   6.803   0.244  0.0785 -0.3070  1.5395
10270SOL    HW234342  10.983   6.944   0.190 -0.7317 -1.3617 -1.1741
10271SOL     OW34343   3.772   5.279  10.868  0.0797 -0.0667 -0.4379
10271SOL    HW134344   3.801   5.357  10.821 -0.2651  0.1459 -0.3072
10271SOL    HW234345   3.742   5.313  10.953  1.0928 -0.4967  0.1031
10272SOL     OW34346   3.449   8.647   2.014  0.1299 -0.3748  0.4393
10272SOL    HW134347   3.378   8.704   2.042 -0.1981 -1.2015  1.3216
10272SOL    HW234348   3.514   8.707   1.975 -0.9517  0.3941 -0.2251
10273SOL     OW34349   3.792   4.640   1.603  0.0583  0.2124 -0.3769
10273SOL    HW134350   3.865   4.701   1.616  0.2803  0.3858 -2.2365
10273SOL    HW234351   3.791   4.587   1.683  0.3342  2.1216  0.9707
10274SOL     OW34352   1.925   9.633   6.960  0.4346  0.2296  0.1655
10274SOL    HW134353   1.858   9.668   7.019  1.2263 -1.1333  1.9295
10274SOL    HW234354   1.934   9.541   6.984  0.2226 -0.6350 -2.6485
10275SOL     OW34355   3.099   7.075   4.754 -0.0192 -0.3814  0.2139
10275SOL    HW134356   3.183   7.084   4.800  0.8159 -2.2836 -0.8393
10275SOL    HW234357   3.122   7.071   4.662 -1.3687 -0.0297 -0.1596
10276SOL     OW34358   2.518   8.741   3.335 -0.3621 -0.6182 -0.4024
10276SOL    HW134359   2.557   8.815   3.288 -1.8465  0.7163  0.3532
10276SOL    HW234360   2.554   8.663   3.293  1.8176  0.5174 -0.7688
10277SOL     OW34361   9.939   1.422   4.175 -0.3193  0.0966 -0.1334
10277SOL    HW134362  10.003   1.443   4.106  0.7866 -1.1957  0.4527
10277SOL    HW234363   9.971   1.468   4.252 -1.1004  0.8647 -0.2459
10278SOL     OW34364   5.383   9.859   3.665  0.3539  0.6010  0.0105
10278SOL    HW134365   5.324   9.818   3.601  0.4603 -0.0762  0.3370
10278SOL    HW234366   5.395   9.792   3.732  0.8235  1.0450  0.3735
10279SOL     OW34367   9.619   3.192   5.517  0.0320  0.0705 -0.4963
10279SOL    HW134368   9.681   3.195   5.590 -0.7377 -1.4484  0.2705
10279SOL    HW234369   9.661   3.135   5.453 -0.3133 -0.5192 -0.2077
10280SOL     OW34370   3.268   1.566   5.419  0.5772 -0.1061  0.1857
10280SOL    HW134371   3.320   1.524   5.488  1.5854  1.5775  0.5186
10280SOL    HW234372   3.179   1.536   5.435  1.1413 -1.5347  0.8224
10281SOL     OW34373   5.267   8.401   6.438  0.6927  0.3155 -0.4869
10281SOL    HW134374   5.270   8.494   6.461  1.4462  0.1006  0.3071
10281SOL    HW234375   5.308   8.397   6.352  0.6116  0.7248 -0.5489
10282SOL     OW34376   2.235   5.233   6.424 -0.1429 -0.7107  0.2526
10282SOL    HW134377   2.183   5.305   6.458  0.3959  0.0465 -0.4736
10282SOL    HW234378   2.228   5.242   6.329 -0.1619 -1.6918  0.1556
10283SOL     OW34379   5.468   3.492  10.219 -0.4035 -0.5922 -0.1784
10283SOL    HW134380   5.510   3.448  10.145  0.7081  0.2397 -0.0799
10283SOL    HW234381   5.512   3.456  10.296 -0.2017 -0.0631 -0.0438
10284SOL     OW34382   9.898   3.485   9.188 -0.0698  0.4580 -0.3177
10284SOL    HW134383   9.933   3.403   9.221 -0.7947  0.3378  0.1863
10284SOL    HW234384   9.956   3.552   9.224  0.3603  0.1890 -0.5022
10285SOL     OW34385   1.044   6.764   3.771  0.1457 -0.0580  0.0297
10285SOL    HW134386   1.096   6.779   3.850 -1.2207  0.7391  0.8303
10285SOL    HW234387   1.006   6.850   3.750 -3.0074 -1.0277  1.1411
10286SOL     OW34388   6.618   2.961   4.202  0.3884 -0.0888  0.2668
10286SOL    HW134389   6.672   3.039   4.210 -0.0039  0.5449 -2.3081
10286SOL    HW234390   6.672   2.899   4.154  0.0445 -0.7258  0.6904
10287SOL     OW34391   0.878   5.343   1.816 -0.0485 -0.5365 -0.4075
10287SOL    HW134392   0.894   5.271   1.877  1.9552 -0.1072 -0.3754
10287SOL    HW234393   0.791   5.375   1.840 -0.5288 -2.2285  0.2827
10288SOL     OW34394   4.609   3.165   4.533  0.1547 -0.0539 -0.3257
10288SOL    HW134395   4.535   3.226   4.539 -0.4271 -0.6031 -1.5712
10288SOL    HW234396   4.615   3.128   4.621 -1.6900 -0.6870 -0.4120
10289SOL     OW34397   7.168   4.031   8.233  0.0447 -0.1167  0.5117
10289SOL    HW134398   7.194   4.123   8.227 -2.2460  0.5430 -0.8751
10289SOL    HW234399   7.107   4.027   8.306 -0.9656 -0.1774 -0.3014
10290SOL     OW34400   4.078   7.408   3.488 -0.4437 -0.2672  0.2022
10290SOL    HW134401   4.052   7.460   3.564 -2.5131  0.0601 -0.6475
10290SOL    HW234402   4.077   7.470   3.415  1.6084 -0.5514 -0.1229
10291SOL     OW34403   0.933   7.373   7.525  0.8838  0.0552  0.6067
10291SOL    HW134404   0.980   7.301   7.482 -0.0840 -0.0592 -0.2963
10291SOL    HW234405   0.946   7.448   7.466 -0.4252 -0.0913  0.1136
10292SOL     OW34406   6.079   9.493  10.616 -0.0780  0.3557  0.2757
10292SOL    HW134407   6.045   9.567  10.565 -0.1521 -0.7920 -1.4280
10292SOL    HW234408   6.164   9.524  10.647  0.2363  0.9220 -1.0563
10293SOL     OW34409   5.595   8.620   7.392 -0.4383  0.4652 -0.6482
10293SOL    HW134410   5.671   8.673   7.371 -1.0885  0.7151 -2.5102
10293SOL    HW234411   5.618   8.532   7.363  0.3905 -0.2384  1.8588
10294SOL     OW34412   9.620   3.894   6.016  0.2024 -0.0720 -0.1017
10294SOL    HW134413   9.557   3.839   5.970  1.6203  0.5048 -2.9274
10294SOL    HW234414   9.662   3.835   6.079 -1.8101 -0.8908  0.5717
10295SOL     OW34415   8.710   4.443   5.660 -0.2501 -0.4185  0.3020
10295SOL    HW134416   8.750   4.515   5.709  0.3682 -0.0947 -0.6602
10295SOL    HW234417   8.626   4.428   5.705 -1.5352  2.4945 -0.8420
10296SOL     OW34418   2.530   2.229   5.639 -0.0207 -0.3515  1.1761
10296SOL    HW134419   2.450   2.272   5.611  0.3172  0.0959  0.8892
10296SOL    HW234420   2.580   2.216   5.558 -0.1068 -1.2670  1.2547
10297SOL     OW34421   5.928   6.614   9.525  0.2342  0.3519  0.0767
10297SOL    HW134422   5.973   6.649   9.448 -1.8835  2.8807 -0.1898
10297SOL    HW234423   5.891   6.531   9.495  2.2201 -0.3430 -0.5593
10298SOL     OW34424   6.890   1.668  10.681 -0.4424  0.3257  0.0006
10298SOL    HW134425   6.983   1.663  10.660 -0.2274  2.7480  0.0395
10298SOL    HW234426   6.846   1.674  10.597 -0.5482 -0.3793 -0.0032
10299SOL     OW34427   7.492   0.376   2.399  0.1940 -0.5120  0.3275
10299SOL    HW134428   7.516   0.296   2.352  0.8380 -1.0514  1.5180
10299SOL    HW234429   7.485   0.443   2.331 -1.1283 -1.7369 -0.7993
10300SOL     OW34430   8.646   4.079   0.815  0.2649  0.3730 -0.3059
10300SOL    HW134431   8.720   4.041   0.768  0.0497 -0.3954 -0.0418
10300SOL    HW234432   8.685   4.144   0.873  0.8212 -0.5077  0.3257
10301SOL     OW34433   6.520   6.013   9.187  0.2684 -0.2096  0.1492
10301SOL    HW134434   6.471   5.956   9.127 -2.8414  1.8650  0.4198
10301SOL    HW234435   6.573   6.068   9.129  0.8619 -1.2528 -0.3187
10302SOL     OW34436   0.862   7.308   7.152 -0.0807  0.0388 -0.3856
10302SOL    HW134437   0.785   7.278   7.201  1.3138 -0.5953  1.5274
10302SOL    HW234438   0.827   7.335   7.067 -2.1828 -1.7234 -0.1604
10303SOL     OW34439   3.767   8.616   5.903  0.4076 -0.6327  0.2877
10303SOL    HW134440   3.682   8.573   5.896  1.1875 -2.2080  0.0010
10303SOL    HW234441   3.786   8.616   5.997  0.8760 -1.9281  0.2063
10304SOL     OW34442   6.644   2.966   7.156 -0.4493  0.7874  0.1529
10304SOL    HW134443   6.686   2.967   7.242  1.0412  0.1572 -0.5362
10304SOL    HW234444   6.655   3.056   7.123  1.0501  0.4452 -0.3255
10305SOL     OW34445   2.416   5.579   0.463 -0.0672  0.8478 -0.1568
10305SOL    HW134446   2.390   5.557   0.373 -0.2523 -1.0309  0.3085
10305SOL    HW234447   2.512   5.571   0.462 -0.1455 -0.5095  0.0796
10306SOL     OW34448   5.680   0.614   2.446 -0.6639 -0.2437 -0.9277
10306SOL    HW134449   5.636   0.620   2.361  0.7465  0.3107 -1.6554
10306SOL    HW234450   5.684   0.704   2.477 -0.7073 -0.3807 -0.5221
10307SOL     OW34451   6.345   2.712   8.213  0.9612  0.7234 -0.3694
10307SOL    HW134452   6.348   2.806   8.193  0.3829  0.6971 -0.6154
10307SOL    HW234453   6.385   2.704   8.299  0.3791  1.2853 -0.0439
10308SOL     OW34454   5.960   6.492   2.270 -0.5259  0.4724 -0.1311
10308SOL    HW134455   5.954   6.410   2.319  0.3484 -0.2947 -1.2668
10308SOL    HW234456   5.991   6.556   2.335  2.1599 -0.8772  0.0401
10309SOL     OW34457   2.029   2.237   7.563 -0.3458  0.2101 -0.2603
10309SOL    HW134458   1.974   2.310   7.537  1.8640  1.6233 -1.2315
10309SOL    HW234459   2.092   2.227   7.492  0.2691 -1.7650  0.4858
10310SOL     OW34460   4.023   1.680   4.760  0.1173 -0.2329 -0.1969
10310SOL    HW134461   4.107   1.695   4.717  0.4199 -2.8971 -0.6718
10310SOL    HW234462   3.961   1.734   4.711  1.1158 -0.2330 -1.5012
10311SOL     OW34463  10.937   2.083  10.630  0.0207 -0.4641 -0.3492
10311SOL    HW134464  11.000   2.065  10.560  1.1355 -0.7090  0.6940
10311SOL    HW234465  10.983   2.140  10.690 -0.2994 -1.6615  1.0867
10312SOL     OW34466   0.475   2.816   3.031 -0.4487 -0.4900  0.2035
10312SOL    HW134467   0.432   2.733   3.014  0.8737 -1.1062 -0.2858
10312SOL    HW234468   0.530   2.831   2.954 -2.3563  1.9993 -0.8138
10313SOL     OW34469   8.045   9.016   5.884 -0.0464  0.0999 -0.6491
10313SOL    HW134470   8.000   9.039   5.803 -1.0612  0.0315 -0.1254
10313SOL    HW234471   7.974   9.001   5.947  0.7518  1.2175  0.5469
10314SOL     OW34472   9.381   5.448   8.033  0.5433  0.0609 -0.7648
10314SOL    HW134473   9.382   5.355   8.055  1.5036 -0.0096 -1.0349
10314SOL    HW234474   9.290   5.475   8.042  0.3518 -0.7799 -0.1568
10315SOL     OW34475   9.835   8.774   4.662 -0.1188 -0.1727  0.3814
10315SOL    HW134476   9.896   8.822   4.718  2.2269 -1.3069 -1.0549
10315SOL    HW234477   9.834   8.824   4.580 -2.0153  0.4025  0.6933
10316SOL     OW34478   2.633   7.265   7.757  0.4769 -0.5116  0.3474
10316SOL    HW134479   2.696   7.335   7.742 -1.5239  1.1653 -0.7444
10316SOL    HW234480   2.620   7.263   7.851  2.8012 -1.5731  0.7260
10317SOL     OW34481  10.969   2.980  10.877 -0.4520 -0.0741 -0.2204
10317SOL    HW134482  11.041   3.022  10.924  0.1572 -0.4692 -0.8034
10317SOL    HW234483  11.005   2.898  10.845 -0.8217  0.2408 -1.4978
10318SOL     OW34484   7.569   3.189   1.655  0.5703  0.6340  0.4391
10318SOL    HW134485   7.652   3.237   1.650 -0.5428  2.7374  1.1227
10318SOL    HW234486   7.550   3.183   1.749  0.2379 -0.3940  0.3214
10319SOL     OW34487  10.642   7.746   3.850  0.1508  0.1828  0.4823
10319SOL    HW134488  10.667   7.818   3.908 -0.5864  0.2284  0.7592
10319SOL    HW234489  10.624   7.673   3.909  0.9202 -0.2482  0.2009
10320SOL     OW34490   3.125  10.098  10.534 -0.1783 -0.2217 -0.1021
10320SOL    HW134491   3.076  10.073  10.456 -1.5241 -1.9131  1.1898
10320SOL    HW234492   3.206  10.137  10.501 -0.4735 -1.3324 -2.3246
10321SOL     OW34493   9.027   2.155   4.539  0.3863  0.9584  0.0051
10321SOL    HW134494   8.992   2.088   4.480  2.1204  0.1691 -0.1720
10321SOL    HW234495   9.121   2.150   4.528  0.7568  1.1065  2.5165
10322SOL     OW34496   7.087  10.420  11.007 -0.2632  0.1468 -0.1060
10322SOL    HW134497   7.013  10.392  10.953  0.6049  0.2184 -1.3789
10322SOL    HW234498   7.161  10.369  10.974  0.3353  0.3498  0.8916
10323SOL     OW34499   6.742   3.301   3.213 -0.0169  0.2332 -0.2665
10323SOL    HW134500   6.833   3.323   3.193  0.5069 -0.6092  1.0619
10323SOL    HW234501   6.691   3.369   3.169  1.2405  0.6811 -1.0904
10324SOL     OW34502   8.323   7.814   5.461  0.8351 -0.2459  0.4018
10324SOL    HW134503   8.366   7.815   5.375 -2.4544  0.0534 -1.4255
10324SOL    HW234504   8.330   7.904   5.492 -0.5903  0.4685 -1.1422
10325SOL     OW34505  10.934   7.377   4.708  0.0496 -0.0676 -0.2794
10325SOL    HW134506  10.997   7.311   4.680  0.1010 -0.6100  1.0539
10325SOL    HW234507  10.951   7.452   4.651  0.9145 -0.7247 -0.9008
10326SOL     OW34508   0.446   7.327   0.431  0.7845 -0.2396  0.1724
10326SOL    HW134509   0.387   7.400   0.454  0.2764 -0.7781  0.6294
10326SOL    HW234510   0.452   7.276   0.512  2.3825  0.1348  0.3117
10327SOL     OW34511   9.284   6.823   3.468  0.0392 -0.0602  0.2645
10327SOL    HW134512   9.359   6.782   3.511  0.3758  1.4053  1.1341
10327SOL    HW234513   9.229   6.853   3.540 -1.6400 -1.4769 -0.3534
10328SOL     OW34514   7.222   8.484   6.475 -0.3754  0.4195 -0.1996
10328SOL    HW134515   7.302   8.446   6.438 -0.4088 -0.1487  0.2983
10328SOL    HW234516   7.240   8.492   6.569 -0.6836  0.8579 -0.1752
10329SOL     OW34517   8.255   5.359  10.386  0.7385 -0.2614  0.2490
10329SOL    HW134518   8.320   5.301  10.426  0.1175 -0.4757  0.9964
10329SOL    HW234519   8.234   5.318  10.303  1.8334  0.0210 -0.1766
10330SOL     OW34520   9.492   8.616   2.254 -0.5070  0.6345  0.1168
10330SOL    HW134521   9.472   8.534   2.299  1.6128  0.6500  1.2056
10330SOL    HW234522   9.555   8.592   2.187  0.6412  1.4229  0.8752
10331SOL     OW34523   7.036   4.664   9.039  0.4095 -0.5135 -0.2601
10331SOL    HW134524   7.070   4.629   9.122 -0.0752 -0.9043 -0.2243
10331SOL    HW234525   6.951   4.700   9.062  1.4793  2.0846  0.0285
10332SOL     OW34526   3.117   5.490  10.886 -0.4261  0.1067  0.3366
10332SOL    HW134527   3.188   5.555  10.887  0.8154 -1.0239 -2.5087
10332SOL    HW234528   3.057   5.523  10.819 -0.6380 -0.8340  0.0564
10333SOL     OW34529  11.036   4.393   4.675  0.1249  0.0449 -0.0670
10333SOL    HW134530  11.037   4.480   4.715 -0.8972 -0.0220  0.1403
10333SOL    HW234531  10.945   4.364   4.683  0.4402 -1.0252 -0.1763
10334SOL     OW34532   7.311   8.944   6.027 -0.7565 -0.0952 -0.2778
10334SOL    HW134533   7.256   8.870   6.005  1.3507 -1.5840 -0.8512
10334SOL    HW234534   7.356   8.917   6.108  0.3906  0.3251 -0.7528
10335SOL     OW34535   4.410   7.162   4.388 -0.4296 -0.0163  0.1708
10335SOL    HW134536   4.462   7.082   4.393  1.2711  1.1177  1.9479
10335SOL    HW234537   4.431   7.199   4.302  1.8413  0.4517  0.8692
10336SOL     OW34538   2.264   7.451  10.159  0.3823 -0.3841  0.0211
10336SOL    HW134539   2.242   7.504  10.236 -2.3749  1.3991 -1.7540
10336SOL    HW234540   2.204   7.377  10.163  0.1120 -0.1982 -0.4381
10337SOL     OW34541   6.232   3.330   8.030 -0.6519  0.6599  0.2037
10337SOL    HW134542   6.182   3.248   8.033 -1.6385  1.2055 -0.4998
10337SOL    HW234543   6.232   3.362   8.120 -0.0513 -0.2191  0.5288
10338SOL     OW34544   6.324   7.963   7.827 -0.0654 -0.3479 -0.1458
10338SOL    HW134545   6.323   8.059   7.830  0.1283 -0.3123 -0.9488
10338SOL    HW234546   6.244   7.937   7.874  0.7243  0.1398  1.5393
10339SOL     OW34547   8.940   1.496   1.028 -0.0530 -0.0901 -0.2579
10339SOL    HW134548   8.973   1.441   0.957 -1.2950 -0.9900 -0.1774
10339SOL    HW234549   8.920   1.435   1.099  0.1950  0.6818  0.4879
10340SOL     OW34550   2.990   0.780   5.283 -0.6282 -0.2508 -0.0838
10340SOL    HW134551   3.046   0.805   5.356 -2.0706  2.4060  0.2321
10340SOL    HW234552   3.050   0.745   5.217  1.4332  2.1399  0.3694
10341SOL     OW34553   5.524   9.173   8.318  0.4822 -0.1925  0.0551
10341SOL    HW134554   5.439   9.151   8.356  1.5205 -1.2905  1.8668
10341SOL    HW234555   5.584   9.173   8.392  2.2530 -0.4701 -1.3311
10342SOL     OW34556   5.137   6.929   7.121 -0.1754  0.5948  0.3673
10342SOL    HW134557   5.204   6.962   7.181  0.8667 -1.2380  0.2975
10342SOL    HW234558   5.149   6.834   7.123  0.6253  0.4817 -3.5736
10343SOL     OW34559  10.444   4.506   4.302  0.6830  0.0746  0.1409
10343SOL    HW134560  10.539   4.511   4.318  0.7677  2.2157 -0.7214
10343SOL    HW234561  10.429   4.563   4.227 -1.0573 -1.8523 -1.0816
10344SOL     OW34562   1.837  10.437   9.141  1.0292 -0.5882  0.2377
10344SOL    HW134563   1.817  10.346   9.163 -3.1252  0.5063  1.8632
10344SOL    HW234564   1.774  10.460   9.073  0.4683  1.6490  1.4173
10345SOL     OW34565   5.002  10.980   6.544  0.3511  0.5414  0.0197
10345SOL    HW134566   5.023  11.026   6.626 -1.0189  0.4306  0.4494
10345SOL    HW234567   4.923  10.930   6.564 -0.3687  1.0025 -1.5518
10346SOL     OW34568   8.910   7.477   2.995  0.3122 -0.2889  0.4288
10346SOL    HW134569   8.937   7.538   3.063  1.8337 -1.9873  1.4242
10346SOL    HW234570   8.851   7.416   3.039 -1.5968  0.6718 -0.6664
10347SOL     OW34571   8.545   1.431   6.816  0.0537 -0.0879  0.1333
10347SOL    HW134572   8.552   1.336   6.825  1.9412 -0.2503 -2.0264
10347SOL    HW234573   8.625   1.456   6.769  0.3586  2.7949  1.9524
10348SOL     OW34574   4.470   6.544   5.353 -0.1286  0.3457 -0.2972
10348SOL    HW134575   4.405   6.473   5.351  1.9997 -1.9612  2.4795
10348SOL    HW234576   4.515   6.539   5.269 -0.1463 -1.5704 -0.2343
10349SOL     OW34577   6.700   9.429   5.127  0.1602  0.2001 -0.1904
10349SOL    HW134578   6.629   9.427   5.063  0.2590  3.0033 -0.5134
10349SOL    HW234579   6.763   9.493   5.092  0.0322  2.1493  2.7820
10350SOL     OW34580   5.049   2.352   0.117  0.3565  0.2836 -0.1057
10350SOL    HW134581   5.129   2.318   0.077  2.0289  1.6305  1.8689
10350SOL    HW234582   5.031   2.433   0.068 -0.7760 -0.8139 -1.5841
10351SOL     OW34583   7.249   0.883   7.565 -0.4963 -1.0294 -0.4279
10351SOL    HW134584   7.170   0.917   7.607 -0.6528  0.1513 -1.6124
10351SOL    HW234585   7.218   0.816   7.505 -0.5716 -0.7844 -0.6644
10352SOL     OW34586   4.182  10.376   4.080  0.2269  0.0130 -0.4264
10352SOL    HW134587   4.259  10.422   4.113 -0.4636 -0.1532  1.5125
10352SOL    HW234588   4.188  10.288   4.117 -0.6666 -0.1298 -0.6103
10353SOL     OW34589  10.470   9.554   0.981  0.4299  0.6735  0.3791
10353SOL    HW134590  10.442   9.466   0.955  0.0365  1.3449 -1.5742
10353SOL    HW234591  10.475   9.549   1.077  0.3324 -1.4378  0.3284
10354SOL     OW34592   0.349   8.104   7.622 -0.3063 -0.2810 -0.0935
10354SOL    HW134593   0.430   8.065   7.654 -0.4292 -1.1184 -0.7820
10354SOL    HW234594   0.280   8.047   7.656 -0.5940  0.2242  0.1876
10355SOL     OW34595   1.926   3.536   3.316  0.0018  0.5620  0.3251
10355SOL    HW134596   1.906   3.564   3.227 -0.1434 -0.8864 -0.1070
10355SOL    HW234597   2.021   3.523   3.317  0.0446  0.8504  0.4825
10356SOL     OW34598   6.976  10.666   4.331 -0.2840  0.1888 -0.1050
10356SOL    HW134599   7.001  10.755   4.356  0.1530 -0.4531  1.9753
10356SOL    HW234600   6.974  10.618   4.414  0.7956 -2.0617 -1.2804
10357SOL     OW34601   8.511   9.594   1.376  0.0508  0.4849  0.3730
10357SOL    HW134602   8.422   9.596   1.409  0.5605  0.4314  1.8365
10357SOL    HW234603   8.507   9.639   1.292 -1.8789 -1.9904 -1.0123
10358SOL     OW34604   0.203   9.148  11.074 -0.3160  0.1071  0.1609
10358SOL    HW134605   0.296   9.144  11.094 -0.5701 -0.2231  1.3192
10358SOL    HW234606   0.161   9.167  11.157 -1.2283  1.1788 -0.5179
10359SOL     OW34607   1.890   0.073   9.518 -0.1187 -0.2011 -0.4686
10359SOL    HW134608   1.913   0.098   9.429 -0.4936 -1.0408 -0.8061
10359SOL    HW234609   1.968   0.094   9.570  0.0793  0.3437 -0.9726
10360SOL     OW34610   9.181   8.709   6.698 -0.4244 -0.0132 -0.6957
10360SOL    HW134611   9.161   8.758   6.618  1.1924 -2.1341 -2.5210
10360SOL    HW234612   9.254   8.757   6.738 -0.8630  0.7350 -0.7694
10361SOL     OW34613   7.012   5.825   6.175  0.5377  0.4452  0.2643
10361SOL    HW134614   7.013   5.827   6.271 -0.0796 -0.3106  0.2923
10361SOL    HW234615   7.077   5.760   6.152  2.0146  1.9199  0.0978
10362SOL     OW34616   5.327   6.256   8.434  0.1216  0.5443 -0.4760
10362SOL    HW134617   5.286   6.342   8.446  2.7797  1.8120  0.3892
10362SOL    HW234618   5.316   6.211   8.517 -0.6136  0.3355 -0.6805
10363SOL     OW34619  10.693   7.770   7.624 -0.1914  0.5555  0.6687
10363SOL    HW134620  10.655   7.761   7.712 -0.5413 -0.0335  0.4619
10363SOL    HW234621  10.787   7.759   7.637 -0.4282 -2.1544  0.6552
10364SOL     OW34622   9.811   3.311   0.254  0.6791 -0.6771  0.1990
10364SOL    HW134623   9.731   3.281   0.297  0.0907 -0.4145 -0.6896
10364SOL    HW234624   9.835   3.239   0.196 -0.4527  0.2903 -1.5581
10365SOL     OW34625   1.999   9.794   2.931 -0.2987  0.1996  0.2050
10365SOL    HW134626   1.934   9.724   2.941  1.7993 -1.8821  0.2349
10365SOL    HW234627   2.014   9.825   3.021  0.7760 -1.3444  0.6033
10366SOL     OW34628   7.503   9.391   4.621 -0.6746 -0.1959  0.2277
10366SOL    HW134629   7.498   9.299   4.644  0.0888 -0.6957 -1.4974
10366SOL    HW234630   7.508   9.393   4.526  1.9799  1.4822  0.3000
10367SOL     OW34631  10.368   6.259   0.783 -0.4809 -0.5292  0.1157
10367SOL    HW134632  10.400   6.328   0.725  1.0801 -1.2981  0.0134
10367SOL    HW234633  10.352   6.304   0.867  0.2040  0.0128 -0.0391
10368SOL     OW34634   4.185   8.865   3.542  0.1215 -0.0042 -0.6499
10368SOL    HW134635   4.276   8.842   3.562  0.6322  1.6025 -1.0110
10368SOL    HW234636   4.187   8.959   3.527 -1.5326 -0.0278 -1.1534
10369SOL     OW34637   5.483   7.565   5.467 -0.1664 -0.0852  0.4279
10369SOL    HW134638   5.455   7.639   5.413  0.3789 -0.9891 -1.1611
10369SOL    HW234639   5.569   7.541   5.433 -0.8583 -2.2276  0.0194
10370SOL     OW34640   8.439   8.319   6.807 -0.2220  0.4069 -0.2126
10370SOL    HW134641   8.400   8.294   6.891  2.2354  2.9265  1.8837
10370SOL    HW234642   8.527   8.282   6.809  0.1070  1.0801 -1.3482
10371SOL     OW34643   5.098   3.633   5.887  0.1415  0.5214  0.2593
10371SOL    HW134644   5.112   3.598   5.975  1.4221  0.3957  0.0232
10371SOL    HW234645   5.171   3.600   5.836  0.5936  2.3093 -0.3356
10372SOL     OW34646   8.161   4.747   0.270 -0.3304  0.0552 -0.2291
10372SOL    HW134647   8.215   4.825   0.264  1.3328 -1.0384 -0.0457
10372SOL    HW234648   8.195   4.688   0.203 -1.3451 -0.6412 -0.1647
10373SOL     OW34649  10.974   5.610   6.286 -0.2634 -0.1428 -0.0869
10373SOL    HW134650  10.905   5.672   6.307 -0.0073 -0.0916  0.6416
10373SOL    HW234651  10.934   5.548   6.226 -1.0835 -0.3863  0.6961
10374SOL     OW34652   5.914   5.360   7.759 -0.1703 -0.4407  0.1701
10374SOL    HW134653   5.936   5.328   7.671 -0.4126  1.3698 -0.5888
10374SOL    HW234654   5.843   5.303   7.789 -0.6035 -0.6151 -1.1334
10375SOL     OW34655   6.761   7.681   5.675  1.1796  0.1119 -0.0746
10375SOL    HW134656   6.802   7.767   5.676  0.7964  0.2967  1.5216
10375SOL    HW234657   6.726   7.669   5.763 -1.3605 -0.4455 -1.0597
10376SOL     OW34658   4.789   2.273   2.249  0.0570  0.2918  0.0970
10376SOL    HW134659   4.860   2.219   2.284 -0.3353 -0.3832 -0.1178
10376SOL    HW234660   4.756   2.322   2.325 -0.5848 -0.9286  0.6356
10377SOL     OW34661   5.748   8.804   6.701  0.5669  0.3875 -0.0348
10377SOL    HW134662   5.841   8.825   6.689  0.7581  1.4336  2.6601
10377SOL    HW234663   5.746   8.708   6.703  1.2861  0.2890 -1.8014
10378SOL     OW34664   0.710   0.198   5.738 -0.7472 -0.5682  0.1651
10378SOL    HW134665   0.615   0.189   5.730 -1.0287  1.3063  0.8832
10378SOL    HW234666   0.729   0.170   5.828 -0.6821 -0.5117  0.1685
10379SOL     OW34667   5.361  10.376  10.202  0.4572  0.2012  0.1702
10379SOL    HW134668   5.345  10.470  10.202  1.6781  0.4254  0.4021
10379SOL    HW234669   5.403  10.358  10.118 -0.0273 -0.1795  0.0093
10380SOL     OW34670  10.013   1.202   0.537 -0.0997 -0.4328 -0.2304
10380SOL    HW134671  10.091   1.251   0.511 -0.4375  0.0227 -0.3966
10380SOL    HW234672   9.946   1.270   0.552 -0.3555 -0.7907  0.2790
10381SOL     OW34673   6.066   5.550   9.201  0.0699 -0.1112 -0.0035
10381SOL    HW134674   5.985   5.533   9.152  2.2214 -0.6825 -3.7364
10381SOL    HW234675   6.053   5.638   9.238 -2.0348  0.0304 -0.9109
10382SOL     OW34676   2.809   8.509   5.903 -0.0022  0.2444  0.0637
10382SOL    HW134677   2.777   8.535   5.989  0.3015 -1.1078  0.6085
10382SOL    HW234678   2.847   8.589   5.867 -0.6696  0.9721  0.9328
10383SOL     OW34679   4.589   7.802   2.203 -0.2750  0.4959  0.1544
10383SOL    HW134680   4.684   7.810   2.212 -0.4659  1.3437  1.7903
10383SOL    HW234681   4.559   7.891   2.183 -0.7138  0.2072 -0.5050
10384SOL     OW34682  10.770   9.492   9.833 -0.7039 -0.5730  0.6931
10384SOL    HW134683  10.764   9.568   9.775 -0.7584 -0.2795  1.0777
10384SOL    HW234684  10.860   9.461   9.824 -0.0747  0.7595  2.0456
10385SOL     OW34685   2.611   2.926   6.755  0.4493 -0.0379 -0.4305
10385SOL    HW134686   2.663   2.996   6.717  1.7956 -0.8344 -0.1416
10385SOL    HW234687   2.600   2.950   6.847 -0.9734  0.8328 -0.7925
10386SOL     OW34688   8.022   7.482   8.640 -0.1379  0.0799 -0.3851
10386SOL    HW134689   7.985   7.463   8.726  0.0287 -0.3685 -0.4103
10386SOL    HW234690   8.117   7.471   8.652 -0.1155 -0.0010 -0.6271
10387SOL     OW34691   0.415   9.902   8.993 -0.1571  0.0423  0.3409
10387SOL    HW134692   0.361   9.869   9.064 -0.6221 -2.3240 -1.0254
10387SOL    HW234693   0.504   9.898   9.027 -0.3527 -1.2434  0.7443
10388SOL     OW34694   1.690  10.659   5.528 -0.2129 -0.4538 -0.2157
10388SOL    HW134695   1.754  10.671   5.599  1.9344 -1.2111 -1.9011
10388SOL    HW234696   1.679  10.564   5.522 -1.9174 -0.3289  0.3203
10389SOL     OW34697   5.726   6.434   9.995 -0.0939 -0.0255 -0.0037
10389SOL    HW134698   5.715   6.361   9.934  0.6558  0.8602 -1.2536
10389SOL    HW234699   5.734   6.511   9.939 -0.2005  0.9357  1.2608
10390SOL     OW34700   3.609   6.652   0.457 -0.0943 -0.0194 -0.1742
10390SOL    HW134701   3.633   6.715   0.389 -0.6195 -1.0991 -1.3966
10390SOL    HW234702   3.576   6.705   0.529 -0.1408  1.1232 -1.0175
10391SOL     OW34703   8.633   0.372   7.142  0.3574  0.6706  0.1887
10391SOL    HW134704   8.544   0.352   7.169  0.0502  0.9021 -0.6468
10391SOL    HW234705   8.666   0.290   7.105  0.7220  0.4039  1.0560
10392SOL     OW34706   7.099   7.192   4.341  0.3528 -0.2620 -0.5866
10392SOL    HW134707   7.101   7.104   4.304 -1.7224  0.3549 -2.3406
10392SOL    HW234708   7.142   7.247   4.276  0.4841  0.2225 -0.1015
10393SOL     OW34709   8.491   7.260  10.685 -0.4895 -0.1616 -0.0191
10393SOL    HW134710   8.476   7.353  10.666  0.3297  0.2844  1.3757
10393SOL    HW234711   8.421   7.237  10.746  0.0906 -0.0894  0.6794
10394SOL     OW34712   3.557   8.159   5.037 -0.3659  0.0965 -0.2527
10394SOL    HW134713   3.525   8.239   5.080 -0.7579  0.4395 -1.1450
10394SOL    HW234714   3.595   8.190   4.955  0.8333 -0.4870  0.0542
10395SOL     OW34715   9.399   7.503  10.211  0.0435  0.1046 -0.1812
10395SOL    HW134716   9.381   7.478  10.301  1.5210 -1.9722 -0.3805
10395SOL    HW234717   9.481   7.459  10.190  0.3329  1.4642 -2.1969
10396SOL     OW34718   2.775   1.916  11.024 -0.4517  0.0988 -0.0962
10396SOL    HW134719   2.770   1.917  10.928  0.0628 -0.3108 -0.1357
10396SOL    HW234720   2.684   1.912  11.053 -0.5890 -0.5493 -0.5929
10397SOL     OW34721   2.283  10.382   0.785 -0.5458 -0.7100 -0.4951
10397SOL    HW134722   2.361  10.333   0.758 -0.4989 -1.4385  0.8881
10397SOL    HW234723   2.261  10.347   0.871 -0.8982  1.2472  0.2805
10398SOL     OW34724   3.276   2.929   3.520  0.0994  0.1124  0.7366
10398SOL    HW134725   3.261   2.958   3.610  0.4131 -2.8099  1.8382
10398SOL    HW234726   3.357   2.879   3.525  0.5896  0.6173 -1.3969
10399SOL     OW34727   8.295   6.069   7.137  0.7846  0.2696 -0.0901
10399SOL    HW134728   8.291   5.974   7.123 -1.8875  0.4244 -0.9324
10399SOL    HW234729   8.252   6.106   7.061  0.5949  2.0935  0.8586
10400SOL     OW34730   4.378   9.145   5.950 -0.1311  0.3614  0.3669
10400SOL    HW134731   4.415   9.108   6.030 -1.2770 -0.5731  0.4980
10400SOL    HW234732   4.342   9.229   5.977  0.5548  0.5941  0.5632
10401SOL     OW34733  10.092   1.542   2.603 -0.8763 -0.4578 -0.1332
10401SOL    HW134734  10.051   1.478   2.662  0.0041 -0.7823  0.1452
10401SOL    HW234735  10.113   1.492   2.524 -0.5377 -0.4246 -0.0660
10402SOL     OW34736   8.935   5.733   8.352  0.0258  0.0542  0.1410
10402SOL    HW134737   8.987   5.779   8.286  1.5396 -1.5299  0.1503
10402SOL    HW234738   8.985   5.743   8.433 -1.1357  0.8470  0.7784
10403SOL     OW34739   2.388   4.078   7.022  0.6503 -0.2255 -0.4479
10403SOL    HW134740   2.369   3.984   7.020  1.9234 -0.5071 -0.4264
10403SOL    HW234741   2.482   4.083   7.002  0.5052  1.0735 -0.8627
10404SOL     OW34742   3.056   6.874   8.816  0.3714 -0.2692 -0.6062
10404SOL    HW134743   3.139   6.913   8.844  0.0147  0.0060  0.1063
10404SOL    HW234744   3.044   6.904   8.726  0.3504  0.8682 -0.2376
10405SOL     OW34745   6.729   9.765  10.495 -1.4592  0.0033  0.6863
10405SOL    HW134746   6.635   9.746  10.495 -1.3270 -0.6572  1.0637
10405SOL    HW234747   6.734   9.858  10.519 -2.0645  0.3413 -0.3962
10406SOL     OW34748   3.573   3.185   1.344 -0.4070 -0.3616 -0.2685
10406SOL    HW134749   3.536   3.097   1.343  1.0368 -1.0037 -2.0951
10406SOL    HW234750   3.554   3.222   1.258 -1.4779  1.3699  0.6522
10407SOL     OW34751   5.370   6.555   3.328  0.1525  0.8122 -0.2021
10407SOL    HW134752   5.441   6.502   3.364 -1.0739  0.6016  2.1309
10407SOL    HW234753   5.398   6.646   3.341  0.0816  0.7289  0.6050
10408SOL     OW34754  10.441   9.666   2.442  0.1496  0.4305 -0.3120
10408SOL    HW134755  10.477   9.592   2.393  0.1152 -0.1493  0.5094
10408SOL    HW234756  10.346   9.651   2.441  0.1624  0.3130  0.0805
10409SOL     OW34757   4.290   9.482  10.716 -0.2672  0.3450 -0.1953
10409SOL    HW134758   4.242   9.551  10.763 -0.1236 -0.3178  0.9439
10409SOL    HW234759   4.374   9.522  10.695  0.5148  0.0036  2.0202
10410SOL     OW34760   1.656   2.547   1.263 -0.0164  0.1220 -0.0050
10410SOL    HW134761   1.689   2.510   1.181  1.6803  0.9128  0.2827
10410SOL    HW234762   1.609   2.626   1.237  0.7090  0.4940 -0.2154
10411SOL     OW34763   8.508   2.469   6.564 -0.3674  0.2792  0.1133
10411SOL    HW134764   8.544   2.550   6.527  2.0674  0.0570  1.7309
10411SOL    HW234765   8.550   2.399   6.514  1.2607  0.0140  1.7625
10412SOL     OW34766   8.871   4.118   2.323 -0.0161  0.1533  0.2019
10412SOL    HW134767   8.923   4.144   2.399  0.5034 -1.6063  0.4879
10412SOL    HW234768   8.935   4.085   2.260 -0.4830  1.1921 -0.8608
10413SOL     OW34769   1.122  10.501   0.129  0.0694 -0.1926  0.1410
10413SOL    HW134770   1.129  10.587   0.169 -0.0265 -0.1432  0.0508
10413SOL    HW234771   1.069  10.515   0.050  1.9035  0.0753 -1.1036
10414SOL     OW34772   2.528   7.348   2.356  0.2602  0.0299 -0.5225
10414SOL    HW134773   2.438   7.346   2.324  0.0315 -0.7561  0.1210
10414SOL    HW234774   2.520   7.371   2.449  0.6313 -1.0848 -0.1987
10415SOL     OW34775   9.887   3.967   3.792  0.0844 -0.1840  0.8320
10415SOL    HW134776   9.821   4.018   3.839 -0.0552  0.5693 -0.1428
10415SOL    HW234777   9.845   3.943   3.709  1.2918  1.0905 -0.2072
10416SOL     OW34778   1.523  10.971   0.911 -0.2115  0.3654 -0.6515
10416SOL    HW134779   1.609  10.965   0.870 -0.5531  0.9620 -1.4807
10416SOL    HW234780   1.464  10.995   0.840 -1.0053  0.3291 -0.0189
10417SOL     OW34781   2.642   9.851   5.799 -0.4783  0.2458  0.2545
10417SOL    HW134782   2.710   9.792   5.833 -0.3402  1.1229  1.6135
10417SOL    HW234783   2.564   9.796   5.792  0.1118 -0.5356 -0.3399
10418SOL     OW34784  10.836   8.250   0.753  0.2330  0.3045 -0.4841
10418SOL    HW134785  10.791   8.241   0.669  0.3560  0.5473 -0.5787
10418SOL    HW234786  10.782   8.201   0.815 -0.6536  1.3226 -0.4210
10419SOL     OW34787   5.865   5.057   1.641 -0.3203 -0.5928  0.4168
10419SOL    HW134788   5.905   5.108   1.712 -0.0587 -0.0968 -0.0825
10419SOL    HW234789   5.882   5.108   1.562  2.3344 -2.7522 -0.5314
10420SOL     OW34790   6.501   3.446   5.366 -0.4608  0.1398  0.4752
10420SOL    HW134791   6.485   3.352   5.362  0.9521 -0.0963 -0.3414
10420SOL    HW234792   6.429   3.485   5.316 -0.2423 -0.6429 -0.4898
10421SOL     OW34793   2.563  10.951   7.868 -0.8542  0.4674  0.2245
10421SOL    HW134794   2.630  10.981   7.807 -0.9713  2.7855  1.1345
10421SOL    HW234795   2.480  10.967   7.822 -0.8613 -1.6997 -0.6044
10422SOL     OW34796   0.464   1.540  11.052 -0.0020  0.4533  0.1638
10422SOL    HW134797   0.526   1.489  11.000 -0.2511 -1.4437  1.5903
10422SOL    HW234798   0.380   1.497  11.036 -0.3381  0.8202  0.9140
10423SOL     OW34799   8.332   6.639  10.678 -0.0543  0.3948 -0.1570
10423SOL    HW134800   8.307   6.556  10.637  0.1398  0.4895 -0.4694
10423SOL    HW234801   8.258   6.697  10.661 -0.8054 -0.1091  1.2597
10424SOL     OW34802   3.571   6.398   6.260 -0.2918 -0.3916 -0.3064
10424SOL    HW134803   3.603   6.353   6.181  0.7806  0.8532 -0.6188
10424SOL    HW234804   3.522   6.473   6.226 -1.4331 -0.8837  0.2131
10425SOL     OW34805   5.000   1.668   3.371 -0.1752  0.0803  0.5451
10425SOL    HW134806   4.946   1.740   3.339  0.2384  0.6449  1.0870
10425SOL    HW234807   5.057   1.708   3.438 -1.1573 -1.0694  2.1500
10426SOL     OW34808   3.030   4.781  11.049  0.6562 -0.1601 -0.0016
10426SOL    HW134809   3.083   4.860  11.034  0.2578 -0.0834 -1.0726
10426SOL    HW234810   2.997   4.758  10.963  0.1343 -1.0599  0.4324
10427SOL     OW34811   1.769   4.703   7.774  0.2756  0.0356  0.0022
10427SOL    HW134812   1.826   4.628   7.791 -0.7140 -0.4924  1.1180
10427SOL    HW234813   1.739   4.691   7.684 -1.4800 -2.0738  0.7784
10428SOL     OW34814  10.918   1.378   3.413  0.0116 -0.5419  0.5657
10428SOL    HW134815  10.838   1.335   3.384 -1.4040  1.6316  1.0455
10428SOL    HW234816  10.944   1.329   3.491  0.4840 -2.6627 -0.8357
10429SOL     OW34817   7.607   5.311   9.212  0.5028  0.0761  0.3816
10429SOL    HW134818   7.665   5.269   9.277  1.2169  0.4653  0.0112
10429SOL    HW234819   7.584   5.241   9.152 -0.5601 -0.4051  1.3042
10430SOL     OW34820   7.126   5.044   3.422  0.2269 -0.7508  0.1302
10430SOL    HW134821   7.199   5.001   3.377  0.4390 -0.1421 -0.1082
10430SOL    HW234822   7.050   5.027   3.366  0.6200  0.6325 -0.8736
10431SOL     OW34823   2.188   3.519   8.660 -0.0470 -0.1160  0.0579
10431SOL    HW134824   2.174   3.604   8.617  2.2809  1.5347  2.2853
10431SOL    HW234825   2.233   3.466   8.594  0.2416  1.0821 -0.7488
10432SOL     OW34826   9.967   1.295   1.532  0.3807  0.1650  0.6584
10432SOL    HW134827   9.927   1.256   1.455  0.7388  0.4481  0.3225
10432SOL    HW234828   9.895   1.344   1.574  0.0602 -0.4137  0.7979
10433SOL     OW34829   7.693  11.017   2.181  0.1505  0.1972  0.3733
10433SOL    HW134830   7.789  11.013   2.186  0.1090 -0.1636  1.0226
10433SOL    HW234831   7.671  11.106   2.206  0.3327  0.3899 -0.1374
10434SOL     OW34832   4.983   7.990   8.479  0.1642 -0.0334 -0.1557
10434SOL    HW134833   5.066   8.012   8.522  0.9334 -1.1007 -1.0634
10434SOL    HW234834   4.991   7.898   8.457 -0.6789  0.2065 -1.5491
10435SOL     OW34835   9.427   2.911   5.312 -0.7314  0.4349  0.3369
10435SOL    HW134836   9.393   2.840   5.257 -1.3669  0.4931  0.6498
10435SOL    HW234837   9.349   2.960   5.338 -0.1735  2.5597 -1.6361
10436SOL     OW34838   6.452   1.857   5.410  0.0463  0.3030  0.0534
10436SOL    HW134839   6.408   1.774   5.429  0.5324 -0.3290 -1.4293
10436SOL    HW234840   6.383   1.923   5.416 -0.2422 -0.1047  1.7884
10437SOL     OW34841   2.566   0.639   0.260  0.4388  0.1528  0.4076
10437SOL    HW134842   2.597   0.727   0.281  3.6461 -0.9092  0.7650
10437SOL    HW234843   2.522   0.609   0.339  2.8195  0.1120  1.8219
10438SOL     OW34844   2.763   3.513  10.763  0.3663 -0.2006 -0.0072
10438SOL    HW134845   2.834   3.560  10.719  0.0731  0.9031  0.6763
10438SOL    HW234846   2.754   3.556  10.848  0.8907 -2.2563  1.1568
10439SOL     OW34847   1.806   7.272   5.884 -0.8812  0.1503  0.1080
10439SOL    HW134848   1.730   7.269   5.943  0.7175 -2.5140  2.2606
10439SOL    HW234849   1.791   7.199   5.823 -0.8740  0.7585 -0.6347
10440SOL     OW34850   1.796   8.475   6.717  0.0121 -0.0585 -0.2087
10440SOL    HW134851   1.730   8.407   6.709 -1.8577  1.5819  0.5357
10440SOL    HW234852   1.747   8.557   6.723  2.0439  1.1493  1.5518
10441SOL     OW34853   2.879   0.487   1.260  0.4618 -0.0660  0.2835
10441SOL    HW134854   2.943   0.541   1.214  0.9550 -0.5222  0.4206
10441SOL    HW234855   2.820   0.456   1.191  1.6969 -1.4419 -0.2166
10442SOL     OW34856   1.152  11.046  10.716  0.2311  0.8078  0.0182
10442SOL    HW134857   1.127  10.978  10.778  1.8984 -0.1232 -0.2707
10442SOL    HW234858   1.206  11.001  10.651  1.2336  2.3635 -0.2923
10443SOL     OW34859   7.787  11.022   7.175 -0.4054 -0.1526 -0.3185
10443SOL    HW134860   7.792  11.084   7.248 -0.7005  0.0642 -0.4806
10443SOL    HW234861   7.878  11.002   7.155 -0.3135  0.0533 -0.1158
10444SOL     OW34862  10.130   8.824   6.404  0.1625  0.4673  0.2108
10444SOL    HW134863  10.184   8.762   6.355 -0.1679  0.2661  0.0941
10444SOL    HW234864  10.065   8.853   6.341  0.4957  1.1627  0.1829
10445SOL     OW34865   0.540  10.731   0.646  0.3708 -1.0095  0.3312
10445SOL    HW134866   0.544  10.768   0.734  1.2365 -0.9177  0.2620
10445SOL    HW234867   0.631  10.714   0.623  0.1304 -1.3111 -0.4317
10446SOL     OW34868   3.315   7.696  10.033 -0.4049  0.3618  0.4080
10446SOL    HW134869   3.246   7.653   9.982  1.9180 -3.5461  0.1443
10446SOL    HW234870   3.273   7.718  10.116 -2.9014  1.9603 -1.1557
10447SOL     OW34871   9.445   5.852   5.322 -0.3425  0.6549 -0.0729
10447SOL    HW134872   9.455   5.792   5.249 -1.3342 -0.6628  0.8215
10447SOL    HW234873   9.366   5.903   5.302 -0.9012 -0.0486  0.2736
10448SOL     OW34874   5.559   4.907  10.913  0.3730 -0.6536  0.0811
10448SOL    HW134875   5.654   4.909  10.899  0.5407 -0.5432  1.1490
10448SOL    HW234876   5.537   4.814  10.914  0.4431 -0.6763 -0.3033
10449SOL     OW34877   8.494   0.053   8.133  0.5880 -0.5889 -0.5010
10449SOL    HW134878   8.543   0.135   8.134  0.3167 -0.4264  0.2001
10449SOL    HW234879   8.554  -0.011   8.171  0.3651 -0.4463  0.1071
10450SOL     OW34880   4.115  10.691   6.128 -0.3644  0.2707  0.0655
10450SOL    HW134881   4.097  10.776   6.170 -0.8542  1.1372 -1.7742
10450SOL    HW234882   4.209  10.680   6.136 -0.3458  0.8033  0.6689
10451SOL     OW34883   4.148   7.470   0.144  0.3411  0.4967 -0.3737
10451SOL    HW134884   4.134   7.473   0.239 -0.4697  4.1829 -0.4820
10451SOL    HW234885   4.239   7.442   0.134  0.6690  0.7607  1.5243
10452SOL     OW34886   9.643   0.344   3.130 -0.0837 -0.0631  0.0307
10452SOL    HW134887   9.551   0.320   3.120 -0.6673  1.4639  1.2663
10452SOL    HW234888   9.683   0.269   3.172 -0.8453 -0.6046 -0.1925
10453SOL     OW34889   7.304   2.222   1.077 -0.0481 -0.0269  0.2971
10453SOL    HW134890   7.334   2.192   1.163  2.8546  1.5665 -0.0143
10453SOL    HW234891   7.364   2.294   1.056 -0.6541 -0.3925 -3.0880
10454SOL     OW34892   3.913   9.844   7.047 -0.4775  0.3321  0.8192
10454SOL    HW134893   3.851   9.917   7.046  0.4797  1.1813  1.3796
10454SOL    HW234894   3.999   9.885   7.055  0.1540 -0.8324  0.3505
10455SOL     OW34895  10.066   4.036   6.750  0.0434 -0.3558  1.2397
10455SOL    HW134896  10.074   4.081   6.835  0.3906  0.6630  0.6884
10455SOL    HW234897  10.147   4.057   6.705 -1.2975  1.6203 -0.4851
10456SOL     OW34898   3.376   5.742   8.086  0.2436 -0.7449 -0.2957
10456SOL    HW134899   3.432   5.752   8.164  1.0708 -1.6652 -0.7373
10456SOL    HW234900   3.307   5.807   8.097  1.8001  0.9337 -0.0707
10457SOL     OW34901   1.149   2.753   3.235 -0.0954 -0.6489 -0.4983
10457SOL    HW134902   1.091   2.777   3.163  1.4968  0.0113 -1.6173
10457SOL    HW234903   1.173   2.838   3.274 -1.1667 -1.0061  1.0482
10458SOL     OW34904   5.185   4.895   9.087 -0.6226 -0.6839 -0.3130
10458SOL    HW134905   5.120   4.950   9.043  1.3904  0.7261 -1.7026
10458SOL    HW234906   5.175   4.809   9.047 -1.3310 -0.3743 -0.8120
10459SOL     OW34907   8.669  10.035  11.071  0.4373 -0.6485  0.5446
10459SOL    HW134908   8.752  10.010  11.030  1.1390 -0.2443  1.6711
10459SOL    HW234909   8.633   9.952  11.104  1.3036 -0.6079  1.6565
10460SOL     OW34910   9.977   9.327   3.565  0.2350  0.9081  0.0240
10460SOL    HW134911   9.884   9.338   3.586  0.0989  1.5194 -0.8186
10460SOL    HW234912   9.999   9.405   3.513  0.3911 -0.7066 -2.5551
10461SOL     OW34913   2.317  10.167   0.968  0.1612 -0.1852 -0.0767
10461SOL    HW134914   2.249  10.120   1.017  1.2449 -1.3320  0.3588
10461SOL    HW234915   2.355  10.101   0.910 -0.5005  0.9415 -1.8807
10462SOL     OW34916   1.168   0.441   0.126  0.0968 -0.0502 -0.8814
10462SOL    HW134917   1.143   0.349   0.134  2.0089 -0.9089 -3.3308
10462SOL    HW234918   1.092   0.482   0.084 -0.4125 -0.6926 -0.6190
10463SOL     OW34919   4.483   6.694   8.251  0.1410 -0.8208  0.1126
10463SOL    HW134920   4.433   6.637   8.309 -1.7263  1.8043  1.2706
10463SOL    HW234921   4.572   6.693   8.289 -0.6432 -0.4433  2.0896
10464SOL     OW34922   8.718   6.911   2.365  0.4201 -0.5353 -0.5118
10464SOL    HW134923   8.630   6.899   2.330  0.8576 -2.4982 -1.0383
10464SOL    HW234924   8.775   6.861   2.307  1.8052  0.1526  0.2006
10465SOL     OW34925   3.640   4.986   5.686  0.5706 -0.0314 -0.3048
10465SOL    HW134926   3.552   4.973   5.722  1.2611  0.5914  1.7975
10465SOL    HW234927   3.691   4.912   5.719  1.6142  1.3945  1.5135
10466SOL     OW34928  10.848  10.227   6.286 -0.6746  0.1851  0.0141
10466SOL    HW134929  10.778  10.221   6.221 -1.6084  0.1210  0.9929
10466SOL    HW234930  10.813  10.180   6.362  0.2991  0.4625  0.6452
10467SOL     OW34931   8.990   2.850   8.733 -0.0636  0.2141  0.0599
10467SOL    HW134932   8.916   2.892   8.690 -0.7884  0.9341  1.9179
10467SOL    HW234933   8.951   2.795   8.800  0.9973 -1.6698 -0.7870
10468SOL     OW34934   5.884   3.914   3.155  0.0556  0.3497 -0.5685
10468SOL    HW134935   5.898   3.819   3.156  0.1739  0.3676 -0.4763
10468SOL    HW234936   5.973   3.950   3.150 -0.0188  0.4345 -1.7280
10469SOL     OW34937   7.945   9.277   2.517 -0.4311  0.4556 -0.6022
10469SOL    HW134938   7.923   9.359   2.472  0.6573  0.7000 -0.6955
10469SOL    HW234939   7.936   9.210   2.449 -2.0982  0.3647 -0.3370
10470SOL     OW34940   6.759   2.833   6.945  0.2117  0.4119 -0.6097
10470SOL    HW134941   6.714   2.891   6.884  0.2306  1.4082  0.2831
10470SOL    HW234942   6.722   2.856   7.031  1.2462  0.1211 -0.0645
10471SOL     OW34943   0.432   5.383   8.567  0.1616  0.2095  0.5919
10471SOL    HW134944   0.408   5.293   8.544 -0.5986  0.4295  0.5112
10471SOL    HW234945   0.363   5.412   8.626  1.1597  0.2641  1.7636
10472SOL     OW34946   6.494   4.080   3.315 -0.1656 -0.4438 -0.0317
10472SOL    HW134947   6.443   4.161   3.309 -1.6043 -1.3673 -0.5815
10472SOL    HW234948   6.577   4.108   3.354 -1.3013  1.0044  1.5141
10473SOL     OW34949   0.018   5.893  10.897  0.0313 -0.0169  0.1508
10473SOL    HW134950   0.093   5.948  10.876 -0.2416  0.7522  1.1519
10473SOL    HW234951  -0.051   5.922  10.837  0.5398 -0.7778 -0.8235
10474SOL     OW34952  10.573   6.220  10.489 -0.9340 -0.3801 -0.0416
10474SOL    HW134953  10.634   6.208  10.562 -0.4432  0.9174 -0.2160
10474SOL    HW234954  10.494   6.255  10.529 -0.0099  2.1828 -0.2990
10475SOL     OW34955   3.235  10.133   5.014 -0.3794 -0.3999 -0.6612
10475SOL    HW134956   3.274  10.048   5.035  0.2746  0.0341 -0.0642
10475SOL    HW234957   3.265  10.152   4.925  0.1339 -0.4343 -0.4982
10476SOL     OW34958   0.359   9.306   4.804  0.6610 -0.4805 -0.2531
10476SOL    HW134959   0.447   9.327   4.774  1.0633 -0.0759  1.1602
10476SOL    HW234960   0.369   9.221   4.848  0.1899 -0.7939 -0.7352
10477SOL     OW34961   4.152   6.155   7.373 -0.0265  0.3142 -0.0192
10477SOL    HW134962   4.168   6.214   7.300  1.3831  0.2148  0.1721
10477SOL    HW234963   4.161   6.210   7.451  1.4913 -0.1359  0.1671
10478SOL     OW34964   0.102   5.733   3.710 -0.1357 -0.2198  0.0859
10478SOL    HW134965   0.198   5.731   3.711 -0.1367 -1.6294  0.8613
10478SOL    HW234966   0.079   5.802   3.648  1.3763  1.1974  1.0076
10479SOL     OW34967   1.941   5.143   7.196  0.0937 -0.8169  0.1879
10479SOL    HW134968   1.874   5.186   7.144  1.5342  2.0122  0.4703
10479SOL    HW234969   1.986   5.085   7.134  0.4245  0.9017 -1.2669
10480SOL     OW34970   0.031   6.109   8.757  0.2531 -0.1377  0.3970
10480SOL    HW134971   0.100   6.071   8.811  0.0397  0.5891  1.2086
10480SOL    HW234972   0.046   6.072   8.670  1.9062  0.2840  0.4625
10481SOL     OW34973   1.682   8.058  10.737  0.2976  0.1517  0.3511
10481SOL    HW134974   1.673   8.111  10.658  1.4148 -0.3679 -0.1576
10481SOL    HW234975   1.694   8.122  10.807  1.4900  0.6011 -0.2338
10482SOL     OW34976   9.856   8.055   7.628 -0.1576  0.2166 -0.1318
10482SOL    HW134977   9.929   8.093   7.580  0.5646  0.9429  1.4716
10482SOL    HW234978   9.800   8.130   7.649 -0.1955 -0.0032  0.5848
10483SOL     OW34979   0.005   0.541   6.834  0.0420 -0.0880  0.2646
10483SOL    HW134980  -0.047   0.528   6.914 -1.1507 -1.9515 -0.7303
10483SOL    HW234981  -0.045   0.605   6.784  0.5386  0.7183  0.7809
10484SOL     OW34982   4.352   4.717   2.062  0.2524  0.0949  0.0018
10484SOL    HW134983   4.424   4.659   2.085 -0.1719 -0.0916  0.9173
10484SOL    HW234984   4.310   4.675   1.986  0.1293 -0.6538  0.4716
10485SOL     OW34985  10.416   1.833   0.712 -0.1483 -0.2721  0.7024
10485SOL    HW134986  10.395   1.814   0.621  2.1734 -0.0629  0.0615
10485SOL    HW234987  10.338   1.878   0.745 -1.2920 -0.9207 -0.9695
10486SOL     OW34988   1.113   4.609   2.358 -0.1575  0.8159 -0.0290
10486SOL    HW134989   1.167   4.589   2.434 -0.7022  1.0666  0.4279
10486SOL    HW234990   1.174   4.647   2.295  0.6066 -0.8123 -0.3287
10487SOL     OW34991   1.033   7.078   0.582 -0.2326 -0.6204 -0.2997
10487SOL    HW134992   1.082   7.116   0.509 -0.7143 -0.9675 -0.8072
10487SOL    HW234993   0.968   7.145   0.605 -0.2244 -0.6021 -0.3311
10488SOL     OW34994   7.705   8.656   5.093  0.1728  0.2183  0.5531
10488SOL    HW134995   7.705   8.619   5.005  3.9276  1.0057  0.0720
10488SOL    HW234996   7.672   8.585   5.148 -0.0802 -1.0833 -1.1881
10489SOL     OW34997   9.880   3.881   0.245 -0.0651  0.9713  0.4592
10489SOL    HW134998   9.908   3.972   0.235  1.2089  0.3698 -2.2315
10489SOL    HW234999   9.955   3.837   0.284  0.1003  0.7012 -0.1556
10490SOL     OW35000   6.689   8.569   8.648 -0.1656  0.3378  0.2137
10490SOL    HW135001   6.770   8.520   8.638  0.1934  1.0983 -0.7646
10490SOL    HW235002   6.623   8.503   8.671  0.2010 -0.7044 -1.5316
10491SOL     OW35003   0.193   6.763   2.912  0.7407  0.6458 -0.1836
10491SOL    HW135004   0.133   6.763   2.987 -1.2638  0.0564 -1.7049
10491SOL    HW235005   0.252   6.690   2.929 -0.9886 -0.8050 -0.1201
10492SOL     OW35006  10.993   9.009   7.434  0.1163  0.2678 -0.0359
10492SOL    HW135007  11.034   8.923   7.442 -0.4800 -0.0144  0.0771
10492SOL    HW235008  10.976   9.035   7.525 -0.8479 -0.0673 -0.1088
10493SOL     OW35009   3.815   8.554   1.066  0.8414 -0.1296  0.0010
10493SOL    HW135010   3.767   8.584   1.144 -0.3306 -0.4432 -0.5777
10493SOL    HW235011   3.892   8.610   1.063 -1.0728  2.6695 -0.8486
10494SOL     OW35012  10.559   4.517   7.942 -0.8544 -0.3556 -0.2340
10494SOL    HW135013  10.514   4.549   8.020 -0.2023  2.9282 -1.0856
10494SOL    HW235014  10.635   4.470   7.976 -2.5401 -2.3241  1.1062
10495SOL     OW35015   2.447   5.463   9.669  0.0086  0.1442  0.0050
10495SOL    HW135016   2.490   5.377   9.667  0.2459  0.2597  0.0320
10495SOL    HW235017   2.356   5.445   9.646  0.2996  0.0285 -1.1636
10496SOL     OW35018   0.911   8.625   5.378  0.6658 -0.1395  0.0475
10496SOL    HW135019   0.911   8.532   5.402  0.3608 -0.4960 -1.2438
10496SOL    HW235020   0.911   8.625   5.282  2.5033  1.1985 -0.0121
10497SOL     OW35021   0.343   3.053   6.877  0.5786  0.3592  0.1754
10497SOL    HW135022   0.299   3.026   6.958  0.1081  0.4435 -0.0494
10497SOL    HW235023   0.424   3.095   6.907  0.5396  0.1488  0.5896
10498SOL     OW35024   5.140   1.853   0.438 -0.6209 -0.0279  0.6315
10498SOL    HW135025   5.085   1.776   0.421  0.2689 -0.1548 -2.1522
10498SOL    HW235026   5.228   1.827   0.411  0.1266  1.2988  1.6506
10499SOL     OW35027   0.231   3.292   4.998 -0.0941  0.8079  0.0887
10499SOL    HW135028   0.233   3.207   4.953 -3.5369  0.5463  0.1140
10499SOL    HW235029   0.241   3.356   4.928 -0.1176  0.3948 -0.3021
10500SOL     OW35030   1.140   0.798   7.100 -0.4453 -0.3279 -0.3918
10500SOL    HW135031   1.079   0.851   7.050  2.6331  1.5586 -2.4885
10500SOL    HW235032   1.172   0.732   7.039  3.1166  1.7945 -1.1055
10501SOL     OW35033   1.870   4.406   8.789  0.2624  0.1036  0.0206
10501SOL    HW135034   1.833   4.397   8.702  2.4341  0.3282 -0.9858
10501SOL    HW235035   1.816   4.473   8.832 -0.4514  0.4418 -1.3647
10502SOL     OW35036   7.592   7.988   5.909 -0.2825  0.0738  0.0243
10502SOL    HW135037   7.675   7.960   5.947  0.7901  0.8044 -1.6905
10502SOL    HW235038   7.593   7.955   5.820 -1.8528  0.0872 -0.0256
10503SOL     OW35039   2.226  10.005   2.133  0.4851 -0.1356 -0.1455
10503SOL    HW135040   2.263  10.092   2.145  2.7159 -0.9422 -0.5620
10503SOL    HW235041   2.131  10.018   2.133  0.6733  1.9328  2.1995
10504SOL     OW35042   7.492   8.413   6.394 -0.0656 -0.3511  0.3422
10504SOL    HW135043   7.536   8.445   6.315  2.8435 -1.5594  1.3327
10504SOL    HW235044   7.458   8.327   6.369 -2.1973  0.6652 -0.4824
10505SOL     OW35045   2.169  11.046   2.254  0.2358  0.4030 -0.1108
10505SOL    HW135046   2.243  11.049   2.193 -0.2357  0.1542 -0.7079
10505SOL    HW235047   2.093  11.067   2.200 -0.3095 -0.6959  0.1887
10506SOL     OW35048   5.243   3.362   0.902 -0.1811  0.0503  0.2981
10506SOL    HW135049   5.309   3.375   0.970 -0.7713  1.6375  0.6157
10506SOL    HW235050   5.163   3.399   0.939 -0.9114 -0.5602 -0.6305
10507SOL     OW35051  10.405   0.339   8.983 -0.0959  0.5303 -0.1372
10507SOL    HW135052  10.458   0.260   8.998 -1.6578 -0.2603  1.5688
10507SOL    HW235053  10.411   0.354   8.889 -1.4150 -2.8920 -0.9090
10508SOL     OW35054   6.279   2.208   8.592  0.4325  0.1754  0.0904
10508SOL    HW135055   6.239   2.290   8.563  0.7621  0.4954  0.5276
10508SOL    HW235056   6.204   2.154   8.619  0.3185  1.2210  2.0558
10509SOL     OW35057   0.847   2.191   6.455 -0.5364  0.1684 -0.1052
10509SOL    HW135058   0.788   2.257   6.417 -1.3640 -1.0766 -1.0743
10509SOL    HW235059   0.790   2.116   6.474 -0.2494  0.7554  3.9331
10510SOL     OW35060  10.393   6.262   3.571 -0.5979  0.1307  0.0954
10510SOL    HW135061  10.465   6.201   3.558 -0.6350  0.2386 -0.6452
10510SOL    HW235062  10.432   6.337   3.616 -0.4569 -0.2353  0.5835
10511SOL     OW35063   2.244   3.034   8.499  0.1584 -0.5312  0.3471
10511SOL    HW135064   2.158   3.067   8.474 -0.0815 -0.9714  0.5769
10511SOL    HW235065   2.259   2.961   8.439 -0.1928 -1.2649  1.1376
10512SOL     OW35066  10.827   7.657   5.474 -0.2022  0.1486 -0.0086
10512SOL    HW135067  10.800   7.572   5.439 -1.2580 -0.3516  1.8537
10512SOL    HW235068  10.919   7.664   5.450 -0.0672 -1.5663 -0.1551
10513SOL     OW35069   6.696   0.434   8.349 -0.0068 -0.0819 -0.5104
10513SOL    HW135070   6.722   0.342   8.359  1.6959  0.2539 -1.3636
10513SOL    HW235071   6.689   0.446   8.254 -1.8348  0.2862 -0.3640
10514SOL     OW35072   5.367   6.490   5.200 -0.8911  0.5828 -0.5609
10514SOL    HW135073   5.278   6.524   5.196  0.3384  4.4430  0.3885
10514SOL    HW235074   5.401   6.498   5.111 -1.5662 -1.3928 -1.0404
10515SOL     OW35075   2.950   5.525   7.863 -0.0304 -0.1003  0.0143
10515SOL    HW135076   2.887   5.501   7.795 -0.3887  0.9226 -0.0349
10515SOL    HW235077   2.997   5.444   7.882 -1.7785 -1.0555  0.4978
10516SOL     OW35078   6.225   8.635   3.876 -0.2497  0.6890  0.6154
10516SOL    HW135079   6.309   8.678   3.894  0.6636  0.1783 -2.0223
10516SOL    HW235080   6.163   8.707   3.864  0.4357  1.1782 -0.0763
10517SOL     OW35081   5.724   5.558   1.268  0.4386  0.1908 -0.0033
10517SOL    HW135082   5.665   5.502   1.319  0.7553  0.6006  0.8316
10517SOL    HW235083   5.667   5.600   1.203  0.2648 -1.3903 -0.9060
10518SOL     OW35084   5.402   3.931   0.761  0.0947  0.4372 -0.6758
10518SOL    HW135085   5.424   3.842   0.790  2.3867  0.6249 -1.6337
10518SOL    HW235086   5.428   3.933   0.669 -1.5565  1.6004 -1.1550
10519SOL     OW35087   2.473   0.795   7.421  0.5970  0.2549 -0.1093
10519SOL    HW135088   2.465   0.707   7.382 -0.6103  0.0749  0.4912
10519SOL    HW235089   2.504   0.778   7.510  1.7993  0.5556 -0.4580
10520SOL     OW35090   7.013   4.204   1.649  0.7411  0.4025 -0.2659
10520SOL    HW135091   7.074   4.189   1.721  2.5706  1.3077 -1.5445
10520SOL    HW235092   6.992   4.297   1.653  0.7203  0.4280 -0.7914
10521SOL     OW35093   2.962   2.194   5.287  0.1967 -0.3502 -0.4900
10521SOL    HW135094   2.883   2.144   5.268  0.2364 -1.9566  2.8876
10521SOL    HW235095   3.034   2.139   5.255  0.0874 -0.4987 -0.4798
10522SOL     OW35096   9.388   9.842   3.345 -0.1719  0.9560  0.1166
10522SOL    HW135097   9.483   9.849   3.343  0.0504 -1.3013 -1.5549
10522SOL    HW235098   9.371   9.762   3.395 -1.1899  1.2178  0.2179
10523SOL     OW35099   1.504   0.986   8.610 -0.0263 -0.0305  0.2494
10523SOL    HW135100   1.435   0.947   8.556 -0.4115 -0.0530  0.7557
10523SOL    HW235101   1.549   0.911   8.649  1.4253 -0.1104 -1.4375
10524SOL     OW35102   9.992   5.799   6.623  0.1027  0.2918  0.1495
10524SOL    HW135103  10.075   5.847   6.622 -0.2224  0.9039  1.0548
10524SOL    HW235104   9.986   5.759   6.536 -0.3971  3.2603 -1.2860
10525SOL     OW35105   0.409   2.026   5.898 -0.3765  0.4763 -0.6709
10525SOL    HW135106   0.348   1.996   5.965 -1.2001 -0.1374 -1.6596
10525SOL    HW235107   0.359   2.090   5.848  0.2338  0.9354 -0.7004
10526SOL     OW35108  10.445   3.064   3.158  0.3419 -0.5440  0.0335
10526SOL    HW135109  10.457   3.120   3.235 -1.5252 -1.3502  0.9664
10526SOL    HW235110  10.367   3.012   3.178  0.3093 -1.3826 -2.0555
10527SOL     OW35111   9.294   4.962   4.623  0.3879  0.1450 -0.5659
10527SOL    HW135112   9.383   4.965   4.657  0.2477 -0.8475 -0.0438
10527SOL    HW235113   9.264   5.052   4.624  1.3424  0.4720 -0.6358
10528SOL     OW35114   5.925  10.832   4.966 -0.2717 -0.0917 -0.1956
10528SOL    HW135115   5.915  10.906   4.907 -0.9481  0.9643  1.1631
10528SOL    HW235116   5.838  10.792   4.968 -0.4232  0.2516  0.5132
10529SOL     OW35117  10.954   4.855  10.110 -0.2062 -0.7069  0.2498
10529SOL    HW135118  10.945   4.811  10.026  1.2005 -2.1173  0.7980
10529SOL    HW235119  10.876   4.830  10.159 -0.0691 -1.4862  0.0744
10530SOL     OW35120   8.669   4.253   1.897  0.2540 -0.3653 -0.7738
10530SOL    HW135121   8.582   4.288   1.879  0.0911 -0.6559 -0.5789
10530SOL    HW235122   8.672   4.247   1.993  0.6808  0.1231 -0.7570
10531SOL     OW35123   2.854   0.826  10.616 -0.1667  0.1347 -0.4528
10531SOL    HW135124   2.773   0.776  10.601  0.1614 -0.2671 -0.9298
10531SOL    HW235125   2.885   0.848  10.528  0.2180  0.3278 -0.2699
10532SOL     OW35126   5.715   0.852   7.620  0.1139  0.7137  0.0668
10532SOL    HW135127   5.622   0.844   7.599  0.7098 -1.5340 -2.3220
10532SOL    HW235128   5.740   0.937   7.583 -0.5439  0.2659 -1.5200
10533SOL     OW35129   1.398   8.835   7.541  0.0075 -0.3425 -0.0094
10533SOL    HW135130   1.436   8.888   7.610  1.1725  1.0418 -1.6411
10533SOL    HW235131   1.304   8.836   7.559  0.1598  1.0339  0.8396
10534SOL     OW35132   8.556   1.584   0.146 -0.8498 -0.3721 -0.3719
10534SOL    HW135133   8.567   1.599   0.052 -0.4381 -0.0375 -0.2709
10534SOL    HW235134   8.617   1.513   0.166  0.4505  0.7975 -0.0103
10535SOL     OW35135   7.963   5.503  10.787 -0.1412 -0.6837 -0.3981
10535SOL    HW135136   8.024   5.518  10.859 -2.1074 -0.8900  1.4017
10535SOL    HW235137   7.963   5.585  10.738 -0.3143  0.2191  1.0758
10536SOL     OW35138   6.703   0.657   5.678 -0.6194 -0.2569  0.0990
10536SOL    HW135139   6.652   0.635   5.600  0.7724  0.6492 -1.1057
10536SOL    HW235140   6.638   0.657   5.749 -1.9033 -1.1789 -1.0092
10537SOL     OW35141   2.844   5.894  10.910 -0.3977  0.4623  0.5182
10537SOL    HW135142   2.758   5.853  10.918 -0.0422 -0.3302  0.3994
10537SOL    HW235143   2.870   5.913  11.000 -1.0424  1.4727  0.5101
10538SOL     OW35144   4.034   5.951   1.200  0.1504 -0.1749 -0.5145
10538SOL    HW135145   4.111   5.976   1.251  0.2780  1.2630 -1.3791
10538SOL    HW235146   3.966   5.938   1.266  0.4960  0.9547  0.0984
10539SOL     OW35147   6.352   7.197   8.754 -0.2936  0.1453  0.4293
10539SOL    HW135148   6.257   7.203   8.746 -0.3590 -0.6571  0.5496
10539SOL    HW235149   6.368   7.112   8.794  0.4842  0.1961  0.2492
10540SOL     OW35150   7.217   8.456   1.483  0.1101  0.0774 -0.4107
10540SOL    HW135151   7.303   8.448   1.523 -0.4637  0.5625  0.9752
10540SOL    HW235152   7.185   8.366   1.476 -0.2273  0.0384  1.2830
10541SOL     OW35153   4.680   2.259  10.681  0.2085  0.2536 -0.0795
10541SOL    HW135154   4.717   2.334  10.728 -0.9709  0.0947  1.1765
10541SOL    HW235155   4.756   2.215  10.642  0.9310  1.9907 -0.7192
10542SOL     OW35156   9.794   5.349   1.151  0.1171  0.7766 -0.5566
10542SOL    HW135157   9.865   5.354   1.215 -0.2566 -0.5623 -0.0124
10542SOL    HW235158   9.733   5.418   1.176  0.0158  0.3219  0.4914
10543SOL     OW35159   6.161   7.424   2.779 -0.3252  0.1660 -0.9398
10543SOL    HW135160   6.187   7.333   2.768  0.4779  0.1685  0.7131
10543SOL    HW235161   6.243   7.473   2.775 -0.4275  0.5333  0.7532
10544SOL     OW35162   7.562   1.101   9.868  0.0403 -0.4093 -0.3449
10544SOL    HW135163   7.534   1.158   9.797  1.5816 -2.1293 -2.4704
10544SOL    HW235164   7.655   1.086   9.851  0.9347  0.3786  3.0221
10545SOL     OW35165   7.420   5.398   8.988 -0.2475 -0.4392  0.4005
10545SOL    HW135166   7.364   5.460   8.941  1.3538  1.3899  0.7539
10545SOL    HW235167   7.407   5.420   9.080 -0.5202 -1.4262  0.6020
10546SOL     OW35168   0.713   9.864   1.193 -0.4650 -0.0610  0.0524
10546SOL    HW135169   0.634   9.840   1.242 -0.9040  3.4541  1.3518
10546SOL    HW235170   0.784   9.860   1.257  0.0636 -1.0747 -0.5648
10547SOL     OW35171   6.061   9.628   5.703 -0.9673  0.1385  0.2366
10547SOL    HW135172   6.143   9.639   5.752 -1.4035 -2.6386  1.7994
10547SOL    HW235173   6.068   9.691   5.631  1.6774  1.3299  1.3936
10548SOL     OW35174   2.805   2.937   2.295 -0.4162 -0.0106 -0.3645
10548SOL    HW135175   2.871   2.958   2.361 -0.8152 -0.9867  0.3733
10548SOL    HW235176   2.757   3.019   2.283 -0.3297  0.1920  0.5561
10549SOL     OW35177   7.945   0.175  10.199  0.0330  0.1939 -0.6845
10549SOL    HW135178   7.890   0.099  10.180  0.1947  0.3969 -2.0333
10549SOL    HW235179   7.972   0.208  10.114 -1.5502  2.9135 -0.2812
10550SOL     OW35180   4.374   3.866   5.059  0.4462 -0.0154 -0.1489
10550SOL    HW135181   4.335   3.810   5.126 -0.9562  1.6885  0.5472
10550SOL    HW235182   4.443   3.914   5.105 -0.9717  1.6660  0.3486
10551SOL     OW35183   0.861   1.249   7.194 -0.1828  0.1925  1.1416
10551SOL    HW135184   0.920   1.174   7.197  1.5830  1.3140 -1.5891
10551SOL    HW235185   0.884   1.301   7.272  0.8095 -0.5292  1.3405
10552SOL     OW35186   8.699   2.740   8.068 -0.3263 -0.4345 -0.2700
10552SOL    HW135187   8.755   2.796   8.013  0.9304 -0.9273  0.4663
10552SOL    HW235188   8.674   2.797   8.141  3.0132 -1.3969  1.8312
10553SOL     OW35189   8.559   2.635   6.176 -0.7446  0.2004  0.5433
10553SOL    HW135190   8.563   2.660   6.269  1.1576 -0.4642  0.6813
10553SOL    HW235191   8.650   2.614   6.153 -1.2562 -0.0802 -1.3597
10554SOL     OW35192   3.690   4.678   1.040  0.0942  0.5596  0.5913
10554SOL    HW135193   3.714   4.665   0.948  0.9549 -1.7725  1.0653
10554SOL    HW235194   3.735   4.758   1.066  1.9642 -0.1149 -0.3675
10555SOL     OW35195   8.108   4.343   6.651  0.8353 -0.6278 -0.3979
10555SOL    HW135196   8.047   4.340   6.577  0.2455 -1.2243  0.1032
10555SOL    HW235197   8.079   4.274   6.710  0.0998  1.0554  1.3387
10556SOL     OW35198   5.673   3.063   9.444  0.2130  0.1490 -0.2856
10556SOL    HW135199   5.615   2.996   9.408 -0.2848  0.5373 -0.2080
10556SOL    HW235200   5.695   3.031   9.531 -1.2004  0.7737  0.3340
10557SOL     OW35201   2.924   8.049   5.645  0.7308  0.3007 -0.5920
10557SOL    HW135202   2.934   8.099   5.726  0.4742  0.2312 -0.5183
10557SOL    HW235203   3.009   8.007   5.632  0.4056 -0.6612  0.2787
10558SOL     OW35204   7.600   7.593   3.709 -0.2553 -0.3468 -0.1375
10558SOL    HW135205   7.517   7.574   3.664  0.2365 -2.4131 -0.3012
10558SOL    HW235206   7.592   7.548   3.793 -0.2216  1.4960  0.8958
10559SOL     OW35207   6.668   1.271   8.941  0.4160  0.1615 -0.0851
10559SOL    HW135208   6.653   1.351   8.891 -0.2417  0.4573  0.5547
10559SOL    HW235209   6.581   1.230   8.947  0.7005 -0.4645 -0.1880
10560SOL     OW35210  10.953   7.825   3.673  0.2360 -0.0268  0.4304
10560SOL    HW135211  11.047   7.810   3.672  0.2216 -0.0986 -0.4707
10560SOL    HW235212  10.923   7.785   3.756  0.9554 -0.2164  0.6038
10561SOL     OW35213   3.974   8.740   5.255 -0.9804  0.1593  0.3918
10561SOL    HW135214   3.895   8.716   5.205  0.1387 -0.1072 -1.3356
10561SOL    HW235215   4.036   8.771   5.188  0.5716 -0.1442  1.6380
10562SOL     OW35216   5.332   5.323   7.119 -0.0774 -0.0367 -0.0659
10562SOL    HW135217   5.351   5.247   7.063  0.8599  1.4957 -1.9421
10562SOL    HW235218   5.414   5.342   7.163  0.5384  1.4596 -1.7058
10563SOL     OW35219  10.176   9.012  10.746 -0.2137  0.2552  0.0745
10563SOL    HW135220  10.171   9.106  10.726  0.6668 -0.1240 -2.2984
10563SOL    HW235221  10.100   8.974  10.701 -0.0863 -0.2554  0.2905
10564SOL     OW35222   4.625   8.208   1.964 -0.0724  0.5101 -0.7067
10564SOL    HW135223   4.614   8.299   1.991  1.0471 -0.1023  2.2288
10564SOL    HW235224   4.720   8.195   1.961 -0.2059 -0.7653 -0.1930
10565SOL     OW35225   9.406  10.006   6.336 -0.4116 -0.0086 -0.3902
10565SOL    HW135226   9.334  10.042   6.284 -0.9343 -0.8574 -0.2655
10565SOL    HW235227   9.388   9.912   6.342 -0.7623  0.1346  1.8929
10566SOL     OW35228   5.501   0.500   1.878 -0.1768 -0.2376 -0.1477
10566SOL    HW135229   5.536   0.520   1.791 -0.3567  2.0510  0.2575
10566SOL    HW235230   5.574   0.457   1.924  1.0716  1.5604 -0.3665
10567SOL     OW35231   3.980   0.225  10.047  0.1233 -0.2387 -0.0847
10567SOL    HW135232   4.010   0.260   9.963 -1.3959  0.1788 -0.4808
10567SOL    HW235233   4.018   0.137  10.051  0.3159 -0.2164 -1.1471
10568SOL     OW35234  10.233   5.481   0.647  0.0186 -0.5715  0.4208
10568SOL    HW135235  10.143   5.506   0.628  0.7645  1.2243 -1.0305
10568SOL    HW235236  10.226   5.423   0.723 -2.4097 -1.2353 -0.2115
10569SOL     OW35237   2.785   2.367   0.549 -0.4483 -0.3366 -0.1571
10569SOL    HW135238   2.871   2.342   0.517 -0.2068 -1.1807  1.0688
10569SOL    HW235239   2.801   2.397   0.639 -1.2552  0.7703 -0.3638
10570SOL     OW35240   2.491   6.366   6.926  0.4197 -0.1526  0.5339
10570SOL    HW135241   2.484   6.432   6.995 -0.8143 -1.1092  1.3890
10570SOL    HW235242   2.437   6.399   6.855 -2.7828 -1.5203  2.1233
10571SOL     OW35243   6.229   7.902   5.891 -0.3196  0.2477  0.3100
10571SOL    HW135244   6.239   7.871   5.801 -3.7493 -1.7663  0.4115
10571SOL    HW235245   6.145   7.949   5.891 -0.6593 -0.2283  2.5294
10572SOL     OW35246   3.142   5.411   2.465 -0.5751 -0.5907  0.6941
10572SOL    HW135247   3.117   5.366   2.384  0.9256 -0.1697 -0.0361
10572SOL    HW235248   3.059   5.437   2.505 -1.3360  0.1944 -1.2845
10573SOL     OW35249   4.359   0.105   5.087 -0.2480 -0.0772 -0.4830
10573SOL    HW135250   4.417   0.144   5.153  2.3501 -2.6115 -1.0646
10573SOL    HW235251   4.317   0.032   5.132 -1.8421  0.7877 -0.5153
10574SOL     OW35252   0.205   4.880   6.577 -0.1853 -0.1518 -0.4038
10574SOL    HW135253   0.183   4.965   6.538  1.9574  0.5984 -0.0882
10574SOL    HW235254   0.251   4.833   6.507  0.3575 -0.2746  0.0333
10575SOL     OW35255   8.734   9.383   1.825 -0.2837 -0.0626 -0.5700
10575SOL    HW135256   8.721   9.429   1.743 -0.4138 -0.2026 -0.6288
10575SOL    HW235257   8.666   9.315   1.826 -1.2417  0.8542  0.3156
10576SOL     OW35258   2.694   3.092   3.735 -0.2480 -0.2629 -0.3502
10576SOL    HW135259   2.782   3.116   3.704  0.1928 -2.0696 -0.6048
10576SOL    HW235260   2.637   3.159   3.698  1.1388  1.7461  0.8988
10577SOL     OW35261   4.089   8.890   9.028 -0.7102  0.1564 -0.1553
10577SOL    HW135262   4.128   8.938   9.101  0.6626  0.2911 -0.9337
10577SOL    HW235263   4.148   8.908   8.954 -1.7335 -0.4577 -1.1446
10578SOL     OW35264   1.342   2.737   4.415  0.1732  0.5578 -0.3535
10578SOL    HW135265   1.394   2.739   4.496 -0.5594 -0.0462  0.1465
10578SOL    HW235266   1.375   2.810   4.363  0.9595  0.6815  0.3026
10579SOL     OW35267   6.564   0.348   0.114  0.3439  0.7375  0.0590
10579SOL    HW135268   6.568   0.301   0.198  0.6304  0.7020  0.0270
10579SOL    HW235269   6.487   0.405   0.122 -0.5947 -0.4570 -0.2934
10580SOL     OW35270   5.588   7.005  10.178  0.5010 -0.0482  0.1674
10580SOL    HW135271   5.616   7.000  10.087  2.1029 -0.6500  0.6724
10580SOL    HW235272   5.550   7.093  10.186  0.2062 -0.0362 -1.0948
10581SOL     OW35273   2.923   1.776   2.766 -0.4443 -0.4955 -0.1812
10581SOL    HW135274   2.984   1.703   2.757  0.6577  0.1947  1.2540
10581SOL    HW235275   2.945   1.834   2.694  0.1028 -0.6070 -0.1103
10582SOL     OW35276   9.697   0.306  10.808 -0.0995  0.3789  0.2124
10582SOL    HW135277   9.684   0.398  10.784  0.1927  0.4938  0.4935
10582SOL    HW235278   9.725   0.308  10.899 -0.3417 -0.0070  0.2995
10583SOL     OW35279   0.773   0.002   0.272  0.3110 -0.7137 -0.1820
10583SOL    HW135280   0.742   0.092   0.280  1.9150 -0.2927  2.1512
10583SOL    HW235281   0.694  -0.051   0.270 -0.6479  0.5649  1.5281
10584SOL     OW35282  10.395   5.809   1.387  0.4898  0.8532 -0.3334
10584SOL    HW135283  10.486   5.780   1.388  0.2000 -0.1227 -0.6073
10584SOL    HW235284  10.397   5.899   1.419  1.1678 -0.2556  3.1576
10585SOL     OW35285   3.287  10.712   1.318  0.4331 -0.3462 -0.7910
10585SOL    HW135286   3.301  10.806   1.327  1.1580 -0.5451  0.4710
10585SOL    HW235287   3.237  10.702   1.237  1.1343  1.0460 -1.4218
10586SOL     OW35288   0.187   6.112   4.377  0.2872  0.8040 -0.3253
10586SOL    HW135289   0.208   6.023   4.351  0.7396  0.2391  1.8080
10586SOL    HW235290   0.096   6.108   4.406  0.4887  0.9024  0.3253
10587SOL     OW35291  10.273   9.611   6.176 -0.3113 -0.2275  0.2870
10587SOL    HW135292  10.322   9.681   6.132  0.5371 -1.8325 -1.4816
10587SOL    HW235293  10.311   9.607   6.263  0.7835  0.4523 -0.1292
10588SOL     OW35294   7.821   5.155   2.219  0.3982 -0.0206 -0.0147
10588SOL    HW135295   7.794   5.082   2.164 -0.0396 -1.6986  2.2645
10588SOL    HW235296   7.909   5.178   2.189  0.1561 -0.8296 -1.3919
10589SOL     OW35297   6.739   2.734   4.046 -0.1578 -0.3665 -0.3704
10589SOL    HW135298   6.817   2.726   3.992 -0.4499 -0.7517 -0.7354
10589SOL    HW235299   6.692   2.652   4.034 -0.1426 -0.5309  0.6077
10590SOL     OW35300   2.913   7.753   6.557 -0.0290  0.1937 -0.3209
10590SOL    HW135301   2.962   7.806   6.621  0.1354  0.9462 -1.0522
10590SOL    HW235302   2.836   7.724   6.605  0.0233  0.8615  0.1933
10591SOL     OW35303   4.652   9.456   1.750  0.1051  0.7589  0.5600
10591SOL    HW135304   4.678   9.512   1.823  0.5248  0.4345  0.6658
10591SOL    HW235305   4.642   9.369   1.789 -0.4176  0.7323  0.3750
10592SOL     OW35306   2.815   0.372  10.614 -0.2011 -0.8893  0.2239
10592SOL    HW135307   2.763   0.342  10.689  0.3064 -0.5542  0.7114
10592SOL    HW235308   2.902   0.335  10.628  0.4240  0.7302  0.8028
10593SOL     OW35309   5.383   5.909   3.676 -0.2347 -0.7965 -0.5857
10593SOL    HW135310   5.436   5.946   3.605  0.7519 -0.6807  0.1887
10593SOL    HW235311   5.436   5.838   3.711 -1.4055 -1.9129 -0.9787
10594SOL     OW35312   0.562  10.143   2.802  0.0531  0.5373 -0.5445
10594SOL    HW135313   0.609  10.083   2.744 -0.0089 -0.5266  0.4704
10594SOL    HW235314   0.599  10.229   2.782  0.1344  0.1786 -2.0353
10595SOL     OW35315  10.232  10.826   9.012  0.0852  0.1346  0.4485
10595SOL    HW135316  10.277  10.803   9.093 -1.4021 -1.8131  0.7879
10595SOL    HW235317  10.150  10.867   9.040 -0.3529 -0.3700 -0.0798
10596SOL     OW35318   0.680   6.271   7.363 -0.9401 -0.2456  0.8421
10596SOL    HW135319   0.629   6.351   7.375  1.0258  1.0293  1.1544
10596SOL    HW235320   0.684   6.258   7.268  1.1841  1.8091  0.5442
10597SOL     OW35321   4.931   7.144  10.758 -0.3884  0.0993  0.1953
10597SOL    HW135322   5.011   7.187  10.790 -0.5498 -0.0244  0.7880
10597SOL    HW235323   4.866   7.162  10.826 -1.4183  1.8540 -1.1942
10598SOL     OW35324   2.506   9.056   5.724  0.4450 -0.3656  0.2505
10598SOL    HW135325   2.540   9.056   5.634 -1.1447 -0.2886 -0.3913
10598SOL    HW235326   2.458   8.973   5.732 -0.2864  0.0837  0.6631
10599SOL     OW35327   9.960   9.379   0.367  0.5585 -0.4248 -0.5065
10599SOL    HW135328   9.968   9.443   0.296 -0.3895 -1.0203 -1.1902
10599SOL    HW235329  10.023   9.310   0.344 -0.3492 -1.0260 -1.2521
10600SOL     OW35330   4.465   4.902   4.770  0.0128  0.4401  0.9896
10600SOL    HW135331   4.500   4.932   4.854  1.8088 -0.3863  0.5762
10600SOL    HW235332   4.424   4.818   4.791  1.1976 -0.1782  0.9329
10601SOL     OW35333   1.293   0.799   2.942 -0.0109 -0.3019 -0.2389
10601SOL    HW135334   1.278   0.743   3.019 -0.6038 -0.2198 -0.2926
10601SOL    HW235335   1.241   0.878   2.959 -1.3763 -0.9037 -1.4010
10602SOL     OW35336   5.305   0.704   6.273 -0.3176  0.0245 -0.7405
10602SOL    HW135337   5.292   0.611   6.254 -1.5690 -0.4484  2.0212
10602SOL    HW235338   5.223   0.746   6.247  0.4339  0.5003 -2.4732
10603SOL     OW35339   3.398   6.660   1.175  0.8282 -0.2346 -0.7831
10603SOL    HW135340   3.391   6.565   1.178  0.7694 -0.1992  0.3957
10603SOL    HW235341   3.492   6.678   1.177  0.8306 -0.2578 -0.6944
10604SOL     OW35342   9.083   7.740   7.636  0.1929 -0.4708 -0.1172
10604SOL    HW135343   9.079   7.773   7.726 -0.6070 -1.3254  0.1782
10604SOL    HW235344   9.037   7.805   7.584 -1.4242 -1.0794  0.4665
10605SOL     OW35345   7.745   4.822   2.195 -0.6152 -0.5462  0.3952
10605SOL    HW135346   7.673   4.854   2.141 -1.3766  0.2144  1.8161
10605SOL    HW235347   7.726   4.854   2.283  0.9257 -1.2074  1.0118
10606SOL     OW35348   2.676   3.911   8.359 -0.0418 -0.4410 -0.3298
10606SOL    HW135349   2.699   3.921   8.267 -1.5433 -0.0922 -0.6832
10606SOL    HW235350   2.613   3.980   8.376 -0.2573 -0.8940  0.8062
10607SOL     OW35351   6.023   3.924   0.140 -0.1051  1.1473 -0.1031
10607SOL    HW135352   6.036   3.841   0.185 -1.4923  0.1667 -1.4060
10607SOL    HW235353   6.105   3.939   0.092 -0.4842 -0.4639 -1.3422
10608SOL     OW35354   8.118   0.993   5.992 -0.6686  0.8835  0.3904
10608SOL    HW135355   8.116   1.003   5.897  1.3095  2.7461  0.4724
10608SOL    HW235356   8.027   1.004   6.019 -1.2829  0.1920 -1.2807
10609SOL     OW35357   0.111   9.370   5.760 -0.0383  0.7991 -0.0264
10609SOL    HW135358   0.147   9.398   5.676 -0.7063 -1.1084 -1.0029
10609SOL    HW235359   0.136   9.278   5.768  0.6244  1.0953  2.2338
10610SOL     OW35360   3.917   7.710   8.971  0.2196 -0.1385  0.2283
10610SOL    HW135361   3.932   7.804   8.973  2.1997 -0.4310  1.4248
10610SOL    HW235362   3.896   7.691   8.879 -1.3475  1.5741  0.1697
10611SOL     OW35363   7.579   4.946   3.940 -0.5954 -0.5806 -0.1708
10611SOL    HW135364   7.543   4.992   4.016 -2.1436 -1.1060 -0.5540
10611SOL    HW235365   7.645   5.006   3.906  0.0976 -0.3045  1.5258
10612SOL     OW35366   0.535   4.876   8.988 -0.2657  0.2089 -0.0892
10612SOL    HW135367   0.551   4.957   8.938 -1.5843 -0.0876 -1.0731
10612SOL    HW235368   0.499   4.815   8.923  0.8912 -1.2488  0.5985
10613SOL     OW35369   0.952   2.856   4.816 -0.5619 -0.2725  0.4682
10613SOL    HW135370   0.975   2.800   4.890  1.7119  1.0057  0.8079
10613SOL    HW235371   0.856   2.865   4.821 -0.4654 -0.0204  3.4298
10614SOL     OW35372   5.175   0.686   7.060 -0.3203  0.2092  0.4401
10614SOL    HW135373   5.229   0.637   6.998 -0.3631 -0.5412  0.9908
10614SOL    HW235374   5.086   0.675   7.028 -0.2724  0.4200  0.2312
10615SOL     OW35375   1.956   1.020   8.772 -0.2341  0.1707 -0.1513
10615SOL    HW135376   1.977   1.098   8.824  0.4754  0.3629 -0.7037
10615SOL    HW235377   1.865   0.999   8.796  0.2976 -0.1991  1.7056
10616SOL     OW35378   7.883   7.034   3.987  0.2526 -0.2796 -0.5806
10616SOL    HW135379   7.925   6.954   3.955 -0.6149 -1.4062  0.9878
10616SOL    HW235380   7.945   7.070   4.050  0.4604  0.0745 -0.9824
10617SOL     OW35381   5.815   0.872   0.181 -0.1387  0.2783  0.0964
10617SOL    HW135382   5.723   0.849   0.177  0.0978 -0.9978  1.3665
10617SOL    HW235383   5.858   0.796   0.221  1.2037  1.5600  1.1985
10618SOL     OW35384   3.480   2.420   1.063  0.4794  0.4051  0.3737
10618SOL    HW135385   3.484   2.430   1.158  2.2080 -0.0168  0.3831
10618SOL    HW235386   3.571   2.409   1.036  0.0473  0.7605 -1.3696
10619SOL     OW35387   1.399   0.732   1.675 -0.1378  0.0291 -0.1154
10619SOL    HW135388   1.318   0.757   1.721 -1.3786  0.3564 -2.3117
10619SOL    HW235389   1.386   0.764   1.586  1.5029 -1.8206 -1.0923
10620SOL     OW35390   8.715  10.785   1.703 -0.1258  0.0810  0.5796
10620SOL    HW135391   8.669  10.783   1.787  0.6898 -0.2525  1.0334
10620SOL    HW235392   8.694  10.702   1.662 -1.2974  0.6401  0.0149
10621SOL     OW35393   8.883   3.953   9.198 -0.0763 -0.5062  0.4562
10621SOL    HW135394   8.871   3.931   9.106 -1.7183  1.2309  0.2133
10621SOL    HW235395   8.895   3.868   9.241  1.2723 -1.3074 -1.3907
10622SOL     OW35396   0.926   8.804   4.469 -0.4990  0.2921  0.9298
10622SOL    HW135397   0.918   8.709   4.474 -2.3581  0.1242 -2.3357
10622SOL    HW235398   0.844   8.837   4.505  0.1479  0.7179  2.0727
10623SOL     OW35399  10.260   8.900   7.517  0.6269 -0.5605 -0.4889
10623SOL    HW135400  10.183   8.885   7.462  0.3423 -1.8014  0.2115
10623SOL    HW235401  10.281   8.993   7.504 -0.4681 -0.4127 -1.3413
10624SOL     OW35402   3.308  10.632   6.285 -0.3098 -0.2636  0.1533
10624SOL    HW135403   3.273  10.654   6.199 -0.9931 -0.5334  0.3608
10624SOL    HW235404   3.396  10.669   6.285 -0.4967  0.1901 -0.4673
10625SOL     OW35405   9.415   9.359   9.971 -0.4025 -0.1018 -0.1798
10625SOL    HW135406   9.339   9.403   9.930  0.4710  1.1901 -0.4840
10625SOL    HW235407   9.473   9.339   9.898 -1.1409 -2.6624 -0.1708
10626SOL     OW35408   1.663   4.048   4.027  0.5735 -0.7104 -0.2201
10626SOL    HW135409   1.656   4.019   3.937  1.4946  0.0579 -0.5623
10626SOL    HW235410   1.573   4.055   4.058  0.0935  1.3204 -1.8593
10627SOL     OW35411   3.085  10.040   9.610  0.1850 -0.2835 -0.1473
10627SOL    HW135412   3.177  10.060   9.625  0.3334 -1.4115  0.6160
10627SOL    HW235413   3.086   9.974   9.541 -0.2356  1.5095 -1.9720
10628SOL     OW35414   7.526   0.665   3.649 -0.7667 -0.3413  0.2426
10628SOL    HW135415   7.591   0.647   3.717 -1.9410 -1.7202  1.0638
10628SOL    HW235416   7.511   0.759   3.654  1.8378  0.1910 -0.6302
10629SOL     OW35417   9.033   1.505   8.693  0.5613 -0.1328  0.4750
10629SOL    HW135418   8.979   1.481   8.768  0.0413  2.1809  0.9188
10629SOL    HW235419   9.092   1.430   8.680 -0.9580 -1.5913  1.6416
10630SOL     OW35420   3.845  10.148  10.682  0.1332  0.0860  0.4025
10630SOL    HW135421   3.924  10.101  10.709  0.8170  1.3330  0.6490
10630SOL    HW235422   3.826  10.207  10.755 -2.0776 -1.4018  1.1411
10631SOL     OW35423   3.581   1.257   3.693  0.1540 -0.3108  0.0056
10631SOL    HW135424   3.587   1.162   3.704  0.1312 -0.0731  2.6249
10631SOL    HW235425   3.497   1.281   3.733  0.8980  0.9619  0.8769
10632SOL     OW35426   9.730   2.897   8.860 -0.4271 -0.6485  0.0954
10632SOL    HW135427   9.796   2.844   8.815 -2.0495 -2.2028 -0.5800
10632SOL    HW235428   9.710   2.967   8.798  0.0325 -0.6074 -0.0125
10633SOL     OW35429   4.057   0.593  10.912  0.0892  0.2950  0.9948
10633SOL    HW135430   4.041   0.685  10.890  2.3121  0.8207  1.2747
10633SOL    HW235431   3.970   0.554  10.918 -0.9016  2.2644  0.4121
10634SOL     OW35432   5.577   9.543   1.483 -0.0967 -0.0389  0.2089
10634SOL    HW135433   5.613   9.454   1.491 -1.9491 -0.9909 -1.1063
10634SOL    HW235434   5.640   9.589   1.428 -0.6286 -1.5918 -1.8634
10635SOL     OW35435  10.084   3.533  10.327  0.2949  0.7065  0.5823
10635SOL    HW135436  10.106   3.603  10.389  1.1593  2.5698 -1.7036
10635SOL    HW235437  10.169   3.495  10.303  0.1572  1.1744 -0.7170
10636SOL     OW35438   2.738   1.866   3.543 -0.0460 -0.1852 -0.1796
10636SOL    HW135439   2.801   1.798   3.567  1.4129  0.9038 -0.7893
10636SOL    HW235440   2.755   1.937   3.605 -1.0163 -0.0459 -0.0562
10637SOL     OW35441   3.761   2.464   1.402 -0.3294 -0.1996  0.1580
10637SOL    HW135442   3.786   2.384   1.447 -0.9323 -0.3286  0.2816
10637SOL    HW235443   3.734   2.524   1.471 -0.4207 -0.0900  0.0297
10638SOL     OW35444   2.364   9.209   7.118  0.2901  0.0973  0.2166
10638SOL    HW135445   2.347   9.285   7.063 -0.4162  0.3296  0.7450
10638SOL    HW235446   2.431   9.239   7.180  0.9607 -0.1142 -0.3867
10639SOL     OW35447   0.142   6.207   0.411 -0.8294 -0.3693  0.3135
10639SOL    HW135448   0.090   6.161   0.345 -0.7737  0.3116 -0.2110
10639SOL    HW235449   0.175   6.137   0.468 -1.3819 -0.9083 -0.0118
10640SOL     OW35450   2.403   2.440   5.487  0.5415 -0.0251  0.3539
10640SOL    HW135451   2.421   2.530   5.462  1.9764  0.0530  1.5132
10640SOL    HW235452   2.350   2.447   5.566  0.5494 -0.1937  0.3746
10641SOL     OW35453  10.311   6.963   1.268  0.2218 -0.4357  0.2912
10641SOL    HW135454  10.325   7.004   1.354  0.9922 -0.3894  0.1468
10641SOL    HW235455  10.383   6.902   1.258  0.5387  0.0732 -0.6365
10642SOL     OW35456   7.472   3.189   1.206 -0.2771 -0.2360 -0.1479
10642SOL    HW135457   7.528   3.260   1.234  0.4463 -0.9003  0.1184
10642SOL    HW235458   7.472   3.127   1.280 -1.6976 -0.0529  0.0380
10643SOL     OW35459   9.826   7.175   1.828  0.3635  0.3262 -0.0213
10643SOL    HW135460   9.824   7.083   1.853  1.7952  0.2005 -0.2496
10643SOL    HW235461   9.792   7.176   1.738 -0.0371  0.0891  0.1241
10644SOL     OW35462   7.327   1.219   5.803 -0.2976 -0.2970 -0.0771
10644SOL    HW135463   7.319   1.157   5.730 -0.9037  0.0309 -0.3000
10644SOL    HW235464   7.250   1.276   5.794 -0.6787 -0.5863  1.1299
10645SOL     OW35465   4.366   6.701   7.505  0.6383 -0.6208 -0.4354
10645SOL    HW135466   4.409   6.620   7.479 -1.5889 -1.6827 -1.0935
10645SOL    HW235467   4.356   6.694   7.600  0.6830 -1.0077 -0.4607
10646SOL     OW35468   5.332   3.961   9.517 -0.0595  0.1699 -0.3572
10646SOL    HW135469   5.251   3.995   9.480 -1.4551 -2.6506 -0.0655
10646SOL    HW235470   5.358   3.891   9.458  0.0215 -1.5314  1.6087
10647SOL     OW35471   2.213   6.457   7.652  0.1412 -0.2959  0.1698
10647SOL    HW135472   2.236   6.451   7.559 -0.1318  0.0117  0.0786
10647SOL    HW235473   2.117   6.454   7.653  0.1741 -2.0268  0.5838
10648SOL     OW35474   5.369   7.672   3.993  0.0841  0.3887 -0.0057
10648SOL    HW135475   5.352   7.589   4.038  1.3252  0.0563 -0.1219
10648SOL    HW235476   5.283   7.702   3.964 -0.4583 -0.5061  0.6510
10649SOL     OW35477   1.084   6.206   0.503  0.2932  0.4895 -0.0339
10649SOL    HW135478   1.089   6.163   0.418 -1.6349  0.1062  0.0036
10649SOL    HW235479   1.019   6.275   0.491  0.2895  0.6888  1.0321
10650SOL     OW35480   3.474   8.617   2.384 -0.1983 -0.5624  0.6467
10650SOL    HW135481   3.456   8.711   2.385 -0.2585 -0.5748  0.8357
10650SOL    HW235482   3.525   8.603   2.304 -1.6419 -0.6416 -0.2838
10651SOL     OW35483   4.828   9.415   7.002  0.4442 -0.4676  0.6307
10651SOL    HW135484   4.775   9.483   7.043  1.3932 -0.1275  1.3258
10651SOL    HW235485   4.900   9.463   6.961 -0.7518 -0.7175 -1.9807
10652SOL     OW35486   3.785   1.497   4.792  0.3518 -0.0372 -0.3916
10652SOL    HW135487   3.879   1.502   4.774  0.1061  2.3055 -1.3483
10652SOL    HW235488   3.744   1.522   4.709 -1.0950 -0.0050  0.3160
10653SOL     OW35489   3.454  10.228   8.448  0.1676 -0.1991  0.2317
10653SOL    HW135490   3.405  10.186   8.518 -0.3216  0.3763  0.2434
10653SOL    HW235491   3.545  10.200   8.461  0.5172  1.6329  2.4569
10654SOL     OW35492   1.590   6.435   5.094 -0.0094  0.1515  0.2652
10654SOL    HW135493   1.579   6.369   5.025  1.2718 -0.9544  1.0429
10654SOL    HW235494   1.661   6.400   5.148 -0.2677  1.5060  1.5373
10655SOL     OW35495   5.541   8.708   5.098 -0.1468 -0.1619 -0.1758
10655SOL    HW135496   5.500   8.791   5.075 -1.6187 -0.6783  0.4368
10655SOL    HW235497   5.610   8.731   5.161 -0.8715  0.5583  0.3762
10656SOL     OW35498   6.110  10.106   5.707  0.1079  0.3474  0.4553
10656SOL    HW135499   6.105  10.044   5.780 -2.7037 -0.3924 -0.2413
10656SOL    HW235500   6.184  10.076   5.655  0.5498 -0.6931  1.6420
10657SOL     OW35501  10.683   8.472   8.794 -0.4510  0.5998  0.1582
10657SOL    HW135502  10.680   8.377   8.802 -0.5131  0.7707  3.1185
10657SOL    HW235503  10.595   8.501   8.816  0.2603  1.4278  2.1605
10658SOL     OW35504  10.915   3.085   3.909  0.5050  0.1094  0.3111
10658SOL    HW135505  11.006   3.070   3.883  0.9364 -1.9710  2.6145
10658SOL    HW235506  10.865   3.019   3.859  0.2408  1.1199 -0.8032
10659SOL     OW35507   5.144   0.255   7.087  0.3688 -0.4224  0.3834
10659SOL    HW135508   5.127   0.205   7.167 -1.0093  0.0317  0.4121
10659SOL    HW235509   5.164   0.188   7.021 -1.6576 -1.1094  0.3683
10660SOL     OW35510   4.162   8.627   1.740  0.8550  0.3500 -0.0244
10660SOL    HW135511   4.239   8.671   1.777  0.3355  1.3682 -0.1370
10660SOL    HW235512   4.117   8.591   1.817  1.0394  0.3944  0.1075
10661SOL     OW35513   8.159   1.322   5.572 -0.6836 -0.1427  0.0361
10661SOL    HW135514   8.067   1.330   5.597 -0.3377 -0.0688  1.4175
10661SOL    HW235515   8.193   1.411   5.580 -0.4180 -0.2274 -0.1452
10662SOL     OW35516  10.911   6.060   5.646  0.6827 -0.0120 -0.6524
10662SOL    HW135517  10.995   6.071   5.690  0.0418  0.2328  0.5517
10662SOL    HW235518  10.932   6.068   5.552  1.8097  1.2061 -0.3313
10663SOL     OW35519   7.036   2.931   4.824 -0.8290 -0.2232  0.1313
10663SOL    HW135520   6.986   2.850   4.833  1.8197 -1.9860  0.1875
10663SOL    HW235521   7.039   2.947   4.730  1.8082 -2.5393 -0.3486
10664SOL     OW35522   7.119   3.762   2.613  0.3092  0.0494  0.1556
10664SOL    HW135523   7.056   3.717   2.670 -1.5048  2.1665 -0.0335
10664SOL    HW235524   7.091   3.853   2.615  0.9431  0.4210 -3.1485
10665SOL     OW35525   6.764   9.835   3.927  0.8316 -0.0759  0.4465
10665SOL    HW135526   6.832   9.896   3.958  0.8780 -0.3997  0.9908
10665SOL    HW235527   6.701   9.891   3.882  1.7771  0.1515 -0.6458
10666SOL     OW35528   9.206   5.650   5.085 -0.0550 -0.4025  0.0887
10666SOL    HW135529   9.155   5.687   5.157  1.2593  1.6333  0.0470
10666SOL    HW235530   9.297   5.670   5.106  0.6999 -2.9278 -0.4125
10667SOL     OW35531   0.124   1.627   2.286  0.6196 -0.0381  0.0136
10667SOL    HW135532   0.156   1.647   2.374  0.1660  0.7161  0.0222
10667SOL    HW235533   0.203   1.618   2.233  0.9117 -1.0036  0.5947
10668SOL     OW35534   7.406   8.321   4.406  0.0796 -0.8223  0.1513
10668SOL    HW135535   7.407   8.385   4.335 -0.0522 -1.0183 -0.0283
10668SOL    HW235536   7.379   8.239   4.364 -5.9587  0.1425  1.3251
10669SOL     OW35537  10.611   4.339   9.259  0.4366  0.4518  0.0262
10669SOL    HW135538  10.542   4.298   9.207  1.2514 -0.3346 -0.4576
10669SOL    HW235539  10.566   4.407   9.309 -0.5432  0.4861 -0.8779
10670SOL     OW35540   7.241   3.533   4.687  0.1941  0.4951  0.5708
10670SOL    HW135541   7.272   3.489   4.766 -0.3813 -1.2048 -0.1220
10670SOL    HW235542   7.319   3.578   4.654  1.3672 -1.6395  0.2304
10671SOL     OW35543   4.538   0.697   7.279 -0.2231 -0.4364  0.1797
10671SOL    HW135544   4.454   0.661   7.249 -1.1587  1.4414  0.3594
10671SOL    HW235545   4.590   0.621   7.303 -1.9284 -1.6607  0.1960
10672SOL     OW35546   3.223   0.547   3.771  0.0796  0.4219 -0.1709
10672SOL    HW135547   3.213   0.638   3.743 -1.5223  0.2913 -0.1438
10672SOL    HW235548   3.218   0.496   3.690  0.6205  0.3257 -0.1492
10673SOL     OW35549   4.575   6.082   4.554  0.2004 -0.2324 -0.0865
10673SOL    HW135550   4.538   5.994   4.548 -2.0103  0.5181  1.3072
10673SOL    HW235551   4.667   6.071   4.530 -0.3051 -2.6746 -1.2094
10674SOL     OW35552   2.047   7.278   8.105 -0.1753  0.5640  0.4128
10674SOL    HW135553   1.997   7.235   8.175 -0.2916 -0.5851 -0.3514
10674SOL    HW235554   1.985   7.283   8.032  1.0058 -1.7020 -0.8571
10675SOL     OW35555   3.293   5.085   9.735 -0.1278  0.1268 -0.1333
10675SOL    HW135556   3.354   5.118   9.801  0.4995  1.9351 -1.5378
10675SOL    HW235557   3.218   5.144   9.738  1.6758  2.9786 -3.7391
10676SOL     OW35558   8.800  10.730   0.445 -0.6701  0.0083  0.9579
10676SOL    HW135559   8.881  10.781   0.451 -1.6498  1.7120  0.4487
10676SOL    HW235560   8.803  10.688   0.359 -1.5031  2.2760 -0.2523
10677SOL     OW35561   7.322   8.024   5.559 -0.3235 -0.3604 -0.2460
10677SOL    HW135562   7.343   8.116   5.577  0.8243 -0.7983  0.8214
10677SOL    HW235563   7.383   7.975   5.613 -1.4690 -1.7629 -0.1620
10678SOL     OW35564  10.081   1.612  10.650 -0.2559  0.4055  0.3135
10678SOL    HW135565  10.098   1.672  10.722  1.7677 -0.2186  0.4210
10678SOL    HW235566  10.063   1.528  10.692 -3.5900  0.9070  0.1857
10679SOL     OW35567   6.289   5.013   7.283 -0.1916  0.0842 -0.5081
10679SOL    HW135568   6.365   5.056   7.243  0.2499 -1.2213 -1.1322
10679SOL    HW235569   6.321   4.926   7.306 -1.6682 -0.7119 -1.3421
10680SOL     OW35570   3.725  10.834   6.096  0.4654  0.3627  0.1431
10680SOL    HW135571   3.688  10.746   6.102 -0.3937  0.6293 -0.9664
10680SOL    HW235572   3.661  10.890   6.140 -0.3049  0.7667 -1.4105
10681SOL     OW35573   3.751   3.536   7.202  0.1129 -0.1197 -0.0806
10681SOL    HW135574   3.705   3.501   7.278  0.8688 -0.5711  0.1808
10681SOL    HW235575   3.808   3.465   7.173  0.8181  0.4952 -0.2547
10682SOL     OW35576   9.594   2.620   0.265  0.8896  0.1318  0.6630
10682SOL    HW135577   9.601   2.560   0.340  1.1516 -2.4460 -1.2739
10682SOL    HW235578   9.508   2.602   0.227  1.0702  0.8017 -0.0993
10683SOL     OW35579   8.662   2.508  10.419 -0.0430  0.1659  0.5906
10683SOL    HW135580   8.683   2.501  10.513 -0.1467  0.5630  0.6443
10683SOL    HW235581   8.666   2.418  10.387  0.7469  0.1080  0.8147
10684SOL     OW35582   8.622   4.450   3.403  0.4319  0.4533  0.2986
10684SOL    HW135583   8.659   4.365   3.429  0.2214  0.5499  0.9300
10684SOL    HW235584   8.542   4.458   3.455 -1.4434 -0.5161 -2.2019
10685SOL     OW35585  10.260   5.488   9.831  0.0668 -0.0003  0.1505
10685SOL    HW135586  10.261   5.404   9.875 -0.6035 -0.6287 -0.9904
10685SOL    HW235587  10.269   5.553   9.901 -1.5529 -0.9287  1.2564
10686SOL     OW35588   2.551   6.800   6.222  0.0271 -0.2021  0.6223
10686SOL    HW135589   2.457   6.793   6.234 -0.0370  0.4501  0.5400
10686SOL    HW235590   2.581   6.857   6.292 -0.2681  3.1417 -1.7499
10687SOL     OW35591   2.213   5.246   6.148 -0.1488 -0.0018 -0.6679
10687SOL    HW135592   2.199   5.333   6.110 -0.4455  0.0309 -0.4900
10687SOL    HW235593   2.283   5.208   6.096  0.3039  0.5259 -0.4467
10688SOL     OW35594   0.794   4.854   5.770  0.1230  0.4554 -0.1611
10688SOL    HW135595   0.877   4.833   5.727  0.1491  1.8370 -0.8012
10688SOL    HW235596   0.771   4.941   5.740 -1.7984 -0.0530 -0.3248
10689SOL     OW35597   4.437   0.216   6.805  0.5581 -0.0503 -0.3085
10689SOL    HW135598   4.511   0.232   6.746  0.4008  0.2388 -0.4282
10689SOL    HW235599   4.360   0.230   6.751  0.3742 -2.2744 -0.7525
10690SOL     OW35600   4.916   4.654   4.409  0.2725 -0.5558  0.5161
10690SOL    HW135601   4.859   4.578   4.415 -0.7238  0.2223  1.3482
10690SOL    HW235602   4.858   4.726   4.382  1.2846 -0.1739 -0.7914
10691SOL     OW35603  10.763   6.714   1.027  0.2302  0.0019  0.1198
10691SOL    HW135604  10.710   6.692   0.951 -0.3333  0.5622  0.3435
10691SOL    HW235605  10.763   6.634   1.080 -1.8067  0.4775  0.9304
10692SOL     OW35606   7.038   0.943   5.608 -0.1862  0.8393  0.0436
10692SOL    HW135607   7.041   0.955   5.513 -0.3164  0.8815  0.0455
10692SOL    HW235608   7.065   1.028   5.643 -1.3604  1.2158  0.0616
10693SOL     OW35609   4.136   9.007   2.769 -0.6259  0.0371  0.6319
10693SOL    HW135610   4.099   9.096   2.773  0.3706  0.4796  0.5250
10693SOL    HW235611   4.091   8.959   2.838 -0.3302  0.9686  1.4944
10694SOL     OW35612   7.266  10.875   8.049 -0.5219 -0.4049  0.5475
10694SOL    HW135613   7.185  10.894   8.002 -0.1505  0.5048  0.2492
10694SOL    HW235614   7.335  10.908   7.992 -0.0485  0.5742  1.6573
10695SOL     OW35615   0.842   2.469   4.213  0.3466  0.0786 -0.1952
10695SOL    HW135616   0.821   2.554   4.250  0.0390 -1.1338  2.6973
10695SOL    HW235617   0.937   2.460   4.226  0.9216  1.0506 -3.1046
10696SOL     OW35618   5.108   6.942   4.188 -0.2308 -0.0396 -0.1323
10696SOL    HW135619   5.099   6.848   4.173  3.5578 -0.5660 -0.1667
10696SOL    HW235620   5.089   6.954   4.280  1.7458 -1.4111  0.5275
10697SOL     OW35621   2.813   6.983   5.002  0.3209 -0.1047 -0.2376
10697SOL    HW135622   2.817   6.940   5.087  0.4544 -0.2667 -0.3263
10697SOL    HW235623   2.816   7.077   5.023 -1.0243 -0.0957  0.0226
10698SOL     OW35624  10.134   6.433   8.480 -0.3353  0.3627  0.4118
10698SOL    HW135625  10.185   6.422   8.560 -1.2383  0.5373  1.0261
10698SOL    HW235626  10.043   6.429   8.509 -0.6864 -0.5615 -0.7461
10699SOL     OW35627   4.067   1.005   9.725 -0.5325  0.1386 -0.0427
10699SOL    HW135628   4.064   1.098   9.702  0.6017 -0.0537 -1.0358
10699SOL    HW235629   3.975   0.981   9.739 -0.7261  1.8196  2.0637
10700SOL     OW35630   3.235   6.864  10.398  0.1768  0.0913 -0.7268
10700SOL    HW135631   3.300   6.803  10.432  1.0250 -0.1618 -2.6896
10700SOL    HW235632   3.286   6.930  10.350 -0.8610  1.2726 -0.2688
10701SOL     OW35633  10.533   2.211   3.301  0.1536 -0.0413  0.1475
10701SOL    HW135634  10.576   2.126   3.308 -0.1008 -0.0453  1.9586
10701SOL    HW235635  10.538   2.232   3.208  0.0331 -2.1334 -0.3907
10702SOL     OW35636   3.462   3.916   8.231 -0.2260 -0.0788  0.4289
10702SOL    HW135637   3.369   3.936   8.243 -0.8312 -0.8117 -2.4667
10702SOL    HW235638   3.466   3.821   8.222  0.5063  0.0757 -1.2970
10703SOL     OW35639   2.740   5.003   5.242 -0.1269 -0.0030 -0.1296
10703SOL    HW135640   2.806   4.989   5.310  0.6254  1.9885 -0.3862
10703SOL    HW235641   2.772   4.952   5.168  1.4374  1.3148 -0.4150
10704SOL     OW35642   1.833   4.532   3.753 -0.0194 -0.0411  0.1102
10704SOL    HW135643   1.843   4.448   3.796  1.2475  0.9402  1.8744
10704SOL    HW235644   1.788   4.512   3.671  2.0880 -2.7285 -0.5373
10705SOL     OW35645   4.921   2.573  11.019 -0.1230  0.3203 -0.0732
10705SOL    HW135646   4.934   2.667  11.016  1.3548  0.3336  2.8583
10705SOL    HW235647   5.009   2.536  11.007 -0.5870 -0.6869 -0.5410
10706SOL     OW35648   1.749   7.949   6.541 -0.5199  0.0252 -0.3542
10706SOL    HW135649   1.804   8.021   6.572 -2.1693  1.2797 -0.1751
10706SOL    HW235650   1.738   7.892   6.617 -2.1616  1.5504  0.6354
10707SOL     OW35651   0.903   0.455   3.352 -0.6986  0.0215  0.2248
10707SOL    HW135652   0.941   0.405   3.280 -0.7704 -2.3419  1.7059
10707SOL    HW235653   0.812   0.466   3.328 -0.0796  1.9968 -1.4114
10708SOL     OW35654  10.031   8.060   0.066  0.7576 -0.1506 -0.4526
10708SOL    HW135655   9.947   8.106   0.053  0.6819 -0.4330 -0.9948
10708SOL    HW235656  10.086   8.124   0.111  0.2310  0.0193 -0.0441
10709SOL     OW35657   6.495  10.329   3.015  0.4963  0.1565  0.0093
10709SOL    HW135658   6.493  10.286   2.929  0.4634  0.4628 -0.1445
10709SOL    HW235659   6.588  10.342   3.033  0.4909  2.2457 -1.0787
10710SOL     OW35660   7.245   4.400   2.885 -0.7879 -0.1799 -0.0678
10710SOL    HW135661   7.196   4.318   2.879  0.2635 -0.8421  0.1927
10710SOL    HW235662   7.265   4.424   2.795 -1.4284  0.0086 -0.1659
10711SOL     OW35663   6.181   1.742   9.115 -0.3922  0.2475  0.4370
10711SOL    HW135664   6.217   1.786   9.192 -1.7028  1.3749  0.4420
10711SOL    HW235665   6.248   1.754   9.048  0.4042 -0.0263  1.1518
10712SOL     OW35666   8.213  10.547   6.434 -0.5405  0.5725 -0.1165
10712SOL    HW135667   8.265  10.626   6.450  0.6512 -0.0959 -0.6333
10712SOL    HW235668   8.263  10.476   6.474  0.4999 -0.5445 -3.1172
10713SOL     OW35669   5.258   1.813   6.178 -0.7302 -0.2713 -0.3096
10713SOL    HW135670   5.186   1.777   6.127 -1.8410  1.1807  0.1593
10713SOL    HW235671   5.321   1.843   6.113 -1.2199 -0.2427 -0.7799
10714SOL     OW35672   4.418   8.577  10.441 -0.2514 -0.4976  0.1635
10714SOL    HW135673   4.432   8.642  10.509  1.7795 -0.6817 -0.0322
10714SOL    HW235674   4.434   8.493  10.483 -0.1665 -0.6962 -0.2526
10715SOL     OW35675   1.596   5.946   9.467  0.2170 -0.2782 -0.2590
10715SOL    HW135676   1.614   6.038   9.490  0.3587 -0.3821  0.0606
10715SOL    HW235677   1.643   5.932   9.385  0.4179 -0.1408 -0.1676
10716SOL     OW35678   3.113   2.926   6.921  0.0759 -0.2649  0.1121
10716SOL    HW135679   3.185   2.872   6.887  0.4285  0.6776 -0.6650
10716SOL    HW235680   3.068   2.957   6.843 -0.7857 -0.3022  0.5845
10717SOL     OW35681   7.890  10.818   5.856 -0.0445  0.2128 -0.2099
10717SOL    HW135682   7.846  10.747   5.808 -1.9057  1.6441 -0.7202
10717SOL    HW235683   7.911  10.883   5.789  0.1961  0.8412  0.4609
10718SOL     OW35684   8.550   4.873   0.999 -0.0324  0.2366  0.7152
10718SOL    HW135685   8.473   4.920   0.968  1.1695  0.8869 -1.5273
10718SOL    HW235686   8.576   4.817   0.926  0.3793 -1.6536  2.2184
10719SOL     OW35687   2.986   7.542   6.968  0.2654  0.1073 -0.0196
10719SOL    HW135688   3.068   7.523   6.921  0.2301 -1.7724  0.6004
10719SOL    HW235689   2.986   7.480   7.041 -1.0026  1.1267  0.8709
10720SOL     OW35690   1.911   5.178   5.704  0.5144 -0.1683  0.6207
10720SOL    HW135691   1.873   5.250   5.755  0.0080  1.4593 -1.9172
10720SOL    HW235692   1.980   5.218   5.652  1.8621 -2.0152  0.8635
10721SOL     OW35693   9.700   8.736   5.408  0.3929 -0.2637  0.6413
10721SOL    HW135694   9.734   8.712   5.494  0.3183  0.1456  0.7924
10721SOL    HW235695   9.764   8.703   5.346  0.3302 -0.7676  0.8428
10722SOL     OW35696   0.582   6.465   8.620 -0.0221  0.0477  0.6292
10722SOL    HW135697   0.674   6.486   8.608 -0.0722 -0.0287  0.0799
10722SOL    HW235698   0.535   6.533   8.571 -0.2012 -0.9911 -0.6917
10723SOL     OW35699   6.391   7.288   4.891  0.5998  0.2218 -0.3315
10723SOL    HW135700   6.463   7.342   4.925  1.3376  1.8943 -3.9720
10723SOL    HW235701   6.315   7.314   4.943  1.4848  2.9225 -0.2232
10724SOL     OW35702   4.449   7.520   1.462 -0.4579 -0.0410  0.6739
10724SOL    HW135703   4.390   7.447   1.482 -1.3448  1.0307  2.1906
10724SOL    HW235704   4.391   7.592   1.440  0.4031  0.2961 -0.5576
10725SOL     OW35705   5.084   1.508   5.779 -0.1591  0.1605 -0.3767
10725SOL    HW135706   5.121   1.452   5.711 -0.6223 -0.2489 -0.2995
10725SOL    HW235707   5.020   1.452   5.824 -1.3061  1.0150 -0.8856
10726SOL     OW35708   0.188   1.239   3.288 -0.2052  0.9047  0.0999
10726SOL    HW135709   0.183   1.217   3.195 -0.0072  0.6562  0.1474
10726SOL    HW235710   0.147   1.326   3.295 -2.2301 -0.0119  0.1266
10727SOL     OW35711   9.820  11.080   6.817  0.4603 -0.2765 -0.5146
10727SOL    HW135712   9.777  11.031   6.747  0.3795  1.6797 -1.9259
10727SOL    HW235713   9.758  11.148   6.841  0.7343 -0.5462  1.0841
10728SOL     OW35714   9.750   7.916   4.974 -0.1770  0.8124 -0.6659
10728SOL    HW135715   9.660   7.884   4.961 -0.8216  2.3260 -0.1842
10728SOL    HW235716   9.771   7.893   5.064 -0.5917  1.6199 -0.3586
10729SOL     OW35717   6.921   3.039   6.090 -0.3129 -0.4015  0.2278
10729SOL    HW135718   6.860   3.074   6.026  0.4464 -0.8505 -0.7712
10729SOL    HW235719   7.001   3.022   6.040  0.9221  0.9419  1.6503
10730SOL     OW35720   5.795   3.766   4.860  0.3442  0.5492  0.0142
10730SOL    HW135721   5.828   3.855   4.872  0.8864  0.3082  0.3284
10730SOL    HW235722   5.703   3.771   4.888  0.6754  0.7645  1.1114
10731SOL     OW35723   4.471   2.698   5.474 -0.0368 -0.4492 -0.1462
10731SOL    HW135724   4.392   2.687   5.527 -0.6942  0.2213 -0.9618
10731SOL    HW235725   4.441   2.689   5.384  0.5788  1.0462 -0.5274
10732SOL     OW35726   4.330   4.188   9.251  0.2492  0.3559 -0.5159
10732SOL    HW135727   4.383   4.267   9.259  0.5110  0.4429 -2.5634
10732SOL    HW235728   4.394   4.118   9.235 -0.0588 -0.0942  0.1706
10733SOL     OW35729   1.580   9.784   8.846  0.1912  0.2655 -0.0976
10733SOL    HW135730   1.545   9.695   8.857  1.2047 -0.2309 -0.6912
10733SOL    HW235731   1.505   9.835   8.816 -0.4409 -0.3623  0.3675
10734SOL     OW35732   4.473   4.030   7.001  0.9814  0.4603  0.5237
10734SOL    HW135733   4.564   4.048   6.980  1.5557 -1.9762  0.6156
10734SOL    HW235734   4.476   3.981   7.083 -0.3080 -0.5642 -0.0027
10735SOL     OW35735   3.762  10.738   4.725 -0.8280 -0.5399  0.7197
10735SOL    HW135736   3.790  10.794   4.798 -0.4869  1.0645 -0.5868
10735SOL    HW235737   3.673  10.712   4.748 -0.9291  0.4125  1.4504
10736SOL     OW35738   4.719   4.845   4.705 -0.4736 -0.3869  0.6194
10736SOL    HW135739   4.717   4.756   4.668  0.1984 -0.8163  1.5700
10736SOL    HW235740   4.630   4.860   4.736 -0.5245 -0.8404  0.7074
10737SOL     OW35741   6.600   1.288   3.737  0.2510 -0.5589  0.2138
10737SOL    HW135742   6.634   1.344   3.807 -2.4047  0.5811  0.7143
10737SOL    HW235743   6.597   1.346   3.660 -2.3775  0.0894  0.6991
10738SOL     OW35744   1.822   4.573  10.889  0.4879  0.4386 -0.2079
10738SOL    HW135745   1.845   4.488  10.925 -1.3809 -0.3301 -0.7057
10738SOL    HW235746   1.886   4.587  10.819  1.2650 -0.2046  0.3563
10739SOL     OW35747   8.601   6.518   5.235  0.4214 -0.4236  0.0185
10739SOL    HW135748   8.601   6.590   5.171 -0.8056  0.2572  0.7379
10739SOL    HW235749   8.511   6.484   5.232  0.2457 -0.1458  1.5949
10740SOL     OW35750  10.124   0.978  10.688 -0.0212 -0.2881 -0.7183
10740SOL    HW135751  10.053   0.959  10.750 -0.4585 -0.0995 -1.1566
10740SOL    HW235752  10.196   1.009  10.743 -0.8584  1.2068 -0.4021
10741SOL     OW35753   3.315   0.969   5.278  1.1398 -0.2602 -0.4111
10741SOL    HW135754   3.373   0.959   5.353  0.3750 -1.0234  0.0808
10741SOL    HW235755   3.375   0.972   5.203  1.8262 -0.9387  0.0940
10742SOL     OW35756   5.158   5.216   0.416  0.0570 -0.1037  0.0969
10742SOL    HW135757   5.188   5.133   0.378  1.9452  1.0610 -1.1356
10742SOL    HW235758   5.235   5.251   0.460 -0.0073  2.0584 -1.3898
10743SOL     OW35759   7.280  10.674   6.589  0.0826 -0.4515 -0.6388
10743SOL    HW135760   7.210  10.727   6.549 -0.4807 -0.4055  0.3862
10743SOL    HW235761   7.237  10.629   6.662  1.4432  0.7415  0.9556
10744SOL     OW35762   6.646   8.711   5.685  0.3586  0.1366 -0.0389
10744SOL    HW135763   6.696   8.786   5.651  1.0596 -0.9255 -1.4367
10744SOL    HW235764   6.708   8.638   5.682 -0.3259 -0.5354  1.2757
10745SOL     OW35765   0.015   1.103   9.010 -0.0726  0.2973  0.1908
10745SOL    HW135766   0.039   1.146   9.092  0.5151  1.5019 -0.5792
10745SOL    HW235767  -0.033   1.170   8.961 -0.2113 -0.3312 -0.5475
10746SOL     OW35768   6.876   0.436   3.594  0.1925  0.0983 -0.6284
10746SOL    HW135769   6.836   0.507   3.644  0.9116  0.7661 -0.9745
10746SOL    HW235770   6.926   0.386   3.660 -2.5936 -1.8634  0.1654
10747SOL     OW35771   6.847   8.819   9.654 -0.5676  0.5982  0.9052
10747SOL    HW135772   6.927   8.797   9.606 -0.4722 -0.2802  1.4316
10747SOL    HW235773   6.788   8.745   9.638 -0.9025  0.7709  1.3171
10748SOL     OW35774   1.302   5.426   4.169  0.9554  0.4032  0.5187
10748SOL    HW135775   1.313   5.370   4.246 -1.2308 -1.4270 -0.3758
10748SOL    HW235776   1.250   5.499   4.201  1.0238  0.2436  1.0108
10749SOL     OW35777   5.432   0.129   7.446  0.0351 -0.0718 -0.2366
10749SOL    HW135778   5.408   0.068   7.377 -1.4531  0.3601 -0.1210
10749SOL    HW235779   5.354   0.182   7.461  0.3369 -0.0814  1.7050
10750SOL     OW35780   9.164   5.949   3.539 -0.0424  0.0108 -0.0337
10750SOL    HW135781   9.164   6.004   3.617 -1.4510  0.0702 -0.0625
10750SOL    HW235782   9.089   5.892   3.549  0.5852 -0.9569 -0.6834
10751SOL     OW35783   5.330   7.168   4.766 -0.5056 -0.0775 -0.2289
10751SOL    HW135784   5.343   7.237   4.830 -1.2677 -0.2023  0.0794
10751SOL    HW235785   5.247   7.127   4.792  0.6290 -2.0555  0.4845
10752SOL     OW35786   1.315   2.292   0.907  0.0643  0.1641  0.2766
10752SOL    HW135787   1.254   2.326   0.841  1.0916 -0.6373 -1.1469
10752SOL    HW235788   1.277   2.208   0.934  0.5544 -0.3942 -0.7012
10753SOL     OW35789   0.725   1.033   5.183 -0.0247  0.4044  0.1612
10753SOL    HW135790   0.770   0.975   5.121 -0.3302  0.6287 -0.2745
10753SOL    HW235791   0.641   1.053   5.141 -0.4329  0.1940  0.8528
10754SOL     OW35792   1.650   5.662   4.557  0.1071 -0.3391 -0.6391
10754SOL    HW135793   1.570   5.694   4.516  0.5074  0.2435 -0.9817
10754SOL    HW235794   1.709   5.737   4.556 -0.3104  0.1528  2.2467
10755SOL     OW35795   6.295   0.940   2.338 -0.4114 -0.0753  0.6071
10755SOL    HW135796   6.360   0.993   2.290 -0.7436  1.0171  1.3297
10755SOL    HW235797   6.259   0.882   2.272  1.3254 -0.7427  0.1818
10756SOL     OW35798   7.691  10.750   2.873  0.1426 -0.0396  0.0408
10756SOL    HW135799   7.624  10.816   2.893  1.4937  1.1381  0.8187
10756SOL    HW235800   7.753  10.796   2.816  0.5713 -0.9623 -0.2491
10757SOL     OW35801   7.099   4.181   3.397 -0.4882  0.4002 -0.0607
10757SOL    HW135802   7.150   4.100   3.402 -1.8874 -0.6142 -1.2867
10757SOL    HW235803   7.164   4.250   3.385  0.6458 -0.7327 -0.6424
10758SOL     OW35804   8.068   5.991   5.912  0.6363 -0.5182  0.2555
10758SOL    HW135805   8.027   5.940   5.983  0.6579 -1.2784 -0.2628
10758SOL    HW235806   8.161   5.971   5.919  0.4850 -1.7416 -0.8538
10759SOL     OW35807   2.371   5.495   7.794  0.3859  0.2626 -0.1083
10759SOL    HW135808   2.456   5.457   7.815  0.2033 -0.2502 -0.2863
10759SOL    HW235809   2.368   5.498   7.698  0.0585 -0.0684 -0.1134
10760SOL     OW35810   6.923   3.973   2.917  0.2201 -0.0041 -0.1732
10760SOL    HW135811   6.916   3.881   2.893  0.1610  0.0992 -0.5491
10760SOL    HW235812   6.833   4.002   2.929  0.1309  0.4365 -1.6963
10761SOL     OW35813   5.289   6.732   1.910 -0.5133  0.4331 -0.2328
10761SOL    HW135814   5.299   6.826   1.926  1.3584  0.2453 -0.1107
10761SOL    HW235815   5.368   6.693   1.947 -0.4790 -1.0111 -1.7304
10762SOL     OW35816   8.296   3.649   9.131 -0.1887  0.2604  0.8116
10762SOL    HW135817   8.228   3.593   9.171  1.1109 -0.9632  1.3907
10762SOL    HW235818   8.256   3.680   9.050 -2.2858  1.4310  2.2019
10763SOL     OW35819   5.495   6.843   2.626  0.2384 -0.0428 -0.1271
10763SOL    HW135820   5.550   6.776   2.667  3.3099  1.4203 -1.4842
10763SOL    HW235821   5.509   6.921   2.679 -2.6023 -0.1639  0.9230
10764SOL     OW35822   4.756   8.093   2.657  0.1811 -0.1284  0.3134
10764SOL    HW135823   4.758   8.150   2.734 -1.7203  0.6177 -0.1122
10764SOL    HW235824   4.788   8.149   2.586  2.2234 -0.9077  0.5551
10765SOL     OW35825   0.321   0.982   3.328  0.0681 -0.0897 -0.1315
10765SOL    HW135826   0.298   1.074   3.341 -0.6719 -0.2371 -0.3348
10765SOL    HW235827   0.408   0.984   3.288 -0.7554  0.6054 -1.9766
10766SOL     OW35828   1.991   5.879   2.360  0.1650 -0.4029 -0.0921
10766SOL    HW135829   1.999   5.942   2.432 -0.9382  0.9135 -1.0540
10766SOL    HW235830   2.075   5.835   2.357  0.7062  0.4757  1.1199
10767SOL     OW35831   9.682  10.710   8.395  0.4115 -0.6613  0.2415
10767SOL    HW135832   9.607  10.703   8.336 -1.9820  0.7181  2.8786
10767SOL    HW235833   9.668  10.642   8.460 -0.3809  1.5795  2.5540
10768SOL     OW35834   9.450  10.983   3.810  0.6327 -0.5354  0.3318
10768SOL    HW135835   9.428  10.911   3.868 -0.2976  0.0031  0.6603
10768SOL    HW235836   9.378  11.045   3.820  0.2020 -0.6164 -1.7066
10769SOL     OW35837   5.946   4.235   7.107  0.1830  0.4861  0.1907
10769SOL    HW135838   5.894   4.155   7.099 -0.1442  0.8411 -1.5456
10769SOL    HW235839   5.997   4.222   7.187  0.3826 -1.5984 -0.2151
10770SOL     OW35840   3.006   7.298   7.928  0.0298  0.2025  0.2236
10770SOL    HW135841   2.942   7.325   7.994 -1.2524 -1.6093 -0.1938
10770SOL    HW235842   3.055   7.227   7.970  0.7004  0.5018 -0.0289
10771SOL     OW35843   2.063   9.336  10.504 -0.4266 -0.8772 -0.2492
10771SOL    HW135844   2.058   9.297  10.417  1.9354 -1.6513 -0.0992
10771SOL    HW235845   2.081   9.263  10.562  0.1363 -0.0857  0.6015
10772SOL     OW35846   0.750   4.740   3.604 -0.3196  0.5421 -0.4464
10772SOL    HW135847   0.797   4.677   3.658 -1.9090 -0.0980  0.2511
10772SOL    HW235848   0.672   4.762   3.655 -2.6652 -1.1853 -3.0388
10773SOL     OW35849   6.074   0.234   6.707 -0.1709  0.3266  0.0583
10773SOL    HW135850   6.039   0.162   6.760 -2.0650  1.6788  0.7666
10773SOL    HW235851   6.139   0.193   6.650 -0.2051 -1.6887  1.3818
10774SOL     OW35852  10.619   6.256   2.652  0.1623  0.4656 -0.5536
10774SOL    HW135853  10.592   6.229   2.739  0.7183 -0.7482 -0.7382
10774SOL    HW235854  10.541   6.298   2.614 -0.4166  0.0044  0.1185
10775SOL     OW35855   0.563   9.405  11.090 -0.8795  0.2748 -0.3968
10775SOL    HW135856   0.523   9.427  11.174 -0.0434  0.9681 -0.1626
10775SOL    HW235857   0.653   9.379  11.113 -1.7060 -3.3514 -0.6608
10776SOL     OW35858   3.740   0.665   2.519 -0.0538  0.5471  0.2095
10776SOL    HW135859   3.698   0.705   2.443  3.1667  3.5632 -0.2369
10776SOL    HW235860   3.693   0.701   2.595 -1.3521 -0.1047 -0.2531
10777SOL     OW35861   9.150   8.119   6.316 -0.0872  0.2325 -0.1140
10777SOL    HW135862   9.164   8.072   6.234  3.2250  0.9761 -0.0984
10777SOL    HW235863   9.227   8.175   6.326 -0.7486  0.7902  3.0961
10778SOL     OW35864   5.510   6.536   7.140 -0.4225  0.3101  0.5030
10778SOL    HW135865   5.495   6.447   7.172  1.5007 -0.0126  0.6364
10778SOL    HW235866   5.461   6.540   7.058  0.1779 -1.1973  0.0282
10779SOL     OW35867   4.425   3.067   6.733  0.3504  0.6892  0.0393
10779SOL    HW135868   4.392   3.093   6.647  0.1345  0.2426 -0.0187
10779SOL    HW235869   4.436   3.149   6.781  0.1738  0.9174 -0.3069
10780SOL     OW35870   3.762   2.767   5.404 -0.0684  0.5782 -0.3144
10780SOL    HW135871   3.736   2.738   5.317 -2.2645  0.9973  0.1537
10780SOL    HW235872   3.772   2.862   5.395  1.4424  0.4278 -0.4867
10781SOL     OW35873   7.779   6.700   8.725  0.1414 -0.2362  0.3258
10781SOL    HW135874   7.822   6.700   8.810  0.4147 -0.7600  0.1910
10781SOL    HW235875   7.725   6.780   8.725  1.5422  0.7519  0.2816
10782SOL     OW35876   1.380   8.953   2.671  0.3729  0.5936  0.5890
10782SOL    HW135877   1.415   9.041   2.684 -0.7513  1.2075 -0.3737
10782SOL    HW235878   1.452   8.904   2.632  0.5942  1.4800 -0.1561
10783SOL     OW35879   5.646   4.808   8.847 -0.1674 -0.0581 -0.3286
10783SOL    HW135880   5.611   4.772   8.928  1.3696 -1.0109 -0.0405
10783SOL    HW235881   5.607   4.895   8.840  0.0145  0.2327  1.6683
10784SOL     OW35882   6.693   9.147   5.181 -0.4172  0.4659 -0.1973
10784SOL    HW135883   6.599   9.136   5.190 -0.7412  0.8969 -2.4988
10784SOL    HW235884   6.709   9.237   5.210 -1.0929  1.1495 -1.8121
10785SOL     OW35885  10.985   2.591   7.834 -0.7223 -0.3958 -0.1799
10785SOL    HW135886  10.895   2.612   7.808 -0.8239 -1.0756 -0.3991
10785SOL    HW235887  11.036   2.668   7.808 -1.2578  0.0565  0.0776
10786SOL     OW35888   2.759   7.644   6.190 -0.3804 -0.2057 -0.2359
10786SOL    HW135889   2.669   7.669   6.168  0.0235  0.6102 -1.0379
10786SOL    HW235890   2.761   7.550   6.177 -0.2419  0.1588 -3.6723
10787SOL     OW35891   1.147   6.838   0.605 -0.4736 -0.1084  0.0744
10787SOL    HW135892   1.091   6.792   0.544 -1.9786  0.2219  1.1447
10787SOL    HW235893   1.121   6.930   0.597  1.5326  0.4182 -1.0455
10788SOL     OW35894   6.167   1.819   7.618 -0.1150 -0.3061 -0.1434
10788SOL    HW135895   6.151   1.806   7.524 -0.7554  0.4285 -0.1436
10788SOL    HW235896   6.102   1.765   7.662 -0.1767 -0.2135 -0.1213
10789SOL     OW35897   6.162   0.733   6.606 -0.3611  0.0280  0.2388
10789SOL    HW135898   6.093   0.667   6.599  0.9489 -1.3400 -0.4933
10789SOL    HW235899   6.117   0.812   6.634 -1.9980 -1.1668  1.1582
10790SOL     OW35900   9.678   2.467   2.667  0.1756  0.3755 -0.1107
10790SOL    HW135901   9.668   2.507   2.580  0.8083 -0.1527 -0.4387
10790SOL    HW235902   9.648   2.535   2.728 -2.9333 -0.2118 -0.8261
10791SOL     OW35903   5.653   7.002   6.797  0.0163  0.1703  0.0435
10791SOL    HW135904   5.619   7.087   6.770 -0.7729  0.2158  1.1070
10791SOL    HW235905   5.715   6.978   6.728 -2.0966  0.1165 -1.9566
10792SOL     OW35906   6.792   4.389   2.890  0.2907 -0.4243  0.0499
10792SOL    HW135907   6.810   4.319   2.827 -2.2776 -0.4021 -0.7978
10792SOL    HW235908   6.704   4.372   2.922  0.8835  0.5516  2.4083
10793SOL     OW35909   3.876   5.230   9.349 -0.3048 -0.0456 -0.0261
10793SOL    HW135910   3.969   5.215   9.369 -0.6767 -0.3099  1.7049
10793SOL    HW235911   3.857   5.170   9.278  0.8783  0.1122 -0.5091
10794SOL     OW35912   4.881   4.135   0.532  0.1824 -0.6224  0.3250
10794SOL    HW135913   4.897   4.060   0.590  0.4088 -0.7591  0.0908
10794SOL    HW235914   4.833   4.197   0.586  1.0658 -0.4193  0.8985
10795SOL     OW35915   1.807   5.787   0.109 -0.1867  0.0472 -0.1034
10795SOL    HW135916   1.805   5.867   0.057 -1.5398 -0.2299 -0.5050
10795SOL    HW235917   1.731   5.794   0.167 -1.0031 -1.4365 -0.9303
10796SOL     OW35918  10.436   9.036   1.055  0.1555  0.6669 -0.1117
10796SOL    HW135919  10.484   8.961   1.089  1.5865  1.9144  0.7497
10796SOL    HW235920  10.371   9.055   1.123 -1.8768 -1.1970 -1.4055
10797SOL     OW35921   7.360   6.762  10.142  0.3306  0.5800 -0.2370
10797SOL    HW135922   7.445   6.789  10.108  0.8827 -1.4054 -0.5371
10797SOL    HW235923   7.355   6.668  10.125 -0.5810  0.0060  2.5865
10798SOL     OW35924   2.650   9.823   2.150 -0.3934 -0.4781  0.1826
10798SOL    HW135925   2.628   9.809   2.058  1.4511  0.0678 -0.3914
10798SOL    HW235926   2.691   9.910   2.152 -0.0023 -0.6663  1.4443
10799SOL     OW35927   2.002   6.616   6.833 -0.6264 -0.1847 -0.2504
10799SOL    HW135928   2.049   6.696   6.812  0.0366 -0.9388 -1.7648
10799SOL    HW235929   1.947   6.640   6.908  0.7865  1.2138  0.4052
10800SOL     OW35930   7.887   0.895   3.781 -0.2298 -0.0803  0.6888
10800SOL    HW135931   7.881   0.805   3.748  1.5804  0.3770 -1.0664
10800SOL    HW235932   7.878   0.886   3.876 -0.1991 -2.0966  0.5478
10801SOL     OW35933   3.354   7.387   3.884 -0.8596 -0.1832 -0.3149
10801SOL    HW135934   3.308   7.454   3.935  0.1343 -1.0860  1.8949
10801SOL    HW235935   3.423   7.435   3.838 -0.8806  0.4611  0.3139
10802SOL     OW35936   9.834   2.607  10.202  0.1264  0.0343 -0.3716
10802SOL    HW135937   9.795   2.598  10.289 -0.2390 -0.0908 -0.5482
10802SOL    HW235938   9.794   2.686  10.166  1.0455  0.6740 -0.0264
10803SOL     OW35939   1.071   3.911  10.374 -0.0559  0.2998  0.0902
10803SOL    HW135940   1.060   3.909  10.469 -0.9710 -0.5063 -0.0158
10803SOL    HW235941   1.162   3.938  10.360 -0.0301  0.8035  1.1815
10804SOL     OW35942   7.878   9.730   1.570  0.2641  0.1130 -0.0347
10804SOL    HW135943   7.812   9.733   1.640  0.4794  0.3849  0.1578
10804SOL    HW235944   7.842   9.786   1.501  1.0648  1.6455  0.7529
10805SOL     OW35945   9.729   8.912   3.621  0.6907  0.0060  0.2417
10805SOL    HW135946   9.680   8.971   3.563  2.6467  0.8123 -0.6858
10805SOL    HW235947   9.685   8.828   3.613 -1.6039  1.0789  0.8609
10806SOL     OW35948   1.369   8.689   1.487 -0.3968 -0.2282 -0.4707
10806SOL    HW135949   1.395   8.599   1.506 -2.9244 -0.8708  0.3278
10806SOL    HW235950   1.340   8.686   1.395 -1.3601 -0.4788 -0.1682
10807SOL     OW35951   2.628   7.695   3.008 -0.1960 -0.1998 -0.6374
10807SOL    HW135952   2.684   7.760   3.049  1.1130 -1.3973 -0.4225
10807SOL    HW235953   2.601   7.734   2.925  0.4360  0.6629 -0.4427
10808SOL     OW35954   6.045  10.226   9.610 -0.3325  0.4232  0.5387
10808SOL    HW135955   6.083  10.166   9.546 -0.6893  1.1281 -0.3466
10808SOL    HW235956   6.038  10.310   9.564 -1.7212  0.6377  1.0907
10809SOL     OW35957   1.899   9.529   5.295  1.1747  0.1316 -0.1997
10809SOL    HW135958   1.890   9.570   5.380  0.3941 -0.1547 -0.1311
10809SOL    HW235959   1.933   9.441   5.314  0.7877 -0.0100 -0.1651
10810SOL     OW35960   4.849   7.137   2.158  0.1807  0.0720  0.4393
10810SOL    HW135961   4.807   7.187   2.088  0.6609  1.2932  1.0034
10810SOL    HW235962   4.834   7.189   2.237  1.6774 -0.0834  0.8517
10811SOL     OW35963   5.172   4.039   8.106 -0.0957 -0.1445 -0.1393
10811SOL    HW135964   5.123   3.957   8.098 -1.1912  0.3304  1.3110
10811SOL    HW235965   5.155   4.084   8.023 -3.2062  0.5414  0.7454
10812SOL     OW35966   3.938   8.500  10.566 -0.3931 -0.5419  0.2518
10812SOL    HW135967   4.007   8.452  10.613  0.7481 -0.8800 -1.6556
10812SOL    HW235968   3.971   8.590  10.560  0.5393 -0.9553 -1.7088
10813SOL     OW35969   9.053   2.132   3.151  0.3376 -0.0551  0.3566
10813SOL    HW135970   8.960   2.137   3.174 -0.2187 -1.0520 -1.5397
10813SOL    HW235971   9.064   2.200   3.084  0.7888 -0.5081 -0.0271
10814SOL     OW35972   7.224   1.102   6.032  0.2035  0.4726 -0.0538
10814SOL    HW135973   7.275   1.105   5.951  0.5205  2.1641  0.1492
10814SOL    HW235974   7.134   1.089   6.004  0.3485  0.7392 -0.6676
10815SOL     OW35975   0.380   9.867   1.826  0.0889  0.3545  0.3165
10815SOL    HW135976   0.311   9.848   1.890  0.1853  1.3375  0.7329
10815SOL    HW235977   0.377   9.794   1.765 -0.6271 -0.1381  0.9258
10816SOL     OW35978   0.529   5.411  10.180  0.6766  0.0870  0.1785
10816SOL    HW135979   0.446   5.431  10.224  0.3859 -1.2506  0.2719
10816SOL    HW235980   0.504   5.395  10.089  1.0367  1.0457 -0.1051
10817SOL     OW35981   6.462  11.125   0.077  0.2821 -0.4603 -0.1374
10817SOL    HW135982   6.428  11.045   0.037  0.3487 -0.8295  0.5344
10817SOL    HW235983   6.384  11.179   0.092  0.2138 -0.4846 -0.3998
10818SOL     OW35984   2.261   1.331   6.901 -0.3199  0.4252  0.0331
10818SOL    HW135985   2.347   1.296   6.923 -0.3108 -0.2426 -1.0185
10818SOL    HW235986   2.277   1.420   6.873 -0.0132  0.4070  0.1531
10819SOL     OW35987   9.164  10.985   8.942  0.0127 -0.2233  0.0535
10819SOL    HW135988   9.255  10.993   8.968  0.7579  0.6117 -2.5549
10819SOL    HW235989   9.119  10.953   9.021  2.4052 -0.0283  1.5815
10820SOL     OW35990   6.004   2.092   9.136  0.3240 -0.4680  0.4042
10820SOL    HW135991   6.006   2.099   9.232 -0.7670 -0.2721  0.4251
10820SOL    HW235992   5.941   2.159   9.109 -0.2767 -1.3206 -0.3564
10821SOL     OW35993   9.758   3.916   7.773  0.0303 -0.5103 -0.1246
10821SOL    HW135994   9.770   3.873   7.858 -1.2228 -1.8224 -0.5743
10821SOL    HW235995   9.735   3.845   7.713 -0.4802  0.5797 -1.2719
10822SOL     OW35996   3.473   3.091   1.675 -0.4663  0.1176 -0.2886
10822SOL    HW135997   3.438   3.165   1.626 -0.3086  0.9069  0.7473
10822SOL    HW235998   3.498   3.027   1.608 -1.0916  0.7807 -1.1757
10823SOL     OW35999   5.777   8.596   3.169  0.8135  0.5653 -0.4669
10823SOL    HW136000   5.817   8.682   3.186 -0.2724  0.9011  0.5668
10823SOL    HW236001   5.815   8.539   3.236  0.1120  0.7142  0.0659
10824SOL     OW36002   4.229  10.346   2.760  0.4703 -0.3454 -0.4045
10824SOL    HW136003   4.286  10.299   2.820  1.3758  2.1852  0.8901
10824SOL    HW236004   4.289  10.398   2.706 -0.4924 -0.1164 -1.2982
10825SOL     OW36005   2.253   4.922   8.802  0.1999 -0.0068  0.0646
10825SOL    HW136006   2.314   4.849   8.787  0.3826  0.1827 -0.1322
10825SOL    HW236007   2.167   4.885   8.785  0.2836 -0.2056  0.0653
10826SOL     OW36008   8.894   5.193   2.924 -0.1719 -0.0674  0.8231
10826SOL    HW136009   8.960   5.226   2.864  0.3046 -0.4978  1.1048
10826SOL    HW236010   8.870   5.269   2.977  1.2159 -0.2324  1.7407
10827SOL     OW36011   8.396   8.139   9.303  0.3189 -0.2572 -0.2462
10827SOL    HW136012   8.470   8.077   9.300  0.4196 -0.3051  1.6772
10827SOL    HW236013   8.357   8.134   9.216  1.0842 -2.1079 -0.5428
10828SOL     OW36014   1.333   2.300   6.272 -0.9510 -0.7945 -0.3031
10828SOL    HW136015   1.395   2.354   6.320  0.2944 -0.1338 -2.4953
10828SOL    HW236016   1.257   2.356   6.260 -0.2853 -0.0333 -1.1925
10829SOL     OW36017   8.437   9.276   4.743 -0.1638  0.3729  0.1494
10829SOL    HW136018   8.464   9.280   4.834 -0.0396  1.4810  0.0791
10829SOL    HW236019   8.513   9.306   4.694  0.3389 -1.7209 -0.4713
10830SOL     OW36020   6.272  10.347   6.585 -0.1277  0.3991 -0.2681
10830SOL    HW136021   6.185  10.385   6.592 -0.0409  0.3775  1.4540
10830SOL    HW236022   6.281  10.294   6.665  1.6651  0.8471 -0.1303
10831SOL     OW36023   2.071   0.198   0.571 -0.6278  0.3293 -0.0060
10831SOL    HW136024   1.979   0.216   0.552 -2.1392 -2.8927  3.1177
10831SOL    HW236025   2.086   0.237   0.658  0.2163 -1.0288  0.5026
10832SOL     OW36026   5.916   2.222   9.537 -0.5768 -0.1948 -0.0217
10832SOL    HW136027   5.869   2.227   9.454  0.4555  0.5431 -0.5807
10832SOL    HW236028   5.972   2.145   9.529 -0.4884 -0.1325 -0.0049
10833SOL     OW36029   9.900   5.679  10.331  0.5593 -0.6691 -0.0342
10833SOL    HW136030   9.840   5.632  10.273 -0.2677  1.5161 -1.0449
10833SOL    HW236031   9.904   5.625  10.410 -1.5642 -1.6520 -0.5231
10834SOL     OW36032   4.723   5.799   0.639 -0.0364  0.0498  0.1105
10834SOL    HW136033   4.675   5.794   0.721  1.1827 -0.5823  0.8104
10834SOL    HW236034   4.752   5.890   0.633  2.0711 -0.4398  1.7234
10835SOL     OW36035   9.310   5.597   2.057  0.3439  0.4142 -0.5759
10835SOL    HW136036   9.379   5.540   2.092  0.4200  1.1493  0.5327
10835SOL    HW236037   9.352   5.683   2.051  0.4044  0.2857 -2.7585
10836SOL     OW36038   9.904   5.893   5.847  0.2226  0.2560 -0.6573
10836SOL    HW136039   9.867   5.981   5.834  0.3391  0.2514 -1.0272
10836SOL    HW236040   9.998   5.907   5.857  0.2248  0.1853 -0.5733
10837SOL     OW36041   8.892  10.238   5.155  0.1434  0.2169 -0.1225
10837SOL    HW136042   8.870  10.305   5.091 -0.4048 -0.4052 -0.5972
10837SOL    HW236043   8.823  10.244   5.221 -0.2991 -0.3360 -0.5265
10838SOL     OW36044   7.354   6.035   3.264 -0.0852  0.1337  0.5732
10838SOL    HW136045   7.408   5.959   3.282 -0.6943 -0.2872  0.6364
10838SOL    HW236046   7.278   6.000   3.217  0.2736  0.8692 -0.6152
10839SOL     OW36047  11.016   9.623   4.343  0.4661 -0.2835 -0.0196
10839SOL    HW136048  11.057   9.540   4.363  2.4830  0.2803 -1.4729
10839SOL    HW236049  11.016   9.627   4.247 -2.2327  0.1746 -0.0895
10840SOL     OW36050   9.233   6.587   8.686 -0.0354 -0.7356  0.1747
10840SOL    HW136051   9.328   6.595   8.695  0.1525 -2.4507  0.0472
10840SOL    HW236052   9.197   6.642   8.756  0.9793  1.0646 -0.6425
10841SOL     OW36053   7.858   3.021  10.387 -0.4532 -0.1809  0.2391
10841SOL    HW136054   7.927   2.996  10.326 -2.1476  1.6550 -2.6436
10841SOL    HW236055   7.801   2.944  10.393 -0.5235 -0.2442 -0.9593
10842SOL     OW36056   5.922   6.740   2.847 -0.0551 -0.3518 -0.1791
10842SOL    HW136057   6.012   6.711   2.861 -0.1511 -0.8032 -0.4985
10842SOL    HW236058   5.923   6.833   2.871  0.7567 -0.0635 -1.2755
10843SOL     OW36059   6.135   2.969   9.119 -0.0773  0.1015 -0.5250
10843SOL    HW136060   6.184   3.013   9.189  0.3270  1.8767 -1.8285
10843SOL    HW236061   6.066   3.031   9.096  0.3217 -0.0570 -2.2514
10844SOL     OW36062   2.633   8.625   6.079 -0.1152 -0.4954 -0.2833
10844SOL    HW136063   2.674   8.634   6.166 -1.3373  0.5599  0.2134
10844SOL    HW236064   2.558   8.683   6.082 -1.1008 -1.6486 -1.5215
10845SOL     OW36065  10.130   6.380   6.305 -0.0000 -0.0444 -0.6184
10845SOL    HW136066  10.206   6.426   6.271 -0.5321  0.7444 -0.7571
10845SOL    HW236067  10.077   6.448   6.347  0.6968 -0.9797  1.9863
10846SOL     OW36068   0.697   8.498   4.431 -0.3276  0.3426 -0.1239
10846SOL    HW136069   0.699   8.558   4.356 -0.1528  0.9171  0.3296
10846SOL    HW236070   0.782   8.455   4.430 -0.8075 -0.6261 -1.0181
10847SOL     OW36071   0.809   0.967   3.066  0.4468  0.2611 -0.6795
10847SOL    HW136072   0.868   0.990   3.137 -0.5150 -1.7358  0.8700
10847SOL    HW236073   0.859   0.986   2.986  2.3169  0.7029  0.5264
10848SOL     OW36074   4.863   6.512   2.449  0.5087 -0.9092 -0.3580
10848SOL    HW136075   4.917   6.544   2.377 -1.3117 -1.3557 -2.0101
10848SOL    HW236076   4.805   6.585   2.470 -0.7571 -1.6165 -1.2216
10849SOL     OW36077   8.032   1.212   0.923  0.2785 -0.6344  0.0396
10849SOL    HW136078   8.118   1.170   0.929  0.6594  0.0679 -0.3299
10849SOL    HW236079   7.970   1.141   0.931  0.8099 -0.8972  3.2066
10850SOL     OW36080   2.804   8.887   5.688 -0.4143 -0.1761  0.4124
10850SOL    HW136081   2.765   8.928   5.610 -0.5011 -2.4382 -0.8123
10850SOL    HW236082   2.730   8.876   5.748 -1.1068 -1.5501 -0.6276
10851SOL     OW36083   6.739  10.775   6.265  0.4106  0.3856 -0.3157
10851SOL    HW136084   6.699  10.861   6.280 -0.9838 -0.3058  0.0825
10851SOL    HW236085   6.735  10.764   6.170 -1.8547 -0.3162 -0.2046
10852SOL     OW36086   4.686   9.977   3.273 -0.2041 -0.2612 -0.1635
10852SOL    HW136087   4.677   9.894   3.320  0.0538  0.3284  0.9799
10852SOL    HW236088   4.692  10.043   3.343  0.2781  0.6452 -1.0356
10853SOL     OW36089   4.363   4.755   9.803 -0.0178 -0.5374 -0.4938
10853SOL    HW136090   4.451   4.732   9.833  0.0215 -2.0193 -1.6106
10853SOL    HW236091   4.338   4.683   9.745 -1.5156  0.4215 -1.1008
10854SOL     OW36092   5.566   4.965   4.610 -0.3535 -0.1707 -0.3684
10854SOL    HW136093   5.502   5.031   4.583  0.7529  1.2646  0.3681
10854SOL    HW236094   5.515   4.885   4.620 -2.5272  1.3420  2.2757
10855SOL     OW36095   7.734   9.855   3.178 -0.2146 -0.0062 -0.3022
10855SOL    HW136096   7.714   9.800   3.101 -1.4443 -1.7503  1.1744
10855SOL    HW236097   7.725   9.795   3.252  3.3746  0.9667  1.1254
10856SOL     OW36098   3.848   3.785   7.576 -0.1080 -0.3715  0.0453
10856SOL    HW136099   3.881   3.800   7.487  0.5677  1.6686  0.5809
10856SOL    HW236100   3.762   3.744   7.564 -1.0373  1.9016 -1.6465
10857SOL     OW36101   7.887   4.002   5.702  0.0390  0.5288 -0.1993
10857SOL    HW136102   7.962   3.950   5.673 -0.6465 -0.7547  0.2400
10857SOL    HW236103   7.811   3.949   5.679 -0.8351  2.2694 -1.6014
10858SOL     OW36104  10.002   4.575   1.961  0.5981 -0.0259 -0.4636
10858SOL    HW136105  10.073   4.630   1.995  0.2353 -0.7577  1.6110
10858SOL    HW236106   9.993   4.505   2.025 -1.5009 -0.3887 -1.0879
10859SOL     OW36107   9.960   0.137   2.060  0.0209  0.1022 -0.1410
10859SOL    HW136108  10.007   0.202   2.113  0.6366 -0.7050  0.3136
10859SOL    HW236109  10.020   0.115   1.989  0.2160 -0.7160  0.2749
10860SOL     OW36110   6.520   2.143   8.765  0.4887  0.6796 -0.5592
10860SOL    HW136111   6.447   2.158   8.704 -0.0011 -0.0075 -0.1645
10860SOL    HW236112   6.544   2.229   8.797 -0.1774  0.9131 -0.6759
10861SOL     OW36113   0.389   8.876   8.191  0.4898 -0.2061 -0.5703
10861SOL    HW136114   0.483   8.877   8.211  0.3595  1.1829  0.1034
10861SOL    HW236115   0.365   8.784   8.191  1.3456 -0.4956  1.8607
10862SOL     OW36116  10.440  10.788   3.776  0.3338  0.3591 -0.4858
10862SOL    HW136117  10.515  10.729   3.772  0.5385  0.5590  0.1865
10862SOL    HW236118  10.470  10.870   3.736  0.4002  0.3634 -0.4268
10863SOL     OW36119   7.692   8.159   2.228 -0.1222  0.0351  0.2291
10863SOL    HW136120   7.773   8.176   2.181 -0.8840  0.3842 -1.0061
10863SOL    HW236121   7.634   8.120   2.162 -1.4072  1.0412  0.7223
10864SOL     OW36122   1.051   0.489   6.150 -0.3642 -0.1007  0.2609
10864SOL    HW136123   1.119   0.515   6.212  0.9792  0.7987 -1.5194
10864SOL    HW236124   1.006   0.416   6.193 -0.5387  1.4518  2.9564
10865SOL     OW36125   4.040   9.199   4.137  0.1153  0.2658  0.3112
10865SOL    HW136126   3.958   9.242   4.160 -0.2486 -0.1527 -0.1731
10865SOL    HW236127   4.020   9.150   4.057  0.3514 -1.2983  1.1712
10866SOL     OW36128   0.029   8.649   0.142  0.2949 -0.0889 -0.2006
10866SOL    HW136129   0.060   8.688   0.061 -0.8337  0.2588 -0.4905
10866SOL    HW236130   0.064   8.705   0.211  1.5742 -0.5995 -0.4089
10867SOL     OW36131   4.044   4.618   3.806  0.2644 -0.0833  0.3058
10867SOL    HW136132   4.000   4.533   3.816 -1.0059  0.3517 -1.1719
10867SOL    HW236133   4.034   4.659   3.892 -0.3605 -0.8572  0.6254
10868SOL     OW36134  11.123   0.004   6.887  0.3019 -0.1115 -0.1691
10868SOL    HW136135  11.125   0.070   6.818  0.4283  0.6899  0.5822
10868SOL    HW236136  11.154  -0.076   6.844  0.1966  0.3206 -1.0823
10869SOL     OW36137   7.947   5.030   9.245  0.4976  0.1079  0.8178
10869SOL    HW136138   7.952   5.074   9.161  1.6510  1.2764  1.4540
10869SOL    HW236139   7.911   4.943   9.225 -1.2018  1.0684 -0.5596
10870SOL     OW36140   5.934   8.832   7.535  0.1807 -0.5411  0.1735
10870SOL    HW136141   5.950   8.847   7.628  0.8903 -0.8288  0.1021
10870SOL    HW236142   5.973   8.747   7.517 -0.8263 -0.9374 -0.1757
10871SOL     OW36143   5.499   7.900   1.007 -0.3515 -0.1310  0.1753
10871SOL    HW136144   5.404   7.901   1.009 -0.3916 -1.1914  2.2988
10871SOL    HW236145   5.522   7.904   0.914 -2.4956 -1.5460 -0.4924
10872SOL     OW36146   2.054  11.052   9.786  0.0085  0.4813 -0.6036
10872SOL    HW136147   2.063  11.129   9.842 -0.5706 -0.0830  0.3014
10872SOL    HW236148   1.960  11.042   9.773 -0.1289 -1.4560  1.3394
10873SOL     OW36149   9.789   9.331   8.536  0.4904 -0.1100 -0.3858
10873SOL    HW136150   9.803   9.424   8.520 -0.8503  0.0791 -0.6060
10873SOL    HW236151   9.854   9.308   8.602  0.9111  0.9526 -0.4047
10874SOL     OW36152   0.847   9.625   7.808 -0.7440  0.9610 -0.4440
10874SOL    HW136153   0.933   9.597   7.776 -0.4985 -0.7597  1.5688
10874SOL    HW236154   0.800   9.544   7.827 -1.4648  1.8420  1.9138
10875SOL     OW36155  11.101   9.205   7.915 -0.2689 -0.1722 -0.1273
10875SOL    HW136156  11.081   9.179   8.005  1.8921 -0.8695  0.2295
10875SOL    HW236157  11.145   9.290   7.924  0.5500 -0.5478 -0.4234
10876SOL     OW36158   9.494   7.628   7.607  0.4812 -1.1090 -0.4490
10876SOL    HW136159   9.473   7.684   7.681  0.1958  1.1136 -2.1197
10876SOL    HW236160   9.587   7.645   7.590  0.2880 -0.7766 -1.2317
10877SOL     OW36161   3.961  10.089   6.033 -0.3848 -0.8506  0.3974
10877SOL    HW136162   3.874  10.080   5.994  0.5241  1.8463 -2.7535
10877SOL    HW236163   3.954  10.165   6.091 -0.5180 -1.7317  1.5564
10878SOL     OW36164   0.011   9.435   2.364  0.0655  0.2555 -0.2040
10878SOL    HW136165  -0.027   9.354   2.330  2.3423 -0.9051 -0.1774
10878SOL    HW236166  -0.003   9.499   2.295 -4.5261  0.8580  0.9584
10879SOL     OW36167  10.210   5.140   3.409  0.0841  0.3146 -0.3120
10879SOL    HW136168  10.289   5.182   3.444  0.3858 -0.0901 -0.5090
10879SOL    HW236169  10.191   5.069   3.470  0.9443 -0.7584 -1.2748
10880SOL     OW36170   1.931   8.569   9.478  0.1131 -0.3373 -0.1440
10880SOL    HW136171   1.985   8.578   9.557 -0.4273 -2.4764  0.5482
10880SOL    HW236172   1.863   8.635   9.487 -0.2481 -0.8861  1.4869
10881SOL     OW36173  10.239   3.861   7.434 -0.2539 -0.8402  0.8797
10881SOL    HW136174  10.169   3.926   7.435  0.4056 -0.0868 -0.0632
10881SOL    HW236175  10.223   3.808   7.512 -1.6854 -0.4963  0.8583
10882SOL     OW36176   1.479  11.013   6.032  0.4397  0.1029 -0.0224
10882SOL    HW136177   1.424  11.046   6.103  1.2552  0.0470  0.6522
10882SOL    HW236178   1.567  11.046   6.052  0.6444  0.2656 -1.1267
10883SOL     OW36179   0.707   6.800   3.842 -0.0398 -0.0423  0.3306
10883SOL    HW136180   0.674   6.811   3.931  0.2078 -1.6577  0.6577
10883SOL    HW236181   0.772   6.869   3.831 -0.1596  0.2382  1.3564
10884SOL     OW36182   5.219   6.528   6.396 -0.5291  0.7740  0.4239
10884SOL    HW136183   5.310   6.556   6.387 -0.0718 -0.9106 -0.9323
10884SOL    HW236184   5.175   6.566   6.321  0.1355 -1.9652 -1.5356
10885SOL     OW36185   3.135   0.728   2.804  0.4708 -0.1589 -0.3822
10885SOL    HW136186   3.044   0.736   2.775  0.2416  1.0636  0.6085
10885SOL    HW236187   3.143   0.636   2.830 -0.5187 -0.2529 -0.3700
10886SOL     OW36188   8.029   3.870  10.845  0.1923  0.2639 -0.0446
10886SOL    HW136189   8.064   3.956  10.869  0.9092  0.0831 -0.4203
10886SOL    HW236190   7.982   3.886  10.763 -0.3029  0.4375  0.2709
10887SOL     OW36191  10.868   4.824   4.149 -0.3675  0.4871  0.2474
10887SOL    HW136192  10.802   4.759   4.127  0.0875  0.6011 -1.6525
10887SOL    HW236193  10.877   4.877   4.069  2.0844  0.3927  0.3921
10888SOL     OW36194   6.878   6.094   1.354  0.2479 -0.2756 -0.1512
10888SOL    HW136195   6.844   6.155   1.419  2.1509 -0.8026  1.4705
10888SOL    HW236196   6.938   6.146   1.301  1.5969 -0.5604  1.0060
10889SOL     OW36197   8.998   6.831   6.595  0.0778 -0.6951  0.3818
10889SOL    HW136198   9.080   6.879   6.581 -0.0495 -1.1312 -2.4515
10889SOL    HW236199   8.939   6.895   6.635  1.0111  0.4489 -0.0276
10890SOL     OW36200   5.617   0.528   7.793 -0.1239 -0.4807 -0.1265
10890SOL    HW136201   5.644   0.441   7.823 -0.3812 -1.1596 -1.7838
10890SOL    HW236202   5.522   0.523   7.790 -0.1801  0.1170  0.4705
10891SOL     OW36203   6.125   9.966   1.253 -0.5948  0.6027 -0.4613
10891SOL    HW136204   6.054   9.904   1.239 -0.9533  1.1978 -1.4046
10891SOL    HW236205   6.141   9.964   1.347 -1.0649 -0.4004 -0.3926
10892SOL     OW36206   8.233   9.285   5.933 -0.2950  0.1314 -0.2032
10892SOL    HW136207   8.291   9.358   5.911 -0.4659  0.2185 -0.3630
10892SOL    HW236208   8.174   9.320   5.999 -1.1914  0.5097 -1.1892
10893SOL     OW36209   5.029  10.985   8.288 -0.1686  0.6089 -0.0422
10893SOL    HW136210   5.037  11.078   8.310 -0.7726  1.0839 -1.7009
10893SOL    HW236211   5.110  10.965   8.240 -0.7015  0.6867 -0.9954
10894SOL     OW36212   8.427   0.246   4.168  0.1837  0.4265  0.1106
10894SOL    HW136213   8.373   0.238   4.089  1.0239 -1.1516 -0.3564
10894SOL    HW236214   8.513   0.274   4.137  0.1045  1.3090  0.6563
10895SOL     OW36215   4.346   9.935  10.795  0.5638  0.7306  0.0982
10895SOL    HW136216   4.419   9.993  10.818 -0.0927  1.0523  1.4763
10895SOL    HW236217   4.335   9.879  10.872 -0.6600  0.7113 -0.0761
10896SOL     OW36218   1.052   8.337  10.463 -0.4927 -1.4837 -0.3667
10896SOL    HW136219   1.005   8.307  10.385 -0.0878  0.8382 -1.5765
10896SOL    HW236220   1.097   8.417  10.436  1.8934 -2.0464  1.5122
10897SOL     OW36221   7.144  10.284   7.505 -0.4156  0.2663  0.1899
10897SOL    HW136222   7.176  10.245   7.423 -1.4142  1.0890 -0.6041
10897SOL    HW236223   7.180  10.372   7.505 -0.7909  0.4192  0.4207
10898SOL     OW36224   7.578   5.380   8.167 -0.2465  0.0028 -0.3837
10898SOL    HW136225   7.611   5.465   8.141  0.0195  0.3700  1.0283
10898SOL    HW236226   7.510   5.359   8.103 -0.7403  1.5548 -0.4124
10899SOL     OW36227   7.943  10.241   6.230  0.1203 -0.2376 -0.0703
10899SOL    HW136228   7.911  10.167   6.178  0.9753 -0.5334 -0.1934
10899SOL    HW236229   7.977  10.303   6.166 -0.2587  0.1064  0.0551
10900SOL     OW36230   7.235   9.393   6.812  0.5368  0.3980 -0.2809
10900SOL    HW136231   7.250   9.485   6.835  0.9791 -0.0366  1.2866
10900SOL    HW236232   7.208   9.395   6.721 -1.0157  2.2305  0.1605
10901SOL     OW36233  10.463   5.212   0.411  0.2329 -0.3433 -0.7647
10901SOL    HW136234  10.507   5.137   0.452  0.5555  0.4912  0.4526
10901SOL    HW236235  10.380   5.176   0.378  1.3060 -1.7014 -2.1479
10902SOL     OW36236   5.496  10.485   6.430 -0.4194  0.7328  0.1802
10902SOL    HW136237   5.480  10.438   6.512 -0.3159 -1.0003 -0.7285
10902SOL    HW236238   5.587  10.513   6.435  0.1390 -0.9315 -0.0351
10903SOL     OW36239   3.109   6.055   8.077 -0.1217 -0.4218  0.4969
10903SOL    HW136240   3.195   6.086   8.105 -1.3606  1.1237  2.9229
10903SOL    HW236241   3.101   5.968   8.117 -0.5179  0.3601  2.2127
10904SOL     OW36242   3.820   4.893  10.431 -0.1462  0.4737  0.7803
10904SOL    HW136243   3.789   4.982  10.411  1.7721  0.9721 -0.1890
10904SOL    HW236244   3.912   4.893  10.405  0.5394 -1.1174  2.9276
10905SOL     OW36245  11.065  10.088  10.208 -0.2189 -0.3737  0.3592
10905SOL    HW136246  11.076  10.026  10.135  0.3975 -0.9407  0.9180
10905SOL    HW236247  10.971  10.095  10.219 -0.3989  1.1581 -1.6792
10906SOL     OW36248   7.065   0.306   5.861 -0.0847 -0.5600 -0.1772
10906SOL    HW136249   7.008   0.368   5.815 -0.0287  0.5065  1.1536
10906SOL    HW236250   7.151   0.319   5.822 -0.2581 -0.4527 -0.5261
10907SOL     OW36251   3.642   6.957   3.973 -0.3552 -0.3818 -0.1955
10907SOL    HW136252   3.731   6.922   3.970 -0.5510 -0.9046  0.0731
10907SOL    HW236253   3.599   6.909   4.044 -1.5673 -1.8727 -1.8387
10908SOL     OW36254   5.622   1.096   8.342  0.6141 -0.2237 -0.1488
10908SOL    HW136255   5.676   1.017   8.338 -0.2295 -0.9056  1.3406
10908SOL    HW236256   5.612   1.123   8.251 -0.6153 -2.8898 -0.8822
10909SOL     OW36257   6.494   7.883   2.881  0.0519 -0.1167 -0.2961
10909SOL    HW136258   6.406   7.864   2.851  0.0988 -0.2868 -0.3292
10909SOL    HW236259   6.520   7.962   2.834 -0.5182  0.6038  0.5755
10910SOL     OW36260   0.414   8.367   8.300  0.3997 -0.2398 -0.0643
10910SOL    HW136261   0.505   8.338   8.308 -0.0343 -2.1611 -1.4404
10910SOL    HW236262   0.372   8.336   8.379  0.6567 -0.4652 -0.0154
10911SOL     OW36263   0.470  10.733   5.878  0.1662 -0.0032 -0.4086
10911SOL    HW136264   0.519  10.661   5.919 -0.1040  1.7151  3.4274
10911SOL    HW236265   0.527  10.765   5.808  2.3827 -1.1029  0.7916
10912SOL     OW36266   6.036   1.580   5.401 -0.5118 -0.5235 -0.3316
10912SOL    HW136267   5.986   1.640   5.457 -1.5223 -0.3856 -1.3534
10912SOL    HW236268   5.973   1.514   5.375  0.2952 -1.3470 -0.2348
10913SOL     OW36269   0.066   6.750   9.259  0.0420 -0.0038  0.8291
10913SOL    HW136270   0.154   6.779   9.284 -0.2539 -0.2194  2.2055
10913SOL    HW236271   0.028   6.824   9.212  0.9003  0.1447  0.3504
10914SOL     OW36272   5.488   7.361   3.871  0.1698 -0.1535 -0.0553
10914SOL    HW136273   5.567   7.307   3.884  0.5455  0.6564  1.2595
10914SOL    HW236274   5.520   7.451   3.875 -0.4867  0.1973 -2.0052
10915SOL     OW36275   5.413   6.080   8.244 -0.5646  0.5240  0.1677
10915SOL    HW136276   5.363   6.133   8.307 -1.1292 -0.2237  0.3714
10915SOL    HW236277   5.381   5.991   8.258 -1.4852  0.4758 -1.9052
10916SOL     OW36278   5.394   8.505  10.541  1.0994  0.1522 -0.4587
10916SOL    HW136279   5.350   8.437  10.490 -1.2725 -0.5085  2.2091
10916SOL    HW236280   5.403   8.467  10.628  1.8527  2.4312  0.5278
10917SOL     OW36281   3.776  10.471   4.076  0.0685  0.0343  0.6220
10917SOL    HW136282   3.851  10.443   4.023  1.6959  1.6360  1.9478
10917SOL    HW236283   3.711  10.501   4.013  0.0809 -2.3231 -0.6098
10918SOL     OW36284   4.888   9.673   7.893 -0.5784  0.0610  0.0419
10918SOL    HW136285   4.854   9.647   7.978  1.6267 -0.6481  0.7570
10918SOL    HW236286   4.895   9.592   7.843 -0.4217  0.2671 -0.2786
10919SOL     OW36287  10.648   2.328   2.357  0.4898 -0.4615  0.0091
10919SOL    HW136288  10.569   2.277   2.376 -0.5397  0.7489 -0.8944
10919SOL    HW236289  10.657   2.386   2.433  0.6252 -0.7183  0.1932
10920SOL     OW36290   5.223   9.615  10.929  0.4288 -0.3252  0.8976
10920SOL    HW136291   5.232   9.531  10.973  0.5428 -0.6661  0.2406
10920SOL    HW236292   5.210   9.592  10.836 -0.4234  0.3524  0.8351
10921SOL     OW36293   8.918   1.889   1.842 -0.1573  0.6809  0.3115
10921SOL    HW136294   8.884   1.964   1.890 -2.9559  0.2514 -0.8162
10921SOL    HW236295   8.882   1.898   1.754  2.0661 -0.3275 -0.7839
10922SOL     OW36296   6.129   2.459   1.553 -0.1237 -0.1036  0.0157
10922SOL    HW136297   6.041   2.426   1.538 -0.6229  1.3392 -0.3923
10922SOL    HW236298   6.134   2.473   1.648 -0.4583  0.1399 -0.0012
10923SOL     OW36299   5.647   6.159   2.591 -0.2509  0.6187  0.0434
10923SOL    HW136300   5.610   6.163   2.502  0.6961 -0.8944 -0.4458
10923SOL    HW236301   5.714   6.092   2.586  0.1615  0.8592  1.8090
10924SOL     OW36302   2.617   6.972   4.807  0.0412  0.5779  0.2215
10924SOL    HW136303   2.622   7.063   4.777  0.0864  0.8567  1.0464
10924SOL    HW236304   2.671   6.969   4.886 -0.1427 -0.1085  0.3332
10925SOL     OW36305  10.828   6.824   5.367 -0.3932 -0.5638 -0.3524
10925SOL    HW136306  10.742   6.820   5.408 -0.7650  0.0847 -1.0359
10925SOL    HW236307  10.884   6.768   5.421 -0.7966  0.4534  1.1654
10926SOL     OW36308   6.871  11.114   6.742 -0.5562  0.2449 -0.2909
10926SOL    HW136309   6.960  11.148   6.747 -0.8561  0.9581  0.5054
10926SOL    HW236310   6.843  11.107   6.833 -1.5176  0.5930 -0.5436
10927SOL     OW36311   9.088   7.537  10.858  0.2532  0.2577 -0.2371
10927SOL    HW136312   9.181   7.542  10.878  0.2707  0.7692 -0.4104
10927SOL    HW236313   9.046   7.516  10.941  0.5860 -0.7625 -0.3151
10928SOL     OW36314   7.189   2.025   2.587 -0.0178  0.2142 -0.1776
10928SOL    HW136315   7.144   1.954   2.633 -1.2331  1.2998  0.3720
10928SOL    HW236316   7.214   2.087   2.655 -1.2384  1.5164 -0.8453
10929SOL     OW36317  10.248   2.704   4.744 -0.5405  0.1722  0.1256
10929SOL    HW136318  10.279   2.714   4.834 -0.5334  1.7463 -0.0248
10929SOL    HW236319  10.153   2.696   4.752 -0.3972 -1.7952  0.3855
10930SOL     OW36320   6.881   3.761   8.006  0.2068 -0.5821  0.2746
10930SOL    HW136321   6.866   3.666   8.011 -2.8721 -0.2595 -0.6684
10930SOL    HW236322   6.833   3.796   8.081  1.0237  0.2929  0.4009
10931SOL     OW36323   5.233   5.617   9.809  0.4762 -0.0518  0.1485
10931SOL    HW136324   5.254   5.546   9.748 -1.3949  0.0803 -0.7097
10931SOL    HW236325   5.297   5.608   9.880  2.6817 -0.2794 -1.7416
10932SOL     OW36326   3.976   5.744   5.590  0.0768  0.3856  0.1011
10932SOL    HW136327   4.017   5.793   5.660 -1.3098 -0.3515  1.4976
10932SOL    HW236328   3.892   5.716   5.626 -0.8895  0.3516 -2.0159
10933SOL     OW36329   6.032   0.594   9.602 -0.8392  0.2901  0.2568
10933SOL    HW136330   6.030   0.690   9.612 -2.4704  0.3063  0.1005
10933SOL    HW236331   5.951   0.564   9.644 -1.5577 -0.7865 -1.7623
10934SOL     OW36332   7.792   9.976  10.646 -0.7035  0.2133 -0.0486
10934SOL    HW136333   7.730   9.903  10.645  0.1577 -0.5536  1.1869
10934SOL    HW236334   7.832   9.974  10.559 -0.2938 -1.1433  0.1487
10935SOL     OW36335   2.662   1.990   7.527  0.0893 -0.4471 -0.0185
10935SOL    HW136336   2.748   2.004   7.488  0.1996 -0.5881  0.1708
10935SOL    HW236337   2.681   1.947   7.611 -0.2273 -1.5177 -0.4810
10936SOL     OW36338   2.486   9.833   3.456  0.4425 -0.8102  0.1133
10936SOL    HW136339   2.410   9.798   3.504  1.1994 -0.1058  1.9276
10936SOL    HW236340   2.487   9.926   3.477  1.6905 -0.7744 -0.0116
10937SOL     OW36341  10.541   1.861   4.279  0.0887 -0.1197  0.0377
10937SOL    HW136342  10.558   1.909   4.198 -3.3054 -1.3941 -1.6192
10937SOL    HW236343  10.569   1.771   4.261  0.4831 -0.1560  0.7748
10938SOL     OW36344   8.321   0.763   6.417  0.4533  0.4555 -0.4389
10938SOL    HW136345   8.283   0.828   6.358  2.3545  1.3268 -0.7836
10938SOL    HW236346   8.379   0.711   6.361  0.3634 -0.3528  0.1963
10939SOL     OW36347   8.178   7.559   7.296  0.4224 -0.0985 -0.0905
10939SOL    HW136348   8.203   7.621   7.364 -0.9143 -0.8680  1.1603
10939SOL    HW236349   8.089   7.533   7.318  0.4845 -1.5062 -1.3014
10940SOL     OW36350   8.586  10.551   5.284  0.2871  0.2465  0.3902
10940SOL    HW136351   8.641  10.544   5.206 -0.5521  2.2925 -0.4466
10940SOL    HW236352   8.514  10.489   5.268  0.0833  0.6996 -0.5110
10941SOL     OW36353   6.345   0.640  10.885  0.0017 -0.0513 -0.0711
10941SOL    HW136354   6.420   0.651  10.827 -0.0137 -0.5889 -0.1952
10941SOL    HW236355   6.353   0.711  10.949  2.5813 -2.0890  2.0632
10942SOL     OW36356   0.882   3.967   1.051 -0.0320  0.1573  0.0309
10942SOL    HW136357   0.816   4.023   1.011 -0.5935 -1.2710 -1.1479
10942SOL    HW236358   0.964   4.015   1.040 -0.6664  1.3234  0.2441
10943SOL     OW36359   7.970   9.949   5.709  0.2725  0.0127  0.1279
10943SOL    HW136360   8.016   9.895   5.773  0.8724  0.3133 -0.0459
10943SOL    HW236361   8.038   9.979   5.649 -0.2685 -0.2245 -0.6331
10944SOL     OW36362   1.458   8.533   2.474 -0.2273 -0.2677  0.1881
10944SOL    HW136363   1.416   8.448   2.461  0.1990 -0.3966 -0.3815
10944SOL    HW236364   1.391   8.587   2.518 -1.2220 -0.2611 -1.2876
10945SOL     OW36365  10.142   0.631   9.478 -0.0767  0.3008 -0.1536
10945SOL    HW136366  10.053   0.608   9.504  0.0922 -0.3588 -0.1411
10945SOL    HW236367  10.181   0.548   9.449  0.4326  0.6376 -0.4564
10946SOL     OW36368   7.303   0.597   2.741 -0.6574 -0.2916 -0.9078
10946SOL    HW136369   7.220   0.643   2.728  0.3665  2.0011  0.1130
10946SOL    HW236370   7.308   0.581   2.835  0.4059  0.3555 -0.8330
10947SOL     OW36371   5.533   8.194   4.373  0.2514  0.6749  0.2678
10947SOL    HW136372   5.517   8.188   4.279  0.6588  1.8203  0.1065
10947SOL    HW236373   5.505   8.110   4.408 -1.2434  0.7462 -0.6841
10948SOL     OW36374   5.178   2.704   3.955 -0.0789 -0.6146 -0.5160
10948SOL    HW136375   5.166   2.799   3.949 -1.9058 -0.6416  1.5107
10948SOL    HW236376   5.251   2.693   4.015  0.7656 -0.5064 -1.5067
10949SOL     OW36377   4.750   4.190   5.214 -0.1102 -0.0753  0.2538
10949SOL    HW136378   4.788   4.171   5.300  0.8778  2.2849  0.3945
10949SOL    HW236379   4.726   4.282   5.218  1.9931  0.7311 -2.7293
10950SOL     OW36380   5.241   2.354   2.855 -0.0747  1.3418  0.5159
10950SOL    HW136381   5.263   2.358   2.762 -2.7894 -1.6009 -0.4131
10950SOL    HW236382   5.231   2.446   2.881 -1.1798  2.2531 -2.6323
10951SOL     OW36383   1.124   6.745   1.817  0.2155 -0.0051  0.1994
10951SOL    HW136384   1.031   6.767   1.815  0.2908  0.4695  1.2276
10951SOL    HW236385   1.168   6.829   1.834  0.8688 -0.1409 -0.7405
10952SOL     OW36386   3.799   5.233  10.573  0.1043  0.3073  0.1700
10952SOL    HW136387   3.809   5.321  10.610 -0.2607  0.1491  0.6639
10952SOL    HW236388   3.887   5.210  10.543 -0.2242  1.7287 -2.0726
10953SOL     OW36389   4.742  10.389   9.970 -0.2976 -0.2791 -0.0698
10953SOL    HW136390   4.767  10.306   9.929 -0.3575  0.1472 -0.9754
10953SOL    HW236391   4.798  10.454   9.928  0.0687  0.0926  0.9555
10954SOL     OW36392   3.272   1.611   2.120  0.2343  0.1673 -0.2881
10954SOL    HW136393   3.218   1.532   2.119  0.5992 -0.1960  1.9930
10954SOL    HW236394   3.231   1.669   2.057 -0.7058 -1.4173 -1.2082
10955SOL     OW36395   7.859   7.140   8.006  0.4331  0.0570 -0.3661
10955SOL    HW136396   7.772   7.144   8.044 -0.3121 -0.2701 -1.9460
10955SOL    HW236397   7.860   7.210   7.941  2.4712  2.1347  1.7120
10956SOL     OW36398   2.438   1.347   3.673  0.0697  0.0315  0.7272
10956SOL    HW136399   2.506   1.412   3.656 -0.5183  0.5837  0.4337
10956SOL    HW236400   2.356   1.395   3.660 -0.4088 -1.2344 -1.3967
10957SOL     OW36401   8.311   4.836   8.050  0.5286 -0.2831  0.3172
10957SOL    HW136402   8.266   4.820   8.133  0.8057  1.1531  0.7642
10957SOL    HW236403   8.331   4.929   8.051  2.3236 -0.6186 -0.4756
10958SOL     OW36404   3.963   0.812   4.755 -0.2733  0.3391  0.3570
10958SOL    HW136405   3.925   0.727   4.778 -0.1561  0.3943  0.7674
10958SOL    HW236406   3.904   0.876   4.794 -0.0944  0.4368  0.4691
10959SOL     OW36407   6.028  10.030  10.976  0.1087  0.4162 -0.4416
10959SOL    HW136408   5.998   9.958  10.922  1.6416 -0.5204 -0.1071
10959SOL    HW236409   5.948  10.071  11.009 -0.8505 -2.1507  0.6993
10960SOL     OW36410   7.818  10.487  10.533 -0.7795 -0.1257  0.2248
10960SOL    HW136411   7.851  10.544  10.463  0.9993 -1.2133  0.1177
10960SOL    HW236412   7.744  10.441  10.494 -1.1799  0.8759 -0.2190
10961SOL     OW36413   6.350   9.571  10.040 -0.2351  0.7237 -0.0761
10961SOL    HW136414   6.393   9.514  10.104 -2.3141  0.0259  0.7526
10961SOL    HW236415   6.345   9.656  10.084  0.4491  0.8660 -0.2597
10962SOL     OW36416   5.341   9.931   5.272 -0.4423  0.0536  0.0367
10962SOL    HW136417   5.289   9.904   5.196  0.0641 -0.2394 -0.2047
10962SOL    HW236418   5.422   9.966   5.235  0.0325 -0.5917  0.4682
10963SOL     OW36419  10.347   3.823   5.239  0.2742 -0.0516  0.4361
10963SOL    HW136420  10.320   3.863   5.156 -0.4548 -1.2185  0.0780
10963SOL    HW236421  10.430   3.780   5.218  0.2196 -0.1290  0.3751
10964SOL     OW36422   6.300   4.109   1.069 -0.7476 -0.2982 -0.2575
10964SOL    HW136423   6.212   4.085   1.039 -1.1450  1.8372 -0.9890
10964SOL    HW236424   6.287   4.185   1.126  0.6317  0.3830 -0.7835
10965SOL     OW36425   0.889   7.469   3.690 -0.2157  0.4562  0.4075
10965SOL    HW136426   0.823   7.517   3.641  0.6598  0.4696 -0.8129
10965SOL    HW236427   0.965   7.528   3.691 -0.0719  0.2743  1.4254
10966SOL     OW36428   2.995   6.538   8.236  0.1975 -0.1378  0.0500
10966SOL    HW136429   2.957   6.451   8.244  1.5899 -0.7988 -0.2192
10966SOL    HW236430   3.060   6.529   8.166  0.5696  1.0446  0.2268
10967SOL     OW36431   2.267   7.627   3.400  0.0440 -0.3339  0.5006
10967SOL    HW136432   2.345   7.668   3.361  0.8077 -1.0484  1.2151
10967SOL    HW236433   2.194   7.680   3.370  0.8285  0.4592 -0.0609
10968SOL     OW36434   3.899   7.836   5.298  0.0140 -0.4916 -0.1649
10968SOL    HW136435   3.829   7.873   5.245 -0.1654 -2.0066 -1.0532
10968SOL    HW236436   3.916   7.750   5.259  1.7751 -0.5227  0.5633
10969SOL     OW36437   3.876   0.189   7.466  0.6924  0.5946 -0.4200
10969SOL    HW136438   3.837   0.128   7.529  2.7526 -1.1385 -0.7305
10969SOL    HW236439   3.801   0.227   7.421 -0.7516  0.2145  1.5226
10970SOL     OW36440  10.803   2.799   7.603 -0.0249 -0.0505 -0.1558
10970SOL    HW136441  10.758   2.740   7.542 -1.0759  1.4223 -0.8671
10970SOL    HW236442  10.879   2.830   7.555 -0.3037  0.3311 -0.3589
10971SOL     OW36443   4.073   7.860   0.648  0.5970  0.3871 -0.1852
10971SOL    HW136444   3.998   7.824   0.601 -1.2287  1.1240  1.9401
10971SOL    HW236445   4.041   7.871   0.738  1.8247  4.6954 -0.0416
10972SOL     OW36446   0.112   1.273   1.166  0.0663  0.7101 -0.1998
10972SOL    HW136447   0.089   1.259   1.074 -0.0143 -0.8742  0.0351
10972SOL    HW236448   0.206   1.291   1.164  0.1814  0.1052 -0.5503
10973SOL     OW36449   7.301   2.832   3.395  0.3526  0.0612  0.3141
10973SOL    HW136450   7.386   2.823   3.437  0.4919  1.4643  0.3822
10973SOL    HW236451   7.321   2.858   3.305  0.0082  1.3503  0.5908
10974SOL     OW36452   4.047   6.867   7.228 -0.5791  0.6862 -0.4355
10974SOL    HW136453   4.111   6.938   7.237 -0.5267  0.5126  0.6074
10974SOL    HW236454   4.089   6.791   7.269 -1.2634  0.4558 -0.1492
10975SOL     OW36455   1.555   6.699   1.514  0.4480 -0.3384  0.4017
10975SOL    HW136456   1.508   6.709   1.597 -0.5061 -2.1670  0.1438
10975SOL    HW236457   1.492   6.726   1.447 -0.8837 -3.9708 -0.0397
10976SOL     OW36458   3.221   6.656   8.521 -0.0049  0.3735  0.1911
10976SOL    HW136459   3.310   6.624   8.532  0.2348  0.7357 -0.6766
10976SOL    HW236460   3.168   6.577   8.507 -0.1187 -0.0085  2.4192
10977SOL     OW36461   5.944   0.972   4.967  0.1205  0.0429  0.6139
10977SOL    HW136462   5.995   0.952   4.889 -1.0465 -1.2625  0.1407
10977SOL    HW236463   5.888   0.895   4.980 -0.3824  0.6240  2.1922
10978SOL     OW36464   1.123   8.713   9.468 -0.4424  0.5224 -0.1978
10978SOL    HW136465   1.034   8.724   9.500  0.0653 -2.2350  2.5582
10978SOL    HW236466   1.177   8.763   9.530  0.0731  0.5648 -0.6739
10979SOL     OW36467   5.170   2.536  11.036  0.8199  0.4292 -0.3470
10979SOL    HW136468   5.213   2.452  11.018  0.0273 -0.2685  0.8359
10979SOL    HW236469   5.219   2.572  11.110  0.0810  0.1442  0.2981
10980SOL     OW36470   9.839  10.852   2.679 -0.3854  0.4155 -0.4231
10980SOL    HW136471   9.768  10.913   2.700  1.3097  1.5609  2.4416
10980SOL    HW236472   9.916  10.907   2.669  0.6691 -1.0535 -0.6550
10981SOL     OW36473   9.111   7.558   5.760 -0.0563  0.4664 -0.0623
10981SOL    HW136474   9.029   7.510   5.751 -0.6755  1.0041  2.1744
10981SOL    HW236475   9.168   7.499   5.810  0.4937  0.6044 -0.5127
10982SOL     OW36476   3.829   8.687   4.488 -0.1611  0.0965  0.1173
10982SOL    HW136477   3.797   8.641   4.410 -0.8030  1.0626 -0.2104
10982SOL    HW236478   3.907   8.734   4.457  0.0579 -0.1618  0.2693
10983SOL     OW36479   8.309   4.475   2.122  0.6344  0.4113 -0.5051
10983SOL    HW136480   8.334   4.382   2.124  1.6275  0.6629 -0.3128
10983SOL    HW236481   8.245   4.481   2.051 -0.2434 -0.6040  0.1675
10984SOL     OW36482   2.687   5.858   5.518  0.2394  0.2075 -0.1238
10984SOL    HW136483   2.735   5.909   5.583  1.1307 -0.0615 -0.5547
10984SOL    HW236484   2.704   5.902   5.435 -1.6836  1.1204 -0.0786
10985SOL     OW36485  10.486   3.036   5.013 -0.0161 -0.3016 -0.3482
10985SOL    HW136486  10.451   3.029   4.924 -0.7913 -0.0319 -0.0791
10985SOL    HW236487  10.581   3.042   5.002 -0.1402  0.3124 -1.1981
10986SOL     OW36488  10.883   8.760   2.952  0.2487  0.2610  0.2690
10986SOL    HW136489  10.972   8.738   2.923 -0.5072 -2.8998 -0.0656
10986SOL    HW236490  10.885   8.750   3.047  0.2735  0.2035  0.2626
10987SOL     OW36491   8.854   9.888   1.068  0.0193  0.1361  0.4558
10987SOL    HW136492   8.829   9.835   0.993 -0.1781  0.9845 -0.0985
10987SOL    HW236493   8.804   9.969   1.058  1.2818  0.9598  0.5516
10988SOL     OW36494   4.469   7.464   8.493  0.2064 -0.2870 -0.0979
10988SOL    HW136495   4.511   7.523   8.555  2.0950 -0.5224 -1.0547
10988SOL    HW236496   4.453   7.384   8.543  2.9760 -0.9841 -0.1453
10989SOL     OW36497   8.962   2.461  10.207  0.3615 -0.1722  0.0029
10989SOL    HW136498   9.038   2.404  10.200  1.4799  0.9413  2.0158
10989SOL    HW236499   8.889   2.408  10.175  1.3693 -2.7024  1.5673
10990SOL     OW36500   7.896   2.839   6.523  0.2795  0.0753  0.3773
10990SOL    HW136501   7.839   2.910   6.554 -0.0738 -0.5479  1.1900
10990SOL    HW236502   7.842   2.760   6.530  1.3175 -0.5698  1.4002
10991SOL     OW36503   4.145   0.402   4.372 -0.2343 -0.4758  1.0013
10991SOL    HW136504   4.220   0.456   4.397  0.6998 -0.0527 -2.2458
10991SOL    HW236505   4.182   0.315   4.358 -0.1119 -0.1150 -1.2747
10992SOL     OW36506   9.003   5.244   0.081  0.0137  0.1239  0.0527
10992SOL    HW136507   9.044   5.168   0.041 -1.0001  1.0770 -3.0787
10992SOL    HW236508   9.002   5.310   0.011 -0.2751  2.6009  2.2435
10993SOL     OW36509   5.962   5.262   0.064  0.1514  0.3814 -0.4228
10993SOL    HW136510   5.988   5.185   0.115  0.0786 -0.5598 -1.7501
10993SOL    HW236511   6.029   5.327   0.084  1.2618 -0.6417 -0.6584
10994SOL     OW36512   8.071   1.459   8.913 -0.1189 -0.1054 -0.0221
10994SOL    HW136513   8.127   1.381   8.910 -1.6652 -1.2627  0.3898
10994SOL    HW236514   7.997   1.438   8.856 -0.8339  0.8494  0.5328
10995SOL     OW36515   3.156   0.357  10.924 -0.1122  0.8842  0.4039
10995SOL    HW136516   3.237   0.306  10.929 -0.4169  0.4534  1.0509
10995SOL    HW236517   3.116   0.329  10.841 -0.1275  0.2862  0.6081
10996SOL     OW36518   0.151   9.013   1.885  0.2502  0.1713 -0.0320
10996SOL    HW136519   0.237   9.006   1.844  0.6267  0.7676  0.6399
10996SOL    HW236520   0.098   8.948   1.839  1.4450 -1.2934  0.5574
10997SOL     OW36521   8.436   4.329   1.786 -0.2531  0.3777 -0.0109
10997SOL    HW136522   8.399   4.398   1.842 -1.8484 -0.3266 -0.1661
10997SOL    HW236523   8.374   4.320   1.714  0.2391 -0.8250 -0.3057
10998SOL     OW36524   9.147   3.925   4.670 -0.3422 -0.1914 -0.0803
10998SOL    HW136525   9.052   3.913   4.663 -0.0906 -1.5011 -1.7330
10998SOL    HW236526   9.175   3.863   4.737 -0.3775 -1.6286 -1.3407
10999SOL     OW36527   7.792   0.012   6.919 -0.2950 -0.2713 -0.6605
10999SOL    HW136528   7.725   0.080   6.906 -1.0428 -0.6790  0.8609
10999SOL    HW236529   7.770  -0.028   7.003  1.2021 -1.1979 -0.6708
11000SOL     OW36530   1.324   6.840   3.641  0.2762  0.1860 -0.1696
11000SOL    HW136531   1.378   6.918   3.653  0.2104  0.1523  0.3965
11000SOL    HW236532   1.241   6.861   3.683 -0.4710  0.5511 -1.7893
11001SOL     OW36533   9.965  10.326   4.639 -0.3353  0.0484 -0.3821
11001SOL    HW136534  10.034  10.392   4.649 -1.8009  1.2728  2.6881
11001SOL    HW236535   9.933  10.339   4.549  0.9287  1.9422 -0.6161
11002SOL     OW36536   0.159   7.157   9.389  0.2010 -0.0420  0.1555
11002SOL    HW136537   0.203   7.191   9.311  1.9213  0.6078  1.3463
11002SOL    HW236538   0.069   7.187   9.381  0.2274 -0.3827 -1.7961
11003SOL     OW36539   3.901   0.665   8.788  0.0084 -0.2628 -0.8844
11003SOL    HW136540   3.872   0.574   8.791  1.0068 -0.8716 -4.5472
11003SOL    HW236541   3.838   0.709   8.731  0.6224  0.8540 -0.7299
11004SOL     OW36542  10.390   9.629   5.477 -0.0595  0.0668 -0.6891
11004SOL    HW136543  10.380   9.547   5.430  0.7537 -0.3343 -0.1792
11004SOL    HW236544  10.461   9.675   5.432  0.4181 -0.1235 -0.1435
11005SOL     OW36545   5.075   8.116   0.348  0.1092 -0.4557  0.2168
11005SOL    HW136546   5.003   8.171   0.317 -0.4983  0.6017  3.2127
11005SOL    HW236547   5.039   8.027   0.350 -0.5575 -0.1880  0.1272
11006SOL     OW36548   5.730   2.329  10.380  0.1000 -0.1906  0.0690
11006SOL    HW136549   5.775   2.278  10.313  0.1013 -0.1433  0.0339
11006SOL    HW236550   5.794   2.395  10.407 -0.0286  0.0261 -0.1493
11007SOL     OW36551  10.880   6.311   1.861  0.3775 -0.3067  0.3838
11007SOL    HW136552  10.873   6.366   1.783 -1.8360 -3.5033 -1.9762
11007SOL    HW236553  10.951   6.250   1.841 -0.1711 -1.1243  0.8376
11008SOL     OW36554   1.662   8.272  10.889  0.3613 -0.4615 -0.3491
11008SOL    HW136555   1.598   8.310  10.829 -2.5462 -1.7493  1.7000
11008SOL    HW236556   1.725   8.342  10.904 -1.3251  1.3945 -1.4366
11009SOL     OW36557   7.239   2.841   2.501  0.7312  0.1102  0.3513
11009SOL    HW136558   7.216   2.760   2.546 -1.4790 -1.0255 -2.5410
11009SOL    HW236559   7.156   2.877   2.471  1.9008  1.9568 -0.8767
11010SOL     OW36560   3.301   8.997  10.428  0.2667 -0.1997  0.0634
11010SOL    HW136561   3.269   8.912  10.400 -0.5751 -0.1463  0.8045
11010SOL    HW236562   3.226   9.056  10.416  1.4079  0.8906 -2.3297
11011SOL     OW36563  10.538   8.560   7.562 -0.2872 -0.4370  0.1897
11011SOL    HW136564  10.445   8.579   7.572 -0.6139 -1.7376 -0.1977
11011SOL    HW236565  10.578   8.645   7.542 -1.1819  0.3558  1.5888
11012SOL     OW36566   7.344   8.712   8.343 -0.1697  0.3247  0.4815
11012SOL    HW136567   7.424   8.758   8.371 -0.4321  2.2820 -1.6306
11012SOL    HW236568   7.272   8.766   8.377 -0.5643 -0.1560  0.4261
11013SOL     OW36569   4.211   2.972   6.361 -0.5943 -0.1823 -0.2421
11013SOL    HW136570   4.270   2.907   6.398  0.8165  0.6177 -0.9972
11013SOL    HW236571   4.123   2.941   6.385  0.0264 -2.2029 -0.3477
11014SOL     OW36572   8.391   0.260   7.237 -0.0236  0.2067  0.6015
11014SOL    HW136573   8.307   0.260   7.190 -0.3006  1.9582  1.0022
11014SOL    HW236574   8.366   0.257   7.329  0.4049 -0.1622  0.7087
11015SOL     OW36575   5.321   2.954   7.932 -0.0057  0.3102 -0.6639
11015SOL    HW136576   5.386   2.940   8.000 -0.2306  2.1305 -0.0261
11015SOL    HW236577   5.370   2.987   7.857 -0.2478  2.7534  0.1785
11016SOL     OW36578   6.092   7.911   5.321  0.5742 -0.1790 -0.4861
11016SOL    HW136579   6.176   7.951   5.297  1.0867 -0.0250  1.4279
11016SOL    HW236580   6.063   7.962   5.396 -1.0590 -0.5021 -0.8731
11017SOL     OW36581   0.598   9.360  10.234  0.3893  0.2473 -0.1358
11017SOL    HW136582   0.628   9.285  10.286  0.3353 -0.0532 -0.5341
11017SOL    HW236583   0.536   9.405  10.290  0.3344 -0.0742  0.0621
11018SOL     OW36584   8.733   7.108   9.747 -0.1581  0.8216 -0.1176
11018SOL    HW136585   8.730   7.097   9.842 -0.2398 -1.6498 -0.3433
11018SOL    HW236586   8.641   7.109   9.720 -0.1279  1.1329 -0.2144
11019SOL     OW36587   5.209   7.226   9.732 -0.3694  0.0577  0.0959
11019SOL    HW136588   5.286   7.261   9.776  0.0951 -2.0948  1.1721
11019SOL    HW236589   5.140   7.290   9.748  0.4925  0.6488  1.6587
11020SOL     OW36590   5.948   8.131   1.799  0.2574 -0.4315  0.5912
11020SOL    HW136591   5.967   8.124   1.893 -0.3299 -0.5328  0.7057
11020SOL    HW236592   5.854   8.147   1.795  0.1889 -0.9639 -0.0038
11021SOL     OW36593   7.859   9.989  10.363 -0.0842  0.5379  0.5689
11021SOL    HW136594   7.933   9.929  10.374 -0.9426 -0.5266  0.8041
11021SOL    HW236595   7.829   9.974  10.273 -2.2157 -1.7625  1.5384
11022SOL     OW36596   6.585   5.108   8.868 -0.2438  0.5408 -0.0413
11022SOL    HW136597   6.614   5.199   8.878 -0.2623  0.6197 -0.6317
11022SOL    HW236598   6.666   5.056   8.873  0.0046  0.7436 -1.4891
11023SOL     OW36599   7.684  10.537   2.565  0.2285 -0.1821 -0.2885
11023SOL    HW136600   7.682  10.627   2.598 -1.5956 -0.2394 -0.1485
11023SOL    HW236601   7.770  10.504   2.590  0.9996  1.5669 -0.4793
11024SOL     OW36602   0.207   1.487   0.860  0.2875 -0.0594 -0.0763
11024SOL    HW136603   0.204   1.566   0.807  2.1188 -0.0440 -0.1965
11024SOL    HW236604   0.165   1.512   0.943 -0.8617  0.4566 -0.7924
11025SOL     OW36605   6.698   1.296   2.135  0.2052 -0.3252 -0.5838
11025SOL    HW136606   6.770   1.266   2.080 -0.0227  1.3828 -1.8801
11025SOL    HW236607   6.740   1.329   2.214  0.6464 -1.4067 -0.3466
11026SOL     OW36608   6.518   4.926  10.626 -0.0209  0.6922  0.4597
11026SOL    HW136609   6.566   4.894  10.549  0.6524 -0.3985  1.3016
11026SOL    HW236610   6.581   4.981  10.672  0.4070 -0.6085  1.4815
11027SOL     OW36611   9.392   3.060   8.098  0.0880 -0.5019  0.4367
11027SOL    HW136612   9.352   3.087   8.015  2.0503  1.0643 -0.0792
11027SOL    HW236613   9.339   3.103   8.165  1.6880  2.9516 -0.2825
11028SOL     OW36614   5.663  10.596   2.153 -0.0196 -0.9715  0.3220
11028SOL    HW136615   5.590  10.533   2.154  0.4282 -1.5026 -0.0032
11028SOL    HW236616   5.729  10.557   2.210  0.7734 -1.4260 -0.8707
11029SOL     OW36617   5.496   3.677   0.861 -0.0883 -0.4385  0.0998
11029SOL    HW136618   5.454   3.630   0.933 -0.3442 -1.2781 -0.5782
11029SOL    HW236619   5.512   3.610   0.795 -1.7261  0.6380 -1.4790
11030SOL     OW36620   0.187   9.940   5.825  0.0948 -0.0062  0.6569
11030SOL    HW136621   0.226   9.863   5.783 -0.8647 -0.5165  0.6681
11030SOL    HW236622   0.092   9.928   5.813 -0.1484  0.3804  2.0154
11031SOL     OW36623   2.317   2.609  11.066 -0.8690  0.1130  0.0092
11031SOL    HW136624   2.267   2.582  11.143 -0.3069 -0.3188  0.2324
11031SOL    HW236625   2.255   2.601  10.994 -0.6877 -2.0672  0.0139
11032SOL     OW36626   1.722   7.693   4.570 -0.1564  0.1630  0.1205
11032SOL    HW136627   1.792   7.722   4.628  0.0779  0.5066 -0.3257
11032SOL    HW236628   1.668   7.635   4.624  1.0713 -0.9708  0.1842
11033SOL     OW36629   7.171   0.635   2.176 -0.7488 -0.2819  0.2751
11033SOL    HW136630   7.089   0.620   2.130 -0.6645 -0.6950  0.2518
11033SOL    HW236631   7.191   0.551   2.217  0.1534 -0.4870 -0.5258
11034SOL     OW36632   7.522  11.122   8.628 -0.1711 -0.3386 -0.5634
11034SOL    HW136633   7.437  11.107   8.667  0.6683  0.5794  1.7571
11034SOL    HW236634   7.504  11.139   8.535 -2.2828 -2.0792 -0.5260
11035SOL     OW36635   5.154   4.071   9.350  0.6062 -0.5515  0.1949
11035SOL    HW136636   5.231   4.084   9.294 -0.1266  0.8508 -0.5517
11035SOL    HW236637   5.098   4.012   9.300  0.1257  0.3909 -0.4074
11036SOL     OW36638   1.131   3.950   8.105  0.3294  0.0393 -0.0407
11036SOL    HW136639   1.163   4.035   8.134 -2.9822  1.0702  0.9798
11036SOL    HW236640   1.092   3.967   8.019 -0.5442 -0.3701  0.2642
11037SOL     OW36641   9.991   0.589   6.244  0.0177 -0.1187 -0.1049
11037SOL    HW136642   9.900   0.579   6.272 -0.1771 -0.3603 -0.8016
11037SOL    HW236643  10.031   0.645   6.311  0.0324 -2.0739  1.6073
11038SOL     OW36644   8.729   2.414   0.920  0.0780  0.0302  0.6359
11038SOL    HW136645   8.692   2.452   0.840  1.4938  1.2627  0.5235
11038SOL    HW236646   8.821   2.401   0.901  0.5619  0.8065  2.1987
11039SOL     OW36647   3.139   9.915   4.792 -0.0163 -0.1871 -0.0612
11039SOL    HW136648   3.122   9.841   4.733 -0.9032  0.2475 -0.3595
11039SOL    HW236649   3.116   9.882   4.879  0.0503 -0.4104 -0.1267
11040SOL     OW36650   7.225   3.147   3.627 -0.5737 -0.6186  0.2456
11040SOL    HW136651   7.310   3.150   3.669  0.6577 -0.9755 -2.0456
11040SOL    HW236652   7.198   3.056   3.634  1.1187 -1.4187 -2.3373
11041SOL     OW36653   0.913   0.761   2.308  0.3653 -0.0691  0.1898
11041SOL    HW136654   0.824   0.725   2.308  0.2171  0.2180 -1.5941
11041SOL    HW236655   0.961   0.706   2.247  0.9176  0.9028 -0.2777
11042SOL     OW36656   8.811   4.884   6.934  0.3524 -0.5547  0.3842
11042SOL    HW136657   8.871   4.873   7.007 -0.0896 -2.6630  0.5150
11042SOL    HW236658   8.801   4.796   6.898 -0.5586  0.1936 -1.3228
11043SOL     OW36659   9.016   9.870   7.181  0.7061 -0.3309  0.1740
11043SOL    HW136660   9.002   9.894   7.090  0.5756  1.2473  0.5797
11043SOL    HW236661   8.928   9.863   7.218  0.7394 -1.5736  0.0480
11044SOL     OW36662   0.271   6.467   6.935  0.5190  0.2684 -0.4202
11044SOL    HW136663   0.357   6.461   6.975  0.9994  3.1157 -0.8098
11044SOL    HW236664   0.211   6.480   7.008  1.1506  3.4351 -0.3041
11045SOL     OW36665   1.700   6.184  10.061 -0.6711 -0.0458 -0.1062
11045SOL    HW136666   1.716   6.256  10.000 -3.1665  0.0089 -0.8007
11045SOL    HW236667   1.745   6.210  10.141 -0.5814  1.7438 -0.6915
11046SOL     OW36668   9.371   9.036   1.526 -0.1227 -0.3108  0.2214
11046SOL    HW136669   9.423   9.117   1.520  2.0230 -1.7090 -1.2653
11046SOL    HW236670   9.308   9.043   1.455  1.7280 -0.9812 -1.5758
11047SOL     OW36671   0.459   5.689   5.031 -0.7238  0.6392 -0.2744
11047SOL    HW136672   0.545   5.655   5.007 -0.1427 -0.9692  3.3784
11047SOL    HW236673   0.473   5.782   5.045  0.8447  0.1988  1.5105
11048SOL     OW36674   4.639   9.486   1.467 -0.2448  0.6715 -0.7524
11048SOL    HW136675   4.641   9.472   1.562  1.9101  0.6817 -0.7534
11048SOL    HW236676   4.610   9.576   1.456 -1.4006  0.3892 -0.1678
11049SOL     OW36677   4.540   1.072   5.124 -0.2653 -0.1124  0.1353
11049SOL    HW136678   4.520   1.166   5.130 -0.1088  0.0178 -1.0940
11049SOL    HW236679   4.550   1.044   5.215  0.4565  1.2259  0.4968
11050SOL     OW36680   4.282   5.721   2.510 -0.1686  0.1957 -0.1708
11050SOL    HW136681   4.274   5.638   2.462 -1.5175  1.2997 -1.9929
11050SOL    HW236682   4.192   5.742   2.535  0.2875  0.6265  1.1822
11051SOL     OW36683   9.581   9.367   8.336  0.1796 -0.3900  0.2156
11051SOL    HW136684   9.529   9.302   8.288 -0.4203  0.1520  0.1134
11051SOL    HW236685   9.655   9.317   8.371  0.1815 -0.9555 -0.5727
11052SOL     OW36686   4.892  10.529   1.046  1.0363 -0.5719  0.2923
11052SOL    HW136687   4.947  10.607   1.038  0.1353  0.0213 -0.2684
11052SOL    HW236688   4.857  10.534   1.134 -1.0381  1.0661 -0.5558
11053SOL     OW36689   2.819  10.467   4.585 -0.1424  0.1483 -0.3902
11053SOL    HW136690   2.753  10.413   4.542  0.6029 -1.2587  0.1545
11053SOL    HW236691   2.818  10.439   4.676 -1.2128  2.6068  0.4248
11054SOL     OW36692   5.652   2.829   9.286 -0.0324 -0.0536 -0.0768
11054SOL    HW136693   5.602   2.756   9.324 -1.0149  0.1812 -0.8688
11054SOL    HW236694   5.676   2.798   9.198 -0.4185  0.5468 -0.4037
11055SOL     OW36695   5.646   2.146   6.587  0.5279  0.1367  0.4201
11055SOL    HW136696   5.599   2.089   6.528  0.4126  0.8728 -0.2182
11055SOL    HW236697   5.723   2.096   6.613  0.1188 -0.5292  0.3521
11056SOL     OW36698   9.151   1.002   9.170 -0.2374 -0.0793 -0.4055
11056SOL    HW136699   9.161   0.907   9.169 -0.1433 -0.0621 -1.1055
11056SOL    HW236700   9.120   1.021   9.259  2.0500 -0.5157  0.5673
11057SOL     OW36701   1.996   3.122   6.519 -0.3499  0.1919 -0.2122
11057SOL    HW136702   1.992   3.146   6.426 -0.5480 -0.6045 -0.4177
11057SOL    HW236703   1.963   3.199   6.565  0.3963  0.8523 -0.7538
11058SOL     OW36704   7.861   2.735   4.777 -0.0836 -0.0330  0.0608
11058SOL    HW136705   7.946   2.774   4.799  0.3450 -0.6460 -0.4425
11058SOL    HW236706   7.834   2.690   4.856  0.2031 -0.0747  0.1366
11059SOL     OW36707   1.746   2.995   0.269 -0.3710 -0.1336 -0.1467
11059SOL    HW136708   1.761   3.033   0.183 -1.6034  1.8268  0.4305
11059SOL    HW236709   1.651   2.985   0.275 -0.2853 -0.4714  0.8945
11060SOL     OW36710   2.906   6.521   6.897  0.1681  0.6367  0.0216
11060SOL    HW136711   2.995   6.541   6.927 -0.3706  0.8228  1.5889
11060SOL    HW236712   2.899   6.564   6.812  2.1500 -0.8329 -0.9879
11061SOL     OW36713   0.112   7.451   8.546 -0.0586  0.2707 -0.9638
11061SOL    HW136714   0.070   7.398   8.613  0.9098  0.1994 -0.3990
11061SOL    HW236715   0.043   7.467   8.482 -1.2923  1.1361  0.4946
11062SOL     OW36716   6.509   1.548   8.913  0.4394  0.4295 -0.1702
11062SOL    HW136717   6.491   1.525   8.822  1.0312  1.8711 -0.6920
11062SOL    HW236718   6.453   1.490   8.964  0.2822 -0.5872 -1.4388
11063SOL     OW36719   2.892   2.070   7.409 -0.6330  0.2512  0.9000
11063SOL    HW136720   2.970   2.074   7.463 -1.4355 -0.0028  2.1321
11063SOL    HW236721   2.881   2.159   7.376  0.4421  0.1723  0.3069
11064SOL     OW36722   2.206   0.731   0.669 -0.1175  0.4788  0.2645
11064SOL    HW136723   2.256   0.664   0.621  1.8025  1.8301  0.2612
11064SOL    HW236724   2.120   0.730   0.628 -0.3611 -2.3225  0.6161
11065SOL     OW36725   1.926   8.820   6.180 -0.0735 -0.0290  0.5938
11065SOL    HW136726   1.944   8.798   6.271 -0.8647  1.6726  1.1985
11065SOL    HW236727   1.849   8.876   6.184  0.8025  1.3653 -0.9785
11066SOL     OW36728   9.542   8.893   0.625 -0.3383 -0.5403 -0.4646
11066SOL    HW136729   9.562   8.860   0.713 -0.8621 -0.0331 -0.1520
11066SOL    HW236730   9.585   8.978   0.622 -0.1597 -0.6413 -0.7708
11067SOL     OW36731   2.812   4.482   8.060  0.0960 -0.7876  0.2250
11067SOL    HW136732   2.802   4.404   8.006  0.0771 -0.0083 -0.9341
11067SOL    HW236733   2.853   4.546   8.002 -0.8123  0.3889  0.8416
11068SOL     OW36734   5.661   7.351   6.783 -0.6437 -0.2174  0.1501
11068SOL    HW136735   5.704   7.327   6.866 -0.2952  0.6975  0.2430
11068SOL    HW236736   5.678   7.276   6.726 -0.0189 -0.4301  0.5913
11069SOL     OW36737   3.264   3.401   7.566  0.0259  0.1726 -0.1764
11069SOL    HW136738   3.186   3.410   7.621  1.2994 -0.2999  1.8323
11069SOL    HW236739   3.245   3.452   7.488 -2.8735 -1.1449 -0.4499
11070SOL     OW36740   3.669   8.345   2.331 -0.8972 -0.3079  0.2119
11070SOL    HW136741   3.575   8.346   2.316 -0.9122  0.1925  0.3137
11070SOL    HW236742   3.702   8.421   2.284 -0.6529 -0.0317  0.8083
11071SOL     OW36743   4.441   8.935   4.580 -0.2513 -0.1456 -0.6737
11071SOL    HW136744   4.465   8.912   4.669 -2.7546  0.6867  0.2999
11071SOL    HW236745   4.403   9.023   4.588 -0.1333  0.1218 -2.6262
11072SOL     OW36746   1.551   9.629   1.637  0.5153  0.0237 -0.0857
11072SOL    HW136747   1.642   9.633   1.607  1.0841 -1.0287  1.3628
11072SOL    HW236748   1.530   9.535   1.637 -0.5257  0.2424 -0.2380
11073SOL     OW36749   0.628   0.311   5.337  0.0430  0.0184  0.3852
11073SOL    HW136750   0.670   0.347   5.259 -1.1742 -0.9734 -0.7894
11073SOL    HW236751   0.639   0.379   5.404  1.7293  0.6031 -0.4229
11074SOL     OW36752   7.020  11.023   2.294 -0.4268  0.1616 -0.1022
11074SOL    HW136753   6.927  11.033   2.272 -0.3394 -0.8868 -1.0180
11074SOL    HW236754   7.028  10.931   2.320 -0.2997  1.0380  3.3985
11075SOL     OW36755   3.588   1.769   3.464  0.0143  0.0972 -0.2415
11075SOL    HW136756   3.495   1.768   3.442 -0.3967  1.0272  1.2788
11075SOL    HW236757   3.607   1.679   3.490 -0.9325  0.2699  1.1519
11076SOL     OW36758   9.110  10.311   4.763  0.0958 -0.3462 -0.2087
11076SOL    HW136759   9.048  10.259   4.710  0.2736 -0.4733 -0.2940
11076SOL    HW236760   9.065  10.394   4.778  0.9216  0.5891 -2.4632
11077SOL     OW36761   5.950  10.152   3.389 -0.7393 -0.2015 -0.3571
11077SOL    HW136762   5.974  10.191   3.473 -1.7865 -1.5604  0.6117
11077SOL    HW236763   6.034  10.127   3.350 -0.3132 -1.8369  1.4484
11078SOL     OW36764   9.377   4.128   6.842  0.2908  0.3763  0.4411
11078SOL    HW136765   9.314   4.106   6.774  1.5741  1.4860 -1.2019
11078SOL    HW236766   9.359   4.067   6.913 -0.3043 -1.6974 -1.4035
11079SOL     OW36767   8.669   6.430   4.448 -0.4677  0.2283 -0.0660
11079SOL    HW136768   8.726   6.436   4.525 -1.4530 -0.4124  0.7352
11079SOL    HW236769   8.648   6.337   4.441 -1.4132  0.4532 -0.3483
11080SOL     OW36770   5.555   6.135   9.237 -0.0555 -0.4164  0.4349
11080SOL    HW136771   5.643   6.134   9.276 -0.6711 -1.2676  1.8748
11080SOL    HW236772   5.500   6.091   9.302 -1.2468 -1.4192 -1.2093
11081SOL     OW36773   8.482   9.717   3.083 -0.1163 -0.3826 -0.4862
11081SOL    HW136774   8.532   9.658   3.025 -1.1150 -2.3099  0.5058
11081SOL    HW236775   8.420   9.659   3.127 -1.3725  1.5121  0.3418
11082SOL     OW36776   8.566   8.523   0.235  0.1491 -0.1421  0.5993
11082SOL    HW136777   8.590   8.615   0.229 -0.8137  0.0521 -0.9707
11082SOL    HW236778   8.637   8.482   0.284 -0.3334  1.7216  3.0337
11083SOL     OW36779   5.275   3.930   2.075  0.3176 -0.5519 -0.0845
11083SOL    HW136780   5.196   3.951   2.026  0.4352 -0.8406 -0.4011
11083SOL    HW236781   5.347   3.957   2.017  0.4546 -0.5688  0.0761
11084SOL     OW36782   6.175   0.268   4.799  0.5037  0.1342  0.0386
11084SOL    HW136783   6.253   0.308   4.839  0.5867 -0.4393  0.4665
11084SOL    HW236784   6.108   0.273   4.867  0.7234 -1.0916  0.3762
11085SOL     OW36785   6.933  10.080   8.662  0.1166  0.1388 -0.3714
11085SOL    HW136786   6.907  10.157   8.610  0.0313  1.3726  1.3951
11085SOL    HW236787   7.000  10.037   8.610 -1.3747  0.1582 -2.4091
11086SOL     OW36788  11.091   2.037   3.683  0.6737  0.1988  0.0181
11086SOL    HW136789  11.001   2.070   3.673  1.5325  2.2469 -1.8838
11086SOL    HW236790  11.132   2.055   3.599  3.1202  0.0635  1.1077
11087SOL     OW36791   1.968   4.358   9.541 -0.2689 -0.0197  0.3602
11087SOL    HW136792   1.987   4.403   9.459 -0.7657 -0.8584 -0.2183
11087SOL    HW236793   1.952   4.429   9.604 -2.6682  0.6502 -0.9047
11088SOL     OW36794   6.833   2.367   3.852 -0.2359 -0.3544  0.4521
11088SOL    HW136795   6.894   2.350   3.781  0.0965  0.2620  0.5774
11088SOL    HW236796   6.881   2.425   3.912 -0.5914 -0.6676  1.0568
11089SOL     OW36797   8.938   1.754   5.362  0.2618 -0.4020 -0.0095
11089SOL    HW136798   9.030   1.766   5.385  0.5246 -0.9458 -0.7492
11089SOL    HW236799   8.918   1.828   5.304 -0.1360  0.4337  1.1541
11090SOL     OW36800   6.250   0.041   0.349  0.0549 -0.5934  0.2591
11090SOL    HW136801   6.325  -0.016   0.331  0.7747  0.2065  0.6745
11090SOL    HW236802   6.178   0.001   0.300  0.4341 -2.0976  0.8731
11091SOL     OW36803   4.653   0.785   3.808  0.5947  0.2719 -0.1843
11091SOL    HW136804   4.722   0.779   3.875  0.1362 -1.8141  0.1629
11091SOL    HW236805   4.572   0.766   3.855  0.2012 -0.6892 -1.2105
11092SOL     OW36806   6.503   6.008   0.110  0.4425  0.1527  0.4602
11092SOL    HW136807   6.571   6.050   0.058 -0.5035  3.2161  1.5145
11092SOL    HW236808   6.547   5.984   0.192  0.6632  0.4090  0.4174
11093SOL     OW36809  10.669   5.709   3.976 -0.8042 -0.2341 -0.1793
11093SOL    HW136810  10.630   5.639   4.028 -1.5991 -0.3432 -0.9056
11093SOL    HW236811  10.758   5.717   4.010 -0.9300 -1.1162  0.3845
11094SOL     OW36812   0.303   9.550   4.928  0.8363 -0.1032  0.2679
11094SOL    HW136813   0.290   9.487   4.857  1.0197  0.8094 -0.5868
11094SOL    HW236814   0.239   9.619   4.912  1.1005  0.2759  0.8013
11095SOL     OW36815   4.113   6.651   7.392 -0.4470 -0.1004  0.0706
11095SOL    HW136816   4.197   6.677   7.428 -0.8192 -0.2178  1.0484
11095SOL    HW236817   4.049   6.680   7.457 -0.9885 -1.9811  0.4252
11096SOL     OW36818   5.857   5.000  10.573 -0.8438  0.1125 -0.0246
11096SOL    HW136819   5.947   4.978  10.549 -0.9781 -0.7912  0.2659
11096SOL    HW236820   5.864   5.082  10.623  0.2208 -1.6533  2.9482
11097SOL     OW36821   2.227   0.095   0.980 -0.1841  0.3149 -0.0067
11097SOL    HW136822   2.214   0.173   1.034  1.4699  0.2417  0.5597
11097SOL    HW236823   2.306   0.114   0.929 -0.0249 -0.7896 -0.2052
11098SOL     OW36824   7.698   9.323   7.647  0.2773 -0.8354  0.1610
11098SOL    HW136825   7.751   9.257   7.692 -0.3249 -1.0070  0.6408
11098SOL    HW236826   7.654   9.274   7.577  0.4810 -0.7670 -0.0144
11099SOL     OW36827   0.962  10.942   5.903 -0.0261  0.7374  0.1054
11099SOL    HW136828   0.945  10.886   5.978 -0.5115  1.4838  0.5708
11099SOL    HW236829   0.879  10.945   5.855 -0.0709  1.2312  0.2083
11100SOL     OW36830   8.838   6.001   6.764  0.6088 -0.3484 -1.0284
11100SOL    HW136831   8.892   6.004   6.685  0.2449 -0.6597 -1.2916
11100SOL    HW236832   8.899   5.973   6.833  1.2897  1.3948 -0.8620
11101SOL     OW36833   6.207   9.656   2.418  0.2972  0.8101 -0.1635
11101SOL    HW136834   6.125   9.701   2.437 -0.0363 -0.5208  1.9549
11101SOL    HW236835   6.195   9.620   2.330 -1.1819  1.1030 -0.1059
11102SOL     OW36836   6.200   7.187   5.950 -0.0804  0.6060 -0.1936
11102SOL    HW136837   6.242   7.222   6.028 -0.4713 -0.9951  0.7809
11102SOL    HW236838   6.178   7.265   5.898  2.6108  1.5808 -0.0261
11103SOL     OW36839   2.231   6.883   8.005  0.1231  0.2094 -0.5784
11103SOL    HW136840   2.170   6.875   8.079  2.3853 -0.5967  1.3042
11103SOL    HW236841   2.207   6.812   7.946 -0.2233 -0.6410  0.5575
11104SOL     OW36842  10.533   3.331   6.037  0.0301  0.2216  0.3650
11104SOL    HW136843  10.467   3.391   6.071 -0.8774 -0.3767 -0.2971
11104SOL    HW236844  10.553   3.365   5.949 -1.5867 -1.2321 -0.6243
11105SOL     OW36845   8.521   4.981   2.560  0.1824  0.7048  0.3914
11105SOL    HW136846   8.522   5.014   2.470  0.5495 -0.9412 -0.2381
11105SOL    HW236847   8.477   4.896   2.555 -0.0160  0.6893  1.8106
11106SOL     OW36848   5.344   3.157   5.383  0.3537 -0.7800  0.4240
11106SOL    HW136849   5.431   3.132   5.352  0.0478 -2.0193  0.5092
11106SOL    HW236850   5.298   3.073   5.396 -1.9437 -0.2363 -2.7549
11107SOL     OW36851   8.335   2.823   1.207 -0.1284  0.1431  0.0291
11107SOL    HW136852   8.244   2.800   1.187  0.1647 -0.4773 -0.6606
11107SOL    HW236853   8.386   2.754   1.166  0.7719  1.6593 -1.5807
11108SOL     OW36854   1.211   7.066   7.075  0.5839 -0.5223 -0.0976
11108SOL    HW136855   1.152   6.997   7.044  0.9543 -0.5086 -0.8659
11108SOL    HW236856   1.289   7.019   7.105  0.2486 -0.5312  0.7858
11109SOL     OW36857   4.801   7.154   9.280 -0.3294  0.4579 -0.3502
11109SOL    HW136858   4.811   7.080   9.219  2.0383  1.1110 -0.8432
11109SOL    HW236859   4.839   7.229   9.233  0.8465  1.1437  1.6087
11110SOL     OW36860   8.636   5.359   0.284 -0.0320 -0.2022 -0.1322
11110SOL    HW136861   8.576   5.325   0.350  0.1929  0.0485  0.2039
11110SOL    HW236862   8.708   5.296   0.283  0.0347 -0.1279 -0.0323
11111SOL     OW36863   4.565   5.183   1.069  0.3677 -0.3357  0.3219
11111SOL    HW136864   4.567   5.119   1.141 -1.3767 -0.6006  0.1576
11111SOL    HW236865   4.599   5.136   0.994  1.2754 -0.3515  0.7260
11112SOL     OW36866   4.923  10.340   3.849  0.2182  0.9675  0.3023
11112SOL    HW136867   4.995  10.277   3.837 -2.2645 -2.0245 -0.4160
11112SOL    HW236868   4.884  10.315   3.932 -1.6292  0.6013 -0.6291
11113SOL     OW36869   9.622   8.542   2.755  0.1322 -0.0364  0.0117
11113SOL    HW136870   9.663   8.534   2.669  0.0320  0.7646 -0.1126
11113SOL    HW236871   9.690   8.512   2.816  1.1073  1.6880 -0.1595
11114SOL     OW36872   0.348   5.032   8.582 -0.2551 -0.2860  0.7723
11114SOL    HW136873   0.270   4.992   8.621 -1.2517  0.0819 -0.7592
11114SOL    HW236874   0.317   5.071   8.500  1.5858 -0.3412 -0.0092
11115SOL     OW36875   6.008   8.044   2.074  0.5226 -0.5029  0.4764
11115SOL    HW136876   6.100   8.047   2.098  0.8594 -1.0700 -0.6413
11115SOL    HW236877   5.971   8.125   2.109  1.8429  0.5882 -0.5324
11116SOL     OW36878   9.058   6.770   1.585 -0.4602  0.0767 -0.9070
11116SOL    HW136879   9.008   6.782   1.504 -0.0660  0.7643 -1.0515
11116SOL    HW236880   9.110   6.691   1.569 -0.8271 -0.1323 -1.0945
11117SOL     OW36881   8.677   8.028   8.367 -0.3398 -0.1722  0.3256
11117SOL    HW136882   8.598   8.076   8.392  0.3769  0.4248  1.5646
11117SOL    HW236883   8.680   8.034   8.272 -1.4997  0.2468  0.3015
11118SOL     OW36884   8.295   3.175   9.707 -0.3060 -0.0958  0.6981
11118SOL    HW136885   8.214   3.123   9.700  0.7491 -1.6654 -0.4582
11118SOL    HW236886   8.345   3.151   9.630  1.4071  0.6453  1.5425
11119SOL     OW36887   0.111   9.341   4.704  0.5053  0.3847 -0.1016
11119SOL    HW136888   0.084   9.249   4.706 -0.0892  0.5223 -1.0785
11119SOL    HW236889   0.205   9.339   4.719  0.5515 -0.4123 -0.4359
11120SOL     OW36890  10.698   1.238   6.922  0.2520 -0.3687 -0.3484
11120SOL    HW136891  10.792   1.256   6.926  0.4336 -0.5748 -2.5923
11120SOL    HW236892  10.686   1.190   6.840 -1.6327 -1.6132  0.5813
11121SOL     OW36893   8.320   0.492  10.315  0.0136  0.1303 -0.4549
11121SOL    HW136894   8.254   0.466  10.379  0.4295  0.9038  0.3143
11121SOL    HW236895   8.398   0.441  10.338  0.2550  0.6315 -0.1384
11122SOL     OW36896   5.403   4.312   2.279  0.4005  0.5275  0.3422
11122SOL    HW136897   5.406   4.231   2.331  1.8925  0.8300  0.7856
11122SOL    HW236898   5.480   4.307   2.223 -0.8117  0.5514 -1.3777
11123SOL     OW36899   2.647   8.403   6.908 -0.1382 -0.8121  0.4871
11123SOL    HW136900   2.623   8.487   6.868 -0.5301 -1.3371 -0.3998
11123SOL    HW236901   2.632   8.416   7.002  0.4676  0.3313  0.4411
11124SOL     OW36902   2.677   0.384   0.530 -0.6600  0.1366  0.3380
11124SOL    HW136903   2.594   0.430   0.529  0.9627  3.3850  1.3327
11124SOL    HW236904   2.698   0.370   0.438 -2.6934 -1.7224  0.0809
11125SOL     OW36905   6.532   4.664   6.173 -0.1177  0.0007  0.5140
11125SOL    HW136906   6.618   4.702   6.190 -0.0925  0.4181 -0.4600
11125SOL    HW236907   6.482   4.735   6.132  0.0046 -1.0076 -1.5462
11126SOL     OW36908  10.958   8.517   6.103 -0.0651  0.3911  0.0648
11126SOL    HW136909  10.896   8.567   6.157 -2.2901 -1.5637 -0.5145
11126SOL    HW236910  11.009   8.584   6.057 -1.7460  2.1134  0.5877
11127SOL     OW36911   7.167   4.747   2.411  1.0497 -0.4720  0.1118
11127SOL    HW136912   7.107   4.781   2.478 -0.0790 -1.1224 -0.5287
11127SOL    HW236913   7.234   4.814   2.402 -0.8545  1.4176 -0.8168
11128SOL     OW36914   8.748   7.138  10.697  0.0114  0.0313  0.1023
11128SOL    HW136915   8.751   7.069  10.631  1.1300  1.3481 -1.2915
11128SOL    HW236916   8.662   7.179  10.685 -0.2980 -0.5244  0.3495
11129SOL     OW36917   4.874   9.695   2.504  0.6961 -0.8827 -0.1027
11129SOL    HW136918   4.955   9.643   2.506  1.9186  0.9291  0.2923
11129SOL    HW236919   4.879   9.748   2.584 -0.7546 -0.5227 -0.2378
11130SOL     OW36920   4.483   5.908   9.462  0.2234  0.1057 -0.4675
11130SOL    HW136921   4.443   5.866   9.387 -0.6528 -0.3484  0.2361
11130SOL    HW236922   4.470   6.002   9.447  2.3492  0.2319 -2.1307
11131SOL     OW36923  10.813   8.949   0.879  0.3172  0.2859  0.4778
11131SOL    HW136924  10.759   8.915   0.950  0.0091  1.4482  0.8165
11131SOL    HW236925  10.897   8.904   0.889  0.0831  0.0001  1.2179
11132SOL     OW36926   9.601   8.028   2.385 -0.2024 -0.1467  0.6791
11132SOL    HW136927   9.652   8.092   2.336  0.7319 -0.4710  1.2196
11132SOL    HW236928   9.608   7.947   2.334 -1.8378  0.2674 -0.3028
11133SOL     OW36929   8.033   2.740   1.596  0.6479 -0.6254  0.5727
11133SOL    HW136930   7.946   2.749   1.558 -0.2264 -0.7454  2.4556
11133SOL    HW236931   8.093   2.752   1.522 -0.9178  0.5748 -0.5586
11134SOL     OW36932   6.140   6.197   4.466 -0.0225  0.0539 -0.3201
11134SOL    HW136933   6.218   6.198   4.522  0.2323  1.0880 -0.6796
11134SOL    HW236934   6.147   6.116   4.417 -1.1141 -1.7967  2.3118
11135SOL     OW36935   1.540  10.002   5.113 -0.3695  0.1304  0.1129
11135SOL    HW136936   1.572  10.084   5.150  2.4524 -0.3013 -1.0841
11135SOL    HW236937   1.471  10.028   5.052 -0.8507  1.3924  1.1456
11136SOL     OW36938   1.280   1.450   4.592 -0.3136  0.1818 -0.3797
11136SOL    HW136939   1.364   1.478   4.627  0.2933 -2.6917  0.7664
11136SOL    HW236940   1.216   1.508   4.632  0.8470  0.2884  1.4343
11137SOL     OW36941  10.620   3.372  10.483 -0.4347 -0.3851  0.1999
11137SOL    HW136942  10.609   3.306  10.414 -0.0347  0.1897 -0.4205
11137SOL    HW236943  10.615   3.322  10.564 -0.6382 -1.1127 -0.2516
11138SOL     OW36944   7.177   2.038  10.037 -0.0053 -0.3051 -0.0107
11138SOL    HW136945   7.260   2.071  10.070 -0.6157  1.1014  0.1797
11138SOL    HW236946   7.144   2.108   9.979 -1.7053 -0.2017  1.0018
11139SOL     OW36947   7.476   5.295   2.225 -0.0950  0.3340  0.0922
11139SOL    HW136948   7.546   5.256   2.278  1.0479  0.9798 -0.8927
11139SOL    HW236949   7.522   5.348   2.161 -1.5353  1.2389 -0.2230
11140SOL     OW36950   9.078   9.070   5.348 -0.5192  0.2059  0.2674
11140SOL    HW136951   9.001   9.105   5.395 -0.4892 -0.7104  1.0274
11140SOL    HW236952   9.148   9.132   5.369 -0.0852 -1.0222  2.8646
11141SOL     OW36953  10.385   0.423   7.260  0.0385 -0.1194  0.1225
11141SOL    HW136954  10.296   0.388   7.263 -0.2580  0.6698  1.0074
11141SOL    HW236955  10.378   0.510   7.300  0.7518  0.9750 -1.9806
11142SOL     OW36956   7.065   4.169   9.775 -0.4744  0.4361  0.8603
11142SOL    HW136957   7.030   4.236   9.834 -0.6731  0.1191  1.1064
11142SOL    HW236958   6.988   4.117   9.750 -1.1062  2.6337 -2.4720
11143SOL     OW36959   8.843   1.045   0.940  0.3549 -0.1633 -0.1541
11143SOL    HW136960   8.782   1.048   1.013  2.1171  2.0933  1.3679
11143SOL    HW236961   8.859   0.952   0.925 -3.5494 -0.8755 -0.8282
11144SOL     OW36962   8.068   1.414   7.834 -0.1497 -0.2024  0.0948
11144SOL    HW136963   8.140   1.453   7.883 -0.0405 -1.6015  1.1128
11144SOL    HW236964   8.075   1.320   7.852 -0.8439 -0.6248 -1.6612
11145SOL     OW36965   6.345   8.831   2.326 -0.1659 -0.3512 -0.0908
11145SOL    HW136966   6.320   8.760   2.267 -1.8438  0.3614 -0.2821
11145SOL    HW236967   6.304   8.809   2.410  0.9107 -0.5682  0.3925
11146SOL     OW36968   7.759   4.402   4.270 -0.0766  0.0255  0.5700
11146SOL    HW136969   7.815   4.476   4.248 -1.3612  1.9156  3.1262
11146SOL    HW236970   7.670   4.433   4.253 -0.6076 -1.1562  1.0612
11147SOL     OW36971   8.821   2.407   6.184  0.1217 -0.4247 -0.4407
11147SOL    HW136972   8.911   2.375   6.192  0.2756 -0.0773 -0.7526
11147SOL    HW236973   8.809   2.423   6.090 -0.8488 -2.1242 -0.6476
11148SOL     OW36974   2.756  11.020   8.858 -0.3924 -0.6864  0.6383
11148SOL    HW136975   2.686  11.071   8.899 -0.0583  0.0480  0.3147
11148SOL    HW236976   2.713  10.940   8.828 -1.1881 -0.0562  0.0648
11149SOL     OW36977  10.062   2.735   8.277 -0.1891 -0.0498  0.5242
11149SOL    HW136978  10.021   2.808   8.229  1.0182  0.8767  0.8659
11149SOL    HW236979   9.999   2.714   8.346 -0.5100  0.7397  0.4869
11150SOL     OW36980   5.688   5.918   6.978 -0.2704 -0.2930  0.3332
11150SOL    HW136981   5.652   5.874   7.055 -0.2667 -1.3684 -0.2618
11150SOL    HW236982   5.613   5.964   6.940 -0.7266 -1.3622 -0.0995
11151SOL     OW36983   9.618   2.018   1.576  0.1543  0.2842  0.2708
11151SOL    HW136984   9.540   1.962   1.574  0.0498  0.3681  1.2590
11151SOL    HW236985   9.679   1.976   1.516 -0.2979 -0.3317  0.2271
11152SOL     OW36986   5.429   9.309   3.652 -0.0016 -0.2799 -0.0440
11152SOL    HW136987   5.462   9.399   3.653 -0.8658  0.0413  0.3287
11152SOL    HW236988   5.342   9.316   3.611  0.4592 -1.1370 -1.2219
11153SOL     OW36989   8.492   4.145   9.620  0.0284 -0.0388 -0.5496
11153SOL    HW136990   8.473   4.054   9.644  1.6172  0.0488  1.2453
11153SOL    HW236991   8.525   4.140   9.531  0.0400 -1.2264 -0.4900
11154SOL     OW36992   2.615   7.878   7.619 -0.2248 -0.5171 -0.2782
11154SOL    HW136993   2.649   7.949   7.674 -0.9906  1.1006 -1.7943
11154SOL    HW236994   2.688   7.856   7.561 -0.3001 -0.2391 -0.4823
11155SOL     OW36995   4.564   2.924   5.620 -0.1299 -0.3192 -0.0819
11155SOL    HW136996   4.600   2.837   5.605  0.2066 -0.2355  0.2060
11155SOL    HW236997   4.501   2.937   5.550  1.5751  0.1737 -1.6027
11156SOL     OW36998   5.045   7.292   8.606 -0.1399 -0.1303 -0.0722
11156SOL    HW136999   5.030   7.249   8.522  0.7630 -2.3348  0.8103
11156SOL    HW237000   4.999   7.375   8.599 -0.5598 -0.4942 -2.5254
11157SOL     OW37001   9.174   0.482   8.311 -0.5552  0.6790  0.0346
11157SOL    HW137002   9.202   0.407   8.259 -1.3718 -1.3309  2.2608
11157SOL    HW237003   9.246   0.498   8.372 -0.0943  2.2100 -0.8783
11158SOL     OW37004  10.496   0.021   2.364  0.6027 -0.6785 -0.2108
11158SOL    HW137005  10.412   0.024   2.409  0.7357 -0.8217  0.0477
11158SOL    HW237006  10.512  -0.072   2.350 -0.6608 -0.5905 -2.8712
11159SOL     OW37007   4.780   4.540  10.997  0.7374 -0.1916 -0.1499
11159SOL    HW137008   4.687   4.560  10.994  0.6897 -0.3172  0.4905
11159SOL    HW237009   4.785   4.447  10.974  0.7929  0.0288 -1.1067
11160SOL     OW37010  10.912   7.572   0.739 -0.4603  0.1062 -0.3459
11160SOL    HW137011  10.885   7.492   0.785 -1.0578  1.3341  1.5768
11160SOL    HW237012  10.831   7.612   0.709 -0.2986  0.6527 -0.0846
11161SOL     OW37013   1.177   1.793   2.751  0.4540  0.0526 -0.1766
11161SOL    HW137014   1.231   1.722   2.787  1.9739  0.9854 -0.5251
11161SOL    HW237015   1.173   1.858   2.820 -1.3428 -0.5260  0.3203
11162SOL     OW37016   6.389   7.053   3.877 -0.3869  0.2731 -0.6102
11162SOL    HW137017   6.367   6.960   3.878 -1.5910  0.4614  2.8631
11162SOL    HW237018   6.304   7.097   3.867 -0.4533  0.9305  2.0375
11163SOL     OW37019   8.496   5.295   9.158 -0.7707 -0.2807 -0.0547
11163SOL    HW137020   8.419   5.331   9.113 -0.1573 -0.1910 -1.0647
11163SOL    HW237021   8.460   5.256   9.237 -1.7843  0.2989 -0.1962
11164SOL     OW37022   5.011   4.419   4.881 -0.2053  0.1030 -0.0220
11164SOL    HW137023   5.015   4.461   4.795  0.6314  0.5547  0.2347
11164SOL    HW237024   4.920   4.432   4.909 -0.0190  1.5786 -0.0313
11165SOL     OW37025   6.604   8.031  10.941  0.2205  0.1542  0.2237
11165SOL    HW137026   6.665   7.958  10.951  0.9859  0.6687 -0.5080
11165SOL    HW237027   6.624   8.066  10.854 -0.3601  1.0225  0.4309
11166SOL     OW37028  10.147   9.525   5.615  0.6659  0.1912 -0.2973
11166SOL    HW137029  10.170   9.520   5.708  1.2883 -1.2480 -0.4945
11166SOL    HW237030  10.211   9.585   5.577 -0.6030  2.1248  0.4523
11167SOL     OW37031   0.175   0.583   0.388  0.4284  0.0204  0.5382
11167SOL    HW137032   0.179   0.673   0.419  0.9307  0.2544 -0.1844
11167SOL    HW237033   0.117   0.539   0.450  0.1223  0.8536  0.8570
11168SOL     OW37034   4.104   1.778   5.496  0.2733  0.2376 -0.1161
11168SOL    HW137035   4.110   1.767   5.401  0.1169  1.0258 -0.2218
11168SOL    HW237036   4.073   1.868   5.508  0.7711  0.3099  0.6912
11169SOL     OW37037   8.445   6.892   4.872  0.0971  0.3363 -0.1089
11169SOL    HW137038   8.472   6.801   4.855  0.1227  0.3681 -0.2460
11169SOL    HW237039   8.478   6.940   4.796 -0.7309  0.3066 -0.4980
11170SOL     OW37040   7.584   0.176   0.334  0.3045 -0.0902  0.4225
11170SOL    HW137041   7.517   0.241   0.314 -0.3458 -1.2184 -1.3469
11170SOL    HW237042   7.567   0.150   0.424 -2.2437 -0.9592 -0.2102
11171SOL     OW37043   8.629   1.898   2.516  0.0707  0.2940 -0.4786
11171SOL    HW137044   8.699   1.904   2.451 -0.6620  0.4817 -1.2743
11171SOL    HW237045   8.633   1.981   2.563  0.9479 -0.0555  0.0895
11172SOL     OW37046   9.411   2.279  10.854 -0.1246 -0.0165 -0.0185
11172SOL    HW137047   9.327   2.288  10.898 -0.1463  0.9370 -0.2400
11172SOL    HW237048   9.390   2.270  10.762 -0.0529 -1.5711  0.0792
11173SOL     OW37049  10.344   6.723   0.333  0.1183  0.4073 -0.2154
11173SOL    HW137050  10.271   6.736   0.393 -1.2546 -0.6536 -1.5725
11173SOL    HW237051  10.422   6.749   0.383 -0.7314 -1.9755  2.6234
11174SOL     OW37052   7.263   8.445   3.335  0.2414 -0.2402  0.1638
11174SOL    HW137053   7.353   8.434   3.304  0.6437  0.4315  1.0311
11174SOL    HW237054   7.243   8.537   3.316  0.0623 -0.1535  0.7534
11175SOL     OW37055   9.976  10.683   7.357  0.0288 -0.2964  0.1781
11175SOL    HW137056  10.025  10.630   7.420 -0.6985  0.1727  1.1649
11175SOL    HW237057  10.003  10.650   7.271  3.7040  1.3237  0.5311
11176SOL     OW37058   3.359   8.175   9.757  0.3863 -0.0509  0.1627
11176SOL    HW137059   3.440   8.126   9.770  1.0985  1.0603 -0.0216
11176SOL    HW237060   3.354   8.236   9.830  0.4956  0.9179 -0.6138
11177SOL     OW37061   0.668   1.846   3.627 -0.4877  0.3827  0.2282
11177SOL    HW137062   0.618   1.848   3.545  0.1493 -0.2126 -0.1824
11177SOL    HW237063   0.743   1.903   3.610  1.5326 -2.3734 -0.8880
11178SOL     OW37064   7.959   2.256  10.296 -0.1117  0.0610  0.1716
11178SOL    HW137065   8.002   2.261  10.381 -1.0903 -1.5362  0.8004
11178SOL    HW237066   7.870   2.228  10.315 -0.1421 -1.0967 -1.4100
11179SOL     OW37067   6.040   9.637   6.298  0.0898  0.3653  0.2957
11179SOL    HW137068   6.078   9.637   6.210  1.2757 -0.2926  0.7829
11179SOL    HW237069   5.995   9.553   6.304  1.2949 -0.2585  0.8301
11180SOL     OW37070   7.856   3.591   2.229 -0.2155  0.1883 -0.2317
11180SOL    HW137071   7.875   3.678   2.194 -1.0836  0.7712  0.6813
11180SOL    HW237072   7.816   3.544   2.156 -0.9993  1.0209 -0.3522
11181SOL     OW37073   4.315   2.709   2.413 -0.1490  0.2846 -1.0792
11181SOL    HW137074   4.275   2.624   2.435 -0.8647  0.8666  0.0034
11181SOL    HW237075   4.407   2.689   2.397 -0.3000 -0.6927 -0.8024
11182SOL     OW37076   3.238   4.994  10.059  0.3907  0.4983 -0.5674
11182SOL    HW137077   3.149   4.966  10.038  0.7066 -1.2807  0.3054
11182SOL    HW237078   3.227   5.056  10.131 -0.1540  0.1693 -0.3575
11183SOL     OW37079   7.008   6.067   6.794 -0.3957  0.7266 -0.1661
11183SOL    HW137080   7.007   6.147   6.741  1.9001  1.2037  0.3707
11183SOL    HW237081   7.021   6.098   6.883 -1.4443 -0.1955  0.3292
11184SOL     OW37082   9.757   7.308   9.459  0.6665 -1.1161 -0.1697
11184SOL    HW137083   9.768   7.263   9.544 -0.4542 -2.2124 -0.5800
11184SOL    HW237084   9.751   7.237   9.396  1.1157 -0.3062 -1.1435
11185SOL     OW37085   6.209  10.913   9.574 -0.4569  0.3129  0.3513
11185SOL    HW137086   6.282  10.911   9.512  0.5807 -0.1640  1.5499
11185SOL    HW237087   6.172  10.825   9.570 -2.3537  1.1229 -1.7920
11186SOL     OW37088  11.033  10.795   4.831 -0.4910 -0.1784  0.1959
11186SOL    HW137089  10.965  10.862   4.838 -0.4541 -0.0619 -0.4867
11186SOL    HW237090  10.988  10.719   4.794 -0.4511 -0.4233  0.6324
11187SOL     OW37091   1.574   9.333   6.644  0.1240  0.0577  0.0255
11187SOL    HW137092   1.581   9.328   6.549  0.8893  3.1034 -0.1886
11187SOL    HW237093   1.483   9.312   6.664 -0.0554 -0.5438 -1.3637
11188SOL     OW37094   8.007   0.834   7.977  0.4154 -0.1754  0.4365
11188SOL    HW137095   7.912   0.826   7.976  0.5073 -1.6011  0.7675
11188SOL    HW237096   8.035   0.801   7.892  0.6687 -0.5848  0.6785
11189SOL     OW37097   6.013   5.176   5.305 -0.0070 -0.0716 -0.5603
11189SOL    HW137098   5.979   5.221   5.228 -0.3543 -2.1773 -1.7240
11189SOL    HW237099   5.954   5.102   5.318  1.0760 -0.7772  0.6488
11190SOL     OW37100   1.948   5.897   7.030  0.3297 -0.1228 -0.2836
11190SOL    HW137101   1.943   5.802   7.022  1.2825 -0.2929  0.9346
11190SOL    HW237102   1.900   5.917   7.111 -1.6434  0.6736 -1.5560
11191SOL     OW37103   9.506   9.054   4.285  0.0801 -0.5161  0.3223
11191SOL    HW137104   9.524   9.004   4.365  0.6099  0.5867  0.9134
11191SOL    HW237105   9.415   9.084   4.296  0.5182  0.6042  1.0802
11192SOL     OW37106   5.517   1.409   8.915 -0.2652 -0.4413 -0.1016
11192SOL    HW137107   5.424   1.409   8.895 -0.2335  3.5777 -0.9753
11192SOL    HW237108   5.541   1.501   8.922  3.9694 -1.2162 -1.3361
11193SOL     OW37109   1.819  10.766   6.313  0.2756  0.3920 -0.3662
11193SOL    HW137110   1.736  10.727   6.286  0.0689  1.1424 -0.8601
11193SOL    HW237111   1.854  10.706   6.379 -0.2364 -0.3872 -0.7869
11194SOL     OW37112   8.548  10.712   6.101 -0.1365 -0.2336 -0.1218
11194SOL    HW137113   8.486  10.773   6.061 -0.5715 -0.5567  0.0613
11194SOL    HW237114   8.496  10.634   6.122  0.5613 -0.9961 -1.0944
11195SOL     OW37115   1.842   8.279  10.010 -0.1256 -0.1586  0.0359
11195SOL    HW137116   1.867   8.364   9.974 -0.1677 -0.1342  0.0633
11195SOL    HW237117   1.814   8.228   9.934  0.6295 -0.4115 -0.0792
11196SOL     OW37118   6.172   9.188   0.655 -0.1253 -0.3300 -0.1304
11196SOL    HW137119   6.242   9.155   0.598  1.8820  1.1754  1.3450
11196SOL    HW237120   6.205   9.175   0.744 -1.4802  0.9639  0.6101
11197SOL     OW37121   9.422   2.721   4.928 -0.2537 -0.0259 -0.0302
11197SOL    HW137122   9.351   2.699   4.868 -0.6509 -1.3866  0.8761
11197SOL    HW237123   9.491   2.757   4.873 -0.0880 -2.4200 -1.5200
11198SOL     OW37124   2.528   0.228   2.470  0.3087  0.5499 -0.2662
11198SOL    HW137125   2.487   0.146   2.440  2.0616 -0.4089 -0.1806
11198SOL    HW237126   2.582   0.202   2.545 -0.6712  2.1738  1.0719
11199SOL     OW37127   8.361   2.639   9.075 -0.0539 -0.7744  0.1626
11199SOL    HW137128   8.454   2.624   9.063  0.1448  0.1298  0.4419
11199SOL    HW237129   8.319   2.588   9.006  0.8481  1.5146 -2.3027
11200SOL     OW37130   1.775   3.323   2.420  0.3880  0.2214  0.7527
11200SOL    HW137131   1.708   3.277   2.370  1.1241 -3.2024  2.6424
11200SOL    HW237132   1.725   3.376   2.483 -0.5726 -0.7173  0.8102
11201SOL     OW37133   9.951   1.730   8.328  0.0500  1.0086  0.1380
11201SOL    HW137134   9.874   1.755   8.380 -0.8827  0.4945 -0.9439
11201SOL    HW237135  10.025   1.740   8.388 -1.0882 -0.5617  1.9135
11202SOL     OW37136   2.782   9.581  10.866 -0.2503 -0.5681 -0.3586
11202SOL    HW137137   2.858   9.550  10.817 -0.1116  1.4821 -1.5745
11202SOL    HW237138   2.811   9.582  10.957  1.2077  0.1766 -0.7970
11203SOL     OW37139   3.673   0.559   9.384  0.1061 -0.5465  0.0215
11203SOL    HW137140   3.719   0.504   9.448  1.0667 -0.5506 -0.6618
11203SOL    HW237141   3.739   0.579   9.318 -0.7336 -0.0852 -0.6855
11204SOL     OW37142   0.545   5.390   6.776 -0.2038  0.3429  0.0855
11204SOL    HW137143   0.528   5.303   6.741  2.7469 -0.3938  0.2605
11204SOL    HW237144   0.609   5.428   6.716 -1.2787  2.3442  0.1358
11205SOL     OW37145   8.197   7.636   6.116 -0.2053  0.2533 -0.1964
11205SOL    HW137146   8.253   7.569   6.077  1.0517  0.7096  0.7478
11205SOL    HW237147   8.108   7.610   6.091  0.2769 -1.4894 -0.2660
11206SOL     OW37148   1.717   4.271   8.079  0.5835  0.4752  0.0593
11206SOL    HW137149   1.720   4.265   8.174 -0.6633  0.2932  0.1051
11206SOL    HW237150   1.628   4.300   8.060  0.3897 -0.8102 -1.1142
11207SOL     OW37151   9.919   0.817  10.470  0.7700  0.7091  0.0566
11207SOL    HW137152   9.901   0.767  10.390 -0.1668  0.6986  0.2531
11207SOL    HW237153   9.983   0.764  10.518 -0.5919 -0.6215  0.5129
11208SOL     OW37154   7.276   1.600   9.799 -0.5135 -0.1896 -0.0462
11208SOL    HW137155   7.237   1.664   9.859  1.2330  1.1196 -0.2080
11208SOL    HW237156   7.369   1.598   9.824 -0.2661 -1.6316 -0.9734
11209SOL     OW37157   8.998   7.670   2.150 -0.5636  0.1009  0.1697
11209SOL    HW137158   9.080   7.623   2.164 -0.4454 -0.9192 -3.1530
11209SOL    HW237159   9.017   7.730   2.077 -2.0156  2.0097  1.2727
11210SOL     OW37160   0.694  10.938   1.631 -0.2048 -0.1070 -0.3260
11210SOL    HW137161   0.778  10.965   1.594  0.5926 -0.8832  0.8419
11210SOL    HW237162   0.717  10.899   1.716 -1.6859 -0.8796 -0.2526
11211SOL     OW37163   2.393   6.379   5.314 -0.3540  0.1268 -0.0590
11211SOL    HW137164   2.433   6.371   5.227 -2.0937 -1.2609 -0.7899
11211SOL    HW237165   2.371   6.472   5.322 -0.2800  0.2493 -1.1528
11212SOL     OW37166   6.229  11.058   1.818  0.7243 -0.2383 -0.0952
11212SOL    HW137167   6.181  11.130   1.860  0.3913 -0.5582  0.0754
11212SOL    HW237168   6.293  11.031   1.884  0.5916 -0.3549 -0.0150
11213SOL     OW37169   5.425   3.266   4.882 -0.1942 -0.5299  0.0868
11213SOL    HW137170   5.436   3.198   4.949 -0.3227  0.1330  0.7916
11213SOL    HW237171   5.496   3.328   4.899 -1.2539  0.5590  0.7469
11214SOL     OW37172   5.788   4.091   0.721 -0.1954 -0.0180  0.7390
11214SOL    HW137173   5.746   4.023   0.670  0.3148 -1.2412  1.8847
11214SOL    HW237174   5.768   4.172   0.675 -2.6350 -0.6821  0.5047
11215SOL     OW37175   2.323   7.603   1.239 -0.3557  0.0945  0.2655
11215SOL    HW137176   2.407   7.560   1.258 -0.3350 -0.6227 -1.2782
11215SOL    HW237177   2.342   7.697   1.247  1.4977  0.1588 -3.0168
11216SOL     OW37178   6.575   1.038   9.590  0.1089  0.6922  0.4657
11216SOL    HW137179   6.569   0.947   9.561  1.2022  0.5011  0.7724
11216SOL    HW237180   6.529   1.088   9.523 -0.3779 -0.0715  0.2212
11217SOL     OW37181   1.105   8.695   3.861  0.1731  0.0891 -0.1479
11217SOL    HW137182   1.157   8.657   3.932 -0.0638  0.5223  0.2672
11217SOL    HW237183   1.146   8.664   3.781  1.3463  0.7938  0.1684
11218SOL     OW37184   7.453   0.398   0.255 -0.6942 -0.1240 -0.4724
11218SOL    HW137185   7.520   0.464   0.237 -1.2671  0.3862 -0.7795
11218SOL    HW237186   7.381   0.419   0.195 -0.4719 -1.6773 -1.3421
11219SOL     OW37187   4.030   4.299   2.432 -0.3380  0.0573  0.2712
11219SOL    HW137188   4.092   4.320   2.501  0.7833  0.7320 -0.8966
11219SOL    HW237189   3.975   4.230   2.469  1.4932 -1.0151  1.1330
11220SOL     OW37190  10.315   3.646   1.162  0.7355 -0.1174  0.9276
11220SOL    HW137191  10.225   3.616   1.175  0.2147  0.4691 -1.0349
11220SOL    HW237192  10.306   3.732   1.121  2.2116  0.6775  2.1701
11221SOL     OW37193   5.058   7.747   1.284 -0.1160  0.1137 -0.0095
11221SOL    HW137194   5.111   7.827   1.282 -1.4510  1.0132 -1.3553
11221SOL    HW237195   5.120   7.676   1.266  1.0573  0.8288  1.0325
11222SOL     OW37196   4.766  10.803   7.352 -0.3557 -0.0161 -0.1444
11222SOL    HW137197   4.800  10.746   7.421 -1.9755 -0.1061  0.6425
11222SOL    HW237198   4.671  10.792   7.358 -0.8150  3.4635  0.6722
11223SOL     OW37199   5.656  10.955   5.426 -0.1632 -1.1946 -0.4966
11223SOL    HW137200   5.587  10.958   5.359  0.3747  2.2457 -1.1189
11223SOL    HW237201   5.609  10.938   5.507 -1.9360  1.2432 -0.8775
11224SOL     OW37202   8.348   8.992   2.722  0.0672 -0.0642  0.2906
11224SOL    HW137203   8.265   8.951   2.698 -0.2726  1.0897 -0.6316
11224SOL    HW237204   8.401   8.921   2.758 -0.1987 -1.5318 -1.9839
11225SOL     OW37205  10.088   6.285   5.103 -0.6251  0.6869  0.9813
11225SOL    HW137206  10.074   6.192   5.087 -0.5531  0.5500  1.7041
11225SOL    HW237207  10.013   6.328   5.061  0.6456  0.5303 -1.6288
11226SOL     OW37208   9.451   0.090   7.708  0.7016  0.0537 -0.4451
11226SOL    HW137209   9.444   0.152   7.636  0.7300  0.7868  0.1665
11226SOL    HW237210   9.542   0.062   7.708  1.3683  2.0026  0.8435
11227SOL     OW37211  10.226   4.028   3.048 -0.4326 -0.7518 -0.3505
11227SOL    HW137212  10.291   3.993   2.986  0.5767 -0.4836  0.5343
11227SOL    HW237213  10.240   4.122   3.047  0.4054 -0.8302  1.1431
11228SOL     OW37214   3.594   1.179   2.863  0.0404 -0.2405  0.2016
11228SOL    HW137215   3.599   1.190   2.768 -0.5419 -0.5667  0.1296
11228SOL    HW237216   3.520   1.234   2.889  1.9440  2.1696  0.8561
11229SOL     OW37217   8.611  10.272   3.193 -0.0185  0.1517  0.0057
11229SOL    HW137218   8.612  10.248   3.286  1.7746 -0.8491 -0.2128
11229SOL    HW237219   8.693  10.320   3.180  0.0569 -0.2716 -1.1872
11230SOL     OW37220  10.227   1.132   0.733  0.3383  0.6618 -0.2901
11230SOL    HW137221  10.153   1.097   0.684  0.1280  1.8802 -0.8939
11230SOL    HW237222  10.244   1.067   0.802 -1.0073  0.1575 -0.4069
11231SOL     OW37223   5.644   8.417   9.486  0.4527  0.4130  0.1173
11231SOL    HW137224   5.704   8.342   9.482 -0.5665 -0.3717 -1.2917
11231SOL    HW237225   5.571   8.386   9.540 -0.4824 -0.0461 -1.3405
11232SOL     OW37226   9.505   4.176   0.232  0.4224  0.1313  0.1254
11232SOL    HW137227   9.540   4.097   0.274  0.9581  0.6868  0.7518
11232SOL    HW237228   9.582   4.225   0.205  0.1115  0.7907  0.4164
11233SOL     OW37229   6.788   0.254   9.198 -0.5908 -0.3625  0.2096
11233SOL    HW137230   6.716   0.232   9.138 -1.3441 -0.1924  1.0294
11233SOL    HW237231   6.801   0.348   9.185 -2.0760  0.0956  1.6640
11234SOL     OW37232   5.710   1.708   5.133 -0.2224 -0.0279  0.3547
11234SOL    HW137233   5.773   1.678   5.199 -0.4220  0.9456  1.0097
11234SOL    HW237234   5.754   1.779   5.087 -0.5916  0.2093  0.3643
11235SOL     OW37235   5.123   0.194   4.019  0.3321 -0.2501 -0.6021
11235SOL    HW137236   5.204   0.180   4.069 -0.4003 -0.6553  0.5061
11235SOL    HW237237   5.126   0.286   3.994 -0.1329  0.4638  1.7851
11236SOL     OW37238   0.479   5.480  10.634  0.2791 -0.5005  0.1110
11236SOL    HW137239   0.398   5.530  10.624  1.5665  1.6375 -0.2523
11236SOL    HW237240   0.494   5.479  10.729  0.0916 -0.5008  0.1423
11237SOL     OW37241   1.090  10.237   6.694  0.0459  0.0364 -0.2352
11237SOL    HW137242   1.077  10.330   6.678  1.5101  0.1138 -1.2534
11237SOL    HW237243   1.069  10.225   6.786  0.6679  1.5656  0.1472
11238SOL     OW37244   6.354   7.440   6.043  0.1806 -0.3159  0.9536
11238SOL    HW137245   6.290   7.498   6.003  0.4380 -1.5523 -1.4406
11238SOL    HW237246   6.392   7.492   6.114 -2.6804  0.8063  1.7863
11239SOL     OW37247   1.465   2.289   0.279  0.5429 -0.2541 -0.0036
11239SOL    HW137248   1.393   2.330   0.231  0.5006 -0.7828 -0.4088
11239SOL    HW237249   1.517   2.362   0.311  0.5669  0.1250 -0.8625
11240SOL     OW37250   0.500   2.915   3.284 -0.1087  0.2881 -0.0997
11240SOL    HW137251   0.508   3.007   3.311 -3.1538  0.3485  0.9253
11240SOL    HW237252   0.474   2.919   3.192  0.4159  0.4164 -0.2452
11241SOL     OW37253  10.284   4.906   1.297  0.5572  0.1938 -0.0979
11241SOL    HW137254  10.275   4.812   1.308  2.1897  0.1559  1.3741
11241SOL    HW237255  10.300   4.918   1.203 -0.4408 -0.8856 -0.4269
11242SOL     OW37256   5.966   8.824   5.121  0.0974  0.3607  0.4724
11242SOL    HW137257   6.043   8.767   5.116 -0.2816 -0.3084  1.8856
11242SOL    HW237258   5.916   8.790   5.195 -1.2269  1.2109 -0.0049
11243SOL     OW37259   3.207   3.393   0.480  0.3130  0.0386 -0.0398
11243SOL    HW137260   3.180   3.349   0.560  0.1387 -0.9488 -0.6325
11243SOL    HW237261   3.184   3.485   0.494 -3.1221 -0.6494 -0.3802
11244SOL     OW37262  10.932   6.094   4.509  0.1190  0.0745  0.3736
11244SOL    HW137263  10.907   6.172   4.460 -3.1431 -0.4055  1.0752
11244SOL    HW237264  10.954   6.030   4.441 -0.3465  0.6358 -0.3204
11245SOL     OW37265   9.141   4.363   2.420 -0.1158 -0.3039  0.5069
11245SOL    HW137266   9.173   4.293   2.364 -1.6882 -0.9229  0.3463
11245SOL    HW237267   9.140   4.441   2.364  1.0565 -0.2666  0.5185
11246SOL     OW37268   0.058   1.859   4.277 -0.0791  0.2181 -0.1224
11246SOL    HW137269   0.094   1.833   4.192 -2.1477 -1.1062 -0.6776
11246SOL    HW237270  -0.036   1.867   4.261 -0.4828  0.1645  2.0149
11247SOL     OW37271   2.001   4.805   8.414 -0.4769 -0.2828 -0.0577
11247SOL    HW137272   2.079   4.855   8.391 -0.4288  0.8499  2.3469
11247SOL    HW237273   1.928   4.860   8.388 -0.4743 -0.3894 -0.3011
11248SOL     OW37274   6.729   8.940   3.038 -1.1320  0.0715 -0.3552
11248SOL    HW137275   6.675   8.888   3.098 -1.1887 -0.2620 -0.6914
11248SOL    HW237276   6.762   9.012   3.091 -1.2408 -0.1828  0.0571
11249SOL     OW37277   0.732  11.065   8.666  0.2049 -0.3908  0.4848
11249SOL    HW137278   0.713  11.080   8.573 -0.2040  0.3511  0.6883
11249SOL    HW237279   0.647  11.042   8.704  0.4805 -1.3255  0.5629
11250SOL     OW37280   0.327   8.608   1.274 -0.2371 -0.3497  0.4281
11250SOL    HW137281   0.278   8.599   1.356  0.5770 -1.1802  0.8366
11250SOL    HW237282   0.419   8.607   1.300  0.0212  0.5690 -0.3905
11251SOL     OW37283   8.507   0.234  10.861  0.2214  0.2027  0.2068
11251SOL    HW137284   8.551   0.149  10.868  0.8908  0.6142  1.3205
11251SOL    HW237285   8.414   0.213  10.859  0.3831 -0.5614  0.3991
11252SOL     OW37286  10.851   4.529   1.251  0.4626  0.0884  0.1693
11252SOL    HW137287  10.769   4.558   1.211  0.7975  0.9508  0.0834
11252SOL    HW237288  10.915   4.533   1.179  0.3312 -1.8797 -0.1251
11253SOL     OW37289   6.898   3.647   3.332  0.2480 -0.1537  0.6087
11253SOL    HW137290   6.902   3.648   3.427 -0.6722 -0.1831  0.6561
11253SOL    HW237291   6.891   3.740   3.307  0.0684 -0.1705  0.5943
11254SOL     OW37292   5.688   6.032   2.870 -0.3771  0.5640  0.0222
11254SOL    HW137293   5.696   6.107   2.810  1.2391 -0.5147 -1.1887
11254SOL    HW237294   5.708   5.956   2.816 -2.6945 -0.8786  1.0512
11255SOL     OW37295   9.395   1.979   5.117 -0.1015 -0.1774 -0.0782
11255SOL    HW137296   9.436   2.055   5.075 -0.3078  1.1952  2.0873
11255SOL    HW237297   9.354   1.932   5.044  1.1050  1.0802 -1.6544
11256SOL     OW37298   2.029   0.310  11.078 -0.4783  0.9243 -0.4276
11256SOL    HW137299   2.070   0.236  11.035  0.2357  1.7354 -1.1843
11256SOL    HW237300   1.972   0.271  11.145  0.5374 -0.2536 -0.2245
11257SOL     OW37301   5.736   3.536   1.919 -0.2140  0.1367  0.3346
11257SOL    HW137302   5.776   3.462   1.964  0.0681  0.6795  1.0035
11257SOL    HW237303   5.807   3.601   1.913 -0.4931  0.4023 -0.1236
11258SOL     OW37304   3.021   1.377  10.090 -0.5648 -0.1733  0.2473
11258SOL    HW137305   2.947   1.321  10.111  0.7972 -1.9740  0.5188
11258SOL    HW237306   3.057   1.340  10.009  0.0702  0.6500  0.1307
11259SOL     OW37307   9.268   1.226   4.587 -0.4839 -0.1026 -0.0286
11259SOL    HW137308   9.303   1.304   4.630  0.0833  0.2328 -1.0458
11259SOL    HW237309   9.304   1.153   4.637  2.5219  0.1789 -1.5221
11260SOL     OW37310   9.460   6.168   5.439  0.2996  0.0197 -0.4257
11260SOL    HW137311   9.419   6.194   5.521 -1.1703  0.4121 -1.2528
11260SOL    HW237312   9.528   6.106   5.465  0.4750  0.8219  1.1556
11261SOL     OW37313   3.861   6.546   5.594  0.0319  0.3632  0.8366
11261SOL    HW137314   3.835   6.490   5.520  0.8311  1.2448 -0.1431
11261SOL    HW237315   3.816   6.629   5.577 -1.3807 -0.0173  2.4310
11262SOL     OW37316   1.355   8.262   5.798 -0.8919 -0.6951  0.3255
11262SOL    HW137317   1.442   8.293   5.820 -1.5153  2.4380 -1.0877
11262SOL    HW237318   1.364   8.167   5.791  2.4568 -0.4519 -0.0078
11263SOL     OW37319   8.638   4.381   6.448 -0.0066  0.6905  0.8762
11263SOL    HW137320   8.655   4.327   6.371 -0.7283 -0.1469  1.2958
11263SOL    HW237321   8.545   4.401   6.443 -0.4737 -0.8717  2.4633
11264SOL     OW37322   6.252   7.054   0.313 -0.4671  0.4369  0.0585
11264SOL    HW137323   6.224   6.994   0.244 -0.4144 -0.3878  0.7422
11264SOL    HW237324   6.203   7.135   0.295 -0.6571  0.1450 -0.7784
11265SOL     OW37325   9.464   7.447   2.419  0.1300  0.1122  0.0621
11265SOL    HW137326   9.439   7.538   2.437  0.5171  0.6644 -1.9224
11265SOL    HW237327   9.509   7.419   2.498 -1.8151  0.9354  1.5371
11266SOL     OW37328   0.482   3.073   8.123  0.4563  0.1902 -0.5439
11266SOL    HW137329   0.403   3.085   8.176  1.0700  1.3652  0.1517
11266SOL    HW237330   0.448   3.049   8.036 -0.6333  0.0644 -0.1105
11267SOL     OW37331   4.672   9.176  10.208  0.3534 -0.5276 -0.4121
11267SOL    HW137332   4.678   9.147  10.299  1.3121 -0.5411 -0.4697
11267SOL    HW237333   4.763   9.190  10.181  0.1493 -1.3750 -1.6330
11268SOL     OW37334   0.038   5.018   8.627 -0.2898 -0.4555  0.0463
11268SOL    HW137335   0.005   4.943   8.577 -0.4965  0.3687 -1.0820
11268SOL    HW237336   0.044   5.089   8.564 -0.7007  0.6763  1.2298
11269SOL     OW37337   5.558   8.363   8.976  0.8245  0.0448  0.0978
11269SOL    HW137338   5.642   8.396   9.008  1.2438 -0.9056 -0.0189
11269SOL    HW237339   5.569   8.269   8.969  0.5976  0.1252 -2.3466
11270SOL     OW37340   4.703   5.658   4.148  0.0050 -0.2532 -0.3686
11270SOL    HW137341   4.787   5.625   4.180  0.1082 -0.6797 -1.0704
11270SOL    HW237342   4.651   5.669   4.228  1.1677  1.3606  0.2269
11271SOL     OW37343   9.933   4.855  10.434  0.1528 -0.3391  0.9018
11271SOL    HW137344  10.001   4.792  10.410  0.7430  0.5874  0.0720
11271SOL    HW237345   9.951   4.874  10.527  1.3493  0.2544  0.5723
11272SOL     OW37346   5.803   4.517  10.467  0.4198 -0.1461  0.0908
11272SOL    HW137347   5.802   4.542  10.375 -1.1159 -1.3730 -0.2723
11272SOL    HW237348   5.893   4.491  10.485  1.5098  3.0219 -0.1717
11273SOL     OW37349   7.269   8.115   7.321  0.5498 -0.2523 -0.6609
11273SOL    HW137350   7.230   8.154   7.400 -1.0354 -1.7583 -0.6447
11273SOL    HW237351   7.312   8.035   7.353  0.2633 -0.6446 -1.2402
11274SOL     OW37352   3.319   4.715   0.729  0.6982 -0.6433 -0.6007
11274SOL    HW137353   3.297   4.638   0.782  0.7430  0.1830  0.6401
11274SOL    HW237354   3.406   4.741   0.759 -0.0765  0.9941  0.3213
11275SOL     OW37355   6.921   7.646   2.984  0.1661  0.3391  0.1670
11275SOL    HW137356   6.862   7.627   3.058 -0.6589  3.4716  0.4866
11275SOL    HW237357   6.863   7.649   2.908  0.9205 -2.2414 -0.5947
11276SOL     OW37358   4.313   3.488  10.648 -0.0683 -0.4873 -0.4391
11276SOL    HW137359   4.326   3.523  10.737  0.0889 -1.7395  0.0480
11276SOL    HW237360   4.400   3.465  10.618 -0.1560 -0.3374 -0.8158
11277SOL     OW37361  10.141   6.012  10.654 -0.3850 -0.6494 -0.2250
11277SOL    HW137362  10.237   6.007  10.654 -0.1720 -0.0356  4.1652
11277SOL    HW237363  10.123   6.105  10.643 -0.1336 -0.1246  2.8868
11278SOL     OW37364   8.560   5.915   6.810 -0.1422 -0.3635  0.0709
11278SOL    HW137365   8.654   5.915   6.793 -0.2599 -1.1502 -0.6050
11278SOL    HW237366   8.550   5.975   6.884  0.5215  2.1592 -1.7542
11279SOL     OW37367   3.438   9.515   9.722  0.1542 -0.6950 -0.1593
11279SOL    HW137368   3.345   9.500   9.739  0.4153 -1.1369  0.9780
11279SOL    HW237369   3.482   9.439   9.760  1.1423  0.5440  1.3228
11280SOL     OW37370   3.213   7.194   5.319  0.6067 -0.6644 -0.6175
11280SOL    HW137371   3.129   7.148   5.322 -0.3344  1.0278  0.0437
11280SOL    HW237372   3.256   7.160   5.240 -2.7042  1.7522 -3.7817
11281SOL     OW37373   8.949   0.926   3.801  0.6759  0.0737  0.2302
11281SOL    HW137374   8.965   0.933   3.707 -1.9165  1.5360 -0.2135
11281SOL    HW237375   8.866   0.971   3.814 -0.7775 -2.9597  2.7419
11282SOL     OW37376   5.143   6.312   3.209  0.1351  0.3684  0.2590
11282SOL    HW137377   5.226   6.272   3.184  0.4600  0.8201  0.5875
11282SOL    HW237378   5.154   6.405   3.186  0.6755  0.9266  2.5858
11283SOL     OW37379   4.979  10.540   1.433  0.5552  0.2714  0.4080
11283SOL    HW137380   4.900  10.529   1.380  0.3440  0.9313  0.5766
11283SOL    HW237381   4.954  10.604   1.500  1.0513  0.0305  0.8354
11284SOL     OW37382   6.177  10.199   5.268  0.0337 -0.4590 -0.2724
11284SOL    HW137383   6.256  10.224   5.220 -0.4705  1.5350 -0.1511
11284SOL    HW237384   6.193  10.228   5.358 -0.7695 -0.1664 -0.2156
11285SOL     OW37385   6.980   6.718   0.743  0.2720 -0.4886  0.2014
11285SOL    HW137386   6.963   6.664   0.819 -1.0209  0.7572  0.8475
11285SOL    HW237387   7.002   6.804   0.778 -1.1343  0.3300 -0.7910
11286SOL     OW37388   6.170   8.942   1.202  0.1189 -0.7049 -0.1187
11286SOL    HW137389   6.126   8.861   1.176  0.4698 -0.7878 -0.4678
11286SOL    HW237390   6.102   8.995   1.243 -0.0971 -1.2037  0.1672
11287SOL     OW37391   4.316   5.871   2.891  0.0788 -0.5567 -0.0432
11287SOL    HW137392   4.369   5.800   2.854 -0.0567 -0.2813 -0.7627
11287SOL    HW237393   4.295   5.927   2.817 -0.0860  0.0709  0.4717
11288SOL     OW37394   9.037   3.393   5.994 -0.0028  0.3365  0.2093
11288SOL    HW137395   9.004   3.320   5.941  1.0907 -0.7230  0.9302
11288SOL    HW237396   8.959   3.432   6.033 -0.5357 -1.0481  0.5565
11289SOL     OW37397   5.107   1.696  11.111 -0.0405  0.2522 -0.2585
11289SOL    HW137398   5.201   1.678  11.106  0.1951  1.6251 -1.1782
11289SOL    HW237399   5.101   1.788  11.133 -1.1713  0.2795 -0.6071
11290SOL     OW37400   0.746   0.469   3.945  0.3933  0.2169  0.2551
11290SOL    HW137401   0.686   0.457   4.019  0.9639 -1.7923  0.4567
11290SOL    HW237402   0.829   0.492   3.985  0.6163 -0.5182  0.2141
11291SOL     OW37403   9.655   7.295   4.579  0.0678  0.0358 -0.0997
11291SOL    HW137404   9.751   7.290   4.583  0.0900 -0.4206 -1.0460
11291SOL    HW237405   9.625   7.230   4.642  0.3671  0.4171  0.4529
11292SOL     OW37406   8.845   6.511   8.585  0.2778 -0.0408 -0.1789
11292SOL    HW137407   8.928   6.487   8.545  0.0100 -2.8474  0.7584
11292SOL    HW237408   8.855   6.486   8.677 -0.6919  2.0943  0.5787
11293SOL     OW37409   4.888  10.094   0.779  0.4993  0.2087  0.3197
11293SOL    HW137410   4.976  10.131   0.772  0.5733  0.0127  0.2064
11293SOL    HW237411   4.838  10.134   0.708  0.2906  0.8938  0.8478
11294SOL     OW37412   6.859   5.022   9.743  0.5352 -0.4964  0.2157
11294SOL    HW137413   6.783   4.966   9.727  0.2140  0.0943 -0.3918
11294SOL    HW237414   6.932   4.978   9.699  0.4511 -0.8263  0.4022
11295SOL     OW37415   9.616   9.032   3.405  0.1106 -0.6078 -0.0936
11295SOL    HW137416   9.648   8.965   3.345 -0.2164 -1.2593  0.4408
11295SOL    HW237417   9.652   9.114   3.372 -0.2696 -0.9152 -1.3280
11296SOL     OW37418   4.154   3.203   2.098  0.2426 -0.2603  0.1788
11296SOL    HW137419   4.231   3.258   2.114  1.0605 -1.6349  1.2007
11296SOL    HW237420   4.108   3.247   2.026  1.0568  1.5253  0.6748
11297SOL     OW37421   8.214  10.130  10.966  0.2743  0.6627 -0.6847
11297SOL    HW137422   8.300  10.171  10.960 -0.0086  1.1564 -1.4590
11297SOL    HW237423   8.183  10.126  10.876 -0.1602 -0.2893 -0.5085
11298SOL     OW37424   9.514   3.217   5.052  0.2618  0.2436 -0.4920
11298SOL    HW137425   9.556   3.303   5.056  0.7670 -0.0465  1.9127
11298SOL    HW237426   9.563   3.164   5.115 -0.6926 -1.5152 -1.1781
11299SOL     OW37427   9.954   7.485   6.880  0.4657  0.4685 -0.2374
11299SOL    HW137428   9.923   7.536   6.954 -0.1637  0.5796 -0.5658
11299SOL    HW237429  10.026   7.433   6.914  1.2495  1.7129  0.0616
11300SOL     OW37430   0.386   8.682   9.545 -0.5013  0.5752  0.3071
11300SOL    HW137431   0.466   8.669   9.495 -0.3951  1.5711  0.2058
11300SOL    HW237432   0.360   8.772   9.527 -1.0310  0.6208  1.2172
11301SOL     OW37433   3.206   4.523   5.690  0.0105  0.6933  0.4029
11301SOL    HW137434   3.172   4.433   5.687  0.2056  0.5844  1.2975
11301SOL    HW237435   3.295   4.516   5.657 -0.0672  0.6075  0.2077
11302SOL     OW37436   3.808  10.269   2.105  0.7862 -0.1189  0.1219
11302SOL    HW137437   3.825  10.312   2.189  4.5375 -1.6335  0.3395
11302SOL    HW237438   3.857  10.320   2.041 -0.9561  0.2507 -0.9762
11303SOL     OW37439   5.857   6.164   7.853 -0.6295  0.0863 -0.2276
11303SOL    HW137440   5.835   6.077   7.887  0.8175  0.0570  0.7063
11303SOL    HW237441   5.796   6.223   7.897 -1.3452 -0.3876 -0.5581
11304SOL     OW37442   4.833   6.587   0.360 -0.1398  0.0087 -0.2313
11304SOL    HW137443   4.800   6.512   0.410 -0.9505 -0.2745 -1.1549
11304SOL    HW237444   4.903   6.550   0.306 -0.3805 -0.0399 -0.5131
11305SOL     OW37445  10.065   5.422   2.121 -0.3549  0.1750  0.0333
11305SOL    HW137446  10.046   5.491   2.184  0.3455  0.4042  0.0095
11305SOL    HW237447  10.064   5.466   2.036  0.2630  0.2049  0.0334
11306SOL     OW37448  11.062   3.615   9.816 -0.0459  0.3529  0.0886
11306SOL    HW137449  11.049   3.533   9.769  0.1111 -1.1577  2.5118
11306SOL    HW237450  10.975   3.652   9.826 -0.2609 -0.1159 -0.0402
11307SOL     OW37451   6.325   2.612   7.475 -0.4237 -0.3754 -0.3265
11307SOL    HW137452   6.240   2.605   7.518 -0.7154  0.3600 -0.7656
11307SOL    HW237453   6.306   2.647   7.388  0.1838 -1.6774 -1.0163
11308SOL     OW37454   9.154   6.573   9.477  0.1493 -0.6797  0.4659
11308SOL    HW137455   9.202   6.623   9.411 -0.4809 -0.5445  0.0960
11308SOL    HW237456   9.219   6.552   9.544  0.7795 -0.7353 -0.1508
11309SOL     OW37457   4.181   2.401   9.995  0.6328 -0.0586  0.5169
11309SOL    HW137458   4.137   2.470   9.947  0.4595  0.0157  0.7799
11309SOL    HW237459   4.114   2.335  10.010  0.3614  0.4657  1.7192
11310SOL     OW37460   4.525  10.336   3.411  0.0813 -0.1766  0.3398
11310SOL    HW137461   4.506  10.379   3.495 -0.5086 -1.4228  0.8771
11310SOL    HW237462   4.544  10.408   3.351  0.2989  0.7618  1.4880
11311SOL     OW37463   0.604   7.758   5.671 -0.0417 -0.1994  0.0822
11311SOL    HW137464   0.654   7.737   5.750 -0.5699 -0.2458  0.4097
11311SOL    HW237465   0.643   7.838   5.638  0.7315 -0.6403 -0.0836
11312SOL     OW37466   3.608   3.254   4.248  0.0415  0.0604 -0.3779
11312SOL    HW137467   3.543   3.194   4.212 -0.8032 -0.4303  1.8097
11312SOL    HW237468   3.692   3.209   4.234  0.0516  0.8500 -3.5108
11313SOL     OW37469   8.508   4.410   4.754  0.3284 -0.1296 -0.4901
11313SOL    HW137470   8.565   4.336   4.735 -0.3787 -0.5107 -1.2150
11313SOL    HW237471   8.567   4.479   4.784  0.9220 -1.2168  0.9650
11314SOL     OW37472   0.043   6.439   4.436 -0.0955  0.0056  0.2313
11314SOL    HW137473   0.002   6.503   4.378 -0.0964 -0.5839 -0.4347
11314SOL    HW237474   0.103   6.391   4.379 -1.5556 -1.9311  0.2101
11315SOL     OW37475   9.237   1.021   7.206  0.5336  0.3223 -0.0621
11315SOL    HW137476   9.254   1.106   7.167  1.7322  0.6202  1.0312
11315SOL    HW237477   9.323   0.977   7.206  0.1571 -0.4332  0.4164
11316SOL     OW37478   4.394   8.350   5.215  0.7032  0.0585 -0.5274
11316SOL    HW137479   4.326   8.337   5.148  0.2148 -0.5067  0.0604
11316SOL    HW237480   4.345   8.369   5.295  1.3056  1.6698 -0.5085
11317SOL     OW37481   0.272   8.403   9.365 -0.1821  0.1090  0.1889
11317SOL    HW137482   0.329   8.472   9.331 -1.1022  0.6638 -0.2557
11317SOL    HW237483   0.312   8.321   9.334  0.1786  0.5019 -0.4080
11318SOL     OW37484   0.693  10.989   7.337 -1.1410 -0.5570 -0.0199
11318SOL    HW137485   0.717  10.937   7.260 -0.2755  1.2645 -1.0650
11318SOL    HW237486   0.772  10.989   7.391 -0.6664  0.6999 -0.6688
11319SOL     OW37487   8.965   7.605   4.720  0.6968 -0.8045  0.6510
11319SOL    HW137488   8.960   7.579   4.812 -0.8477  0.7962  1.0774
11319SOL    HW237489   8.894   7.668   4.709  0.9567 -0.8265 -1.6139
11320SOL     OW37490   6.807   5.874   3.118 -0.1951 -0.6442 -1.0427
11320SOL    HW137491   6.794   5.969   3.121  1.9585 -0.1934 -3.0318
11320SOL    HW237492   6.758   5.845   3.041 -1.3628 -1.2946 -0.0874
11321SOL     OW37493   2.481   6.713   4.037 -0.4777  0.0460  0.7961
11321SOL    HW137494   2.442   6.747   3.957  2.0725  1.8750  0.2337
11321SOL    HW237495   2.421   6.741   4.107 -0.8239  1.7298 -0.1304
11322SOL     OW37496  10.419   7.567   2.641  0.4735 -0.6978  0.4791
11322SOL    HW137497  10.503   7.521   2.635  0.9230 -0.0003  1.0956
11322SOL    HW237498  10.376   7.529   2.718  0.2125 -1.0645  0.1552
11323SOL     OW37499   5.597   7.625   6.438  0.0493 -0.2326  0.1287
11323SOL    HW137500   5.635   7.620   6.525  1.4772 -0.4157 -0.4731
11323SOL    HW237501   5.565   7.536   6.420 -2.3577  0.3076  1.3164
11324SOL     OW37502   5.364   6.234  10.292  0.1748 -0.5111 -0.7663
11324SOL    HW137503   5.351   6.324  10.321  0.0548 -1.0221  0.8146
11324SOL    HW237504   5.454   6.232  10.260  0.7015 -0.1900  0.6499
11325SOL     OW37505  10.214   2.414   4.503 -0.2615 -0.2686 -0.1400
11325SOL    HW137506  10.154   2.430   4.576  1.4617 -0.5307  1.3854
11325SOL    HW237507  10.296   2.455   4.529  0.2115  0.2803 -2.2804
11326SOL     OW37508   2.701   7.900   0.768 -0.1291 -0.0532 -0.2764
11326SOL    HW137509   2.627   7.874   0.823  0.0953  0.5803  0.3492
11326SOL    HW237510   2.701   7.995   0.773  0.7467 -0.0520 -0.2397
11327SOL     OW37511   4.150   8.619  10.822 -0.1042 -0.2486 -0.0325
11327SOL    HW137512   4.231   8.570  10.804  0.2097 -0.6080  2.1562
11327SOL    HW237513   4.158   8.646  10.913 -1.6547  1.3193 -0.3135
11328SOL     OW37514   3.062   2.127   5.639 -0.1555 -0.2924  0.1939
11328SOL    HW137515   3.111   2.204   5.608  0.5435 -0.1556  1.5471
11328SOL    HW237516   3.091   2.056   5.582 -0.8996  0.4353 -1.1593
11329SOL     OW37517   6.638  10.834   1.770 -0.2180  0.0462 -0.1913
11329SOL    HW137518   6.733  10.823   1.773 -0.4150 -1.8812  0.2526
11329SOL    HW237519   6.605  10.779   1.841 -1.6499  1.2778  0.1612
11330SOL     OW37520   7.462   7.468   1.908  0.2316  0.6042 -0.5321
11330SOL    HW137521   7.472   7.381   1.948  0.4319  0.7897 -0.1643
11330SOL    HW237522   7.551   7.503   1.905 -0.0600  1.6741  1.3693
11331SOL     OW37523   5.327   3.554   8.564  0.6269 -0.1677  0.3155
11331SOL    HW137524   5.304   3.507   8.644 -0.5548  0.0401  0.1251
11331SOL    HW237525   5.273   3.513   8.496 -0.3566  1.3456  0.1226
11332SOL     OW37526   4.993   3.215   6.272  0.1258  0.3912  0.6531
11332SOL    HW137527   4.938   3.138   6.286  0.2933  0.1297 -0.0958
11332SOL    HW237528   5.082   3.181   6.267  0.2257  0.6652  0.5521
11333SOL     OW37529   6.656  10.797   7.038  0.7205  0.2732 -0.1670
11333SOL    HW137530   6.582  10.737   7.027  1.7192 -0.8813 -0.8333
11333SOL    HW237531   6.650  10.855   6.962  1.8610 -1.3788 -1.5951
11334SOL     OW37532   2.848   3.587   1.914  0.6737  0.5205  0.0911
11334SOL    HW137533   2.812   3.549   1.994  2.1572 -0.7909  0.1721
11334SOL    HW237534   2.834   3.520   1.847  0.4045  1.1795 -0.5367
11335SOL     OW37535   0.242   3.041   7.125  0.3793 -0.0726 -0.1744
11335SOL    HW137536   0.236   3.135   7.144 -0.3105 -0.3775  1.2892
11335SOL    HW237537   0.260   3.001   7.210  2.9481 -1.1004 -1.0990
11336SOL     OW37538   3.465   7.346   8.979  0.3098  0.3778  0.0780
11336SOL    HW137539   3.500   7.271   8.932 -1.4651 -0.3732 -0.1063
11336SOL    HW237540   3.523   7.418   8.956  1.5506 -0.7351 -0.4120
11337SOL     OW37541   1.606   9.251   5.098 -0.6613  0.1851  0.1717
11337SOL    HW137542   1.612   9.284   5.188 -2.1370  2.4555 -0.4773
11337SOL    HW237543   1.570   9.163   5.107 -1.2046  0.5375  1.7714
11338SOL     OW37544   7.329   6.871   2.682 -0.2686 -0.0721 -0.5267
11338SOL    HW137545   7.302   6.957   2.715  1.0813  1.0492 -2.1676
11338SOL    HW237546   7.401   6.845   2.740  0.0083  0.4102 -0.6455
11339SOL     OW37547   8.065   4.055   6.197  0.4493 -0.4248  0.1777
11339SOL    HW137548   8.106   3.971   6.218  1.9410  0.5231  1.2105
11339SOL    HW237549   8.135   4.119   6.205 -0.8653  1.0578  0.3265
11340SOL     OW37550   7.877   7.717  11.022 -0.4003 -0.3377  0.4420
11340SOL    HW137551   7.880   7.811  11.005 -0.3236 -0.7572 -2.3987
11340SOL    HW237552   7.959   7.698  11.068  0.8646  0.6538 -1.2785
11341SOL     OW37553   1.404   3.941   5.417  0.3505  0.4769  0.1770
11341SOL    HW137554   1.376   4.030   5.438  0.5463  0.1245  2.1683
11341SOL    HW237555   1.500   3.946   5.418  0.3615  0.3852 -0.3946
11342SOL     OW37556   2.560   7.135  10.474 -0.0258  0.5216 -0.3324
11342SOL    HW137557   2.553   7.163  10.383  2.6256  0.9814 -0.4775
11342SOL    HW237558   2.514   7.051  10.478  0.0159  0.3905 -2.1449
11343SOL     OW37559   7.943  10.426   6.455  0.4978  0.0129  0.2601
11343SOL    HW137560   8.030  10.461   6.437  1.1694 -2.2102 -1.1807
11343SOL    HW237561   7.947  10.335   6.426 -2.3262 -0.1400  0.0987
11344SOL     OW37562   3.261   3.656   2.171  0.3336  0.2255 -0.0037
11344SOL    HW137563   3.196   3.648   2.101  1.5515 -0.1023 -1.1386
11344SOL    HW237564   3.312   3.575   2.166  0.1486 -0.0324  1.6179
11345SOL     OW37565   5.773  10.131   5.070 -0.1373 -0.3758  0.1553
11345SOL    HW137566   5.814  10.064   5.126  0.1960  0.5191  1.0084
11345SOL    HW237567   5.822  10.211   5.089 -1.0112  0.2831 -0.2997
11346SOL     OW37568   9.335   0.099   2.024 -0.1105 -0.0502  0.2508
11346SOL    HW137569   9.313   0.094   2.117  0.5624 -1.0667  0.3714
11346SOL    HW237570   9.425   0.130   2.022 -1.1836  3.4292 -0.2160
11347SOL     OW37571  10.583   9.857   9.570  0.3489 -0.6356 -0.8839
11347SOL    HW137572  10.500   9.818   9.600  0.6628 -1.3113 -0.8772
11347SOL    HW237573  10.567   9.878   9.478 -0.0534 -0.1391 -0.7014
11348SOL     OW37574   0.711   3.296   3.937  0.5007  0.1341  0.2285
11348SOL    HW137575   0.687   3.370   3.881  1.2685 -0.1205 -0.4629
11348SOL    HW237576   0.728   3.335   4.023 -1.4616  0.4281  0.5282
11349SOL     OW37577   9.304   7.146   0.032  0.5478  0.2694 -0.4613
11349SOL    HW137578   9.280   7.066   0.079  1.2234  0.7985  0.8346
11349SOL    HW237579   9.243   7.213   0.066  0.8386  0.5885 -0.5607
11350SOL     OW37580   3.322  10.404   2.305 -0.5006 -0.0035 -0.5140
11350SOL    HW137581   3.337  10.412   2.211  0.0097 -2.1035 -0.6571
11350SOL    HW237582   3.289  10.490   2.331  0.2366  0.9232 -2.4271
11351SOL     OW37583   9.149   6.641  10.499  0.0506 -0.1374 -0.1901
11351SOL    HW137584   9.140   6.663  10.406  1.0518 -0.1557 -0.2992
11351SOL    HW237585   9.239   6.609  10.507 -0.2539 -0.8126  0.6489
11352SOL     OW37586   7.354   4.359   8.940 -0.0448 -0.2413 -0.9716
11352SOL    HW137587   7.325   4.288   8.997  0.7442 -0.2830 -0.6012
11352SOL    HW237588   7.276   4.385   8.892 -1.4174  1.4434  1.8747
11353SOL     OW37589   2.438   5.047   6.515 -0.1995 -0.5340 -0.1857
11353SOL    HW137590   2.425   5.128   6.466 -1.0829 -0.5250  0.0439
11353SOL    HW237591   2.376   4.985   6.476  0.4693 -1.1030 -0.3606
11354SOL     OW37592   2.401   5.325   5.126  0.2051  0.1426  0.1057
11354SOL    HW137593   2.330   5.327   5.190  0.2353  0.3035  0.1369
11354SOL    HW237594   2.358   5.311   5.042  0.2227 -0.7163  0.2345
11355SOL     OW37595   0.843   5.644  10.014  0.1942 -0.5219  0.6248
11355SOL    HW137596   0.817   5.666  10.103 -0.2164 -0.9836  0.6249
11355SOL    HW237597   0.871   5.727   9.975 -0.9204 -0.0705  0.7524
11356SOL     OW37598   6.630   5.211   5.948  0.2571 -0.0830 -0.1164
11356SOL    HW137599   6.630   5.294   5.995 -2.6032 -1.8304  3.4177
11356SOL    HW237600   6.560   5.219   5.884 -0.2256  0.1115  0.4370
11357SOL     OW37601  10.163   4.297   4.819 -0.7251 -0.4436 -0.3420
11357SOL    HW137602  10.134   4.221   4.868 -1.0173 -0.6265 -0.7933
11357SOL    HW237603  10.244   4.269   4.776 -0.3398 -0.2084  0.2188
11358SOL     OW37604   7.597   6.188   1.140 -0.0001  0.6660 -0.4241
11358SOL    HW137605   7.618   6.189   1.233 -0.8303  0.4474 -0.2303
11358SOL    HW237606   7.507   6.157   1.135 -0.1178  1.0953 -1.2730
11359SOL     OW37607   5.970   7.123   6.827  0.3788  0.4728 -0.5241
11359SOL    HW137608   5.889   7.132   6.879  0.8248 -0.8332  0.4695
11359SOL    HW237609   5.951   7.168   6.745 -1.3453  0.2436 -0.2919
11360SOL     OW37610   4.279   3.639   7.923  0.0995  0.0610 -0.1554
11360SOL    HW137611   4.236   3.662   7.841  0.6035  0.1780 -0.3909
11360SOL    HW237612   4.336   3.565   7.901  1.7815  1.3618 -0.3911
11361SOL     OW37613   6.016   1.532   6.428  0.2340  0.7363 -0.4613
11361SOL    HW137614   6.072   1.581   6.367 -1.3838  2.2994 -0.7805
11361SOL    HW237615   5.988   1.455   6.377  0.7828  0.7937 -0.8615
11362SOL     OW37616   6.135   1.624   8.710  0.2237 -0.5435  0.1202
11362SOL    HW137617   6.045   1.612   8.679  0.7009 -1.4253 -0.9899
11362SOL    HW237618   6.144   1.719   8.721 -0.4539 -0.3436 -0.9624
11363SOL     OW37619   8.688   1.900   3.728  0.7692 -0.4842 -0.1673
11363SOL    HW137620   8.694   1.806   3.746 -0.4807 -0.3281  1.2426
11363SOL    HW237621   8.613   1.929   3.779 -0.2797  0.8875 -2.3344
11364SOL     OW37622   6.959   1.236   4.463  0.6258  0.7245 -0.3597
11364SOL    HW137623   6.900   1.167   4.491  1.8051  0.5848  2.0785
11364SOL    HW237624   6.925   1.315   4.505  1.1498  0.9741 -0.3931
11365SOL     OW37625   7.657   6.236   9.164 -0.4108  0.5448 -0.6238
11365SOL    HW137626   7.727   6.213   9.104  0.2398  1.9234 -0.4505
11365SOL    HW237627   7.687   6.317   9.205 -1.0131 -0.1378  1.2709
11366SOL     OW37628   1.882   1.626   4.248  0.3283 -0.0162 -0.3490
11366SOL    HW137629   1.825   1.698   4.276 -0.7884 -1.4844  1.4794
11366SOL    HW237630   1.904   1.646   4.157 -1.6050  1.5778 -0.5463
11367SOL     OW37631   6.573   1.245   6.732  0.3502  0.1217 -0.5193
11367SOL    HW137632   6.481   1.269   6.725  0.3070  0.1694  0.2045
11367SOL    HW237633   6.599   1.224   6.642 -0.1397  0.9383 -0.8635
11368SOL     OW37634   8.592   5.765   3.569 -0.8838  0.2685 -0.0280
11368SOL    HW137635   8.653   5.730   3.504 -2.4591 -2.3691 -0.2117
11368SOL    HW237636   8.545   5.835   3.524 -2.7905 -2.2811 -2.2786
11369SOL     OW37637   6.289   7.749   0.556  0.1974 -0.0877  0.0386
11369SOL    HW137638   6.354   7.681   0.541  1.7467  1.1050  1.0537
11369SOL    HW237639   6.279   7.752   0.652  0.1247  1.0617  0.0087
11370SOL     OW37640   8.642   1.198   6.956 -0.7288  0.6892 -0.0323
11370SOL    HW137641   8.623   1.169   7.045 -1.9159  1.9008  0.1359
11370SOL    HW237642   8.600   1.133   6.900  0.3111 -0.2686  0.2609
11371SOL     OW37643   9.007   2.344   0.822 -0.0154 -0.2667 -0.0942
11371SOL    HW137644   9.070   2.416   0.813 -0.7340  0.4745  0.6595
11371SOL    HW237645   9.038   2.295   0.898 -0.7114  0.5078  0.7160
11372SOL     OW37646   7.226   6.343   5.042  0.0663  0.0135  0.1896
11372SOL    HW137647   7.309   6.350   4.995 -0.3363 -0.1704 -0.5637
11372SOL    HW237648   7.249   6.302   5.126  0.8854  0.8901  0.4186
11373SOL     OW37649   8.887   7.680  10.321 -0.0593 -0.4049 -0.5042
11373SOL    HW137650   8.975   7.713  10.337  0.3523 -1.5221 -0.3899
11373SOL    HW237651   8.831   7.734  10.377  0.6775 -0.3930  0.2526
11374SOL     OW37652  10.253   2.663   6.537 -0.6987 -0.0656 -0.1439
11374SOL    HW137653  10.324   2.717   6.502 -1.5791  0.7151 -0.7715
11374SOL    HW237654  10.269   2.661   6.631  0.3762 -0.2379 -0.3193
11375SOL     OW37655   7.371   1.111   3.859 -0.2908 -0.3049 -0.4511
11375SOL    HW137656   7.370   1.065   3.943  1.4364 -1.1367 -0.8438
11375SOL    HW237657   7.460   1.146   3.851 -0.5178  0.0441 -1.7728
11376SOL     OW37658   5.949   2.879   7.157  0.0164 -0.2009  0.1206
11376SOL    HW137659   5.927   2.942   7.088 -1.5431 -1.5993 -0.7379
11376SOL    HW237660   5.946   2.930   7.238 -0.7057  0.9341 -0.5907
11377SOL     OW37661   2.144   0.361   8.405  0.1450 -0.6714  0.2937
11377SOL    HW137662   2.085   0.435   8.416  0.1110 -0.4176 -1.3743
11377SOL    HW237663   2.224   0.388   8.452  0.0541  0.3342 -0.0902
11378SOL     OW37664   9.558   1.817   0.093 -0.9321  0.2297 -0.0135
11378SOL    HW137665   9.595   1.902   0.115  0.6889 -0.8643  1.7514
11378SOL    HW237666   9.621   1.778   0.033 -0.0403 -0.9087  1.5793
11379SOL     OW37667  10.090   1.957   1.249  0.2801  0.6754  0.4413
11379SOL    HW137668  10.049   2.000   1.325  1.1624  1.0690  0.6999
11379SOL    HW237669  10.158   1.902   1.287  1.1799  1.3899 -0.1097
11380SOL     OW37670   6.826   4.520   9.550  0.2756 -0.7298  0.1189
11380SOL    HW137671   6.785   4.519   9.463 -2.3716 -0.3684  1.2890
11380SOL    HW237672   6.784   4.593   9.595 -0.5929 -2.6744  2.6610
11381SOL     OW37673   9.176   7.983   3.620 -0.0195 -0.3103  0.0243
11381SOL    HW137674   9.134   8.054   3.572 -1.8650 -0.6026  1.1050
11381SOL    HW237675   9.105   7.944   3.672  1.4704 -1.2858  1.4205
11382SOL     OW37676   2.730   0.384   2.782 -0.3283  0.5217  0.2866
11382SOL    HW137677   2.820   0.363   2.757 -0.1200 -0.4050  1.7201
11382SOL    HW237678   2.678   0.312   2.746 -0.4397  0.7760 -0.0715
11383SOL     OW37679  10.763   2.096   5.152 -0.1866 -0.2818 -0.3407
11383SOL    HW137680  10.832   2.077   5.215 -1.2990  0.7595  1.2780
11383SOL    HW237681  10.683   2.100   5.205 -1.2585  0.0386 -1.9149
11384SOL     OW37682   1.309   9.479   3.625  0.1510  0.6445  0.1049
11384SOL    HW137683   1.296   9.573   3.642 -0.6893  1.0300 -2.2223
11384SOL    HW237684   1.242   9.458   3.560  0.5404 -1.5277  0.3500
11385SOL     OW37685  11.036  10.798   2.541  0.6765 -0.9752 -0.3717
11385SOL    HW137686  11.089  10.808   2.620  0.3960 -2.2393 -0.0041
11385SOL    HW237687  10.946  10.805   2.573  0.5716  0.0498 -0.8315
11386SOL     OW37688   9.231   4.381   1.430  0.2298  0.1226  0.3038
11386SOL    HW137689   9.181   4.359   1.508  0.9250  1.2744  1.0932
11386SOL    HW237690   9.166   4.379   1.359 -0.5182 -0.3505  0.9875
11387SOL     OW37691   0.185   8.188   9.049 -0.3831 -0.4373 -0.4329
11387SOL    HW137692   0.172   8.261   9.110  0.8375 -0.7843  0.2732
11387SOL    HW237693   0.098   8.147   9.044 -0.7566  0.2269  0.2570
11388SOL     OW37694   8.789   3.193   7.901  0.3322  0.4082 -0.4618
11388SOL    HW137695   8.855   3.262   7.896  0.2686  0.3842 -1.8558
11388SOL    HW237696   8.804   3.140   7.823  0.3718 -1.1639  0.5710
11389SOL     OW37697   3.453   0.002  10.243  0.1607 -0.5734  0.4981
11389SOL    HW137698   3.509  -0.051  10.300  0.4245 -1.3157 -0.4243
11389SOL    HW237699   3.372   0.014  10.292  0.6126 -0.6813  1.2729
11390SOL     OW37700   6.842   9.639   6.398 -0.2486  0.2916 -1.0202
11390SOL    HW137701   6.862   9.673   6.311  0.3469 -0.0435 -1.0182
11390SOL    HW237702   6.748   9.623   6.396 -0.7686  2.8985 -0.6829
11391SOL     OW37703   1.899   2.413   2.178  0.1651  0.3277 -0.0638
11391SOL    HW137704   1.942   2.357   2.114 -0.0760  0.5843 -0.4559
11391SOL    HW237705   1.968   2.439   2.238  1.4554  3.6304 -2.6460
11392SOL     OW37706   7.260   9.675   6.410 -0.4405  0.2186  0.1034
11392SOL    HW137707   7.177   9.714   6.436  0.0108  0.1755  1.7183
11392SOL    HW237708   7.245   9.641   6.322 -2.0281  0.5082  0.2494
11393SOL     OW37709   2.119   1.278   9.618 -0.2065  0.3102 -0.3250
11393SOL    HW137710   2.095   1.367   9.642 -0.5832  0.4231 -1.0831
11393SOL    HW237711   2.053   1.251   9.554 -0.4780 -0.7486  0.3664
11394SOL     OW37712   9.540   2.444  11.057 -0.0701  0.1375  0.5501
11394SOL    HW137713   9.477   2.435  11.128 -1.6708 -0.7019 -0.9098
11394SOL    HW237714   9.503   2.393  10.985 -1.2791  4.9545 -2.7496
11395SOL     OW37715   7.343   6.840   3.074 -0.0580 -0.2865  0.1533
11395SOL    HW137716   7.417   6.788   3.105 -0.2684 -0.0667  1.0651
11395SOL    HW237717   7.272   6.776   3.061 -0.4198 -0.2268  1.5963
11396SOL     OW37718   0.006  10.293   0.488 -0.0096  0.5270  0.5603
11396SOL    HW137719  -0.040  10.244   0.419 -1.0492  1.5146  0.5219
11396SOL    HW237720  -0.060  10.353   0.523  0.5371  0.1459  2.3396
11397SOL     OW37721   1.418   0.351   4.916  0.0744  0.1282 -0.4164
11397SOL    HW137722   1.325   0.364   4.898  0.3481  2.2355 -0.5649
11397SOL    HW237723   1.444   0.430   4.963  2.4484  1.0427 -3.0185
11398SOL     OW37724   1.799   2.797   1.017  0.2560 -0.1113 -0.0455
11398SOL    HW137725   1.861   2.737   0.975  0.5785  0.6083 -0.6213
11398SOL    HW237726   1.713   2.759   0.998  0.3761  0.3552 -1.6459
11399SOL     OW37727   0.372   6.569   4.768 -0.2630  0.3755 -0.0006
11399SOL    HW137728   0.446   6.629   4.756  0.6107 -0.4954  0.9233
11399SOL    HW237729   0.367   6.521   4.686 -0.6158  1.2827 -0.5372
11400SOL     OW37730   6.450   5.122   2.272  0.2883 -0.6710 -0.3999
11400SOL    HW137731   6.364   5.131   2.232  0.1557  0.1002  0.0397
11400SOL    HW237732   6.454   5.193   2.337  0.5110 -1.8588  0.9234
11401SOL     OW37733   9.634   2.909  10.695  0.2678  0.1547  0.1735
11401SOL    HW137734   9.546   2.879  10.715  0.7749 -0.9705  0.7885
11401SOL    HW237735   9.649   2.883  10.604  0.4335 -0.8180  0.4756
11402SOL     OW37736   5.929   4.811   0.933 -0.0885 -0.3870  0.4683
11402SOL    HW137737   5.848   4.853   0.964 -0.3522  0.4205 -1.1944
11402SOL    HW237738   5.995   4.835   0.998 -0.8412  0.3324  0.9873
11403SOL     OW37739  10.914  10.171   5.111  0.3097 -0.0484 -0.0711
11403SOL    HW137740  10.870  10.251   5.140  2.4350  1.3794 -0.5301
11403SOL    HW237741  10.926  10.184   5.017  1.1533 -0.6610 -0.0578
11404SOL     OW37742   9.362   8.973   0.381 -0.8101 -0.5955  0.4095
11404SOL    HW137743   9.410   8.953   0.461 -0.0215 -2.5553 -0.4767
11404SOL    HW237744   9.423   9.024   0.328 -0.4901 -1.2331  0.1574
11405SOL     OW37745   5.404   7.967   0.466 -0.1632 -0.2885 -0.0407
11405SOL    HW137746   5.317   7.932   0.447 -0.0650 -1.0891  0.8920
11405SOL    HW237747   5.436   7.999   0.382 -0.5633 -1.7878 -0.7977
11406SOL     OW37748   1.946   2.000   3.867 -0.0449  0.3067 -0.4434
11406SOL    HW137749   1.967   2.065   3.933 -1.3304 -0.5056  0.8368
11406SOL    HW237750   2.013   2.011   3.800  1.0039  1.5042  0.7408
11407SOL     OW37751   3.221   5.123   4.682 -0.0921  0.2065 -0.0614
11407SOL    HW137752   3.217   5.027   4.679 -1.2593  0.2183  0.4737
11407SOL    HW237753   3.129   5.151   4.679  0.1931  1.2747  0.5173
11408SOL     OW37754   2.135   8.205   7.474  0.2457 -0.0026  0.5026
11408SOL    HW137755   2.180   8.129   7.510  1.3485  0.3098 -0.1602
11408SOL    HW237756   2.140   8.192   7.379  1.5089  1.4653  0.3401
11409SOL     OW37757  10.117   3.362   0.301 -0.2798  0.1153  0.4426
11409SOL    HW137758  10.199   3.315   0.292 -0.8263 -0.6951 -0.4684
11409SOL    HW237759  10.056   3.316   0.244 -0.6022  2.5184 -1.3076
11410SOL     OW37760   5.841   7.294   4.422 -0.2602 -0.3309  0.1713
11410SOL    HW137761   5.749   7.270   4.433 -0.5821  1.3187  1.6579
11410SOL    HW237762   5.889   7.214   4.441 -1.3406 -0.5141  2.5570
11411SOL     OW37763   9.530   9.868  10.081  0.0586 -0.2414 -0.4951
11411SOL    HW137764   9.617   9.903  10.100 -0.1137 -0.6701  1.2673
11411SOL    HW237765   9.546   9.780  10.047  0.3365 -0.0063 -0.9771
11412SOL     OW37766   5.939   8.135  10.554 -0.2419  0.1114 -0.3144
11412SOL    HW137767   5.918   8.091  10.636  0.4293 -0.4668 -0.4465
11412SOL    HW237768   5.890   8.217  10.558 -1.2502 -0.4838  0.0869
11413SOL     OW37769   3.000   2.779   3.045 -0.5644  0.0398  0.7020
11413SOL    HW137770   3.089   2.768   3.011 -0.6513  1.7125 -0.1858
11413SOL    HW237771   3.004   2.744   3.134  1.4619  1.5641  1.2975
11414SOL     OW37772  10.674   0.827   2.675 -0.1893  0.0761  0.0775
11414SOL    HW137773  10.618   0.774   2.730  1.5026 -1.3953  0.4469
11414SOL    HW237774  10.630   0.827   2.589  0.7156 -3.6888 -0.5387
11415SOL     OW37775   9.717  10.788   7.807  0.1130 -0.0740  0.2192
11415SOL    HW137776   9.640  10.755   7.853 -1.6196  2.6598 -0.5085
11415SOL    HW237777   9.763  10.709   7.778 -2.2212 -1.8032  0.9483
11416SOL     OW37778   4.654   2.719  10.470  0.6832  0.2814 -0.5375
11416SOL    HW137779   4.744   2.719  10.505  0.6594  0.2220 -0.4758
11416SOL    HW237780   4.602   2.677  10.538  0.2636  2.0507  0.2906
11417SOL     OW37781   6.498  10.030   2.606  0.7611  0.1237  0.4442
11417SOL    HW137782   6.439   9.993   2.541  2.0424  0.9477 -1.2634
11417SOL    HW237783   6.556   9.957   2.629 -0.3421 -0.4556  1.5024
11418SOL     OW37784   6.873   0.347   8.784  0.1688  0.7222  0.2835
11418SOL    HW137785   6.787   0.355   8.826  0.0864  2.4544 -0.1225
11418SOL    HW237786   6.924   0.420   8.821  0.9579  0.6362 -0.6151
11419SOL     OW37787   5.946   9.014   9.499 -0.0583 -0.3024 -0.0557
11419SOL    HW137788   6.028   9.039   9.457 -0.8800  2.8305 -0.0671
11419SOL    HW237789   5.961   9.032   9.592 -0.4812 -0.5384  0.0622
11420SOL     OW37790   8.376   0.771  10.550 -0.1844 -0.3033 -0.3480
11420SOL    HW137791   8.437   0.712  10.594 -0.3427  1.0397  1.8629
11420SOL    HW237792   8.294   0.722  10.543 -0.0766 -0.6616  0.7004
11421SOL     OW37793   0.346  10.417   1.471 -0.1577  0.5627 -0.2493
11421SOL    HW137794   0.286  10.369   1.414  0.2033  0.3632 -0.4660
11421SOL    HW237795   0.339  10.375   1.556  0.5492 -0.2167 -0.5683
11422SOL     OW37796   3.343   1.834   2.334  0.1150 -0.0790 -0.1201
11422SOL    HW137797   3.345   1.865   2.243  0.6673  0.7842  0.1787
11422SOL    HW237798   3.317   1.742   2.326  2.4113 -0.7267 -1.3689
11423SOL     OW37799  10.964   0.854   1.979 -0.2349  0.2943 -0.6252
11423SOL    HW137800  10.936   0.817   2.063  0.4258  0.3607 -0.3696
11423SOL    HW237801  10.900   0.922   1.960 -1.7204 -1.2314 -1.3064
11424SOL     OW37802  11.073  11.046  10.465 -0.0028 -0.1183  0.4406
11424SOL    HW137803  11.088  11.140  10.476 -0.2830 -0.1741  1.3806
11424SOL    HW237804  11.064  11.012  10.554  1.2132 -1.2400  0.1640
11425SOL     OW37805   0.566   9.012   2.463  0.6795 -0.1316  0.4497
11425SOL    HW137806   0.505   9.078   2.429  0.8445  0.5879  1.5309
11425SOL    HW237807   0.528   8.928   2.435  1.8759  0.3982 -3.3832
11426SOL     OW37808   4.965   7.088   6.455 -0.3577  0.4208 -0.2440
11426SOL    HW137809   4.993   7.165   6.407  0.3433 -0.1044 -0.7050
11426SOL    HW237810   5.044   7.035   6.465 -0.6363  0.1725  0.8502
11427SOL     OW37811   4.474   6.908   6.491  0.4388  0.2269 -0.2987
11427SOL    HW137812   4.464   6.835   6.430  1.6278 -0.2577  0.0629
11427SOL    HW237813   4.519   6.976   6.441  1.7789 -0.3217  0.1292
11428SOL     OW37814  10.604   8.747   3.577  0.3358  0.0397 -0.1304
11428SOL    HW137815  10.671   8.795   3.625 -0.9781  0.4686  1.3442
11428SOL    HW237816  10.542   8.814   3.549 -0.3000 -0.5234 -0.0951
11429SOL     OW37817   9.875  11.115   3.013 -0.0469  0.4663  0.1700
11429SOL    HW137818   9.790  11.085   3.046 -0.4833  1.4530 -0.0010
11429SOL    HW237819   9.937  11.094   3.083 -0.6909  1.0558  0.9423
11430SOL     OW37820  10.651   2.616   4.783  0.3374 -0.1038  0.4326
11430SOL    HW137821  10.570   2.571   4.761 -0.0458  0.0968  1.3994
11430SOL    HW237822  10.641   2.703   4.744 -0.1440  0.0961  0.9851
11431SOL     OW37823  10.612   5.364   6.619 -0.0645 -0.0945  0.4715
11431SOL    HW137824  10.591   5.303   6.689  0.1853 -1.3458 -0.5110
11431SOL    HW237825  10.543   5.430   6.623 -0.7245 -0.8052  1.1183
11432SOL     OW37826   2.844   1.186   5.173 -0.2875 -0.7681  0.1914
11432SOL    HW137827   2.879   1.201   5.085 -1.0899 -0.1556 -0.0376
11432SOL    HW237828   2.827   1.092   5.176 -0.4454 -0.7625 -0.3794
11433SOL     OW37829   5.684   5.353  10.662 -0.3825  0.1776  0.1055
11433SOL    HW137830   5.700   5.343  10.568 -2.5519  0.9393 -0.4139
11433SOL    HW237831   5.594   5.322  10.674 -0.4201  0.8418  1.8004
11434SOL     OW37832   3.899   2.326   7.032  0.3229  0.0293  0.1687
11434SOL    HW137833   3.969   2.319   6.968  0.8286 -0.6721  0.7846
11434SOL    HW237834   3.920   2.404   7.083 -0.1223  0.6328 -0.5538
11435SOL     OW37835   1.919   9.294   5.431 -0.0554 -0.0395 -0.1619
11435SOL    HW137836   1.951   9.321   5.517  0.1550  0.3923 -0.3676
11435SOL    HW237837   1.920   9.199   5.433 -0.9480 -0.0369  0.6432
11436SOL     OW37838   5.652   8.556   0.334  0.5514  0.5056 -0.6225
11436SOL    HW137839   5.624   8.634   0.285  0.3967  0.7977 -0.0744
11436SOL    HW237840   5.747   8.556   0.325  0.4121 -1.0091 -3.2793
11437SOL     OW37841  10.590  10.347   1.854 -0.6304  0.1727  0.7781
11437SOL    HW137842  10.681  10.368   1.873 -0.3047 -0.0388 -0.5260
11437SOL    HW237843  10.586  10.251   1.857 -0.2299  0.0377 -1.6222
11438SOL     OW37844   5.977   3.131   6.242 -0.2382  0.2314 -0.0193
11438SOL    HW137845   6.011   3.050   6.203 -1.8838  0.7876 -2.9084
11438SOL    HW237846   6.035   3.200   6.209 -0.7420  0.5640 -0.2186
11439SOL     OW37847   0.051   1.984   8.755  0.2986  0.7195  0.0249
11439SOL    HW137848  -0.005   2.061   8.743 -0.3982  0.4371  1.3016
11439SOL    HW237849   0.010   1.916   8.702 -0.1464  0.7147  0.3773
11440SOL     OW37850  10.790   8.058   2.343  0.0859  0.3564 -0.0297
11440SOL    HW137851  10.741   7.989   2.388  0.9796  0.0131  0.4471
11440SOL    HW237852  10.836   8.012   2.272 -1.0495  0.8400 -1.1200
11441SOL     OW37853   1.847   3.597  10.519 -0.2004 -0.0806  0.2854
11441SOL    HW137854   1.844   3.555  10.433  0.7533  0.0523  0.1725
11441SOL    HW237855   1.767   3.648  10.525  0.4930  1.2496 -1.2228
11442SOL     OW37856   2.656   6.751   4.228 -0.9124  0.5089  0.6682
11442SOL    HW137857   2.610   6.719   4.151 -1.4010  1.4337  0.5596
11442SOL    HW237858   2.685   6.839   4.204  0.1635  0.2704  1.0453
11443SOL     OW37859   6.584   5.818   5.722 -0.1644 -0.1881  0.0942
11443SOL    HW137860   6.510   5.777   5.678  0.6756 -0.7127 -0.8716
11443SOL    HW237861   6.550   5.902   5.753 -1.3468 -0.7264  0.3103
11444SOL     OW37862   0.876   4.229  10.673 -0.4684 -0.0959  0.6693
11444SOL    HW137863   0.871   4.234  10.768  0.2800  0.8529  0.6700
11444SOL    HW237864   0.953   4.174  10.656 -1.4693 -1.5522  0.5887
11445SOL     OW37865  10.242   6.855   7.654  0.6993  0.5574 -0.3061
11445SOL    HW137866  10.219   6.763   7.670  0.7338  0.2716 -1.8098
11445SOL    HW237867  10.325   6.866   7.700  0.1574  0.1577  0.8122
11446SOL     OW37868   2.997   2.339   6.783  0.4479  0.1089 -0.3024
11446SOL    HW137869   3.045   2.264   6.818  0.3515  0.2708  0.1887
11446SOL    HW237870   2.953   2.377   6.859  1.4966  1.4159 -0.3204
11447SOL     OW37871   4.256   7.045   1.383  0.1181 -0.1893 -0.7607
11447SOL    HW137872   4.244   6.953   1.362 -2.0127  0.4789 -2.9344
11447SOL    HW237873   4.350   7.060   1.370  0.5286 -2.0627 -0.1879
11448SOL     OW37874   5.835   5.530   4.444  0.3471 -0.6680  0.0903
11448SOL    HW137875   5.886   5.482   4.509  0.2790 -0.9269 -0.0464
11448SOL    HW237876   5.900   5.568   4.386  0.6700  2.6180  2.3270
11449SOL     OW37877   9.268   7.289   7.156 -0.4431  0.0070  0.5079
11449SOL    HW137878   9.196   7.279   7.219 -0.1349 -1.6424  0.6466
11449SOL    HW237879   9.241   7.238   7.080  0.9670 -1.4852  0.9430
11450SOL     OW37880   0.513   0.010   8.835  0.3707  0.3324  0.2345
11450SOL    HW137881   0.569  -0.023   8.906  0.4141  0.6737  0.3619
11450SOL    HW237882   0.482   0.095   8.867  1.4240  1.0931 -0.6890
11451SOL     OW37883   9.453   8.443   8.082 -0.1580 -0.5799  0.2968
11451SOL    HW137884   9.414   8.361   8.053  0.0247 -1.1465  1.5762
11451SOL    HW237885   9.436   8.504   8.010 -0.6738 -1.6104 -0.4973
11452SOL     OW37886   3.177   5.938   0.873 -0.0404 -0.0360 -0.2751
11452SOL    HW137887   3.109   5.982   0.823 -0.4313  0.1335  0.3851
11452SOL    HW237888   3.194   5.996   0.947  2.1543  0.8200 -1.3748
11453SOL     OW37889   8.134   8.062   4.511 -0.3921  0.0698 -0.2405
11453SOL    HW137890   8.187   8.058   4.431  0.3046 -0.1361  0.2202
11453SOL    HW237891   8.101   7.973   4.522  0.9800 -0.3584  0.6562
11454SOL     OW37892   2.477   9.971   4.444 -0.2826  0.3884  0.3416
11454SOL    HW137893   2.540   9.974   4.515 -1.2478  0.6793  1.2198
11454SOL    HW237894   2.529   9.957   4.365  0.7464 -0.8261  1.1929
11455SOL     OW37895  10.004   5.529   4.928 -0.1561  0.1323 -0.3770
11455SOL    HW137896   9.995   5.506   4.836  0.0087  0.5424 -0.4975
11455SOL    HW237897  10.051   5.612   4.928 -0.4174  0.2849  0.0646
11456SOL     OW37898   7.783   7.688   3.501  0.1161 -0.5119 -0.0764
11456SOL    HW137899   7.734   7.639   3.567 -0.4564 -2.0586 -1.5766
11456SOL    HW237900   7.727   7.764   3.482  0.1824 -0.1684  1.0058
11457SOL     OW37901   8.241   2.670   7.605 -0.2232  0.4482 -0.5325
11457SOL    HW137902   8.188   2.624   7.540 -0.3743 -0.2406  0.0567
11457SOL    HW237903   8.236   2.762   7.580 -1.2643  0.3350 -0.8009
11458SOL     OW37904   1.075   0.120   1.134  0.1746  0.0447 -0.1792
11458SOL    HW137905   0.988   0.094   1.165  0.3858  0.0008  0.3795
11458SOL    HW237906   1.109   0.042   1.090 -0.0714  0.0657 -0.4115
11459SOL     OW37907  10.006   3.785   6.813  0.2298 -0.3649 -0.2399
11459SOL    HW137908  10.035   3.876   6.815  0.0649 -0.2962 -0.9700
11459SOL    HW237909   9.916   3.788   6.846  0.2704 -0.2832 -0.1353
11460SOL     OW37910   9.779   6.999   3.314  0.3530  0.3961 -0.6482
11460SOL    HW137911   9.688   6.975   3.300  1.1784 -2.9173 -1.0719
11460SOL    HW237912   9.775   7.075   3.373 -2.6272 -0.1370 -0.0070
11461SOL     OW37913   3.234   3.317   8.417 -0.0102 -0.7774 -0.2369
11461SOL    HW137914   3.143   3.343   8.403  0.7806  2.3899 -0.2627
11461SOL    HW237915   3.267   3.294   8.330 -0.0049  1.1049 -0.7680
11462SOL     OW37916   5.905   8.583  10.756 -0.3089 -0.0898 -0.1455
11462SOL    HW137917   5.858   8.663  10.730  0.6270  0.1758 -1.0773
11462SOL    HW237918   5.985   8.614  10.797  0.0396 -0.5426 -0.4703
11463SOL     OW37919   7.058   6.881   1.400  0.5773 -0.2872 -0.3398
11463SOL    HW137920   7.012   6.799   1.421 -1.2169 -0.2884 -3.6237
11463SOL    HW237921   7.151   6.859   1.405  0.1367 -2.4924 -0.9556
11464SOL     OW37922   1.461   4.807   2.145  0.7430  0.0576  0.4268
11464SOL    HW137923   1.468   4.772   2.056 -1.8154  0.3249  0.0645
11464SOL    HW237924   1.412   4.889   2.136 -0.5099 -0.4308  2.1697
11465SOL     OW37925   9.830   5.868   4.045  0.1135 -0.0799 -0.0273
11465SOL    HW137926   9.862   5.821   3.969  0.4734 -0.1184  0.1460
11465SOL    HW237927   9.861   5.817   4.120 -2.0450 -1.2828  0.1567
11466SOL     OW37928   7.152   7.151   8.625 -0.1882 -0.4118  0.4529
11466SOL    HW137929   7.162   7.178   8.716 -0.2901  1.0109  0.0663
11466SOL    HW237930   7.065   7.181   8.601 -0.3354 -1.1765  0.0058
11467SOL     OW37931   0.794   1.337   3.968  0.0214 -0.1605  0.8406
11467SOL    HW137932   0.711   1.384   3.975  0.3534  0.2999  1.7506
11467SOL    HW237933   0.795   1.304   3.878 -0.6249  0.8151  0.4610
11468SOL     OW37934   8.538   4.062   1.502  0.3534  0.3235  0.1136
11468SOL    HW137935   8.483   3.993   1.540 -1.6230  2.2023  0.8426
11468SOL    HW237936   8.560   4.029   1.415 -2.2350 -0.4153 -0.3668
11469SOL     OW37937   9.353   0.119  11.085  0.2288 -0.3321 -0.1254
11469SOL    HW137938   9.365   0.181  11.157  1.7937  0.7717 -1.2518
11469SOL    HW237939   9.325   0.174  11.011  0.3710 -1.1720 -0.8169
11470SOL     OW37940   1.438   8.419   1.540  0.1577 -0.2819  0.1094
11470SOL    HW137941   1.428   8.354   1.471  0.4047 -2.3150  1.8830
11470SOL    HW237942   1.386   8.385   1.613 -1.1046  2.3999  0.6022
11471SOL     OW37943   6.075   2.529   3.902  0.0635 -0.5948 -0.0721
11471SOL    HW137944   6.093   2.524   3.995 -1.4774  0.7616  0.3461
11471SOL    HW237945   6.115   2.611   3.874 -0.3068 -0.5204 -0.3966
11472SOL     OW37946   4.959  10.447  10.853  0.0094 -0.0294  0.2132
11472SOL    HW137947   4.904  10.493  10.789 -0.1407  1.5059  1.4076
11472SOL    HW237948   4.987  10.514  10.914 -0.5980 -1.5799  2.3285
11473SOL     OW37949   2.797   5.169   4.983  0.0699  0.2524  0.0470
11473SOL    HW137950   2.823   5.141   5.071  1.8289  1.2633 -0.0944
11473SOL    HW237951   2.769   5.260   4.993  0.3156  0.3878 -0.4302
11474SOL     OW37952  10.419   5.297   4.406 -0.0061 -0.5622  0.6486
11474SOL    HW137953  10.441   5.354   4.332 -1.7680 -1.9552 -1.0590
11474SOL    HW237954  10.503   5.265   4.438  0.8913  1.3585  0.3404
11475SOL     OW37955   1.513   3.731   3.502 -0.1168  0.4566  0.4918
11475SOL    HW137956   1.534   3.638   3.508 -2.5513 -0.3056 -0.9428
11475SOL    HW237957   1.529   3.754   3.410 -0.2527  1.2508  0.6542
11476SOL     OW37958   1.168   4.309   2.060 -0.4027  0.3775 -0.5200
11476SOL    HW137959   1.092   4.270   2.104 -2.1383  2.5653 -1.3656
11476SOL    HW237960   1.224   4.340   2.131 -0.0625 -1.5960  0.1274
11477SOL     OW37961   8.369   4.395   8.028  0.2156 -0.7493  0.1152
11477SOL    HW137962   8.428   4.414   7.955 -0.1591 -1.1408 -0.2964
11477SOL    HW237963   8.326   4.313   8.004  0.0712 -0.8727  0.7696
11478SOL     OW37964   4.995  10.341   5.274  0.2223 -0.1579  0.6561
11478SOL    HW137965   4.975  10.413   5.333  2.6400  0.6381  0.6185
11478SOL    HW237966   4.990  10.379   5.187  0.4538 -0.3325  0.5662
11479SOL     OW37967   5.775   5.595   1.977  0.0832 -0.0510 -0.1548
11479SOL    HW137968   5.719   5.651   1.925 -1.1016  0.8965  1.9911
11479SOL    HW237969   5.835   5.655   2.021 -1.5453 -0.2684  2.5961
11480SOL     OW37970   1.527   1.555   4.910 -0.0639 -0.8328 -0.5944
11480SOL    HW137971   1.615   1.593   4.908 -0.3094 -0.2214 -3.2626
11480SOL    HW237972   1.529   1.494   4.984  3.0352 -1.8113 -1.3395
11481SOL     OW37973   6.576   0.804   4.176 -0.3247  0.0452 -0.0649
11481SOL    HW137974   6.577   0.895   4.148  1.1760 -0.1401 -0.7076
11481SOL    HW237975   6.575   0.754   4.094 -0.3524 -0.5169  0.2759
11482SOL     OW37976   8.270   9.603   8.448  0.3040 -0.5313 -0.2948
11482SOL    HW137977   8.203   9.639   8.507  1.2171  0.3281  0.2428
11482SOL    HW237978   8.338   9.569   8.507 -0.2414 -2.6415 -0.8008
11483SOL     OW37979   8.975   5.781   5.633 -0.5687  0.5369  0.0959
11483SOL    HW137980   8.907   5.789   5.566 -0.4402  0.1736 -0.0752
11483SOL    HW237981   9.033   5.712   5.602 -0.5763  0.2788  0.6359
11484SOL     OW37982   7.429   4.189   2.481  0.9198  0.0300  0.0884
11484SOL    HW137983   7.341   4.166   2.511 -0.8494  3.6988 -1.6561
11484SOL    HW237984   7.435   4.151   2.393  0.9916  0.0512  0.0840
11485SOL     OW37985   5.494   5.741   0.876 -0.6394  0.6318 -0.0874
11485SOL    HW137986   5.526   5.727   0.965  1.6411 -0.4895 -1.0094
11485SOL    HW237987   5.519   5.662   0.828 -1.5748  1.3083 -1.8116
11486SOL     OW37988   0.657   7.115   4.929  0.3243 -0.0686 -0.5912
11486SOL    HW137989   0.730   7.083   4.983  1.5629  0.9929 -1.5507
11486SOL    HW237990   0.579   7.076   4.967  1.3404 -0.7407  0.8761
11487SOL     OW37991  10.566   8.645   0.786 -0.7103  0.3844  0.5533
11487SOL    HW137992  10.642   8.670   0.839  1.0363  0.6646 -1.9258
11487SOL    HW237993  10.533   8.565   0.827  0.3601  0.7427  2.2115
11488SOL     OW37994   7.616   7.816   1.795  0.4928  0.6394  0.0200
11488SOL    HW137995   7.535   7.808   1.745 -0.1257 -1.3341  1.1871
11488SOL    HW237996   7.666   7.737   1.773  1.1651  0.8191  0.8440
11489SOL     OW37997   4.117   0.885   1.423 -0.2708 -0.1104 -0.4045
11489SOL    HW137998   4.077   0.802   1.449 -0.3924 -0.1272 -0.6435
11489SOL    HW237999   4.045   0.946   1.418 -0.0194  0.3496  1.0631
11490SOL     OW38000   0.093   8.590   9.506  0.4402 -0.0065 -0.1431
11490SOL    HW138001   0.182   8.557   9.519  0.0058 -0.1625  3.0300
11490SOL    HW238002   0.089   8.670   9.558 -1.7162 -0.8355  1.0463
11491SOL     OW38003   3.149   0.634   5.949 -0.2889  0.2723  0.4346
11491SOL    HW138004   3.169   0.574   5.876  0.3762  1.5610 -0.4709
11491SOL    HW238005   3.175   0.585   6.027 -1.6089 -1.4018 -0.0916
11492SOL     OW38006   4.712   0.013   6.668 -0.3446 -0.0977 -0.0292
11492SOL    HW138007   4.676   0.004   6.757  0.0166 -0.7737  0.0500
11492SOL    HW238008   4.807   0.011   6.681 -0.2860 -1.2875 -0.5308
11493SOL     OW38009   1.016   7.271   3.846 -0.5666 -0.1161 -0.2555
11493SOL    HW138010   0.959   7.341   3.815 -1.7028 -1.4603 -1.3563
11493SOL    HW238011   1.096   7.280   3.795 -0.2724  1.0128  0.3851
11494SOL     OW38012   7.808   3.505   3.141 -0.8251 -0.3985  0.2676
11494SOL    HW138013   7.743   3.518   3.072  0.3827  1.6093 -0.5948
11494SOL    HW238014   7.809   3.588   3.188 -0.3937 -1.1539  1.6336
11495SOL     OW38015   6.625   1.173   2.425  0.2837 -0.0459 -0.1527
11495SOL    HW138016   6.541   1.191   2.468  0.0414 -0.0036 -0.6313
11495SOL    HW238017   6.659   1.095   2.470 -1.4080 -1.8753 -1.8433
11496SOL     OW38018   0.269   7.910   2.138  0.2207 -0.3165  0.4168
11496SOL    HW138019   0.277   7.979   2.204  0.6913 -0.0643  0.1007
11496SOL    HW238020   0.175   7.901   2.124  0.1798  1.1742 -0.4811
11497SOL     OW38021  10.722   7.505   5.119  0.0215 -0.1820 -0.5603
11497SOL    HW138022  10.701   7.430   5.063 -0.7966 -1.0524  0.8822
11497SOL    HW238023  10.747   7.467   5.203  1.2029  1.1057 -0.2883
11498SOL     OW38024   3.868   7.815   5.805 -0.4003 -0.1861 -0.0620
11498SOL    HW138025   3.847   7.839   5.715  0.4827 -2.4495 -0.9593
11498SOL    HW238026   3.783   7.792   5.844 -0.6313 -0.5868 -0.7907
11499SOL     OW38027   4.637   5.410   7.511  0.6905 -0.4497  0.3881
11499SOL    HW138028   4.730   5.416   7.487  0.5224 -1.6640 -0.6338
11499SOL    HW238029   4.591   5.398   7.428 -0.1834 -1.8126  1.0256
11500SOL     OW38030   7.075   1.015   3.781 -0.2529  0.4260 -0.3015
11500SOL    HW138031   7.167   1.041   3.792 -0.5158  0.8697  1.0132
11500SOL    HW238032   7.049   0.984   3.868 -0.9777 -0.9419 -0.9915
11501SOL     OW38033   7.666   1.656   4.068 -0.8110  1.0398 -0.5282
11501SOL    HW138034   7.571   1.646   4.069 -0.8843  1.3249 -1.9238
11501SOL    HW238035   7.698   1.592   4.132 -1.6998 -2.3872 -3.1573
11502SOL     OW38036   4.179   2.671   0.490 -0.0577  0.4452 -0.5971
11502SOL    HW138037   4.146   2.608   0.426  1.5392 -1.2737  0.1752
11502SOL    HW238038   4.196   2.750   0.439  0.5624 -0.6630 -2.2055
11503SOL     OW38039  10.893   7.000   6.324 -0.2566 -0.0213  0.5344
11503SOL    HW138040  10.896   6.945   6.245 -3.2528 -0.6109  0.7077
11503SOL    HW238041  10.839   7.075   6.298 -0.3567  0.3255  1.7026
11504SOL     OW38042   7.983   5.587   6.566  0.2026 -0.6071 -0.1273
11504SOL    HW138043   7.919   5.653   6.594  0.1926  0.0376 -1.5578
11504SOL    HW238044   7.981   5.592   6.470  0.6012 -2.3283 -0.2456
11505SOL     OW38045   6.217   4.754   5.980 -0.5252  0.2928 -0.6881
11505SOL    HW138046   6.145   4.763   6.042  0.8373  1.8754  0.7607
11505SOL    HW238047   6.244   4.844   5.961  2.3300 -0.2453  0.3737
11506SOL     OW38048  10.710   8.326   0.089 -0.1519  0.4393 -0.3068
11506SOL    HW138049  10.705   8.231   0.081 -0.6122  0.4182  0.1942
11506SOL    HW238050  10.662   8.346   0.169 -1.8423  1.2671 -1.4615
11507SOL     OW38051  10.187   8.410  11.002 -0.1422 -0.6070  0.1809
11507SOL    HW138052  10.106   8.462  11.005  0.8670  1.0651 -0.0287
11507SOL    HW238053  10.229   8.427  11.086  0.4572 -0.6562 -0.1087
11508SOL     OW38054   6.953   7.232   4.958 -0.6295  0.1957 -0.4820
11508SOL    HW138055   6.948   7.234   5.054 -1.2746 -2.4354 -0.3760
11508SOL    HW238056   6.924   7.319   4.931  0.7680  1.4509  1.7093
11509SOL     OW38057   5.412   1.907   6.619  0.6357 -0.0654  0.1166
11509SOL    HW138058   5.475   1.938   6.554  0.4872  2.8165  1.2127
11509SOL    HW238059   5.334   1.884   6.569  1.8232 -1.7666 -1.0525
11510SOL     OW38060   1.169   4.235   5.638  0.5572  0.5706  0.0579
11510SOL    HW138061   1.205   4.200   5.720  1.8798  1.5699 -0.0562
11510SOL    HW238062   1.116   4.310   5.666  1.2376  1.0832 -0.0106
11511SOL     OW38063  10.656   0.061   5.659 -0.2332 -0.4040 -0.1785
11511SOL    HW138064  10.597   0.059   5.584 -1.1512  0.6936  0.4891
11511SOL    HW238065  10.735   0.104   5.626 -1.0001  0.9666 -0.2871
11512SOL     OW38066   4.839   8.770   0.236 -0.1569  0.2345 -0.1517
11512SOL    HW138067   4.744   8.777   0.250  0.0511  2.0111  0.6379
11512SOL    HW238068   4.876   8.771   0.324  0.6051 -0.3370 -0.4613
11513SOL     OW38069   3.508   5.753   7.346 -0.5952  0.1667 -0.3862
11513SOL    HW138070   3.469   5.752   7.434  0.6828  0.7490  0.2133
11513SOL    HW238071   3.459   5.687   7.297 -1.9961  0.5286  0.4693
11514SOL     OW38072   5.259   2.316   7.553 -0.7136  0.0899 -0.0230
11514SOL    HW138073   5.316   2.272   7.616  2.0863 -1.5420 -3.4131
11514SOL    HW238074   5.201   2.247   7.521 -1.2509  0.6044 -0.1804
11515SOL     OW38075   9.110   7.901  10.341  0.6624 -0.7181  0.1507
11515SOL    HW138076   9.060   7.951  10.406 -0.8965 -2.0673  0.0583
11515SOL    HW238077   9.156   7.968  10.290 -1.8983  0.7568 -0.4313
11516SOL     OW38078   9.249   7.471   3.143  0.2320 -0.8728 -0.2525
11516SOL    HW138079   9.211   7.532   3.079  1.2898 -2.3396 -2.4058
11516SOL    HW238080   9.242   7.517   3.227  0.5546  2.0199 -1.6648
11517SOL     OW38081   9.303  10.629  10.281 -0.3527  0.1537 -0.1514
11517SOL    HW138082   9.353  10.694  10.231 -0.7473  1.0009  0.5385
11517SOL    HW238083   9.333  10.639  10.371 -0.4424 -0.6096 -0.0231
11518SOL     OW38084   0.338   7.593   8.606 -0.3339  0.3391 -0.3576
11518SOL    HW138085   0.254   7.560   8.638  0.6358 -1.7647  0.2053
11518SOL    HW238086   0.374   7.642   8.680 -1.5319  2.2856 -1.0011
11519SOL     OW38087   3.427   4.768   5.220  0.5115 -0.6581  0.2637
11519SOL    HW138088   3.352   4.827   5.223  1.1036  0.4034 -2.5309
11519SOL    HW238089   3.391   4.685   5.189  0.4868  0.0706 -1.8700
11520SOL     OW38090   2.434   0.242   7.388 -0.1682  0.0093 -0.0597
11520SOL    HW138091   2.511   0.237   7.331  0.3694 -3.3954  0.7493
11520SOL    HW238092   2.469   0.266   7.473 -0.2805  0.3985 -0.1239
11521SOL     OW38093   0.400   5.815   9.120  0.4490  0.4038 -0.2045
11521SOL    HW138094   0.464   5.808   9.191  0.3305 -0.0942 -0.1382
11521SOL    HW238095   0.451   5.807   9.040  0.3942 -0.7878 -0.1410
11522SOL     OW38096   5.971   1.249   6.411 -0.5983  0.0343  0.5573
11522SOL    HW138097   5.984   1.265   6.505  1.0137 -2.7780  0.9275
11522SOL    HW238098   5.936   1.160   6.407 -2.5912  0.8171 -1.4920
11523SOL     OW38099   0.681   0.763   4.627 -0.3627 -0.0148  0.2819
11523SOL    HW138100   0.762   0.713   4.620  0.5624  1.0753  2.1843
11523SOL    HW238101   0.649   0.771   4.537  1.2435 -1.0850 -0.4303
11524SOL     OW38102   8.482   5.903   6.343  0.1357 -0.2821 -0.1069
11524SOL    HW138103   8.438   5.963   6.283  0.9814  0.9222  0.4272
11524SOL    HW238104   8.489   5.953   6.425  1.2455 -0.9576  0.2273
11525SOL     OW38105   7.557   1.339   6.398 -0.6820 -0.4549  0.3023
11525SOL    HW138106   7.600   1.282   6.335  0.9617  0.3633  0.6261
11525SOL    HW238107   7.553   1.424   6.354  0.4807  0.1226  1.2596
11526SOL     OW38108   2.887   0.226   3.560  0.6734 -0.5304 -0.0378
11526SOL    HW138109   2.974   0.187   3.548  0.9127 -0.0958  0.2422
11526SOL    HW238110   2.880   0.291   3.490  1.4378  0.9068  1.1529
11527SOL     OW38111   5.674   9.565   0.453 -0.1186  0.5698 -0.1833
11527SOL    HW138112   5.723   9.485   0.472  0.2540  0.7453 -0.3916
11527SOL    HW238113   5.710   9.597   0.371 -0.7427  0.5802 -0.4635
11528SOL     OW38114   0.398   3.177   7.673  0.2408 -0.1964  0.4673
11528SOL    HW138115   0.324   3.117   7.659  0.5056 -0.4166 -0.0301
11528SOL    HW238116   0.475   3.126   7.651  0.3858  0.7255 -1.3860
11529SOL     OW38117   0.988   5.865   9.108  0.2822  0.8265  0.1759
11529SOL    HW138118   1.054   5.933   9.098  1.8075 -0.4002  1.3936
11529SOL    HW238119   0.954   5.875   9.197 -0.5955  0.9190 -0.1520
11530SOL     OW38120  10.629   0.046   8.628  0.2574  0.6518 -0.2240
11530SOL    HW138121  10.586   0.111   8.573  0.7661  0.3590 -0.9875
11530SOL    HW238122  10.722   0.053   8.604  0.2534 -0.6860 -0.6709
11531SOL     OW38123   4.938   3.706   2.460  0.3067 -0.2386  0.1093
11531SOL    HW138124   4.968   3.785   2.506 -0.3608  0.5385 -0.7297
11531SOL    HW238125   5.017   3.669   2.422  0.3395  1.7881 -2.0871
11532SOL     OW38126   6.300   6.473  10.753 -0.1675  0.2265 -0.1774
11532SOL    HW138127   6.238   6.477  10.826 -1.2468  1.8114 -1.1136
11532SOL    HW238128   6.351   6.554  10.760  1.2300 -0.6369  0.0549
11533SOL     OW38129   8.318   6.229   0.109 -0.4635 -0.2319 -0.0876
11533SOL    HW138130   8.408   6.218   0.077  0.0648 -1.2957  1.5808
11533SOL    HW238131   8.329   6.260   0.199 -1.8452  1.8910 -0.5773
11534SOL     OW38132   7.923   8.368   9.853 -0.6066  0.1690 -0.1881
11534SOL    HW138133   8.017   8.368   9.834 -0.7501 -0.8018 -1.0043
11534SOL    HW238134   7.916   8.323   9.938 -0.4705 -1.8570 -1.1771
11535SOL     OW38135   5.419   7.165   8.591  0.9879 -0.6270  0.0020
11535SOL    HW138136   5.386   7.174   8.681  1.4238 -1.0119  0.2054
11535SOL    HW238137   5.437   7.255   8.563 -0.9282 -0.3287 -0.3970
11536SOL     OW38138   1.624   5.621   3.875 -0.4505 -0.5510  0.8291
11536SOL    HW138139   1.569   5.543   3.880  0.9580 -1.7018 -0.5234
11536SOL    HW238140   1.692   5.598   3.810  0.4179  1.5343  0.9322
11537SOL     OW38141  10.697  10.231   4.841 -0.2731  0.6984  0.0931
11537SOL    HW138142  10.760  10.300   4.862 -1.2873  1.0230  2.4046
11537SOL    HW238143  10.626  10.244   4.904 -0.6819 -2.2113  0.3653
11538SOL     OW38144   3.128   0.602   9.556  0.8341  0.6810 -0.2156
11538SOL    HW138145   3.122   0.537   9.625 -1.1428  1.5300  0.4609
11538SOL    HW238146   3.202   0.572   9.502  0.4438 -1.7005  0.4619
11539SOL     OW38147  10.552   2.743   2.544 -0.0081  0.0440 -0.4704
11539SOL    HW138148  10.457   2.727   2.549  0.0336 -0.2703 -0.6436
11539SOL    HW238149  10.570   2.802   2.618 -0.0468 -1.3077  0.6625
11540SOL     OW38150   2.701   4.771   3.258  0.0460 -0.6261 -0.4484
11540SOL    HW138151   2.777   4.797   3.310 -0.6376  0.6084 -0.0155
11540SOL    HW238152   2.736   4.711   3.192  1.4272  0.0614 -0.3828
11541SOL     OW38153  10.568   6.397   5.830 -0.1998 -0.1508  0.1919
11541SOL    HW138154  10.554   6.480   5.783  5.0687  1.2168  0.4011
11541SOL    HW238155  10.644   6.358   5.787 -1.1610 -3.9157  1.5167
11542SOL     OW38156   8.771   2.046   1.636 -0.6193 -0.0400 -0.3655
11542SOL    HW138157   8.707   2.060   1.707 -0.1551 -0.0499  0.0650
11542SOL    HW238158   8.851   2.086   1.669 -0.9287  1.8734 -1.7771
11543SOL     OW38159   8.471   8.910   7.474  0.5965  0.2767  0.2587
11543SOL    HW138160   8.550   8.924   7.421  0.4677  1.6050  0.3747
11543SOL    HW238161   8.459   8.815   7.474  1.5002  0.1339 -0.7650
11544SOL     OW38162  10.087   6.089   1.005  0.2697 -0.0509  0.1086
11544SOL    HW138163  10.137   6.151   1.058 -0.0409  1.3604 -1.1677
11544SOL    HW238164  10.086   6.008   1.056  5.1345 -0.6972 -0.3364
11545SOL     OW38165   6.797   9.157   0.816 -0.7691  0.1737 -1.3177
11545SOL    HW138166   6.782   9.119   0.730  0.6704 -1.2454 -0.9746
11545SOL    HW238167   6.718   9.136   0.866 -0.5547 -1.2604 -1.5446
11546SOL     OW38168   1.376   5.402   7.794  0.0185  0.6116 -0.4306
11546SOL    HW138169   1.310   5.415   7.727  0.6518  0.0654 -1.1677
11546SOL    HW238170   1.457   5.433   7.754  0.2387  1.1859  0.4280
11547SOL     OW38171   9.286   9.570   1.009  0.6399  0.4484  0.2087
11547SOL    HW138172   9.308   9.659   1.036 -1.7771  1.3046 -0.3652
11547SOL    HW238173   9.216   9.581   0.944  0.7025 -1.8458 -0.3467
11548SOL     OW38174   6.597   2.594   6.898  0.1724 -0.3496 -1.0586
11548SOL    HW138175   6.531   2.551   6.952  0.6823  2.3017  1.9575
11548SOL    HW238176   6.549   2.657   6.845  0.0930  1.8827  1.4398
11549SOL     OW38177   4.977   9.819   6.465  0.2351 -0.1197 -0.0244
11549SOL    HW138178   5.000   9.912   6.466 -0.2330 -0.0027  0.2247
11549SOL    HW238179   4.931   9.806   6.382  2.3745 -0.6579 -1.1847
11550SOL     OW38180   8.529   4.999   0.465 -0.0502  0.2969  0.4474
11550SOL    HW138181   8.617   5.005   0.502 -0.0181  2.6856  0.1612
11550SOL    HW238182   8.542   4.957   0.380  0.7399  0.1689  0.6211
11551SOL     OW38183   2.954   4.195  10.498  0.1157 -0.0444  0.1984
11551SOL    HW138184   2.887   4.218  10.435 -0.3890 -1.8972  0.0191
11551SOL    HW238185   2.956   4.269  10.559 -1.9027  0.1668  0.0591
11552SOL     OW38186   9.020   3.089   1.317  0.1495  0.2131 -0.3716
11552SOL    HW138187   9.073   3.049   1.248  0.2785  0.4016 -0.3813
11552SOL    HW238188   8.937   3.110   1.274  0.4183  0.8158 -0.6074
11553SOL     OW38189   2.643   3.462   8.164 -0.8608  0.1518  0.8677
11553SOL    HW138190   2.572   3.526   8.159 -1.6658 -0.7116  1.1014
11553SOL    HW238191   2.602   3.378   8.143  0.0444 -0.3924  1.2149
11554SOL     OW38192   9.043   9.294   3.562 -0.4580  0.0306 -0.6206
11554SOL    HW138193   9.014   9.206   3.540 -1.0298  0.1092 -0.1792
11554SOL    HW238194   8.979   9.352   3.519 -0.3889  0.2237 -0.4660
11555SOL     OW38195   7.546   1.531   9.438  0.0401 -0.3199  0.1726
11555SOL    HW138196   7.548   1.526   9.342  1.2459 -0.6615  0.1932
11555SOL    HW238197   7.469   1.481   9.464  0.8378 -1.9754 -0.5373
11556SOL     OW38198   9.578   8.178   0.909 -0.2436 -0.0202 -0.0060
11556SOL    HW138199   9.515   8.227   0.963 -0.0035  0.5629 -0.2451
11556SOL    HW238200   9.637   8.138   0.973 -0.3617  0.1105  0.1884
11557SOL     OW38201   2.183   9.346   1.996 -0.1554  0.0698  0.6268
11557SOL    HW138202   2.276   9.325   1.996  0.0682  0.9946  0.3157
11557SOL    HW238203   2.172   9.403   2.073 -0.6112 -0.6281  1.0863
11558SOL     OW38204   2.225   1.929   2.409  0.4644 -0.4391  0.2462
11558SOL    HW138205   2.205   1.839   2.434  0.1491 -0.0460  1.5425
11558SOL    HW238206   2.273   1.922   2.327 -1.0803 -1.6913 -0.5977
11559SOL     OW38207   5.135   6.359   1.829 -0.0682  0.2355 -0.0431
11559SOL    HW138208   5.205   6.307   1.789  1.0133  1.5163  0.1031
11559SOL    HW238209   5.091   6.401   1.756 -0.9072 -0.8050 -0.1575
11560SOL     OW38210   5.763   1.854   9.533  0.2235  0.1996 -0.6912
11560SOL    HW138211   5.684   1.800   9.535 -0.2611  0.9151  0.3687
11560SOL    HW238212   5.749   1.915   9.460 -0.7134  1.0242  0.1402
11561SOL     OW38213   7.031   4.528   4.045  0.2834  0.3077 -0.1024
11561SOL    HW138214   6.972   4.557   3.975 -0.3090  0.4862  0.4547
11561SOL    HW238215   7.056   4.440   4.020  0.4547  0.5462 -0.7790
11562SOL     OW38216   5.384   0.062   0.878  0.5056 -0.1103  0.4456
11562SOL    HW138217   5.470   0.046   0.915  0.3917 -0.6047  0.5121
11562SOL    HW238218   5.348   0.134   0.929  2.0360  2.1562 -1.4848
11563SOL     OW38219   9.765   7.410   7.095  0.1043 -0.7014  0.0649
11563SOL    HW138220   9.806   7.495   7.113 -0.1601 -0.9503  2.0978
11563SOL    HW238221   9.683   7.432   7.052 -0.3693  0.1719  1.3356
11564SOL     OW38222   0.953   2.388   8.414 -0.2653 -0.0338  0.0424
11564SOL    HW138223   0.958   2.439   8.333  0.1929 -2.7131 -1.7579
11564SOL    HW238224   0.881   2.327   8.399  1.3888 -2.2337  0.5678
11565SOL     OW38225   2.541   2.721  10.544  0.2839 -0.4172  0.2270
11565SOL    HW138226   2.588   2.701  10.625  1.5852  0.0715 -0.3929
11565SOL    HW238227   2.609   2.731  10.478 -0.8004 -1.9012 -1.2091
11566SOL     OW38228   5.058   9.916   7.965 -0.2540  0.4449 -0.0431
11566SOL    HW138229   5.015   9.837   7.932  0.7380 -0.2044  0.1801
11566SOL    HW238230   5.130   9.931   7.904  0.8206 -0.0350  1.0614
11567SOL     OW38231   8.460   6.655   5.580  0.2132  0.1909  0.0711
11567SOL    HW138232   8.548   6.623   5.558  0.5127 -0.6908  2.3370
11567SOL    HW238233   8.475   6.740   5.623 -0.3242  1.5989 -2.3158
11568SOL     OW38234  11.051   0.789   3.017 -0.2127  0.3367  0.2100
11568SOL    HW138235  11.012   0.849   3.082 -0.6616 -1.0302  1.2455
11568SOL    HW238236  11.001   0.805   2.937  0.9357  2.7023 -0.1358
11569SOL     OW38237   6.207   2.614   9.079 -0.0714  0.0043 -0.1517
11569SOL    HW138238   6.227   2.678   9.011  1.7481 -0.3971 -0.0467
11569SOL    HW238239   6.206   2.664   9.160 -0.4459  0.1912 -0.2712
11570SOL     OW38240   9.836   5.996   4.392  0.3451 -0.6352 -0.5159
11570SOL    HW138241   9.899   6.060   4.360  0.6603 -0.8669 -0.3647
11570SOL    HW238242   9.758   6.009   4.338 -0.1141  0.8411  0.4512
11571SOL     OW38243   5.992   9.563   0.411  0.1858  0.4631  0.0030
11571SOL    HW138244   6.033   9.524   0.489 -2.3283  0.8205  1.6300
11571SOL    HW238245   6.031   9.650   0.405  0.6101  0.3358  0.7264
11572SOL     OW38246   9.734   9.454   0.096 -0.3162 -0.3080 -0.2971
11572SOL    HW138247   9.764   9.368   0.067  1.1891 -0.1008  0.5508
11572SOL    HW238248   9.807   9.512   0.077 -1.2853  0.7973 -0.7906
11573SOL     OW38249  10.666   1.255   4.119 -0.1734  0.2863  0.0148
11573SOL    HW138250  10.757   1.283   4.133 -0.0330 -0.2334  0.1724
11573SOL    HW238251  10.654   1.182   4.180 -0.4602 -0.1384 -0.5478
11574SOL     OW38252   8.138  10.847   9.613 -0.0008  0.3719  0.2935
11574SOL    HW138253   8.070  10.786   9.639  0.5446 -0.2081  0.3934
11574SOL    HW238254   8.219  10.797   9.621  0.5200  1.2957  0.9576
11575SOL     OW38255   8.755   7.798   9.340 -0.4529 -0.3292 -0.9931
11575SOL    HW138256   8.788   7.726   9.287  3.1526 -0.1229  0.6986
11575SOL    HW238257   8.778   7.774   9.430 -2.2633  1.4152  0.0144
11576SOL     OW38258   5.969   6.991   4.419  0.5387 -0.8586 -0.1023
11576SOL    HW138259   5.889   6.958   4.378 -0.7448  1.8845 -0.0541
11576SOL    HW238260   6.019   7.029   4.347  1.3862 -1.7467  0.0015
11577SOL     OW38261   5.546   8.245  10.234  1.0156 -0.0752 -0.7065
11577SOL    HW138262   5.522   8.338  10.231 -0.6269 -0.2757  2.3091
11577SOL    HW238263   5.477   8.201  10.184  0.4258  0.1475 -0.1027
11578SOL     OW38264   1.060   2.798   9.008  0.4789 -0.4983 -0.0740
11578SOL    HW138265   1.136   2.793   9.067 -0.9990 -0.8087  1.9153
11578SOL    HW238266   1.097   2.785   8.920  2.8252  0.3358  0.7138
11579SOL     OW38267   2.183   1.454   3.722  0.4465  0.1260 -0.6743
11579SOL    HW138268   2.184   1.509   3.800  0.0212 -0.0835 -0.5168
11579SOL    HW238269   2.125   1.382   3.745  0.9618 -0.3688 -0.8958
11580SOL     OW38270   4.566   7.389   1.686 -0.0692 -0.0030  0.1642
11580SOL    HW138271   4.566   7.429   1.599  0.6247  0.6319  0.4416
11580SOL    HW238272   4.487   7.423   1.728 -0.7435 -0.8064 -0.4279
11581SOL     OW38273  10.482   0.190   8.031  0.3580  0.3444  0.1235
11581SOL    HW138274  10.535   0.261   7.994 -0.0884  0.7742  0.3011
11581SOL    HW238275  10.496   0.116   7.971  1.0775  0.4747  0.1143
11582SOL     OW38276   6.267   1.601  10.908  0.6971  0.3354  0.4256
11582SOL    HW138277   6.213   1.572  10.834  0.0030  3.0179 -0.2223
11582SOL    HW238278   6.345   1.639  10.868 -0.0903  2.6288  0.9531
11583SOL     OW38279   1.511   2.506   6.047 -0.2052  0.4423 -0.1899
11583SOL    HW138280   1.501   2.492   5.953  1.0437 -0.9983 -0.1479
11583SOL    HW238281   1.587   2.564   6.055  0.1748 -0.0726 -0.0442
11584SOL     OW38282   1.292   3.726   9.756 -0.3259 -0.1489  0.4456
11584SOL    HW138283   1.240   3.745   9.834 -0.7361 -1.1294  0.4209
11584SOL    HW238284   1.379   3.706   9.790 -0.6866 -1.3003  0.7297
11585SOL     OW38285   5.897   5.746   6.330  0.2563 -0.1990  0.6140
11585SOL    HW138286   5.962   5.815   6.345  0.1173 -0.0300  0.4490
11585SOL    HW238287   5.857   5.731   6.416  0.6505 -0.4441  0.7570
11586SOL     OW38288  11.021   1.746   4.925 -0.2502 -0.2593 -0.3589
11586SOL    HW138289  11.018   1.707   4.838 -0.8410 -0.4333 -0.2629
11586SOL    HW238290  11.052   1.676   4.982 -0.3257 -0.2861 -0.3509
11587SOL     OW38291   4.409   4.604   7.255  0.2616  0.3321  0.7520
11587SOL    HW138292   4.449   4.649   7.181  1.9045  1.4298  2.2132
11587SOL    HW238293   4.320   4.638   7.260 -0.3878 -0.8454 -1.5316
11588SOL     OW38294   9.599   8.848   9.067 -0.1110 -0.1847  0.1696
11588SOL    HW138295   9.537   8.776   9.057 -0.4361  0.1360 -0.1428
11588SOL    HW238296   9.631   8.865   8.979  1.0055 -0.8544  0.4285
11589SOL     OW38297  10.910   3.393   9.396  0.8308  0.6855  0.3917
11589SOL    HW138298  10.922   3.473   9.448  1.8229  0.1925  0.9418
11589SOL    HW238299  10.816   3.376   9.401  0.5662  1.9166  0.1129
11590SOL     OW38300   1.953   3.449   7.177 -0.7474  0.4285  0.0499
11590SOL    HW138301   1.881   3.503   7.144 -0.8605  1.0355  1.2309
11590SOL    HW238302   1.914   3.364   7.195 -1.1477  0.7316  0.6099
11591SOL     OW38303   6.527   7.586   7.545  0.3160  0.1459  0.1244
11591SOL    HW138304   6.580   7.591   7.465  1.2913 -2.2348  0.5486
11591SOL    HW238305   6.500   7.495   7.550 -1.1572  0.6312  1.6495
11592SOL     OW38306   4.481  10.908   1.911  0.5606  0.2035  0.6746
11592SOL    HW138307   4.510  10.821   1.941 -0.5715  0.0390  1.3673
11592SOL    HW238308   4.558  10.963   1.920  0.6065 -0.1231  2.8664
11593SOL     OW38309   2.940   8.467  10.639  0.0756 -0.6542 -0.4591
11593SOL    HW138310   2.894   8.510  10.567  0.7732 -0.7606 -0.9765
11593SOL    HW238311   2.967   8.539  10.696 -1.4664 -0.6437  0.3208
11594SOL     OW38312   7.925   8.796   9.403  0.0511  0.1208 -0.0891
11594SOL    HW138313   7.956   8.784   9.493  0.0591 -0.2902 -0.1452
11594SOL    HW238314   7.971   8.875   9.372 -0.4272  0.6323  0.4679
11595SOL     OW38315  10.475   2.451   0.843 -0.3681  0.3565 -0.0054
11595SOL    HW138316  10.481   2.520   0.908 -0.1860 -0.3190  0.7051
11595SOL    HW238317  10.500   2.371   0.889 -0.7391 -0.2191 -0.7628
11596SOL     OW38318   0.545   5.813   8.897  0.3339 -0.0388  0.2722
11596SOL    HW138319   0.509   5.842   8.814 -0.5586 -1.0179  0.2966
11596SOL    HW238320   0.603   5.884   8.924 -2.6288  2.3543  0.9239
11597SOL     OW38321   1.673   9.609   8.043 -0.8180 -0.2108 -0.1880
11597SOL    HW138322   1.687   9.687   8.096 -3.1612  0.0386  0.1369
11597SOL    HW238323   1.665   9.538   8.106  0.0149 -0.5403 -0.4306
11598SOL     OW38324  10.346   3.112   7.538 -0.4511 -0.0363  0.6064
11598SOL    HW138325  10.296   3.144   7.613 -2.8440  1.7625 -1.5871
11598SOL    HW238326  10.397   3.187   7.509  2.4261 -1.3867  1.7714
11599SOL     OW38327   4.312   3.169   1.386  0.0554  0.1477 -0.1602
11599SOL    HW138328   4.378   3.207   1.443 -1.3498  1.2432  0.7970
11599SOL    HW238329   4.325   3.074   1.393  0.6876  0.3064  1.0276
11600SOL     OW38330   7.128   6.096   2.354  0.0055 -0.9466  0.2723
11600SOL    HW138331   7.147   6.034   2.284  2.4522 -0.8621  0.7714
11600SOL    HW238332   7.176   6.062   2.430  0.1128  0.6796  0.9903
11601SOL     OW38333  10.498   5.618   8.315 -0.3036 -0.0360  0.2501
11601SOL    HW138334  10.430   5.610   8.381 -0.8994 -0.9174 -0.4462
11601SOL    HW238335  10.471   5.558   8.246  1.7706 -1.3191  0.4692
11602SOL     OW38336   9.583   1.800   8.633 -0.4861  0.3789  0.0881
11602SOL    HW138337   9.530   1.774   8.558 -1.6002 -1.3100  1.3755
11602SOL    HW238338   9.520   1.839   8.694 -0.0037 -0.1829  0.9717
11603SOL     OW38339   6.067   4.935   9.200 -0.6747 -0.0636 -0.3530
11603SOL    HW138340   6.087   4.984   9.121 -1.3292  0.8064  0.0005
11603SOL    HW238341   6.135   4.960   9.262 -0.9647  0.3615 -0.1978
11604SOL     OW38342   1.447  10.751   6.701  0.0021  0.0385  0.3256
11604SOL    HW138343   1.365  10.744   6.652 -0.6841  1.6026  1.1866
11604SOL    HW238344   1.434  10.698   6.779 -0.7807  1.4150  1.1716
11605SOL     OW38345   0.861   8.923   3.546 -0.8585 -0.4333 -0.2849
11605SOL    HW138346   0.903   9.005   3.522 -0.4515 -0.1693  1.2318
11605SOL    HW238347   0.767   8.940   3.533 -0.8786  0.6762  1.0903
11606SOL     OW38348   3.829   1.417   0.962 -0.0011  0.1900  0.5053
11606SOL    HW138349   3.870   1.346   1.011  0.5990  3.0433  4.6211
11606SOL    HW238350   3.897   1.483   0.953 -1.3893  1.6058 -0.2278
11607SOL     OW38351   1.467   9.863   0.645 -0.0592 -0.4824 -0.0049
11607SOL    HW138352   1.384   9.820   0.667  0.2979 -1.8933 -1.2233
11607SOL    HW238353   1.447   9.917   0.569  0.4628 -2.3659 -1.5930
11608SOL     OW38354   8.583   0.732   6.823 -0.2477 -0.3187 -0.3619
11608SOL    HW138355   8.645   0.719   6.895 -2.9646 -0.9680  2.0648
11608SOL    HW238356   8.553   0.822   6.834 -0.7245 -0.4444 -0.6386
11609SOL     OW38357   9.455   8.255  10.941 -0.0691 -0.4946 -0.1735
11609SOL    HW138358   9.450   8.350  10.934 -0.6429 -0.6373 -2.1965
11609SOL    HW238359   9.368   8.224  10.917  0.5192 -1.5817 -1.0059
11610SOL     OW38360   7.443  10.559   8.064  0.9854  0.2376 -0.5381
11610SOL    HW138361   7.400  10.591   7.985  0.6369  0.2704 -0.3376
11610SOL    HW238362   7.485  10.637   8.101 -0.7501  0.7358  0.5235
11611SOL     OW38363   2.748   4.171   7.200  0.0195  0.1358  0.5819
11611SOL    HW138364   2.725   4.209   7.284 -0.8801  0.2135  0.3118
11611SOL    HW238365   2.753   4.077   7.217  1.1004  0.2550  0.9920
11612SOL     OW38366  10.298   2.440   9.141  0.3195  0.1667  0.0210
11612SOL    HW138367  10.269   2.435   9.233 -0.4798  0.0262 -0.2336
11612SOL    HW238368  10.269   2.358   9.102 -0.4958  0.7744 -0.6831
11613SOL     OW38369  10.391  10.955   1.332 -0.1536  0.7931  0.4265
11613SOL    HW138370  10.395  10.861   1.316  2.3842  1.1870 -2.0089
11613SOL    HW238371  10.412  10.964   1.425 -0.7980 -1.0183  0.7905
11614SOL     OW38372   0.873   8.591   6.933 -0.2503 -0.0468 -0.3610
11614SOL    HW138373   0.898   8.609   6.843  0.0275 -0.8034 -0.4446
11614SOL    HW238374   0.813   8.517   6.927 -0.2296 -0.1010  0.0736
11615SOL     OW38375   1.325   4.389   6.280  0.1993  0.4637  0.4642
11615SOL    HW138376   1.361   4.438   6.353  0.8859  2.3463 -1.0307
11615SOL    HW238377   1.250   4.342   6.316  0.3788  1.5076  2.3023
11616SOL     OW38378   0.780   1.627   7.204 -0.1705  0.3437 -0.4545
11616SOL    HW138379   0.746   1.633   7.293  0.5441  1.6067 -0.2505
11616SOL    HW238380   0.718   1.570   7.159 -0.8793  0.1851  0.6812
11617SOL     OW38381   8.942   2.491   7.908  0.3586  0.0256  0.7831
11617SOL    HW138382   9.001   2.555   7.949  0.7214 -0.8326  1.6608
11617SOL    HW238383   8.997   2.413   7.896 -0.4907 -0.6689  1.2757
11618SOL     OW38384   6.927   0.594  10.008 -0.5709  0.3278 -0.1207
11618SOL    HW138385   6.899   0.591  10.100 -0.0154  1.4643  0.1013
11618SOL    HW238386   6.985   0.519   9.999 -0.5043  0.2950  0.4980
11619SOL     OW38387   2.681   2.982   5.916 -0.6577 -0.6471 -0.2498
11619SOL    HW138388   2.625   3.054   5.945 -0.3874 -0.6226  0.2187
11619SOL    HW238389   2.665   2.912   5.980  1.4557  0.1048  1.2184
11620SOL     OW38390   6.950   4.983   7.511  0.2743  0.3227 -0.5220
11620SOL    HW138391   6.996   4.919   7.565  1.0824  0.1727 -1.3573
11620SOL    HW238392   6.858   4.961   7.521  0.3074  0.9173  1.5612
11621SOL     OW38393   7.583   3.151   9.678 -0.0426  0.0865  0.2607
11621SOL    HW138394   7.546   3.224   9.628 -2.3236 -1.2222 -0.1062
11621SOL    HW238395   7.567   3.175   9.770 -0.7447  0.0844  0.1438
11622SOL     OW38396   0.710   1.524   0.675 -0.3280  0.3306 -0.4058
11622SOL    HW138397   0.754   1.604   0.646 -1.4626  0.5205 -1.6896
11622SOL    HW238398   0.663   1.549   0.755 -1.3980  1.2025 -1.2854
11623SOL     OW38399   9.840   3.200  11.040  0.0418  0.0936  0.1511
11623SOL    HW138400   9.877   3.219  10.954 -0.1138 -0.7511 -0.1148
11623SOL    HW238401   9.915   3.173  11.093 -0.0194 -0.5246 -0.0652
11624SOL     OW38402   1.428   8.377   3.083 -0.5563  0.3096 -0.0808
11624SOL    HW138403   1.490   8.338   3.144 -2.2869  0.6758  2.0526
11624SOL    HW238404   1.359   8.413   3.139 -0.9742  3.0149 -2.1440
11625SOL     OW38405   1.519   6.061   6.915  0.2787 -0.6448  0.0718
11625SOL    HW138406   1.553   6.128   6.856 -1.3389  0.6145  0.4946
11625SOL    HW238407   1.527   5.979   6.866 -0.2890  0.2556 -1.5941
11626SOL     OW38408   8.924   0.741   8.072 -0.3653 -0.6409 -0.2467
11626SOL    HW138409   9.000   0.748   8.014 -1.3404 -1.5326 -1.6938
11626SOL    HW238410   8.942   0.804   8.143  0.1818  1.6783 -2.3015
11627SOL     OW38411   8.971   0.032   6.455  0.1285  0.2452  0.4240
11627SOL    HW138412   9.025  -0.035   6.496  2.9289  2.9104  1.5526
11627SOL    HW238413   8.973   0.105   6.517  0.0682  2.5648 -2.1045
11628SOL     OW38414   5.661   9.137   1.118  0.5223 -0.5963 -0.3090
11628SOL    HW138415   5.635   9.058   1.166 -1.0626  1.3332  2.2622
11628SOL    HW238416   5.587   9.156   1.061 -0.1443  0.2292  0.7818
11629SOL     OW38417   6.485   7.353   6.677  0.5433  0.2016 -0.2940
11629SOL    HW138418   6.550   7.335   6.610  1.2461  2.2467 -0.2402
11629SOL    HW238419   6.482   7.449   6.682 -1.8559  0.1606  0.3143
11630SOL     OW38420   4.029   8.118   6.333  0.0708 -0.1494 -0.3636
11630SOL    HW138421   3.972   8.121   6.410  1.6955  0.8690  0.8782
11630SOL    HW238422   3.999   8.191   6.279 -1.3313 -1.1059 -0.9251
11631SOL     OW38423   2.978   8.111   2.038  0.3584 -0.5388  0.0688
11631SOL    HW138424   2.905   8.085   1.982 -0.1421  0.8879  0.0153
11631SOL    HW238425   3.033   8.165   1.981  0.6433 -0.3323  0.5389
11632SOL     OW38426   1.501   8.541   5.150 -0.1527  0.1055 -0.2446
11632SOL    HW138427   1.414   8.523   5.187  0.9564  0.1258  2.6254
11632SOL    HW238428   1.538   8.607   5.208  2.7317 -1.7220  0.1721
11633SOL     OW38429   3.034   8.580   3.428 -0.3941  0.0582  0.6440
11633SOL    HW138430   3.043   8.658   3.483  0.0353  1.0250 -0.7536
11633SOL    HW238431   3.106   8.523   3.456  1.4739  1.6638 -0.6712
11634SOL     OW38432   8.088   5.279   5.664 -0.0527 -0.1617 -0.0795
11634SOL    HW138433   8.010   5.234   5.697  0.3419 -0.5514  0.3593
11634SOL    HW238434   8.060   5.322   5.584 -0.5156 -0.9784 -0.3664
11635SOL     OW38435   4.367   4.487   0.160  0.0696  0.1313 -0.7812
11635SOL    HW138436   4.291   4.458   0.109  0.6934 -2.1378 -0.5478
11635SOL    HW238437   4.437   4.427   0.134  0.8901  0.0634  1.4030
11636SOL     OW38438   5.210   6.286   8.871 -0.0661 -0.0644  0.2994
11636SOL    HW138439   5.288   6.262   8.821 -0.4765 -0.0895 -0.3441
11636SOL    HW238440   5.236   6.277   8.962 -0.0730 -2.6514  0.1158
11637SOL     OW38441   0.152   6.060   3.309  0.8466 -0.2065 -0.7918
11637SOL    HW138442   0.235   6.021   3.283 -0.2095 -0.7792 -3.6419
11637SOL    HW238443   0.132   6.123   3.240 -0.1632  1.3840  0.8665
11638SOL     OW38444   9.591   0.237   0.884 -0.5476  0.0270 -0.2051
11638SOL    HW138445   9.670   0.262   0.932  0.8726 -0.4288 -2.1741
11638SOL    HW238446   9.609   0.264   0.794 -0.3599 -4.6864 -1.8421
11639SOL     OW38447   4.010   7.247   7.365  0.3547  0.5301 -0.4461
11639SOL    HW138448   3.967   7.319   7.411 -1.0910  0.5974 -1.8421
11639SOL    HW238449   4.005   7.174   7.427 -0.5085  0.9250 -0.0269
11640SOL     OW38450   2.015   9.576   1.134  0.4951 -0.2956  0.2184
11640SOL    HW138451   2.016   9.514   1.062  0.7817 -0.9106  0.7399
11640SOL    HW238452   2.003   9.521   1.212  0.7609  0.3078  0.6857
11641SOL     OW38453   6.743   7.570   8.542 -0.1945  0.6977  0.3614
11641SOL    HW138454   6.791   7.514   8.480  1.1666  0.9186  1.1801
11641SOL    HW238455   6.658   7.583   8.500  0.1418 -0.3974 -0.7517
11642SOL     OW38456   1.098   6.637   6.768  0.0088 -0.6117 -0.1518
11642SOL    HW138457   1.056   6.659   6.685  0.9401 -0.8892 -0.7159
11642SOL    HW238458   1.190   6.659   6.754 -0.2410  2.1379  1.8053
11643SOL     OW38459   9.548   8.950   2.859 -0.2154  0.0142  0.1245
11643SOL    HW138460   9.595   8.978   2.938 -1.2285 -1.0429  1.1559
11643SOL    HW238461   9.461   8.927   2.891 -0.7902 -0.0130 -1.4051
11644SOL     OW38462  10.819   3.560  10.248 -0.2498  0.0282  0.0277
11644SOL    HW138463  10.891   3.591  10.193 -0.3899  1.0147  0.3666
11644SOL    HW238464  10.753   3.529  10.186  0.5842 -1.1782 -0.2713
11645SOL     OW38465   3.678   8.606   2.199  0.0886 -0.6978  0.1443
11645SOL    HW138466   3.749   8.663   2.229  0.3243 -0.6394 -0.5038
11645SOL    HW238467   3.673   8.622   2.105 -0.1127 -1.4480  0.0224
11646SOL     OW38468   2.457   8.151   9.828  0.4885  0.0800 -0.0071
11646SOL    HW138469   2.456   8.058   9.803 -1.5634  0.3792 -1.2425
11646SOL    HW238470   2.382   8.189   9.782  1.8000  2.5645 -0.2579
11647SOL     OW38471   7.207   9.251   7.362 -0.0977 -0.2173 -0.0743
11647SOL    HW138472   7.134   9.287   7.312 -0.7799  0.3684  1.2737
11647SOL    HW238473   7.203   9.297   7.446  0.4589 -1.7734  0.8454
11648SOL     OW38474   5.423   5.237   0.431  0.2479  0.2508 -0.5887
11648SOL    HW138475   5.441   5.185   0.352  0.8823  0.2519 -0.4483
11648SOL    HW238476   5.505   5.235   0.480 -0.1450  0.2531  0.0741
11649SOL     OW38477   8.210   5.675   7.862 -0.0746  0.0940 -0.4701
11649SOL    HW138478   8.305   5.679   7.858 -0.0482  1.4577  0.7419
11649SOL    HW238479   8.183   5.645   7.774  1.4095  0.5977 -1.1187
11650SOL     OW38480   1.336   0.241   6.527 -0.3828 -0.0719  1.1483
11650SOL    HW138481   1.243   0.223   6.511 -0.7117  0.3444  2.4179
11650SOL    HW238482   1.340   0.336   6.538  0.2899 -0.0312  0.5835
11651SOL     OW38483   0.697   5.652  10.254  0.6019 -0.1549 -0.4613
11651SOL    HW138484   0.676   5.563  10.226 -0.5223 -0.3176  0.8318
11651SOL    HW238485   0.619   5.703  10.235  0.7191  0.2497  0.1122
11652SOL     OW38486  11.060   6.494   3.413 -0.7439  0.0894 -0.3291
11652SOL    HW138487  11.063   6.434   3.339  1.2060 -0.4139  0.0744
11652SOL    HW238488  11.089   6.578   3.378 -0.5870  0.0428 -0.3149
11653SOL     OW38489   2.268   8.919   2.505  0.0292 -0.2955  0.2711
11653SOL    HW138490   2.345   8.957   2.549  0.7179 -0.5845 -0.6447
11653SOL    HW238491   2.195   8.941   2.562  1.0754 -2.0391  2.4228
11654SOL     OW38492   5.573   8.436   0.100 -0.4562  0.2409 -0.1708
11654SOL    HW138493   5.609   8.512   0.055  0.3673  0.1103  0.2656
11654SOL    HW238494   5.559   8.465   0.190 -0.1335 -0.1213 -0.0002
11655SOL     OW38495  10.824   3.002   3.126  0.0205 -0.0237 -0.5814
11655SOL    HW138496  10.780   2.924   3.159 -1.1672  0.8876  0.1068
11655SOL    HW238497  10.857   2.977   3.040  0.3955 -1.5167 -0.0270
11656SOL     OW38498  10.717   5.255   4.454 -0.1338 -0.8116  0.2243
11656SOL    HW138499  10.744   5.170   4.421  1.2780 -0.7366  1.1353
11656SOL    HW238500  10.743   5.256   4.546 -0.2225  0.5573  0.2670
11657SOL     OW38501  10.679   7.288   4.707  0.0652  0.5090 -0.7254
11657SOL    HW138502  10.768   7.322   4.709 -0.0905  0.8870 -0.0935
11657SOL    HW238503  10.647   7.312   4.620  0.1217  1.5893 -0.4722
11658SOL     OW38504   4.892   3.854  10.693 -0.2006  0.0329 -0.2379
11658SOL    HW138505   4.871   3.784  10.755 -0.9115 -1.1554 -1.7531
11658SOL    HW238506   4.978   3.886  10.720 -0.6520 -0.1569  1.5739
11659SOL     OW38507   7.719   6.772  10.718  0.2079  0.2105  0.0783
11659SOL    HW138508   7.660   6.843  10.743 -0.0259 -0.5225  1.7526
11659SOL    HW238509   7.776   6.760  10.794 -0.5691 -2.2172  0.3687
11660SOL     OW38510   3.474   0.864  10.756  0.6269  0.6625  0.2245
11660SOL    HW138511   3.386   0.826  10.765  0.8459  0.0932  0.0083
11660SOL    HW238512   3.461   0.939  10.698  0.3266  0.4092 -0.0424
11661SOL     OW38513   0.008   3.796   7.981 -0.2624  0.5437  0.1559
11661SOL    HW138514   0.074   3.859   8.008  0.8674 -0.7624  0.5354
11661SOL    HW238515   0.049   3.710   7.992 -1.9027 -0.3059  0.0896
11662SOL     OW38516   7.202   4.550  10.787 -0.5970 -0.4256  0.6357
11662SOL    HW138517   7.226   4.461  10.813  0.3468  0.0289  1.3816
11662SOL    HW238518   7.277   4.604  10.813 -1.1419  0.5875  0.1715
11663SOL     OW38519   6.344  10.901   5.727  0.3075  0.4608 -0.3559
11663SOL    HW138520   6.275  10.897   5.660 -1.4905  0.5142  1.3903
11663SOL    HW238521   6.415  10.950   5.686 -1.4815  2.1465 -1.5994
11664SOL     OW38522   1.997   1.079   0.911 -0.7248 -0.0139 -0.8990
11664SOL    HW138523   2.013   1.170   0.936  0.5410 -1.1875  3.4747
11664SOL    HW238524   2.039   1.070   0.825  3.6655  2.4411  0.6525
11665SOL     OW38525   9.405   0.085   8.350 -0.2554  0.7898 -0.0217
11665SOL    HW138526   9.491   0.101   8.389 -0.8794  0.5178  1.5417
11665SOL    HW238527   9.348   0.067   8.425 -1.4326 -0.1513 -1.1103
11666SOL     OW38528   7.504   2.720   0.964 -0.0498 -0.1240  0.4222
11666SOL    HW138529   7.479   2.744   1.053  0.1830  2.5726 -0.1617
11666SOL    HW238530   7.596   2.745   0.958  0.1352 -0.9313 -0.3976
11667SOL     OW38531   6.172   1.757   6.266 -0.0510  0.8230 -0.4507
11667SOL    HW138532   6.234   1.732   6.198  0.5950  1.5337 -0.1458
11667SOL    HW238533   6.115   1.822   6.224 -0.0796  0.7648 -0.5022
11668SOL     OW38534   0.751   3.601   5.463  0.3584 -0.5785 -0.0882
11668SOL    HW138535   0.664   3.562   5.474  0.3943 -1.6646 -2.8874
11668SOL    HW238536   0.782   3.616   5.553 -2.3279 -0.9617  0.9942
11669SOL     OW38537   4.559   3.998   5.197  0.7314 -0.2006 -0.1777
11669SOL    HW138538   4.587   3.969   5.284  0.5310  0.2512  0.0371
11669SOL    HW238539   4.601   4.083   5.185 -1.8475  1.3629  0.8836
11670SOL     OW38540   6.640   1.784   5.773  0.3910 -0.0831  0.4802
11670SOL    HW138541   6.564   1.728   5.756 -0.2650  1.4081 -2.0789
11670SOL    HW238542   6.610   1.848   5.836  0.3875 -1.0632  1.5084
11671SOL     OW38543   1.077   4.084   5.385  0.0508  0.1684 -0.2847
11671SOL    HW138544   1.115   4.160   5.429  1.3618 -0.5095 -0.1981
11671SOL    HW238545   1.057   4.115   5.297  0.4212  0.6614 -0.2020
11672SOL     OW38546   9.077   5.953   4.959  0.3928  0.2930  0.5123
11672SOL    HW138547   8.989   5.926   4.987 -0.4078  1.5175 -0.6737
11672SOL    HW238548   9.081   5.927   4.867  0.2427  2.5425 -0.1852
11673SOL     OW38549   4.860   8.511   4.155 -0.0852  0.0226 -0.3248
11673SOL    HW138550   4.765   8.502   4.164  0.0724 -1.3709  0.1663
11673SOL    HW238551   4.876   8.605   4.162 -1.4897  0.3441 -1.0872
11674SOL     OW38552   6.928  10.582   8.981 -0.1854 -0.1899 -0.3919
11674SOL    HW138553   6.889  10.522   8.917 -1.0663 -0.7344  0.6138
11674SOL    HW238554   7.020  10.588   8.956 -0.2118 -1.5014 -0.8726
11675SOL     OW38555  10.871   6.067   0.469  0.2888 -0.0698  0.1158
11675SOL    HW138556  10.884   6.160   0.487  0.0065 -0.4141  2.4758
11675SOL    HW238557  10.912   6.053   0.384  2.5822  1.7238  0.8149
11676SOL     OW38558   6.463   5.900   9.988 -0.1228 -0.3992 -0.1420
11676SOL    HW138559   6.513   5.840   9.932  0.3390 -0.9216  0.8135
11676SOL    HW238560   6.499   5.887  10.075  1.3614  2.6596 -0.1810
11677SOL     OW38561  10.916   3.514   1.011  0.3079  0.3285  0.0902
11677SOL    HW138562  10.992   3.484   0.963 -0.7223  0.6839 -1.8442
11677SOL    HW238563  10.923   3.609   1.012  0.7363  0.3052  1.4123
11678SOL     OW38564   3.640   0.812   5.248 -0.6781  0.1214  0.2430
11678SOL    HW138565   3.709   0.873   5.275  0.1613 -0.1414 -1.1991
11678SOL    HW238566   3.583   0.864   5.191  0.1878 -0.4386 -1.2083
11679SOL     OW38567   1.975   4.259  11.097  0.2103  0.2905  0.2574
11679SOL    HW138568   2.033   4.184  11.105  0.4640  0.3799 -0.6179
11679SOL    HW238569   1.969   4.275  11.002 -2.2160 -0.4840  0.2030
11680SOL     OW38570   5.795   7.451   9.323 -0.4946  0.4618  0.2352
11680SOL    HW138571   5.768   7.437   9.413 -0.3360  2.2902  0.6138
11680SOL    HW238572   5.728   7.408   9.270 -0.9898  0.0154  1.2105
11681SOL     OW38573   8.988   5.324   9.459 -0.5647 -0.1720 -0.2106
11681SOL    HW138574   9.062   5.269   9.437 -1.1488 -0.1481 -2.5470
11681SOL    HW238575   8.926   5.265   9.502 -0.6021 -1.0385 -1.4038
11682SOL     OW38576   2.320   1.258  10.403  0.1338  0.2026  0.3296
11682SOL    HW138577   2.257   1.316  10.444  0.7388  0.7215  0.5523
11682SOL    HW238578   2.268   1.188  10.365 -0.5088  0.2419  1.1268
11683SOL     OW38579   3.526   9.553   0.776  0.0327 -0.0125 -0.2696
11683SOL    HW138580   3.553   9.635   0.818  1.2142 -0.4973 -0.0392
11683SOL    HW238581   3.509   9.493   0.849  1.4110 -0.6468 -0.4290
11684SOL     OW38582   3.767   9.426   8.543 -0.0222  0.2762  0.3181
11684SOL    HW138583   3.768   9.330   8.549 -0.8633  0.3035  1.3431
11684SOL    HW238584   3.736   9.445   8.455 -1.6161 -0.4353  0.6847
11685SOL     OW38585   6.695   9.975   9.959  0.2847  0.4444 -0.3630
11685SOL    HW138586   6.612   9.973  10.008  1.4290 -1.8914  1.7338
11685SOL    HW238587   6.722  10.066   9.961 -0.9273  0.8231  1.3077
11686SOL     OW38588   7.931   1.570   0.282 -0.2355 -0.8663 -0.3257
11686SOL    HW138589   7.971   1.616   0.356  0.2338  1.7152 -2.0469
11686SOL    HW238590   7.971   1.483   0.283  0.7834 -0.4179  1.6227
11687SOL     OW38591   2.566   0.908  10.600  0.1188  0.3612 -0.0280
11687SOL    HW138592   2.516   0.904  10.518 -0.9301  0.0441  0.6008
11687SOL    HW238593   2.550   0.824  10.642 -1.3999  1.4019  1.6247
11688SOL     OW38594   0.776   0.748   8.173 -0.3347  0.3025  0.4050
11688SOL    HW138595   0.781   0.774   8.264  0.1669 -0.6346  0.6637
11688SOL    HW238596   0.724   0.816   8.130  0.0899  1.1518  1.2285
11689SOL     OW38597   6.024   7.220   3.096 -0.3625 -0.5224 -0.1854
11689SOL    HW138598   6.101   7.168   3.120  0.7260  1.7246  1.6250
11689SOL    HW238599   5.969   7.220   3.174  0.0722  1.6203  0.1845
11690SOL     OW38600   5.024   6.269   9.703  0.4107  0.4457 -0.3552
11690SOL    HW138601   5.001   6.262   9.610 -0.0615 -0.0984 -0.1987
11690SOL    HW238602   5.111   6.309   9.702  0.6434 -0.0451 -1.0569
11691SOL     OW38603   1.970   9.152   5.093  0.0624 -0.2635  0.7701
11691SOL    HW138604   1.915   9.208   5.038  2.2852 -0.8386 -2.2612
11691SOL    HW238605   2.016   9.212   5.150 -0.5854  0.5900  0.4207
11692SOL     OW38606   3.687   2.718   2.969  0.6485  0.4142 -0.4733
11692SOL    HW138607   3.647   2.732   3.055  0.0538  0.3836 -0.7418
11692SOL    HW238608   3.677   2.624   2.953  2.6750 -0.0014  0.3580
11693SOL     OW38609   2.983   9.934   2.756 -0.1257 -0.3649 -0.1426
11693SOL    HW138610   3.001   9.998   2.687  0.3113  0.8185  1.0442
11693SOL    HW238611   2.954   9.856   2.708  1.3308  0.0019 -1.7387
11694SOL     OW38612  10.027   1.862   8.763  0.3936 -0.1579 -0.4873
11694SOL    HW138613  10.064   1.912   8.835 -1.9584  0.5187  0.3329
11694SOL    HW238614   9.936   1.849   8.787 -0.5018  0.1177 -3.3266
11695SOL     OW38615   2.913  11.070   1.722 -0.1345  0.2509  0.1101
11695SOL    HW138616   2.903  11.096   1.630 -1.7754  0.7843  0.4055
11695SOL    HW238617   2.915  11.153   1.770 -1.8596 -0.0277  0.7502
11696SOL     OW38618   9.209   2.338  10.117 -0.2506 -0.1115 -0.0251
11696SOL    HW138619   9.260   2.308  10.042  0.3551 -1.6809  0.9571
11696SOL    HW238620   9.274   2.368  10.181 -0.7455  1.0216 -0.0217
11697SOL     OW38621   9.312  11.000  10.500  0.4494  0.0984  0.0837
11697SOL    HW138622   9.228  11.004  10.453  0.5812 -0.5846 -0.2160
11697SOL    HW238623   9.288  11.010  10.592 -0.1350 -1.6401  0.1482
11698SOL     OW38624   6.814   5.320   5.466 -0.5891  0.5742  0.2888
11698SOL    HW138625   6.758   5.258   5.419  0.9696  1.2897 -2.7927
11698SOL    HW238626   6.876   5.265   5.514 -0.1569 -0.3140 -1.2171
11699SOL     OW38627  10.093   2.134   2.690  0.1021  0.2572 -0.5519
11699SOL    HW138628  10.025   2.146   2.756  0.3365 -0.3628 -0.1978
11699SOL    HW238629  10.154   2.206   2.705  0.7489 -0.5170  0.6381
11700SOL     OW38630   7.756   8.351   6.461  0.7489  0.0988 -0.1169
11700SOL    HW138631   7.665   8.379   6.467  0.3192 -1.4275  1.3549
11700SOL    HW238632   7.780   8.366   6.370 -1.5371 -1.0252 -0.9988
11701SOL     OW38633   6.808   6.386   0.333  0.1149 -0.4492 -0.1234
11701SOL    HW138634   6.837   6.476   0.319  0.5050 -0.6932 -0.9039
11701SOL    HW238635   6.868   6.352   0.399 -0.9008  0.2837  1.2276
11702SOL     OW38636   9.251   1.956   1.929  0.0284 -0.6570 -0.3337
11702SOL    HW138637   9.277   2.038   1.972  0.6471  0.5986 -2.9087
11702SOL    HW238638   9.208   1.905   1.998  2.2166  0.5725  2.1039
11703SOL     OW38639   7.831   6.702   5.280  0.7819 -0.2691 -0.8033
11703SOL    HW138640   7.922   6.733   5.280  0.4302  0.8179  0.1448
11703SOL    HW238641   7.838   6.609   5.302  1.6059  0.0771  0.5142
11704SOL     OW38642   9.117  10.636   9.119 -0.1682  0.1370 -0.0003
11704SOL    HW138643   9.179  10.637   9.046 -0.0107 -1.0135  0.0985
11704SOL    HW238644   9.060  10.561   9.100 -1.1929  0.8428  0.1931
11705SOL     OW38645   6.714   4.063   5.076 -0.1144  0.1190 -0.1128
11705SOL    HW138646   6.719   3.981   5.125 -0.9568  0.0401 -0.1440
11705SOL    HW238647   6.771   4.050   5.000  0.3388 -0.1594  0.2719
11706SOL     OW38648   6.595   5.089   9.267  0.1596  0.4684  0.1817
11706SOL    HW138649   6.606   5.025   9.197 -0.0027  1.0506 -0.3879
11706SOL    HW238650   6.664   5.154   9.251 -0.0969  0.7890  0.3604
11707SOL     OW38651   0.648   2.936   6.024 -0.7807  0.0227  0.6544
11707SOL    HW138652   0.639   2.846   5.993  1.5651 -0.3656  0.9130
11707SOL    HW238653   0.654   2.929   6.119  0.3361  0.3414  0.6178
11708SOL     OW38654   0.635   9.810   9.173  0.1451 -0.1977  0.3002
11708SOL    HW138655   0.713   9.825   9.227  0.4101  0.9890 -0.3827
11708SOL    HW238656   0.659   9.738   9.116 -0.5255 -2.2593  2.4684
11709SOL     OW38657   5.030   9.335   8.252  0.5842  0.1407  0.1819
11709SOL    HW138658   4.943   9.300   8.272 -0.2080  0.0767 -2.8844
11709SOL    HW238659   5.029   9.424   8.288 -0.1973 -0.3488  1.4223
11710SOL     OW38660  10.688   1.431   2.276  0.6217 -0.6696  0.0410
11710SOL    HW138661  10.602   1.393   2.294 -0.1258  0.6492 -0.6110
11710SOL    HW238662  10.736   1.420   2.358  0.3739 -2.7330 -0.0351
11711SOL     OW38663   3.143   7.939  10.967  0.2897  0.0172 -0.1317
11711SOL    HW138664   3.136   7.952  10.872 -2.4177  1.4082  0.1683
11711SOL    HW238665   3.100   7.855  10.983  1.2178 -0.4733 -0.1688
11712SOL     OW38666   4.507   5.343   7.270 -1.0329 -0.2874  0.0122
11712SOL    HW138667   4.479   5.309   7.185 -0.4570 -0.3231 -0.1719
11712SOL    HW238668   4.482   5.435   7.269 -1.0473 -0.2936 -0.1905
11713SOL     OW38669   8.436   9.079   5.836  0.4514  0.2534 -0.2386
11713SOL    HW138670   8.369   9.140   5.866  0.5253  0.8311 -1.2234
11713SOL    HW238671   8.402   9.043   5.755  1.1178  0.1968 -0.5004
11714SOL     OW38672   6.459   4.769   9.264  0.3527  0.4029 -0.4231
11714SOL    HW138673   6.373   4.740   9.233  0.8196  0.6896 -2.1107
11714SOL    HW238674   6.440   4.836   9.329 -0.7125 -1.7806  1.6657
11715SOL     OW38675   6.777   9.206   1.114  0.5678  0.0154  0.4402
11715SOL    HW138676   6.848   9.146   1.092  0.7632  0.4540 -0.1794
11715SOL    HW238677   6.785   9.276   1.049 -0.5520 -0.0250  0.2340
11716SOL     OW38678   1.784   9.886   3.136 -0.4706 -0.0499 -0.1873
11716SOL    HW138679   1.730   9.844   3.203 -0.7737  1.0858  0.3114
11716SOL    HW238680   1.874   9.868   3.163 -0.5885 -0.8227 -0.2833
11717SOL     OW38681   9.962   5.823   9.315 -0.9836  0.1266 -0.6784
11717SOL    HW138682   9.917   5.808   9.232 -2.2938 -0.2217  0.0684
11717SOL    HW238683   9.925   5.905   9.348  0.1517  0.7212 -0.8209
11718SOL     OW38684   1.982   1.610  11.050  0.5351 -0.1611  0.2913
11718SOL    HW138685   1.951   1.553  11.121 -0.3933 -1.4579 -1.0902
11718SOL    HW238686   1.905   1.662  11.026 -0.1963 -2.1083 -1.9391
11719SOL     OW38687   0.779   7.405   9.808 -0.2109 -0.1732  0.4559
11719SOL    HW138688   0.742   7.328   9.853 -0.6790  0.2672  0.8415
11719SOL    HW238689   0.819   7.369   9.729 -1.2675 -0.7153  0.1356
11720SOL     OW38690   8.671   3.559   7.597 -0.2001 -0.4677 -0.3392
11720SOL    HW138691   8.756   3.518   7.586 -0.5704 -1.7191  1.1076
11720SOL    HW238692   8.608   3.497   7.561 -0.5735  0.1533 -0.7974
11721SOL     OW38693   8.227   4.915   9.128 -0.7197  0.1607 -0.2858
11721SOL    HW138694   8.156   4.850   9.120 -0.0516 -0.8937  1.5965
11721SOL    HW238695   8.267   4.917   9.042 -0.6440 -2.1453 -0.3869
11722SOL     OW38696   7.948   2.526   7.914 -0.3288  0.3475  0.2660
11722SOL    HW138697   7.986   2.450   7.871  1.8955  0.8875  1.1117
11722SOL    HW238698   7.915   2.493   7.997 -0.4964  0.1103  0.1072
11723SOL     OW38699   7.291  10.541   0.326  0.1527 -0.5091  0.3500
11723SOL    HW138700   7.264  10.451   0.343  0.7699 -1.1111 -1.6084
11723SOL    HW238701   7.365  10.533   0.266 -0.8557  1.3274 -1.2631
11724SOL     OW38702   9.351   2.854  11.124 -0.4259  0.5374 -0.3197
11724SOL    HW138703   9.400   2.892  11.197 -0.2974 -1.3819  0.6494
11724SOL    HW238704   9.414   2.796  11.080 -1.5893 -1.5905  0.6430
11725SOL     OW38705   3.703   6.810   4.865 -0.1975 -0.0967  0.1114
11725SOL    HW138706   3.706   6.719   4.834  0.1805 -0.6257  1.5788
11725SOL    HW238707   3.782   6.850   4.829 -0.1067 -0.4948 -0.1430
11726SOL     OW38708   2.937   9.414   4.676  0.3977 -0.4217 -0.0331
11726SOL    HW138709   2.993   9.394   4.601  3.2441  1.7717  1.2978
11726SOL    HW238710   2.961   9.504   4.700 -3.3868  0.4522  1.0608
11727SOL     OW38711   0.467   1.200  10.957 -0.1432 -0.2215 -0.6082
11727SOL    HW138712   0.501   1.142  10.890  0.5119 -0.6804  0.1017
11727SOL    HW238713   0.509   1.171  11.038 -0.7568  0.4434 -0.0295
11728SOL     OW38714   3.019   7.661   4.947 -0.0275 -0.0466  0.2636
11728SOL    HW138715   3.051   7.666   5.037 -0.3189  0.8709  0.3251
11728SOL    HW238716   3.074   7.594   4.906  2.1134  1.5959  0.2907
11729SOL     OW38717   3.675   6.053   7.348  0.7112 -0.3562  0.1859
11729SOL    HW138718   3.656   6.072   7.440  1.4075  1.7282 -0.0509
11729SOL    HW238719   3.677   6.139   7.305  0.9576 -1.2384 -1.6752
11730SOL     OW38720   5.483   2.161   4.539 -0.0015 -0.0954 -0.3209
11730SOL    HW138721   5.441   2.139   4.622  0.4180 -0.7986 -0.2920
11730SOL    HW238722   5.463   2.088   4.481  0.1135  0.1639 -0.6952
11731SOL     OW38723   4.787   3.368   3.391  0.6671  0.1229 -0.3138
11731SOL    HW138724   4.880   3.353   3.373  0.7905  0.8789 -0.3202
11731SOL    HW238725   4.769   3.456   3.357 -0.0672 -0.0370 -0.3675
11732SOL     OW38726   7.893   2.418   5.192  0.1346  0.1954 -0.4563
11732SOL    HW138727   7.962   2.448   5.250  0.4549 -0.0342 -0.7191
11732SOL    HW238728   7.878   2.327   5.217 -0.8329  0.5476  0.3372
11733SOL     OW38729   0.124   0.727   4.745  0.3763  0.2710 -0.1071
11733SOL    HW138730   0.060   0.709   4.676  0.9949  1.5208 -1.0501
11733SOL    HW238731   0.153   0.640   4.773 -0.6492 -0.2868 -0.6778
11734SOL     OW38732   1.844   6.797   2.995  0.3472  0.0887  0.2263
11734SOL    HW138733   1.824   6.854   2.921 -3.3379 -0.2482  0.7679
11734SOL    HW238734   1.857   6.856   3.069  3.0520  0.3716 -0.3537
11735SOL     OW38735   6.099   6.044  10.740  0.2698  0.1137 -0.0092
11735SOL    HW138736   6.180   6.091  10.721  0.1942  0.0579 -0.4726
11735SOL    HW238737   6.068   6.013  10.655 -0.9939  1.3804 -0.0512
11736SOL     OW38738   5.547   1.132   2.552 -0.1712  0.1606 -0.3062
11736SOL    HW138739   5.536   1.134   2.647  0.2966 -2.1315 -0.1640
11736SOL    HW238740   5.639   1.109   2.540 -0.4101 -0.2871 -1.3026
11737SOL     OW38741   5.665   3.711   7.086 -0.3025  0.0335  0.5440
11737SOL    HW138742   5.722   3.717   7.010 -0.8802 -1.2376 -0.0226
11737SOL    HW238743   5.721   3.733   7.160  0.0696  2.0841 -0.2933
11738SOL     OW38744   5.329   8.264   3.040 -0.7022 -0.2715 -0.3614
11738SOL    HW138745   5.404   8.305   2.996 -1.5534 -0.0199 -1.6302
11738SOL    HW238746   5.299   8.330   3.103  2.2825 -1.6621  2.8994
11739SOL     OW38747  10.437   2.833   0.284  0.3526 -0.3303 -0.5246
11739SOL    HW138748  10.467   2.865   0.200  0.3854  2.0259  0.3268
11739SOL    HW238749  10.389   2.906   0.323  1.9308 -0.6615  2.2954
11740SOL     OW38750   1.969   3.388   3.760 -0.2976 -1.1309 -0.1377
11740SOL    HW138751   2.063   3.389   3.777  0.0512 -1.7663 -1.8677
11740SOL    HW238752   1.954   3.462   3.703 -1.7103  1.9161  3.7264
11741SOL     OW38753   9.211   6.182   2.666 -0.3495 -0.3066 -0.1508
11741SOL    HW138754   9.150   6.256   2.674  0.0610  0.1377 -0.9810
11741SOL    HW238755   9.243   6.168   2.755 -0.9537  0.0645  0.1362
11742SOL     OW38756   4.165   3.395   5.857  0.1457  0.1695 -0.0593
11742SOL    HW138757   4.098   3.340   5.898 -0.4065 -0.4146 -1.6824
11742SOL    HW238758   4.248   3.353   5.881 -0.2066 -0.6063 -0.1655
11743SOL     OW38759   4.984  10.027   3.960 -0.1826 -0.1283  0.1270
11743SOL    HW138760   4.896  10.055   3.936 -1.5416 -0.4580  4.0582
11743SOL    HW238761   5.042  10.095   3.925 -2.2312  1.4791 -0.3198
11744SOL     OW38762   2.867   4.829   2.842 -0.0808  0.4389 -0.1638
11744SOL    HW138763   2.907   4.792   2.764 -0.2482 -0.0815 -0.0034
11744SOL    HW238764   2.783   4.864   2.812 -0.4437 -0.3553 -0.0923
11745SOL     OW38765   7.494   6.195   1.878  0.4881 -0.5713  0.2283
11745SOL    HW138766   7.528   6.154   1.957  1.3170 -0.3784 -0.0235
11745SOL    HW238767   7.569   6.240   1.839 -0.6889  2.5827  1.3185
11746SOL     OW38768   0.605   9.522   0.991  0.6254  0.0628 -0.1681
11746SOL    HW138769   0.695   9.526   1.024  0.8496 -0.8876 -0.6097
11746SOL    HW238770   0.614   9.537   0.896  0.0483  2.2811  0.0751
11747SOL     OW38771   3.952   8.184   4.235  0.0794 -0.6201 -0.2622
11747SOL    HW138772   3.887   8.200   4.303  0.5272  0.3171 -0.0279
11747SOL    HW238773   4.035   8.175   4.282  0.2678 -0.8180 -0.6238
11748SOL     OW38774   3.333   1.501   7.328 -0.2123 -0.3670  0.5663
11748SOL    HW138775   3.379   1.445   7.266 -0.1737 -0.8743  1.0398
11748SOL    HW238776   3.322   1.446   7.406  0.8022  0.6317  1.4446
11749SOL     OW38777   0.930   2.314   3.441 -0.4876 -0.0744  0.2358
11749SOL    HW138778   0.993   2.370   3.486 -0.8288 -0.6907  1.5165
11749SOL    HW238779   0.855   2.371   3.423  0.2082  0.5280 -0.8302
11750SOL     OW38780   7.473   4.984   3.046  0.3468  0.0217 -0.3530
11750SOL    HW138781   7.569   4.977   3.043  0.2507 -2.5568  0.4986
11750SOL    HW238782   7.442   4.916   2.987 -1.0121  1.0503 -0.8825
11751SOL     OW38783   6.523   0.927   0.877  0.3327 -0.4596 -0.4230
11751SOL    HW138784   6.528   0.833   0.860 -1.7575 -0.9603  1.2622
11751SOL    HW238785   6.544   0.936   0.970 -0.2866  0.6346 -0.3611
11752SOL     OW38786   0.759   5.646   4.558 -0.3173 -0.0788  0.6372
11752SOL    HW138787   0.829   5.685   4.506  0.2450 -0.4293  1.1194
11752SOL    HW238788   0.772   5.681   4.646  0.6666 -1.9066  1.2627
11753SOL     OW38789   4.089   5.830   3.424  0.3338  0.1461 -0.0740
11753SOL    HW138790   4.031   5.768   3.468 -1.1819  1.7363  0.2828
11753SOL    HW238791   4.129   5.780   3.353 -0.2851 -1.3994  0.6153
11754SOL     OW38792   6.988   8.417  10.185  0.2299  0.3943  0.3493
11754SOL    HW138793   7.026   8.445  10.268  2.0976 -1.2739  0.1123
11754SOL    HW238794   7.013   8.485  10.123 -1.5749  1.8994  1.1559
11755SOL     OW38795   7.503   2.613   4.100  0.4743 -0.1002  0.0902
11755SOL    HW138796   7.548   2.610   4.015  0.8172  0.5514  0.2357
11755SOL    HW238797   7.484   2.706   4.113  0.3613 -0.2046  0.6978
11756SOL     OW38798   7.766   0.820  10.433 -0.4417 -0.0764  0.8045
11756SOL    HW138799   7.677   0.821  10.468 -1.0506  1.3248 -0.6624
11756SOL    HW238800   7.819   0.863  10.499 -0.9974 -0.2071  1.3417
11757SOL     OW38801   2.305   7.784   3.934  0.0767  0.2627  0.7895
11757SOL    HW138802   2.257   7.701   3.944 -1.5312  0.9753 -0.6682
11757SOL    HW238803   2.324   7.811   4.024 -0.3943 -1.1078  1.3279
11758SOL     OW38804   1.058   5.697   6.694  0.1106 -0.0587  0.2529
11758SOL    HW138805   0.975   5.658   6.666 -0.6113  1.7818 -0.3400
11758SOL    HW238806   1.040   5.791   6.697  2.4657  0.5032 -0.9352
11759SOL     OW38807   6.239   5.960  10.955 -0.3787 -0.1795 -0.3532
11759SOL    HW138808   6.314   5.981  10.900 -0.1128  0.6974  0.3243
11759SOL    HW238809   6.163   5.969  10.898  0.1056 -3.4624 -1.7583
11760SOL     OW38810  10.753   2.401   7.268  0.0780  0.4948  0.3251
11760SOL    HW138811  10.803   2.322   7.291  2.2770  2.2679  1.9904
11760SOL    HW238812  10.683   2.405   7.333 -1.4562 -1.1955 -1.1131
11761SOL     OW38813   6.693   5.362   3.036 -0.4333  1.1950 -0.5945
11761SOL    HW138814   6.683   5.404   2.951  1.1633  0.3925 -1.2218
11761SOL    HW238815   6.784   5.381   3.062 -0.7040  0.9062  0.6462
11762SOL     OW38816   3.497   8.391   9.507 -0.1670 -0.1504  0.1659
11762SOL    HW138817   3.535   8.471   9.544 -0.3217  0.3544 -0.7562
11762SOL    HW238818   3.442   8.421   9.435  0.4521 -1.1508 -0.7551
11763SOL     OW38819   9.271   3.703  10.576 -0.6837 -0.5521  0.4113
11763SOL    HW138820   9.367   3.696  10.576 -0.7452 -1.4321  0.0861
11763SOL    HW238821   9.250   3.743  10.661 -0.0860 -1.1151  0.8305
11764SOL     OW38822   3.336   3.393   5.870  0.5943 -0.4630  0.4886
11764SOL    HW138823   3.304   3.380   5.780  0.8417 -2.1112  0.6142
11764SOL    HW238824   3.269   3.448   5.911  0.5652  0.4606 -0.7388
11765SOL     OW38825   0.265   1.875   8.407 -0.6054 -0.3227 -0.6554
11765SOL    HW138826   0.241   1.968   8.411 -0.4865 -0.1665 -2.6587
11765SOL    HW238827   0.189   1.833   8.368 -0.2175 -0.8983 -0.7999
11766SOL     OW38828   5.723   2.661   0.321  0.0634  0.3591  0.0238
11766SOL    HW138829   5.643   2.662   0.374  0.0166 -3.3167  0.2846
11766SOL    HW238830   5.793   2.644   0.384  0.4293 -0.8650 -0.6937
11767SOL     OW38831   8.246   0.951   0.337 -0.2893 -0.2381 -0.2051
11767SOL    HW138832   8.177   0.999   0.383 -0.3101 -0.2605 -0.2125
11767SOL    HW238833   8.229   0.859   0.358  0.4516 -0.1581  0.7575
11768SOL     OW38834   7.241   8.616   7.724 -0.2980  0.2981  0.7368
11768SOL    HW138835   7.202   8.655   7.802 -1.5179  0.7696 -0.0690
11768SOL    HW238836   7.207   8.526   7.723  0.6706 -0.0881  1.3660
11769SOL     OW38837   4.071   5.551   1.943  0.1198  0.0082 -0.4937
11769SOL    HW138838   4.119   5.580   1.866  1.2702 -2.8280 -0.9830
11769SOL    HW238839   4.139   5.528   2.007 -0.6982 -0.8107  0.1115
11770SOL     OW38840   9.086  10.243   0.906  0.6734  0.8164  0.2175
11770SOL    HW138841   9.156  10.277   0.961  1.2499  1.5196 -0.9200
11770SOL    HW238842   9.070  10.312   0.842 -0.0704  0.0731 -0.4207
11771SOL     OW38843  10.674  10.714   6.277  0.2346 -0.1582  0.2510
11771SOL    HW138844  10.674  10.618   6.267 -0.6679 -0.0912 -0.4804
11771SOL    HW238845  10.767  10.737   6.280  0.4773 -0.9748 -0.5081
11772SOL     OW38846   8.133  10.578   0.486 -0.0079 -0.0982  0.0526
11772SOL    HW138847   8.038  10.588   0.486 -0.1934 -1.5600 -0.3030
11772SOL    HW238848   8.161  10.616   0.569 -1.1477 -1.4015  1.0793
11773SOL     OW38849   3.226   3.300  10.533 -0.2228 -0.3073  0.0908
11773SOL    HW138850   3.136   3.268  10.530 -1.5332  2.8381  1.3863
11773SOL    HW238851   3.247   3.322  10.442 -1.1054 -0.2490 -0.1090
11774SOL     OW38852   7.829   9.226   8.999 -0.3738 -0.4035 -0.4362
11774SOL    HW138853   7.808   9.305   8.949 -4.2340 -0.8222  0.1879
11774SOL    HW238854   7.823   9.253   9.091  1.3348 -0.8164 -0.1668
11775SOL     OW38855   9.210   5.548   3.044 -0.1178 -0.0867 -0.2321
11775SOL    HW138856   9.196   5.569   2.951  1.1099  1.1030 -0.1853
11775SOL    HW238857   9.266   5.619   3.076  1.4165 -1.7037  0.8483
11776SOL     OW38858   3.856   5.067   7.785 -0.0860  0.0072  0.0470
11776SOL    HW138859   3.853   5.118   7.867 -0.8661 -0.6013  0.4100
11776SOL    HW238860   3.943   5.085   7.750  1.2801 -1.6305  2.2783
11777SOL     OW38861   6.534   6.622   0.387 -0.5862 -0.1793  0.0165
11777SOL    HW138862   6.550   6.716   0.402 -1.0856 -0.1572  0.4259
11777SOL    HW238863   6.596   6.599   0.318 -0.0481  0.3202  0.3142
11778SOL     OW38864   0.315   5.609   4.707 -0.3490 -0.4942 -0.0032
11778SOL    HW138865   0.252   5.554   4.753  0.3812 -2.2256 -0.9872
11778SOL    HW238866   0.397   5.561   4.712  0.4868  0.8326 -0.3558
11779SOL     OW38867   7.002   8.656   3.297  0.0629 -0.6946  0.2819
11779SOL    HW138868   7.011   8.609   3.380  0.7914  0.3702  0.8172
11779SOL    HW238869   6.918   8.700   3.303 -0.0054 -0.8300  0.3347
11780SOL     OW38870   4.404   8.675   9.894  0.2494  0.3658  0.4381
11780SOL    HW138871   4.355   8.749   9.931 -0.0639  0.4705 -0.1779
11780SOL    HW238872   4.357   8.654   9.813  1.1363  0.3652 -0.0841
11781SOL     OW38873   2.231   2.248   7.376  0.5193  0.0248  0.0158
11781SOL    HW138874   2.274   2.315   7.323 -1.0668  1.2629  0.2292
11781SOL    HW238875   2.301   2.186   7.397  1.3012 -0.3720 -3.2039
11782SOL     OW38876   6.460   8.117   7.213 -0.7602  0.0158  0.1926
11782SOL    HW138877   6.541   8.148   7.171 -1.0973 -0.4855 -0.8472
11782SOL    HW238878   6.428   8.194   7.260  0.2212  0.2709  0.4900
11783SOL     OW38879   7.889   0.951   2.490 -0.1980  0.4668  0.0018
11783SOL    HW138880   7.884   0.855   2.491 -0.9776  0.4984  0.2102
11783SOL    HW238881   7.970   0.971   2.443  0.0534 -0.2955  0.0971
11784SOL     OW38882   8.453   8.879   3.846  0.5596 -0.4849  0.0210
11784SOL    HW138883   8.396   8.877   3.923  2.2872 -1.4477  1.3245
11784SOL    HW238884   8.506   8.958   3.856  2.0081 -1.5136  0.7810
11785SOL     OW38885   5.513   0.556  10.106 -0.7425 -0.0505 -0.4921
11785SOL    HW138886   5.465   0.498  10.165 -0.5627  0.7100  0.4408
11785SOL    HW238887   5.466   0.551  10.023 -2.2388  0.3852  0.2860
11786SOL     OW38888   2.533   7.176   4.552  0.0798 -0.1719  0.7126
11786SOL    HW138889   2.542   7.258   4.504 -0.2332 -0.0521  0.8571
11786SOL    HW238890   2.489   7.200   4.634  3.1075  0.1098  2.3812
11787SOL     OW38891   2.493   7.555   7.416  0.2450 -0.4584  0.3133
11787SOL    HW138892   2.444   7.479   7.448  0.3204 -0.5539  0.2018
11787SOL    HW238893   2.428   7.610   7.374 -0.1927  0.5218  2.1563
11788SOL     OW38894  10.294   5.924   5.075 -0.3329 -0.5072  0.3193
11788SOL    HW138895  10.339   5.905   4.992 -0.3893 -0.1286  0.1960
11788SOL    HW238896  10.210   5.879   5.068 -0.2100 -0.7315  0.2994
11789SOL     OW38897   5.371  10.788   0.436 -0.4368 -0.2319 -0.0897
11789SOL    HW138898   5.289  10.739   0.431 -0.1613 -0.6139 -1.0828
11789SOL    HW238899   5.425  10.738   0.497 -1.7741  1.3421  2.6080
11790SOL     OW38900   4.042   7.300   3.035  0.2360  0.2008 -0.1181
11790SOL    HW138901   4.120   7.265   3.079  0.0687 -0.6661 -0.4833
11790SOL    HW238902   3.990   7.222   3.014 -0.7954  0.7785  0.2401
11791SOL     OW38903   8.166   6.160   9.910  0.5935  0.4559 -0.1890
11791SOL    HW138904   8.094   6.207   9.868 -0.3748  0.3174  1.2184
11791SOL    HW238905   8.158   6.070   9.878  0.2840  0.4982 -0.2369
11792SOL     OW38906  10.223   8.877   9.813 -0.1305  0.1905  0.2089
11792SOL    HW138907  10.310   8.918   9.822 -0.7383  1.5330  0.2505
11792SOL    HW238908  10.203   8.884   9.720 -0.4624  0.4787  0.2999
11793SOL     OW38909   0.298   7.013   2.471 -0.7136  0.5781  0.0455
11793SOL    HW138910   0.384   6.971   2.478 -1.4762 -1.4629 -1.5909
11793SOL    HW238911   0.266   7.016   2.561  0.7545  0.6991  0.5983
11794SOL     OW38912   0.798   1.639   3.779 -0.2186 -0.5358 -0.6776
11794SOL    HW138913   0.839   1.582   3.714  3.1706  0.7868  0.0500
11794SOL    HW238914   0.745   1.699   3.728 -0.0476 -1.3854 -1.9072
11795SOL     OW38915   2.070   5.586   3.062 -0.0987  0.1946 -0.2772
11795SOL    HW138916   2.041   5.523   3.128 -2.7117 -0.7649 -2.1031
11795SOL    HW238917   1.988   5.625   3.029  1.2833  2.7546 -0.9551
11796SOL     OW38918   6.067   4.039   2.665  0.1926  0.2109  0.0349
11796SOL    HW138919   6.099   3.960   2.709  1.3005  0.5677 -0.0960
11796SOL    HW238920   6.104   4.034   2.577 -0.5785  0.3747 -0.3034
11797SOL     OW38921   6.438   8.938   1.881 -0.3610 -0.2970  0.2469
11797SOL    HW138922   6.345   8.947   1.861 -0.9754  0.3854  2.8997
11797SOL    HW238923   6.443   8.860   1.937  0.6234 -0.1880  0.3269
11798SOL     OW38924   6.609   3.510   3.016  0.0732  0.2773 -0.6236
11798SOL    HW138925   6.677   3.556   2.968 -0.4020  0.1993 -1.3955
11798SOL    HW238926   6.538   3.574   3.025  0.5559  0.6326  0.9180
11799SOL     OW38927   3.759   8.139   4.664  0.2751  0.2819  0.3962
11799SOL    HW138928   3.794   8.173   4.746  1.4657 -0.0061  0.0260
11799SOL    HW238929   3.729   8.216   4.617 -1.5061  0.3604  1.5615
11800SOL     OW38930   0.196   3.342   6.352  0.4712 -0.3282 -0.3687
11800SOL    HW138931   0.190   3.250   6.379 -0.9618 -0.6137 -1.5152
11800SOL    HW238932   0.153   3.344   6.266  0.3051  1.4553 -0.2690
11801SOL     OW38933   6.064   5.838   0.283  0.4792  0.2742  0.2422
11801SOL    HW138934   6.148   5.808   0.249 -0.2491  0.5124 -1.9102
11801SOL    HW238935   6.004   5.765   0.267 -0.3751  1.2280 -1.1540
11802SOL     OW38936   3.459   5.152   1.319  0.1659 -0.6957 -0.7436
11802SOL    HW138937   3.413   5.114   1.393  1.3563 -0.8199 -0.0370
11802SOL    HW238938   3.435   5.244   1.320 -0.4650 -0.8570 -0.7073
11803SOL     OW38939   8.318   4.216   6.250 -0.0433  0.2222 -0.1177
11803SOL    HW138940   8.270   4.279   6.196  0.6961  1.6081  0.7628
11803SOL    HW238941   8.410   4.229   6.226  0.0745 -1.0181 -0.3946
11804SOL     OW38942  10.089   6.827   3.667  0.3961  0.2537 -0.4960
11804SOL    HW138943  10.092   6.796   3.576  1.8825 -0.5097 -0.2143
11804SOL    HW238944  10.180   6.823   3.697 -0.1469 -0.1102  1.2207
11805SOL     OW38945   2.971   6.545   9.635  0.4006  0.7270 -0.4922
11805SOL    HW138946   2.999   6.569   9.547  1.5566  1.6064  0.0927
11805SOL    HW238947   2.953   6.628   9.678 -0.6671  0.2827 -0.0370
11806SOL     OW38948   0.146   9.774   4.776  0.0582 -0.7739  0.4545
11806SOL    HW138949   0.057   9.791   4.747 -0.3588 -1.3338  1.3606
11806SOL    HW238950   0.201   9.814   4.708 -0.8461  1.6911  1.0656
11807SOL     OW38951   6.085   4.554   3.748 -0.0527  0.0386  0.2387
11807SOL    HW138952   6.133   4.473   3.762 -2.2128 -1.1324  1.4452
11807SOL    HW238953   6.146   4.610   3.700  1.5315 -2.2502 -0.6096
11808SOL     OW38954   8.222   0.385   6.539 -0.6144  0.0491 -0.0380
11808SOL    HW138955   8.213   0.475   6.570 -1.6859  0.2061 -0.7559
11808SOL    HW238956   8.193   0.387   6.448  1.2320 -0.6576 -0.6944
11809SOL     OW38957   2.701   9.461   9.694 -0.2249  0.4553 -0.2372
11809SOL    HW138958   2.619   9.454   9.644 -0.3553 -1.4056  0.1471
11809SOL    HW238959   2.718   9.372   9.724  1.1954  1.0739  0.9220
11810SOL     OW38960   6.039  10.251   6.038 -0.5378 -0.1514  0.0968
11810SOL    HW138961   5.968  10.300   5.997 -0.3161  0.8615  0.9062
11810SOL    HW238962   6.115  10.310   6.034  0.2416 -1.1611 -0.6366
11811SOL     OW38963   3.638   5.134   7.641 -0.3045 -0.5615 -0.1426
11811SOL    HW138964   3.704   5.115   7.709  0.2163 -1.6366 -0.9261
11811SOL    HW238965   3.576   5.062   7.648 -0.5065 -0.4182 -0.4972
11812SOL     OW38966   1.952   6.687   6.139 -0.3232  0.0132 -0.3048
11812SOL    HW138967   1.926   6.770   6.100 -0.6827  0.2373  0.3844
11812SOL    HW238968   1.957   6.626   6.066 -2.8861 -0.0750 -0.4943
11813SOL     OW38969   0.649   3.450   6.237 -0.5326  0.8505 -0.3858
11813SOL    HW138970   0.641   3.545   6.245  1.1541  0.9323  1.0271
11813SOL    HW238971   0.636   3.418   6.326  0.2775 -0.0987 -0.5943
11814SOL     OW38972   6.598   6.307   9.929 -0.0054  0.0175 -0.2848
11814SOL    HW138973   6.594   6.399   9.957 -0.4511 -0.1093  0.0683
11814SOL    HW238974   6.655   6.309   9.852 -0.2410  0.6339 -0.4541
11815SOL     OW38975   7.037   6.102   9.890  0.2126  0.1335 -0.0258
11815SOL    HW138976   7.064   6.034   9.828 -3.9575 -1.1514 -0.7105
11815SOL    HW238977   7.061   6.067   9.975  0.7328 -0.8331 -0.5522
11816SOL     OW38978   1.643   4.939   6.014 -0.0969 -0.0480 -0.1209
11816SOL    HW138979   1.592   4.994   5.955 -1.8683 -1.3701  0.0849
11816SOL    HW238980   1.604   4.953   6.101  1.0493  0.2162  0.3787
11817SOL     OW38981   1.244   8.597   8.566  0.0317  0.0354 -0.0530
11817SOL    HW138982   1.322   8.643   8.597 -0.5102  0.9602 -0.0209
11817SOL    HW238983   1.211   8.652   8.494 -0.2367 -0.6749 -0.4812
11818SOL     OW38984   6.119   7.844   1.875  0.1435 -0.6569  0.2097
11818SOL    HW138985   6.048   7.905   1.896  0.5334  0.1732 -0.7856
11818SOL    HW238986   6.187   7.899   1.836  0.2296 -1.8222 -1.3730
11819SOL     OW38987   1.805   4.167   6.086  0.0838  0.3997  0.2977
11819SOL    HW138988   1.717   4.167   6.049 -0.1582 -0.0414  0.8454
11819SOL    HW238989   1.804   4.236   6.152  0.4850  1.1231 -0.4432
11820SOL     OW38990   1.983   4.124   1.365  0.2292 -0.3642  0.1233
11820SOL    HW138991   2.059   4.182   1.365  0.3330 -0.4550 -1.6059
11820SOL    HW238992   2.007   4.053   1.306 -0.5063 -1.3682  1.0002
11821SOL     OW38993   9.312   1.120   3.253  0.2003 -0.3877 -0.1528
11821SOL    HW138994   9.316   1.152   3.344  0.6121 -0.3992 -0.1686
11821SOL    HW238995   9.386   1.161   3.209  0.0692 -0.4746 -0.4593
11822SOL     OW38996   2.996   4.793   4.551  0.7294  0.2139  0.1087
11822SOL    HW138997   2.906   4.803   4.581  0.6375  0.2505 -0.1747
11822SOL    HW238998   3.004   4.853   4.477 -0.4172 -3.0063 -2.8871
11823SOL     OW38999   3.050  10.342   3.903 -0.0557  0.9880 -0.2946
11823SOL    HW139000   3.090  10.427   3.890  0.2379  0.8705 -0.1617
11823SOL    HW239001   3.120  10.279   3.886 -0.3340  0.7664 -0.6361
11824SOL     OW39002   5.754   6.047   5.313  0.0981  0.4227 -0.1665
11824SOL    HW139003   5.701   6.089   5.380  0.4415 -1.2548  1.2503
11824SOL    HW239004   5.821   6.112   5.291  0.0771  0.9816  1.2697
11825SOL     OW39005   2.534   5.213   0.078 -0.2434 -0.7210 -0.0701
11825SOL    HW139006   2.487   5.284   0.033  0.6066 -0.4976 -0.6452
11825SOL    HW239007   2.555   5.249   0.164  2.9346  1.0310 -1.3853
11826SOL     OW39008   1.595   0.234   3.786 -0.3891  0.1650  0.5426
11826SOL    HW139009   1.536   0.304   3.758  0.1326  1.0426  1.5826
11826SOL    HW239010   1.594   0.171   3.714 -2.0242  0.5093  0.2239
11827SOL     OW39011   3.081   4.810   9.020  0.2805 -0.0721 -0.1244
11827SOL    HW139012   3.033   4.729   9.036  1.2025 -0.0349  3.4960
11827SOL    HW239013   3.013   4.873   8.997 -0.7902 -1.1718 -0.0678
11828SOL     OW39014   8.435   1.374   8.214  0.3703  0.6021  0.4728
11828SOL    HW139015   8.525   1.382   8.247 -0.3155  0.2646  2.5642
11828SOL    HW239016   8.427   1.282   8.189  0.8231  0.8041 -0.4512
11829SOL     OW39017   0.941   9.261   8.612  0.4258 -0.0792 -0.0536
11829SOL    HW139018   0.851   9.270   8.642  0.4165  0.4057 -0.2126
11829SOL    HW239019   0.951   9.168   8.593  0.0532 -0.1862  0.2557
11830SOL     OW39020   8.371   1.880   4.764 -0.3543  0.2893  0.4957
11830SOL    HW139021   8.424   1.948   4.722 -1.9035 -0.6078 -3.2684
11830SOL    HW239022   8.313   1.929   4.823  0.4994  1.8895  0.0647
11831SOL     OW39023   6.908   2.516   0.735  0.2393 -0.0673  0.5205
11831SOL    HW139024   6.982   2.576   0.740 -0.1045  0.3997  0.1480
11831SOL    HW239025   6.942   2.440   0.688  0.7301 -0.2618  1.1589
11832SOL     OW39026   8.907   2.384   5.879 -0.6108  0.0406 -0.5169
11832SOL    HW139027   8.950   2.455   5.927  2.2200 -1.2201 -0.9583
11832SOL    HW239028   8.936   2.394   5.789 -0.9918 -1.0505 -0.7823
11833SOL     OW39029   6.806   7.853   9.751 -0.2276  0.2111  0.3201
11833SOL    HW139030   6.851   7.794   9.691  0.7542 -0.5466  1.7525
11833SOL    HW239031   6.714   7.824   9.749 -0.6424  1.4347 -2.2151
11834SOL     OW39032   4.480   0.412   2.961  0.6776 -0.1223  0.1571
11834SOL    HW139033   4.391   0.382   2.944  0.3308 -0.3393  2.1432
11834SOL    HW239034   4.535   0.357   2.906 -0.2576 -1.7053  0.7530
11835SOL     OW39035   8.370   5.763   5.718 -0.1119  0.1926 -0.3232
11835SOL    HW139036   8.464   5.757   5.703 -0.1318 -2.4347  0.1520
11835SOL    HW239037   8.335   5.678   5.690 -2.2735  0.8879  0.0401
11836SOL     OW39038   9.345   6.439   0.893  0.2075 -0.1658 -0.3802
11836SOL    HW139039   9.365   6.495   0.818  1.0989  0.0232 -0.0214
11836SOL    HW239040   9.363   6.350   0.862 -0.3448 -0.1723 -0.6789
11837SOL     OW39041   9.492   2.105   1.174  0.3569 -0.0405  0.4375
11837SOL    HW139042   9.457   2.032   1.226 -0.2949  0.6540  0.9930
11837SOL    HW239043   9.545   2.062   1.107  0.1928 -1.0200  0.9044
11838SOL     OW39044   4.479   1.282   4.703 -0.3405 -0.4075  0.2959
11838SOL    HW139045   4.571   1.287   4.731 -0.8319  0.0646  1.9478
11838SOL    HW239046   4.482   1.234   4.620  1.3352 -0.9228  0.6100
11839SOL     OW39047  10.247   5.237  11.025  0.3890  0.7672 -0.7688
11839SOL    HW139048  10.221   5.232  10.933 -2.8176  0.7473  0.0168
11839SOL    HW239049  10.188   5.302  11.063  0.4615 -0.4368  1.6212
11840SOL     OW39050   9.136   0.146   3.095  0.5345 -0.1462 -0.0896
11840SOL    HW139051   9.184   0.073   3.133 -0.5643 -1.0418 -0.3457
11840SOL    HW239052   9.162   0.147   3.003  0.7003 -0.0804 -0.0427
11841SOL     OW39053  10.353   0.373   5.078 -0.1058 -0.1604 -0.2037
11841SOL    HW139054  10.407   0.338   5.007  0.8117  0.0962  0.3501
11841SOL    HW239055  10.370   0.467   5.076 -1.0403  0.0098 -0.4284
11842SOL     OW39056  10.736   9.448   6.996  0.1497 -0.0538 -0.8467
11842SOL    HW139057  10.777   9.487   7.073  0.7006 -0.1527 -1.0862
11842SOL    HW239058  10.646   9.481   6.998  0.5748  1.1587 -0.9906
11843SOL     OW39059  10.583   0.625   7.657  0.4262  0.0715  0.0444
11843SOL    HW139060  10.613   0.543   7.695  0.2778 -0.0212 -0.0401
11843SOL    HW239061  10.580   0.686   7.731  2.0334  0.4314 -0.1387
11844SOL     OW39062   1.725   8.665   8.837 -1.0865 -0.3579  0.0052
11844SOL    HW139063   1.758   8.596   8.780  0.3190 -1.0020  1.5028
11844SOL    HW239064   1.630   8.664   8.824 -0.9374 -1.4620 -1.1886
11845SOL     OW39065   2.232   5.818  10.755 -0.6219 -0.1744  0.4080
11845SOL    HW139066   2.159   5.832  10.815  1.5718  0.0920  3.2383
11845SOL    HW239067   2.255   5.726  10.767  1.0902  0.3469  1.6784
11846SOL     OW39068   3.812   7.147   5.484 -0.7449 -0.1816  0.0502
11846SOL    HW139069   3.728   7.142   5.531 -0.5315  0.6174  0.5243
11846SOL    HW239070   3.868   7.083   5.528 -1.1742 -0.9102 -0.4340
11847SOL     OW39071   5.809   8.522   5.915  0.1928  0.1656 -0.6125
11847SOL    HW139072   5.774   8.490   5.999  1.0113  1.4708  0.2656
11847SOL    HW239073   5.832   8.613   5.932  0.9235  0.2908 -2.1104
11848SOL     OW39074   2.853  10.597   1.631  0.0815 -0.1955 -0.2255
11848SOL    HW139075   2.779  10.549   1.666  0.7655 -0.6856  0.5703
11848SOL    HW239076   2.821  10.687   1.623 -1.3090 -0.7949 -2.0466
11849SOL     OW39077  10.907   4.073   8.045  0.0805 -0.0683 -0.1857
11849SOL    HW139078  10.992   4.112   8.028  0.0049  0.8065  1.2678
11849SOL    HW239079  10.897   4.075   8.140 -2.0895  1.0547 -0.3597
11850SOL     OW39080   3.652   4.392   2.665  0.0118  0.4293 -0.1766
11850SOL    HW139081   3.710   4.319   2.642 -0.7628 -0.3038  0.1512
11850SOL    HW239082   3.684   4.465   2.613  1.6554  0.2264  0.4753
11851SOL     OW39083   2.601   1.090   6.812 -0.1407  0.1169 -0.4385
11851SOL    HW139084   2.641   1.115   6.729 -0.9634  2.5281 -0.1999
11851SOL    HW239085   2.595   1.172   6.861 -0.5757 -1.0727  1.6266
11852SOL     OW39086  10.577   4.587   3.353  0.1912  0.4963 -0.2508
11852SOL    HW139087  10.608   4.677   3.362 -0.0070  0.5704 -0.2992
11852SOL    HW239088  10.656   4.533   3.362  0.6363  0.7540 -2.1115
11853SOL     OW39089   6.021   0.841   9.041 -0.0156 -0.2569  0.0585
11853SOL    HW139090   5.967   0.919   9.052 -0.0913 -0.2878 -0.1009
11853SOL    HW239091   5.961   0.774   9.008  0.1216 -0.2861 -0.1338
11854SOL     OW39092  10.761   2.680   5.339 -0.0455 -0.9885  0.2517
11854SOL    HW139093  10.846   2.721   5.352  0.1407 -1.3443  0.1732
11854SOL    HW239094  10.732   2.711   5.253 -0.5788  0.1444  0.8219
11855SOL     OW39095   3.113   6.348   3.015  0.6862 -0.2366 -0.2938
11855SOL    HW139096   3.035   6.383   3.059  0.3381  0.5986 -1.5315
11855SOL    HW239097   3.133   6.268   3.064 -1.4154 -0.8905 -0.4010
11856SOL     OW39098   6.523   6.717   9.268 -0.3130 -0.2983 -0.3932
11856SOL    HW139099   6.474   6.665   9.333  0.7568  0.8419  1.4297
11856SOL    HW239100   6.459   6.779   9.234 -0.6217 -0.0750  0.5497
11857SOL     OW39101   8.596   6.262   3.729  0.3956 -0.5581  0.5416
11857SOL    HW139102   8.502   6.275   3.740  0.4833 -1.0336  1.9773
11857SOL    HW239103   8.635   6.302   3.807  1.4238 -0.0071 -0.2315
11858SOL     OW39104  10.483   0.195   0.620  0.0797  0.5798  0.1982
11858SOL    HW139105  10.574   0.213   0.644  0.6167 -0.4914 -0.9495
11858SOL    HW239106  10.459   0.268   0.563  0.0608  1.0968  0.8531
11859SOL     OW39107   2.949  10.486   6.443 -0.1387 -0.0397 -0.7629
11859SOL    HW139108   2.873  10.500   6.386 -0.3822  0.4137 -0.3382
11859SOL    HW239109   2.933  10.544   6.517  2.1215  2.4583 -2.0556
11860SOL     OW39110   0.242   3.888   2.815 -0.2319 -0.2876  0.8461
11860SOL    HW139111   0.239   3.899   2.719  0.5562 -0.9181  0.7364
11860SOL    HW239112   0.165   3.935   2.847 -2.1493 -2.4230 -0.3172
11861SOL     OW39113   3.881   2.246   8.484  0.2931 -0.3482  0.2618
11861SOL    HW139114   3.951   2.190   8.452 -0.4262 -1.3410  0.3674
11861SOL    HW239115   3.916   2.286   8.563  1.3517  0.5286 -0.6352
11862SOL     OW39116   7.754   1.382   0.423  0.2032 -0.4676 -0.2363
11862SOL    HW139117   7.771   1.295   0.387 -3.5479 -1.5066  0.1228
11862SOL    HW239118   7.768   1.442   0.350 -0.7591 -1.7934 -1.5482
11863SOL     OW39119   9.442  10.437   2.802 -0.3984  0.1172 -0.1224
11863SOL    HW139120   9.523  10.450   2.851  0.1976  1.9451 -1.4860
11863SOL    HW239121   9.374  10.474   2.859 -0.0520  0.0845  0.3213
11864SOL     OW39122   3.817   8.860   9.987  0.5507  0.2490  0.4214
11864SOL    HW139123   3.819   8.829  10.077 -2.9539  1.4909  1.0827
11864SOL    HW239124   3.759   8.799   9.941  0.7643  0.7127 -0.4971
11865SOL     OW39125   9.025   4.784   9.831 -0.1272  0.0713 -0.2388
11865SOL    HW139126   9.054   4.724   9.899  1.5848  0.6550 -0.3860
11865SOL    HW239127   9.107   4.816   9.792 -0.9686  2.2723 -0.3317
11866SOL     OW39128  10.767  10.159   9.951 -0.4613  0.2122 -0.2598
11866SOL    HW139129  10.754  10.246   9.913  0.7903 -0.1172 -1.5217
11866SOL    HW239130  10.794  10.105   9.877  1.4565 -0.6175  0.9895
11867SOL     OW39131   4.530   2.509   8.933  0.2868 -0.3423  0.4180
11867SOL    HW139132   4.625   2.498   8.933  0.2333 -0.8531  0.6907
11867SOL    HW239133   4.500   2.462   9.011 -0.1923 -0.2036  0.3241
11868SOL     OW39134   4.786   4.839   1.132  0.6922 -0.9445  0.3194
11868SOL    HW139135   4.757   4.908   1.073  1.3844  0.4187  1.5268
11868SOL    HW239136   4.819   4.770   1.073  0.3232 -0.1090 -0.9005
11869SOL     OW39137   6.966   1.389   7.806 -0.2327 -0.4887 -1.0625
11869SOL    HW139138   6.890   1.448   7.812  0.8051  0.9118 -1.1236
11869SOL    HW239139   7.011   1.416   7.725  0.6395 -0.9094 -0.7326
11870SOL     OW39140   5.553   5.423   8.498 -0.1253 -0.3352  0.1482
11870SOL    HW139141   5.641   5.401   8.529 -0.0296  1.0983  1.0165
11870SOL    HW239142   5.540   5.367   8.421  1.5182 -0.6288  0.0302
11871SOL     OW39143   9.702   9.438   3.909  0.0931  0.6354  0.3715
11871SOL    HW139144   9.764   9.367   3.889 -0.2246  0.6820 -0.8519
11871SOL    HW239145   9.617   9.404   3.881 -0.1945  1.1767  0.5757
11872SOL     OW39146   3.973   1.358   8.267 -0.1854 -0.0835  0.7370
11872SOL    HW139147   4.048   1.371   8.326  0.7442 -1.2411 -0.1396
11872SOL    HW239148   3.930   1.280   8.300 -1.0684  0.6181  1.2754
11873SOL     OW39149   4.331   2.579   7.449  1.0625 -0.0503  0.5071
11873SOL    HW139150   4.362   2.645   7.387  2.0538 -0.2287  0.7809
11873SOL    HW239151   4.251   2.544   7.411  0.8567  0.8883  0.0661
11874SOL     OW39152   9.109   5.206  10.125 -0.0906 -0.4463  0.3613
11874SOL    HW139153   9.150   5.288  10.153  1.3805 -0.7589 -0.7386
11874SOL    HW239154   9.103   5.154  10.205  1.0458 -0.1035  0.6958
11875SOL     OW39155   5.895  10.251   1.792 -0.0298  0.3389  0.3704
11875SOL    HW139156   5.924  10.288   1.876 -0.4491 -0.5372  0.9150
11875SOL    HW239157   5.923  10.316   1.727  0.0491  1.1750  1.2065
11876SOL     OW39158   7.293   8.101  11.093 -0.1877  0.8314 -0.4948
11876SOL    HW139159   7.332   8.116  11.007  0.4743 -1.5226 -0.6630
11876SOL    HW239160   7.317   8.011  11.116 -0.0015  1.4963  2.3442
11877SOL     OW39161  11.118   2.869   0.043 -0.1084  0.0829  0.2491
11877SOL    HW139162  11.036   2.838   0.007 -0.8045  1.7056  0.3321
11877SOL    HW239163  11.133   2.953  -0.001  2.5482 -1.0365 -1.2505
11878SOL     OW39164   6.832  11.053   6.093  0.5493  0.0657 -0.2774
11878SOL    HW139165   6.758  11.014   6.046  1.0530 -0.2323 -0.8369
11878SOL    HW239166   6.875  11.107   6.027  0.6814  0.4493  0.1197
11879SOL     OW39167  10.176   8.124   4.678 -0.2407  0.1704 -0.3757
11879SOL    HW139168  10.176   8.043   4.729 -3.2617  0.0438 -0.4058
11879SOL    HW239169  10.224   8.187   4.733 -0.1689 -0.9452  0.8901
11880SOL     OW39170   1.630  10.754   9.113 -0.4576 -0.3192  0.2070
11880SOL    HW139171   1.534  10.742   9.114 -0.3504 -1.2718  0.5514
11880SOL    HW239172   1.660  10.694   9.046 -0.3649  2.5867 -2.5579
11881SOL     OW39173   3.577   3.273   5.175  0.5103 -0.3116 -0.5796
11881SOL    HW139174   3.673   3.281   5.170  0.4440  0.6149 -0.3957
11881SOL    HW239175   3.555   3.214   5.103  0.9576  1.6732 -2.4213
11882SOL     OW39176   7.160   5.274   3.235  0.4117 -0.2580 -0.0097
11882SOL    HW139177   7.198   5.187   3.245 -1.8819 -1.7390 -2.7626
11882SOL    HW239178   7.084   5.273   3.292  1.0248  0.4317  0.8447
11883SOL     OW39179   7.466   3.056   1.430 -0.0449 -0.0502 -0.5099
11883SOL    HW139180   7.524   2.982   1.447 -0.6691 -0.5729 -0.5902
11883SOL    HW239181   7.480   3.115   1.504  2.9306  1.3918 -2.0695
11884SOL     OW39182   9.739   8.435   6.987  0.0038  0.8783  0.4942
11884SOL    HW139183   9.793   8.359   7.011  0.1932  0.8393 -0.0379
11884SOL    HW239184   9.735   8.488   7.067 -1.0087 -0.2102  1.1844
11885SOL     OW39185   3.747   8.234   9.472  0.0588 -0.3440 -0.5327
11885SOL    HW139186   3.671   8.264   9.520 -0.2531 -0.6769 -0.8135
11885SOL    HW239187   3.721   8.150   9.435  1.0268 -1.1477  0.5343
11886SOL     OW39188   3.489   5.301  10.783  0.2918  0.2605 -0.6240
11886SOL    HW139189   3.564   5.243  10.768  1.2645  1.1816  0.5059
11886SOL    HW239190   3.439   5.256  10.852  1.1560  0.8081  0.4025
11887SOL     OW39191  10.895   7.342   1.367 -0.8021  0.4066 -0.4719
11887SOL    HW139192  10.855   7.259   1.393  2.7055 -1.6574 -0.9792
11887SOL    HW239193  10.887   7.344   1.272 -2.1939  1.5187 -0.3805
11888SOL     OW39194   3.213   8.668   5.785  0.7319  0.4009  0.0613
11888SOL    HW139195   3.258   8.750   5.765  0.0299  0.9476  0.6626
11888SOL    HW239196   3.233   8.652   5.878  0.2791  0.2731  0.1372
11889SOL     OW39197  10.900   3.592   7.416  0.3557 -0.2436 -0.3962
11889SOL    HW139198  10.923   3.646   7.341 -0.7449  0.4437 -0.2644
11889SOL    HW239199  10.884   3.654   7.487  1.0141 -0.8608  0.3102
11890SOL     OW39200   1.156   8.099   3.162  1.2868  0.0782  0.7813
11890SOL    HW139201   1.212   8.150   3.220 -1.1002  0.8210  2.6069
11890SOL    HW239202   1.121   8.030   3.219  0.1260 -0.1718 -0.2116
11891SOL     OW39203   7.213   2.114   0.424 -0.3742  0.1493  0.2657
11891SOL    HW139204   7.201   2.208   0.409 -2.3034  0.1743  1.5849
11891SOL    HW239205   7.297   2.107   0.468 -1.0438  1.5167  1.8732
11892SOL     OW39206  10.161   7.084   3.362  0.0002  0.1674  0.0217
11892SOL    HW139207  10.143   6.990   3.354  0.9874 -0.1232  0.9599
11892SOL    HW239208  10.205   7.093   3.446  0.9767  1.3129 -0.5746
11893SOL     OW39209   8.606   6.884   4.379  0.3770 -0.1964  0.0083
11893SOL    HW139210   8.540   6.950   4.398 -1.2079 -2.1114  1.6908
11893SOL    HW239211   8.677   6.903   4.440 -0.4094 -0.4676  1.0397
11894SOL     OW39212   5.429  10.899   9.902  0.3764 -0.3665 -0.0254
11894SOL    HW139213   5.475  10.957   9.963  1.1571 -0.5313 -0.4449
11894SOL    HW239214   5.336  10.907   9.926  0.6286 -0.0776  0.8735
11895SOL     OW39215   0.377   1.070   2.868  0.3549 -0.2905  0.5466
11895SOL    HW139216   0.354   1.001   2.929 -0.9041  0.5892  1.1173
11895SOL    HW239217   0.376   1.028   2.782 -0.7882 -0.9067  0.8409
11896SOL     OW39218   6.141   6.795   7.316 -0.0218  0.0204  0.2181
11896SOL    HW139219   6.105   6.740   7.247 -1.2476 -0.5058  1.2314
11896SOL    HW239220   6.192   6.861   7.270  1.3947 -1.8637 -1.0362
11897SOL     OW39221   1.099   3.193   8.421  1.6511  0.7069 -0.2190
11897SOL    HW139222   1.015   3.186   8.375  0.2971 -1.7937  2.3534
11897SOL    HW239223   1.157   3.135   8.371  0.3952 -1.4333  0.6326
11898SOL     OW39224   3.512   4.740   6.247 -0.0380  0.1662 -0.1172
11898SOL    HW139225   3.436   4.768   6.196  0.2512  0.2933 -0.4817
11898SOL    HW239226   3.536   4.655   6.209 -0.8984 -0.5935  0.9660
11899SOL     OW39227   8.532   5.802  10.808 -0.9097 -0.1522  0.3250
11899SOL    HW139228   8.593   5.827  10.877  1.8398  0.6868 -2.1769
11899SOL    HW239229   8.500   5.885  10.773  0.6089 -0.2979 -1.6529
11900SOL     OW39230   2.471   3.222   6.773  0.6375  0.2170 -0.6627
11900SOL    HW139231   2.456   3.192   6.683  1.2874 -3.2220  0.2085
11900SOL    HW239232   2.470   3.317   6.767 -3.5180  0.2451 -3.5608
11901SOL     OW39233   0.036   7.687   3.109  0.2860  0.1251  0.1027
11901SOL    HW139234   0.079   7.609   3.145 -0.1020 -0.5935 -0.9373
11901SOL    HW239235   0.062   7.688   3.017 -0.1684  0.9146 -0.0223
11902SOL     OW39236   3.852   8.760   7.069 -0.0837 -0.0060  0.3320
11902SOL    HW139237   3.844   8.692   7.135  0.1142  1.1063  1.5396
11902SOL    HW239238   3.945   8.784   7.070 -0.2570  0.6812  0.3425
11903SOL     OW39239   0.682   7.013   5.864  0.5034 -0.2936 -0.0073
11903SOL    HW139240   0.777   7.004   5.855  0.3939  0.1371 -1.8408
11903SOL    HW239241   0.666   7.106   5.853 -0.3238 -0.6362 -2.0551
11904SOL     OW39242   2.005   9.776  11.011 -0.0788  0.4724 -0.1846
11904SOL    HW139243   2.056   9.753  10.933  0.3833 -2.0614  0.7540
11904SOL    HW239244   1.996   9.871  11.008 -0.5768  0.4186 -3.5988
11905SOL     OW39245   9.996   3.329   5.446  0.3857  0.1500  0.8298
11905SOL    HW139246  10.023   3.395   5.510  1.5704  1.7915 -1.2397
11905SOL    HW239247   9.958   3.379   5.374 -1.1318 -1.6515  0.3075
11906SOL     OW39248   8.763   5.289   3.340  0.4814 -0.4416 -0.3144
11906SOL    HW139249   8.725   5.374   3.319  0.4330 -0.3475  0.1360
11906SOL    HW239250   8.856   5.298   3.319  1.3077  1.0159  3.2669
11907SOL     OW39251   6.358  11.095   4.318  0.3210 -0.3357 -0.2271
11907SOL    HW139252   6.368  11.160   4.249  0.4575  0.5888  0.6500
11907SOL    HW239253   6.339  11.013   4.271  2.3465 -0.1635 -1.4697
11908SOL     OW39254   2.858   5.999   8.934  0.3235  0.3959  0.3098
11908SOL    HW139255   2.818   6.071   8.984  0.8364  0.7823  0.1690
11908SOL    HW239256   2.924   6.042   8.879  0.0372 -0.0747 -0.4111
11909SOL     OW39257   3.087   4.544   9.223 -0.0836 -0.0301  0.3383
11909SOL    HW139258   3.011   4.576   9.174 -0.0047  0.3310  0.4509
11909SOL    HW239259   3.054   4.470   9.273 -0.3962  0.2145  0.4969
11910SOL     OW39260   3.734   6.507   2.537 -0.0642 -0.4118  0.5280
11910SOL    HW139261   3.654   6.481   2.491  0.1811 -0.2268 -0.0031
11910SOL    HW239262   3.743   6.442   2.607 -0.3960 -0.7428  0.2689
11911SOL     OW39263   6.194   3.206   5.411 -0.2053  0.3990  0.3083
11911SOL    HW139264   6.174   3.300   5.410  0.7879  0.6704  2.2216
11911SOL    HW239265   6.192   3.181   5.503 -3.9846 -2.3293 -0.2694
11912SOL     OW39266   5.807  10.532  10.833  0.3522  0.1733  0.0001
11912SOL    HW139267   5.757  10.524  10.914  1.2753 -0.6058  0.5092
11912SOL    HW239268   5.744  10.566  10.769 -0.8752 -0.9579  0.5717
11913SOL     OW39269   3.578   8.441   8.008 -0.3208  0.4894  0.3000
11913SOL    HW139270   3.652   8.404   8.058 -1.3017 -0.4543  1.1111
11913SOL    HW239271   3.540   8.505   8.068 -0.7463  0.2578  0.2802
11914SOL     OW39272  10.978   3.486   7.794 -0.3547 -0.1065  0.1495
11914SOL    HW139273  11.040   3.477   7.722  0.0745 -1.7064  0.6750
11914SOL    HW239274  10.987   3.405   7.844 -0.9914  0.7447  1.7261
11915SOL     OW39275   5.061   8.886   3.905 -0.4302  0.0575 -0.0676
11915SOL    HW139276   5.049   8.952   3.973 -0.0676  0.5191 -0.4422
11915SOL    HW239277   4.980   8.835   3.906 -1.0310  0.9848 -0.2863
11916SOL     OW39278   7.703   4.562   9.097 -0.2508  0.2253 -0.0604
11916SOL    HW139279   7.738   4.487   9.145 -1.6567 -1.3638 -1.3882
11916SOL    HW239280   7.763   4.575   9.024 -0.3109  0.0005 -0.1515
11917SOL     OW39281   1.370   4.079   8.921  0.1390 -0.3209 -0.9363
11917SOL    HW139282   1.305   4.105   8.987  0.2869 -1.9957 -0.0849
11917SOL    HW239283   1.447   4.133   8.941  0.0357 -0.4998  0.0254
11918SOL     OW39284   5.202   9.797   5.043 -0.2518  0.3590  0.3575
11918SOL    HW139285   5.222   9.708   5.070  0.4805 -1.0674 -4.1231
11918SOL    HW239286   5.109   9.808   5.064 -0.5361 -1.7623  0.4161
11919SOL     OW39287  11.111  11.038   8.353  0.1060 -0.0243  0.7663
11919SOL    HW139288  11.178  11.008   8.414  0.7557  0.7291  0.4444
11919SOL    HW239289  11.109  10.972   8.284 -0.8750 -1.0648  1.7440
11920SOL     OW39290   0.492   2.075   0.471  0.3538  0.1658 -0.4281
11920SOL    HW139291   0.423   2.136   0.494  0.3969 -0.0361  0.2691
11920SOL    HW239292   0.573   2.118   0.500  0.4284 -0.0188 -0.3604
11921SOL     OW39293   9.611   5.233   2.258  0.5920  0.2144  0.7296
11921SOL    HW139294   9.702   5.230   2.229  0.4932  1.2828  0.2616
11921SOL    HW239295   9.560   5.213   2.180  0.4193 -0.6099  1.0431
11922SOL     OW39296   8.214   8.396   9.843  0.6877  0.5134  0.1746
11922SOL    HW139297   8.269   8.320   9.859  1.8182  1.8005  3.0176
11922SOL    HW239298   8.269   8.455   9.791  0.5867  0.2738 -0.2089
11923SOL     OW39299   9.696   3.103   8.704  0.2452  0.5919 -0.1465
11923SOL    HW139300   9.726   3.118   8.614 -0.0550  0.4583 -0.2707
11923SOL    HW239301   9.616   3.154   8.711  0.1492  0.4245 -0.0238
11924SOL     OW39302   7.329   8.845   8.956 -0.0807  0.0663 -0.6099
11924SOL    HW139303   7.290   8.763   8.926  0.8916  0.2480 -2.5452
11924SOL    HW239304   7.408   8.854   8.903  1.7763  0.5036  2.0346
11925SOL     OW39305  10.678   1.234   3.329  0.4908  0.1125  0.0002
11925SOL    HW139306  10.642   1.206   3.245 -0.4974  0.5851  0.2473
11925SOL    HW239307  10.617   1.302   3.360 -0.1187 -1.1722  1.8311
11926SOL     OW39308   7.731  10.446   5.000 -0.0721  0.0054 -0.0335
11926SOL    HW139309   7.745  10.470   5.092  0.3635  2.6628 -0.6988
11926SOL    HW239310   7.640  10.471   4.983 -0.7028 -2.0842  0.0748
11927SOL     OW39311   8.309   9.535   4.517  0.6350 -0.0548 -0.7763
11927SOL    HW139312   8.234   9.539   4.577  1.6478 -0.6601  0.5813
11927SOL    HW239313   8.379   9.581   4.563  1.1283  0.4702 -2.0078
11928SOL     OW39314   4.534   7.747   4.394  0.8800 -0.5562 -0.0675
11928SOL    HW139315   4.560   7.769   4.305 -2.2994  0.8303 -0.8170
11928SOL    HW239316   4.509   7.655   4.390  1.4152 -0.6858 -0.4367
11929SOL     OW39317   3.998   9.427   7.332  0.0087 -0.1070  0.1840
11929SOL    HW139318   4.015   9.502   7.276 -0.9225  0.2043  0.2963
11929SOL    HW239319   3.915   9.448   7.376  0.3697 -0.6449  1.1573
11930SOL     OW39320   4.505   9.577   6.335 -0.0572 -0.0282  0.4178
11930SOL    HW139321   4.554   9.561   6.416  0.9519  0.1677 -0.1336
11930SOL    HW239322   4.507   9.493   6.289  1.8472  0.5586 -0.6815
11931SOL     OW39323  10.982   7.084   3.452 -0.4579  0.0479 -0.4738
11931SOL    HW139324  10.950   7.096   3.542 -0.8555 -2.4345 -0.2256
11931SOL    HW239325  10.932   7.147   3.401 -0.4597  1.2856  0.9757
11932SOL     OW39326  10.662   5.681   1.438  0.1260  0.0691 -0.4698
11932SOL    HW139327  10.754   5.683   1.413  0.7606  0.7824  1.7374
11932SOL    HW239328  10.652   5.598   1.485  0.0213  0.6275  0.5241
11933SOL     OW39329   9.976   2.688   3.820  0.7103  0.0998  0.9251
11933SOL    HW139330   9.952   2.752   3.887 -0.1325  0.3300  0.4211
11933SOL    HW239331  10.066   2.663   3.841  1.0903  1.5189  1.0878
11934SOL     OW39332   2.919   7.388   1.934 -1.2664 -0.2005  0.5107
11934SOL    HW139333   2.948   7.409   2.023 -1.7164  0.1172  0.5812
11934SOL    HW239334   3.001   7.381   1.884 -0.9463 -1.4178  1.1641
11935SOL     OW39335   7.782   7.454   6.421 -0.4182  0.3169 -0.0136
11935SOL    HW139336   7.860   7.404   6.397 -0.8812  1.1803 -4.2246
11935SOL    HW239337   7.815   7.528   6.472  0.9845 -1.1593  1.3029
11936SOL     OW39338   9.167   2.912  10.137 -0.1247  0.4545  0.6376
11936SOL    HW139339   9.196   2.858  10.211  2.1862 -0.9534 -1.1870
11936SOL    HW239340   9.246   2.958  10.109 -0.5196 -0.3800 -2.0400
11937SOL     OW39341   8.339   9.863   5.224 -0.2479  0.2195  0.8423
11937SOL    HW139342   8.244   9.860   5.234 -0.5146  1.7294 -0.8542
11937SOL    HW239343   8.361   9.781   5.180 -1.2284  1.2195 -1.6878
11938SOL     OW39344   9.089  10.400   8.095 -0.1188 -0.2683  0.0127
11938SOL    HW139345   9.135  10.348   8.028 -0.0336 -0.1563 -0.0160
11938SOL    HW239346   9.052  10.474   8.046  0.3925  0.0970  0.1764
11939SOL     OW39347   0.606   4.874   0.085  0.6164 -0.0289  0.2773
11939SOL    HW139348   0.626   4.910  -0.001 -0.3608 -0.6492 -0.2367
11939SOL    HW239349   0.570   4.787   0.066 -1.2109  0.4758  1.1774
11940SOL     OW39350   7.357   5.854   6.903  0.2763 -0.1386 -0.2469
11940SOL    HW139351   7.446   5.829   6.881  0.9394  1.2437  0.7739
11940SOL    HW239352   7.354   5.853   6.999 -0.8202 -0.1974 -0.2663
11941SOL     OW39353   6.371   4.556   5.170  0.1394 -0.6497  0.1143
11941SOL    HW139354   6.457   4.567   5.129 -0.0820 -1.6288 -0.6672
11941SOL    HW239355   6.389   4.508   5.251  0.3178 -1.0817 -0.1753
11942SOL     OW39356   0.997   3.808   1.856  0.3469 -0.3377  0.6660
11942SOL    HW139357   1.050   3.875   1.900  1.3414 -1.0718  0.6043
11942SOL    HW239358   1.016   3.820   1.763 -1.5741  1.0586  0.3902
11943SOL     OW39359   9.885   7.396   0.638  0.6075  0.3547 -0.2227
11943SOL    HW139360   9.790   7.388   0.630  0.4822  0.6040  0.8295
11943SOL    HW239361   9.903   7.373   0.729  1.4367  1.2945 -0.1282
11944SOL     OW39362   1.196   9.569   1.679 -0.5005 -0.1987  0.5438
11944SOL    HW139363   1.175   9.541   1.768 -0.6180  1.0151  0.9106
11944SOL    HW239364   1.263   9.507   1.650 -0.4620 -0.6090  1.4693
11945SOL     OW39365   7.584   4.182   0.851 -0.2083 -0.0526  0.7563
11945SOL    HW139366   7.579   4.260   0.907 -1.3764  0.2527  0.2622
11945SOL    HW239367   7.676   4.155   0.856  0.1354  1.1263  1.2523
11946SOL     OW39368   3.477   2.137   5.802 -0.3981 -0.3884 -0.5555
11946SOL    HW139369   3.473   2.189   5.882 -0.6662 -0.6830 -0.3740
11946SOL    HW239370   3.430   2.190   5.736 -0.7858 -0.4587 -0.3387
11947SOL     OW39371   9.130   3.468   4.961  0.0857 -0.1560 -0.1690
11947SOL    HW139372   9.181   3.534   5.007 -0.1007  0.2846 -0.5835
11947SOL    HW239373   9.039   3.495   4.973  0.0270 -0.1316 -0.6449
11948SOL     OW39374   3.669   0.260   3.433 -0.0165  0.5038 -0.2662
11948SOL    HW139375   3.685   0.218   3.518 -0.7313 -0.3149 -0.5328
11948SOL    HW239376   3.734   0.331   3.430 -0.5646  1.1444  1.3584
11949SOL     OW39377   6.678   4.665  10.189  0.1183  0.2386  0.1511
11949SOL    HW139378   6.589   4.675  10.154  0.3588  0.0595 -0.5247
11949SOL    HW239379   6.714   4.754  10.189  0.6102  0.0737 -1.4192
11950SOL     OW39380   3.848   3.532   3.275  0.0479  0.4439 -0.1035
11950SOL    HW139381   3.762   3.558   3.308 -1.0041 -2.4893 -0.2288
11950SOL    HW239382   3.910   3.589   3.322 -1.8023  0.9184  1.9053
11951SOL     OW39383   0.946  10.313   4.602 -0.5192 -0.5824 -0.1206
11951SOL    HW139384   0.874  10.347   4.656 -0.3864 -0.1572 -0.2040
11951SOL    HW239385   0.959  10.381   4.535 -0.8937 -1.2457 -0.8814
11952SOL     OW39386   4.618   7.453   6.882 -0.3229  0.7374 -0.0011
11952SOL    HW139387   4.609   7.443   6.787  1.0556 -1.1682  0.0038
11952SOL    HW239388   4.548   7.399   6.918  0.6117 -0.4975  0.0294
11953SOL     OW39389   2.290   6.031  10.278  0.0682  0.1457 -0.4300
11953SOL    HW139390   2.202   5.998  10.258  0.0711 -0.5339  0.6436
11953SOL    HW239391   2.277   6.124  10.297 -0.2574  0.2906 -1.3079
11954SOL     OW39392   9.929   1.628   1.957  0.3107 -0.2894 -0.1521
11954SOL    HW139393   9.858   1.690   1.973 -1.1322 -1.7792 -0.4055
11954SOL    HW239394   9.989   1.640   2.030 -0.5530  0.5719  0.4373
11955SOL     OW39395  10.589   1.134   1.771 -0.0418 -0.0772 -0.4391
11955SOL    HW139396  10.649   1.084   1.716  0.4561  1.0131 -0.9077
11955SOL    HW239397  10.504   1.127   1.726  0.1164 -0.1466 -0.7286
11956SOL     OW39398   2.434   0.475  10.652  0.4977  0.4971  0.0265
11956SOL    HW139399   2.373   0.404  10.670  0.6055  0.5522  0.6122
11956SOL    HW239400   2.393   0.552  10.690 -0.0360  0.9280 -1.3638
11957SOL     OW39401   4.809   1.288   0.155  0.0817 -0.0887  0.1512
11957SOL    HW139402   4.780   1.225   0.221 -2.2339  0.9374  0.2310
11957SOL    HW239403   4.841   1.363   0.206 -3.5444  1.5413  0.3538
11958SOL     OW39404   3.612   6.789   9.018 -0.1477  0.4036 -0.0104
11958SOL    HW139405   3.550   6.774   8.946 -0.8638  1.5264  0.3335
11958SOL    HW239406   3.690   6.739   8.994 -0.5606  0.3424 -1.3148
11959SOL     OW39407  10.902  10.101   2.527 -0.7796  0.1854 -0.2687
11959SOL    HW139408  10.900  10.028   2.588  0.1521 -0.6457 -1.2077
11959SOL    HW239409  10.813  10.106   2.492 -0.9192 -0.3077  0.0184
11960SOL     OW39410   2.968   3.163   9.282  0.1612 -0.0727 -0.2001
11960SOL    HW139411   2.987   3.122   9.197 -1.6348 -1.7521  0.1335
11960SOL    HW239412   3.005   3.104   9.347  0.0188  0.3113  0.2405
11961SOL     OW39413   9.212   9.745   1.780  0.1611 -0.3147 -0.3006
11961SOL    HW139414   9.130   9.780   1.814  0.1138 -0.4150 -0.3118
11961SOL    HW239415   9.278   9.811   1.803 -0.3315  1.0882 -2.6341
11962SOL     OW39416   5.770   8.816   1.807 -0.5488 -0.1280  0.0529
11962SOL    HW139417   5.684   8.775   1.801 -1.0796  0.8165  0.8485
11962SOL    HW239418   5.807   8.784   1.889  0.8601 -2.2901 -1.3106
11963SOL     OW39419   0.022  11.083   9.615 -0.1921 -0.2012 -0.2203
11963SOL    HW139420   0.104  11.042   9.642 -0.4189  0.1987  1.1643
11963SOL    HW239421   0.031  11.095   9.521  0.5487 -1.8972 -0.4052
11964SOL     OW39422   7.750   6.772   6.526  0.2270  0.2467  0.3084
11964SOL    HW139423   7.794   6.844   6.480  2.3239 -0.4061  1.1663
11964SOL    HW239424   7.747   6.800   6.617  1.6891 -0.9577  0.7794
11965SOL     OW39425   7.627   1.545   3.667 -0.0886 -0.0712 -0.2413
11965SOL    HW139426   7.662   1.503   3.589  0.3524 -0.3660  0.1079
11965SOL    HW239427   7.534   1.523   3.666  0.2670 -1.7642  0.3489
11966SOL     OW39428   3.270   0.878   3.501 -0.5093 -0.0607 -0.0867
11966SOL    HW139429   3.186   0.908   3.468 -1.0057 -0.2530  0.9640
11966SOL    HW239430   3.311   0.956   3.538 -0.1655  0.0548 -0.6912
11967SOL     OW39431   9.280   2.981   3.272  0.2943 -0.2134  0.5081
11967SOL    HW139432   9.318   3.068   3.282  0.0286 -0.1303  0.7874
11967SOL    HW239433   9.341   2.923   3.317  0.8064 -0.2599 -0.2211
11968SOL     OW39434  10.560   7.809   8.304 -0.4842  0.2760  0.2378
11968SOL    HW139435  10.609   7.753   8.364 -0.6058 -0.7711 -0.6075
11968SOL    HW239436  10.469   7.799   8.330 -0.6900 -1.2499 -0.9169
11969SOL     OW39437   8.782   4.523   6.016 -0.1809 -0.3687 -0.2005
11969SOL    HW139438   8.712   4.536   6.079 -0.3178 -0.8551 -0.2515
11969SOL    HW239439   8.783   4.429   6.000 -0.9060 -0.1404 -1.7859
11970SOL     OW39440   8.107   4.434   6.987 -0.4920 -0.4550 -0.6544
11970SOL    HW139441   8.135   4.363   7.044 -2.0051  0.2337  1.0947
11970SOL    HW239442   8.018   4.455   7.017 -0.5375  1.3831 -1.8661
11971SOL     OW39443   6.379   7.468   4.319  0.6657 -0.2629 -0.1375
11971SOL    HW139444   6.336   7.412   4.384  1.5889 -2.8314 -1.5815
11971SOL    HW239445   6.330   7.550   4.321 -2.5037 -2.0163  0.2739
11972SOL     OW39446   1.767   0.383   8.395 -0.2626  0.2225  0.3949
11972SOL    HW139447   1.749   0.290   8.411 -0.7274  0.4892  1.5467
11972SOL    HW239448   1.737   0.427   8.474 -0.5297  1.4222 -0.3485
11973SOL     OW39449   1.721   8.517   1.048  0.0364  0.2173  0.0191
11973SOL    HW139450   1.675   8.580   1.104  0.2351  1.7438 -1.4291
11973SOL    HW239451   1.813   8.544   1.052  0.0382  0.4279 -1.0858
11974SOL     OW39452   7.847   6.894   8.277  0.4165  0.5128 -0.2827
11974SOL    HW139453   7.870   6.974   8.323  0.9566  0.3591 -0.2819
11974SOL    HW239454   7.907   6.828   8.311 -0.4066 -0.0370  0.1454
11975SOL     OW39455   7.220   0.977  10.758  0.2229 -0.3882 -0.0010
11975SOL    HW139456   7.175   1.061  10.750 -3.9718 -2.2941  0.7322
11975SOL    HW239457   7.255   0.977  10.848 -0.2013  0.3867  0.1700
11976SOL     OW39458   9.328   3.656   6.989 -0.2631 -0.4053 -0.0165
11976SOL    HW139459   9.385   3.607   7.048 -0.7510 -0.5463  0.3459
11976SOL    HW239460   9.246   3.606   6.989  0.1622 -1.1582 -1.8708
11977SOL     OW39461  10.071   7.302   8.781  0.2758 -0.4382  0.1883
11977SOL    HW139462  10.050   7.349   8.862  1.3639  0.6220 -0.1140
11977SOL    HW239463  10.166   7.293   8.782  0.1956 -1.4821 -0.4084
11978SOL     OW39464   6.064   1.957   1.574 -0.0915  0.1217  0.3414
11978SOL    HW139465   6.116   1.923   1.502  0.5980  1.8978 -0.0419
11978SOL    HW239466   6.086   1.900   1.648  0.3427 -0.7808 -0.4502
11979SOL     OW39467   5.643   3.708   8.219 -0.0337 -0.1584  0.1280
11979SOL    HW139468   5.733   3.689   8.194  0.5939  0.7032  1.6281
11979SOL    HW239469   5.604   3.747   8.140  1.1767  0.3272 -0.2456
11980SOL     OW39470  10.405   7.150   1.499 -0.5310 -0.3776 -0.0241
11980SOL    HW139471  10.471   7.214   1.468 -1.4962  0.0370 -1.3407
11980SOL    HW239472  10.431   7.130   1.588  1.6765 -0.5973 -0.6478
11981SOL     OW39473   5.774   4.089   8.305 -0.1337 -0.0429 -0.1624
11981SOL    HW139474   5.683   4.115   8.318 -0.0192 -0.0059  0.6580
11981SOL    HW239475   5.770   4.007   8.256 -0.5724  0.4093 -0.9072
11982SOL     OW39476   7.934  10.161   7.454  0.3297 -0.5556  0.4049
11982SOL    HW139477   7.977  10.083   7.420 -1.3222 -1.4473  0.2653
11982SOL    HW239478   7.882  10.194   7.381 -0.5341 -0.4855  1.0278
11983SOL     OW39479   7.854   5.509   3.974 -0.5476 -0.4890 -0.6410
11983SOL    HW139480   7.938   5.521   4.017 -1.1137 -1.1853  0.7273
11983SOL    HW239481   7.846   5.414   3.963 -1.5379 -0.5142  0.1136
11984SOL     OW39482  10.655   4.420   0.249  0.0795  0.3425 -0.7387
11984SOL    HW139483  10.561   4.406   0.254  0.2529 -0.4265  1.8063
11984SOL    HW239484  10.687   4.402   0.338  2.5510  1.1591 -1.3769
11985SOL     OW39485   1.767   3.450   4.811 -0.1930 -0.1486  0.9803
11985SOL    HW139486   1.672   3.452   4.807 -0.2900 -0.5731  2.3935
11985SOL    HW239487   1.796   3.517   4.749 -1.3167 -1.6782 -1.3140
11986SOL     OW39488   2.209  11.100   1.253 -0.2860 -0.3637  0.8949
11986SOL    HW139489   2.202  11.153   1.174  1.7272  0.7219  1.3827
11986SOL    HW239490   2.123  11.109   1.296 -0.8265  0.3979 -0.2920
11987SOL     OW39491   6.734   7.029   6.650  0.1879 -0.3156  0.1019
11987SOL    HW139492   6.828   7.041   6.664 -0.0704  0.8694  0.9504
11987SOL    HW239493   6.704   7.114   6.619 -0.7771 -0.3820  0.8363
11988SOL     OW39494   9.531   6.198   5.164 -0.0241 -0.2169 -0.1055
11988SOL    HW139495   9.516   6.204   5.258 -1.0716 -0.0991 -0.2590
11988SOL    HW239496   9.589   6.272   5.144 -0.7407  0.4785  0.2875
11989SOL     OW39497   0.307   5.880  10.783 -0.6549 -0.7386  0.2494
11989SOL    HW139498   0.357   5.959  10.801  0.2231 -0.9656 -1.0836
11989SOL    HW239499   0.358   5.809  10.822 -0.5196 -0.8438 -0.1163
11990SOL     OW39500   5.011   1.947   5.284  0.2123 -0.5115 -0.4184
11990SOL    HW139501   4.925   1.988   5.293  0.1966 -0.0298 -2.3630
11990SOL    HW239502   5.000   1.860   5.322 -0.3832  0.4059  1.7144
11991SOL     OW39503   3.065   9.041  11.037 -0.1807 -0.2119  0.5115
11991SOL    HW139504   3.019   9.112  11.081 -0.0864  0.8741 -1.0465
11991SOL    HW239505   3.009   8.964  11.051 -0.3770  0.1842  2.0634
11992SOL     OW39506   3.681   0.882   1.664 -0.1884 -0.0207  0.5553
11992SOL    HW139507   3.697   0.966   1.705 -1.9386  0.3373  0.5839
11992SOL    HW239508   3.607   0.845   1.713  0.6410 -1.6508  0.6426
11993SOL     OW39509   3.897   0.714   4.344 -0.2929  0.5065  0.2025
11993SOL    HW139510   3.962   0.676   4.284 -1.4141  0.9988 -1.3823
11993SOL    HW239511   3.900   0.808   4.326 -0.9710  0.6100  0.5884
11994SOL     OW39512   8.736   7.694   8.409  0.6603  0.2634  0.2950
11994SOL    HW139513   8.775   7.663   8.327  2.8704  1.1130  0.9264
11994SOL    HW239514   8.723   7.788   8.395  1.7597  0.5666  1.1007
11995SOL     OW39515   6.311   3.179   1.903 -0.2497 -0.2446 -0.1465
11995SOL    HW139516   6.329   3.170   1.996  1.1313  3.1940  0.0590
11995SOL    HW239517   6.380   3.127   1.860  0.0350 -0.6014  0.7311
11996SOL     OW39518   2.971  10.895  10.709 -0.0756 -0.1306  0.3732
11996SOL    HW139519   3.021  10.813  10.709  1.5136  0.7991 -0.8098
11996SOL    HW239520   2.907  10.883  10.779 -0.0137 -2.4519  0.1377
11997SOL     OW39521  10.712   0.042   3.542 -0.1631  0.2278 -0.2977
11997SOL    HW139522  10.739  -0.003   3.622  0.5544  0.8648 -0.1697
11997SOL    HW239523  10.638   0.097   3.569 -0.2128  0.0961 -0.1679
11998SOL     OW39524   7.837   0.903   3.169 -0.0208 -0.1131 -0.4325
11998SOL    HW139525   7.927   0.873   3.178  0.2930  0.8876 -0.1056
11998SOL    HW239526   7.844   0.998   3.164 -0.9285 -0.0965 -2.1102
11999SOL     OW39527   0.427   4.456   4.936  1.0715  0.2685  0.6721
11999SOL    HW139528   0.357   4.416   4.987  0.5803  1.5227  1.0237
11999SOL    HW239529   0.500   4.465   4.997  1.8419 -1.7069  0.1174
12000SOL     OW39530  10.729  10.400   7.728  0.6496 -0.7158  0.3867
12000SOL    HW139531  10.762  10.418   7.641  0.8500 -1.9378  0.1872
12000SOL    HW239532  10.637  10.429   7.726  0.5455 -1.0810 -0.3532
12001SOL     OW39533  10.187   7.381   7.918  0.1445 -0.2314  0.6622
12001SOL    HW139534  10.244   7.306   7.903  1.5141  0.6897  1.0939
12001SOL    HW239535  10.209   7.411   8.007 -0.3832  0.6718  0.5013
12002SOL     OW39536   6.752   7.011   4.280 -0.6103 -0.3952 -0.0925
12002SOL    HW139537   6.791   7.079   4.226  1.0813 -1.4256 -0.2435
12002SOL    HW239538   6.674   7.052   4.319  1.7477  2.5299  1.9813
12003SOL     OW39539   7.591   3.772  10.206 -0.1967 -0.5205  0.1668
12003SOL    HW139540   7.684   3.784  10.225  0.5849 -0.7925 -2.8978
12003SOL    HW239541   7.570   3.842  10.144 -1.9204 -0.7407  0.4518
12004SOL     OW39542   2.306   8.585  11.013  0.4041  0.3283  0.5642
12004SOL    HW139543   2.312   8.492  11.032 -0.2693 -0.0747 -1.0585
12004SOL    HW239544   2.395   8.611  10.987 -0.2000 -1.0349 -3.6871
12005SOL     OW39545   8.359   6.768   2.635  0.1923  0.6193 -0.0929
12005SOL    HW139546   8.353   6.863   2.647  2.1022  0.4266  3.8984
12005SOL    HW239547   8.433   6.757   2.575  0.7985  1.6798  0.4165
12006SOL     OW39548  10.287   4.120   8.552  0.2353  0.7184  0.0161
12006SOL    HW139549  10.262   4.148   8.464  0.8911 -1.7468 -1.0665
12006SOL    HW239550  10.371   4.163   8.569  0.2557  0.9654 -0.6985
12007SOL     OW39551   3.447   6.858  10.622  0.3052 -0.4714 -0.2098
12007SOL    HW139552   3.506   6.866  10.547 -2.6529  1.2596 -2.5920
12007SOL    HW239553   3.391   6.783  10.600  1.2017 -1.8188  1.7938
12008SOL     OW39554   7.882  10.147   5.976  0.0528  0.0875  0.5284
12008SOL    HW139555   7.888  10.051   5.966 -0.8094  0.0644  0.0845
12008SOL    HW239556   7.968  10.179   5.949 -0.8607 -0.2862 -3.5044
12009SOL     OW39557   7.508  10.207   2.917 -0.0559 -0.1345  0.7315
12009SOL    HW139558   7.537  10.280   2.862 -2.3785 -0.0374 -0.4651
12009SOL    HW239559   7.553  10.131   2.881 -1.2747 -0.0194 -1.1834
12010SOL     OW39560   7.386   3.897   5.740  0.3296  0.4105 -0.1910
12010SOL    HW139561   7.346   3.844   5.810 -1.7276  0.6383 -1.1123
12010SOL    HW239562   7.343   3.868   5.660  0.7963  1.9087 -1.0291
12011SOL     OW39563   6.307   8.917   5.064 -0.3022  0.3931 -0.2363
12011SOL    HW139564   6.303   8.827   5.030 -1.0785  0.8227 -1.3462
12011SOL    HW239565   6.291   8.908   5.158  2.2906 -0.8838  0.1675
12012SOL     OW39566   3.349   2.329   6.974 -0.7849  0.1706  0.1091
12012SOL    HW139567   3.350   2.235   6.995 -0.2297 -0.1956 -1.4398
12012SOL    HW239568   3.360   2.333   6.879 -1.6651  1.7909  0.0328
12013SOL     OW39569   7.124   1.261   3.009  0.1771  0.7493  0.3844
12013SOL    HW139570   7.136   1.195   3.078 -1.7420  0.8764  0.8762
12013SOL    HW239571   7.203   1.316   3.015  1.7214 -1.3147  0.1038
12014SOL     OW39572   1.285  10.979   0.385  0.2367  0.1067 -0.4350
12014SOL    HW139573   1.289  10.982   0.290  0.0475 -0.1993 -0.4534
12014SOL    HW239574   1.206  11.029   0.407  0.0281 -0.2075 -0.4636
12015SOL     OW39575   5.575   1.741   7.062 -0.5456 -0.3361  0.6640
12015SOL    HW139576   5.641   1.782   7.118  1.5312 -3.9831  1.2359
12015SOL    HW239577   5.609   1.749   6.974 -0.8170  0.2473  0.6070
12016SOL     OW39578  10.197   5.338   1.630  0.3057  0.1615  0.4569
12016SOL    HW139579  10.203   5.247   1.601  1.5694  0.3257  0.1331
12016SOL    HW239580  10.267   5.383   1.583 -1.4157  1.7017 -0.8222
12017SOL     OW39581   1.958   6.018   8.763  0.2293 -0.3156  0.4772
12017SOL    HW139582   1.994   5.931   8.782  0.4462 -0.1778  0.7002
12017SOL    HW239583   2.033   6.077   8.767  0.0603 -0.0968  0.4597
12018SOL     OW39584  10.624   7.895   3.378 -0.2564 -0.1982  0.2806
12018SOL    HW139585  10.582   7.870   3.460  1.8246 -2.1835  0.8360
12018SOL    HW239586  10.643   7.988   3.388  0.1097 -0.4295  2.1634
12019SOL     OW39587   1.794   7.660   5.341  0.2876  0.7531  0.6158
12019SOL    HW139588   1.840   7.739   5.313 -1.8570  1.6157 -0.7171
12019SOL    HW239589   1.843   7.629   5.417  1.8113  2.7517  0.5221
12020SOL     OW39590   2.976   1.447   4.147  0.2239 -0.1587 -0.1106
12020SOL    HW139591   2.969   1.460   4.241  0.3339 -1.3246  0.0640
12020SOL    HW239592   2.916   1.376   4.127  1.1544 -0.7985 -0.7187
12021SOL     OW39593   1.182   9.869   7.550  0.0404  0.3182 -0.4653
12021SOL    HW139594   1.126   9.920   7.491  0.4752  1.6913  0.2732
12021SOL    HW239595   1.216   9.932   7.612 -0.3348 -1.0861  1.2388
12022SOL     OW39596   0.363   5.734   7.677 -0.3291 -0.2801  0.0379
12022SOL    HW139597   0.355   5.806   7.740  1.9882  0.0937 -0.0184
12022SOL    HW239598   0.443   5.688   7.703 -0.2679 -1.1700 -1.5960
12023SOL     OW39599   7.971  10.169   8.524  0.4076 -0.2071 -0.4598
12023SOL    HW139600   7.892  10.224   8.530  1.0825  0.9667 -1.6583
12023SOL    HW239601   8.005  10.186   8.435  0.6408 -2.6217 -0.8915
12024SOL     OW39602   9.573   2.398   2.298  0.0784  0.6184 -0.1285
12024SOL    HW139603   9.634   2.472   2.304  1.7572 -0.7718  1.0616
12024SOL    HW239604   9.522   2.403   2.379 -0.1276  0.7390 -0.2660
12025SOL     OW39605   9.481   6.471   9.232 -0.3562  0.3967  0.3326
12025SOL    HW139606   9.565   6.517   9.237 -0.4967  0.5753  1.1146
12025SOL    HW239607   9.416   6.537   9.258 -0.5277 -0.3157  1.8015
12026SOL     OW39608   3.688   9.119   8.301 -0.4141 -0.3034 -0.1851
12026SOL    HW139609   3.771   9.127   8.349 -0.3884  1.7662 -0.5110
12026SOL    HW239610   3.627   9.084   8.366  0.3825 -0.5796  0.4399
12027SOL     OW39611  11.066   9.867   2.003  0.2546  0.0655 -0.2514
12027SOL    HW139612  11.122   9.823   2.067  1.6843 -0.0222 -1.5098
12027SOL    HW239613  11.118   9.941   1.972 -0.5473  0.3164 -1.0467
12028SOL     OW39614   6.430   2.316   4.768  0.1910  0.6319 -0.0145
12028SOL    HW139615   6.433   2.269   4.852  1.1175 -0.4536 -0.6321
12028SOL    HW239616   6.363   2.270   4.717  2.0944 -1.0485 -1.1585
12029SOL     OW39617  10.280   3.564   5.008 -0.3591  0.2236  0.1866
12029SOL    HW139618  10.195   3.581   5.048 -0.7410  0.3381 -0.6473
12029SOL    HW239619  10.327   3.512   5.072 -2.0754 -2.2717 -0.4202
12030SOL     OW39620   3.373   0.451   6.492  0.0586  0.0922 -0.2970
12030SOL    HW139621   3.285   0.483   6.474 -0.3377 -1.3581 -1.1124
12030SOL    HW239622   3.427   0.487   6.422 -0.2649 -0.4796 -0.8541
12031SOL     OW39623   6.293   6.537  10.041 -0.2850 -0.2008 -0.1032
12031SOL    HW139624   6.385   6.552  10.020 -0.1947 -0.7348 -0.0945
12031SOL    HW239625   6.266   6.467   9.982 -0.7919  0.2134 -0.3734
12032SOL     OW39626   5.531   1.723   9.582  0.4037 -0.6206 -0.0865
12032SOL    HW139627   5.564   1.646   9.628  2.4147 -0.1555 -0.6435
12032SOL    HW239628   5.450   1.745   9.627  1.6715 -0.8671  2.5107
12033SOL     OW39629   3.251   4.692  10.774 -0.2228 -0.4934  0.0905
12033SOL    HW139630   3.167   4.735  10.760  0.0503 -0.3427 -1.3195
12033SOL    HW239631   3.260   4.634  10.698  1.2294  0.0034 -0.1468
12034SOL     OW39632   3.874   4.317   4.786  0.0960  0.0941  0.2815
12034SOL    HW139633   3.851   4.302   4.877 -1.2827 -1.4480 -0.2503
12034SOL    HW239634   3.969   4.326   4.785  0.2295 -0.8865  1.7423
12035SOL     OW39635   2.314   1.488   9.881  0.1491 -0.1503 -0.1684
12035SOL    HW139636   2.274   1.568   9.845 -1.4161  0.0525  1.8134
12035SOL    HW239637   2.381   1.464   9.817  0.5606  2.6382 -0.9335
12036SOL     OW39638   1.691   7.135   4.123  0.0728  0.0128 -0.3726
12036SOL    HW139639   1.720   7.127   4.214  2.0546  1.1518 -0.8557
12036SOL    HW239640   1.727   7.057   4.079 -0.3799 -0.2293 -0.3245
12037SOL     OW39641  11.042  10.451   2.889  1.0626  0.2255 -0.2282
12037SOL    HW139642  10.992  10.531   2.908  2.6304  0.6224  2.7111
12037SOL    HW239643  11.122  10.482   2.846  0.2428 -0.1500 -2.1447
12038SOL     OW39644   1.569   8.450   8.394  0.8221  0.7004  0.0864
12038SOL    HW139645   1.586   8.365   8.354  1.1888  0.6759  0.2908
12038SOL    HW239646   1.574   8.433   8.488  0.3510  0.8373  0.1369
12039SOL     OW39647   8.498   5.713   4.011 -0.3464 -0.0478  0.0122
12039SOL    HW139648   8.472   5.644   4.073  2.3292 -0.2659  1.0030
12039SOL    HW239649   8.503   5.792   4.065 -0.9608  0.4340 -0.6140
12040SOL     OW39650   5.411  10.097   6.758 -0.3154  0.2484  0.2604
12040SOL    HW139651   5.339  10.146   6.718  0.4603  0.1497 -1.3089
12040SOL    HW239652   5.484  10.110   6.699 -0.4064 -3.9993 -1.0838
12041SOL     OW39653   0.920   0.273   3.555  0.1634 -0.2528  0.3167
12041SOL    HW139654   0.866   0.284   3.634  0.2838  1.4008  0.2030
12041SOL    HW239655   0.905   0.353   3.505  1.2376 -0.6303 -0.6395
12042SOL     OW39656   4.607   5.184   1.955 -0.2239  0.6174 -0.1450
12042SOL    HW139657   4.666   5.257   1.971 -0.1766  0.3523  0.9028
12042SOL    HW239658   4.519   5.224   1.959 -0.1664  0.7821 -0.4855
12043SOL     OW39659   8.435   3.217   6.433 -0.2068 -0.3207  0.3466
12043SOL    HW139660   8.374   3.181   6.497 -2.2744  0.7069 -0.9450
12043SOL    HW239661   8.465   3.142   6.382 -0.8547 -0.7615  0.6129
12044SOL     OW39662  10.827   1.458   2.524 -0.8229 -0.0120  0.2031
12044SOL    HW139663  10.778   1.496   2.597 -0.5440 -0.3884  0.5942
12044SOL    HW239664  10.886   1.528   2.496  0.7897 -0.5711  1.9149
12045SOL     OW39665   5.509   5.624  10.620  0.0111  0.5450  0.3369
12045SOL    HW139666   5.436   5.686  10.630 -1.0337 -0.6858  0.5675
12045SOL    HW239667   5.549   5.648  10.536  0.1893  2.0753  0.8200
12046SOL     OW39668   9.918  10.242   8.780  0.4760 -0.5933  0.0528
12046SOL    HW139669   9.826  10.256   8.800  0.2497  1.2040 -1.8987
12046SOL    HW239670   9.932  10.149   8.798 -1.3852 -0.6490  1.5150
12047SOL     OW39671   5.488   5.947   5.089 -0.0553  0.3005  0.0006
12047SOL    HW139672   5.420   6.014   5.091 -0.5878 -0.2234 -0.2956
12047SOL    HW239673   5.497   5.926   4.996 -0.8872 -1.0271  0.1960
12048SOL     OW39674  10.880  11.069   4.466 -0.0740 -0.4688  0.0974
12048SOL    HW139675  10.968  11.080   4.500 -0.0295  0.5048 -0.2851
12048SOL    HW239676  10.836  11.152   4.487  0.2503  0.6234 -2.9968
12049SOL     OW39677   1.071  10.811   3.550  0.1138  0.0820 -0.2797
12049SOL    HW139678   1.120  10.739   3.510 -2.2123 -1.3189 -0.7980
12049SOL    HW239679   1.066  10.878   3.482 -1.9151 -1.3659 -1.6541
12050SOL     OW39680   8.030   9.744   6.925  0.9663  0.1706 -0.9424
12050SOL    HW139681   7.998   9.654   6.917  1.3075 -0.2369  1.3562
12050SOL    HW239682   8.020   9.782   6.838 -0.4649 -1.6692 -1.6415
12051SOL     OW39683   6.544   4.580   7.537  0.1148  0.8453  0.2776
12051SOL    HW139684   6.498   4.660   7.514  0.3032  0.8466 -0.1012
12051SOL    HW239685   6.534   4.524   7.460 -0.7534  0.1709  0.8581
12052SOL     OW39686  10.924   4.122   7.035  0.4192  0.0782 -0.1191
12052SOL    HW139687  10.994   4.152   6.977 -0.1278  0.6661 -0.4996
12052SOL    HW239688  10.966   4.109   7.120  0.9037  0.8525 -0.2307
12053SOL     OW39689   2.178   5.045   7.701 -0.1656  0.6593  0.1689
12053SOL    HW139690   2.173   5.025   7.608  0.3539  1.1158  0.0333
12053SOL    HW239691   2.178   4.960   7.745 -0.5047  0.4459 -0.2380
12054SOL     OW39692   4.996  10.470   5.032 -0.3104 -0.1796  0.0543
12054SOL    HW139693   5.042  10.478   4.949  0.8911  1.0022  0.7890
12054SOL    HW239694   4.934  10.543   5.032 -2.0901 -1.6295 -0.8313
12055SOL     OW39695   1.773   9.700   2.741 -0.1564  0.1779 -0.2053
12055SOL    HW139696   1.860   9.660   2.733 -0.0280  0.6654 -1.4834
12055SOL    HW239697   1.775   9.774   2.681 -1.8143 -0.4445 -1.0915
12056SOL     OW39698   7.627   9.798   9.114 -0.4891  0.3843  0.0215
12056SOL    HW139699   7.673   9.786   9.031 -2.1658  0.2467 -0.9326
12056SOL    HW239700   7.588   9.886   9.108  0.0360  0.7030  1.0138
12057SOL     OW39701  10.098   2.558   2.494  0.1380  0.2139  0.2622
12057SOL    HW139702  10.143   2.622   2.549  0.0419  0.1401  0.4238
12057SOL    HW239703  10.067   2.491   2.554 -0.3222  0.3396  0.1653
12058SOL     OW39704   7.234   2.471   2.894  0.0095 -0.1835  0.1232
12058SOL    HW139705   7.225   2.484   2.988  0.5942 -1.8094  0.4491
12058SOL    HW239706   7.278   2.550   2.863 -1.1050  0.8272  1.0225
12059SOL     OW39707   1.359   1.368   3.156 -0.1967  0.4253 -0.0387
12059SOL    HW139708   1.360   1.322   3.072  1.7818 -0.1175  0.2443
12059SOL    HW239709   1.307   1.311   3.213 -1.1885  0.5817 -0.7612
12060SOL     OW39710   7.569   2.798   8.637 -0.5757  0.0080  0.2685
12060SOL    HW139711   7.598   2.827   8.723  1.1199 -0.7782  0.0017
12060SOL    HW239712   7.581   2.703   8.638  3.4160  0.2515 -2.1010
12061SOL     OW39713   9.982   0.588   8.906 -0.3778  0.1478 -0.4983
12061SOL    HW139714  10.014   0.654   8.967  0.5310  0.4378 -1.2706
12061SOL    HW239715  10.030   0.509   8.929 -0.1829  0.2047 -0.7174
12062SOL     OW39716   1.472   6.982   0.420  0.8803 -0.4074 -0.2639
12062SOL    HW139717   1.474   6.889   0.439 -2.2298 -0.3389  0.8939
12062SOL    HW239718   1.493   7.024   0.504 -1.7056 -0.1408  0.3300
12063SOL     OW39719   8.993   1.981   2.118 -0.3965 -0.0366 -0.1035
12063SOL    HW139720   9.059   2.000   2.185 -0.5300 -0.2598  0.0924
12063SOL    HW239721   9.016   1.894   2.086 -1.7577 -0.9943  1.3735
12064SOL     OW39722   4.507   2.181   0.740  0.4112  0.6605 -0.2634
12064SOL    HW139723   4.532   2.256   0.794 -0.5083  2.3067 -2.0063
12064SOL    HW239724   4.578   2.172   0.677  0.4199  0.1608 -0.1917
12065SOL     OW39725   6.168   9.780   7.102  0.2404  0.1629  0.0463
12065SOL    HW139726   6.138   9.735   7.181  2.3140 -0.1779  0.6953
12065SOL    HW239727   6.186   9.710   7.039  0.4890  0.2962 -0.0314
12066SOL     OW39728  10.214   7.939   4.874  0.7183 -0.3382 -0.4062
12066SOL    HW139729  10.300   7.961   4.910  0.8253  0.6718 -1.2339
12066SOL    HW239730  10.190   7.858   4.918  2.1271 -0.6756 -0.2062
12067SOL     OW39731   5.131   3.762   4.518  0.6012  0.4048 -0.4022
12067SOL    HW139732   5.082   3.770   4.437 -2.1185  0.7378  1.1443
12067SOL    HW239733   5.129   3.668   4.538  2.1562  0.1806 -1.1764
12068SOL     OW39734   5.307   4.711   2.848  0.0186  0.2276  0.0558
12068SOL    HW139735   5.278   4.729   2.937 -2.6264 -0.6680 -0.5560
12068SOL    HW239736   5.230   4.728   2.793  1.2931 -0.1509 -1.9638
12069SOL     OW39737   5.541   1.534   6.841  0.2781 -0.4084 -0.1761
12069SOL    HW139738   5.575   1.614   6.802  0.3141 -0.6251 -0.6026
12069SOL    HW239739   5.616   1.497   6.888 -0.3315  1.0055  2.0708
12070SOL     OW39740   5.196   3.156   1.489  0.0016  0.3466  0.5126
12070SOL    HW139741   5.288   3.160   1.463 -0.0599 -1.5454 -0.1207
12070SOL    HW239742   5.196   3.101   1.568 -0.4618  1.3507  1.2282
12071SOL     OW39743   3.182   9.348   6.053 -0.1577 -0.1815 -0.1380
12071SOL    HW139744   3.194   9.443   6.057 -0.2501 -0.2183  1.7539
12071SOL    HW239745   3.253   9.312   6.106 -1.1255 -1.0561  0.6244
12072SOL     OW39746   3.886  10.988   0.760  0.2238 -0.5977 -0.3648
12072SOL    HW139747   3.856  11.050   0.825  0.0171 -0.6766 -0.3848
12072SOL    HW239748   3.979  11.008   0.749  0.1025 -0.1231 -0.5603
12073SOL     OW39749   7.887   4.235  10.628 -0.4750  0.5644 -0.2784
12073SOL    HW139750   7.860   4.284  10.706 -0.8470  0.5688 -0.4106
12073SOL    HW239751   7.856   4.288  10.555 -0.8183  0.1621 -0.4241
12074SOL     OW39752   2.473   6.154   8.809  0.4330 -0.2925  0.3431
12074SOL    HW139753   2.546   6.196   8.854  0.1732 -0.4492  0.9223
12074SOL    HW239754   2.508   6.130   8.723  0.3281  1.8934 -0.3530
12075SOL     OW39755   6.910   5.566  10.577 -0.9353  1.1096  0.5610
12075SOL    HW139756   6.847   5.494  10.587  0.0410 -0.2475 -2.1603
12075SOL    HW239757   6.986   5.539  10.628 -0.7821  0.4944  0.0038
12076SOL     OW39758   1.170   8.707   5.445  0.3971  0.0942 -0.1864
12076SOL    HW139759   1.139   8.715   5.355 -0.1769 -2.0477 -0.2321
12076SOL    HW239760   1.091   8.691   5.496  0.8478  0.0568  0.5087
12077SOL     OW39761   9.298   1.933   5.873  0.3371  0.0430 -0.0763
12077SOL    HW139762   9.302   2.025   5.845 -0.5116 -0.5936 -2.5527
12077SOL    HW239763   9.209   1.923   5.908  0.6444  0.3101  0.7886
12078SOL     OW39764   8.274   6.141   7.977 -0.3825  0.7233  0.6484
12078SOL    HW139765   8.279   6.219   7.922 -0.7236 -0.8141 -1.7418
12078SOL    HW239766   8.190   6.102   7.954  1.1310 -2.0227 -0.8036
12079SOL     OW39767  10.431   8.900   5.722  0.2425  0.4492  0.9607
12079SOL    HW139768  10.517   8.920   5.759  0.7535  1.0901 -0.5161
12079SOL    HW239769  10.370   8.949   5.778  0.9252  0.8606  1.3690
12080SOL     OW39770   8.771   8.438   8.651 -0.6683 -0.7290 -0.5176
12080SOL    HW139771   8.761   8.436   8.556 -0.1890  0.0337 -0.5938
12080SOL    HW239772   8.707   8.503   8.681 -0.5354 -0.6657 -0.3680
12081SOL     OW39773   6.258   6.613   1.204  0.3360  0.5369  0.2739
12081SOL    HW139774   6.241   6.526   1.239  1.7646 -0.0369 -0.3876
12081SOL    HW239775   6.185   6.631   1.145  0.6294 -0.7312 -0.5020
12082SOL     OW39776   2.364   4.766  10.173 -0.4061  0.3205  0.2791
12082SOL    HW139777   2.445   4.752  10.221 -1.0342  1.0593  1.6194
12082SOL    HW239778   2.367   4.858  10.147  0.7656 -0.4959 -2.8005
12083SOL     OW39779   9.741   8.223   5.507  0.0801  0.5509 -0.6296
12083SOL    HW139780   9.783   8.264   5.432 -1.4821  0.8964 -1.3531
12083SOL    HW239781   9.653   8.201   5.476  0.1823 -1.5038  0.3621
12084SOL     OW39782   4.569   5.152   5.840 -0.2002  0.3235  0.3498
12084SOL    HW139783   4.645   5.209   5.829 -1.2709  1.9104  0.6841
12084SOL    HW239784   4.528   5.183   5.922 -1.4743 -0.1190 -0.0905
12085SOL     OW39785   8.405   6.430   8.646 -0.3955  0.5587 -0.4221
12085SOL    HW139786   8.397   6.416   8.740 -1.2239 -1.2127 -0.7277
12085SOL    HW239787   8.322   6.400   8.609  1.2452 -2.4453 -2.0546
12086SOL     OW39788   7.506   1.352   0.509  0.1432 -0.2507  0.3969
12086SOL    HW139789   7.503   1.386   0.420  0.8580 -0.1729  0.3969
12086SOL    HW239790   7.591   1.308   0.515  0.5766  0.6777  1.3714
12087SOL     OW39791   0.477   9.059   5.378 -0.3701 -0.5264  0.1206
12087SOL    HW139792   0.489   9.001   5.302 -1.4792 -1.0739  0.3327
12087SOL    HW239793   0.561   9.102   5.389  0.3038 -1.6618 -0.4157
12088SOL     OW39794   3.114   7.604   5.197 -0.1040  0.2542 -0.2341
12088SOL    HW139795   3.205   7.583   5.217 -0.0390  0.6607 -0.1081
12088SOL    HW239796   3.087   7.664   5.267 -0.0044  1.3596 -1.1282
12089SOL     OW39797   8.672   2.529   3.740  0.0325 -0.0921 -0.3290
12089SOL    HW139798   8.673   2.484   3.655  1.4874  0.7851 -0.8131
12089SOL    HW239799   8.638   2.464   3.801  0.5417 -1.3197 -1.3011
12090SOL     OW39800   2.881   7.963  10.370 -0.1797  0.5848  0.1551
12090SOL    HW139801   2.829   7.966  10.290 -1.1202 -0.5065  0.6995
12090SOL    HW239802   2.854   7.882  10.413  2.1801 -0.1856  0.3353
12091SOL     OW39803   3.941   1.979  10.553  0.9778  0.0522  0.0350
12091SOL    HW139804   4.017   2.012  10.601  1.8027 -0.9217 -0.5648
12091SOL    HW239805   3.943   1.884  10.567  0.5259 -0.1096 -0.9033
12092SOL     OW39806   4.161   8.139   7.549  0.4320 -0.2652 -0.1251
12092SOL    HW139807   4.070   8.116   7.568 -0.0360  0.0725 -1.7815
12092SOL    HW239808   4.180   8.212   7.608 -0.6622  0.2252 -0.3627
12093SOL     OW39809   9.701   4.071   8.635 -0.5067 -0.5326  0.0685
12093SOL    HW139810   9.704   4.122   8.554 -0.2341 -0.2340  0.2619
12093SOL    HW239811   9.714   4.136   8.704 -1.9381 -0.5965  0.4298
12094SOL     OW39812   5.172   9.463   9.999 -0.1329 -0.3700  0.4834
12094SOL    HW139813   5.197   9.376  10.031 -1.6465 -1.4368 -1.0539
12094SOL    HW239814   5.151   9.512  10.079  0.4460 -1.4836  1.3651
12095SOL     OW39815   1.245   8.449   3.556  0.2539  0.0108 -0.1359
12095SOL    HW139816   1.286   8.514   3.612 -0.2000 -0.6975  1.0558
12095SOL    HW239817   1.199   8.391   3.616 -0.4877 -0.6136 -1.2679
12096SOL     OW39818   0.229  10.624   1.711  0.1833  0.3165 -0.0690
12096SOL    HW139819   0.163  10.639   1.643  0.1539  0.8401  0.0677
12096SOL    HW239820   0.183  10.639   1.793 -0.0291 -1.2433  0.1344
12097SOL     OW39821   6.162   0.598   0.877  0.1893  0.3076  0.1857
12097SOL    HW139822   6.217   0.656   0.824 -0.0858 -1.2903 -2.0109
12097SOL    HW239823   6.204   0.596   0.963  1.6685  1.6710 -0.4524
12098SOL     OW39824   2.877  10.028   1.093 -0.1344  0.3481 -0.1003
12098SOL    HW139825   2.965  10.047   1.127 -0.2844  0.3179  0.3057
12098SOL    HW239826   2.827  10.108   1.109 -0.5416 -0.0840  0.8702
12099SOL     OW39827   9.085   4.203  10.086 -0.3453 -0.0909  0.6830
12099SOL    HW139828   9.049   4.144  10.019  0.5468 -0.1594  0.2483
12099SOL    HW239829   9.051   4.170  10.169 -0.0298 -1.0909  0.4238
12100SOL     OW39830   6.710  10.580  10.615  0.2428  0.5442 -1.0878
12100SOL    HW139831   6.708  10.628  10.698 -0.3755  0.1598 -0.8776
12100SOL    HW239832   6.731  10.647  10.549  1.8249  0.6683 -0.5035
12101SOL     OW39833   3.531   9.566   2.498  0.0169  0.1734 -0.1341
12101SOL    HW139834   3.539   9.475   2.528 -2.2717  0.3220  1.1176
12101SOL    HW239835   3.580   9.617   2.562  0.8510 -0.0857 -0.5393
12102SOL     OW39836   2.099   8.046   6.817  0.2860 -0.0168  0.2964
12102SOL    HW139837   2.033   8.108   6.848 -0.6879 -0.2723 -1.1503
12102SOL    HW239838   2.087   7.968   6.871 -1.7821 -0.6787 -0.9972
12103SOL     OW39839   9.603   0.308   4.953  0.0720 -0.1547 -0.5243
12103SOL    HW139840   9.693   0.283   4.929  0.3562  2.9900 -3.5316
12103SOL    HW239841   9.548   0.257   4.894  0.1235  0.2257 -0.9080
12104SOL     OW39842   1.409   5.727   6.566 -0.3169  0.8432 -0.0048
12104SOL    HW139843   1.475   5.745   6.500  1.2436 -0.2076  1.2059
12104SOL    HW239844   1.385   5.635   6.552  1.2022  0.1095  1.8119
12105SOL     OW39845   8.484  10.260   0.937  0.5331  0.5130 -0.3545
12105SOL    HW139846   8.392  10.236   0.948  0.6057  0.0938 -0.6364
12105SOL    HW239847   8.482  10.333   0.874  0.4790 -0.3746 -1.4076
12106SOL     OW39848   8.652   6.368   1.120  0.2153 -0.2678 -0.0793
12106SOL    HW139849   8.612   6.426   1.184  1.0276 -0.6740  0.8196
12106SOL    HW239850   8.595   6.291   1.119  0.7454 -0.6902  0.9235
12107SOL     OW39851   3.748   0.153   3.962 -0.3295 -0.2784  0.3422
12107SOL    HW139852   3.744   0.249   3.957  1.5985 -0.1512  0.5495
12107SOL    HW239853   3.717   0.132   4.050  0.7986  0.3062  0.9033
12108SOL     OW39854   2.977   4.649   6.007  0.4260  0.6142  0.6514
12108SOL    HW139855   2.924   4.701   5.946 -0.0060 -0.8483 -0.2782
12108SOL    HW239856   2.969   4.695   6.091 -0.1824  1.8548 -0.0551
12109SOL     OW39857   6.615   3.129   4.497 -0.1047  0.7983 -0.3907
12109SOL    HW139858   6.617   3.147   4.591  1.3627  0.7087 -0.3698
12109SOL    HW239859   6.703   3.095   4.478 -0.9853 -1.0759 -1.4367
12110SOL     OW39860   8.491   9.992   0.827  0.3806 -0.4460  0.3022
12110SOL    HW139861   8.559  10.000   0.761 -1.4768 -1.2690 -1.8352
12110SOL    HW239862   8.513  10.059   0.893  1.7823  1.0936 -1.6159
12111SOL     OW39863   9.802   2.718   7.314  0.5614  0.1096 -0.1884
12111SOL    HW139864   9.825   2.626   7.322  1.4696  0.1638 -1.7054
12111SOL    HW239865   9.806   2.752   7.403 -0.2021 -1.3864  0.4477
12112SOL     OW39866   8.370   4.125   4.596  0.3028 -0.0249 -0.1460
12112SOL    HW139867   8.430   4.120   4.521 -1.3049  1.8460 -1.6468
12112SOL    HW239868   8.298   4.067   4.572  0.0522  0.1339  0.2208
12113SOL     OW39869   8.378   8.540   8.199 -0.1374 -0.0406 -0.3963
12113SOL    HW139870   8.294   8.558   8.239 -1.4119 -2.2980 -1.8412
12113SOL    HW239871   8.419   8.626   8.188 -2.4443  1.1610 -0.0918
12114SOL     OW39872   8.558   8.577   6.656 -0.4820  0.1451 -0.1213
12114SOL    HW139873   8.648   8.549   6.639 -0.4357  0.3604 -0.2351
12114SOL    HW239874   8.529   8.523   6.729 -0.2884  0.0152 -0.1410
12115SOL     OW39875   9.475  10.041   4.717 -0.1981  0.0656 -0.2122
12115SOL    HW139876   9.549  10.077   4.766  0.4586  1.3612 -2.0261
12115SOL    HW239877   9.400  10.052   4.775  0.5140  1.6217  0.4806
12116SOL     OW39878   7.767   1.819   0.481  0.0076  0.4306 -0.2418
12116SOL    HW139879   7.765   1.857   0.568 -0.8378 -0.8932  0.3479
12116SOL    HW239880   7.848   1.767   0.479 -0.5102 -0.4120  0.1626
12117SOL     OW39881  10.218   1.106   5.544 -0.2844 -0.3749 -0.3975
12117SOL    HW139882  10.124   1.090   5.550 -0.3399 -0.1340 -0.5887
12117SOL    HW239883  10.234   1.180   5.602  0.0717 -1.4734  0.9531
12118SOL     OW39884   7.583   3.938   9.997  0.1457  0.5957  0.0492
12118SOL    HW139885   7.604   3.853   9.959 -0.8690  0.1064  0.5467
12118SOL    HW239886   7.631   4.001   9.943  1.7895 -0.3406  0.3308
12119SOL     OW39887  10.672   1.270  10.194  0.2973 -1.1009 -0.1935
12119SOL    HW139888  10.710   1.289  10.109  1.1445 -1.8313  0.0058
12119SOL    HW239889  10.682   1.351  10.244  0.3741 -0.8706 -0.5862
12120SOL     OW39890   9.894   5.022   7.527  0.2339 -0.4395 -0.3622
12120SOL    HW139891   9.811   5.040   7.571  0.2892 -0.7004 -0.1501
12120SOL    HW239892   9.880   5.052   7.437  0.8642  2.2478  0.3439
12121SOL     OW39893   1.717  11.054   7.664 -0.1336 -0.4080 -0.5953
12121SOL    HW139894   1.638  11.004   7.687 -0.9240  0.8068 -0.5967
12121SOL    HW239895   1.741  11.099   7.746  1.5781 -2.0640 -0.1116
12122SOL     OW39896   2.269   9.226   7.737  0.0858  0.1676  0.1893
12122SOL    HW139897   2.348   9.278   7.750 -1.2994  2.0313  1.7976
12122SOL    HW239898   2.220   9.273   7.670 -0.5615  0.2087  0.6770
12123SOL     OW39899   5.697   0.984  10.320  0.1022  0.1113  0.1538
12123SOL    HW139900   5.767   1.007  10.381  0.1916 -1.2659  0.5907
12123SOL    HW239901   5.737   0.993  10.234  0.8562 -0.7430  0.4031
12124SOL     OW39902   1.913   1.518   0.387  0.7910 -0.3253  0.3361
12124SOL    HW139903   1.968   1.523   0.465 -0.2002  1.2874  0.9847
12124SOL    HW239904   1.843   1.457   0.410  0.9514 -0.4796  0.4106
12125SOL     OW39905   4.618   4.464   4.247 -0.2831  0.4363 -0.2136
12125SOL    HW139906   4.689   4.460   4.183 -0.4617  0.4933 -0.4169
12125SOL    HW239907   4.616   4.377   4.287 -0.2290  0.3748 -0.3462
12126SOL     OW39908   6.689   1.409   9.186  0.3105 -0.5386  0.2754
12126SOL    HW139909   6.776   1.449   9.178  0.3697 -0.7099  0.0409
12126SOL    HW239910   6.683   1.350   9.110  0.2908 -1.1021  0.7062
12127SOL     OW39911   9.774   5.953  10.756  0.4006  0.1407  0.0444
12127SOL    HW139912   9.785   6.001  10.674  0.1110  1.1039  0.5528
12127SOL    HW239913   9.847   5.890  10.757  0.9984  0.8067 -0.4720
12128SOL     OW39914   4.424   2.333   9.129  0.7398 -0.5032 -0.1869
12128SOL    HW139915   4.328   2.331   9.122  0.6339  0.5609  0.7432
12128SOL    HW239916   4.444   2.277   9.204  0.7819 -0.1080  0.1002
12129SOL     OW39917   7.994   1.414   6.433 -0.2375  0.2699  0.1507
12129SOL    HW139918   8.000   1.325   6.397 -0.9631 -0.0740  0.8590
12129SOL    HW239919   7.910   1.447   6.401 -0.2875  0.4404  0.4556
12130SOL     OW39920   4.868   6.531   3.194  0.1066 -0.3585  0.4001
12130SOL    HW139921   4.910   6.456   3.237 -1.5881 -0.7219  1.5212
12130SOL    HW239922   4.933   6.601   3.200  1.4256 -1.5070  0.0144
12131SOL     OW39923  10.562   1.621   1.832 -0.5008 -0.1679 -0.1217
12131SOL    HW139924  10.631   1.562   1.863 -1.1780 -0.5814  0.6432
12131SOL    HW239925  10.539   1.673   1.909  0.4850  1.5266 -0.9282
12132SOL     OW39926   6.199   4.254   3.789  0.3871 -0.2860  0.2825
12132SOL    HW139927   6.114   4.209   3.789  0.9148 -1.4857 -2.3158
12132SOL    HW239928   6.263   4.185   3.774  1.5492  0.9369 -0.6290
12133SOL     OW39929   9.286   9.682   5.713  0.0902  0.2202  0.4571
12133SOL    HW139930   9.301   9.714   5.802 -0.5313  1.2333  0.2130
12133SOL    HW239931   9.191   9.685   5.702  0.1673  0.1665 -0.2660
12134SOL     OW39932   1.658   5.832   5.103  0.5850  0.1802 -0.4005
12134SOL    HW139933   1.625   5.788   5.181  0.5839  0.8118 -0.0444
12134SOL    HW239934   1.675   5.760   5.041  0.3416 -0.2998  0.0803
12135SOL     OW39935   8.384   5.103   3.344  0.1884 -0.3046 -0.0032
12135SOL    HW139936   8.327   5.149   3.406 -1.0514  0.9254 -1.9478
12135SOL    HW239937   8.340   5.019   3.329 -0.7676  0.3365 -0.9272
12136SOL     OW39938   6.475   0.071   9.893 -0.1586 -0.2235  0.4103
12136SOL    HW139939   6.551   0.112   9.852 -0.3785  2.0312  2.0265
12136SOL    HW239940   6.489  -0.023   9.883  1.4627  0.1762 -1.6846
12137SOL     OW39941   9.620   4.921   0.688  0.1602  0.1072 -0.3059
12137SOL    HW139942   9.542   4.902   0.741  1.7524 -1.5071  1.6119
12137SOL    HW239943   9.626   4.847   0.628  0.1468  0.2996 -0.5440
12138SOL     OW39944  10.370   8.416   4.066  0.0213  0.1000  0.1210
12138SOL    HW139945  10.422   8.455   4.136  0.7237 -1.5007  0.5504
12138SOL    HW239946  10.328   8.340   4.107  0.4443 -0.8670 -1.1839
12139SOL     OW39947   9.544   2.310   5.433  0.1815 -0.1850 -0.1266
12139SOL    HW139948   9.549   2.217   5.456 -0.9350  0.0327  1.1646
12139SOL    HW239949   9.588   2.355   5.505 -0.8786  0.3700  0.1998
12140SOL     OW39950  11.040  10.119  10.539 -0.3431 -0.3784  0.0805
12140SOL    HW139951  11.080  10.036  10.513 -0.3069 -0.0872 -0.8372
12140SOL    HW239952  10.949  10.098  10.558 -0.2046 -0.7171  0.3828
12141SOL     OW39953   9.352   1.429   2.706  0.2135 -0.2101 -0.0673
12141SOL    HW139954   9.364   1.344   2.749  1.7506  0.1399  0.2423
12141SOL    HW239955   9.311   1.484   2.772  0.5316 -0.3087  0.2161
12142SOL     OW39956   9.433   1.375   0.937 -0.3220 -0.6198  0.7834
12142SOL    HW139957   9.369   1.427   0.985 -2.0006 -1.0135 -0.9034
12142SOL    HW239958   9.482   1.328   1.005 -1.6107 -0.0551  2.1451
12143SOL     OW39959   9.572   1.006   6.491 -0.2589 -0.2534  0.7850
12143SOL    HW139960   9.478   0.996   6.480 -0.3361 -0.9804  1.8910
12143SOL    HW239961   9.611   0.966   6.413 -0.8454 -1.1140  0.9160
12144SOL     OW39962   1.826   1.477   9.457 -0.1716  0.1511 -0.1340
12144SOL    HW139963   1.752   1.471   9.518 -0.9103  0.6984 -0.9459
12144SOL    HW239964   1.858   1.388   9.450 -0.0153  0.0870  1.1085
12145SOL     OW39965   8.648  10.773   4.531  0.3124 -0.3361  0.6421
12145SOL    HW139966   8.624  10.695   4.480  3.4834 -0.7619 -0.3668
12145SOL    HW239967   8.629  10.748   4.622 -3.8269 -0.1837  0.0247
12146SOL     OW39968   4.722  10.793   6.549  0.1066  0.4352 -0.1889
12146SOL    HW139969   4.807  10.754   6.566 -0.0119  0.4440  0.4697
12146SOL    HW239970   4.690  10.819   6.635 -1.3126 -1.1235 -0.1843
12147SOL     OW39971   7.081   1.293   2.741  0.0804  0.5480 -0.0987
12147SOL    HW139972   7.133   1.221   2.705 -1.7591 -0.7286 -0.2978
12147SOL    HW239973   7.106   1.297   2.833 -0.5558 -1.0799  0.1706
12148SOL     OW39974   8.879   8.088   6.621  0.8699 -0.7104 -0.0591
12148SOL    HW139975   8.869   8.144   6.544 -0.7754 -1.6540 -0.5940
12148SOL    HW239976   8.966   8.050   6.612  2.0252  1.6932  0.3241
12149SOL     OW39977   8.444   9.150   7.966 -0.4169  0.1218 -0.1983
12149SOL    HW139978   8.407   9.236   7.947  3.2566  1.9245 -0.0339
12149SOL    HW239979   8.474   9.156   8.057 -0.1983 -1.4377 -0.1343
12150SOL     OW39980   0.878   1.398   2.262  0.3192 -0.2479  0.2948
12150SOL    HW139981   0.869   1.347   2.342  0.1813  0.7852  0.9619
12150SOL    HW239982   0.946   1.353   2.212 -0.7846 -1.8903  0.1892
12151SOL     OW39983   3.798   3.065   9.227 -0.2686  0.2109  0.6908
12151SOL    HW139984   3.770   3.100   9.312  3.1361 -0.0851  2.1038
12151SOL    HW239985   3.865   3.000   9.249  0.8521  0.2407 -2.2525
12152SOL     OW39986   7.442   6.679   5.045 -0.2171 -0.2557  0.5873
12152SOL    HW139987   7.529   6.692   5.084  0.5086  0.6122 -1.1722
12152SOL    HW239988   7.403   6.766   5.046 -0.6845 -0.4656  0.5559
12153SOL     OW39989   3.120   2.235   7.307 -0.4004  0.5008  0.1653
12153SOL    HW139990   3.032   2.230   7.272 -0.6719  0.3804  0.8474
12153SOL    HW239991   3.163   2.156   7.276 -0.4630  0.6657 -0.3467
12154SOL     OW39992   5.788   7.300   3.765 -0.3114 -0.2616  0.7390
12154SOL    HW139993   5.851   7.372   3.777  0.8901 -1.1147 -0.2707
12154SOL    HW239994   5.764   7.274   3.855  0.2830  0.4918  1.1293
12155SOL     OW39995   8.402   8.525   4.961 -0.3318 -0.4370  0.5266
12155SOL    HW139996   8.309   8.508   4.947 -0.1792 -0.3095 -0.8581
12155SOL    HW239997   8.432   8.564   4.878  0.4513  1.7709  1.7723
12156SOL     OW39998   5.731   3.196   4.183 -0.1666  0.6417  0.1799
12156SOL    HW139999   5.723   3.100   4.187 -1.7884  0.6922 -0.7609
12156SOL    HW240000   5.771   3.214   4.098  0.5439  0.8001  0.5397
12157SOL     OW40001   7.015   2.408   1.135  0.2053 -0.3675  0.1911
12157SOL    HW140002   7.070   2.459   1.076 -0.9667 -1.8384 -2.3525
12157SOL    HW240003   7.059   2.323   1.143  0.0866 -0.3577  1.0474
12158SOL     OW40004   3.294   4.203   5.144  0.1911 -0.4181 -0.0103
12158SOL    HW140005   3.244   4.271   5.100  0.0364  0.3838  1.3400
12158SOL    HW240006   3.382   4.239   5.154  0.0966 -0.3866  0.7524
12159SOL     OW40007  10.450   6.542   3.709 -0.7446 -0.0980  0.1046
12159SOL    HW140008  10.465   6.591   3.629 -1.9724 -1.8914 -1.3022
12159SOL    HW240009  10.535   6.539   3.752  0.1505  0.1765 -1.5752
12160SOL     OW40010   1.573   8.917   8.326  0.0408  0.5840 -0.5006
12160SOL    HW140011   1.637   8.947   8.391 -0.5418  0.6096  0.0801
12160SOL    HW240012   1.490   8.918   8.373 -0.2466 -0.3757 -0.9493
12161SOL     OW40013   0.198   8.660   5.683 -0.3005  0.9659 -0.3742
12161SOL    HW140014   0.239   8.740   5.717 -2.6489  1.7769  0.7147
12161SOL    HW240015   0.248   8.640   5.603  0.4785  3.3867 -0.5721
12162SOL     OW40016   7.415   3.594   6.643  0.0320 -0.5175  0.0647
12162SOL    HW140017   7.504   3.583   6.675  0.0771 -0.3500 -0.0016
12162SOL    HW240018   7.423   3.658   6.572 -0.1050 -0.6849 -0.1050
12163SOL     OW40019   8.260   1.162   7.653  0.0819 -0.3336  0.4210
12163SOL    HW140020   8.322   1.235   7.645  0.5687 -0.9014 -1.4954
12163SOL    HW240021   8.313   1.084   7.639 -0.7211 -0.9702  0.8355
12164SOL     OW40022   8.600  10.437   2.680  0.0912  0.1977 -0.2866
12164SOL    HW140023   8.540  10.379   2.726  0.4018 -0.0167 -0.1560
12164SOL    HW240024   8.611  10.512   2.739  1.3356 -0.5598  0.4881
12165SOL     OW40025   8.685   5.068   3.482  0.3078  0.4399  0.3564
12165SOL    HW140026   8.602   5.044   3.440  1.8774 -0.6858 -2.3125
12165SOL    HW240027   8.720   5.138   3.427  0.4922  2.0558  2.3718
12166SOL     OW40028   4.200   5.571  10.568  0.0095  0.4794 -0.0671
12166SOL    HW140029   4.244   5.507  10.625 -0.7364  1.1401  1.2828
12166SOL    HW240030   4.129   5.521  10.527  0.6964 -0.0592 -0.6368
12167SOL     OW40031   9.577   9.577   5.235 -0.0249  0.5925  0.1712
12167SOL    HW140032   9.500   9.531   5.270  2.0491 -3.0156  0.4400
12167SOL    HW240033   9.574   9.559   5.141  0.3112  0.7368  0.1335
12168SOL     OW40034   4.980   0.756   4.854 -0.0081  0.0948 -0.0992
12168SOL    HW140035   5.051   0.706   4.814  0.4158 -0.0104  0.7824
12168SOL    HW240036   4.914   0.690   4.876 -0.2444  0.1533 -0.6073
12169SOL     OW40037   9.338   7.784   1.817  0.1411 -0.0683  0.4796
12169SOL    HW140038   9.283   7.742   1.751 -0.0575 -0.1629  0.7049
12169SOL    HW240039   9.362   7.868   1.779  0.4851 -0.3575  0.0515
12170SOL     OW40040   6.739   5.833   4.867 -0.1412  0.5361 -0.0084
12170SOL    HW140041   6.827   5.794   4.869  0.1425  1.1462 -0.3199
12170SOL    HW240042   6.694   5.794   4.942  0.9714  1.5186  1.2147
12171SOL     OW40043   5.504   3.874   3.057 -0.0780 -0.1241 -0.1843
12171SOL    HW140044   5.437   3.886   2.989 -0.9285 -1.8058  0.3162
12171SOL    HW240045   5.488   3.946   3.119 -1.1222 -0.2247 -0.3220
12172SOL     OW40046   8.009   0.510   2.972  0.0777  0.5091  0.1471
12172SOL    HW140047   8.103   0.518   2.959  0.0183 -1.0565 -1.5956
12172SOL    HW240048   7.972   0.587   2.930  0.4645 -0.1277 -1.4281
12173SOL     OW40049   9.276  10.355   9.158  0.0065  0.2356 -0.1610
12173SOL    HW140050   9.201  10.384   9.106  0.1279  0.1469 -0.3846
12173SOL    HW240051   9.251  10.374   9.248 -0.4510 -0.1521 -0.1970
12174SOL     OW40052   5.787   3.400   0.436  0.2825  0.4616  0.2709
12174SOL    HW140053   5.756   3.313   0.411  1.5170 -0.1881  0.8850
12174SOL    HW240054   5.820   3.438   0.354 -1.9346  1.1256 -0.3688
12175SOL     OW40055   2.267   1.815   1.867 -0.1693  0.7262 -0.5745
12175SOL    HW140056   2.304   1.748   1.924 -1.2003  0.0533 -0.6701
12175SOL    HW240057   2.339   1.839   1.808 -0.0677 -1.0329 -1.2056
12176SOL     OW40058   3.364   8.868   8.564 -0.0918  0.0999 -0.1719
12176SOL    HW140059   3.307   8.928   8.515  0.6045  0.0941 -1.0315
12176SOL    HW240060   3.305   8.802   8.599 -0.7959  0.9410  0.2597
12177SOL     OW40061   5.057  10.021   7.080 -0.4681  0.7414 -0.5750
12177SOL    HW140062   5.032   9.928   7.086 -1.3147  1.0483  2.2586
12177SOL    HW240063   5.143  10.019   7.039  0.2675 -1.5014  0.8548
12178SOL     OW40064   9.112  10.311   6.682 -0.2881 -0.3680 -0.5628
12178SOL    HW140065   9.184  10.286   6.740  0.9276  0.3788 -1.6862
12178SOL    HW240066   9.045  10.344   6.741 -0.1242 -1.9562  0.5904
12179SOL     OW40067   1.710   0.046   5.395  0.0226 -0.1791 -0.4772
12179SOL    HW140068   1.757   0.034   5.478  0.5960  1.0586 -0.5934
12179SOL    HW240069   1.742   0.130   5.362 -0.9804 -0.1592 -1.4452
12180SOL     OW40070   0.561   3.259   7.376 -0.4099  0.1521  0.7319
12180SOL    HW140071   0.578   3.255   7.470  0.8371  1.5585  0.5966
12180SOL    HW240072   0.584   3.349   7.351  0.7168 -0.6178 -1.1842
12181SOL     OW40073   8.859   2.578   6.527 -0.7953  0.1107 -0.2827
12181SOL    HW140074   8.783   2.636   6.519 -0.1473  1.3419  1.7475
12181SOL    HW240075   8.843   2.509   6.463 -3.3998  0.5855 -0.2675
12182SOL     OW40076   0.990   5.633  11.047  0.3263 -0.4092 -0.3870
12182SOL    HW140077   0.958   5.625  10.957 -0.0198  0.8232 -0.3898
12182SOL    HW240078   0.912   5.654  11.098  0.0094 -3.5547  0.6687
12183SOL     OW40079   5.493   4.803   7.900  0.1357 -0.6249  0.1439
12183SOL    HW140080   5.545   4.724   7.882  2.1645  0.7007 -0.0760
12183SOL    HW240081   5.504   4.818   7.993  0.6535  0.0113 -0.0191
12184SOL     OW40082   4.150   2.281   9.109  0.3185 -0.0860 -0.0012
12184SOL    HW140083   4.110   2.342   9.047 -0.4672 -1.4770 -0.9110
12184SOL    HW240084   4.077   2.251   9.164  0.5042 -0.9693 -0.2215
12185SOL     OW40085   0.990   3.736   7.848 -0.0253  0.3754 -0.4219
12185SOL    HW140086   1.032   3.821   7.833  1.4977 -0.1918  0.4475
12185SOL    HW240087   0.921   3.755   7.912 -1.4537  1.3795 -2.1390
12186SOL     OW40088   6.940   0.768   5.136  0.6256 -0.3332 -0.1832
12186SOL    HW140089   6.950   0.795   5.044  1.4779  0.0078  0.0061
12186SOL    HW240090   6.952   0.673   5.134  0.5574 -0.3390 -0.4349
12187SOL     OW40091   5.996   5.228   2.028  0.0455  0.1979  0.4398
12187SOL    HW140092   6.012   5.194   1.940  1.2993  1.0402  0.3209
12187SOL    HW240093   5.909   5.268   2.024  1.0151  2.3080 -1.0964
12188SOL     OW40094   9.211   7.237   4.926 -0.3684  0.5341 -0.0442
12188SOL    HW140095   9.280   7.242   4.860 -1.0470 -0.2084 -0.8424
12188SOL    HW240096   9.242   7.291   4.998 -0.6259  3.3170 -1.8609
12189SOL     OW40097  11.014   7.490   3.402  0.2540 -0.2579 -0.0368
12189SOL    HW140098  11.027   7.458   3.491 -0.4623  0.7143  0.4464
12189SOL    HW240099  10.970   7.575   3.414 -0.8936 -0.6326 -1.3361
12190SOL     OW40100   5.843   2.577   8.350 -0.0186 -0.3538 -0.1775
12190SOL    HW140101   5.822   2.644   8.415  1.9837  1.3758 -1.2103
12190SOL    HW240102   5.909   2.523   8.392 -0.5980 -0.8400  0.1287
12191SOL     OW40103   1.667   5.517   3.533  0.6967 -0.0481  0.4468
12191SOL    HW140104   1.727   5.582   3.571  0.9709  1.0867 -1.7966
12191SOL    HW240105   1.720   5.468   3.471 -0.5526  0.7214 -1.3100
12192SOL     OW40106   5.478   3.914   6.756 -0.3116 -0.6962  0.4510
12192SOL    HW140107   5.400   3.969   6.743 -1.0131 -1.7742 -0.0307
12192SOL    HW240108   5.447   3.842   6.810  0.4430 -0.9744  0.5173
12193SOL     OW40109   7.378   6.261   9.203 -0.0831  0.1154 -0.1254
12193SOL    HW140110   7.468   6.278   9.174 -0.5842  3.6889 -0.0516
12193SOL    HW240111   7.387   6.227   9.292  1.1991  0.6717 -0.0262
12194SOL     OW40112  10.434   0.480   2.341 -0.4565 -0.2655  0.4396
12194SOL    HW140113  10.462   0.556   2.393 -0.0175 -0.3073  0.2689
12194SOL    HW240114  10.349   0.505   2.307 -0.3917  0.0842  0.5289
12195SOL     OW40115   0.527   5.617   7.404  0.0646  0.0664 -0.1202
12195SOL    HW140116   0.447   5.571   7.432 -0.8040  0.7925 -1.2868
12195SOL    HW240117   0.598   5.560   7.431 -0.8629 -0.7407  0.7136
12196SOL     OW40118   3.032   7.338  10.874 -0.5283 -0.3529  0.2817
12196SOL    HW140119   2.963   7.403  10.881 -0.8282 -0.5437 -0.6987
12196SOL    HW240120   3.021   7.301  10.787  0.5596 -0.6711  0.2602
12197SOL     OW40121   8.316   4.836   2.715 -0.0925 -0.4480  0.0109
12197SOL    HW140122   8.259   4.772   2.672 -0.4071 -1.9298  2.4657
12197SOL    HW240123   8.370   4.784   2.774  0.9624  1.3854  0.7374
12198SOL     OW40124   3.123   3.018   0.771 -0.8379  0.0625 -0.4247
12198SOL    HW140125   3.038   3.024   0.814 -0.5631 -1.4667  0.4308
12198SOL    HW240126   3.186   3.017   0.843 -0.1023  0.9239 -1.0340
12199SOL     OW40127   9.606   9.065   7.676  0.5894 -0.5467  0.2571
12199SOL    HW140128   9.516   9.078   7.704  1.1404 -0.3793  2.1464
12199SOL    HW240129   9.644   9.153   7.677  0.5228 -0.4667 -1.5871
12200SOL     OW40130   8.580   2.490   1.340  0.2308 -0.1821  0.0104
12200SOL    HW140131   8.625   2.439   1.407 -0.4523  0.2654  0.8394
12200SOL    HW240132   8.559   2.427   1.272 -0.9423 -1.1226  1.1924
12201SOL     OW40133   5.804   5.108   8.983 -0.1085 -0.0944  0.1047
12201SOL    HW140134   5.896   5.127   9.000 -0.0094 -0.3131 -0.1829
12201SOL    HW240135   5.799   5.096   8.889 -0.4876  0.2091  0.0843
12202SOL     OW40136   0.828  10.138   0.829  0.6495  0.1905 -0.3114
12202SOL    HW140137   0.752  10.093   0.865  1.3590 -0.3670  0.5250
12202SOL    HW240138   0.793  10.187   0.754 -0.7416  0.8115  0.6901
12203SOL     OW40139   9.045   0.367   5.039  0.4385 -0.1042 -0.0429
12203SOL    HW140140   8.977   0.422   5.000  0.8342  0.6192  0.2726
12203SOL    HW240141   9.080   0.419   5.111  3.4306  0.8748 -2.0006
12204SOL     OW40142   2.792   9.670   4.000  0.0785  0.1733  0.2680
12204SOL    HW140143   2.749   9.602   3.949 -0.5655 -0.0654  1.1125
12204SOL    HW240144   2.788   9.639   4.090 -1.4908  1.9620  0.8800
12205SOL     OW40145   2.288  10.557   7.404  0.1314  0.3922 -0.2900
12205SOL    HW140146   2.230  10.500   7.455  0.4586 -1.6162 -2.0448
12205SOL    HW240147   2.349  10.498   7.362  1.6982  2.2403 -0.7558
12206SOL     OW40148   8.116   0.932   2.685 -0.2057  0.3638  0.4749
12206SOL    HW140149   8.130   1.000   2.619 -0.7647 -0.1270 -0.1680
12206SOL    HW240150   8.021   0.933   2.701 -0.3195 -0.6907 -0.0336
12207SOL     OW40151   4.231   4.792   4.250 -0.1629  0.0170  0.1463
12207SOL    HW140152   4.319   4.757   4.251 -0.5024 -0.8639 -0.2521
12207SOL    HW240153   4.226   4.847   4.328  0.5501 -0.3797  0.4777
12208SOL     OW40154   7.945   7.815   3.950 -0.5529 -0.3651 -0.0190
12208SOL    HW140155   8.023   7.843   3.903 -0.8616 -1.4096 -1.1854
12208SOL    HW240156   7.872   7.835   3.891 -1.1250 -0.0796  0.7498
12209SOL     OW40157   3.235   9.408   2.556 -0.0310 -0.0237  0.3547
12209SOL    HW140158   3.323   9.375   2.540 -0.1643  0.4925 -1.8615
12209SOL    HW240159   3.233   9.494   2.513 -1.5696  0.0188  0.4235
12210SOL     OW40160   2.025   1.053   5.654  0.2169 -0.3264  0.8833
12210SOL    HW140161   1.944   1.085   5.693  0.7295  2.8834 -0.4114
12210SOL    HW240162   2.093   1.072   5.720  0.1782 -1.6235  1.3351
12211SOL     OW40163  10.114   0.544   4.845 -0.3392 -0.3362 -0.3307
12211SOL    HW140164  10.162   0.626   4.832  0.6293 -0.7679  0.3425
12211SOL    HW240165  10.098   0.541   4.940  0.5395 -1.3921 -0.1943
12212SOL     OW40166   4.190   2.820   3.904  0.0858 -0.5272  0.1112
12212SOL    HW140167   4.220   2.822   3.996  0.0635  1.1517  0.1225
12212SOL    HW240168   4.251   2.879   3.859 -0.2365 -0.9239 -0.8581
12213SOL     OW40169  10.717   7.178  10.416 -0.7776 -0.1064 -0.2216
12213SOL    HW140170  10.801   7.191  10.373 -0.1212  0.5773  1.2169
12213SOL    HW240171  10.652   7.198  10.348  0.2174  0.5855 -0.9937
12214SOL     OW40172   6.437   2.508   2.707  0.2107  0.0519 -0.0895
12214SOL    HW140173   6.525   2.492   2.740  0.2119  0.8926  0.3377
12214SOL    HW240174   6.449   2.523   2.613  0.3765 -0.9081 -0.2397
12215SOL     OW40175  11.049   4.248   3.353 -0.7236 -0.2390  0.1139
12215SOL    HW140176  10.955   4.228   3.348 -0.3587 -2.1197 -0.0621
12215SOL    HW240177  11.088   4.168   3.388  0.9896  0.0147 -1.1017
12216SOL     OW40178   8.940   6.628   9.657 -0.7578  0.1446  0.3183
12216SOL    HW140179   8.904   6.540   9.650 -2.3765  0.8715 -0.8405
12216SOL    HW240180   9.021   6.625   9.606 -0.0910 -0.9869  1.3789
12217SOL     OW40181  10.690   8.177   3.396 -0.1251  0.3602  0.1403
12217SOL    HW140182  10.606   8.187   3.441 -0.1392  0.9125 -0.0079
12217SOL    HW240183  10.708   8.263   3.359  0.2669  0.1106 -0.2514
12218SOL     OW40184   5.752   7.590   8.971 -0.3823 -0.4389 -0.5169
12218SOL    HW140185   5.666   7.565   9.005 -0.2018 -1.6469 -0.9043
12218SOL    HW240186   5.766   7.532   8.897 -0.5862  1.8451 -2.4789
12219SOL     OW40187   6.235   0.450  11.073 -0.3078  0.3709 -0.4596
12219SOL    HW140188   6.150   0.430  11.036 -0.2419  0.5818 -0.7291
12219SOL    HW240189   6.276   0.509  11.009 -0.2632  0.8731  0.0257
12220SOL     OW40190  10.089   9.497   4.047  0.0377 -0.0038  0.3767
12220SOL    HW140191  10.054   9.428   3.990  1.0900  0.4773 -0.8994
12220SOL    HW240192  10.029   9.498   4.122 -1.1981 -0.8974 -0.5426
12221SOL     OW40193   9.407   8.259   3.456  0.0372 -0.1077  0.0680
12221SOL    HW140194   9.477   8.294   3.402  0.6741 -0.8711  0.3773
12221SOL    HW240195   9.351   8.211   3.394 -0.0149  0.2003 -0.1231
12222SOL     OW40196   7.270   5.511   1.056  0.1876 -0.0654 -0.1379
12222SOL    HW140197   7.282   5.423   1.022  1.4527  0.1584 -0.3339
12222SOL    HW240198   7.182   5.536   1.029 -0.8967 -1.9145  1.4340
12223SOL     OW40199  11.100   5.449   9.661  0.2423 -0.5917 -0.2694
12223SOL    HW140200  11.124   5.379   9.721 -1.2951 -1.1757 -0.2995
12223SOL    HW240201  11.084   5.525   9.718 -1.3028 -1.1694  0.1079
12224SOL     OW40202   3.093  10.334   3.513 -0.0315 -0.1935  0.1466
12224SOL    HW140203   3.011  10.381   3.526  0.4782  0.4217  1.2859
12224SOL    HW240204   3.079  10.281   3.435 -0.4216  2.2776 -1.5505
12225SOL     OW40205   7.299  10.213  10.035  0.0325  0.1754  0.7416
12225SOL    HW140206   7.277  10.200  10.127  0.3880  0.4254  0.8668
12225SOL    HW240207   7.384  10.170  10.025 -0.3344 -0.4639  0.3582
12226SOL     OW40208   9.274   6.609   6.302 -0.2375 -0.1351  0.4824
12226SOL    HW140209   9.364   6.640   6.293 -0.3612  0.2958  0.7277
12226SOL    HW240210   9.222   6.688   6.321 -0.6421 -0.4006  0.5056
12227SOL     OW40211  10.903   9.817  10.320 -0.2149 -1.1613  0.1971
12227SOL    HW140212  10.907   9.800  10.414  2.2722  1.2504  0.6339
12227SOL    HW240213  10.812   9.842  10.305 -0.3349 -0.0820  2.2969
12228SOL     OW40214   6.139   0.281   4.320 -0.5728 -0.4994 -0.0332
12228SOL    HW140215   6.207   0.290   4.387 -1.3134  1.6426  0.4914
12228SOL    HW240216   6.083   0.211   4.352  1.1239 -2.0744 -0.3085
12229SOL     OW40217   9.864   9.721   8.343  0.6734 -0.0087 -0.1403
12229SOL    HW140218   9.937   9.767   8.384  0.6455  0.3752 -0.5130
12229SOL    HW240219   9.823   9.673   8.414 -0.1839  1.6840  0.5826
12230SOL     OW40220   5.530   6.914   3.039 -0.2051 -0.0026 -0.1645
12230SOL    HW140221   5.556   6.994   3.084  0.1374 -0.0918 -0.1945
12230SOL    HW240222   5.451   6.885   3.084 -0.0138  0.0514  0.2107
12231SOL     OW40223   6.810   4.145  10.886 -0.3615 -0.1051 -0.6495
12231SOL    HW140224   6.777   4.055  10.882  0.6953 -0.6810  1.7629
12231SOL    HW240225   6.893   4.143  10.838 -0.5401 -0.3091 -0.9526
12232SOL     OW40226   7.481   5.839   8.543 -0.2335 -0.0233  0.2311
12232SOL    HW140227   7.482   5.792   8.460 -1.9055  0.2992  0.0008
12232SOL    HW240228   7.499   5.772   8.609  0.2548 -0.4389 -0.3175
12233SOL     OW40229   9.671  10.850   1.086 -0.7896  0.6589 -0.1481
12233SOL    HW140230   9.678  10.896   1.002  0.5132  1.0552  0.1475
12233SOL    HW240231   9.579  10.857   1.110 -1.4489 -0.5025 -2.1069
12234SOL     OW40232   2.617  10.623  10.107  0.5916  0.0288  1.1214
12234SOL    HW140233   2.526  10.607  10.081  0.6117  1.0318  0.3615
12234SOL    HW240234   2.664  10.545  10.077  0.1979  0.0868  0.3159
12235SOL     OW40235   7.196   8.196   3.248 -0.2060 -0.1777  0.0092
12235SOL    HW140236   7.226   8.130   3.310 -0.8613 -0.9221 -0.4465
12235SOL    HW240237   7.202   8.279   3.296 -0.3229 -0.6881  0.9280
12236SOL     OW40238   3.096   7.330   2.683 -0.0372  0.2874  0.4709
12236SOL    HW140239   3.086   7.305   2.775 -0.8406 -1.0366  0.0571
12236SOL    HW240240   3.006   7.330   2.649 -0.0094  2.9317  0.1756
12237SOL     OW40241   7.674   9.100   0.234  0.0102  0.0542  0.3399
12237SOL    HW140242   7.582   9.089   0.211 -0.5878  2.8565  1.0260
12237SOL    HW240243   7.722   9.054   0.164 -1.8690 -1.2242 -0.1723
12238SOL     OW40244   4.210   8.304   4.997  0.2909 -0.8529  0.5642
12238SOL    HW140245   4.148   8.368   5.031  0.1648 -0.9348  0.4870
12238SOL    HW240246   4.236   8.337   4.912  1.5539  0.0059  1.2402
12239SOL     OW40247   4.990   8.588   2.200 -0.3401 -0.0368 -0.0630
12239SOL    HW140248   5.049   8.610   2.128 -0.2893 -0.6518 -0.2165
12239SOL    HW240249   4.917   8.649   2.191 -0.6212 -0.4958 -1.0012
12240SOL     OW40250   7.688   1.826   9.609 -0.2267  0.2954 -0.0248
12240SOL    HW140251   7.684   1.882   9.687  0.1240 -0.0263  0.2307
12240SOL    HW240252   7.769   1.777   9.620 -0.4354 -0.1219 -0.3430
12241SOL     OW40253   0.850  10.539  10.765 -0.2437  0.1890 -0.2858
12241SOL    HW140254   0.775  10.497  10.807 -0.2401  1.2826  0.8436
12241SOL    HW240255   0.925  10.515  10.820  0.0636  0.0973 -0.7342
12242SOL     OW40256   8.135   8.960  10.583  0.3750  0.4529  0.2089
12242SOL    HW140257   8.184   8.887  10.546 -2.2477 -1.0677 -0.5123
12242SOL    HW240258   8.101   9.008  10.508  0.6133  1.4218  0.6932
12243SOL     OW40259   4.035   8.579   3.304  0.0240 -0.2273  0.9882
12243SOL    HW140260   4.067   8.489   3.295  0.5369 -0.2484  2.6599
12243SOL    HW240261   3.942   8.573   3.281  0.4990 -0.7522 -0.9672
12244SOL     OW40262  11.017   8.473   4.399 -0.1378 -0.5986 -0.1545
12244SOL    HW140263  11.099   8.522   4.397 -0.4304 -0.1275 -0.7528
12244SOL    HW240264  11.036   8.392   4.351 -0.6376  0.5119 -2.3534
12245SOL     OW40265   2.194   9.846  10.181 -0.1382  0.5269  0.2361
12245SOL    HW140266   2.172   9.939  10.178 -2.6378  0.0354  1.2084
12245SOL    HW240267   2.143   9.807  10.111 -0.5030 -0.3381  0.9614
12246SOL     OW40268  10.514   7.646   4.820 -0.6639  0.5851  0.5556
12246SOL    HW140269  10.610   7.640   4.819 -0.7324 -0.7516  0.3318
12246SOL    HW240270  10.484   7.557   4.839 -1.8757  0.5212 -1.3092
12247SOL     OW40271   2.589   4.706   7.898 -0.6764  0.4977 -0.6152
12247SOL    HW140272   2.662   4.644   7.884 -0.5102  0.1446  1.4784
12247SOL    HW240273   2.626   4.791   7.874  0.3770  0.2865  0.1408
12248SOL     OW40274   7.158  10.627   8.171  0.1651 -0.4364  0.4174
12248SOL    HW140275   7.173  10.540   8.134 -0.8018  0.3251 -1.9294
12248SOL    HW240276   7.213  10.685   8.118  0.0257  0.5259  1.2924
12249SOL     OW40277   2.284   3.763   6.155 -0.2633 -0.2443  0.3249
12249SOL    HW140278   2.200   3.790   6.190 -0.3759 -0.6279  0.3605
12249SOL    HW240279   2.283   3.789   6.063  0.2833  1.3424  0.7397
12250SOL     OW40280   0.958   7.850  10.068 -0.2341  0.1907  0.0528
12250SOL    HW140281   0.870   7.830  10.037 -0.1134 -1.1552  0.5297
12250SOL    HW240282   0.969   7.944  10.050 -0.8797 -0.0998 -2.1813
12251SOL     OW40283  10.246   8.084   0.906 -0.1987  0.2298 -0.3419
12251SOL    HW140284  10.293   8.028   0.969  1.0722  0.3766 -1.1256
12251SOL    HW240285  10.192   8.140   0.961 -1.1806 -1.4340  0.4919
12252SOL     OW40286   7.872   8.070   4.936  0.0248 -0.0431 -0.6462
12252SOL    HW140287   7.902   8.060   5.026 -1.1190  0.8852 -0.1347
12252SOL    HW240288   7.785   8.030   4.934  0.2711 -0.5698 -1.4918
12253SOL     OW40289   5.428   3.131  10.319 -0.2377  0.5705  0.7787
12253SOL    HW140290   5.340   3.149  10.350 -0.1687  1.8301  0.3064
12253SOL    HW240291   5.484   3.188  10.371  0.3871 -0.6375  1.4790
12254SOL     OW40292   9.913   3.657   9.663 -0.9842  0.0318  0.5822
12254SOL    HW140293   9.847   3.639   9.729  0.6133 -0.7634  2.0117
12254SOL    HW240294   9.862   3.680   9.585 -2.9307 -0.4179  1.6512
12255SOL     OW40295   8.955   4.783   0.863  0.2663 -0.1599  0.0465
12255SOL    HW140296   8.900   4.763   0.787  1.0908  0.9293 -0.8875
12255SOL    HW240297   8.972   4.877   0.855  1.5245 -0.3112  0.8012
12256SOL     OW40298   2.154   6.786   4.498  0.3443 -0.5011 -0.3078
12256SOL    HW140299   2.240   6.825   4.481 -0.2367  0.2960 -1.5411
12256SOL    HW240300   2.164   6.743   4.583  1.1724  1.8946  0.8967
12257SOL     OW40301   6.319   2.734   0.836 -0.0560 -0.2505 -0.2413
12257SOL    HW140302   6.385   2.800   0.815 -0.7897  0.7873  0.6248
12257SOL    HW240303   6.281   2.763   0.919  0.5004 -2.4812  0.8687
12258SOL     OW40304   2.194   4.475   8.607  0.2926  0.3345  0.3991
12258SOL    HW140305   2.167   4.402   8.662 -2.7634  1.1525  0.1843
12258SOL    HW240306   2.194   4.439   8.518  1.9228 -0.1360  0.5574
12259SOL     OW40307   9.556   2.041  10.807 -0.2575  0.3504 -0.0562
12259SOL    HW140308   9.480   1.987  10.830 -0.4673  1.8615  3.4886
12259SOL    HW240309   9.525   2.131  10.818  1.4405  1.0873 -0.9210
12260SOL     OW40310   2.608   2.715   3.394  0.2004 -0.0037 -0.4815
12260SOL    HW140311   2.673   2.776   3.429  1.5999 -1.9179  0.4690
12260SOL    HW240312   2.562   2.764   3.326  0.0713  2.6242  1.3581
12261SOL     OW40313   6.349   8.140   9.952  0.0056  0.1752  0.3337
12261SOL    HW140314   6.418   8.163  10.015  1.9652 -1.1236 -1.2029
12261SOL    HW240315   6.378   8.182   9.871 -0.7135 -0.8730 -0.4820
12262SOL     OW40316   6.125   6.195   9.934  0.0570 -0.3964 -0.0844
12262SOL    HW140317   6.126   6.276   9.883 -0.9102 -0.7737 -0.7187
12262SOL    HW240318   6.210   6.194   9.978  0.6425  0.2792 -1.1465
12263SOL     OW40319   8.007   3.039   4.586  0.0342 -0.1173 -0.0391
12263SOL    HW140320   8.015   2.975   4.515  0.1091 -1.7302  1.3755
12263SOL    HW240321   7.914   3.058   4.591  0.0144 -0.0887 -0.4670
12264SOL     OW40322   7.476   9.564   8.251  0.6381 -0.1004  0.5517
12264SOL    HW140323   7.445   9.495   8.310 -1.5433 -0.5773 -1.0234
12264SOL    HW240324   7.505   9.518   8.172  0.3399  0.6980 -0.0397
12265SOL     OW40325   5.048   9.370   9.298  0.0369 -0.2640 -0.1829
12265SOL    HW140326   5.117   9.339   9.357 -1.2230 -0.1378  1.4258
12265SOL    HW240327   5.043   9.303   9.230 -0.3128 -1.8988  1.3751
12266SOL     OW40328   3.111  10.786   5.150 -0.0434 -0.1787 -0.0147
12266SOL    HW140329   3.114  10.760   5.242  0.7676 -1.1563 -0.2969
12266SOL    HW240330   3.104  10.881   5.152 -0.6287 -0.2237  1.0561
12267SOL     OW40331   1.824   6.135   3.716  0.7744  0.2870 -0.2794
12267SOL    HW140332   1.827   6.224   3.679 -0.4787  0.2078 -0.6111
12267SOL    HW240333   1.775   6.084   3.652 -1.2013  0.0696  1.3060
12268SOL     OW40334   7.942   0.742   6.273  0.1750 -0.3199 -0.3399
12268SOL    HW140335   7.895   0.695   6.342 -1.7633  0.7187 -0.8910
12268SOL    HW240336   7.905   0.708   6.191  0.8613  0.0697 -0.8237
12269SOL     OW40337   7.804   7.444  10.941 -0.3288  0.0410 -0.2963
12269SOL    HW140338   7.849   7.497  11.006  1.7429 -0.6031 -1.1206
12269SOL    HW240339   7.871   7.385  10.907 -1.9626 -1.4219 -1.1699
12270SOL     OW40340   0.150   8.540   7.847  0.4877  0.0782 -0.0495
12270SOL    HW140341   0.145   8.468   7.784  1.3957 -0.8053  0.8664
12270SOL    HW240342   0.228   8.522   7.899 -0.2460  0.7756  1.3511
12271SOL     OW40343   0.490   0.570   2.597 -0.3137 -0.6194  0.6432
12271SOL    HW140344   0.495   0.475   2.588  0.1191 -0.5025 -0.4507
12271SOL    HW240345   0.480   0.603   2.508  0.6067  0.4142  0.8903
12272SOL     OW40346   0.399   1.940   1.523  0.2203 -0.1346  0.5848
12272SOL    HW140347   0.335   1.916   1.456  0.9227 -1.0301  0.2223
12272SOL    HW240348   0.349   1.942   1.604 -0.4320 -0.0319  0.1895
12273SOL     OW40349  10.500   4.756   7.364  0.0022 -0.6416 -0.3098
12273SOL    HW140350  10.458   4.745   7.279 -3.1238 -1.9871  1.2641
12273SOL    HW240351  10.519   4.667   7.393  2.0327 -0.1619  0.0297
12274SOL     OW40352   1.086   0.911   4.592 -0.1675  0.9254 -0.4373
12274SOL    HW140353   1.065   1.003   4.576  0.9874  1.1741 -0.6322
12274SOL    HW240354   1.108   0.907   4.685 -0.7887  0.7194 -0.2937
12275SOL     OW40355   1.550   2.585   6.609 -0.3873  0.4943 -0.5341
12275SOL    HW140356   1.534   2.543   6.525  2.3695  0.7763 -1.2778
12275SOL    HW240357   1.645   2.582   6.621 -0.5339  2.0197  1.7568
12276SOL     OW40358   5.538   9.684   2.809 -0.4692 -0.3080  0.1667
12276SOL    HW140359   5.525   9.776   2.831 -1.1760 -0.1836 -0.7261
12276SOL    HW240360   5.457   9.641   2.834 -0.9203 -0.3282 -1.2183
12277SOL     OW40361   3.152   0.890   9.763  0.1054  0.2843  0.0475
12277SOL    HW140362   3.158   0.900   9.858 -0.2831  1.0682 -0.0039
12277SOL    HW240363   3.239   0.860   9.737  0.5605  1.1292  0.5357
12278SOL     OW40364   7.447   2.136   1.293  0.1569 -0.2193 -0.6127
12278SOL    HW140365   7.456   2.219   1.340  1.9896 -1.2293  0.9498
12278SOL    HW240366   7.381   2.088   1.342 -0.1445 -0.1006 -0.8988
12279SOL     OW40367   2.304   6.809   5.519  0.0103 -0.0021  0.3850
12279SOL    HW140368   2.238   6.802   5.588  1.0773  0.5455  1.4932
12279SOL    HW240369   2.387   6.817   5.565  0.5453  3.3230 -0.8044
12280SOL     OW40370   7.923   4.592   8.926 -0.5733 -0.3574 -0.7637
12280SOL    HW140371   8.012   4.561   8.913 -0.8512 -2.1918  1.2309
12280SOL    HW240372   7.923   4.681   8.891  2.9808  1.0222  2.1277
12281SOL     OW40373   9.300   2.379   0.621  0.4596  0.1341  1.1347
12281SOL    HW140374   9.346   2.458   0.649  1.3690  0.5328 -1.2378
12281SOL    HW240375   9.300   2.323   0.698 -0.3351  2.4471  2.9377
12282SOL     OW40376   1.716   1.745   7.071  0.1582  0.1372  0.4970
12282SOL    HW140377   1.736   1.783   7.156  0.5391  0.4180  0.2828
12282SOL    HW240378   1.630   1.704   7.083  0.6417 -0.6639  1.2835
12283SOL     OW40379   0.646  10.757   8.982 -0.1482 -0.6371  0.1154
12283SOL    HW140380   0.595  10.751   8.902 -0.0925 -0.3531  0.0585
12283SOL    HW240381   0.734  10.729   8.957 -0.1024 -0.4339  0.0512
12284SOL     OW40382   3.508   5.990   6.791  0.2536  0.2573 -0.6245
12284SOL    HW140383   3.435   6.049   6.810 -1.2278 -1.1896 -1.5901
12284SOL    HW240384   3.571   6.045   6.745 -0.6498  1.3242 -0.6480
12285SOL     OW40385   9.257   3.932   0.007 -0.2198 -0.6144  0.0243
12285SOL    HW140386   9.324   3.886   0.057 -0.0592 -0.8532 -0.4067
12285SOL    HW240387   9.282   4.024   0.011 -0.9218 -0.4726  1.4730
12286SOL     OW40388   8.165   2.631   5.906  0.4165  0.5857 -0.2975
12286SOL    HW140389   8.217   2.681   5.969 -0.9771  1.4448  0.2104
12286SOL    HW240390   8.075   2.642   5.935 -0.1854  0.2294 -1.9266
12287SOL     OW40391   7.114   8.326   4.609 -0.7382  0.1951  0.3161
12287SOL    HW140392   7.161   8.243   4.612  0.4576  0.8391  0.1661
12287SOL    HW240393   7.137   8.370   4.691 -0.6224  0.7549 -0.0082
12288SOL     OW40394   4.744   5.441   9.145  0.4265 -0.5184 -0.1253
12288SOL    HW140395   4.689   5.409   9.074 -0.4269 -1.3331  0.8625
12288SOL    HW240396   4.694   5.513   9.184  1.2222  0.4225 -0.7822
12289SOL     OW40397   3.919   2.796   1.426  0.0054  0.3740 -0.3243
12289SOL    HW140398   3.876   2.754   1.500  0.8133 -0.8911 -0.5468
12289SOL    HW240399   3.953   2.878   1.461 -0.0271  0.0132  0.5812
12290SOL     OW40400   9.285   4.058   2.943  0.2144  0.5250  0.2078
12290SOL    HW140401   9.250   4.016   3.022 -0.7258  2.8194  1.0870
12290SOL    HW240402   9.380   4.054   2.953  0.1552 -0.9066  0.4763
12291SOL     OW40403   4.565   0.707   5.556  0.1500 -0.0968 -0.3861
12291SOL    HW140404   4.633   0.731   5.493 -0.5614 -0.9588 -1.5022
12291SOL    HW240405   4.490   0.760   5.531 -0.8518 -2.0613 -1.7185
12292SOL     OW40406   7.068   5.326   9.605 -0.1329 -0.0750  0.1860
12292SOL    HW140407   7.032   5.408   9.570 -1.9862 -0.3078  1.4245
12292SOL    HW240408   7.122   5.354   9.679 -0.5575  0.0623  0.4498
12293SOL     OW40409  11.036   9.678   9.549 -0.3608 -0.2641  0.1182
12293SOL    HW140410  11.066   9.769   9.545  0.3219 -0.4389  0.9757
12293SOL    HW240411  11.109   9.627   9.514 -1.1127 -0.4311 -1.2765
12294SOL     OW40412  10.641   5.459   1.590  0.0956 -0.3945 -1.0745
12294SOL    HW140413  10.648   5.365   1.610 -4.0731 -0.8396 -0.7988
12294SOL    HW240414  10.581   5.493   1.656  1.2016  2.4495 -1.4183
12295SOL     OW40415   8.048   8.717   4.915  0.3270  0.0167 -0.4004
12295SOL    HW140416   7.966   8.763   4.899  0.7642  1.8678  1.9827
12295SOL    HW240417   8.097   8.726   4.833 -0.8649  1.0804 -1.0352
12296SOL     OW40418   2.951   0.024   5.757  1.0290 -0.4217 -0.1220
12296SOL    HW140419   2.981   0.109   5.724  0.2918 -0.0564  0.1219
12296SOL    HW240420   2.926  -0.025   5.679 -0.6811  0.4272 -0.1562
12297SOL     OW40421   1.664   6.475   9.378  0.2297  0.1068 -0.1887
12297SOL    HW140422   1.584   6.443   9.337  0.3630  0.9074 -1.1061
12297SOL    HW240423   1.725   6.488   9.306  1.2260 -0.5501  0.5043
12298SOL     OW40424   3.566  10.976   5.125 -0.3954 -0.5349 -0.6114
12298SOL    HW140425   3.604  11.029   5.056 -0.4550  0.7515  0.3055
12298SOL    HW240426   3.474  10.967   5.100 -1.1914  2.4993  0.6979
12299SOL     OW40427   5.968   6.951   1.830  0.0298 -0.0732 -0.3153
12299SOL    HW140428   6.015   7.011   1.772 -0.2764  1.7276  1.2088
12299SOL    HW240429   5.875   6.969   1.814 -0.0642 -0.0707  0.2115
12300SOL     OW40430  10.044   0.551   5.116 -0.7585 -0.8495  0.2404
12300SOL    HW140431  10.046   0.484   5.184 -2.9776  1.2039  2.5531
12300SOL    HW240432  10.076   0.630   5.159 -0.1089  0.0807 -1.8061
12301SOL     OW40433   0.740   5.117   7.065 -0.5048  0.1706  0.6705
12301SOL    HW140434   0.713   5.031   7.032  0.4862  0.1486 -0.1299
12301SOL    HW240435   0.755   5.102   7.159  1.8282 -1.1358  0.1681
12302SOL     OW40436   6.322   8.190   1.413 -1.1072  0.1307  0.1917
12302SOL    HW140437   6.252   8.206   1.475 -1.0950  1.8824 -0.1820
12302SOL    HW240438   6.401   8.186   1.466 -1.4093 -1.4494  0.5711
12303SOL     OW40439   4.999   0.669   2.117  0.0377 -0.2293 -0.4361
12303SOL    HW140440   5.028   0.634   2.201 -0.4446  0.4771  0.0382
12303SOL    HW240441   5.064   0.637   2.054  0.3476 -0.8478  0.1843
12304SOL     OW40442   7.375   5.724   3.094 -0.0415 -0.0392  0.1890
12304SOL    HW140443   7.425   5.647   3.068  0.7482 -0.4082  2.5701
12304SOL    HW240444   7.424   5.760   3.168 -1.6561  1.3918  0.6098
12305SOL     OW40445   9.639  10.111  10.934 -0.2376 -0.1124  0.1124
12305SOL    HW140446   9.574  10.086  10.869  0.3214  1.3901 -1.0849
12305SOL    HW240447   9.710  10.048  10.922 -1.2477 -1.5028  1.1469
12306SOL     OW40448   5.428   6.494   4.193 -0.1010  0.1948  0.6580
12306SOL    HW140449   5.387   6.446   4.265 -1.6693  1.0733  0.4103
12306SOL    HW240450   5.430   6.585   4.224 -0.9073  0.5969 -0.4372
12307SOL     OW40451   6.851   6.810   5.875  0.1901 -0.4417  0.4782
12307SOL    HW140452   6.828   6.884   5.820  2.0360 -1.2991 -1.6001
12307SOL    HW240453   6.942   6.827   5.902  1.6866 -3.0035 -2.2583
12308SOL     OW40454   0.345   9.828   3.123  0.4282 -0.1944  0.2570
12308SOL    HW140455   0.272   9.780   3.083  0.5633  0.5006 -0.8658
12308SOL    HW240456   0.332   9.817   3.217 -0.9929 -0.2720  0.0701
12309SOL     OW40457   9.455   9.497   5.621 -0.0619  0.8594  0.3373
12309SOL    HW140458   9.403   9.417   5.625  0.5742  0.4859  1.6685
12309SOL    HW240459   9.409   9.560   5.676 -0.4753  1.3747 -0.5772
12310SOL     OW40460   2.536  10.348   9.017  0.0755  0.1509 -0.0134
12310SOL    HW140461   2.509  10.420   8.960  0.4099 -0.1858 -0.6009
12310SOL    HW240462   2.456  10.295   9.029 -0.1794  0.6282  0.4498
12311SOL     OW40463   2.076   8.314   2.636 -0.1308  0.5011 -0.2576
12311SOL    HW140464   2.119   8.238   2.596  2.7047 -0.3329  3.7663
12311SOL    HW240465   2.032   8.278   2.714 -0.9857  2.6591  0.3201
12312SOL     OW40466   8.636   2.541   0.615  0.1073 -0.2717 -0.3736
12312SOL    HW140467   8.576   2.477   0.577 -1.5403  1.2939 -0.5444
12312SOL    HW240468   8.703   2.554   0.547 -1.1686  0.3157 -1.5643
12313SOL     OW40469   6.650   5.990   7.264 -0.1781 -0.0538  0.4254
12313SOL    HW140470   6.666   5.915   7.206 -1.7317  0.2791 -0.5033
12313SOL    HW240471   6.563   6.021   7.239 -0.0468  1.3600  1.5884
12314SOL     OW40472   1.330   5.673   4.696  0.0084 -0.0725 -0.3169
12314SOL    HW140473   1.242   5.663   4.661 -0.0099  1.5986 -0.8214
12314SOL    HW240474   1.343   5.767   4.704  1.7136 -0.2797 -0.1430
12315SOL     OW40475   4.446   6.905   4.629  0.1006 -0.2375  0.4208
12315SOL    HW140476   4.460   6.892   4.723  0.1832  4.6550  1.3604
12315SOL    HW240477   4.534   6.916   4.593 -0.0415  0.5009  0.2939
12316SOL     OW40478   4.355   4.576   3.888 -0.0015  0.1705  0.0511
12316SOL    HW140479   4.401   4.630   3.823 -1.2679  2.3730  0.8480
12316SOL    HW240480   4.263   4.582   3.862 -0.3211 -0.4711  0.9889
12317SOL     OW40481   2.361   6.455   6.668 -0.2875  0.1509  0.1251
12317SOL    HW140482   2.378   6.518   6.599  2.7078 -1.7191 -1.0554
12317SOL    HW240483   2.320   6.381   6.624 -0.8331 -0.0004  0.8647
12318SOL     OW40484   3.452   6.333   6.493  0.2179 -0.3039 -0.6466
12318SOL    HW140485   3.498   6.355   6.412 -0.9938 -1.1817 -1.6159
12318SOL    HW240486   3.521   6.306   6.553  1.0245 -1.1143 -1.8877
12319SOL     OW40487   5.337  10.906   8.535 -0.0784  0.0626  0.0171
12319SOL    HW140488   5.289  10.920   8.617  2.4743 -2.3710  2.1659
12319SOL    HW240489   5.302  10.824   8.500  0.3811 -0.1184 -0.0359
12320SOL     OW40490   0.872   3.015  10.374  0.3882  0.2596  0.2049
12320SOL    HW140491   0.929   2.943  10.401  1.6415  1.4549  0.8848
12320SOL    HW240492   0.924   3.063  10.310 -0.4764  0.5116 -0.3250
12321SOL     OW40493   2.013   7.553   6.592  0.6118  0.1455  0.1544
12321SOL    HW140494   1.954   7.502   6.536 -1.2810  0.8434  1.4068
12321SOL    HW240495   1.979   7.539   6.680  2.2182  0.7855  0.8994
12322SOL     OW40496   0.954   1.434   7.919  0.7352 -0.0471  0.3752
12322SOL    HW140497   0.934   1.415   7.827  1.4993  0.6697  0.0552
12322SOL    HW240498   1.049   1.444   7.922  0.7237 -0.1017  1.2571
12323SOL     OW40499   7.606   8.148  10.856  0.1631  0.6468  0.4481
12323SOL    HW140500   7.515   8.156  10.884 -0.3822 -0.4560 -0.8768
12323SOL    HW240501   7.617   8.056  10.834  1.5588  0.7873  0.4197
12324SOL     OW40502   3.545   2.695   2.323  0.0007  0.3639  0.3762
12324SOL    HW140503   3.600   2.746   2.383  0.6615 -0.2366  0.2943
12324SOL    HW240504   3.588   2.610   2.318 -1.5443 -0.5088  1.1762
12325SOL     OW40505   8.228   4.255   9.557 -0.0145 -0.2356  0.4634
12325SOL    HW140506   8.315   4.231   9.588  0.4832 -0.3110 -0.9305
12325SOL    HW240507   8.243   4.300   9.474 -1.4131 -3.1646 -1.5851
12326SOL     OW40508  10.150   3.144   7.764 -0.4709 -0.1460  0.4557
12326SOL    HW140509  10.122   3.210   7.827  0.8315 -0.2201  1.1690
12326SOL    HW240510  10.112   3.062   7.796 -1.3541  0.1090  0.0730
12327SOL     OW40511   3.344   7.597   8.664  0.0049  0.0834 -0.2646
12327SOL    HW140512   3.293   7.663   8.616 -1.3653 -1.4450 -1.0278
12327SOL    HW240513   3.278   7.536   8.696  1.3569 -2.2514 -1.6706
12328SOL     OW40514   1.071   8.491   1.772 -0.1375  0.1918  0.1747
12328SOL    HW140515   1.116   8.416   1.734  1.2915  0.2321  1.6691
12328SOL    HW240516   1.140   8.541   1.816 -1.4080  1.1378  1.1946
12329SOL     OW40517  11.040   3.055   2.651  0.2690  0.2085  0.1353
12329SOL    HW140518  10.952   3.024   2.629  0.0260  0.4375  0.7541
12329SOL    HW240519  11.031   3.090   2.740  1.0862 -0.1890  0.3874
12330SOL     OW40520   0.140   4.083   9.744  0.1868 -0.2091 -0.0203
12330SOL    HW140521   0.086   4.020   9.793 -1.7112  0.4205 -1.2114
12330SOL    HW240522   0.096   4.092   9.660  1.5740  1.1760 -0.6364
12331SOL     OW40523   6.728  10.229   0.303 -0.4790  0.7787  0.6856
12331SOL    HW140524   6.774  10.294   0.249  0.8147 -1.3465 -0.9685
12331SOL    HW240525   6.657  10.198   0.247 -0.2372 -0.1822  0.8933
12332SOL     OW40526   6.351   7.678   6.240  0.2599  0.2940 -0.0999
12332SOL    HW140527   6.270   7.680   6.291  0.2591  0.0548 -0.0934
12332SOL    HW240528   6.412   7.626   6.293  1.0801  2.1337  0.8742
12333SOL     OW40529   8.560   7.249   1.362 -0.0063  0.0301  0.5184
12333SOL    HW140530   8.478   7.220   1.402  0.1198  1.4676  1.9281
12333SOL    HW240531   8.533   7.294   1.282 -0.7133  1.4171  1.5026
12334SOL     OW40532   4.188   0.788  10.255  0.6395 -0.3955 -0.5907
12334SOL    HW140533   4.244   0.862  10.231 -0.8181  0.9886  0.0569
12334SOL    HW240534   4.136   0.770  10.177 -1.1776  1.3705  0.1227
12335SOL     OW40535   7.088   1.607   3.457  0.4458  0.3998 -1.1401
12335SOL    HW140536   7.129   1.521   3.452  0.5100  0.3638 -0.0466
12335SOL    HW240537   7.069   1.629   3.365  0.2415 -0.8492 -1.4120
12336SOL     OW40538   5.216   1.079   5.208  0.6161  0.7265 -0.1043
12336SOL    HW140539   5.170   1.129   5.274  0.9409  0.3234  0.4398
12336SOL    HW240540   5.291   1.134   5.184 -1.0321  2.1902 -2.2834
12337SOL     OW40541   2.920  10.281   6.677  0.6822 -0.2769 -0.2214
12337SOL    HW140542   2.856  10.338   6.719  0.6638 -0.4693  0.0146
12337SOL    HW240543   2.900  10.288   6.583  0.2686 -0.3896 -0.1468
12338SOL     OW40544   9.676   7.193  10.514 -0.6350  0.0893  0.2917
12338SOL    HW140545   9.755   7.184  10.567 -0.4951 -0.6126 -0.0310
12338SOL    HW240546   9.628   7.265  10.554 -2.1887 -2.4726  3.4830
12339SOL     OW40547   4.320  10.962   9.807  0.0412 -1.0349 -0.3906
12339SOL    HW140548   4.382  10.967   9.879 -3.2637  0.6888  2.6233
12339SOL    HW240549   4.294  10.870   9.804  1.2805 -1.3996 -0.4529
12340SOL     OW40550  10.250   6.637   8.746  0.4159 -0.0264  0.4817
12340SOL    HW140551  10.280   6.665   8.832  0.3901  0.5877  0.3009
12340SOL    HW240552  10.157   6.616   8.758  0.2304  0.7500  0.4600
12341SOL     OW40553   9.772  10.650   0.001  0.8021  0.2281 -0.8640
12341SOL    HW140554   9.867  10.648  -0.011  0.7530 -0.5156 -1.1906
12341SOL    HW240555   9.758  10.619   0.091  0.8404 -0.2832 -1.0303
12342SOL     OW40556   8.690   0.761   3.256 -0.0821 -0.6204 -0.6489
12342SOL    HW140557   8.749   0.836   3.257 -1.0087  0.1294 -1.3423
12342SOL    HW240558   8.746   0.687   3.231  0.9641 -0.2927  0.6221
12343SOL     OW40559   8.072   9.358   2.135 -0.5135 -0.4062 -0.4142
12343SOL    HW140560   8.015   9.300   2.085 -0.1379 -1.3501  0.2321
12343SOL    HW240561   8.144   9.302   2.164  0.1832  0.5278 -0.3076
12344SOL     OW40562   9.814  10.778   5.055  0.0217  0.0671  0.4636
12344SOL    HW140563   9.795  10.841   5.125 -0.9110  1.6436 -1.1310
12344SOL    HW240564   9.727  10.747   5.027  0.4187 -1.0264  0.3733
12345SOL     OW40565   9.246   5.744   7.718  0.4169 -0.1433  0.0843
12345SOL    HW140566   9.225   5.669   7.663 -2.4414  0.5223  0.1385
12345SOL    HW240567   9.223   5.820   7.665  0.4758  0.6170  1.1102
12346SOL     OW40568   3.587   5.655   0.682  0.2228  0.5122  0.2971
12346SOL    HW140569   3.543   5.718   0.625 -2.0276 -1.0178  0.2198
12346SOL    HW240570   3.555   5.676   0.770 -1.9116 -1.4443  0.0892
12347SOL     OW40571   8.991   5.404   8.453 -0.2110  0.3304  0.2010
12347SOL    HW140572   9.053   5.448   8.512 -0.8794  0.9356  0.4609
12347SOL    HW240573   8.945   5.475   8.408 -1.0133 -0.1040  0.3189
12348SOL     OW40574   9.131   6.160   3.336 -0.2816  0.3078  0.1603
12348SOL    HW140575   9.202   6.113   3.380 -1.1227 -0.4602  0.7422
12348SOL    HW240576   9.075   6.190   3.408 -0.3110  1.3054 -0.2673
12349SOL     OW40577   1.198   9.115   3.858 -0.7542  0.4654  0.2301
12349SOL    HW140578   1.159   9.188   3.907 -1.0847  1.2092 -1.0896
12349SOL    HW240579   1.260   9.157   3.798  0.4417 -0.5159  0.7336
12350SOL     OW40580   1.797   0.577   7.927  0.1499 -0.3772 -0.0443
12350SOL    HW140581   1.844   0.540   7.852 -0.9427 -1.6534 -0.1426
12350SOL    HW240582   1.805   0.510   7.995  0.4994  0.4512  0.7598
12351SOL     OW40583   0.243   2.925   1.757  0.3022  0.0110 -0.0376
12351SOL    HW140584   0.264   2.875   1.679  2.6169 -0.5202  0.8573
12351SOL    HW240585   0.251   3.017   1.730  0.4065 -0.1538 -0.5683
12352SOL     OW40586   6.046   8.185   5.999 -0.2901 -0.2120  0.2306
12352SOL    HW140587   6.091   8.211   5.918 -1.3189 -0.5679 -0.4763
12352SOL    HW240588   6.108   8.207   6.068 -0.5371  2.8787 -0.3995
12353SOL     OW40589   9.570   1.884   0.815 -0.0308  0.2127 -0.4358
12353SOL    HW140590   9.591   1.904   0.906 -0.2558  0.5640 -0.4584
12353SOL    HW240591   9.586   1.965   0.768 -0.1433  0.1010 -0.6689
12354SOL     OW40592   6.299   7.535   5.665  0.0180  0.3408  0.3027
12354SOL    HW140593   6.381   7.520   5.711  0.0200 -0.8004 -0.0371
12354SOL    HW240594   6.306   7.624   5.631  1.3546  0.0750 -0.1762
12355SOL     OW40595   6.522   6.018   7.839 -0.8319 -0.2105 -0.4714
12355SOL    HW140596   6.575   5.989   7.765 -0.1038 -3.3447  1.1150
12355SOL    HW240597   6.475   6.094   7.806  1.1880 -0.0542 -3.3901
12356SOL     OW40598   4.778   5.624   2.071  0.0197 -0.3991 -0.5016
12356SOL    HW140599   4.746   5.623   2.161 -0.5009  2.6115 -0.5664
12356SOL    HW240600   4.703   5.655   2.019  0.4875 -1.5266 -1.9146
12357SOL     OW40601   6.273   4.868   2.452 -0.0049 -0.6126  0.1720
12357SOL    HW140602   6.287   4.896   2.543 -0.1712  0.2180 -0.0505
12357SOL    HW240603   6.283   4.948   2.401 -1.0724 -0.8443 -0.4304
12358SOL     OW40604   4.729   2.104   3.177 -0.4722  0.5773  0.0531
12358SOL    HW140605   4.724   2.090   3.082  1.7251 -1.0318  0.1070
12358SOL    HW240606   4.795   2.172   3.189 -2.8162  2.9866  0.4016
12359SOL     OW40607   9.129   3.187   0.487 -0.2426  0.0097  0.2463
12359SOL    HW140608   9.185   3.150   0.418 -0.1604  0.8653 -0.1545
12359SOL    HW240609   9.043   3.151   0.469 -0.0358 -0.4988  0.2490
12360SOL     OW40610   1.039   0.090   8.593 -0.6269 -0.3613  0.4862
12360SOL    HW140611   1.061   0.101   8.686  0.8294 -0.1219  0.1491
12360SOL    HW240612   0.947   0.116   8.586 -0.8657 -0.7355  1.9158
12361SOL     OW40613   6.936   4.989   9.279  0.8534  0.0252 -0.4719
12361SOL    HW140614   6.941   5.057   9.211  1.4491 -0.2550 -0.7202
12361SOL    HW240615   6.896   4.914   9.235  0.7644  0.0138 -0.3710
12362SOL     OW40616   7.998   7.014   3.296  0.2828  0.0435 -0.0598
12362SOL    HW140617   7.957   7.064   3.367  1.3984  1.2956 -0.2680
12362SOL    HW240618   8.090   7.009   3.320  1.0294  1.9072 -2.1527
12363SOL     OW40619   7.333   4.193   6.483 -0.1491 -0.2969 -0.5214
12363SOL    HW140620   7.285   4.243   6.417 -3.5588  1.5125  2.8561
12363SOL    HW240621   7.301   4.104   6.473  0.8100 -0.4827 -2.3515
12364SOL     OW40622   7.703   0.294   5.279 -0.0572  0.5125  0.0942
12364SOL    HW140623   7.744   0.273   5.196 -0.3264  0.7953 -0.1162
12364SOL    HW240624   7.700   0.390   5.281  0.6342  0.5294  0.7707
12365SOL     OW40625   2.309   2.492   7.707  0.9422 -0.3382 -0.3316
12365SOL    HW140626   2.353   2.577   7.709  0.8753 -0.3036  1.9676
12365SOL    HW240627   2.236   2.506   7.646 -1.7285  2.7488  3.0960
12366SOL     OW40628   5.391   7.618   0.863  0.1188 -0.0438  0.5029
12366SOL    HW140629   5.429   7.626   0.775  1.5355  0.2025  1.1177
12366SOL    HW240630   5.299   7.644   0.851  0.2914  0.0220 -0.8951
12367SOL     OW40631   4.560   5.672   2.491  0.6899  0.4080 -0.4208
12367SOL    HW140632   4.594   5.640   2.575  1.2679 -0.2294 -0.8854
12367SOL    HW240633   4.465   5.673   2.503  0.7963  1.0656  0.4964
12368SOL     OW40634   3.227   0.164   8.778 -0.1184 -0.0076 -0.3536
12368SOL    HW140635   3.154   0.217   8.809  0.7506  1.4212 -0.6897
12368SOL    HW240636   3.297   0.180   8.841  0.3644 -0.2661 -0.8171
12369SOL     OW40637  10.159   6.124   8.894 -0.5406  0.2057  0.2231
12369SOL    HW140638  10.081   6.105   8.841 -0.3526 -1.5622  0.5341
12369SOL    HW240639  10.142   6.082   8.978  0.4910  0.3574  0.5207
12370SOL     OW40640   8.115   8.536   5.809  0.0053 -0.3372  0.3206
12370SOL    HW140641   8.144   8.445   5.807 -1.1759 -0.7308  0.7151
12370SOL    HW240642   8.069   8.545   5.893 -2.2883 -0.1599 -0.8775
12371SOL     OW40643   0.671  10.864   4.835 -0.1803 -0.7954  0.0945
12371SOL    HW140644   0.740  10.918   4.798  0.2381  1.2317  3.4118
12371SOL    HW240645   0.677  10.879   4.929 -3.3564 -2.7596  0.7551
12372SOL     OW40646   1.512   8.955   3.859  0.3232  0.0648  0.2887
12372SOL    HW140647   1.555   9.030   3.900  0.8713  0.0671 -0.2645
12372SOL    HW240648   1.459   8.993   3.789 -2.4620  0.2975  2.3764
12373SOL     OW40649  10.118   5.514   3.088  0.2704 -0.0737 -0.1239
12373SOL    HW140650  10.064   5.564   3.149 -0.7726  0.3325 -1.3359
12373SOL    HW240651  10.126   5.427   3.128 -2.0304 -0.4268 -0.3039
12374SOL     OW40652   9.142  10.576  10.596 -0.6619  0.2304  0.0380
12374SOL    HW140653   9.048  10.573  10.580 -0.5213 -0.3382 -0.7325
12374SOL    HW240654   9.172  10.654  10.548 -0.6392  0.0060 -0.3190
12375SOL     OW40655   1.209   3.319   6.138 -0.6943 -0.3825 -0.0786
12375SOL    HW140656   1.284   3.274   6.099 -0.3015  1.2897 -1.3560
12375SOL    HW240657   1.227   3.318   6.232  0.7100 -0.3869 -0.3243
12376SOL     OW40658   7.033   6.267   3.110  0.6116  0.1013  0.3580
12376SOL    HW140659   6.969   6.285   3.179  1.0021 -0.7099  0.9358
12376SOL    HW240660   7.115   6.302   3.144  0.2128  2.8316 -1.1334
12377SOL     OW40661   6.996   9.849   3.338 -0.1492 -0.3273 -0.1245
12377SOL    HW140662   6.958   9.912   3.277  0.0061 -1.5001 -1.5009
12377SOL    HW240663   6.932   9.842   3.409 -0.7970  0.3609 -0.6273
12378SOL     OW40664   4.074   0.206   2.125 -0.0321 -0.0582  0.0833
12378SOL    HW140665   4.138   0.272   2.152  0.8372 -0.6268 -0.5420
12378SOL    HW240666   4.112   0.123   2.154 -0.5339 -0.3974 -0.2182
12379SOL     OW40667   4.707   4.616  10.691 -0.2772  0.4376  0.3260
12379SOL    HW140668   4.688   4.522  10.680  1.0708 -0.0350  1.7133
12379SOL    HW240669   4.626   4.652  10.728  0.2430 -0.8936  3.0144
12380SOL     OW40670   5.958   3.031   7.739  0.1193 -0.3470  0.5453
12380SOL    HW140671   5.971   2.945   7.779 -0.2795 -1.1567 -0.9709
12380SOL    HW240672   5.886   3.070   7.789  0.1398 -0.9946  1.0966
12381SOL     OW40673   5.122   7.475   8.307 -0.3355  0.3909  0.1821
12381SOL    HW140674   5.215   7.459   8.291 -0.1256  0.1926  1.4862
12381SOL    HW240675   5.078   7.406   8.257  0.2507  0.0392  0.1292
12382SOL     OW40676   8.380   5.556   1.269  0.2871 -0.4328 -0.3438
12382SOL    HW140677   8.352   5.523   1.354 -0.8138  1.6274  0.1565
12382SOL    HW240678   8.444   5.625   1.289  0.1736 -0.0594 -1.1778
12383SOL     OW40679   7.323   6.304   3.849 -0.0668  0.0497  0.1248
12383SOL    HW140680   7.367   6.220   3.860 -1.8731 -1.3979 -2.6157
12383SOL    HW240681   7.371   6.348   3.780 -0.0089  0.6517  0.5372
12384SOL     OW40682  10.007   9.071   7.754  0.0369  0.2074  0.2321
12384SOL    HW140683   9.940   9.049   7.689 -0.9281  0.2346  1.1992
12384SOL    HW240684  10.023   9.165   7.741 -0.9211  0.4483  0.7207
12385SOL     OW40685   9.440  10.178  10.362 -0.7558  0.5530 -0.1710
12385SOL    HW140686   9.484  10.240  10.421 -0.7674 -0.2891  0.7493
12385SOL    HW240687   9.349  10.206  10.361 -0.5496  1.2238 -0.6548
12386SOL     OW40688   5.662   0.909   4.555  0.7769 -0.0930  0.2089
12386SOL    HW140689   5.600   0.952   4.497  0.8133  1.1331  1.0612
12386SOL    HW240690   5.704   0.843   4.499 -1.3180 -1.0198 -0.3583
12387SOL     OW40691   6.586   0.824   8.904 -0.6035 -0.5427  0.3035
12387SOL    HW140692   6.518   0.884   8.935 -1.3368 -1.3075  0.1878
12387SOL    HW240693   6.540   0.744   8.879  0.1293 -0.4741 -1.4288
12388SOL     OW40694   7.238   2.226   5.855  0.2356  0.1299  0.0316
12388SOL    HW140695   7.145   2.223   5.877  0.9618  1.3922  4.0791
12388SOL    HW240696   7.258   2.139   5.821 -2.4850  0.0779 -1.7527
12389SOL     OW40697   7.137   5.157  10.016 -0.0654 -0.1171 -0.7448
12389SOL    HW140698   7.043   5.155  10.034  0.5318  1.1856  3.7284
12389SOL    HW240699   7.165   5.065  10.022 -0.6417 -0.1930  1.4038
12390SOL     OW40700   5.020   2.574   5.453 -0.2732 -0.4323 -0.2351
12390SOL    HW140701   4.928   2.597   5.459 -0.6922 -2.2616  4.2446
12390SOL    HW240702   5.021   2.491   5.405 -0.8508 -0.0521 -0.9149
12391SOL     OW40703   8.372   2.668   8.595  0.2215  0.0903  0.3970
12391SOL    HW140704   8.391   2.574   8.602  3.0481  0.6015  0.6334
12391SOL    HW240705   8.282   2.676   8.627  0.0080 -2.4790  0.6823
12392SOL     OW40706   2.445   1.419   5.093  0.3807 -0.1330 -0.3952
12392SOL    HW140707   2.446   1.400   4.999 -1.1714  0.3591 -0.5319
12392SOL    HW240708   2.424   1.335   5.134 -0.2066 -0.0782 -0.5772
12393SOL     OW40709   4.525   8.360   8.326  0.1662 -0.2172 -0.1625
12393SOL    HW140710   4.564   8.273   8.319  0.3379 -0.0683 -1.3738
12393SOL    HW240711   4.435   8.344   8.353  0.8586 -0.6041  2.0734
12394SOL     OW40712   4.680   8.135   0.655  0.9404 -0.2457 -0.7122
12394SOL    HW140713   4.641   8.117   0.741  0.5696  0.7033 -0.6660
12394SOL    HW240714   4.774   8.136   0.671  0.9299 -1.1796 -0.5458
12395SOL     OW40715   6.657   4.218   9.452 -0.3157  0.9745  0.3052
12395SOL    HW140716   6.686   4.130   9.428  0.6367  0.8895  1.6436
12395SOL    HW240717   6.668   4.269   9.372 -0.8370 -0.0954 -0.4733
12396SOL     OW40718  10.501   8.121   7.772  0.1873  0.6479 -0.1402
12396SOL    HW140719  10.552   8.199   7.751  1.1812 -0.6015 -2.8633
12396SOL    HW240720  10.415   8.154   7.795  0.9832  2.6144  0.2042
12397SOL     OW40721   0.114   5.519   3.443  0.2044  0.0039 -0.1929
12397SOL    HW140722   0.186   5.524   3.506  0.1579  1.6427 -0.2254
12397SOL    HW240723   0.111   5.427   3.417  0.3734 -0.6772  1.9966
12398SOL     OW40724   0.333   7.216   7.185 -0.2665  0.6933 -0.2013
12398SOL    HW140725   0.295   7.232   7.271  0.1580 -2.1607  0.6045
12398SOL    HW240726   0.257   7.207   7.127 -0.5959  0.9441  0.1842
12399SOL     OW40727   8.671   5.760   5.719 -0.4187 -0.0331  0.0166
12399SOL    HW140728   8.690   5.850   5.693  0.5467 -0.0795  0.4968
12399SOL    HW240729   8.738   5.740   5.785 -0.9213 -0.9381  0.2677
12400SOL     OW40730   5.667   5.261   3.573  0.1052  0.7384 -0.1250
12400SOL    HW140731   5.698   5.336   3.623  1.8079  0.4116 -0.6380
12400SOL    HW240732   5.739   5.198   3.576 -0.6851 -0.2474 -1.0015
12401SOL     OW40733   8.635   1.863  10.217  0.4597 -0.1883  0.0594
12401SOL    HW140734   8.715   1.813  10.201 -1.0604 -2.7084 -0.2381
12401SOL    HW240735   8.571   1.826  10.156 -0.7651  2.2941 -0.2810
12402SOL     OW40736   6.367   6.248  11.041 -0.1659  0.5410 -0.0631
12402SOL    HW140737   6.367   6.172  10.983 -1.0775 -0.3556  1.0643
12402SOL    HW240738   6.443   6.235  11.098 -0.2359  0.5460  0.0322
12403SOL     OW40739  10.862  10.088   3.129 -0.1354  0.3663  0.0318
12403SOL    HW140740  10.870  10.176   3.093 -1.0067  0.1540 -0.6997
12403SOL    HW240741  10.866  10.030   3.053 -1.4668 -0.1148  0.3070
12404SOL     OW40742   3.811   1.950   8.443  0.6876  0.6994 -0.3510
12404SOL    HW140743   3.894   1.942   8.491  0.1133  0.5677  0.6402
12404SOL    HW240744   3.780   2.038   8.465  1.2161  1.2877 -1.8197
12405SOL     OW40745   1.220   1.916   7.750 -0.1427 -0.6241 -0.4881
12405SOL    HW140746   1.171   1.979   7.697  0.2578  0.9617  0.9068
12405SOL    HW240747   1.175   1.833   7.737 -2.8252  0.6030  0.1935
12406SOL     OW40748   6.110   8.461   9.609  0.7184  0.5106  0.8189
12406SOL    HW140749   6.182   8.520   9.631  1.7236  0.1670 -1.3103
12406SOL    HW240750   6.073   8.497   9.528 -0.0412 -0.5863  0.6519
12407SOL     OW40751   5.948   1.729   1.343  0.7292 -0.0939  0.1545
12407SOL    HW140752   5.921   1.659   1.284 -0.2438  0.1345  0.3078
12407SOL    HW240753   5.996   1.790   1.287 -1.5423  0.9373 -0.8277
12408SOL     OW40754   3.495   5.823   9.084  0.4168  0.0187  0.0021
12408SOL    HW140755   3.558   5.885   9.048  2.9412 -2.3326  0.0110
12408SOL    HW240756   3.492   5.842   9.178  0.1347  0.9279 -0.1849
12409SOL     OW40757   4.231   6.766   5.780 -0.1445  0.4448  0.1892
12409SOL    HW140758   4.139   6.763   5.808  0.2955 -0.3789  1.6951
12409SOL    HW240759   4.239   6.696   5.715 -1.1670  2.3110 -2.0941
12410SOL     OW40760   9.966   7.390   9.811 -0.0371 -0.0892  0.0893
12410SOL    HW140761  10.002   7.403   9.723  0.0169 -2.6441 -0.3353
12410SOL    HW240762   9.888   7.445   9.813 -0.7268 -0.8746 -2.0445
12411SOL     OW40763  10.936   8.737   4.268  0.3672  0.2900 -0.9303
12411SOL    HW140764  11.003   8.793   4.308 -0.4877  1.6048 -1.2837
12411SOL    HW240765  10.865   8.796   4.245 -0.5603 -0.9430 -1.3825
12412SOL     OW40766   1.487   6.348   0.957  0.4066  0.2278 -0.2047
12412SOL    HW140767   1.490   6.440   0.930  0.1584  0.1404 -0.5268
12412SOL    HW240768   1.398   6.319   0.936  0.5715 -0.1655 -0.3689
12413SOL     OW40769   0.139   6.202   6.477 -0.8544 -0.5813  0.1773
12413SOL    HW140770   0.166   6.260   6.549  0.3917  1.5198 -1.8261
12413SOL    HW240771   0.164   6.115   6.506  1.8569  0.4693  1.3511
12414SOL     OW40772   9.467   9.665   4.733 -0.6374 -0.3751 -0.2538
12414SOL    HW140773   9.401   9.710   4.787  1.0385  0.9978  0.7837
12414SOL    HW240774   9.466   9.713   4.650 -1.1368 -0.5691 -0.3676
12415SOL     OW40775   9.401   4.021  10.231 -0.3200 -0.0629  0.3477
12415SOL    HW140776   9.432   3.987  10.315 -1.6872 -0.5132  0.6999
12415SOL    HW240777   9.445   4.106  10.222  0.3751 -0.3124  1.1769
12416SOL     OW40778   4.527   7.444   0.423 -0.2626  0.0394 -0.4242
12416SOL    HW140779   4.567   7.419   0.340 -0.8568 -1.2959 -0.3287
12416SOL    HW240780   4.588   7.507   0.461  0.0444  0.6368 -1.8367
12417SOL     OW40781   7.682   1.265   3.114  0.3669 -0.3381  0.1033
12417SOL    HW140782   7.775   1.244   3.123  0.7223  1.6453  1.7304
12417SOL    HW240783   7.677   1.316   3.033  0.4717 -1.4376 -0.6156
12418SOL     OW40784   9.405   7.109   1.372 -0.3208 -0.4974  0.6623
12418SOL    HW140785   9.343   7.182   1.367 -1.9530 -1.8803 -3.7070
12418SOL    HW240786   9.490   7.150   1.354 -1.0838  0.5530 -0.8275
12419SOL     OW40787   6.675   8.976  10.126  0.1950  1.2335  0.0353
12419SOL    HW140788   6.728   8.983  10.046 -0.5961  1.3968 -0.4863
12419SOL    HW240789   6.696   8.890  10.161  1.6809  1.7490  0.4729
12420SOL     OW40790   2.056   4.442   5.464 -0.2763  0.1673  0.4877
12420SOL    HW140791   2.063   4.468   5.372 -0.2734 -1.2359  0.0677
12420SOL    HW240792   2.145   4.446   5.497 -0.1085 -0.3842  0.1154
12421SOL     OW40793   4.947  10.100   6.715  0.6207 -1.0293  0.5010
12421SOL    HW140794   5.031  10.098   6.670  0.2688 -3.3307 -0.1709
12421SOL    HW240795   4.883  10.082   6.646 -0.6099  1.6679  0.7884
12422SOL     OW40796  10.271   1.926   3.235 -0.0062 -0.0781  0.0703
12422SOL    HW140797  10.317   1.939   3.318  1.3742  0.6823 -0.7780
12422SOL    HW240798  10.195   1.984   3.241  0.7551  0.9260  0.3139
12423SOL     OW40799   2.002   3.549   0.496  0.1423 -0.7012 -0.0413
12423SOL    HW140800   1.959   3.572   0.413  0.7714 -1.0348 -0.4681
12423SOL    HW240801   1.958   3.469   0.525  1.4164 -1.8750 -1.2236
12424SOL     OW40802  10.539   2.137  10.890 -0.1298  0.4731  0.2307
12424SOL    HW140803  10.465   2.194  10.912 -0.6072  1.1215 -2.6754
12424SOL    HW240804  10.511   2.050  10.919 -2.0338  0.7183 -0.6939
12425SOL     OW40805   8.234   4.636   0.936  0.6010 -0.0078 -0.2875
12425SOL    HW140806   8.278   4.639   0.851  0.5085 -2.4506 -0.4907
12425SOL    HW240807   8.209   4.727   0.953  2.7968  0.9341 -1.6873
12426SOL     OW40808  10.180   3.073   8.458 -0.3987  0.1493  0.3327
12426SOL    HW140809  10.250   3.042   8.515 -0.3642 -0.1674  0.1159
12426SOL    HW240810  10.101   3.031   8.492 -0.3098 -0.3884 -0.1294
12427SOL     OW40811   9.065  10.389   8.985 -0.3178  0.6756 -0.6013
12427SOL    HW140812   9.045  10.298   8.962 -2.0025  0.3200  1.9684
12427SOL    HW240813   9.043  10.438   8.906  0.7029 -1.1058 -2.0789
12428SOL     OW40814   1.593   8.133   4.228 -0.0705 -0.1954  0.1464
12428SOL    HW140815   1.662   8.091   4.176  0.8572  1.0021  0.3729
12428SOL    HW240816   1.525   8.066   4.234  0.1379 -0.6658 -1.9007
12429SOL     OW40817   2.979   9.961   4.023 -0.3712  0.2760  0.1107
12429SOL    HW140818   3.071   9.932   4.028 -1.0858 -2.2243  0.4076
12429SOL    HW240819   2.964  10.006   4.106  0.1105 -1.0492  0.9628
12430SOL     OW40820   5.181   3.359   1.230 -0.8481  0.1949 -0.2150
12430SOL    HW140821   5.133   3.283   1.198 -0.3440  0.7917 -2.5705
12430SOL    HW240822   5.273   3.331   1.229 -0.7849  0.3748  0.2993
12431SOL     OW40823   4.132   7.933   9.405 -0.2993  0.3772 -0.8890
12431SOL    HW140824   4.081   7.974   9.475  1.4049  0.9376  0.0712
12431SOL    HW240825   4.151   8.004   9.344  0.2885  0.4283 -0.6538
12432SOL     OW40826   5.533   0.833   1.734  0.1938 -0.0290  0.0015
12432SOL    HW140827   5.572   0.775   1.799  0.4402 -0.9731 -0.9596
12432SOL    HW240828   5.446   0.852   1.768  0.1741 -0.8384  0.4265
12433SOL     OW40829   1.957   2.224  10.429 -0.3053  0.2395  0.6437
12433SOL    HW140830   1.963   2.209  10.523  1.8954  0.7758  0.6334
12433SOL    HW240831   1.959   2.320  10.420  0.7064  0.1676  0.0107
12434SOL     OW40832   7.894  10.497   5.664 -0.6816 -0.2482  0.2573
12434SOL    HW140833   7.955  10.546   5.608 -1.3201 -0.0244 -0.2607
12434SOL    HW240834   7.878  10.416   5.616  0.2729 -0.9320  1.0530
12435SOL     OW40835   0.755   9.532   3.852  0.1026  0.1128 -0.4575
12435SOL    HW140836   0.667   9.549   3.819 -0.3115 -0.5395  0.2672
12435SOL    HW240837   0.778   9.447   3.814 -0.7751 -1.1283  1.6263
12436SOL     OW40838   5.021   7.035   6.077  0.1098  0.2408 -0.2665
12436SOL    HW140839   5.003   7.099   6.009  1.2339 -0.7800 -1.5740
12436SOL    HW240840   5.116   7.040   6.091 -0.0001 -0.0828  0.6891
12437SOL     OW40841   9.637   9.984   3.280  0.3049 -0.1017  0.4219
12437SOL    HW140842   9.715   9.948   3.238 -0.8069 -0.4229 -1.5063
12437SOL    HW240843   9.636  10.076   3.254  1.4965  0.6769  2.8088
12438SOL     OW40844   8.076   6.744   9.531  0.3342 -0.5272  0.2997
12438SOL    HW140845   8.016   6.683   9.575 -1.0349  1.2080  0.9792
12438SOL    HW240846   8.098   6.701   9.449 -0.3584 -2.0483  0.8675
12439SOL     OW40847   4.266   8.337   3.152 -0.6644  0.2835 -0.2612
12439SOL    HW140848   4.207   8.300   3.086 -1.4514  2.4693 -0.8722
12439SOL    HW240849   4.226   8.313   3.236 -1.6893  0.5280 -0.6526
12440SOL     OW40850   3.585   3.479   8.287  0.2981 -0.1970  0.2594
12440SOL    HW140851   3.658   3.424   8.258 -0.1900 -0.4712 -0.4912
12440SOL    HW240852   3.586   3.553   8.226  1.3586  0.9867  1.6656
12441SOL     OW40853   8.841   7.778   5.162 -1.0869  0.6101 -0.4210
12441SOL    HW140854   8.920   7.807   5.209 -0.1962  1.1477 -2.1473
12441SOL    HW240855   8.805   7.708   5.216 -0.2571  1.3347  1.1524
12442SOL     OW40856  10.313   1.163   7.818 -0.2055  0.6380  0.2418
12442SOL    HW140857  10.265   1.120   7.888 -0.5047  0.7187  0.0877
12442SOL    HW240858  10.340   1.091   7.760 -0.0205  0.5793  0.3971
12443SOL     OW40859   0.654   0.334   7.717  0.1614  0.4013  0.2978
12443SOL    HW140860   0.606   0.337   7.634 -0.1050 -1.3469  0.3489
12443SOL    HW240861   0.610   0.397   7.773 -1.5590 -0.5184  0.0472
12444SOL     OW40862   3.039   7.052   5.758  0.1881 -0.0628 -0.9753
12444SOL    HW140863   3.052   7.022   5.668 -2.4754 -0.3793 -1.3195
12444SOL    HW240864   2.953   7.018   5.783  0.5920  0.5409  1.4893
12445SOL     OW40865   6.581   7.117  10.503 -0.6403 -0.4269  0.1400
12445SOL    HW140866   6.657   7.094  10.450 -0.9858  1.9663 -1.6161
12445SOL    HW240867   6.506   7.091  10.449 -1.0081  0.1923  0.3328
12446SOL     OW40868   9.835   2.637   2.901 -0.5660  0.2241  0.4822
12446SOL    HW140869   9.743   2.628   2.927 -0.3889 -0.7212  0.8204
12446SOL    HW240870   9.835   2.708   2.837 -1.5510  0.1469  0.3806
12447SOL     OW40871   9.648  10.096   6.426 -1.1238 -0.1246 -0.1248
12447SOL    HW140872   9.698  10.019   6.452 -1.2242 -0.5013 -1.0195
12447SOL    HW240873   9.568  10.061   6.387 -0.4610  0.3594 -2.0251
12448SOL     OW40874   8.089   5.961   7.679  0.1201  0.3221  0.1174
12448SOL    HW140875   8.180   5.986   7.661  0.3118 -0.3215  0.1768
12448SOL    HW240876   8.062   5.911   7.602 -0.1179  0.3497  0.1820
12449SOL     OW40877   1.319   4.552   8.366  0.3403  0.7346  0.5990
12449SOL    HW140878   1.380   4.553   8.439  1.3172 -1.8213 -0.0838
12449SOL    HW240879   1.250   4.492   8.393  1.5297 -1.5331 -1.0851
12450SOL     OW40880   7.792   1.447   9.750  0.1687 -0.1923  0.4459
12450SOL    HW140881   7.875   1.467   9.792  1.1250 -2.4228 -0.2261
12450SOL    HW240882   7.816   1.390   9.676 -1.8403  0.1848 -0.5620
12451SOL     OW40883   5.550   2.975   4.923  0.0557  0.1374  0.5145
12451SOL    HW140884   5.601   3.032   4.979  3.0610 -3.0291  1.3124
12451SOL    HW240885   5.466   2.966   4.969  1.0867  0.5109  2.6036
12452SOL     OW40886   2.933   2.446   3.721  0.4728 -0.0519  0.2502
12452SOL    HW140887   2.842   2.462   3.695  0.1061  2.7537  2.7347
12452SOL    HW240888   2.982   2.520   3.685  0.5279  2.0070  4.0961
12453SOL     OW40889  11.002  11.127   9.115 -0.2663  0.3508  0.1738
12453SOL    HW140890  10.940  11.076   9.063  0.9452 -1.7653  0.6749
12453SOL    HW240891  10.986  11.102   9.205 -1.7635  3.3557  0.8681
12454SOL     OW40892   8.502   7.312   5.126 -0.2637 -0.0063 -0.3226
12454SOL    HW140893   8.530   7.272   5.044  1.3331  1.2627 -0.4420
12454SOL    HW240894   8.543   7.257   5.194 -0.1188 -0.0191 -0.4195
12455SOL     OW40895   0.573   0.462   4.144  0.3247  0.4979 -0.4017
12455SOL    HW140896   0.506   0.518   4.184  0.7433  0.8216 -0.1407
12455SOL    HW240897   0.629   0.436   4.216  0.6039  0.3991 -0.6520
12456SOL     OW40898   9.381   2.928   9.372  0.2720 -0.3231 -0.0705
12456SOL    HW140899   9.303   2.873   9.385  0.2138  0.0159  1.1627
12456SOL    HW240900   9.347   3.007   9.331 -0.2539  0.2994  1.4858
12457SOL     OW40901   4.978   1.087   9.417 -0.1761 -0.1955  0.0977
12457SOL    HW140902   5.072   1.097   9.400  0.2730  0.2453  2.4316
12457SOL    HW240903   4.953   1.169   9.460 -1.2008 -1.0091  1.1326
12458SOL     OW40904   0.324   9.723   4.329 -0.7241  0.7070  0.6795
12458SOL    HW140905   0.361   9.667   4.262  0.0613  0.3662  1.3723
12458SOL    HW240906   0.289   9.798   4.282  1.4047  1.3572 -0.0072
12459SOL     OW40907   9.029   9.995   2.328 -0.0920  0.1482  0.2773
12459SOL    HW140908   9.016  10.072   2.274 -0.7741 -0.2860 -0.2037
12459SOL    HW240909   9.004   9.922   2.271  2.3621 -0.6010  0.0653
12460SOL     OW40910  10.051   0.418   3.518 -0.0138 -0.0125 -0.3000
12460SOL    HW140911  10.102   0.444   3.594  1.4522  0.7509 -1.4767
12460SOL    HW240912  10.054   0.494   3.460  0.2496 -1.0922 -1.7719
12461SOL     OW40913   6.565   1.129   0.693  0.3467 -0.5256  0.0797
12461SOL    HW140914   6.539   1.062   0.757 -0.4232 -0.4271 -0.1201
12461SOL    HW240915   6.649   1.161   0.725  0.9748 -1.9366 -0.0938
12462SOL     OW40916   9.943   3.271   6.707 -0.5436 -0.4153 -0.3589
12462SOL    HW140917   9.903   3.352   6.738  1.3795 -0.1011  1.4969
12462SOL    HW240918   9.909   3.203   6.766  1.8208 -0.0836  1.4963
12463SOL     OW40919  10.921   1.859   5.752  0.0594  0.4275 -0.5202
12463SOL    HW140920  10.912   1.768   5.723  3.0557 -1.5261  3.5721
12463SOL    HW240921  10.992   1.894   5.699  1.9041 -1.2577  0.6894
12464SOL     OW40922   1.207   7.625   4.316 -0.3314  0.9804  0.2941
12464SOL    HW140923   1.222   7.670   4.399 -1.4656 -0.7692  1.5461
12464SOL    HW240924   1.292   7.587   4.293 -0.7882 -2.4264  3.2301
12465SOL     OW40925   5.562   8.090   3.871  0.0608 -0.3652 -0.6485
12465SOL    HW140926   5.535   8.003   3.843 -0.8124 -0.4382  0.3422
12465SOL    HW240927   5.630   8.116   3.809  1.0597 -2.1561 -0.3818
12466SOL     OW40928   9.242   0.040   6.205  0.2196  0.1341  0.6015
12466SOL    HW140929   9.157   0.004   6.179  1.5529 -1.4883 -1.8339
12466SOL    HW240930   9.224   0.133   6.221 -2.1654 -0.3453  1.1214
12467SOL     OW40931  10.176   0.598   2.313  0.1966 -0.6425  0.1809
12467SOL    HW140932  10.151   0.601   2.405 -0.3147 -0.6616  0.0436
12467SOL    HW240933  10.166   0.688   2.282  2.4625 -0.1510  0.6753
12468SOL     OW40934   8.262   2.115   6.566  0.0684 -0.3933 -0.5472
12468SOL    HW140935   8.299   2.159   6.642  0.4444 -2.9417  0.8641
12468SOL    HW240936   8.325   2.046   6.545 -1.1017 -1.1501 -1.7747
12469SOL     OW40937   6.210   5.747   9.624  0.0981 -0.0194 -0.5819
12469SOL    HW140938   6.204   5.808   9.698 -1.6613 -0.3382 -0.4290
12469SOL    HW240939   6.180   5.798   9.548 -1.4500 -0.6683 -0.4405
12470SOL     OW40940   7.482   2.391   1.013 -0.3339  0.1751 -0.5682
12470SOL    HW140941   7.558   2.391   1.070 -0.8055  0.1589  0.0754
12470SOL    HW240942   7.454   2.483   1.010 -0.2439  0.1923 -0.8594
12471SOL     OW40943   3.723   9.278   3.679  0.3032  0.0248  0.0121
12471SOL    HW140944   3.756   9.213   3.741 -0.9470 -2.0885 -1.3968
12471SOL    HW240945   3.796   9.339   3.666  2.0472 -1.8671  0.4066
12472SOL     OW40946   1.052   6.783   0.292  0.1212 -0.1204  0.4608
12472SOL    HW140947   1.117   6.735   0.240  0.4097 -2.5646  2.8715
12472SOL    HW240948   0.972   6.730   0.285 -0.4975  0.7611  0.6652
12473SOL     OW40949   5.241   1.740   4.108  0.3748  0.3080 -0.7847
12473SOL    HW140950   5.251   1.753   4.203 -1.9383  0.3987 -0.5061
12473SOL    HW240951   5.186   1.662   4.101 -0.6864  1.1312 -2.0025
12474SOL     OW40952   0.380   2.292   6.487 -0.5704  0.0529 -0.2173
12474SOL    HW140953   0.466   2.254   6.504  0.1116  1.1350 -1.0776
12474SOL    HW240954   0.318   2.222   6.506  0.5043 -0.7744  0.3307
12475SOL     OW40955   7.684   4.567   1.477  0.4592 -0.0167  0.3830
12475SOL    HW140956   7.731   4.548   1.558  0.7041 -1.4586 -0.0765
12475SOL    HW240957   7.714   4.500   1.415  1.4105  1.9095 -1.3658
12476SOL     OW40958  11.078   1.376   1.885  0.2600 -0.1077  0.3010
12476SOL    HW140959  11.046   1.399   1.972  0.3832  0.3766  0.2229
12476SOL    HW240960  11.025   1.301   1.858  0.0773 -0.1239  0.7014
12477SOL     OW40961   0.836   7.606   4.610  0.0356 -0.0290  0.2429
12477SOL    HW140962   0.821   7.597   4.515  0.1947  0.7130  0.1455
12477SOL    HW240963   0.760   7.654   4.642 -0.7766 -1.5960  0.7575
12478SOL     OW40964   8.843   4.639   3.399 -0.3291 -0.1246  0.7092
12478SOL    HW140965   8.780   4.569   3.414 -0.4258 -0.3972 -0.8035
12478SOL    HW240966   8.791   4.713   3.370  0.0775 -0.7036 -1.7031
12479SOL     OW40967   0.830   9.216   9.117  0.0535 -0.1008 -0.5596
12479SOL    HW140968   0.915   9.193   9.079 -0.1599  0.3506 -1.3249
12479SOL    HW240969   0.786   9.132   9.129  0.1002 -0.2441 -1.3784
12480SOL     OW40970   0.073  10.296  11.115 -0.1179 -0.3501  0.0443
12480SOL    HW140971   0.010  10.236  11.156  0.6816  0.2655  2.3264
12480SOL    HW240972   0.020  10.357  11.065 -1.4881  0.5685  2.4442
12481SOL     OW40973   1.940   3.300   1.571 -0.7206  0.5996  1.0900
12481SOL    HW140974   1.950   3.212   1.609  0.0303  0.3344  0.3344
12481SOL    HW240975   1.863   3.293   1.514 -1.0282  0.6085  1.5030
12482SOL     OW40976   5.584   0.754   1.028 -0.1042  0.2135  0.1652
12482SOL    HW140977   5.535   0.722   1.104  0.5908  1.8908  1.3905
12482SOL    HW240978   5.517   0.776   0.963 -1.0008  1.7837  1.5369
12483SOL     OW40979   1.886   9.126   6.133 -0.4460 -0.1169 -0.1065
12483SOL    HW140980   1.804   9.081   6.156 -1.6038  1.5034 -0.8380
12483SOL    HW240981   1.885   9.205   6.187  0.4073  0.1473 -0.4633
12484SOL     OW40982   6.304   3.357   9.012  0.8144 -0.3861  0.0263
12484SOL    HW140983   6.386   3.314   8.986  0.2585 -1.3400 -0.2299
12484SOL    HW240984   6.289   3.423   8.944  1.4143 -0.1428  0.1251
12485SOL     OW40985  10.109   6.602   7.743  0.0325  0.9179  0.6426
12485SOL    HW140986  10.023   6.639   7.761 -0.7005 -0.5299  0.3202
12485SOL    HW240987  10.139   6.571   7.829 -0.3593  0.2800  0.5614
12486SOL     OW40988  10.015   4.824   6.383 -0.0773  0.2060 -0.7967
12486SOL    HW140989  10.043   4.915   6.385 -0.0105  0.2660 -2.5780
12486SOL    HW240990   9.968   4.811   6.465  1.3623  1.3483  0.2616
12487SOL     OW40991   5.921   8.455   3.403  0.1771  0.4075 -0.0157
12487SOL    HW140992   6.011   8.486   3.410 -0.5119  3.1334 -1.7062
12487SOL    HW240993   5.929   8.363   3.379  2.5953  1.0033 -1.9256
12488SOL     OW40994   6.409   2.295   6.409 -0.0981 -0.4353 -0.0760
12488SOL    HW140995   6.501   2.321   6.408 -0.7249  2.2523  1.9661
12488SOL    HW240996   6.408   2.211   6.455  1.3224 -0.4999 -0.1213
12489SOL     OW40997   9.470   6.399  11.095  0.5874 -0.1124 -0.0603
12489SOL    HW140998   9.448   6.488  11.066 -0.3424 -1.0382 -2.5212
12489SOL    HW240999   9.543   6.372  11.039  2.1902 -0.2660  1.9921
12490SOL     OW41000  10.993   8.174   4.999 -0.8534 -0.0540 -0.5344
12490SOL    HW141001  10.937   8.097   5.002  0.1854 -0.8010  0.7772
12490SOL    HW241002  10.984   8.213   5.086 -1.9927  1.8105 -1.4337
12491SOL     OW41003   8.068   0.992   7.564 -0.7552 -0.2294  0.2941
12491SOL    HW141004   8.090   1.010   7.472 -2.1054  0.1730  0.0164
12491SOL    HW241005   8.112   1.061   7.613  0.4555 -0.7898  0.0121
12492SOL     OW41006   7.450   4.761   8.359  0.8567 -0.8049 -0.1203
12492SOL    HW141007   7.486   4.808   8.434  2.4092 -0.8248 -0.8165
12492SOL    HW241008   7.356   4.776   8.364  1.1490  1.0328  0.5853
12493SOL     OW41009   7.959   3.115  10.951 -0.4171  0.0711  0.2597
12493SOL    HW141010   8.047   3.152  10.957 -1.1048  2.0275 -1.0080
12493SOL    HW241011   7.950   3.064  11.031  2.7204 -2.2245 -0.6050
12494SOL     OW41012   2.167   4.615   7.295  0.1464 -0.0210 -0.1443
12494SOL    HW141013   2.258   4.641   7.310 -0.0580  0.9021 -0.4900
12494SOL    HW241014   2.115   4.685   7.334 -0.3982  1.1728 -2.8286
12495SOL     OW41015   2.595   5.471   4.118 -0.1096 -0.0031 -0.4088
12495SOL    HW141016   2.681   5.496   4.152 -1.2471  2.6484  0.7280
12495SOL    HW241017   2.561   5.409   4.182  0.4873 -0.2049 -0.2836
12496SOL     OW41018   0.233   7.794   5.226 -0.2726  0.2109 -0.0392
12496SOL    HW141019   0.266   7.870   5.178 -2.3930  1.0647 -0.2600
12496SOL    HW241020   0.307   7.765   5.279  0.5233  2.6638  0.3242
12497SOL     OW41021   3.299   6.606   8.976 -0.1563  0.4563  0.3482
12497SOL    HW141022   3.278   6.674   9.041 -0.8214  0.9608 -0.3807
12497SOL    HW241023   3.357   6.546   9.023  0.2298  1.3762  1.0989
12498SOL     OW41024  10.978   8.488   4.104  0.1036  0.3155  0.1388
12498SOL    HW141025  10.985   8.515   4.195  1.5779  0.1387  0.0966
12498SOL    HW241026  11.031   8.552   4.056 -1.4157  0.9739 -0.7267
12499SOL     OW41027   0.467   2.760   6.225 -0.2813  0.0505 -0.2409
12499SOL    HW141028   0.418   2.842   6.224  0.3967  0.4750 -1.9091
12499SOL    HW241029   0.415   2.702   6.281 -0.2434  1.8941  1.8701
12500SOL     OW41030   0.295   4.000   0.226  0.3798  0.3160  0.6337
12500SOL    HW141031   0.355   3.964   0.290 -0.9090 -2.4485  0.4431
12500SOL    HW241032   0.349   4.057   0.171  2.5139 -0.9262  1.3319
12501SOL     OW41033   4.033   3.237   1.399  0.0606 -0.3774 -0.1521
12501SOL    HW141034   4.123   3.208   1.411  1.0629  1.6118 -2.1634
12501SOL    HW241035   4.026   3.318   1.450  0.1965  0.7643 -1.8753
12502SOL     OW41036   9.143   7.158   8.006 -0.0200  0.0832 -0.1730
12502SOL    HW141037   9.164   7.210   7.929  1.8554  0.4532  0.5358
12502SOL    HW241038   9.121   7.071   7.972 -0.8731  0.6905 -1.2125
12503SOL     OW41039   3.490   8.161   6.548 -0.0102 -0.2837 -0.0909
12503SOL    HW141040   3.440   8.130   6.472 -0.1445  2.1005 -1.0452
12503SOL    HW241041   3.443   8.239   6.577  0.5169 -0.6800  1.9768
12504SOL     OW41042   0.888  10.641   8.017 -0.6173  0.7270 -0.1785
12504SOL    HW141043   0.812  10.586   7.996 -1.1557  0.4355  2.2051
12504SOL    HW241044   0.855  10.703   8.081  0.8561  1.4963 -0.1327
12505SOL     OW41045   8.981   2.845   6.110  0.1760  0.4427 -0.3960
12505SOL    HW141046   8.943   2.853   6.198 -1.5581 -1.2734 -0.9196
12505SOL    HW241047   8.905   2.832   6.052  1.3129  1.0963 -2.1056
12506SOL     OW41048   9.106   3.571   4.357 -0.2679  0.4041 -0.5583
12506SOL    HW141049   9.049   3.624   4.411 -0.5019  1.0034 -1.3674
12506SOL    HW241050   9.186   3.559   4.409 -1.4359 -1.2347  0.9773
12507SOL     OW41051   5.715   8.196   0.185 -0.2546  0.1781  0.2571
12507SOL    HW141052   5.764   8.182   0.104 -0.2439 -0.3242  0.3485
12507SOL    HW241053   5.687   8.288   0.180 -1.6096 -0.2582 -1.0634
12508SOL     OW41054  10.669   9.228   1.095 -0.4197 -0.3497 -0.3880
12508SOL    HW141055  10.599   9.171   1.062 -0.4683 -0.4522 -0.1048
12508SOL    HW241056  10.661   9.307   1.042 -1.1370 -0.1185  0.0491
12509SOL     OW41057   3.625   5.343   4.827 -0.6571  0.6185 -0.7225
12509SOL    HW141058   3.682   5.417   4.805  0.1204  0.0264 -0.7895
12509SOL    HW241059   3.674   5.295   4.894 -0.8466 -0.1825 -1.1442
12510SOL     OW41060   8.494   8.045   5.476 -0.1644 -0.1430 -0.4863
12510SOL    HW141061   8.521   7.979   5.412  1.0752  1.0113 -1.2065
12510SOL    HW241062   8.552   8.120   5.460 -0.8060  0.7320  1.0206
12511SOL     OW41063   2.678   6.664   5.488 -0.1164  0.8248 -0.4821
12511SOL    HW141064   2.765   6.659   5.448 -0.5796 -1.5484 -1.3676
12511SOL    HW241065   2.630   6.727   5.435  1.0239  2.1495  0.0082
12512SOL     OW41066   6.127   2.860  10.452  0.8829  0.3703  0.6416
12512SOL    HW141067   6.158   2.847  10.541  1.2001 -0.8166  0.3738
12512SOL    HW241068   6.061   2.792  10.440  0.4321  0.8800  0.1482
12513SOL     OW41069  10.906   7.692   5.037  0.6310  0.1960  0.1589
12513SOL    HW141070  10.880   7.776   5.073  1.7744  1.7296 -2.2839
12513SOL    HW241071  10.846   7.629   5.076 -1.4741  2.3970  0.6992
12514SOL     OW41072   7.401   3.822   5.260  0.3203 -0.2437 -0.6373
12514SOL    HW141073   7.466   3.892   5.260 -0.2543  0.3028 -0.4064
12514SOL    HW241074   7.352   3.835   5.178 -0.3332  0.1590 -0.1977
12515SOL     OW41075   4.535   4.185  10.582  0.2614 -0.5857  0.3338
12515SOL    HW141076   4.548   4.096  10.617  1.4621 -0.5097  0.1072
12515SOL    HW241077   4.458   4.217  10.628  0.1124 -1.5573  0.7964
12516SOL     OW41078  10.034   2.773   3.562 -0.0080 -0.2222  0.3315
12516SOL    HW141079  10.002   2.736   3.644 -1.3355  1.0257  0.4226
12516SOL    HW241080  10.115   2.819   3.586  0.7170 -1.5454  0.5253
12517SOL     OW41081   7.749  10.919   1.510 -0.0411 -0.2909  0.0134
12517SOL    HW141082   7.801  10.997   1.522 -0.9793  0.7941 -2.2651
12517SOL    HW241083   7.811  10.852   1.481  0.5050  0.1131  0.2456
12518SOL     OW41084   5.923   3.047   2.961 -0.0516  0.3033  0.4139
12518SOL    HW141085   5.983   2.973   2.963 -2.0332 -1.4154  0.8480
12518SOL    HW241086   5.941   3.096   3.041 -1.1184 -1.8690  2.0911
12519SOL     OW41087  10.031   6.745   9.688 -0.1882 -0.7024  0.2905
12519SOL    HW141088  10.058   6.655   9.704  1.7977 -0.5031 -1.5265
12519SOL    HW241089  10.112   6.796   9.689 -1.1513  0.9199  0.2680
12520SOL     OW41090   0.016   5.899   6.681 -0.0244 -0.1328 -0.5185
12520SOL    HW141091  -0.038   5.841   6.627 -0.9434 -1.1959  1.4338
12520SOL    HW241092   0.095   5.914   6.629 -1.0274 -0.7596 -2.3004
12521SOL     OW41093   4.858   6.822   5.546  0.0873  0.1382  0.2724
12521SOL    HW141094   4.776   6.773   5.537  0.6092 -0.6285 -0.5328
12521SOL    HW241095   4.891   6.797   5.632 -0.7381  0.8111  0.7975
12522SOL     OW41096   0.115   5.145   9.204  0.1491 -0.3075  0.2140
12522SOL    HW141097   0.200   5.110   9.176 -0.0911  0.1747 -1.2144
12522SOL    HW241098   0.057   5.128   9.130  0.2534  3.9294 -1.0600
12523SOL     OW41099   2.395   7.778   4.769  0.4322  0.5692 -0.2119
12523SOL    HW141100   2.302   7.756   4.765  0.6132 -0.4340  0.6000
12523SOL    HW241101   2.398   7.873   4.765 -0.5436  0.5578 -1.6088
12524SOL     OW41102   8.830   8.275   7.268 -0.2388 -0.6281 -0.7525
12524SOL    HW141103   8.911   8.270   7.319 -0.3440 -2.9748 -0.7383
12524SOL    HW241104   8.809   8.369   7.267  2.1183 -0.0269 -0.2369
12525SOL     OW41105   6.292   8.863  10.012 -0.8754 -0.2905  0.4023
12525SOL    HW141106   6.290   8.829  10.101  0.0662  0.5875  0.7955
12525SOL    HW241107   6.315   8.956  10.024 -1.1631 -0.0674 -0.7300
12526SOL     OW41108   7.878  10.692   6.514 -0.4353  0.0946  0.1307
12526SOL    HW141109   7.867  10.601   6.486 -1.6622  0.0043  0.8455
12526SOL    HW241110   7.797  10.713   6.560 -0.3560  1.6969 -0.3953
12527SOL     OW41111   4.124   6.520   5.644 -0.3795 -0.2661 -0.1943
12527SOL    HW141112   4.107   6.447   5.703 -1.2330 -1.2224 -1.5714
12527SOL    HW241113   4.038   6.557   5.626 -0.0193  0.6903 -0.0129
12528SOL     OW41114  10.215   3.458   2.143 -0.5148  0.0559 -0.8366
12528SOL    HW141115  10.250   3.461   2.054  1.6894  0.5830 -0.0295
12528SOL    HW241116  10.211   3.365   2.165  0.6861 -0.0140 -0.8728
12529SOL     OW41117   3.615   0.239   8.509 -0.6428  0.2534  0.4328
12529SOL    HW141118   3.542   0.212   8.453  0.6140 -2.4378 -0.0688
12529SOL    HW241119   3.599   0.195   8.592  0.8927 -1.2889 -0.0282
12530SOL     OW41120   2.295   7.969   6.262  0.0816  0.1844  0.1603
12530SOL    HW141121   2.351   7.893   6.250  0.3452  0.4989 -0.7046
12530SOL    HW241122   2.336   8.019   6.332  0.4088 -0.0231  0.1177
12531SOL     OW41123   2.727   7.321  10.649 -0.7367  0.2963  0.4685
12531SOL    HW141124   2.811   7.278  10.636 -0.3617  0.9709  0.6475
12531SOL    HW241125   2.663   7.258  10.615 -0.1551 -0.1502  0.1756
12532SOL     OW41126   7.154   3.212   6.171  0.2905  0.8631  0.6065
12532SOL    HW141127   7.218   3.269   6.215  1.1381 -0.6114  1.3443
12532SOL    HW241128   7.204   3.134   6.147 -0.7096  0.6659 -0.9355
12533SOL     OW41129   9.571   4.916   6.875 -0.0784  0.8894 -0.2120
12533SOL    HW141130   9.593   4.838   6.926 -1.7632  0.3958 -0.2053
12533SOL    HW241131   9.572   4.987   6.939  1.0652  0.8401 -0.1443
12534SOL     OW41132   4.654   2.409   1.536  0.9783 -0.0816  0.1515
12534SOL    HW141133   4.670   2.489   1.486  0.5972  1.5041  2.4507
12534SOL    HW241134   4.565   2.418   1.570  0.9621 -1.4545  0.5528
12535SOL     OW41135  10.249   0.681   8.181 -0.0108 -0.0105  0.4458
12535SOL    HW141136  10.280   0.690   8.272 -0.1341 -0.2426  0.5090
12535SOL    HW241137  10.313   0.622   8.140  0.8175  1.1388  0.0155
12536SOL     OW41138   7.172   5.890   7.647  0.4953  0.2106 -0.6915
12536SOL    HW141139   7.087   5.852   7.668 -0.4856  1.8008 -1.6855
12536SOL    HW241140   7.222   5.817   7.609  0.4527 -1.3497  1.9598
12537SOL     OW41141   1.764   6.287   5.268  0.1690  0.0199 -0.3312
12537SOL    HW141142   1.720   6.203   5.261  1.6108 -0.6587 -1.7904
12537SOL    HW241143   1.823   6.278   5.343  0.9092 -0.5648 -0.9767
12538SOL     OW41144   7.442   6.018   5.508 -0.6849  0.3173 -0.2341
12538SOL    HW141145   7.531   6.053   5.519 -0.5150 -0.1949  0.0110
12538SOL    HW241146   7.440   5.939   5.561 -1.1854  0.1411 -0.5112
12539SOL     OW41147   9.952   2.564   2.262 -0.1978  0.1656  0.2091
12539SOL    HW141148   9.903   2.482   2.259  1.4994 -0.8586 -0.7844
12539SOL    HW241149  10.013   2.553   2.335 -2.2590  2.0087  2.3951
12540SOL     OW41150   5.980  10.423   6.607  0.5602  0.1452 -0.0838
12540SOL    HW141151   6.010  10.451   6.694  2.3538 -2.4940  0.2771
12540SOL    HW241152   5.903  10.370   6.625 -0.1568  1.0877 -0.3180
12541SOL     OW41153   8.550   3.292   4.150 -0.8126  0.5067 -0.3964
12541SOL    HW141154   8.505   3.306   4.067  0.3699 -0.2417 -1.1968
12541SOL    HW241155   8.643   3.287   4.127 -0.3616  1.2315  1.1022
12542SOL     OW41156   2.795   3.741   3.431 -0.0679 -0.3709  0.4843
12542SOL    HW141157   2.785   3.680   3.358  2.3065 -1.9248  1.3415
12542SOL    HW241158   2.781   3.688   3.509 -1.2480  0.9701  1.2335
12543SOL     OW41159   1.078   8.932   7.662  0.1657  0.6848  0.0813
12543SOL    HW141160   1.107   8.900   7.747  0.5313 -0.0027 -0.2935
12543SOL    HW241161   0.984   8.917   7.661  0.3067 -0.2395 -0.0203
12544SOL     OW41162   8.790   4.641   0.666  0.1875 -0.1076 -0.1759
12544SOL    HW141163   8.778   4.548   0.687 -1.6642 -0.0024 -0.5942
12544SOL    HW241164   8.873   4.644   0.619  0.7188 -1.4197  0.6178
12545SOL     OW41165   8.772   9.288  10.276  0.3983 -0.4644 -0.9851
12545SOL    HW141166   8.742   9.379  10.270 -0.8802 -0.5757  2.0322
12545SOL    HW241167   8.702   9.237  10.236 -0.6971 -0.3174  0.6655
12546SOL     OW41168   1.529   3.363   8.752  0.1702 -0.7322  0.3627
12546SOL    HW141169   1.438   3.381   8.774 -0.1657 -2.2560  0.3870
12546SOL    HW241170   1.552   3.287   8.806  1.7376  0.1232  0.9693
12547SOL     OW41171   2.663   6.825   1.844 -0.0233  0.2270 -0.3837
12547SOL    HW141172   2.645   6.872   1.763 -0.1551 -0.9529 -1.0724
12547SOL    HW241173   2.748   6.783   1.829 -0.0367  0.0191  0.0949
12548SOL     OW41174   3.711   4.171   2.262 -0.4584 -0.0317 -0.5879
12548SOL    HW141175   3.635   4.224   2.286 -0.0001  0.1826  0.4288
12548SOL    HW241176   3.755   4.152   2.345 -0.4121 -1.7154 -0.9609
12549SOL     OW41177   3.752   6.735   5.440 -0.3844  0.1197  0.0646
12549SOL    HW141178   3.698   6.809   5.470  0.0153  0.6960 -0.6256
12549SOL    HW241179   3.764   6.751   5.347  0.8291 -0.1057  0.1779
12550SOL     OW41180   6.817   4.515   3.641  0.1778 -0.1826 -0.5759
12550SOL    HW141181   6.820   4.495   3.548 -1.4546  1.2833 -0.9901
12550SOL    HW241182   6.904   4.552   3.660 -0.0802  1.2572 -1.9754
12551SOL     OW41183   2.073   2.823   9.384  0.3221 -0.4206  0.3030
12551SOL    HW141184   2.136   2.887   9.351  0.1436 -0.7997 -0.7931
12551SOL    HW241185   2.122   2.776   9.452  0.9901 -0.2259 -0.0282
12552SOL     OW41186   7.832   3.130   8.006  0.8677 -0.0746  0.4855
12552SOL    HW141187   7.908   3.079   7.979  0.3125 -0.9176  0.4764
12552SOL    HW241188   7.757   3.071   7.994  0.2525  0.6033  0.8591
12553SOL     OW41189   6.687   1.810   2.264  0.0150  0.4553  0.1710
12553SOL    HW141190   6.706   1.900   2.289 -0.4927  0.7286 -0.3998
12553SOL    HW241191   6.600   1.814   2.224 -0.8440 -0.5865  1.8423
12554SOL     OW41192   3.379   6.575   6.272  0.1195  0.0493 -0.4802
12554SOL    HW141193   3.403   6.584   6.365 -0.2001 -1.6725 -0.1909
12554SOL    HW241194   3.289   6.543   6.274  0.2524 -0.4053 -1.3655
12555SOL     OW41195   1.454   5.255   4.030 -0.1099 -0.1647  0.6725
12555SOL    HW141196   1.406   5.320   4.080 -0.1003 -0.0312  0.5060
12555SOL    HW241197   1.486   5.301   3.953 -1.4606 -0.7466 -0.2662
12556SOL     OW41198   7.638   5.885   7.026  0.7709  0.0975 -0.2213
12556SOL    HW141199   7.651   5.895   7.120 -0.7677  1.4862 -0.1097
12556SOL    HW241200   7.590   5.802   7.018  0.6065  0.1380  0.2620
12557SOL     OW41201   4.855   5.866   0.019 -0.0787 -0.9561 -0.0155
12557SOL    HW141202   4.880   5.928   0.087  0.3533 -0.3564 -0.6985
12557SOL    HW241203   4.843   5.921  -0.059 -0.8556 -1.5868 -0.3530
12558SOL     OW41204   2.555   3.209  10.319 -0.3952  0.1441  0.0352
12558SOL    HW141205   2.470   3.244  10.347 -1.3299 -2.1292  0.2585
12558SOL    HW241206   2.541   3.114  10.314  2.1306 -0.2784 -0.0161
12559SOL     OW41207   3.308   3.593   6.879 -0.3993  0.2820 -0.2656
12559SOL    HW141208   3.348   3.520   6.832 -0.2430  0.4860 -0.4479
12559SOL    HW241209   3.349   3.671   6.842 -0.0663  0.4328  0.4064
12560SOL     OW41210   1.498  10.131   7.792  0.0602 -0.7815 -0.2143
12560SOL    HW141211   1.569  10.184   7.829 -0.2479  0.7015 -1.6201
12560SOL    HW241212   1.488  10.058   7.853 -0.6607  1.6519  2.8265
12561SOL     OW41213   7.725   7.836   3.815  0.6065 -0.2511 -0.3584
12561SOL    HW141214   7.650   7.880   3.853  1.6804  1.9223 -0.6279
12561SOL    HW241215   7.690   7.753   3.781 -1.5028  0.4189  0.0635
12562SOL     OW41216   3.570   5.095   0.260  0.3376 -0.4909 -0.0772
12562SOL    HW141217   3.659   5.107   0.227 -0.3089  0.6872 -1.5213
12562SOL    HW241218   3.523   5.172   0.228 -1.2000 -1.0942  0.6683
12563SOL     OW41219   6.842   4.003   2.272 -0.2546  0.2248 -0.6262
12563SOL    HW141220   6.878   3.916   2.251  0.2653  0.4311 -0.6186
12563SOL    HW241221   6.918   4.062   2.266 -0.7536  0.7981 -1.3555
12564SOL     OW41222   1.298  10.347   1.316  0.1353  0.3160  0.2162
12564SOL    HW141223   1.278  10.328   1.224  2.3343  1.3349 -0.5314
12564SOL    HW241224   1.222  10.315   1.364 -0.9887 -0.4191 -1.9354
12565SOL     OW41225  10.271   0.228   8.183  0.1669 -0.3684  0.1448
12565SOL    HW141226  10.197   0.274   8.143  0.5672  2.2188  2.0967
12565SOL    HW241227  10.337   0.224   8.113 -0.9027 -0.4919 -0.8914
12566SOL     OW41228   0.089   0.364   0.858 -0.2032  0.0789 -0.1966
12566SOL    HW141229   0.074   0.459   0.854 -1.2377  0.0732  1.9973
12566SOL    HW241230   0.110   0.347   0.950  1.4768 -1.6584 -0.8259
12567SOL     OW41231   6.373   6.021   8.683  0.2350 -0.4686 -0.5534
12567SOL    HW141232   6.285   6.009   8.646 -0.1538 -0.5803  0.3898
12567SOL    HW241233   6.431   6.011   8.608 -0.6539  1.8298 -1.6501
12568SOL     OW41234   9.675   3.172   1.117 -0.5308  0.1496 -0.0458
12568SOL    HW141235   9.665   3.078   1.130  1.2198  0.0600  1.1210
12568SOL    HW241236   9.603   3.211   1.166 -1.1536 -0.5675 -0.3718
12569SOL     OW41237   5.759   9.332   1.579  0.0153 -0.5612 -0.3103
12569SOL    HW141238   5.834   9.319   1.638 -0.9160 -0.7473  0.8795
12569SOL    HW241239   5.686   9.353   1.638 -1.4935 -2.9859 -1.1799
12570SOL     OW41240   4.556   9.609   5.411 -0.3423 -0.0891 -0.4101
12570SOL    HW141241   4.641   9.651   5.425 -0.7188  0.9480 -1.1386
12570SOL    HW241242   4.540   9.561   5.493 -0.1373  1.6112  0.6723
12571SOL     OW41243   7.297   6.769   6.336  0.1969 -0.6426  0.0943
12571SOL    HW141244   7.363   6.777   6.268  0.9812 -0.0533  0.8908
12571SOL    HW241245   7.326   6.830   6.405 -1.8023  0.5256 -0.0210
12572SOL     OW41246  10.475   7.889   4.960  0.3863  0.7358 -0.0568
12572SOL    HW141247  10.534   7.955   4.924 -0.4609  0.7405 -1.5095
12572SOL    HW241248  10.500   7.808   4.917 -0.0271  0.5520  0.0409
12573SOL     OW41249   0.366   7.418   9.410  0.1340  0.0226 -0.0460
12573SOL    HW141250   0.343   7.378   9.327  0.5378  1.0856 -0.6854
12573SOL    HW241251   0.452   7.383   9.432  0.0427 -0.2303 -0.0964
12574SOL     OW41252   9.770   6.470   9.823  0.2523 -0.0988 -0.3286
12574SOL    HW141253   9.726   6.498   9.742  0.3428 -0.6989 -0.5911
12574SOL    HW241254   9.731   6.385   9.843  0.6362 -0.2121 -0.0581
12575SOL     OW41255   0.398   5.663   6.265 -0.0163 -0.2055  0.6330
12575SOL    HW141256   0.429   5.740   6.218  1.1745 -0.6711  0.6131
12575SOL    HW241257   0.308   5.650   6.234  0.5550 -0.1910 -1.1311
12576SOL     OW41258   9.213  11.115   8.721 -0.2875  0.0064 -0.0448
12576SOL    HW141259   9.294  11.065   8.713  0.0559  0.7823 -2.1596
12576SOL    HW241260   9.165  11.072   8.792  1.4830 -1.1414  0.5219
12577SOL     OW41261   6.260   7.823   6.613  0.3009 -0.4693  0.0821
12577SOL    HW141262   6.345   7.858   6.586  0.1378 -1.0169 -1.2018
12577SOL    HW241263   6.202   7.843   6.540 -0.2294 -1.7728  0.1277
12578SOL     OW41264   5.500   0.559   3.327 -0.3919 -0.8182 -0.1006
12578SOL    HW141265   5.574   0.513   3.366 -1.1660 -1.3227  0.8009
12578SOL    HW241266   5.515   0.554   3.233 -0.2740 -2.6271 -0.0139
12579SOL     OW41267  10.756   0.254   2.069 -0.0610 -0.1049  0.4950
12579SOL    HW141268  10.673   0.290   2.038 -0.0556 -0.2904  0.2590
12579SOL    HW241269  10.739   0.227   2.159 -1.2724 -3.3171 -0.5780
12580SOL     OW41270   7.876   5.084   1.172  0.0436 -0.3845  0.0738
12580SOL    HW141271   7.872   5.066   1.078 -1.6552  0.6186 -0.1013
12580SOL    HW241272   7.951   5.143   1.183  0.3406 -0.6311 -0.6347
12581SOL     OW41273   6.232   1.086   9.647  0.3553  0.6000 -0.1935
12581SOL    HW141274   6.222   1.180   9.662  0.0261  0.8231 -1.6539
12581SOL    HW241275   6.300   1.080   9.580 -1.7920  0.0199 -2.4725
12582SOL     OW41276   9.846   7.298   2.321 -0.2097 -0.1115 -0.2936
12582SOL    HW141277   9.801   7.336   2.246 -1.1102 -1.4565 -0.4804
12582SOL    HW241278   9.939   7.303   2.299 -0.3429  1.3284 -0.5890
12583SOL     OW41279   4.527   3.376  10.523 -0.1991  0.0166  0.0302
12583SOL    HW141280   4.539   3.403  10.432  2.4841 -1.6383 -0.2189
12583SOL    HW241281   4.613   3.343  10.550 -1.0262 -0.0137  3.0275
12584SOL     OW41282   2.595   5.369   7.079  0.0737 -0.3471 -0.1196
12584SOL    HW141283   2.553   5.311   7.016 -0.6927 -1.0384  0.9924
12584SOL    HW241284   2.549   5.452   7.069 -1.6328 -1.0801  1.0578
12585SOL     OW41285  10.044   7.274  10.523 -0.2091  0.1190  0.2713
12585SOL    HW141286  10.001   7.198  10.562 -0.2642 -0.7237 -1.3497
12585SOL    HW241287  10.013   7.349  10.574 -2.0237 -0.6888  0.4189
12586SOL     OW41288   2.481   2.112   4.140 -0.5356  0.1977  0.0737
12586SOL    HW141289   2.454   2.054   4.211 -1.8454  2.5150  1.5817
12586SOL    HW241290   2.576   2.099   4.134 -0.6619 -1.4087  0.9416
12587SOL     OW41291   5.733  10.302   6.669 -0.2999  0.1613 -0.1554
12587SOL    HW141292   5.785  10.226   6.697 -1.4979 -1.0462 -1.0749
12587SOL    HW241293   5.709  10.346   6.751  0.2379 -0.5624  0.4124
12588SOL     OW41294   9.010   9.156  10.796  0.2516 -0.2229 -0.2369
12588SOL    HW141295   8.986   9.216  10.866  0.0456 -0.2199 -0.3118
12588SOL    HW241296   9.092   9.191  10.761  1.1731 -1.0706  1.0111
12589SOL     OW41297   9.765   9.820   0.516  0.7401 -0.3486 -0.3470
12589SOL    HW141298   9.850   9.837   0.474 -0.1333  0.8551 -1.7142
12589SOL    HW241299   9.753   9.725   0.508  2.2295 -0.6331  0.4441
12590SOL     OW41300   5.171  10.828  10.708  0.0499 -0.4760 -0.0683
12590SOL    HW141301   5.199  10.775  10.633  1.3973  0.0063  0.0782
12590SOL    HW241302   5.158  10.764  10.779  1.0824 -0.6806 -0.0559
12591SOL     OW41303   9.126   9.625   7.653 -0.4434  0.5579  1.0912
12591SOL    HW141304   9.075   9.647   7.730 -2.4784 -0.6936  0.1867
12591SOL    HW241305   9.062   9.590   7.590  1.6870 -2.9090  0.5641
12592SOL     OW41306   4.795   5.534   6.874  0.1426  0.1072  0.3924
12592SOL    HW141307   4.883   5.505   6.899  0.1281  0.4505  0.8594
12592SOL    HW241308   4.807   5.626   6.849  0.1412 -0.1982 -0.8080
12593SOL     OW41309   5.733   5.499   5.253  0.4341  0.1796  0.0277
12593SOL    HW141310   5.640   5.499   5.276  0.7375  0.8801  1.4067
12593SOL    HW241311   5.754   5.408   5.232 -0.1641 -0.3435  1.5362
12594SOL     OW41312  10.522   6.973   1.685  0.2703 -0.2202 -0.1502
12594SOL    HW141313  10.611   7.002   1.702 -0.2604  0.1537  2.4195
12594SOL    HW241314  10.498   6.922   1.763 -1.6086 -0.7156 -0.9845
12595SOL     OW41315   4.774  10.749   6.184 -0.6602 -0.5738 -0.2302
12595SOL    HW141316   4.712  10.702   6.128 -0.5566 -1.1779  0.1547
12595SOL    HW241317   4.796  10.686   6.253  0.3053 -0.3302 -0.3102
12596SOL     OW41318   8.081  10.673   3.059  0.5622  0.2492  0.2908
12596SOL    HW141319   8.105  10.604   3.121  2.0446  1.2023  0.8462
12596SOL    HW241320   8.157  10.678   3.000  0.0709  0.7874 -0.3002
12597SOL     OW41321   4.296   4.884   9.029 -0.6371 -0.0218  0.6858
12597SOL    HW141322   4.320   4.794   9.005  0.7240  0.0816  1.5059
12597SOL    HW241323   4.312   4.935   8.950  0.6916 -0.1834  0.8229
12598SOL     OW41324   2.207   4.660   3.034 -0.5787 -0.0454  0.1854
12598SOL    HW141325   2.235   4.648   2.943  1.0680  0.0707  0.6327
12598SOL    HW241326   2.239   4.582   3.079 -1.4415 -0.1330  0.6683
12599SOL     OW41327   7.585   7.602   6.650 -0.2660 -0.3755  0.0926
12599SOL    HW141328   7.626   7.516   6.639 -0.6425 -0.5483  0.0318
12599SOL    HW241329   7.650   7.654   6.698 -0.1504 -0.7864  0.3871
12600SOL     OW41330   4.419   9.390   3.211  0.1968  0.0847  0.3076
12600SOL    HW141331   4.430   9.472   3.259 -1.1573  0.6238 -0.2615
12600SOL    HW241332   4.337   9.401   3.163 -1.3871 -2.5363  2.1534
12601SOL     OW41333   7.114  10.387   7.918  0.6185 -0.5966  0.6377
12601SOL    HW141334   7.181  10.356   7.856 -0.6195 -0.5802 -0.7500
12601SOL    HW241335   7.035  10.396   7.865 -0.4888 -0.5829  2.2446
12602SOL     OW41336   7.948   5.053   9.904 -0.2861  0.4044  0.5959
12602SOL    HW141337   7.964   5.094   9.819  0.7549  0.0773  0.6196
12602SOL    HW241338   7.955   4.959   9.888 -1.3199  0.2767  0.8108
12603SOL     OW41339   3.901   0.748   0.273 -0.3665  0.2806 -0.3295
12603SOL    HW141340   3.889   0.655   0.292  2.0541 -0.0084  0.1399
12603SOL    HW241341   3.867   0.794   0.350 -1.4096 -0.1977 -0.4887
12604SOL     OW41342   7.857   3.999   9.182 -0.2724 -0.0775 -0.2144
12604SOL    HW141343   7.761   4.005   9.181 -0.2886 -0.3458 -0.2382
12604SOL    HW241344   7.882   4.008   9.091 -0.2345  0.6169 -0.1422
12605SOL     OW41345  10.294  10.197   9.422  0.0063  0.4889  0.0726
12605SOL    HW141346  10.206  10.208   9.457  0.9488 -1.6793  3.5913
12605SOL    HW241347  10.308  10.102   9.422  2.6073  0.8039  0.4849
12606SOL     OW41348   6.937   7.860   1.213  0.1027  0.9723 -0.3502
12606SOL    HW141349   6.979   7.896   1.135 -1.4790 -0.2743 -1.8457
12606SOL    HW241350   6.901   7.937   1.258  1.8293  1.7984 -0.3135
12607SOL     OW41351   5.240   0.545   4.516 -0.4577  0.1031  0.1393
12607SOL    HW141352   5.336   0.543   4.520 -0.4582  0.9165  0.7923
12607SOL    HW241353   5.218   0.491   4.441  0.5485  0.4194 -0.4000
12608SOL     OW41354   0.326   1.633   9.229 -0.4872 -0.1985  0.2487
12608SOL    HW141355   0.352   1.725   9.226 -0.1408 -0.2409  1.4925
12608SOL    HW241356   0.408   1.585   9.230 -0.6634 -0.5881 -1.3296
12609SOL     OW41357   3.570   7.994   9.747 -0.3282  0.5340 -0.5271
12609SOL    HW141358   3.650   7.951   9.779 -0.0239  1.0103 -0.6399
12609SOL    HW241359   3.538   7.936   9.678  0.2048  0.6005 -0.8312
12610SOL     OW41360   6.005   1.590   7.651  0.2678 -0.0800 -0.1131
12610SOL    HW141361   5.942   1.544   7.707 -0.0750  0.3389 -0.1493
12610SOL    HW241362   5.952   1.629   7.582  0.4469  1.0550  0.3693
12611SOL     OW41363   8.154   7.275   9.326 -0.2320  0.3478  0.4455
12611SOL    HW141364   8.103   7.261   9.406  0.8833  0.2793  1.1660
12611SOL    HW241365   8.100   7.333   9.273 -0.5432  1.2625  1.7064
12612SOL     OW41366   8.150  10.015   1.089 -0.6893 -0.1939 -0.1914
12612SOL    HW141367   8.150  10.085   1.024 -0.7751  0.6623  0.7152
12612SOL    HW241368   8.212  10.043   1.155 -1.0135 -0.7973  0.3799
12613SOL     OW41369   6.070   6.454   9.105  0.8354 -0.0038  0.0399
12613SOL    HW141370   6.108   6.371   9.133  1.6144  0.3980  0.1979
12613SOL    HW241371   6.073   6.451   9.010  2.4957  0.5436  0.0292
12614SOL     OW41372   8.940   2.667   8.314  0.0074  0.1921  0.0344
12614SOL    HW141373   8.845   2.678   8.321 -0.3191 -1.0050 -1.7920
12614SOL    HW241374   8.972   2.680   8.403 -2.2626 -2.5264  1.4287
12615SOL     OW41375   8.304   9.293   6.344 -0.4459  0.5308 -0.4113
12615SOL    HW141376   8.222   9.286   6.296 -0.3736  1.1157 -0.6292
12615SOL    HW241377   8.331   9.384   6.332 -0.7034  0.8441  1.1756
12616SOL     OW41378   5.344   2.514  10.317 -0.0043  0.1649 -0.1192
12616SOL    HW141379   5.332   2.517  10.412 -0.6823 -1.7101 -0.1047
12616SOL    HW241380   5.267   2.561  10.282 -0.2932 -0.0317  0.2437
12617SOL     OW41381   6.138   1.239   8.113  0.2796  0.0407  0.1781
12617SOL    HW141382   6.079   1.262   8.185 -0.3649 -0.2854 -0.2403
12617SOL    HW241383   6.205   1.184   8.154  0.8471  1.1927  0.8431
12618SOL     OW41384  10.839   1.230   0.914  0.3466  1.3234  0.6035
12618SOL    HW141385  10.794   1.265   0.991  0.6487  1.9784  0.4924
12618SOL    HW241386  10.904   1.297   0.892  1.3301  0.4455  0.7113
12619SOL     OW41387   6.115   6.670   8.502  0.3772  0.0914 -0.2421
12619SOL    HW141388   6.183   6.734   8.480  2.1003 -1.0447  1.3917
12619SOL    HW241389   6.051   6.677   8.431  1.4616  2.2302 -1.1104
12620SOL     OW41390   0.101   0.768   1.887 -0.0849 -0.6624 -0.4575
12620SOL    HW141391   0.024   0.805   1.931  0.9836  0.5679  0.4705
12620SOL    HW241392   0.108   0.818   1.806 -0.5732 -1.1576 -0.8090
12621SOL     OW41393  11.087   1.660   0.323 -0.0069  0.2430 -0.0856
12621SOL    HW141394  11.040   1.734   0.284  1.1421  0.7543 -0.5460
12621SOL    HW241395  11.059   1.659   0.415 -0.8117  0.6011 -0.3194
12622SOL     OW41396   0.446   7.168   2.881 -0.1807 -0.0439  0.4397
12622SOL    HW141397   0.422   7.172   2.974  1.1166 -1.4029  0.8896
12622SOL    HW241398   0.370   7.132   2.837 -0.6459  0.1816  1.0507
12623SOL     OW41399   6.853   4.498   1.725 -0.0498  0.0978 -0.2194
12623SOL    HW141400   6.812   4.581   1.747 -0.4097  0.3471 -1.7025
12623SOL    HW241401   6.946   4.518   1.716 -0.1386  0.3540 -0.5908
12624SOL     OW41402  10.162   9.936   8.226  0.1714 -0.2477 -0.2144
12624SOL    HW141403  10.110   9.899   8.297  1.1960  0.9853  1.2321
12624SOL    HW241404  10.245   9.888   8.229 -0.5009 -1.6362 -1.9798
12625SOL     OW41405   5.079   7.258   8.163 -0.1875  0.3251  0.0817
12625SOL    HW141406   5.167   7.272   8.126  0.3460  0.8515  1.4904
12625SOL    HW241407   5.031   7.214   8.093  1.8742 -2.1718  0.0694
12626SOL     OW41408   5.005   7.301   4.301  0.0180 -0.0903  0.1789
12626SOL    HW141409   5.004   7.396   4.290  2.2529  0.0298  0.4447
12626SOL    HW241410   4.994   7.287   4.395  3.2965  0.2101  0.7417
12627SOL     OW41411   1.496   7.126   1.558  0.0143  0.2723  0.0527
12627SOL    HW141412   1.523   7.161   1.473  0.5936 -1.2288 -0.4145
12627SOL    HW241413   1.579   7.106   1.602 -0.2624 -2.1455 -0.4281
12628SOL     OW41414  10.549   3.770   8.740  0.0284  0.0820 -0.0675
12628SOL    HW141415  10.515   3.689   8.703  0.3147  1.1049 -2.8491
12628SOL    HW241416  10.527   3.837   8.674  1.8894  1.8350  0.9794
12629SOL     OW41417   4.155   4.722   7.124 -0.2280  0.4928  0.9057
12629SOL    HW141418   4.153   4.632   7.094  0.8592  0.4484  0.9170
12629SOL    HW241419   4.127   4.718   7.215  0.7277  0.0303  1.1889
12630SOL     OW41420   8.001   9.561  11.084  0.3193  0.1838  0.2944
12630SOL    HW141421   8.055   9.507  11.027  0.8537  0.2684  0.7124
12630SOL    HW241422   7.965   9.499  11.149 -1.2494 -0.1243 -0.8077
12631SOL     OW41423  10.117   3.612   6.980 -0.1679  0.0558 -0.9804
12631SOL    HW141424  10.089   3.669   6.907  2.7308  1.2460 -1.2938
12631SOL    HW241425  10.180   3.552   6.941  0.9519  0.2848  0.4057
12632SOL     OW41426   5.607   3.291  10.660 -0.0222 -0.2214 -0.0353
12632SOL    HW141427   5.563   3.293  10.745  0.4262  0.2477  0.1936
12632SOL    HW241428   5.609   3.199  10.636  0.3213 -0.4260  0.7227
12633SOL     OW41429   9.820   0.265   7.753 -0.3056 -0.3559  0.2936
12633SOL    HW141430   9.892   0.314   7.713 -0.1680 -0.9972 -0.2482
12633SOL    HW241431   9.743   0.321   7.739 -0.0826 -0.1130  0.0184
12634SOL     OW41432   8.573   9.896   2.337 -0.1470  0.6274  0.1092
12634SOL    HW141433   8.623   9.970   2.372  0.6312  0.6326 -0.9633
12634SOL    HW241434   8.633   9.855   2.275 -1.4178  0.5350 -1.0814
12635SOL     OW41435   4.936  10.442   7.223  0.0316  0.4249 -0.6561
12635SOL    HW141436   4.946  10.350   7.246  1.8001  1.1199  1.7537
12635SOL    HW241437   4.867  10.475   7.281  1.4699  1.2184  0.6804
12636SOL     OW41438   4.344   0.054   8.866 -0.1061  0.0540 -0.7281
12636SOL    HW141439   4.436   0.042   8.841 -0.4421 -1.3877 -1.3769
12636SOL    HW241440   4.308  -0.035   8.869 -1.1737  0.4861  0.7821
12637SOL     OW41441   1.349   7.928   6.996 -0.3113  0.1107 -0.0767
12637SOL    HW141442   1.385   7.842   7.014  0.2345  0.6042  1.4232
12637SOL    HW241443   1.255   7.913   6.981 -0.3207 -0.6932  0.7298
12638SOL     OW41444   9.693   8.561   4.748  0.2239 -0.5278 -0.3892
12638SOL    HW141445   9.725   8.643   4.712 -1.4692  1.0288  1.4522
12638SOL    HW241446   9.734   8.555   4.834 -0.0461 -1.3925 -0.3102
12639SOL     OW41447   9.535   2.400  10.090  0.1100  0.2125  0.1286
12639SOL    HW141448   9.458   2.403  10.033 -0.1261 -0.1789  0.4269
12639SOL    HW241449   9.501   2.424  10.176  0.8619  3.1845 -0.2833
12640SOL     OW41450  10.873   2.751   7.012  0.5093 -0.2037 -0.1837
12640SOL    HW141451  10.945   2.812   6.996 -0.7079  1.1497 -0.7709
12640SOL    HW241452  10.850   2.766   7.104  0.3246  0.1030 -0.2786
12641SOL     OW41453   5.065   6.453   0.293 -0.5512  0.8424 -0.5090
12641SOL    HW141454   5.130   6.517   0.326  0.8138 -0.4138 -0.6522
12641SOL    HW241455   5.057   6.389   0.364  1.4484 -1.1987 -1.9694
12642SOL     OW41456   0.505   3.051   0.176  0.1492 -0.2533 -0.8963
12642SOL    HW141457   0.412   3.042   0.197  0.1141  1.2021 -0.3169
12642SOL    HW241458   0.531   3.134   0.217  2.8038 -2.6235  3.0086
12643SOL     OW41459  10.151   0.592   0.516  0.5488 -0.2721  0.2331
12643SOL    HW141460  10.230   0.563   0.470  0.2648  0.8290 -0.9975
12643SOL    HW241461  10.175   0.589   0.609  1.7813 -0.6546 -0.0809
12644SOL     OW41462   7.669   6.126   5.585  0.1907  0.3781 -0.3296
12644SOL    HW141463   7.626   6.208   5.609 -1.0121 -0.6248  1.1534
12644SOL    HW241464   7.727   6.107   5.659 -0.5299 -0.7418 -0.0248
12645SOL     OW41465   7.871   6.480   4.159 -0.0244  0.2132 -0.2866
12645SOL    HW141466   7.922   6.528   4.224  1.0957 -0.4469 -0.6414
12645SOL    HW241467   7.936   6.428   4.112 -1.1351 -1.3355 -0.1826
12646SOL     OW41468   3.178  10.452   1.248  0.5362 -0.1950 -0.3009
12646SOL    HW141469   3.144  10.460   1.337 -0.1899 -0.9984 -0.4899
12646SOL    HW241470   3.265  10.414   1.258  0.5372 -0.0886  0.0840
12647SOL     OW41471   8.619   7.727   8.136 -0.7481 -0.3187 -0.1039
12647SOL    HW141472   8.524   7.743   8.137 -0.6593  0.3900  1.8618
12647SOL    HW241473   8.658   7.814   8.129 -0.2382 -0.5963 -0.7655
12648SOL     OW41474   7.220  10.151  10.276 -0.3344 -0.1397 -0.2390
12648SOL    HW141475   7.275  10.132  10.352  1.4928 -0.4015 -1.5647
12648SOL    HW241476   7.181  10.067  10.253  0.2931 -0.3754 -0.4640
12649SOL     OW41477   3.998   9.073   3.907 -0.0870  0.4649 -0.2802
12649SOL    HW141478   4.077   9.019   3.902 -0.2040  0.3050 -0.4262
12649SOL    HW241479   3.994   9.118   3.823 -0.2891  0.2766 -0.3729
12650SOL     OW41480   8.478   9.640   4.732  0.3154  1.0029 -0.4521
12650SOL    HW141481   8.420   9.672   4.801 -0.2430 -1.4884  0.3297
12650SOL    HW241482   8.551   9.599   4.778  0.4044  0.1239 -1.3224
12651SOL     OW41483   1.616  10.306   7.123 -0.2616  0.1079 -0.4037
12651SOL    HW141484   1.570  10.283   7.042 -2.2667  1.9530  0.1303
12651SOL    HW241485   1.691  10.357   7.093 -1.2770  1.2355 -1.1261
12652SOL     OW41486  10.550   5.830   8.476  0.2642  0.1925 -0.0314
12652SOL    HW141487  10.624   5.865   8.526  0.2647  1.0466 -0.6243
12652SOL    HW241488  10.589   5.765   8.418  0.0603 -2.1932  2.2615
12653SOL     OW41489  10.275   1.950   6.615  0.3005  0.3021  0.1177
12653SOL    HW141490  10.205   1.888   6.594  1.0133 -0.1893 -0.8476
12653SOL    HW241491  10.315   1.916   6.694  0.5681 -0.3850 -0.3045
12654SOL     OW41492   6.263   1.589   7.416 -0.5904  0.0452  0.7613
12654SOL    HW141493   6.328   1.564   7.351  0.6645  4.4704 -0.0536
12654SOL    HW241494   6.194   1.522   7.409  0.7220 -1.1432 -3.2224
12655SOL     OW41495   3.679  10.752   4.324  0.5228  0.2052  0.0876
12655SOL    HW141496   3.636  10.774   4.241  0.0644  0.1365  0.3049
12655SOL    HW241497   3.767  10.723   4.298 -0.1403 -1.3939 -0.5275
12656SOL     OW41498   6.793  10.621   5.436  0.9337 -0.6925  0.2088
12656SOL    HW141499   6.856  10.549   5.430  0.2818 -1.1623 -3.1295
12656SOL    HW241500   6.814  10.678   5.362  0.4088  1.7744  1.8180
12657SOL     OW41501   3.784   5.353  10.224  0.0484  0.5645  0.1263
12657SOL    HW141502   3.849   5.375  10.291  0.6119  1.6571 -0.7646
12657SOL    HW241503   3.821   5.276  10.180 -0.1993  0.0017  0.8754
12658SOL     OW41504   0.433  10.656   5.156  0.1355  0.5150 -0.1873
12658SOL    HW141505   0.508  10.619   5.202 -0.3824  0.3175  0.5099
12658SOL    HW241506   0.460  10.659   5.064  0.3385 -1.1829 -0.2010
12659SOL     OW41507   9.095   4.384   2.708 -0.1476 -1.0986 -0.4304
12659SOL    HW141508   9.120   4.388   2.616  1.9872 -1.1920  0.1058
12659SOL    HW241509   9.025   4.449   2.716  0.3576 -0.3290 -1.9014
12660SOL     OW41510   1.029   7.427   4.743 -0.4569 -0.3205  0.0242
12660SOL    HW141511   1.004   7.519   4.740  1.8560  0.3736  0.0849
12660SOL    HW241512   0.951   7.382   4.774 -1.7730  1.5571 -0.4052
12661SOL     OW41513   4.284   2.566   1.767 -0.2308 -0.0331  0.0534
12661SOL    HW141514   4.371   2.583   1.732  0.8448 -0.9148  2.1406
12661SOL    HW241515   4.281   2.614   1.850 -0.9756 -1.6298  0.9868
12662SOL     OW41516   6.970   2.517   4.056  0.7423 -0.8840  0.7543
12662SOL    HW141517   7.057   2.478   4.057  0.5945 -1.2752 -0.4123
12662SOL    HW241518   6.982   2.600   4.010  0.5961 -0.6675  1.0986
12663SOL     OW41519   2.193   5.336   3.541 -0.1655  0.0359 -0.5218
12663SOL    HW141520   2.271   5.340   3.486  0.4651 -1.0686  0.2424
12663SOL    HW241521   2.122   5.367   3.485  0.6725  0.2163 -1.5107
12664SOL     OW41522  10.173   2.652   0.589  0.1197  0.5504  0.2021
12664SOL    HW141523  10.181   2.560   0.615 -0.6463  0.8670  1.6997
12664SOL    HW241524  10.258   2.674   0.552 -0.3116 -1.2907 -2.0754
12665SOL     OW41525   1.149   5.828   3.971  0.5300 -0.2893  0.3056
12665SOL    HW141526   1.160   5.913   3.928 -0.3983  1.0077  2.4631
12665SOL    HW241527   1.065   5.835   4.016  0.7336 -2.1391  1.0615
12666SOL     OW41528   7.705   4.848   1.839 -0.3209 -0.6947 -0.4053
12666SOL    HW141529   7.642   4.879   1.905 -0.3842 -2.3203  0.3414
12666SOL    HW241530   7.791   4.871   1.876 -0.4026  0.0830 -0.6707
12667SOL     OW41531   9.560   8.033   3.179  0.1262 -0.0512  0.7054
12667SOL    HW141532   9.502   8.048   3.104  2.0081  1.1096 -0.6159
12667SOL    HW241533   9.547   8.110   3.235  1.5112  1.0715 -0.4244
12668SOL     OW41534   5.011   9.605   4.823  0.1116  0.5110 -0.1402
12668SOL    HW141535   5.017   9.677   4.760  0.1725  0.3411 -0.3337
12668SOL    HW241536   4.977   9.645   4.903  2.1621  1.1754  0.4413
12669SOL     OW41537   5.839   1.432   5.314  0.1240  0.1432  0.3039
12669SOL    HW141538   5.747   1.457   5.323 -0.2912 -1.1916 -0.1116
12669SOL    HW241539   5.837   1.339   5.294  1.6941 -0.9751  4.3703
12670SOL     OW41540   7.356  10.936   9.589  0.0884  0.4097 -0.1842
12670SOL    HW141541   7.267  10.906   9.570 -0.6625  2.5976 -0.4421
12670SOL    HW241542   7.400  10.937   9.505  0.1430  0.0086 -0.1631
12671SOL     OW41543   0.538   7.209   9.560  0.2344 -0.5488  0.0302
12671SOL    HW141544   0.548   7.114   9.564  2.5118 -0.3649 -0.1459
12671SOL    HW241545   0.609   7.239   9.503  0.5778  1.3967  1.3722
12672SOL     OW41546   2.809   0.625  10.198 -0.0084  0.0198  0.5325
12672SOL    HW141547   2.900   0.601  10.185  0.0357  0.6938 -0.4868
12672SOL    HW241548   2.759   0.560  10.150  0.0088  0.5292 -0.1884
12673SOL     OW41549   8.958   0.579  10.658 -0.2930  0.0904  0.0910
12673SOL    HW141550   9.011   0.534  10.593  0.6062 -0.1693  0.9856
12673SOL    HW241551   8.910   0.509  10.703 -0.9825  0.2763 -0.3361
12674SOL     OW41552   3.499   1.385   6.277 -0.0919 -0.0018  0.2437
12674SOL    HW141553   3.531   1.471   6.250 -1.2963  0.3319 -0.2199
12674SOL    HW241554   3.434   1.404   6.344 -0.0827 -0.5788  0.4212
12675SOL     OW41555  10.412  10.533   3.351 -0.9128 -0.5453 -0.0550
12675SOL    HW141556  10.499  10.573   3.351 -0.2064 -2.0004  1.4761
12675SOL    HW241557  10.356  10.597   3.396 -0.7954  0.6183 -1.4835
12676SOL     OW41558   1.959   6.124   2.536 -0.1909 -0.3505 -0.4616
12676SOL    HW141559   1.922   6.054   2.590 -0.4007  0.1894  0.1019
12676SOL    HW241560   1.887   6.151   2.479 -0.3692 -0.0082 -0.0805
12677SOL     OW41561  10.337   3.705   5.964 -0.0729  0.8516  0.1668
12677SOL    HW141562  10.312   3.658   6.043  0.4531 -0.4949 -0.4290
12677SOL    HW241563  10.293   3.790   5.971 -1.9721 -0.1269  0.7729
12678SOL     OW41564   3.320   2.042  10.104  0.1327 -0.6766  0.3394
12678SOL    HW141565   3.347   1.997  10.024 -0.0330  1.7982 -1.2137
12678SOL    HW241566   3.226   2.056  10.093  0.1678 -0.0352  0.7917
12679SOL     OW41567   7.421   0.768  10.232 -0.1551 -0.3235  0.2649
12679SOL    HW141568   7.446   0.813  10.152 -3.0492  0.4976 -0.2788
12679SOL    HW241569   7.333   0.735  10.215  0.0506 -2.1598  2.3164
12680SOL     OW41570   1.401   1.530   8.560 -0.3688 -0.2473 -0.8069
12680SOL    HW141571   1.493   1.545   8.541 -0.2949 -0.1833 -0.4226
12680SOL    HW241572   1.392   1.552   8.653 -0.9441  0.5900 -1.0449
12681SOL     OW41573  11.041   9.393   8.508 -0.5393  0.3936 -1.1788
12681SOL    HW141574  11.029   9.462   8.573  0.1064 -1.8738  1.5703
12681SOL    HW241575  11.136   9.393   8.492 -0.0310 -1.5555  1.1163
12682SOL     OW41576   5.157   0.035   2.644 -0.6801  0.8302  0.4665
12682SOL    HW141577   5.177   0.057   2.735  2.1067 -0.2120  0.2164
12682SOL    HW241578   5.184   0.112   2.594 -0.5712  0.7587  0.4127
12683SOL     OW41579   1.260   0.046   8.094 -0.2989  0.0008 -0.1433
12683SOL    HW141580   1.293   0.094   8.170  0.8629 -1.3058  0.2216
12683SOL    HW241581   1.327   0.058   8.027 -0.2386 -0.6770 -0.2120
12684SOL     OW41582   3.205   0.505   0.728 -0.0908  0.4250  0.0006
12684SOL    HW141583   3.298   0.501   0.751  0.2167 -0.0314 -1.2237
12684SOL    HW241584   3.165   0.434   0.778  0.1371  0.8820  0.8466
12685SOL     OW41585   4.342   9.269   5.441 -0.0916  0.7281 -0.0012
12685SOL    HW141586   4.378   9.277   5.529 -2.4699 -2.7003  1.5270
12685SOL    HW241587   4.409   9.222   5.392  0.4752  0.9109  0.5845
12686SOL     OW41588   2.588   5.706   5.119 -0.1608  0.5440 -0.2070
12686SOL    HW141589   2.622   5.617   5.106  0.6487  0.5215  1.7321
12686SOL    HW241590   2.521   5.697   5.187  1.3943  1.6349  1.5779
12687SOL     OW41591   1.412   5.388   7.372  0.4549 -0.0941  0.5546
12687SOL    HW141592   1.387   5.399   7.463  0.7491  3.0710  0.3438
12687SOL    HW241593   1.508   5.392   7.373  0.5093 -0.9420  0.1604
12688SOL     OW41594   0.033   5.294   7.956  0.2830  0.0198 -0.5453
12688SOL    HW141595  -0.024   5.351   7.904  0.7427  0.9610 -0.0443
12688SOL    HW241596   0.122   5.318   7.931  0.5037  0.2004  0.3510
12689SOL     OW41597   3.536   3.290  10.157  0.2354  0.4227 -0.0507
12689SOL    HW141598   3.626   3.321  10.146 -0.4289  3.1269  1.3231
12689SOL    HW241599   3.536   3.202  10.119  3.2643  0.6097 -0.7122
12690SOL     OW41600   5.261   9.426   6.596  0.1716  0.2813 -0.0380
12690SOL    HW141601   5.341   9.436   6.544  0.6744  1.2336  0.8893
12690SOL    HW241602   5.202   9.377   6.540  1.4145 -0.4541 -0.7460
12691SOL     OW41603   8.761   6.931  10.505 -0.4025  0.0455 -0.2546
12691SOL    HW141604   8.812   6.867  10.554 -2.2131 -0.4615  1.0539
12691SOL    HW241605   8.807   6.938  10.421  0.2253 -2.4779 -0.2037
12692SOL     OW41606   5.592   2.019   7.715 -0.1589 -0.0281  0.2720
12692SOL    HW141607   5.616   2.085   7.780 -1.0539 -0.6558  1.2840
12692SOL    HW241608   5.501   2.038   7.693  0.1529  0.2124 -0.8657
12693SOL     OW41609   6.874   9.816  10.075 -0.2370  0.0553  0.2242
12693SOL    HW141610   6.814   9.743  10.059 -2.7353  1.9550  0.4820
12693SOL    HW241611   6.845   9.885  10.015  2.3466  0.7734 -0.3389
12694SOL     OW41612   2.412  10.889  10.156  0.6236  0.9620  0.0103
12694SOL    HW141613   2.424  10.800  10.120 -1.8974  0.6418 -0.2047
12694SOL    HW241614   2.468  10.891  10.233  0.7783 -0.8217 -0.0016
12695SOL     OW41615   6.507   4.038   2.414  0.1786  0.2114  0.2245
12695SOL    HW141616   6.529   4.122   2.374  2.0402 -0.7870 -0.9945
12695SOL    HW241617   6.417   4.048   2.444  0.1654  2.4307 -0.3986
12696SOL     OW41618   8.578   4.255  10.856  0.1182 -0.4652 -0.0100
12696SOL    HW141619   8.487   4.237  10.878 -0.4827  1.0931 -0.9914
12696SOL    HW241620   8.579   4.264  10.761  1.0743  0.5232  0.0590
12697SOL     OW41621   0.530   2.414  10.260 -0.0883  0.0254 -0.4515
12697SOL    HW141622   0.457   2.375  10.308 -0.6796 -1.0463 -2.1238
12697SOL    HW241623   0.599   2.347  10.263 -0.4431 -0.4307 -1.7762
12698SOL     OW41624   8.253   9.775   2.066 -0.1485  0.0510  0.2293
12698SOL    HW141625   8.250   9.855   2.118 -0.4376 -0.6714  1.3488
12698SOL    HW241626   8.277   9.706   2.128 -0.2219 -0.7900 -0.6466
12699SOL     OW41627   7.460   2.175   1.617 -0.3288 -0.4973  0.2963
12699SOL    HW141628   7.499   2.112   1.678 -0.1498 -0.3686  0.3152
12699SOL    HW241629   7.388   2.127   1.576 -1.2149 -0.2414  1.4674
12700SOL     OW41630   1.667  10.934   4.849  0.7003  0.2838 -0.3603
12700SOL    HW141631   1.629  11.017   4.819  0.1285 -0.4528 -1.7493
12700SOL    HW241632   1.675  10.945   4.943 -0.7208  1.3897 -0.3245
12701SOL     OW41633   4.118   7.490   2.670  0.1378 -0.0446 -0.1784
12701SOL    HW141634   4.151   7.420   2.726 -3.3427 -1.7693 -0.0361
12701SOL    HW241635   4.093   7.446   2.589  2.1483  1.8995 -1.9761
12702SOL     OW41636   6.266  10.214   8.470  0.1044 -0.0393  0.2383
12702SOL    HW141637   6.273  10.307   8.493  0.7631 -0.1588  0.5294
12702SOL    HW241638   6.191  10.211   8.409 -0.0041  0.6593  0.3209
12703SOL     OW41639   9.994   7.301   9.221  0.2166  0.4727 -0.5183
12703SOL    HW141640   9.918   7.355   9.245 -0.5035 -1.1773  1.1459
12703SOL    HW241641  10.068   7.361   9.225 -0.4267  1.2338  2.1001
12704SOL     OW41642   1.801   8.134   2.834 -0.2477  0.4479  0.0626
12704SOL    HW141643   1.796   8.229   2.825  0.0385  0.5003  0.4430
12704SOL    HW241644   1.814   8.102   2.745  0.8132  0.8460  0.0627
12705SOL     OW41645   5.497   9.928   0.803  0.1436 -0.4807 -0.2214
12705SOL    HW141646   5.419   9.881   0.773 -1.1611  1.1208  0.4791
12705SOL    HW241647   5.538   9.869   0.866 -0.1292 -1.6228 -1.0959
12706SOL     OW41648   8.380   4.511   6.383  0.1435  0.1130  0.6875
12706SOL    HW141649   8.365   4.546   6.295  0.0616 -0.1427  0.5972
12706SOL    HW241650   8.305   4.540   6.434  0.2534  0.3667  0.7050
12707SOL     OW41651   0.674   1.572   8.189 -0.2728 -0.2376 -0.1679
12707SOL    HW141652   0.755   1.616   8.163 -0.9906  0.4217 -1.3977
12707SOL    HW241653   0.686   1.481   8.163  0.1040 -0.1551 -0.2860
12708SOL     OW41654   5.425   1.913  10.866 -0.1516  0.2573  0.0951
12708SOL    HW141655   5.516   1.908  10.837 -0.1884 -0.9935  0.1345
12708SOL    HW241656   5.414   2.003  10.896  1.9377 -0.3373  2.9804
12709SOL     OW41657   7.905   5.630   9.143  0.4858 -0.0770  0.2220
12709SOL    HW141658   7.975   5.665   9.087 -1.7014  3.1215 -0.8065
12709SOL    HW241659   7.856   5.570   9.086  0.7176 -0.1034  0.0487
12710SOL     OW41660  10.515   8.017  10.711 -0.8200 -0.1308  0.9795
12710SOL    HW141661  10.422   8.008  10.732 -1.1875 -1.9687 -1.0228
12710SOL    HW241662  10.560   7.965  10.778 -1.6865 -3.1273 -0.5563
12711SOL     OW41663   0.168   5.814  10.100  0.3837 -0.1853 -0.4516
12711SOL    HW141664   0.225   5.861  10.160  2.2765 -0.6788 -1.7682
12711SOL    HW241665   0.149   5.877  10.031  0.5384 -0.4628 -0.7507
12712SOL     OW41666   8.586   2.877   9.703 -0.2390 -0.4329  0.1795
12712SOL    HW141667   8.551   2.936   9.637  0.0867 -0.4484 -0.0119
12712SOL    HW241668   8.524   2.882   9.775  0.0527  0.5403  0.3816
12713SOL     OW41669   8.996   9.015   3.534 -0.5599  0.1068  0.1358
12713SOL    HW141670   8.948   8.955   3.478 -0.1702 -0.5064  0.4508
12713SOL    HW241671   9.083   8.976   3.542 -0.2281  0.8286  0.1578
12714SOL     OW41672   9.286   8.850   0.778  0.3123  0.6073  0.0904
12714SOL    HW141673   9.302   8.915   0.710 -1.6896  0.7881 -0.2777
12714SOL    HW241674   9.360   8.790   0.772  0.2254  0.6632 -2.2009
12715SOL     OW41675  10.082   4.336   1.342  0.6900 -0.5580 -0.1562
12715SOL    HW141676  10.095   4.398   1.413  0.0015 -2.1940  1.4969
12715SOL    HW241677   9.993   4.303   1.355  0.5498 -0.9081 -1.7912
12716SOL     OW41678   6.733   6.882   8.064 -0.1187  0.0451  0.0792
12716SOL    HW141679   6.645   6.878   8.028 -0.6889 -1.4888  1.5084
12716SOL    HW241680   6.723   6.932   8.146  0.3486 -0.0659  0.2087
12717SOL     OW41681   1.696   7.823  10.655 -0.3265  0.4722  0.2304
12717SOL    HW141682   1.782   7.828  10.613 -1.9111  4.3070 -3.2294
12717SOL    HW241683   1.683   7.909  10.694 -2.5701 -0.0416  0.7538
12718SOL     OW41684   3.248   2.235   4.649 -0.2675  0.0556  0.1772
12718SOL    HW141685   3.246   2.140   4.639 -1.4114  0.0683  0.1846
12718SOL    HW241686   3.301   2.250   4.727 -1.1773 -0.6435  0.9404
12719SOL     OW41687   1.322   2.704   4.876  0.0833 -0.0194  0.8827
12719SOL    HW141688   1.397   2.645   4.866  0.5688  0.4491  1.6548
12719SOL    HW241689   1.352   2.787   4.840 -0.6740 -0.2842 -0.3989
12720SOL     OW41690   3.570   8.629   0.088  0.2878 -0.2745 -0.4839
12720SOL    HW141691   3.589   8.609  -0.003 -0.8925 -0.9258 -0.6103
12720SOL    HW241692   3.589   8.723   0.096 -0.1611 -0.0748 -1.5581
12721SOL     OW41693   4.895   6.695   5.281  0.4500  0.1394  0.6637
12721SOL    HW141694   4.864   6.772   5.328  1.1846  0.3334  0.8423
12721SOL    HW241695   4.877   6.622   5.340 -0.5138  0.1183  0.3762
12722SOL     OW41696   8.815   8.467   7.624  0.0965  0.7944 -0.1126
12722SOL    HW141697   8.787   8.541   7.677 -0.3238  0.4304  0.1846
12722SOL    HW241698   8.785   8.487   7.536 -1.8115  0.0753  0.3258
12723SOL     OW41699   0.937   5.376   9.886  0.2315  0.3035 -0.4734
12723SOL    HW141700   0.935   5.454   9.942  0.1547  0.4568 -0.6862
12723SOL    HW241701   0.919   5.303   9.945  0.0136  0.4782 -0.3214
12724SOL     OW41702   9.270   7.835   0.671 -0.5647  0.1474 -0.1441
12724SOL    HW141703   9.326   7.762   0.643  1.1717  0.9754  0.9835
12724SOL    HW241704   9.270   7.894   0.596  0.3980  0.2947 -0.0479
12725SOL     OW41705   1.572   5.417   9.107 -0.4481  0.2494 -0.7770
12725SOL    HW141706   1.482   5.387   9.108  0.3282 -2.3265 -0.0672
12725SOL    HW241707   1.588   5.445   9.017 -1.9535  0.8031 -0.8882
12726SOL     OW41708   7.054   7.500   9.817 -0.1093  0.1712 -0.3255
12726SOL    HW141709   7.096   7.531   9.736  1.2889 -0.7323  0.0208
12726SOL    HW241710   7.004   7.423   9.790  1.9993 -1.3788 -0.0456
12727SOL     OW41711  10.021   9.736   1.158  0.5033 -0.0640  0.2780
12727SOL    HW141712  10.017   9.758   1.065 -0.0690 -0.8653  0.0972
12727SOL    HW241713  10.093   9.673   1.165  0.6530  0.1223  0.4032
12728SOL     OW41714   6.497   1.791  10.444  0.2751  0.4333  0.0581
12728SOL    HW141715   6.532   1.877  10.420  0.9824 -0.1918 -1.2704
12728SOL    HW241716   6.510   1.785  10.539 -1.4108  2.4822  0.4800
12729SOL     OW41717   6.207   0.067  10.963  0.4266 -0.5244  0.2463
12729SOL    HW141718   6.153   0.127  10.911 -1.0701 -0.5375  1.7028
12729SOL    HW241719   6.233   0.119  11.039  0.4177 -1.2694  0.7582
12730SOL     OW41720   4.515   5.983   8.861 -0.0528  0.0179 -0.3082
12730SOL    HW141721   4.474   5.940   8.786  0.3562  1.0950 -1.1846
12730SOL    HW241722   4.566   6.054   8.822 -1.4629  1.9209  1.1093
12731SOL     OW41723   2.072   7.530   1.191 -0.3198 -0.5977  0.0620
12731SOL    HW141724   2.024   7.612   1.181 -2.4011 -1.3985  2.4322
12731SOL    HW241725   2.162   7.556   1.208 -0.5287  1.0954 -1.1377
12732SOL     OW41726   7.988   0.555   9.096  0.0993  0.2803  0.5765
12732SOL    HW141727   7.981   0.460   9.105 -1.5206  0.3175  0.0651
12732SOL    HW241728   7.897   0.586   9.091  0.5662  1.5826 -1.6981
12733SOL     OW41729   9.361   3.931   4.464 -0.7457  0.3914  0.2909
12733SOL    HW141730   9.319   3.992   4.403 -0.1492  3.5932  2.8159
12733SOL    HW241731   9.317   3.947   4.548  0.3164 -1.8299  1.3545
12734SOL     OW41732   5.382   1.129   0.554  0.2013  0.2393  0.4624
12734SOL    HW141733   5.323   1.191   0.509  1.0821  2.0252  1.6276
12734SOL    HW241734   5.443   1.101   0.486 -0.6416  0.0749 -0.2522
12735SOL     OW41735   6.723  10.975   0.412 -0.3598  0.4945 -0.3156
12735SOL    HW141736   6.696  10.903   0.470 -0.2354  0.9076  0.2597
12735SOL    HW241737   6.641  11.007   0.374 -0.4609  0.3238 -0.2444
12736SOL     OW41738   0.942   7.964  10.689 -0.5775  0.4147 -0.3760
12736SOL    HW141739   1.029   7.990  10.659 -0.1577 -0.8228 -0.2732
12736SOL    HW241740   0.889   8.044  10.681  1.3544  2.2292  2.7875
12737SOL     OW41741   6.803   0.197  10.096 -0.1066  0.3007  0.1653
12737SOL    HW141742   6.770   0.108  10.108  1.1594 -0.1073  0.7402
12737SOL    HW241743   6.766   0.224  10.012 -1.9275 -0.0960  0.7810
12738SOL     OW41744   0.162   8.544   8.604 -0.4901  0.3230  0.1057
12738SOL    HW141745   0.204   8.508   8.526 -0.2090  0.3429  0.2466
12738SOL    HW241746   0.206   8.628   8.618 -0.2189  0.1099  0.5536
12739SOL     OW41747   4.482   1.040   8.951 -0.1826  0.2357  0.2292
12739SOL    HW141748   4.498   0.960   9.001 -2.5756 -0.3133  0.2588
12739SOL    HW241749   4.453   1.104   9.016 -4.1349 -0.7238 -0.3180
12740SOL     OW41750   2.529  10.912  10.752 -0.7959  0.0078  0.3933
12740SOL    HW141751   2.504  10.999  10.783  1.6493  2.0464 -2.7896
12740SOL    HW241752   2.480  10.900  10.671 -0.7502 -1.3796  0.5514
12741SOL     OW41753   6.960   9.496   9.470  0.1515  0.3370 -0.5272
12741SOL    HW141754   7.009   9.425   9.510 -2.1872 -1.8334 -1.2408
12741SOL    HW241755   7.015   9.526   9.397  0.6625 -1.6490 -0.9998
12742SOL     OW41756   6.524   3.050   1.159 -0.0432  0.1834 -0.2190
12742SOL    HW141757   6.612   3.086   1.164 -0.1011  0.3206 -0.1751
12742SOL    HW241758   6.519   2.989   1.233  0.1000 -0.0159 -0.3734
12743SOL     OW41759   8.023   0.405   9.630 -0.1743  0.1924 -0.2604
12743SOL    HW141760   8.056   0.316   9.614  0.0005 -0.0634  1.4063
12743SOL    HW241761   7.979   0.429   9.548  1.3688 -0.7000 -1.4219
12744SOL     OW41762  10.903   9.344   9.578  0.0993  0.0334  0.0617
12744SOL    HW141763  10.832   9.336   9.514  0.0998 -1.2204  0.1942
12744SOL    HW241764  10.983   9.328   9.526  0.1573 -0.2135  0.2252
12745SOL     OW41765   6.219   0.519   2.824  0.0213  0.3575  0.0515
12745SOL    HW141766   6.267   0.600   2.837 -0.3977  0.7513 -0.7868
12745SOL    HW241767   6.132   0.547   2.795  0.2380 -0.4086 -1.4288
12746SOL     OW41768   8.002   2.270   6.163  0.2559  0.0070  0.2632
12746SOL    HW141769   7.927   2.213   6.147  0.0072  0.5692 -0.6930
12746SOL    HW241770   8.044   2.234   6.241 -1.8526  0.5498  1.7328
12747SOL     OW41771  10.531   9.427   2.300 -0.3900  0.0722 -0.6293
12747SOL    HW141772  10.437   9.409   2.290 -0.5005 -0.1654  0.6707
12747SOL    HW241773  10.563   9.435   2.210 -1.5895 -0.1572 -1.1047
12748SOL     OW41774   3.007   1.768   1.995 -0.1909 -0.1720  0.9867
12748SOL    HW141775   2.946   1.695   2.001 -0.8489  0.2864  0.0706
12748SOL    HW241776   3.027   1.775   1.902 -0.5580  1.1482  0.9851
12749SOL     OW41777   3.561   7.374   5.219  0.8127  0.0684 -0.2263
12749SOL    HW141778   3.619   7.363   5.144  3.2521  0.8741  1.4328
12749SOL    HW241779   3.604   7.328   5.291  0.1098  1.7882  1.4022
12750SOL     OW41780   8.207   5.593   2.478 -0.2134  0.0868 -0.0402
12750SOL    HW141781   8.184   5.502   2.458 -0.7570  0.1517  0.2721
12750SOL    HW241782   8.225   5.593   2.572  3.1248 -0.3908 -0.5476
12751SOL     OW41783   2.214  10.454  10.234  0.8180 -0.0323  0.3435
12751SOL    HW141784   2.127  10.439  10.195  0.4772  0.6389  0.8122
12751SOL    HW241785   2.223  10.386  10.300  0.1588  0.5601  1.0660
12752SOL     OW41786  11.011   3.506   5.013 -0.2245 -0.2325 -0.2986
12752SOL    HW141787  11.036   3.598   5.000 -2.0463  0.8435  2.6200
12752SOL    HW241788  11.084   3.468   5.062 -1.3677  1.1362  2.7180
12753SOL     OW41789   8.874   7.127   8.300 -0.1797 -0.4809 -0.6553
12753SOL    HW141790   8.781   7.139   8.323 -0.1573 -1.1406 -0.1619
12753SOL    HW241791   8.904   7.214   8.275 -0.3120  0.2582  1.5096
12754SOL     OW41792  10.871   4.903   1.541  0.2585 -0.0450  0.4577
12754SOL    HW141793  10.900   4.812   1.554 -3.2088 -1.2100  1.2557
12754SOL    HW241794  10.889   4.921   1.448  0.7147 -1.7076  0.1894
12755SOL     OW41795   7.963   4.896   2.885 -0.1584  0.3571 -0.0282
12755SOL    HW141796   7.937   4.988   2.887 -0.1738  0.3545 -0.0819
12755SOL    HW241797   8.029   4.892   2.815  0.8663  0.5837  0.9022
12756SOL     OW41798   6.195   9.481   3.291 -0.1016 -0.2281 -0.3764
12756SOL    HW141799   6.242   9.402   3.264 -0.1939 -0.8864  1.2712
12756SOL    HW241800   6.187   9.532   3.211  1.0446 -1.3263 -1.2434
12757SOL     OW41801   9.045   8.854   2.608  0.4372 -0.2016 -0.0329
12757SOL    HW141802   9.126   8.862   2.658  0.6763  0.9684 -0.5606
12757SOL    HW241803   9.050   8.924   2.544 -0.6632 -0.5813 -0.5576
12758SOL     OW41804   6.059   6.287   5.617 -0.2907 -0.4575  0.0169
12758SOL    HW141805   6.127   6.354   5.609 -0.2594 -0.2868  1.4501
12758SOL    HW241806   6.034   6.268   5.527  1.2303 -0.0939 -0.5226
12759SOL     OW41807   0.368   8.434   4.861  0.4168  0.2821 -0.1035
12759SOL    HW141808   0.305   8.498   4.893  0.7794  0.4035  0.3856
12759SOL    HW241809   0.402   8.472   4.780  1.2653  1.1316  0.6293
12760SOL     OW41810   1.315  10.893   8.161 -0.3890  0.1495 -0.4752
12760SOL    HW141811   1.240  10.838   8.183 -1.4954  0.5293 -2.8805
12760SOL    HW241812   1.276  10.976   8.133  0.9226  0.4515 -1.4957
12761SOL     OW41813   2.488   2.187   6.807  0.1945  0.4369  0.2612
12761SOL    HW141814   2.465   2.104   6.765  0.3262  0.7602 -0.4658
12761SOL    HW241815   2.410   2.211   6.857  0.7345 -0.9718  1.8992
12762SOL     OW41816   6.574   9.874   3.074  0.0482 -0.1793  0.0811
12762SOL    HW141817   6.490   9.828   3.071 -1.0659  1.7321  0.2606
12762SOL    HW241818   6.598   9.883   2.982 -0.8415  0.7542 -0.0836
12763SOL     OW41819   8.524   4.167   0.569  0.8373  0.2329 -0.1527
12763SOL    HW141820   8.572   4.127   0.641  0.0052  0.5313  0.5813
12763SOL    HW241821   8.495   4.252   0.603 -1.3641 -0.4873 -0.0927
12764SOL     OW41822   4.337   7.797   0.636  0.3030 -0.7603 -0.3719
12764SOL    HW141823   4.242   7.802   0.626  0.3685 -0.2903 -0.8158
12764SOL    HW241824   4.365   7.888   0.647  0.8851 -0.6643 -2.1659
12765SOL     OW41825   6.458   6.553   3.492 -0.4137  0.5201  0.2528
12765SOL    HW141826   6.537   6.506   3.464  0.3356  1.7677  0.1652
12765SOL    HW241827   6.390   6.524   3.432  0.0124 -0.4665  0.2281
12766SOL     OW41828   0.511   4.424   0.933  0.3847 -0.1605  0.2911
12766SOL    HW141829   0.523   4.460   0.845 -0.1683  0.1952  0.3559
12766SOL    HW241830   0.558   4.340   0.931 -0.6825 -0.7731 -0.7522
12767SOL     OW41831   7.468   1.718   5.967 -0.1859 -0.3875 -0.1639
12767SOL    HW141832   7.405   1.701   5.897 -0.1447  0.4597 -0.4192
12767SOL    HW241833   7.553   1.712   5.925 -0.1764  3.1816 -1.0089
12768SOL     OW41834   5.471   3.219  10.901 -0.7283  0.1459 -0.4388
12768SOL    HW141835   5.447   3.300  10.946  1.1095  0.8057 -0.5911
12768SOL    HW241836   5.420   3.151  10.947 -0.3835  1.0513  1.3901
12769SOL     OW41837   2.003   5.800   5.139 -0.5012 -0.4614  0.2448
12769SOL    HW141838   2.028   5.873   5.195 -1.0281 -0.2731  0.2383
12769SOL    HW241839   2.025   5.722   5.190  1.6432 -0.3599 -0.4075
12770SOL     OW41840   4.986   2.871   5.513 -0.5382 -0.1227 -0.0492
12770SOL    HW141841   4.980   2.778   5.536  2.8243 -0.8074 -1.3363
12770SOL    HW241842   5.048   2.908   5.576 -0.6928  0.9015 -0.4728
12771SOL     OW41843   4.815   5.162   5.189  0.2592  0.0382 -0.2016
12771SOL    HW141844   4.769   5.094   5.239  0.2456 -0.2402 -0.5853
12771SOL    HW241845   4.745   5.208   5.142  0.2566  0.3949  0.1442
12772SOL     OW41846   8.996   2.173   1.721 -0.2999 -0.1638  0.3323
12772SOL    HW141847   9.075   2.192   1.669 -0.2380  1.7141  1.0229
12772SOL    HW241848   9.022   2.193   1.811 -1.3622 -0.2264  0.6659
12773SOL     OW41849   3.326   9.748   0.402 -0.6497 -0.1894 -0.0806
12773SOL    HW141850   3.384   9.678   0.430 -1.7805 -1.0801  0.1147
12773SOL    HW241851   3.274   9.769   0.480  0.6560  1.9299  0.3167
12774SOL     OW41852   6.920   1.561   6.585  0.2859  0.6301  0.4053
12774SOL    HW141853   6.848   1.509   6.621 -0.1908  1.9268  1.3916
12774SOL    HW241854   6.999   1.518   6.617 -0.0536 -0.2923  0.0379
12775SOL     OW41855   1.238   1.554   1.958 -0.1666 -0.1756  0.1012
12775SOL    HW141856   1.293   1.614   2.009  0.3091  0.2068 -0.8155
12775SOL    HW241857   1.152   1.559   1.998 -0.6282  2.5591 -1.0147
12776SOL     OW41858   5.865   6.912   4.146  0.3205  0.3040  0.2301
12776SOL    HW141859   5.828   6.828   4.172  0.3311  0.0648 -0.5201
12776SOL    HW241860   5.910   6.894   4.064  0.1242  1.0963 -0.0569
12777SOL     OW41861   1.501   7.867   6.418 -0.4032  0.6767 -0.5232
12777SOL    HW141862   1.507   7.792   6.477  2.6145  0.3390 -1.0709
12777SOL    HW241863   1.577   7.921   6.441 -0.3718  1.6293 -2.6330
12778SOL     OW41864   0.881   4.668   3.380 -0.0031  0.3151  0.5257
12778SOL    HW141865   0.858   4.678   3.472  1.0300 -0.0112  0.8301
12778SOL    HW241866   0.935   4.745   3.360 -0.1210  0.3209  0.2232
12779SOL     OW41867   0.020  10.796   8.150 -0.3471 -0.0992  0.4669
12779SOL    HW141868   0.063  10.723   8.195 -0.0373 -0.5695 -0.5552
12779SOL    HW241869  -0.057  10.757   8.109  0.5200 -0.1669 -1.1763
12780SOL     OW41870   0.653   6.552   8.319 -0.2403 -0.0165  0.1684
12780SOL    HW141871   0.701   6.489   8.266 -0.6353  0.7364 -1.1392
12780SOL    HW241872   0.567   6.512   8.333 -0.3798  0.0891 -0.3837
12781SOL     OW41873   4.036  11.034   9.753 -0.3069 -0.6056  0.0459
12781SOL    HW141874   4.044  10.949   9.709  0.0380 -0.2893 -0.5142
12781SOL    HW241875   4.124  11.072   9.749 -0.3514 -0.4179  0.7022
12782SOL     OW41876   1.513  10.270   3.208 -0.0785  0.1274  0.0366
12782SOL    HW141877   1.522  10.177   3.189  0.8536  0.5502 -1.8448
12782SOL    HW241878   1.435  10.297   3.160  1.0653  0.7761 -1.5465
12783SOL     OW41879   3.162   2.597   1.183 -0.5434 -0.4972  0.3787
12783SOL    HW141880   3.146   2.646   1.103 -0.2768 -0.4081  0.3764
12783SOL    HW241881   3.079   2.600   1.231 -0.8266 -0.9096 -0.0845
12784SOL     OW41882   0.308  10.749   4.623 -0.3515  0.3329  0.0442
12784SOL    HW141883   0.279  10.787   4.706  0.7781  1.1518  0.0919
12784SOL    HW241884   0.233  10.759   4.564 -1.2292 -0.4219  0.9956
12785SOL     OW41885   4.452   1.304   8.736 -0.2527  0.2515  0.1802
12785SOL    HW141886   4.405   1.345   8.808 -1.1968 -0.2563 -0.1284
12785SOL    HW241887   4.437   1.361   8.661 -1.2169 -0.4024 -0.1492
12786SOL     OW41888  10.807   3.886   8.784  0.2141 -0.0416  0.1534
12786SOL    HW141889  10.749   3.810   8.786  1.4385 -1.0800 -1.2674
12786SOL    HW241890  10.822   3.907   8.876 -0.2210 -1.4679  0.5760
12787SOL     OW41891   6.266   7.773   9.964  0.4080 -0.3844  1.4541
12787SOL    HW141892   6.202   7.841   9.986  0.8876  0.2192  1.0144
12787SOL    HW241893   6.347   7.801  10.007  0.4724 -0.9726  1.7330
12788SOL     OW41894   6.559   2.034   0.616 -0.3428 -0.2443 -0.1444
12788SOL    HW141895   6.527   2.095   0.682 -0.0748 -0.3028  0.0405
12788SOL    HW241896   6.653   2.029   0.631 -0.2254  0.0122 -0.7535
12789SOL     OW41897   6.455   3.077   7.468  0.7638 -0.2408 -1.1723
12789SOL    HW141898   6.534   3.128   7.485  1.1984 -0.8986 -1.1714
12789SOL    HW241899   6.480   2.987   7.490 -0.5476 -0.2148  0.6005
12790SOL     OW41900   2.508   9.290   7.378  0.0484  0.0318 -0.0595
12790SOL    HW141901   2.479   9.210   7.421  2.1111 -0.9584 -0.4008
12790SOL    HW241902   2.575   9.326   7.436  0.9534  0.1149 -1.1180
12791SOL     OW41903  10.112   0.638   7.070 -0.0678  0.3223  0.2331
12791SOL    HW141904  10.115   0.731   7.092  2.2205  0.2615  0.4925
12791SOL    HW241905  10.192   0.623   7.020 -0.6822 -1.3957 -0.2974
12792SOL     OW41906   8.662   8.269  10.889 -0.2670 -0.8527  0.4325
12792SOL    HW141907   8.684   8.284  10.797 -0.0448 -0.4635  0.5469
12792SOL    HW241908   8.656   8.174  10.897 -1.9646 -0.8618 -0.3686
12793SOL     OW41909   1.137   1.151   9.273  0.3070  0.2863  0.5263
12793SOL    HW141910   1.098   1.104   9.346  0.2868 -0.9508 -0.2532
12793SOL    HW241911   1.176   1.083   9.218 -1.5794  0.9407 -1.7713
12794SOL     OW41912   2.966   9.950   8.765 -0.8475 -0.0526 -0.3939
12794SOL    HW141913   2.873   9.969   8.776 -0.3432  2.3453  0.4472
12794SOL    HW241914   2.976   9.933   8.672 -2.3901 -2.4331 -0.2243
12795SOL     OW41915   7.278   5.551   1.606 -0.0564  0.2152  0.6542
12795SOL    HW141916   7.185   5.566   1.621  0.1703  1.5643  0.7925
12795SOL    HW241917   7.285   5.535   1.512 -0.6122 -1.5369  0.8701
12796SOL     OW41918   6.368   6.144  10.033  0.2045 -0.3510  0.4899
12796SOL    HW141919   6.395   6.056  10.007 -0.4580 -0.3631 -0.1780
12796SOL    HW241920   6.443   6.200  10.011  0.6596 -0.7429  0.9943
12797SOL     OW41921   8.513   4.262   9.311  0.1854 -0.0372 -0.4579
12797SOL    HW141922   8.427   4.288   9.278 -0.0165 -0.4692 -0.2771
12797SOL    HW241923   8.535   4.328   9.376 -0.9765 -1.0885  1.0679
12798SOL     OW41924   6.381   0.708   7.500  0.0786 -0.3415  0.3826
12798SOL    HW141925   6.472   0.736   7.505  0.6702 -1.9944 -0.3550
12798SOL    HW241926   6.369   0.680   7.409 -1.2942  0.2195  0.3632
12799SOL     OW41927   6.122   6.655   0.769 -0.5114  0.2805  0.2526
12799SOL    HW141928   6.097   6.748   0.774 -1.3237  0.0424  0.8945
12799SOL    HW241929   6.173   6.648   0.688  1.7185  1.7829  1.4315
12800SOL     OW41930   9.741   6.985   3.769 -0.3424  0.1363 -0.5394
12800SOL    HW141931   9.670   7.024   3.718 -1.8135 -1.2365  0.3767
12800SOL    HW241932   9.739   6.892   3.747  0.0517 -0.2147  0.7994
12801SOL     OW41933   0.740   9.501   2.796 -0.2226 -0.1722  0.1380
12801SOL    HW141934   0.699   9.485   2.881  2.7778  0.6455  1.9276
12801SOL    HW241935   0.830   9.527   2.818  1.8565 -3.3597 -3.4302
12802SOL     OW41936   2.994   2.032   1.013  0.1108 -0.2266 -0.0205
12802SOL    HW141937   3.003   2.002   1.104  2.0169  1.6020  0.4758
12802SOL    HW241938   2.969   2.124   1.020 -0.0605 -0.1566 -1.3551
12803SOL     OW41939   2.362   3.106  10.953 -0.4793  0.2354 -0.9484
12803SOL    HW141940   2.419   3.057  10.894 -0.0425 -1.0203  0.4756
12803SOL    HW241941   2.276   3.064  10.943 -0.2244 -0.5054 -0.1217
12804SOL     OW41942   8.159   6.973   7.027  0.2505 -0.4824 -0.2661
12804SOL    HW141943   8.163   7.050   7.084 -1.2519 -0.5840  0.0227
12804SOL    HW241944   8.111   7.004   6.950  1.7206 -0.5162 -1.2377
12805SOL     OW41945  10.941   3.792   8.538 -0.1226 -0.0240 -0.2812
12805SOL    HW141946  10.904   3.826   8.619 -0.2668 -1.1270  0.1344
12805SOL    HW241947  10.875   3.811   8.472  0.0031  0.8973 -0.1496
12806SOL     OW41948   2.244   7.191   0.078  0.5803  0.3972  0.1665
12806SOL    HW141949   2.179   7.237   0.025  1.7449  1.3350 -0.5109
12806SOL    HW241950   2.212   7.199   0.168  0.1377  1.4768 -0.0726
12807SOL     OW41951   3.966   5.859   8.413 -0.1389 -0.8797 -0.2240
12807SOL    HW141952   3.907   5.917   8.463  1.0098  1.4531 -1.4093
12807SOL    HW241953   3.948   5.880   8.322  2.4025 -0.1504 -0.6337
12808SOL     OW41954   5.166   2.276   5.966 -0.0819  0.1519 -0.5005
12808SOL    HW141955   5.107   2.214   6.009  0.0964  0.5226  0.2980
12808SOL    HW241956   5.135   2.280   5.875 -2.8569  2.1574  0.4082
12809SOL     OW41957   3.201   3.564   6.070  0.4502  0.2689  0.7094
12809SOL    HW141958   3.122   3.519   6.041  0.5483  1.5557 -1.8593
12809SOL    HW241959   3.171   3.648   6.103  0.6965  0.6067  0.0890
12810SOL     OW41960   9.534   1.714   2.999 -0.0089  0.2040  0.2034
12810SOL    HW141961   9.535   1.626   3.037  1.0349 -0.1797 -0.6383
12810SOL    HW241962   9.441   1.732   2.984 -0.1808 -1.3781 -0.9420
12811SOL     OW41963   3.270   9.726   9.624 -0.4979 -0.3205  0.7957
12811SOL    HW141964   3.238   9.639   9.646  0.4264 -0.7422  0.5559
12811SOL    HW241965   3.220   9.751   9.546 -2.5327  0.4432  2.2601
12812SOL     OW41966   6.301   9.718   6.111  0.2210 -0.2320 -0.3907
12812SOL    HW141967   6.253   9.788   6.155 -1.1425 -0.6992 -1.0757
12812SOL    HW241968   6.341   9.760   6.035  0.9631  0.1691  0.2084
12813SOL     OW41969   0.121   2.636   2.134 -0.3273  0.5096  0.1452
12813SOL    HW141970   0.068   2.632   2.055  0.9130 -0.5148 -0.6721
12813SOL    HW241971   0.171   2.717   2.126 -1.4128  1.2627  0.7165
12814SOL     OW41972   5.523   4.388   6.409 -0.1015  0.2194  0.7203
12814SOL    HW141973   5.516   4.379   6.314  0.1536  1.4834  0.5656
12814SOL    HW241974   5.467   4.462   6.431 -1.0037 -0.7229  1.7135
12815SOL     OW41975   7.008   3.332   7.715 -0.0222 -0.1167 -0.1557
12815SOL    HW141976   7.020   3.250   7.667 -0.3958 -0.5101  0.4170
12815SOL    HW241977   6.917   3.330   7.744 -0.7129  1.4896 -1.9548
12816SOL     OW41978   2.705   0.515   3.020 -0.2927  0.1699  0.4409
12816SOL    HW141979   2.715   0.461   2.942 -1.0049 -0.1804  0.5822
12816SOL    HW241980   2.765   0.477   3.084  0.9046  0.9591 -0.1820
12817SOL     OW41981   9.704   0.317   3.859 -0.2295  0.2532 -0.1470
12817SOL    HW141982   9.688   0.230   3.894  1.0025 -0.3625 -1.0362
12817SOL    HW241983   9.659   0.317   3.774  1.5451 -0.3217 -1.1403
12818SOL     OW41984   2.693   5.396   2.988  0.2445 -0.1539  0.0750
12818SOL    HW141985   2.715   5.478   2.945 -0.1455 -0.4502 -0.7095
12818SOL    HW241986   2.661   5.339   2.917 -1.4190 -0.3020  0.8923
12819SOL     OW41987   2.925   1.473  10.748 -0.5816  0.1428 -0.0160
12819SOL    HW141988   2.963   1.390  10.719  0.5627  0.4433  0.5610
12819SOL    HW241989   2.843   1.479  10.699 -0.4875 -1.1168 -0.3938
12820SOL     OW41990   4.301   3.877   2.576 -0.4319 -0.0085 -0.1791
12820SOL    HW141991   4.222   3.922   2.548 -1.1447  0.5319  2.4249
12820SOL    HW241992   4.372   3.922   2.531 -1.3925  1.5958 -0.1457
12821SOL     OW41993   7.796   9.076   7.817 -0.1565  0.5207 -0.2674
12821SOL    HW141994   7.881   9.079   7.861 -0.8950  0.2365  1.2587
12821SOL    HW241995   7.779   8.982   7.805 -1.0233  0.4723  1.0837
12822SOL     OW41996   8.192   8.312  10.855  0.2484 -0.6484 -0.7474
12822SOL    HW141997   8.151   8.375  10.796 -1.5694  0.1637  1.2453
12822SOL    HW241998   8.211   8.236  10.799 -2.2283 -0.3080 -2.2231
12823SOL     OW41999   6.386   8.647   1.772 -0.4054 -0.2586  0.1144
12823SOL    HW142000   6.432   8.586   1.714 -0.6112  0.5497 -0.9108
12823SOL    HW242001   6.440   8.649   1.851  0.9252  0.0843 -0.7696
12824SOL     OW42002   3.282   1.719   4.748 -0.2481 -0.2603  0.2260
12824SOL    HW142003   3.317   1.794   4.701  1.6980 -0.1271  1.7625
12824SOL    HW242004   3.300   1.738   4.840 -2.8352 -1.0618  0.9655
12825SOL     OW42005   2.438  10.751   8.009 -0.0820  0.0488 -0.1707
12825SOL    HW142006   2.498  10.820   7.984  0.0448 -0.4290 -1.2174
12825SOL    HW242007   2.422  10.702   7.929  0.7696 -1.8692  0.7552
12826SOL     OW42008   3.858   3.171   0.346  0.2827  0.1535 -0.5429
12826SOL    HW142009   3.903   3.087   0.348  0.9701  0.5274 -0.1639
12826SOL    HW242010   3.823   3.183   0.434  1.0940  0.7496 -0.2949
12827SOL     OW42011   8.506   5.692   9.591  0.1024 -0.1020  0.3362
12827SOL    HW142012   8.470   5.605   9.606 -0.3578  0.1967  0.9920
12827SOL    HW242013   8.438   5.738   9.541 -0.7146  0.6389  2.0408
12828SOL     OW42014   0.007   7.444   5.809 -0.4514  1.0797  0.8341
12828SOL    HW142015   0.073   7.443   5.878 -1.0301 -0.8698  1.4178
12828SOL    HW242016   0.056   7.430   5.728 -0.1577 -1.1700  1.3414
12829SOL     OW42017   4.480   9.171   9.769 -0.7809 -0.5574 -0.2546
12829SOL    HW142018   4.485   9.114   9.693  1.1191 -0.8399  0.0263
12829SOL    HW242019   4.526   9.123   9.838  0.6512  1.1362  0.0626
12830SOL     OW42020  10.216   1.352   7.335  0.0459 -0.1598 -0.2266
12830SOL    HW142021  10.135   1.395   7.362  0.3654  0.6989 -0.5909
12830SOL    HW242022  10.282   1.385   7.397  0.5550  0.9487 -1.3039
12831SOL     OW42023   1.521   3.715   2.860  0.5466 -0.0815  0.3323
12831SOL    HW142024   1.564   3.651   2.917  2.1939  0.0396 -0.6912
12831SOL    HW242025   1.574   3.794   2.870 -1.5160  1.2080  1.6512
12832SOL     OW42026   9.516   6.333   8.915 -0.2708 -0.0709  0.0533
12832SOL    HW142027   9.436   6.357   8.961  0.2768 -0.1452  1.0583
12832SOL    HW242028   9.587   6.369   8.968  0.4089 -0.9098 -0.2597
12833SOL     OW42029   1.695   1.396   2.980 -0.3572 -0.0509 -0.2436
12833SOL    HW142030   1.789   1.414   2.986 -0.1530 -1.0169 -0.3018
12833SOL    HW242031   1.677   1.338   3.054 -1.2257  1.2852  0.6456
12834SOL     OW42032   9.126   4.333   2.977  0.0312  0.0080  0.3534
12834SOL    HW142033   9.044   4.285   2.986 -0.8121  1.0034 -1.4673
12834SOL    HW242034   9.135   4.348   2.883  0.5845  2.7848  0.7556
12835SOL     OW42035   9.361   8.308   7.706 -0.7237  0.3791 -0.0786
12835SOL    HW142036   9.328   8.218   7.710 -3.3602  1.2709  0.1587
12835SOL    HW242037   9.302   8.358   7.762  0.8072  2.2600 -0.0285
12836SOL     OW42038   8.703   5.102   7.511  0.0371 -0.0450  0.4598
12836SOL    HW142039   8.688   5.019   7.465 -0.0499  0.0107  0.3870
12836SOL    HW242040   8.715   5.077   7.602 -0.6301 -0.0864  0.5457
12837SOL     OW42041   8.776   6.111   5.260  0.0622  0.0080 -0.3035
12837SOL    HW142042   8.719   6.101   5.184  0.5300 -0.0012 -0.6583
12837SOL    HW242043   8.792   6.022   5.290  1.1442 -0.1070 -1.1544
12838SOL     OW42044   6.519   7.952   6.526  0.0199  0.0966 -0.1198
12838SOL    HW142045   6.532   8.042   6.556 -1.1135 -0.7973  3.5086
12838SOL    HW242046   6.575   7.899   6.583 -1.8843 -1.7365  0.1646
12839SOL     OW42047  10.971   5.616  10.366  0.2456 -0.1646  0.6952
12839SOL    HW142048  10.899   5.560  10.336  0.1470  0.1434  0.3488
12839SOL    HW242049  10.972   5.689  10.304  1.7560 -0.8639 -0.1678
12840SOL     OW42050   3.094   1.597   2.710  0.5912 -0.0217 -0.6441
12840SOL    HW142051   3.040   1.525   2.678  2.9117 -1.5669 -1.3553
12840SOL    HW242052   3.167   1.602   2.647  2.2643  0.6950  1.2421
12841SOL     OW42053   7.100   9.233   0.213  0.4774  0.4966  0.1645
12841SOL    HW142054   7.063   9.321   0.220  0.4421  0.3855  1.7207
12841SOL    HW242055   7.094   9.197   0.302  0.5835 -1.0470 -0.4196
12842SOL     OW42056   8.948  10.019  10.994  0.6176 -0.5906  0.0104
12842SOL    HW142057   9.012   9.972  10.940  0.0446 -0.3369 -0.9136
12842SOL    HW242058   8.954  10.110  10.964  0.1185 -0.4899  0.2137
12843SOL     OW42059   8.796   8.477   5.663  0.4851 -0.0371  0.5885
12843SOL    HW142060   8.827   8.387   5.674  0.6365  0.2738  3.1704
12843SOL    HW242061   8.838   8.526   5.733 -1.1534  1.6618  0.4587
12844SOL     OW42062   7.372   9.956   8.867 -0.0094 -0.4080  0.0057
12844SOL    HW142063   7.416   9.994   8.943 -1.7068  0.9625  0.3809
12844SOL    HW242064   7.420   9.875   8.849  0.8058 -0.4693  2.1643
12845SOL     OW42065   3.466   4.993   3.629 -0.6313 -0.3447 -0.3115
12845SOL    HW142066   3.372   4.990   3.648 -0.4078 -0.4016  0.8121
12845SOL    HW242067   3.508   4.990   3.714  0.4229 -1.0775 -0.8468
12846SOL     OW42068   8.671   1.438   5.149  0.0349  0.1303  0.4866
12846SOL    HW142069   8.627   1.431   5.064 -0.5562  1.2959  0.6853
12846SOL    HW242070   8.749   1.489   5.131  1.1234 -1.5342  0.2297
12847SOL     OW42071   7.251   8.077   9.456  0.6773  0.0436  0.5293
12847SOL    HW142072   7.238   8.126   9.375  0.4640  0.6289  0.9144
12847SOL    HW242073   7.269   8.143   9.523  0.1806 -0.3714  1.0946
12848SOL     OW42074  10.737   1.462   7.810 -0.0630  0.5085 -0.0222
12848SOL    HW142075  10.707   1.447   7.721 -2.2891  0.0009  0.7580
12848SOL    HW242076  10.821   1.506   7.800  0.9244 -1.6733 -2.3640
12849SOL     OW42077   5.572  11.057   5.058 -0.4195  0.4653  0.1477
12849SOL    HW142078   5.497  11.075   5.115  0.0573  0.2151  0.8655
12849SOL    HW242079   5.541  10.989   4.998 -1.0526  1.0210 -0.1638
12850SOL     OW42080   8.510   1.897   6.459 -0.4261  0.5507 -0.2564
12850SOL    HW142081   8.508   1.804   6.482 -1.8919  0.7392  0.5032
12850SOL    HW242082   8.504   1.899   6.364 -2.2456 -0.1317 -0.1910
12851SOL     OW42083   7.958   5.381   7.277 -0.1335  0.3429 -0.3996
12851SOL    HW142084   7.912   5.318   7.221  0.2403 -1.5560  1.3120
12851SOL    HW242085   8.050   5.357   7.270  0.0401  0.8555  0.0945
12852SOL     OW42086   8.223   5.362   9.738 -0.1824  0.4685 -0.0857
12852SOL    HW142087   8.220   5.422   9.812 -0.6990 -0.1192  0.3745
12852SOL    HW242088   8.132   5.336   9.724  0.0742 -0.5373 -0.0022
12853SOL     OW42089   7.422   1.868   9.804  0.4734 -0.1718  0.6299
12853SOL    HW142090   7.460   1.782   9.786  1.3361 -0.2652  2.6563
12853SOL    HW242091   7.332   1.850   9.831 -0.0741 -0.2080 -1.0738
12854SOL     OW42092   3.633   0.835   7.974 -0.0777  0.6765 -0.0478
12854SOL    HW142093   3.558   0.822   8.032 -0.3113 -1.7491 -0.7958
12854SOL    HW242094   3.595   0.841   7.886  0.5950 -1.8909 -0.5886
12855SOL     OW42095   1.928   9.090   8.706 -0.0037  0.0058  0.4117
12855SOL    HW142096   1.939   9.035   8.784 -0.0457 -0.5840  0.0114
12855SOL    HW242097   2.017   9.098   8.670 -0.3520 -2.3358 -1.2013
12856SOL     OW42098   1.844   2.691   2.169  0.0900  0.2089 -0.9669
12856SOL    HW142099   1.763   2.740   2.153 -0.8711 -0.6681  0.8409
12856SOL    HW242100   1.816   2.600   2.173  1.0401 -0.0566  0.3029
12857SOL     OW42101   5.720   4.059   0.992 -0.2927  0.3726 -0.4756
12857SOL    HW142102   5.657   4.131   0.994 -0.6426  0.1010 -1.2930
12857SOL    HW242103   5.775   4.077   0.916  1.5005  1.3039  0.9488
12858SOL     OW42104   4.140  10.404   1.434  0.5773  0.0914  0.0740
12858SOL    HW142105   4.156  10.314   1.462 -1.7951 -0.7397 -1.0058
12858SOL    HW242106   4.078  10.439   1.499  0.5108  0.5318 -0.2202
12859SOL     OW42107   1.772   7.976   7.449  0.3189  0.2396  0.5198
12859SOL    HW142108   1.760   7.906   7.513  0.7408  1.3384  1.8600
12859SOL    HW242109   1.693   7.974   7.396 -0.5212 -0.0737  1.7314
12860SOL     OW42110   6.263   1.307   0.098 -0.0459  0.1564  0.9491
12860SOL    HW142111   6.306   1.283   0.016 -0.5690 -1.3042  1.0650
12860SOL    HW242112   6.219   1.390   0.079  0.1550  0.0275 -0.1376
12861SOL     OW42113   5.429   4.169  10.808 -0.1975  0.0308  0.2847
12861SOL    HW142114   5.381   4.152  10.890 -0.4777  1.2940  0.3965
12861SOL    HW242115   5.385   4.114  10.743 -1.5528  0.8551  0.4715
12862SOL     OW42116   9.912   9.767   9.896  0.3904  0.3484 -0.3244
12862SOL    HW142117   9.978   9.760   9.827 -0.7093 -0.6037 -1.3248
12862SOL    HW242118   9.845   9.702   9.872 -0.4744  0.6593  1.1353
12863SOL     OW42119   6.744  10.165   1.092  0.3374 -0.3505 -0.4596
12863SOL    HW142120   6.709  10.091   1.141 -1.8885  1.2190  0.4608
12863SOL    HW242121   6.705  10.158   1.005  0.8478 -0.7174 -0.6684
12864SOL     OW42122   3.765   0.221   1.788 -0.4686  0.8235 -0.1031
12864SOL    HW142123   3.838   0.276   1.816 -0.0938  0.0785  0.4367
12864SOL    HW242124   3.798   0.131   1.797 -1.0689  0.5088 -0.9377
12865SOL     OW42125   5.146   9.561   0.280 -0.0732  0.8416 -0.2470
12865SOL    HW142126   5.061   9.521   0.302  0.1620  1.0241  1.0411
12865SOL    HW242127   5.210   9.493   0.300  0.3121  1.7142  1.7109
12866SOL     OW42128   7.504  10.990   9.318 -0.2600 -0.5374 -0.0146
12866SOL    HW142129   7.591  10.949   9.314 -0.3738 -0.7803 -0.0139
12866SOL    HW242130   7.522  11.084   9.312  0.1883 -0.4078  2.3776
12867SOL     OW42131  10.801   9.153   4.746  0.0364 -0.4565 -0.2006
12867SOL    HW142132  10.791   9.126   4.655 -2.4323 -0.7754  0.0836
12867SOL    HW242133  10.762   9.240   4.749 -0.1669 -0.5687  0.5924
12868SOL     OW42134   7.239   1.370   5.199  0.1031  0.0131 -0.2501
12868SOL    HW142135   7.280   1.350   5.283  1.0647  0.4161 -0.6109
12868SOL    HW242136   7.217   1.285   5.162  0.3965 -0.1982  0.0614
12869SOL     OW42137   4.931   1.075   8.541  0.3971 -0.0329  0.8246
12869SOL    HW142138   4.882   1.151   8.571 -1.5148 -0.6676 -0.5174
12869SOL    HW242139   4.871   1.001   8.553  1.5566 -1.0666  0.4499
12870SOL     OW42140   1.604   4.769   1.170  0.2244  0.4886 -0.4735
12870SOL    HW142141   1.583   4.859   1.194  2.9183  1.4182 -1.2801
12870SOL    HW242142   1.602   4.720   1.252  0.8231  1.7578  0.3174
12871SOL     OW42143   5.816   4.932   8.468 -0.3034  0.7194 -0.3741
12871SOL    HW142144   5.778   4.961   8.385 -0.0152  0.0839 -0.7417
12871SOL    HW242145   5.763   4.856   8.493  0.5354 -0.0239 -0.7670
12872SOL     OW42146   4.084  10.541   7.034  0.0133 -0.2104  0.1154
12872SOL    HW142147   4.161  10.501   7.074 -0.2776  0.1087  1.0143
12872SOL    HW242148   4.108  10.632   7.018  0.7321 -0.7402 -2.0880
12873SOL     OW42149   0.679   1.589   2.970  0.5541 -0.6105  0.2299
12873SOL    HW142150   0.679   1.675   3.011 -0.3322  0.0440 -1.0637
12873SOL    HW242151   0.699   1.528   3.041  1.3910  0.6692  1.1294
12874SOL     OW42152  10.033   7.088   8.543 -0.2624  0.4611  0.3696
12874SOL    HW142153  10.085   7.017   8.581  1.0956  1.3203  0.2091
12874SOL    HW242154   9.973   7.114   8.612 -0.1761 -0.2689  0.7286
12875SOL     OW42155   3.296   4.016   0.985  0.6480  0.0113  0.3297
12875SOL    HW142156   3.352   4.091   1.005  2.4795 -0.5018 -2.4278
12875SOL    HW242157   3.353   3.940   0.991 -0.3629 -0.8163 -0.1469
12876SOL     OW42158   1.210   9.908   3.588 -0.1229  0.3546 -0.7806
12876SOL    HW142159   1.183   9.816   3.596 -0.9705  0.5874 -0.8990
12876SOL    HW242160   1.186   9.947   3.672  0.8312  0.3277 -0.4860
12877SOL     OW42161   6.618   8.198   6.573  0.1341 -0.1830  0.2794
12877SOL    HW142162   6.651   8.284   6.596 -0.4059  0.3400 -0.8268
12877SOL    HW242163   6.681   8.165   6.508  0.3192 -0.6096  0.6687
12878SOL     OW42164   0.614  10.351   5.266 -0.2849  0.0691 -0.1883
12878SOL    HW142165   0.653  10.264   5.276 -0.4994  0.1154  1.3535
12878SOL    HW242166   0.528  10.342   5.306 -0.7445  0.7027 -1.0396
12879SOL     OW42167   2.933   1.725   0.356  0.2333  0.4423 -0.4815
12879SOL    HW142168   2.844   1.700   0.380  0.9417 -2.2149 -0.3939
12879SOL    HW242169   2.937   1.715   0.261  0.1238  1.7407 -0.6392
12880SOL     OW42170   5.965  11.013   7.194 -0.0646  0.3601 -0.0280
12880SOL    HW142171   6.042  11.067   7.208  0.5928 -0.8785  1.4073
12880SOL    HW242172   5.981  10.934   7.245 -0.4096 -1.8005 -2.9891
12881SOL     OW42173   3.697   5.683   6.454 -0.1664  0.4493 -0.1232
12881SOL    HW142174   3.627   5.634   6.410 -0.3460  1.3630 -0.8860
12881SOL    HW242175   3.775   5.630   6.441 -0.5661 -0.1814  0.0250
12882SOL     OW42176   1.133   4.056  10.098 -0.0696 -0.0293 -1.0219
12882SOL    HW142177   1.068   4.108  10.050 -0.5696  2.7400  2.1989
12882SOL    HW242178   1.082   4.017  10.170  1.1214 -1.4270 -0.9058
12883SOL     OW42179   9.962   1.283   8.577  0.2820  0.1363  0.2413
12883SOL    HW142180  10.016   1.348   8.532  0.3647  0.4004  0.7198
12883SOL    HW242181   9.998   1.278   8.666  0.0189 -0.2628  0.3297
12884SOL     OW42182  10.644   5.734   2.812 -0.4269  0.0577  0.2116
12884SOL    HW142183  10.588   5.661   2.840 -0.0914  0.3695  1.7942
12884SOL    HW242184  10.731   5.695   2.805 -0.6299 -0.1796 -1.1611
12885SOL     OW42185   2.093   8.788   9.011  0.4517 -0.1165  0.4402
12885SOL    HW142186   2.066   8.751   9.095  0.4962 -3.2032 -0.7861
12885SOL    HW242187   2.012   8.818   8.970  0.3467  0.7533  1.2508
12886SOL     OW42188   2.389  10.899   2.520 -0.2455  0.1832 -0.4639
12886SOL    HW142189   2.407  10.808   2.543  0.4038  0.4046 -0.0760
12886SOL    HW242190   2.301  10.897   2.481  0.0026 -0.6984 -1.0046
12887SOL     OW42191   5.543   7.775   3.227 -0.5995 -0.1852  0.5077
12887SOL    HW142192   5.505   7.862   3.217 -2.0540 -0.5554  2.2314
12887SOL    HW242193   5.502   7.723   3.158 -0.5460  0.2313  0.1554
12888SOL     OW42194   0.444   6.906   8.697 -0.0663  0.3249 -0.3474
12888SOL    HW142195   0.523   6.927   8.747 -0.3504 -0.5039  0.4881
12888SOL    HW242196   0.372   6.947   8.746 -0.0350  2.6897 -2.0992
12889SOL     OW42197   1.190   4.860  10.231  0.1042 -0.3377 -0.6227
12889SOL    HW142198   1.283   4.841  10.224  0.0403 -0.2890 -1.7688
12889SOL    HW242199   1.146   4.776  10.215 -0.0596 -0.3028 -0.3708
12890SOL     OW42200   0.506   7.960   3.645  1.0408  0.4004 -0.3708
12890SOL    HW142201   0.586   7.987   3.599  1.4548 -2.0751 -1.2494
12890SOL    HW242202   0.535   7.940   3.734  1.0914  0.9717 -0.2559
12891SOL     OW42203   9.399   9.290   6.406  0.0312  0.0144  0.2692
12891SOL    HW142204   9.462   9.362   6.415 -0.1640  0.2805 -0.4014
12891SOL    HW242205   9.419   9.252   6.320 -0.9401  0.3172 -0.0984
12892SOL     OW42206   3.787   0.911   0.891 -0.5713 -0.1862 -0.0179
12892SOL    HW142207   3.738   0.973   0.945  0.2861  0.0140  0.5599
12892SOL    HW242208   3.851   0.874   0.951 -0.4230 -0.8977 -0.6066
12893SOL     OW42209   2.429   3.553   0.101  0.6457 -0.2245  0.0554
12893SOL    HW142210   2.423   3.484   0.035 -0.3336  1.0345 -1.2437
12893SOL    HW242211   2.376   3.522   0.173  0.3383 -0.8961 -0.4492
12894SOL     OW42212   6.520   1.193   6.102 -0.5991  0.2912 -0.3489
12894SOL    HW142213   6.531   1.136   6.026 -1.5593 -0.1434 -0.1739
12894SOL    HW242214   6.588   1.259   6.092  0.6067 -0.9276 -0.5091
12895SOL     OW42215   2.659   5.947   2.687 -0.8674  0.2108 -0.1005
12895SOL    HW142216   2.713   5.884   2.736 -2.1901 -1.1221 -0.2963
12895SOL    HW242217   2.574   5.945   2.731 -1.4559  0.5263 -1.1885
12896SOL     OW42218   9.090   4.778   5.603  0.2148 -0.5737 -0.2777
12896SOL    HW142219   9.108   4.778   5.509 -1.6575  2.4349 -0.7550
12896SOL    HW242220   9.157   4.834   5.641 -0.3976  0.1216 -0.1949
12897SOL     OW42221   9.681   5.046   1.691  0.3041 -0.2304 -0.2293
12897SOL    HW142222   9.729   5.054   1.608 -0.6456  1.2184 -0.6704
12897SOL    HW242223   9.728   5.103   1.752  0.1098 -0.1013 -0.1996
12898SOL     OW42224   0.853   6.331   4.231  0.0707  0.5930  0.5517
12898SOL    HW142225   0.787   6.341   4.300 -1.8273  0.4376 -1.1289
12898SOL    HW242226   0.804   6.346   4.150  2.4031  1.7524 -0.7398
12899SOL     OW42227   4.902   8.077   8.748 -0.2651 -0.6865  0.4856
12899SOL    HW142228   4.937   8.032   8.672  1.2603 -1.5555  1.6341
12899SOL    HW242229   4.922   8.169   8.734  1.0800 -0.9764  0.3403
12900SOL     OW42230   8.106   7.170   2.370 -0.3059 -0.1782 -0.1228
12900SOL    HW142231   8.128   7.078   2.383  0.0712 -0.3293 -1.6394
12900SOL    HW242232   8.190   7.216   2.376 -0.6443  0.2581  1.8765
12901SOL     OW42233  11.056   7.564   2.529  0.1890  0.4650 -0.5092
12901SOL    HW142234  11.147   7.588   2.548  0.8266 -2.4454  0.5752
12901SOL    HW242235  11.062   7.508   2.452 -0.7547  0.5608 -0.6614
12902SOL     OW42236   3.870  11.094   5.418  0.0052 -0.3598 -0.2146
12902SOL    HW142237   3.785  11.135   5.407 -0.0825 -0.7395 -0.9827
12902SOL    HW242238   3.931  11.167   5.432 -0.3512 -0.0598 -0.2258
12903SOL     OW42239   8.538   3.013   6.270 -0.1542  0.3376 -0.6828
12903SOL    HW142240   8.557   2.939   6.327  2.1554  0.2361 -1.4825
12903SOL    HW242241   8.567   2.984   6.183  0.1229  1.9168 -1.1401
12904SOL     OW42242   1.529   7.290   5.065 -0.2226 -0.0569 -0.3770
12904SOL    HW142243   1.552   7.332   5.148  1.8420 -1.4244 -0.1673
12904SOL    HW242244   1.436   7.311   5.052 -1.4079 -1.8505  3.5675
12905SOL     OW42245   0.575   6.375   3.654  0.4231 -0.1616  0.4333
12905SOL    HW142246   0.609   6.336   3.734  1.8533 -2.9171 -1.3615
12905SOL    HW242247   0.481   6.385   3.669  0.5043 -1.5797  2.0764
12906SOL     OW42248   0.444   4.515   5.627  0.2004  0.0753  0.2064
12906SOL    HW142249   0.373   4.459   5.596  1.1921 -2.7764  2.6344
12906SOL    HW242250   0.400   4.592   5.662 -1.3739  0.0869 -1.6176
12907SOL     OW42251  10.907   5.677   7.781 -0.8880  0.2329 -0.4416
12907SOL    HW142252  10.880   5.690   7.872 -1.0149  1.4412 -0.6427
12907SOL    HW242253  10.948   5.590   7.781  1.0772  1.0796  1.2192
12908SOL     OW42254   1.594   2.872   9.460 -0.1950  0.0918 -0.5593
12908SOL    HW142255   1.585   2.840   9.550 -0.5529 -0.0385 -0.6378
12908SOL    HW242256   1.548   2.807   9.407  1.4977 -0.7679 -1.0360
12909SOL     OW42257   7.774   6.367   3.271  0.0870  0.2381 -0.9233
12909SOL    HW142258   7.733   6.406   3.349  2.6224 -0.1008  0.6903
12909SOL    HW242259   7.775   6.439   3.207 -2.7165  0.3098 -1.0193
12910SOL     OW42260   8.644   5.045   9.076 -0.5321  0.2293  0.5729
12910SOL    HW142261   8.612   4.960   9.108 -0.9166  0.5394  1.0295
12910SOL    HW242262   8.587   5.109   9.119  0.3796  0.7700  0.9923
12911SOL     OW42263   4.271   9.390   2.593  0.0381 -0.2713 -0.1580
12911SOL    HW142264   4.270   9.426   2.504 -0.5619  1.5864  0.5564
12911SOL    HW242265   4.337   9.441   2.639 -0.8739 -0.0142  0.9112
12912SOL     OW42266   0.117   8.077   7.872  0.0824 -0.4175  0.4870
12912SOL    HW142267   0.176   8.054   7.944 -0.8681  1.2157  1.8662
12912SOL    HW242268   0.089   7.993   7.836  2.2548 -1.2446  0.5825
12913SOL     OW42269   3.595   8.281  10.452 -0.0360 -0.0161 -0.0204
12913SOL    HW142270   3.517   8.326  10.484  0.0188 -0.3923  0.6499
12913SOL    HW242271   3.663   8.303  10.515  0.4213  0.3626 -0.6354
12914SOL     OW42272   5.029   6.432   2.866 -0.0460  0.7703  0.5068
12914SOL    HW142273   5.075   6.477   2.937  1.5898  1.3388 -0.8676
12914SOL    HW242274   5.079   6.351   2.852 -0.8312  0.2677  0.5001
12915SOL     OW42275   7.195   5.381   7.315 -0.0249  0.6167 -0.1689
12915SOL    HW142276   7.202   5.467   7.357 -0.9633  0.4890  0.2699
12915SOL    HW242277   7.102   5.372   7.294 -0.4199 -1.2920  1.9962
12916SOL     OW42278   0.669   6.155   2.301 -0.1424 -0.0082  0.1609
12916SOL    HW142279   0.612   6.208   2.357  1.7071  0.8598  1.3316
12916SOL    HW242280   0.623   6.072   2.293 -1.6165  0.6759  0.9576
12917SOL     OW42281   0.516   7.817   1.272 -0.4682 -0.7704  0.2694
12917SOL    HW142282   0.523   7.850   1.362  1.0953 -1.2747  0.3548
12917SOL    HW242283   0.458   7.741   1.279 -1.8310  0.2439  0.5256
12918SOL     OW42284   7.781   4.197   8.785 -0.0378  0.1509 -0.0257
12918SOL    HW142285   7.699   4.235   8.817  0.0650 -0.2444  0.7248
12918SOL    HW242286   7.846   4.266   8.799 -0.3230  0.6844 -1.1520
12919SOL     OW42287   3.393  10.236   8.953 -0.3477  0.2398 -0.0081
12919SOL    HW142288   3.409  10.167   8.889 -1.5343  0.4323 -0.5344
12919SOL    HW242289   3.323  10.202   9.008  0.3315  0.2752  0.8967
12920SOL     OW42290   8.608   8.792   0.913 -0.1036 -0.2299  0.7317
12920SOL    HW142291   8.654   8.837   0.983  2.7133 -3.6515  1.3105
12920SOL    HW242292   8.660   8.714   0.895 -3.5740 -2.3117 -1.4945
12921SOL     OW42293   8.150  11.060   8.258  0.0185  0.1300 -0.3855
12921SOL    HW142294   8.214  11.008   8.209 -0.7187 -1.7550  0.5468
12921SOL    HW242295   8.186  11.065   8.346 -0.7977 -0.4369 -0.0053
12922SOL     OW42296   4.157   1.174   4.514 -0.3035 -0.3736 -0.1132
12922SOL    HW142297   4.250   1.162   4.492 -0.0913  0.8745  0.0603
12922SOL    HW242298   4.114   1.188   4.430 -0.0188  1.0141 -0.0398
12923SOL     OW42299   7.715   8.388   0.859  0.3417  0.0860  0.0317
12923SOL    HW142300   7.794   8.364   0.906  0.2020 -1.9493 -0.6782
12923SOL    HW242301   7.646   8.385   0.925  0.5848  0.1557  0.2920
12924SOL     OW42302   5.241   2.964   0.104  0.0376 -0.2830  0.2652
12924SOL    HW142303   5.182   3.038   0.124  1.8892  1.0825  0.9493
12924SOL    HW242304   5.328   2.997   0.125  1.1413 -2.0379 -1.3000
12925SOL     OW42305  10.361   1.898   5.868  0.3678 -0.4141 -0.1196
12925SOL    HW142306  10.351   1.818   5.816 -1.2348 -0.1396 -0.2716
12925SOL    HW242307  10.455   1.903   5.885  0.6902 -1.5450 -1.3499
12926SOL     OW42308   2.126   4.112   6.911  0.0605  0.0078 -0.2990
12926SOL    HW142309   2.217   4.094   6.935 -0.1250 -1.2671 -0.4881
12926SOL    HW242310   2.131   4.153   6.825  0.4207 -0.7442 -0.6415
12927SOL     OW42311   4.320   6.960   6.202  0.0349  0.2310  0.1387
12927SOL    HW142312   4.375   6.887   6.229 -1.9502 -0.9186  1.2435
12927SOL    HW242313   4.318   6.955   6.106  3.7553  1.8317 -0.2255
12928SOL     OW42314   4.091   5.561   2.750 -0.6019  0.9766  0.0948
12928SOL    HW142315   4.180   5.576   2.781 -0.8713 -1.3066  2.2715
12928SOL    HW242316   4.078   5.627   2.682  3.2239  0.4703 -1.3737
12929SOL     OW42317   0.115   8.887   5.922  0.2745  0.5196  0.4570
12929SOL    HW142318   0.203   8.874   5.887  0.0407 -2.8256  0.7996
12929SOL    HW242319   0.129   8.913   6.013  0.9052 -0.1483  0.5551
12930SOL     OW42320   4.395   5.014   6.969  0.7528  0.3075  0.3554
12930SOL    HW142321   4.383   5.015   7.064 -0.3605  1.1601  0.2257
12930SOL    HW242322   4.468   5.074   6.953  0.5308  0.6508  0.6280
12931SOL     OW42323   0.062   8.297   7.229  0.3223  0.3503 -0.1311
12931SOL    HW142324  -0.003   8.252   7.174 -0.1675  0.7519  0.1138
12931SOL    HW242325   0.118   8.226   7.262 -0.7820 -0.1610  0.7098
12932SOL     OW42326   4.475   7.472   4.358  0.1205  0.0900  0.1623
12932SOL    HW142327   4.471   7.417   4.280  0.0546 -2.1341  1.6473
12932SOL    HW242328   4.404   7.440   4.414  1.5428  0.1025  2.0550
12933SOL     OW42329   6.861   3.345  10.893  0.2533  0.2296  0.1062
12933SOL    HW142330   6.772   3.354  10.927  0.2465  1.0135 -0.0967
12933SOL    HW242331   6.850   3.347  10.798  0.5217  0.7027  0.0842
12934SOL     OW42332   6.325   4.414  10.484 -0.8477 -0.7663 -0.1377
12934SOL    HW142333   6.368   4.498  10.466  0.4266 -1.2117  0.6993
12934SOL    HW242334   6.304   4.379  10.397 -1.0485  0.2358 -0.5103
12935SOL     OW42335  10.348   7.518   3.779 -0.0187  0.4669  0.6018
12935SOL    HW142336  10.388   7.604   3.798 -2.5546  1.9562 -0.3624
12935SOL    HW242337  10.310   7.491   3.862  1.2729 -0.0379  1.0501
12936SOL     OW42338   6.761  11.023   9.757 -0.6791 -0.0980  0.5938
12936SOL    HW142339   6.852  11.047   9.776 -0.2247 -1.5015  0.3465
12936SOL    HW242340   6.760  11.008   9.662 -0.4943 -2.5143  0.9003
12937SOL     OW42341   8.128   6.721   8.992  0.0512 -0.4322 -0.2031
12937SOL    HW142342   8.039   6.757   8.992 -0.5862 -1.8616  1.1647
12937SOL    HW242343   8.124   6.645   8.934  1.1350  1.0002 -2.2960
12938SOL     OW42344   1.703   1.058   2.955 -0.1619  0.0044 -0.3401
12938SOL    HW142345   1.795   1.064   2.930 -0.1656  0.7750 -0.1969
12938SOL    HW242346   1.699   1.097   3.042 -0.1816 -2.4327  0.8596
12939SOL     OW42347  10.966   0.896   8.164 -0.4981 -0.6856  0.4922
12939SOL    HW142348  10.919   0.925   8.086 -1.9357 -1.2222  1.1243
12939SOL    HW242349  11.001   0.810   8.139  1.8297  0.4988 -0.6102
12940SOL     OW42350   1.828   3.152   3.702  0.1649 -0.4819  0.1058
12940SOL    HW142351   1.826   3.137   3.607 -1.8375 -2.0695  0.3178
12940SOL    HW242352   1.858   3.242   3.712  0.0320 -0.1544 -2.0596
12941SOL     OW42353   8.045   3.369   2.310  0.0139  0.2946  0.1608
12941SOL    HW142354   8.050   3.283   2.352 -0.1014  0.3426  0.2734
12941SOL    HW242355   7.983   3.357   2.238 -0.7108  0.5061  0.7284
12942SOL     OW42356  10.430   4.290   1.932 -0.4055  0.0001 -0.3535
12942SOL    HW142357  10.524   4.270   1.930 -0.5442 -0.7048 -2.2235
12942SOL    HW242358  10.427   4.385   1.942  0.4653 -0.0926  1.0366
12943SOL     OW42359   7.800  10.743   1.832 -0.2518  0.7328 -1.1186
12943SOL    HW142360   7.723  10.755   1.889 -0.2022 -0.0103 -0.8716
12943SOL    HW242361   7.874  10.765   1.888 -0.0853 -1.5496 -0.3197
12944SOL     OW42362   8.577   4.760   3.872 -0.6102 -0.7117 -0.1229
12944SOL    HW142363   8.591   4.853   3.888  0.7166 -1.0911  1.1609
12944SOL    HW242364   8.499   4.738   3.925 -0.2348 -0.5565  0.5061
12945SOL     OW42365   0.447   6.874   5.844  0.1221  0.7973 -0.0240
12945SOL    HW142366   0.436   6.842   5.755  1.9310 -1.1038  0.3609
12945SOL    HW242367   0.535   6.914   5.845  0.0649  0.9303  0.8735
12946SOL     OW42368   2.425   6.493   8.331  0.9871 -0.1816 -0.1201
12946SOL    HW142369   2.391   6.453   8.251 -2.1300  0.0282  0.9620
12946SOL    HW242370   2.443   6.584   8.307  0.4521 -0.2163 -0.6694
12947SOL     OW42371   0.078   1.702  10.781  0.5996  0.4637  0.1037
12947SOL    HW142372   0.088   1.613  10.748 -0.6907  0.1276  0.5794
12947SOL    HW242373   0.049   1.692  10.871  0.6864  1.3662  0.2420
12948SOL     OW42374   1.114   8.754   0.494 -0.3139 -0.0204  0.5772
12948SOL    HW142375   1.090   8.662   0.482 -0.6134  0.0320  0.7711
12948SOL    HW242376   1.197   8.763   0.447 -0.3325 -0.3664  0.4744
12949SOL     OW42377   6.047   6.735   4.390 -0.4102 -0.0393  0.1799
12949SOL    HW142378   5.982   6.665   4.398  0.6002 -0.9464  0.6492
12949SOL    HW242379   6.008   6.809   4.437 -1.0849 -0.5803  0.4989
12950SOL     OW42380  11.097   7.007   4.062  0.3494 -0.2027  0.6508
12950SOL    HW142381  11.009   7.045   4.074  0.1630 -1.0588  2.2560
12950SOL    HW242382  11.151   7.051   4.129  1.1109  0.1602 -0.1839
12951SOL     OW42383   9.143   8.766   8.782  0.5311 -0.1322 -0.0439
12951SOL    HW142384   9.150   8.714   8.862  0.0272 -0.0405  0.0650
12951SOL    HW242385   9.123   8.703   8.714  1.3850 -0.2654 -0.1789
12952SOL     OW42386   9.160   8.794  10.566 -0.1071 -0.3511 -0.3538
12952SOL    HW142387   9.179   8.854  10.494 -0.3870 -2.2669 -2.1222
12952SOL    HW242388   9.065   8.800  10.578 -0.3256 -1.3657 -1.4381
12953SOL     OW42389   9.537   9.675   1.374  0.3646 -0.1653  0.1872
12953SOL    HW142390   9.567   9.612   1.440 -0.2946  0.0751  0.7225
12953SOL    HW242391   9.442   9.663   1.371  0.2021  0.9782  0.4796
12954SOL     OW42392   7.779   9.663   6.018 -0.2805 -0.3059  0.4758
12954SOL    HW142393   7.765   9.758   6.021  1.6119  0.0078  0.9676
12954SOL    HW242394   7.691   9.626   6.012 -1.0237  1.5023 -0.6836
12955SOL     OW42395   7.810   8.700   2.745  0.8262 -0.0213  0.1069
12955SOL    HW142396   7.746   8.738   2.685 -0.5810 -3.1254 -0.5546
12955SOL    HW242397   7.798   8.748   2.827 -2.1162 -0.1928 -0.1221
12956SOL     OW42398   8.171   4.758   8.292  0.0951 -0.1500  0.0605
12956SOL    HW142399   8.158   4.779   8.384  1.2974 -0.2041  0.2490
12956SOL    HW242400   8.161   4.663   8.286 -2.0964  0.0284 -0.2555
12957SOL     OW42401   0.197   1.609  10.423  0.5715 -0.4144  0.3178
12957SOL    HW142402   0.270   1.653  10.380  0.3286 -1.6987 -1.4795
12957SOL    HW242403   0.121   1.632  10.370 -0.3440  0.6158  1.9610
12958SOL     OW42404   5.825   0.537   2.141  0.1361 -0.3021 -0.1422
12958SOL    HW142405   5.916   0.506   2.144  0.1654 -0.1217  1.2325
12958SOL    HW242406   5.781   0.475   2.083  0.8457 -1.1666  0.2248
12959SOL     OW42407   7.680  10.881   6.971  0.5542 -0.5055 -0.5725
12959SOL    HW142408   7.746  10.869   6.903 -0.2415  0.9938 -1.6715
12959SOL    HW242409   7.729  10.915   7.046  1.0502  0.5688 -1.3626
12960SOL     OW42410   9.162   3.525   2.354 -0.0006  0.4836  0.3275
12960SOL    HW142411   9.154   3.620   2.343 -2.4394  0.2039 -1.1921
12960SOL    HW242412   9.151   3.511   2.448 -0.6791  1.6494  0.4449
12961SOL     OW42413   6.580   3.241   7.133 -0.3266 -0.4801 -0.1020
12961SOL    HW142414   6.525   3.319   7.126  1.3503  0.6999 -0.6405
12961SOL    HW242415   6.660   3.272   7.175  0.1399 -2.0687  0.2628
12962SOL     OW42416   6.821   9.503   0.699  0.5249 -0.8840  0.0326
12962SOL    HW142417   6.725   9.510   0.698  0.5915  0.5025  0.9319
12962SOL    HW242418   6.850   9.582   0.744  2.0748 -1.5857  0.3106
12963SOL     OW42419   0.919   8.222   0.541 -0.6581 -0.1141 -0.2294
12963SOL    HW142420   0.862   8.152   0.509  0.6733 -0.6568 -1.5210
12963SOL    HW242421   0.898   8.229   0.634 -1.0702 -2.0183 -0.1358
12964SOL     OW42422   2.104   0.979   9.373 -0.5086  0.7616  0.1191
12964SOL    HW142423   2.195   0.986   9.401 -1.0029 -1.0667  2.4521
12964SOL    HW242424   2.108   0.933   9.289  0.6700 -0.5203  0.8370
12965SOL     OW42425   6.521   3.822   4.796  0.0735 -0.2492 -0.2743
12965SOL    HW142426   6.617   3.825   4.798  0.0410  0.8820  1.0441
12965SOL    HW242427   6.499   3.820   4.703  1.3768 -0.5908 -0.5997
12966SOL     OW42428   5.792   8.773   0.571 -0.1090  0.2084 -0.7036
12966SOL    HW142429   5.700   8.789   0.590 -0.1925  0.2620 -1.1482
12966SOL    HW242430   5.823   8.856   0.534  0.0443  0.1012 -0.8172
12967SOL     OW42431   5.234  10.476   4.375 -0.8006  0.1457 -0.1642
12967SOL    HW142432   5.188  10.476   4.291 -0.8046  3.7148 -0.2835
12967SOL    HW242433   5.307  10.537   4.363  0.3936 -0.7750  1.8742
12968SOL     OW42434   0.013   1.254   5.454 -0.1433  0.4979  0.0271
12968SOL    HW142435   0.006   1.228   5.362 -0.1845  0.5685  0.0095
12968SOL    HW242436  -0.027   1.341   5.457 -2.7328 -0.6373  0.6412
12969SOL     OW42437   9.282   2.925   0.881  0.3037  0.2053  0.0576
12969SOL    HW142438   9.266   2.929   0.786  1.4991  1.3501 -0.1260
12969SOL    HW242439   9.360   2.979   0.894 -0.2598  0.6545  1.7981
12970SOL     OW42440   4.000   8.372   0.875  0.1734  0.6781 -0.4463
12970SOL    HW142441   4.019   8.439   0.810 -0.9926  1.2629 -0.2157
12970SOL    HW242442   3.966   8.421   0.950 -0.6390 -0.1578 -0.2524
12971SOL     OW42443  11.098   2.803   4.750 -0.5666 -0.5735 -0.5826
12971SOL    HW142444  11.147   2.776   4.828 -2.5932 -0.6902  0.7091
12971SOL    HW242445  11.110   2.731   4.688  1.7276 -0.1292 -0.7406
12972SOL     OW42446   0.448   5.150   6.650  0.2061  0.4622 -0.0262
12972SOL    HW142447   0.388   5.101   6.706 -0.2719  0.7648 -0.2762
12972SOL    HW242448   0.406   5.150   6.564 -0.3213  2.2359  0.2102
12973SOL     OW42449   3.584   2.051   6.530 -0.2234  0.6114 -0.2586
12973SOL    HW142450   3.672   2.078   6.557  0.6241 -0.8809 -1.3862
12973SOL    HW242451   3.581   2.071   6.436 -1.4818  1.5909 -0.0255
12974SOL     OW42452   8.716   2.239   5.719  0.1386  0.0991  0.1559
12974SOL    HW142453   8.810   2.240   5.737 -0.2620 -2.3784  3.0795
12974SOL    HW242454   8.708   2.184   5.641  1.0399 -0.9922  0.8021
12975SOL     OW42455   2.347   0.408   2.356 -0.4832  0.0127  0.2132
12975SOL    HW142456   2.328   0.413   2.449 -1.2689 -0.6493  0.1017
12975SOL    HW242457   2.426   0.354   2.350  0.6918  1.6026  0.5910
12976SOL     OW42458   4.441   6.507   0.926  0.5194 -0.6310 -0.2864
12976SOL    HW142459   4.483   6.515   1.011  0.1126  1.3366 -0.2282
12976SOL    HW242460   4.503   6.546   0.864  0.9035 -2.2221 -0.9743
12977SOL     OW42461   7.518   9.816   9.912  0.9109 -0.4632  0.4899
12977SOL    HW142462   7.611   9.821   9.932  0.6195  1.1746  1.6594
12977SOL    HW242463   7.508   9.865   9.831  0.9287  0.3921  0.9925
12978SOL     OW42464   5.271   9.396   3.984  0.7821  0.3573 -0.1217
12978SOL    HW142465   5.300   9.459   3.918  1.7423 -0.9262 -0.9818
12978SOL    HW242466   5.348   9.342   4.002  0.1283 -0.2539  0.9648
12979SOL     OW42467   4.182   5.088   1.294  0.4610 -0.1681  0.1522
12979SOL    HW142468   4.154   5.029   1.224 -0.5281  0.4057  0.0349
12979SOL    HW242469   4.153   5.174   1.265  0.1571  0.1009  1.2075
12980SOL     OW42470   9.808   1.852   5.786  0.1504  0.2229 -0.2656
12980SOL    HW142471   9.728   1.904   5.774 -0.5370 -0.4854  1.0242
12980SOL    HW242472   9.879   1.917   5.786 -0.3149  0.8025 -2.0935
12981SOL     OW42473   0.532   1.866   7.590  0.3140  0.0882 -0.1433
12981SOL    HW142474   0.582   1.947   7.580 -0.6408  0.4819 -2.3735
12981SOL    HW242475   0.597   1.799   7.609  1.4451  0.9354 -0.9191
12982SOL     OW42476   9.506   9.483   7.796 -0.9408  0.0533  0.3437
12982SOL    HW142477   9.502   9.489   7.891 -0.6162 -0.3710  0.3880
12982SOL    HW242478   9.450   9.408   7.774 -1.2112  0.2999  0.1819
12983SOL     OW42479   2.748   1.000  10.413 -0.4209 -0.7310 -0.2652
12983SOL    HW142480   2.726   0.973  10.502 -0.1615 -1.7185 -0.4889
12983SOL    HW242481   2.719   1.091  10.408  2.0511  0.3202  1.7184
12984SOL     OW42482   2.736   6.783   1.260 -0.1081 -0.2871 -0.0726
12984SOL    HW142483   2.663   6.771   1.199 -1.3962  0.7985  1.1675
12984SOL    HW242484   2.699   6.762   1.346  0.9829  0.4952  0.6219
12985SOL     OW42485   4.329   3.801   8.145 -0.2501 -0.6114  0.0766
12985SOL    HW142486   4.314   3.752   8.226 -0.9244 -0.8102 -0.1612
12985SOL    HW242487   4.327   3.734   8.077  0.6663 -0.4935 -0.0813
12986SOL     OW42488   1.028  10.507   2.940  0.1226  0.0216 -0.1152
12986SOL    HW142489   1.088  10.535   2.871  0.7274 -1.6820 -0.3150
12986SOL    HW242490   0.943  10.501   2.897  0.3002 -0.0411 -0.4602
12987SOL     OW42491   6.111   5.313   7.047  0.2667 -1.3401 -0.1818
12987SOL    HW142492   6.147   5.399   7.070  2.6610 -2.2000 -0.3725
12987SOL    HW242493   6.101   5.317   6.952 -0.3021 -1.0404 -0.1113
12988SOL     OW42494   6.580   4.140   1.106  0.1496 -0.1928 -0.0290
12988SOL    HW142495   6.577   4.236   1.113 -0.1752 -0.3116  1.9728
12988SOL    HW242496   6.488   4.114   1.102  0.2512 -0.3862 -1.8664
12989SOL     OW42497   9.538   8.712   9.605  0.5819  0.2542  0.2150
12989SOL    HW142498   9.518   8.796   9.564  2.1900  0.7162  0.3221
12989SOL    HW242499   9.571   8.735   9.692  1.0536 -0.4913  0.2418
12990SOL     OW42500   8.161   1.985   7.721 -0.2753  0.1445 -0.1966
12990SOL    HW142501   8.169   2.019   7.810  0.7163  0.7720 -0.5047
12990SOL    HW242502   8.217   2.042   7.669 -0.1137 -0.7813 -1.0670
12991SOL     OW42503   8.369   5.625   8.893 -0.1971  0.2678  0.2530
12991SOL    HW142504   8.363   5.639   8.988 -1.7286 -0.9506  0.3885
12991SOL    HW242505   8.343   5.533   8.881  0.7254  0.1745 -1.2909
12992SOL     OW42506   0.523   4.035   1.466  0.6730  0.3139  0.9254
12992SOL    HW142507   0.534   3.951   1.422 -1.1748 -0.1646  1.3013
12992SOL    HW242508   0.605   4.082   1.449  0.7287 -0.5343 -1.4918
12993SOL     OW42509   4.735   3.617   3.281  0.0152  0.1705 -0.1551
12993SOL    HW142510   4.805   3.635   3.218  0.3008  2.8969  0.8100
12993SOL    HW242511   4.676   3.692   3.274 -1.3198 -0.6953  1.0633
12994SOL     OW42512   6.233   2.865   3.339  0.7603 -0.4452 -0.3471
12994SOL    HW142513   6.155   2.891   3.388  1.9042  0.0681  1.2938
12994SOL    HW242514   6.202   2.796   3.280 -1.3423  1.1991 -1.2972
12995SOL     OW42515   4.614   7.048   0.495  0.2798 -0.1050 -0.8301
12995SOL    HW142516   4.541   7.072   0.437 -0.2921 -0.4051 -0.2585
12995SOL    HW242517   4.583   7.072   0.582  0.2717 -1.5509 -0.4071
12996SOL     OW42518   6.756   3.672   4.638 -0.4825 -0.3322  0.4158
12996SOL    HW142519   6.835   3.706   4.596 -2.5176  2.1316 -1.7830
12996SOL    HW242520   6.734   3.593   4.588 -1.2706  0.9537 -1.3728
12997SOL     OW42521   6.880  10.554   7.734  0.3086  0.5405 -0.2271
12997SOL    HW142522   6.852  10.464   7.750  0.3454  0.7526  1.1114
12997SOL    HW242523   6.807  10.594   7.687 -0.3785  0.2396  0.5641
12998SOL     OW42524   0.937   9.040   5.251  0.0429  0.1970  0.0620
12998SOL    HW142525   0.972   9.123   5.285 -0.0350  0.2136  0.1002
12998SOL    HW242526   0.927   8.985   5.329  3.6544 -1.2085 -0.2621
12999SOL     OW42527   8.025   5.748  10.654  0.2138 -0.1644 -0.1157
12999SOL    HW142528   7.958   5.767  10.588 -0.0658 -1.7419 -0.3374
12999SOL    HW242529   8.105   5.735  10.603 -0.0832 -1.7695 -0.2274
13000SOL     OW42530   6.547   7.868   7.272 -0.0165 -0.0447 -0.3164
13000SOL    HW142531   6.511   7.952   7.246  0.4096 -0.2028 -1.5013
13000SOL    HW242532   6.575   7.828   7.190  0.9562 -0.7934  0.3570
13001SOL     OW42533   9.499  11.028  11.040  0.5163  0.2437  0.1199
13001SOL    HW142534   9.444  11.017  10.963  2.7465 -1.9092 -1.2817
13001SOL    HW242535   9.477  11.116  11.072 -0.2369  1.3783 -3.1316
13002SOL     OW42536   7.899   0.457  10.319 -0.1410 -0.3295  0.3691
13002SOL    HW142537   7.924   0.403  10.394  2.0349 -0.7348 -0.5672
13002SOL    HW242538   7.874   0.393  10.251 -2.1228  0.0307  0.7156
13003SOL     OW42539   1.574   1.615   1.023  0.2829  0.2552  0.3902
13003SOL    HW142540   1.566   1.556   1.098 -0.1658 -0.1206  0.0524
13003SOL    HW242541   1.661   1.654   1.033  0.0765  0.4998  1.3126
13004SOL     OW42542   9.265  10.184   6.899 -0.3667 -0.2040 -0.1123
13004SOL    HW142543   9.346  10.188   6.949 -0.4227  0.4280 -0.0671
13004SOL    HW242544   9.280  10.114   6.835  0.5311  0.4631 -0.6496
13005SOL     OW42545   9.002   5.708   9.035 -0.3501  0.5187  0.3108
13005SOL    HW142546   9.036   5.710   8.946  0.0337 -0.6850  0.4076
13005SOL    HW242547   8.956   5.624   9.041 -0.5066  0.6607  1.1853
13006SOL     OW42548   7.094   9.242   5.362 -0.3395 -0.0217 -0.0578
13006SOL    HW142549   7.187   9.244   5.339  0.0550  1.0122  1.4712
13006SOL    HW242550   7.065   9.155   5.336  1.3482 -0.8000  0.4915
13007SOL     OW42551   6.040   1.417   9.495  0.4099 -0.0097  0.3677
13007SOL    HW142552   5.969   1.461   9.448  1.2215 -1.3515 -2.2832
13007SOL    HW242553   6.039   1.327   9.462  3.9214  0.1336 -0.5231
13008SOL     OW42554   4.720   7.875   1.861 -0.1269 -0.6265  0.4601
13008SOL    HW142555   4.703   7.796   1.912  0.7484 -0.6082  0.8054
13008SOL    HW242556   4.791   7.919   1.908  2.1503 -1.6159 -1.7929
13009SOL     OW42557   6.613   6.753   3.242  0.3024 -0.4660  0.1297
13009SOL    HW142558   6.637   6.729   3.153 -0.4043  0.3189 -0.2868
13009SOL    HW242559   6.613   6.670   3.290 -1.1034 -1.1864 -1.0414
13010SOL     OW42560   9.966   6.076   9.824 -0.5111 -0.2998  0.1700
13010SOL    HW142561   9.930   6.036   9.904  0.2379  0.0593  0.6966
13010SOL    HW242562   9.944   6.169   9.833 -0.7796 -0.3214 -0.2444
13011SOL     OW42563   5.089   8.656   0.226  0.0083  0.5598 -0.2787
13011SOL    HW142564   5.005   8.627   0.261 -0.3049  0.3083 -1.2094
13011SOL    HW242565   5.072   8.743   0.190  0.0145  0.3065 -0.9135
13012SOL     OW42566   7.022   0.975   2.087  0.0982  0.5069 -0.0471
13012SOL    HW142567   6.936   0.933   2.087  1.0670 -1.7228  2.0863
13012SOL    HW242568   7.013   1.048   2.148 -0.4760  0.8191 -0.4906
13013SOL     OW42569   0.771   3.125   4.975  0.0085  0.2585  0.2075
13013SOL    HW142570   0.820   3.057   5.023 -0.3937  1.1777  1.9870
13013SOL    HW242571   0.754   3.193   5.040 -0.4342  1.6497 -1.3068
13014SOL     OW42572   1.350   4.785   8.246 -0.4050 -0.0811 -0.3990
13014SOL    HW142573   1.356   4.694   8.272  1.1570 -0.4233 -1.8329
13014SOL    HW242574   1.426   4.827   8.285 -0.2354  0.2475 -1.0602
13015SOL     OW42575   1.882   7.217   8.301  0.0363 -0.7624 -0.6464
13015SOL    HW142576   1.824   7.293   8.299  0.4774 -0.4328 -2.2342
13015SOL    HW242577   1.928   7.224   8.384  0.4153  0.9857 -0.9751
13016SOL     OW42578   5.690   0.328   3.175  0.9065  0.4487  0.4195
13016SOL    HW142579   5.758   0.356   3.236 -0.9409  2.7002  1.6228
13016SOL    HW242580   5.715   0.369   3.092  2.2013 -0.7006  0.2062
13017SOL     OW42581   3.694   1.291   0.743  0.1117  0.2227 -0.0105
13017SOL    HW142582   3.667   1.216   0.796 -0.7758 -0.0243 -0.7901
13017SOL    HW242583   3.740   1.348   0.804  0.1761 -0.6282  0.7489
13018SOL     OW42584   3.535   5.462   3.229 -0.0498  0.0805  0.0073
13018SOL    HW142585   3.529   5.379   3.182 -2.0321  0.1249  0.0805
13018SOL    HW242586   3.522   5.438   3.321  1.6825  0.2336  0.3131
13019SOL     OW42587   3.000   4.874   2.404  0.2764 -0.3462 -0.0478
13019SOL    HW142588   3.026   4.966   2.413  3.0658 -0.8986 -1.3349
13019SOL    HW242589   3.057   4.827   2.463 -2.1397 -1.2267  1.7385
13020SOL     OW42590   9.810   3.960   0.671 -0.4196  0.0983 -0.0181
13020SOL    HW142591   9.878   3.942   0.735  0.1350 -1.3116 -0.9590
13020SOL    HW242592   9.856   3.964   0.587 -1.1279  1.8686 -0.3678
13021SOL     OW42593   8.040   1.449  10.082  0.5609 -0.6472 -0.2812
13021SOL    HW142594   8.002   1.516  10.026  1.8891 -0.8516 -1.4728
13021SOL    HW242595   8.008   1.366  10.045 -1.3181 -0.7288  1.3598
13022SOL     OW42596   7.944   8.011   6.410  0.1893  0.4433  0.0028
13022SOL    HW142597   7.921   7.985   6.499 -1.3538  0.2107 -0.4291
13022SOL    HW242598   7.861   8.037   6.371  1.0453  1.9491 -0.9280
13023SOL     OW42599   7.209   2.986   6.652 -0.0919 -0.1873 -0.5695
13023SOL    HW142600   7.192   2.958   6.562  0.4238  1.2395 -1.1405
13023SOL    HW242601   7.179   2.913   6.706 -1.2097 -0.7275 -1.8581
13024SOL     OW42602   3.022   2.475   0.259  0.2437 -0.0062 -0.2413
13024SOL    HW142603   2.966   2.546   0.290  1.0215  0.1298  0.8947
13024SOL    HW242604   3.055   2.433   0.338  1.7074 -0.1081 -0.8575
13025SOL     OW42605   5.469   9.088   2.310 -0.5022 -0.1027 -0.2270
13025SOL    HW142606   5.529   9.034   2.259 -0.4114 -0.1012 -0.1222
13025SOL    HW242607   5.525   9.150   2.356 -0.4107 -1.2120  1.2496
13026SOL     OW42608   1.150   7.897   8.489 -0.1243  0.0072 -0.0817
13026SOL    HW142609   1.157   7.831   8.558  1.8633  1.6813  1.4461
13026SOL    HW242610   1.100   7.968   8.530  1.1877  1.0699 -0.2664
13027SOL     OW42611   5.485   0.158   6.908  0.4379 -0.2376  0.1222
13027SOL    HW142612   5.544   0.101   6.957  0.6406 -0.9834 -0.9458
13027SOL    HW242613   5.540   0.198   6.840 -0.1751 -0.6150 -0.6239
13028SOL     OW42614   9.639   7.252   1.379  0.5847  0.0632  0.0935
13028SOL    HW142615   9.619   7.340   1.410  1.8721  0.5875 -0.4897
13028SOL    HW242616   9.721   7.229   1.424  1.1888 -0.1226 -1.0656
13029SOL     OW42617   0.161   9.538   6.640 -0.0859 -0.3832  0.6440
13029SOL    HW142618   0.216   9.527   6.562 -1.1402 -1.1605 -0.0127
13029SOL    HW242619   0.202   9.609   6.688 -0.9275  2.0668 -1.9819
13030SOL     OW42620   0.054   2.573   4.209  0.0296 -0.0388  0.2005
13030SOL    HW142621   0.135   2.529   4.184 -0.3894 -0.9476  0.4061
13030SOL    HW242622   0.018   2.519   4.279 -0.0681  1.1124  1.0725
13031SOL     OW42623   0.044   9.206   8.849 -0.3120 -0.1700 -0.1314
13031SOL    HW142624   0.000   9.284   8.815 -0.9262 -0.7901 -0.7942
13031SOL    HW242625   0.134   9.213   8.817 -0.1076  0.7423  0.6177
13032SOL     OW42626   9.167   6.507   9.046 -0.0760  0.3701  0.0144
13032SOL    HW142627   9.108   6.502   9.121  3.0188  1.6989  2.7626
13032SOL    HW242628   9.167   6.599   9.022 -0.5018  0.0651 -1.2594
13033SOL     OW42629   4.288   3.577  10.102 -0.2609 -0.3882  0.2133
13033SOL    HW142630   4.335   3.609  10.179  0.0198 -0.0239 -0.1008
13033SOL    HW242631   4.198   3.607  10.114 -0.4913 -1.3483  0.9675
13034SOL     OW42632   2.716   0.908  10.162  0.5467  0.1981 -0.1506
13034SOL    HW142633   2.757   0.823  10.145 -0.4984 -0.1928 -0.8233
13034SOL    HW242634   2.737   0.927  10.253  0.6432 -0.8701  0.0631
13035SOL     OW42635   0.881   4.282   6.090  0.7811 -0.2174  0.1749
13035SOL    HW142636   0.854   4.215   6.028  1.3320 -0.0224 -0.2785
13035SOL    HW242637   0.826   4.266   6.167 -0.2249 -0.1804 -0.5153
13036SOL     OW42638  10.732   4.144   4.106 -0.0678  0.5837  0.4024
13036SOL    HW142639  10.780   4.061   4.112  0.8380  1.1588  1.4860
13036SOL    HW242640  10.658   4.124   4.049 -1.4465 -1.7392  2.7411
13037SOL     OW42641  10.898   6.271   6.629 -0.0152 -0.1227 -0.3290
13037SOL    HW142642  10.912   6.282   6.723  2.6169 -2.4404 -0.3159
13037SOL    HW242643  10.907   6.176   6.614  1.3681  0.3374 -3.1397
13038SOL     OW42644   6.472  11.000   0.305 -0.5642 -0.2382 -0.4019
13038SOL    HW142645   6.488  11.063   0.235 -0.3818  0.9858  0.6971
13038SOL    HW242646   6.434  10.924   0.261  0.6897 -0.0033 -1.9723
13039SOL     OW42647   5.898   5.365   8.185 -0.9294 -0.0684 -0.5947
13039SOL    HW142648   5.822   5.358   8.126 -0.7381 -0.4052 -0.8038
13039SOL    HW242649   5.959   5.299   8.153 -0.5113  0.2575 -0.4766
13040SOL     OW42650   7.464   2.110   3.916 -0.1494 -0.0728  0.7145
13040SOL    HW142651   7.473   2.102   3.821  0.0009 -0.8876  0.7847
13040SOL    HW242652   7.555   2.107   3.948 -0.0718  1.8138  0.7986
13041SOL     OW42653   6.884   3.057   0.052 -0.1366 -0.1561  0.3763
13041SOL    HW142654   6.803   3.107   0.037  0.7249  0.8605 -1.1334
13041SOL    HW242655   6.873   2.977   0.001 -0.1847  0.0045  0.1296
13042SOL     OW42656   7.371   7.907   6.299 -0.1158 -0.2285  0.2555
13042SOL    HW142657   7.305   7.846   6.331  1.4354 -2.0089  0.2495
13042SOL    HW242658   7.411   7.862   6.225 -0.0397  1.5583 -0.8454
13043SOL     OW42659   2.113   8.069  10.478 -0.0350 -0.5090 -0.4407
13043SOL    HW142660   2.070   8.094  10.559  0.1384  0.4013 -0.6103
13043SOL    HW242661   2.190   8.020  10.505  0.1293 -0.0366 -0.0426
13044SOL     OW42662   5.688   8.700  10.059  0.1244 -0.2326  0.2186
13044SOL    HW142663   5.711   8.684  10.151  0.0367  1.1157  0.4915
13044SOL    HW242664   5.663   8.792  10.056  0.3583 -0.1925 -1.2158
13045SOL     OW42665   0.784   2.411   3.807 -0.0679 -0.5348  0.1845
13045SOL    HW142666   0.780   2.425   3.902 -0.9522  1.1462 -0.0518
13045SOL    HW242667   0.834   2.330   3.797  0.2595 -0.6276  2.0705
13046SOL     OW42668   3.354   6.932   9.716 -0.3793  0.1114 -0.4797
13046SOL    HW142669   3.277   6.988   9.710 -1.9505 -2.0349 -2.0557
13046SOL    HW242670   3.384   6.924   9.625  0.4645 -0.7043 -0.1461
13047SOL     OW42671   1.282   9.580  10.977 -0.4434  0.0428  0.0461
13047SOL    HW142672   1.291   9.665  11.020 -2.6671  0.3723 -0.0338
13047SOL    HW242673   1.340   9.522  11.027 -1.2978  0.8877  2.1523
13048SOL     OW42674   7.958   8.704   9.770  0.1489  0.0527  0.2867
13048SOL    HW142675   7.882   8.647   9.772  0.6872 -0.6733  1.9233
13048SOL    HW242676   7.928   8.787   9.807 -0.3376  0.4676 -0.9949
13049SOL     OW42677   4.832   1.208   9.672 -0.4903 -0.2825 -0.6439
13049SOL    HW142678   4.884   1.129   9.663 -0.8170 -0.3846 -1.7482
13049SOL    HW242679   4.742   1.177   9.683 -0.4254 -0.0916  0.5838
13050SOL     OW42680   9.503   7.178   3.245 -0.1081 -0.0491 -0.3379
13050SOL    HW142681   9.518   7.084   3.253 -1.5308 -0.3906 -1.2355
13050SOL    HW242682   9.458   7.188   3.161 -0.3176  1.3891 -0.0793
13051SOL     OW42683   6.829   4.944   2.140  0.3168 -0.3673 -0.3874
13051SOL    HW142684   6.877   4.874   2.097  1.4057  0.0768  0.0703
13051SOL    HW242685   6.754   4.900   2.180  0.3168 -1.0692 -1.1341
13052SOL     OW42686   6.615   4.370   3.418 -0.1040 -0.4287  0.0163
13052SOL    HW142687   6.630   4.431   3.346  1.5538 -0.6314  0.1491
13052SOL    HW242688   6.588   4.426   3.491  0.8413  0.1039 -0.0246
13053SOL     OW42689   6.205   3.109   6.404 -0.1638 -0.4079 -0.4938
13053SOL    HW142690   6.116   3.132   6.377 -0.0259  0.2440 -0.4193
13053SOL    HW242691   6.193   3.068   6.490 -0.2026  2.2008  0.8523
13054SOL     OW42692   2.855  10.552   2.508  0.0581  0.0722  0.5005
13054SOL    HW142693   2.873  10.646   2.504  0.1212  0.0711  0.7800
13054SOL    HW242694   2.937  10.511   2.482 -0.1692  0.1030 -0.3056
13055SOL     OW42695   6.272   6.927   0.555  0.3123 -0.2411 -0.5549
13055SOL    HW142696   6.277   6.832   0.544  0.0405 -0.4471  0.8817
13055SOL    HW242697   6.252   6.961   0.468  0.8208 -1.4649 -1.1680
13056SOL     OW42698   1.036   3.076   0.387  0.0116  0.2545  0.4301
13056SOL    HW142699   1.082   3.004   0.430  0.7205  1.3048  1.4996
13056SOL    HW242700   1.092   3.098   0.312  0.0515  0.0299  0.3920
13057SOL     OW42701   6.941   9.605   3.909 -0.0051  0.4957 -0.6930
13057SOL    HW142702   6.894   9.676   3.953 -0.4396 -0.4043  0.3562
13057SOL    HW242703   7.002   9.649   3.850  1.1344  1.8161  1.3430
13058SOL     OW42704   6.062  11.031  10.622 -0.0474 -0.2583  0.1138
13058SOL    HW142705   6.037  10.960  10.562 -0.3975 -0.1514  0.1287
13058SOL    HW242706   6.059  10.991  10.709 -1.0626 -0.0121  0.1983
13059SOL     OW42707   4.937   1.463  10.111 -0.2103 -0.2034 -0.1984
13059SOL    HW142708   4.960   1.529  10.176 -1.9554 -0.0096  0.2523
13059SOL    HW242709   5.015   1.408  10.104  0.4861  0.5960  1.0281
13060SOL     OW42710   9.630   5.987   5.007 -0.0446 -0.0004 -0.4794
13060SOL    HW142711   9.569   5.945   4.946  0.7693  0.8912 -1.9830
13060SOL    HW242712   9.578   6.051   5.055 -0.6818 -0.6521 -0.2877
13061SOL     OW42713   3.490   5.079   9.545 -0.3273  0.2870 -0.5207
13061SOL    HW142714   3.418   5.080   9.608 -0.7172 -0.7885 -0.9333
13061SOL    HW242715   3.555   5.139   9.583  0.4142 -1.9364  2.0325
13062SOL     OW42716   1.910   8.164   5.931  0.1339 -0.4143  0.3265
13062SOL    HW142717   1.923   8.079   5.973  2.6549 -0.5180 -0.4854
13062SOL    HW242718   1.894   8.143   5.839  1.0591 -0.0384  0.0672
13063SOL     OW42719   1.714   0.579  10.715  0.2803  0.0317 -0.0220
13063SOL    HW142720   1.709   0.493  10.675  2.4295 -0.0674 -0.1981
13063SOL    HW242721   1.802   0.610  10.696  0.3188  1.3356  1.9044
13064SOL     OW42722   0.018   3.316   6.889  0.0026 -0.4207  0.1824
13064SOL    HW142723  -0.005   3.409   6.885 -0.7257 -0.5296  1.2932
13064SOL    HW242724   0.107   3.311   6.856  0.5000  0.8529  1.2832
13065SOL     OW42725   8.462   7.109   3.402 -0.0924  0.4767  0.1266
13065SOL    HW142726   8.431   7.050   3.470  0.2265  0.7548  0.5149
13065SOL    HW242727   8.387   7.120   3.343 -0.0436 -0.5839 -0.1383
13066SOL     OW42728   5.215   3.709   0.562 -0.0558 -0.0918 -0.6905
13066SOL    HW142729   5.218   3.762   0.642 -0.0926 -0.4782 -0.4353
13066SOL    HW242730   5.201   3.620   0.592 -0.1103 -0.2346 -1.1322
13067SOL     OW42731   1.127   6.879   2.298 -0.6954 -0.0129  0.1127
13067SOL    HW142732   1.078   6.813   2.249 -1.7040 -0.0495  1.1367
13067SOL    HW242733   1.060   6.936   2.336  0.1324  1.2431 -0.2267
13068SOL     OW42734   9.348  10.109   7.319  0.2678 -0.0672  0.7408
13068SOL    HW142735   9.358  10.193   7.274 -1.3005 -0.4560 -0.4545
13068SOL    HW242736   9.435  10.087   7.351  1.1246  1.0481 -0.7186
13069SOL     OW42737   1.878   8.078   8.117  0.1102  0.4722  0.3465
13069SOL    HW142738   1.880   8.113   8.028  0.4641 -2.0790 -0.7238
13069SOL    HW242739   1.883   8.155   8.173 -0.8804  2.2043 -1.8136
13070SOL     OW42740   4.954   2.659   0.865 -1.2336  0.8550  0.3507
13070SOL    HW142741   4.979   2.742   0.824 -0.0085  0.7452  0.8173
13070SOL    HW242742   4.914   2.685   0.948  1.3484  1.0041  1.6680
13071SOL     OW42743   0.471   6.277   0.159 -0.4786 -0.4003  0.0723
13071SOL    HW142744   0.448   6.188   0.132 -0.4916  0.0812 -1.5764
13071SOL    HW242745   0.566   6.274   0.174 -0.5028 -0.7165  0.1743
13072SOL     OW42746   5.540   6.652   8.800  0.0136 -0.3539 -0.3252
13072SOL    HW142747   5.587   6.573   8.826  1.7293  0.2200 -1.5099
13072SOL    HW242748   5.452   6.641   8.836  0.1275 -2.9020 -0.6815
13073SOL     OW42749   1.858   3.233   5.520 -0.1198 -0.1911  0.9259
13073SOL    HW142750   1.898   3.318   5.502 -1.0204  0.6156  2.5443
13073SOL    HW242751   1.850   3.192   5.434  1.0834  1.0063  0.2026
13074SOL     OW42752   9.742   8.342  10.246 -0.3011  0.1163  0.5815
13074SOL    HW142753   9.683   8.267  10.248 -0.5264  0.2753  0.1053
13074SOL    HW242754   9.750   8.364  10.153  1.8897 -0.9775  0.4349
13075SOL     OW42755   0.489   7.569   9.745  0.4344 -0.0603 -0.2890
13075SOL    HW142756   0.427   7.521   9.801 -0.1893 -1.1380 -1.8319
13075SOL    HW242757   0.572   7.523   9.755  0.0585 -0.9393 -1.0516
13076SOL     OW42758   7.144   2.085  10.697  0.1966 -0.0534 -0.4047
13076SOL    HW142759   7.115   2.032  10.623 -0.1451  0.0517 -0.3468
13076SOL    HW242760   7.176   2.022  10.761 -1.0140 -0.2594  0.0214
13077SOL     OW42761  11.056   0.663   7.297  0.1197  0.0434 -0.2233
13077SOL    HW142762  11.136   0.659   7.350  1.0896  0.1754 -1.6189
13077SOL    HW242763  10.993   0.610   7.345  0.9447  0.1726  1.0625
13078SOL     OW42764   4.114   6.055   2.293 -0.2035  0.0344 -0.3004
13078SOL    HW142765   4.151   5.976   2.253 -0.3586 -0.5150  0.6088
13078SOL    HW242766   4.189   6.104   2.326 -0.2263 -1.6991  2.6919
13079SOL     OW42767   1.181   5.808   4.289 -0.4843 -0.5706 -0.0092
13079SOL    HW142768   1.200   5.804   4.196 -0.6994 -0.6251 -0.0529
13079SOL    HW242769   1.161   5.901   4.306  0.6301 -0.3639  0.2054
13080SOL     OW42770   6.606   7.769   3.724 -0.2861 -0.0763  0.2394
13080SOL    HW142771   6.619   7.747   3.817 -1.4009 -1.8857  0.0075
13080SOL    HW242772   6.664   7.710   3.677 -1.5563 -0.9398 -0.3037
13081SOL     OW42773   7.417   9.489   7.602  0.3439  0.1849  0.1601
13081SOL    HW142774   7.485   9.499   7.535  1.1032 -0.5429  0.7957
13081SOL    HW242775   7.453   9.425   7.663 -0.9464 -0.2415  0.4938
13082SOL     OW42776   9.404   5.491   5.885  0.2636  0.1312 -0.4032
13082SOL    HW142777   9.426   5.512   5.976  1.7853  1.3356 -0.9923
13082SOL    HW242778   9.425   5.571   5.837  1.6083 -1.1620 -2.1117
13083SOL     OW42779   8.929   4.091   8.373 -0.2576 -0.0404  0.4801
13083SOL    HW142780   9.009   4.062   8.328  0.4717  0.5131  1.3969
13083SOL    HW242781   8.953   4.095   8.465 -1.2440  0.5004  0.7294
13084SOL     OW42782   2.608  11.062   8.333 -0.2368  0.1221  0.4457
13084SOL    HW142783   2.668  10.988   8.322  0.0278  0.4080 -0.0428
13084SOL    HW242784   2.589  11.092   8.244  1.0542  1.7452  0.6663
13085SOL     OW42785   5.723   1.869   1.804 -0.3631 -0.0526  0.2586
13085SOL    HW142786   5.747   1.905   1.719 -1.0244 -3.9537 -1.8272
13085SOL    HW242787   5.628   1.862   1.801 -0.2854 -1.6400  0.6183
13086SOL     OW42788   2.444   3.463   5.481  0.4632 -0.1097 -0.1911
13086SOL    HW142789   2.401   3.382   5.454 -0.4221  0.3684 -0.2612
13086SOL    HW242790   2.455   3.512   5.399 -0.5182  0.5422  0.0573
13087SOL     OW42791  10.547   6.834   1.204  0.2626 -0.1619  0.1356
13087SOL    HW142792  10.594   6.876   1.132 -0.9783  0.1990 -0.4852
13087SOL    HW242793  10.524   6.747   1.171  1.0626 -0.6017  0.6905
13088SOL     OW42794   9.281   1.616   4.502  0.5243 -0.3917 -0.2255
13088SOL    HW142795   9.314   1.553   4.566  0.4717  1.2253  1.4675
13088SOL    HW242796   9.218   1.567   4.451  1.8558 -2.2068 -0.2316
13089SOL     OW42797   4.380   3.659   3.324 -0.1240 -0.1628  0.7291
13089SOL    HW142798   4.396   3.628   3.234 -1.5609  0.0084  0.3849
13089SOL    HW242799   4.437   3.735   3.334  0.5742 -0.6077  0.2120
13090SOL     OW42800   7.523   5.086   4.675  0.3261 -0.2343  0.2994
13090SOL    HW142801   7.605   5.115   4.715  0.3550 -0.4910  0.4296
13090SOL    HW242802   7.455   5.114   4.737  0.3545 -0.4462  0.4284
13091SOL     OW42803   7.788   3.966  10.664 -0.3648  0.1979  0.2800
13091SOL    HW142804   7.749   3.988  10.748 -1.0190  0.1911 -0.0143
13091SOL    HW242805   7.819   4.050  10.629 -1.1908  0.3910 -0.0130
13092SOL     OW42806  10.121   3.893   0.705  0.0087  0.2048 -0.0840
13092SOL    HW142807  10.194   3.878   0.766  1.8421 -0.5616 -2.3127
13092SOL    HW242808  10.058   3.824   0.726  0.1847  0.4677  1.4500
13093SOL     OW42809   5.116   5.435   2.204  0.0965  0.7729 -0.4007
13093SOL    HW142810   5.138   5.346   2.232  0.4100  0.9763  0.0116
13093SOL    HW242811   5.187   5.460   2.146  1.4598  1.7311  1.5615
13094SOL     OW42812   8.173   5.512   0.196 -0.9938  0.2219  0.1802
13094SOL    HW142813   8.104   5.519   0.261 -0.0141  1.7468  1.1250
13094SOL    HW242814   8.224   5.593   0.206  0.0552 -0.1718 -1.4862
13095SOL     OW42815   8.072   3.072   8.183 -0.0018  0.0482 -0.2773
13095SOL    HW142816   8.066   3.108   8.271  1.1405 -1.3511  0.4152
13095SOL    HW242817   8.107   3.144   8.130  1.5950  0.2198  0.9281
13096SOL     OW42818   4.453   9.710   9.605  0.5328  0.0121 -0.7543
13096SOL    HW142819   4.386   9.660   9.557  0.8909  0.7851 -2.1055
13096SOL    HW242820   4.502   9.643   9.653 -0.4158 -0.6947 -0.7284
13097SOL     OW42821   5.277   2.559   7.404 -0.7187 -0.0994 -0.6596
13097SOL    HW142822   5.208   2.625   7.416  0.7902  1.5456 -0.4891
13097SOL    HW242823   5.251   2.486   7.460 -1.4494  1.2182  0.8084
13098SOL     OW42824   3.246  10.120   2.924 -0.0155  0.1213 -0.2249
13098SOL    HW142825   3.265  10.049   2.864  1.0675  1.3053 -1.3504
13098SOL    HW242826   3.178  10.086   2.982  1.4083 -2.2781  0.1483
13099SOL     OW42827   4.359   4.934   4.514  0.0302  0.7726  0.4427
13099SOL    HW142828   4.429   4.917   4.451 -0.9875  0.1657 -0.5472
13099SOL    HW242829   4.395   4.904   4.598  0.0638 -1.9934 -0.4500
13100SOL     OW42830   9.301   9.123   1.824 -0.0053  0.1188 -0.3716
13100SOL    HW142831   9.212   9.094   1.843  0.1774 -0.1115  0.1460
13100SOL    HW242832   9.321   9.085   1.738  0.3881 -1.7035  0.4767
13101SOL     OW42833   9.090   5.331   3.451 -0.5802 -0.5119  0.5153
13101SOL    HW142834   9.110   5.275   3.526  0.1262 -1.7455 -0.5373
13101SOL    HW242835   9.104   5.420   3.483  4.1141 -1.0698  0.7952
13102SOL     OW42836   4.460   8.492   4.486 -0.2389  0.0148 -0.1097
13102SOL    HW142837   4.520   8.552   4.530 -0.6148  0.2247  0.1234
13102SOL    HW242838   4.382   8.492   4.541  0.3871 -2.0568  0.8804
13103SOL     OW42839   9.422  10.415   2.301  0.0102 -0.3278  0.2727
13103SOL    HW142840   9.411  10.320   2.298  0.7273 -0.4028 -0.1878
13103SOL    HW242841   9.349  10.445   2.355  0.9347 -1.3406  2.2152
13104SOL     OW42842  10.773   4.444   9.044 -0.4459 -0.4272  0.0511
13104SOL    HW142843  10.704   4.437   9.110 -0.9597 -2.4152 -0.6409
13104SOL    HW242844  10.799   4.536   9.047 -1.3605 -0.1699  2.0916
13105SOL     OW42845   6.543   0.184   4.686  0.0087 -0.0826 -0.5351
13105SOL    HW142846   6.589   0.123   4.743 -0.3294  0.0973 -0.0595
13105SOL    HW242847   6.595   0.265   4.691  0.1539 -0.1656 -0.7290
13106SOL     OW42848   3.090   3.340   3.955 -0.1558  0.1381  0.6379
13106SOL    HW142849   2.995   3.336   3.949 -0.2473 -0.5217  2.1471
13106SOL    HW242850   3.108   3.358   4.047  1.2010 -0.2763  0.4797
13107SOL     OW42851   6.317   7.321  10.687 -0.3246 -0.0673 -0.4477
13107SOL    HW142852   6.356   7.342  10.772 -1.5758 -0.3592  0.2244
13107SOL    HW242853   6.329   7.227  10.678 -0.8073 -0.1541 -0.2510
13108SOL     OW42854   7.765   7.162   3.137 -0.1664 -0.2776 -0.3231
13108SOL    HW142855   7.824   7.172   3.212 -1.7211  0.3393  0.8905
13108SOL    HW242856   7.817   7.189   3.061  0.8907  0.9319  0.7871
13109SOL     OW42857   9.440   2.859  10.460  0.3660 -0.0906 -0.1904
13109SOL    HW142858   9.380   2.785  10.471 -0.2561  0.2978 -0.8409
13109SOL    HW242859   9.439   2.877  10.366  0.1918  0.9867 -0.0022
13110SOL     OW42860   0.914   6.748   2.181  0.0457  0.0120 -0.3169
13110SOL    HW142861   0.885   6.812   2.115 -2.2932  0.3347  0.8990
13110SOL    HW242862   0.861   6.670   2.163 -0.0860 -0.1427  0.6996
13111SOL     OW42863   9.115   5.579   5.570  0.3883 -0.0828 -0.3746
13111SOL    HW142864   9.082   5.491   5.551 -0.0834 -0.2940  1.2234
13111SOL    HW242865   9.210   5.571   5.562  0.2956 -0.4824 -1.1816
13112SOL     OW42866   1.556   1.535   5.828 -0.6855 -0.1872 -0.2011
13112SOL    HW142867   1.475   1.486   5.843 -1.2761  0.5373 -0.9186
13112SOL    HW242868   1.536   1.624   5.859 -0.0690 -0.0771 -0.1082
13113SOL     OW42869   9.972   7.015   0.783  0.6159  0.3192  0.5785
13113SOL    HW142870   9.882   7.021   0.750 -0.7290 -2.3173  3.3415
13113SOL    HW242871   9.991   7.102   0.818 -1.4035  0.5522  1.1835
13114SOL     OW42872   8.406   2.511   6.841 -0.6046 -0.0006  0.0330
13114SOL    HW142873   8.468   2.494   6.911 -0.6120 -2.1467 -0.4338
13114SOL    HW242874   8.456   2.500   6.760 -0.9534  0.9598 -0.3316
13115SOL     OW42875   2.258   4.787   1.473  0.5352 -0.0334 -0.3989
13115SOL    HW142876   2.194   4.731   1.430  1.7925 -1.5094 -0.4623
13115SOL    HW242877   2.264   4.864   1.417 -0.8412 -0.0572 -0.6143
13116SOL     OW42878   8.447   9.643  10.856 -0.4184  0.3182  0.0978
13116SOL    HW142879   8.382   9.689  10.909 -0.2109  0.7468 -0.0190
13116SOL    HW242880   8.395   9.584  10.801 -0.5904 -0.7034  1.3057
13117SOL     OW42881   3.272   3.600   0.017 -0.1977 -0.0584 -0.3457
13117SOL    HW142882   3.286   3.547  -0.062 -1.0187 -1.4753  0.4282
13117SOL    HW242883   3.267   3.537   0.088  1.9001  1.2680  1.0940
13118SOL     OW42884  10.961   1.212   8.807  0.3857  0.1577  0.5110
13118SOL    HW142885  10.983   1.214   8.714  0.6341  1.2214  0.5815
13118SOL    HW242886  10.949   1.119   8.827 -2.0913  0.0348 -1.1248
13119SOL     OW42887   9.941   1.720   4.999  0.3960 -0.5810  0.1012
13119SOL    HW142888  10.028   1.752   5.022  0.7883 -1.0185 -0.7271
13119SOL    HW242889   9.901   1.698   5.082  0.5846  0.8527  0.6018
13120SOL     OW42890   3.169   7.914   7.946 -0.4319 -0.1144 -0.0208
13120SOL    HW142891   3.201   7.973   8.013  2.1679 -2.3437  0.9188
13120SOL    HW242892   3.125   7.843   7.994 -0.3921 -0.7078 -0.8231
13121SOL     OW42893   0.013   1.178   6.625 -0.8756  0.0312  0.0329
13121SOL    HW142894  -0.025   1.114   6.684  0.8998 -0.1409  1.0505
13121SOL    HW242895   0.015   1.134   6.540 -1.5811 -0.4725  0.2680
13122SOL     OW42896   6.497   3.038   9.278  0.5958 -0.3767 -0.4695
13122SOL    HW142897   6.408   3.071   9.276  0.2572 -0.4010  3.8414
13122SOL    HW242898   6.487   2.943   9.271  0.0622 -0.4841  1.2885
13123SOL     OW42899   2.474   4.154   0.950  0.1081 -0.1486  0.7243
13123SOL    HW142900   2.412   4.210   0.998 -2.6235 -2.2016 -0.1395
13123SOL    HW242901   2.440   4.065   0.963  1.0976 -1.0853 -2.3380
13124SOL     OW42902   0.650   7.779   8.021  0.5276 -0.0865 -0.4301
13124SOL    HW142903   0.692   7.695   8.038  3.3369  1.2114 -0.4356
13124SOL    HW242904   0.700   7.842   8.072 -2.8470  1.4100  1.3222
13125SOL     OW42905   1.480  10.185   3.515  0.1940  0.0811 -0.3916
13125SOL    HW142906   1.392  10.149   3.506  1.1371 -3.1114  1.5201
13125SOL    HW242907   1.530  10.143   3.446  0.3441  1.6359 -1.2654
13126SOL     OW42908  10.513   4.745   6.044  0.8184 -0.2846  0.6628
13126SOL    HW142909  10.515   4.651   6.063  0.0429 -0.1408  1.4984
13126SOL    HW242910  10.422   4.770   6.054  0.7067  0.2209 -1.3373
13127SOL     OW42911  10.567   3.715   5.494  0.3060  0.4520  0.5938
13127SOL    HW142912  10.555   3.621   5.477 -0.1536  0.6642 -0.3202
13127SOL    HW242913  10.508   3.734   5.567 -0.4407  0.2501  0.0545
13128SOL     OW42914   1.770  10.060   3.777  0.2928 -0.5557 -0.2520
13128SOL    HW142915   1.703  10.127   3.789 -0.2305 -1.1120  0.0430
13128SOL    HW242916   1.744   9.990   3.837  1.8959 -0.2293  0.8832
13129SOL     OW42917   9.250   5.401  10.227  0.1400 -0.1776 -0.0451
13129SOL    HW142918   9.329   5.347  10.225 -0.5536 -1.2718 -2.8023
13129SOL    HW242919   9.275   5.482  10.182 -0.0479 -0.1097 -0.0284
13130SOL     OW42920   6.471  10.341   9.892 -0.7664  0.0261 -0.1063
13130SOL    HW142921   6.381  10.344   9.861 -1.1906 -1.1129  0.9243
13130SOL    HW242922   6.515  10.279   9.833 -0.9820 -0.3495  0.1197
13131SOL     OW42923   8.695   8.210   4.191 -0.0602  0.0260  0.1277
13131SOL    HW142924   8.768   8.231   4.250  0.9206  0.8582 -1.3173
13131SOL    HW242925   8.715   8.122   4.159 -0.0304 -0.0034  0.2249
13132SOL     OW42926   0.209  10.127   0.572 -0.2239  0.1737  0.5541
13132SOL    HW142927   0.162  10.209   0.584 -0.9730 -0.1043 -0.3655
13132SOL    HW242928   0.295  10.153   0.538 -0.7705  0.5521 -0.5855
13133SOL     OW42929   5.301   6.819   6.213  0.1151 -0.2304  0.3105
13133SOL    HW142930   5.318   6.864   6.131  1.6647 -0.4537  0.4879
13133SOL    HW242931   5.363   6.746   6.215  0.7908  0.3317  2.1043
13134SOL     OW42932   2.958  11.108   4.547 -0.0897 -0.6753  0.1921
13134SOL    HW142933   2.908  11.027   4.557 -0.4317 -0.7932 -1.8858
13134SOL    HW242934   2.892  11.177   4.553 -0.3687 -0.7681 -1.2864
13135SOL     OW42935   8.229   7.145   0.840  0.1101 -0.2945 -0.2162
13135SOL    HW142936   8.306   7.195   0.865  1.7039 -1.7106 -1.9877
13135SOL    HW242937   8.155   7.204   0.857  1.8046  2.4193 -1.6537
13136SOL     OW42938   8.813   4.043   4.392 -0.2188  0.2847 -0.2058
13136SOL    HW142939   8.886   4.050   4.330  0.2529 -0.5849  0.2232
13136SOL    HW242940   8.855   4.019   4.475 -1.0040 -0.3967  0.0065
13137SOL     OW42941   4.950   7.523   5.055 -0.1299 -0.0413 -0.8046
13137SOL    HW142942   4.867   7.565   5.034 -1.5033 -1.7501  0.8801
13137SOL    HW242943   4.970   7.553   5.143  0.4302 -0.5711 -0.7461
13138SOL     OW42944   8.007   1.877   4.165 -0.2610  0.2754  0.4752
13138SOL    HW142945   7.926   1.883   4.216 -0.0838 -2.2715  1.1829
13138SOL    HW242946   7.992   1.804   4.105  1.7397 -0.8171  1.1931
13139SOL     OW42947   8.874   5.689   2.486  0.2406 -0.2581 -0.0244
13139SOL    HW142948   8.876   5.706   2.580 -0.8157  2.1436 -0.3691
13139SOL    HW242949   8.961   5.716   2.456  0.2274 -0.0764  0.1037
13140SOL     OW42950   4.704   2.951   4.730  0.1030 -0.0204  0.3575
13140SOL    HW142951   4.780   2.924   4.781 -0.1513  0.4727  0.9978
13140SOL    HW242952   4.690   2.878   4.669 -0.3283 -1.1947  1.7867
13141SOL     OW42953   9.783  10.306   2.354  0.6240 -0.0072  0.4150
13141SOL    HW142954   9.783  10.364   2.279  0.5425  0.6835  0.9426
13141SOL    HW242955   9.873  10.275   2.360  0.6362 -0.0484  0.0505
13142SOL     OW42956   0.040   8.574   9.820 -0.0964 -0.2349 -0.4592
13142SOL    HW142957   0.107   8.551   9.756  0.3251  2.6795 -1.1730
13142SOL    HW242958   0.043   8.669   9.825 -1.7266 -0.2294  2.1983
13143SOL     OW42959   2.385   4.138   2.945  0.5919  0.4279 -0.6318
13143SOL    HW142960   2.406   4.169   3.033  0.7676 -1.3626  0.0118
13143SOL    HW242961   2.467   4.148   2.896  0.7642  0.5616 -0.3198
13144SOL     OW42962   1.311  10.328   3.038 -0.1885 -0.6378  0.3842
13144SOL    HW142963   1.219  10.307   3.025 -0.8713  1.6720  0.9753
13144SOL    HW242964   1.352  10.309   2.953 -1.1795 -1.7277  0.1267
13145SOL     OW42965   4.712   8.880   8.781  0.7626  0.0977  0.3301
13145SOL    HW142966   4.776   8.909   8.716  0.6136 -1.4045 -0.5300
13145SOL    HW242967   4.708   8.785   8.771 -0.2342 -0.0397  1.6561
13146SOL     OW42968   1.236   6.708   2.494  0.3261  0.2121 -0.1040
13146SOL    HW142969   1.161   6.654   2.517  0.8022 -0.4342 -0.0314
13146SOL    HW242970   1.206   6.760   2.420 -0.2190  0.0214 -0.0230
13147SOL     OW42971   1.606   6.240   0.011  0.0364 -0.1781 -0.3167
13147SOL    HW142972   1.561   6.269  -0.068 -2.5067  1.3402  1.5437
13147SOL    HW242973   1.618   6.320   0.062 -1.5943 -1.4629  2.3087
13148SOL     OW42974   1.505   4.408   3.120 -0.1979  0.0635  0.0854
13148SOL    HW142975   1.461   4.335   3.164 -0.3597  0.6096  0.8472
13148SOL    HW242976   1.543   4.460   3.191 -0.3469  0.8923 -0.4209
13149SOL     OW42977   7.302   5.603   2.657  0.6245 -0.0853  0.4532
13149SOL    HW142978   7.346   5.677   2.700  3.1032 -0.0776 -1.8530
13149SOL    HW242979   7.373   5.546   2.628 -1.0546 -1.5233 -1.0502
13150SOL     OW42980   2.817  11.125   7.933  0.1780  0.7279  0.6108
13150SOL    HW142981   2.817  11.170   8.018  1.3931  1.2750  0.3470
13150SOL    HW242982   2.877  11.051   7.946  0.4257  0.8561  0.2133
13151SOL     OW42983   6.688   8.021   0.562  0.5130  0.1726  0.4933
13151SOL    HW142984   6.755   8.033   0.494  0.2876 -0.6509  0.1200
13151SOL    HW242985   6.623   7.962   0.522  0.9523 -1.2685  1.8267
13152SOL     OW42986   9.918   7.414   2.730  0.3345 -0.0207 -0.1185
13152SOL    HW142987   9.882   7.442   2.815  0.3130  1.1505 -0.4947
13152SOL    HW242988   9.990   7.356   2.752 -0.5995 -0.9033  0.6818
13153SOL     OW42989  10.225   3.070   6.112 -0.0990 -0.2966 -0.4541
13153SOL    HW142990  10.271   3.070   6.028  0.7247 -1.7595 -0.0330
13153SOL    HW242991  10.272   3.134   6.165 -1.9064  2.2388 -1.7109
13154SOL     OW42992   8.617   6.409   9.477  0.6196 -0.2827  0.4595
13154SOL    HW142993   8.613   6.346   9.405  0.2122 -1.3066  1.3428
13154SOL    HW242994   8.642   6.492   9.436 -0.1194 -0.7236 -0.9288
13155SOL     OW42995  10.526  10.162   8.999 -0.2943 -0.6607 -0.6651
13155SOL    HW142996  10.521  10.219   8.922  1.6350 -0.5173 -0.7200
13155SOL    HW242997  10.615  10.174   9.032 -1.3499  0.1197  2.2522
13156SOL     OW42998   3.101   3.866   7.065 -0.4051 -0.0188  0.5050
13156SOL    HW142999   3.125   3.859   6.972  1.1536 -1.4482  0.9526
13156SOL    HW243000   3.014   3.906   7.065 -0.6419 -0.4232 -1.6007
13157SOL     OW43001   7.635   7.676   0.032 -0.1265 -0.1388  0.3071
13157SOL    HW143002   7.671   7.613   0.095 -0.4412 -0.8112 -0.1636
13157SOL    HW243003   7.697   7.675  -0.041 -0.5618 -0.5470 -0.0674
13158SOL     OW43004   5.974   8.314   6.306 -0.7038  0.2990 -0.0163
13158SOL    HW143005   5.977   8.410   6.300 -2.0226  0.3173 -0.7183
13158SOL    HW243006   6.060   8.290   6.342 -1.0783  1.8901  2.2032
13159SOL     OW43007   0.497   8.847   3.286 -0.1705 -0.2754  0.0353
13159SOL    HW143008   0.414   8.838   3.334  0.7629 -0.2985  1.7065
13159SOL    HW243009   0.552   8.901   3.342  1.1409 -0.6989 -0.7927
13160SOL     OW43010   6.453   1.112   1.587 -0.0032  0.1259  0.0294
13160SOL    HW143011   6.474   1.029   1.630 -1.1682  0.1805  0.7629
13160SOL    HW243012   6.385   1.089   1.523  1.5880  0.0758 -1.7206
13161SOL     OW43013   9.677   3.566  10.342 -0.0953 -0.2612 -0.0538
13161SOL    HW143014   9.723   3.493  10.300  1.6723  0.5096  0.4508
13161SOL    HW243015   9.711   3.644  10.298 -0.7777  0.3611  0.5040
13162SOL     OW43016   3.319   5.542   6.979 -0.3211  0.1306  0.5946
13162SOL    HW143017   3.306   5.527   7.072 -2.1597  0.1787  0.3824
13162SOL    HW243018   3.328   5.637   6.971  1.2530  0.0341  0.8393
13163SOL     OW43019   7.941   9.539  10.221 -0.2969  0.1065 -0.0290
13163SOL    HW143020   7.919   9.497  10.304  0.9421 -0.8880 -0.1920
13163SOL    HW243021   8.034   9.521  10.208 -0.5846 -0.2437 -1.9034
13164SOL     OW43022   0.845   7.029   3.807  0.5195 -0.5039 -0.0387
13164SOL    HW143023   0.820   7.060   3.720  1.6901 -1.5307 -0.7777
13164SOL    HW243024   0.898   7.100   3.844 -1.5710  0.7664  0.6727
13165SOL     OW43025   3.660   9.373   9.205  0.0641 -0.0191  0.3687
13165SOL    HW143026   3.636   9.286   9.238 -1.0862 -0.5720 -1.7487
13165SOL    HW243027   3.607   9.434   9.256 -1.5768 -0.8318 -0.2948
13166SOL     OW43028   2.380   1.439   7.850  0.4106  0.3250  0.0439
13166SOL    HW143029   2.374   1.367   7.787  0.1684 -0.5117  0.9839
13166SOL    HW243030   2.292   1.477   7.850 -0.4692 -1.4624  1.8499
13167SOL     OW43031   3.385   9.238   9.110 -0.0735 -0.1884 -0.0227
13167SOL    HW143032   3.305   9.187   9.122  0.2625 -0.5891  0.5639
13167SOL    HW243033   3.454   9.185   9.150  0.0546  1.4588  2.1484
13168SOL     OW43034   5.434   2.857   8.587  0.0258 -0.5763  0.0410
13168SOL    HW143035   5.408   2.792   8.522 -2.3898 -1.6368  1.8724
13168SOL    HW243036   5.356   2.913   8.597  0.3648 -0.3621  1.8568
13169SOL     OW43037   3.046   5.248   6.182 -0.8190  0.3949 -0.5776
13169SOL    HW143038   3.016   5.271   6.270  0.4887  0.0132 -0.0065
13169SOL    HW243039   2.981   5.185   6.150 -1.5520  0.8829 -0.0755
13170SOL     OW43040   5.355   8.823   3.876  0.5325 -0.1563 -0.8303
13170SOL    HW143041   5.266   8.858   3.877  0.8026  0.5597  0.6345
13170SOL    HW243042   5.411   8.898   3.862  0.9250 -0.6109 -1.7794
13171SOL     OW43043   8.243   1.305   0.162 -0.3176 -0.1585 -0.2083
13171SOL    HW143044   8.280   1.218   0.148 -0.0898  0.0426 -0.9062
13171SOL    HW243045   8.254   1.321   0.256  0.3817 -0.5531 -0.2146
13172SOL     OW43046  10.359   3.380   4.029 -0.6684  0.1070  0.1222
13172SOL    HW143047  10.306   3.431   4.090 -1.3912  0.2645 -0.6237
13172SOL    HW243048  10.435   3.353   4.080 -0.9839  0.7151  0.9266
13173SOL     OW43049   4.824   9.489  10.664  0.5545  0.1898 -0.0211
13173SOL    HW143050   4.881   9.452  10.596 -1.2301 -2.5101 -0.2336
13173SOL    HW243051   4.871   9.473  10.746  3.0618  4.1120 -0.4205
13174SOL     OW43052   6.254   1.229   2.876  0.6221 -0.2270 -0.2212
13174SOL    HW143053   6.289   1.303   2.826 -0.2264  1.3013  1.3377
13174SOL    HW243054   6.317   1.215   2.946 -0.0274  0.1255  0.4493
13175SOL     OW43055   6.427   2.126   2.033 -0.0314  0.9080 -0.0283
13175SOL    HW143056   6.487   2.181   1.983  1.1388  1.2555  1.6384
13175SOL    HW243057   6.422   2.044   1.984  1.4615  1.0409 -0.4612
13176SOL     OW43058   1.719   1.387   8.766 -0.5555  0.0750  0.2796
13176SOL    HW143059   1.770   1.333   8.827 -0.1656  0.3862  0.2281
13176SOL    HW243060   1.634   1.342   8.761  0.3171 -1.5442 -1.1337
13177SOL     OW43061   3.145   2.760   9.245  0.3775 -0.4329 -0.0435
13177SOL    HW143062   3.059   2.720   9.233  0.1604  0.5405 -2.1567
13177SOL    HW243063   3.191   2.743   9.162  2.4391 -1.3550  1.1923
13178SOL     OW43064   6.289   6.649   5.300 -0.2844  0.2915 -0.0271
13178SOL    HW143065   6.336   6.623   5.221 -0.8173  0.1343 -0.2973
13178SOL    HW243066   6.261   6.739   5.283 -1.4556 -0.1456 -0.5336
13179SOL     OW43067   9.719   5.037   0.170 -0.0685  0.3452  0.2820
13179SOL    HW143068   9.742   5.128   0.151  0.0177  0.9305  2.8844
13179SOL    HW243069   9.625   5.032   0.153  0.2204  0.3988 -1.5447
13180SOL     OW43070   2.818   7.196   9.732 -0.0771 -0.3047 -0.3473
13180SOL    HW143071   2.774   7.281   9.734 -0.2454 -0.3997  1.0665
13180SOL    HW243072   2.795   7.155   9.815  0.9985 -1.2264 -0.4759
13181SOL     OW43073  10.737   7.787  10.715  0.2852 -0.2696  0.5280
13181SOL    HW143074  10.713   7.699  10.743 -0.3556 -0.2207  0.1429
13181SOL    HW243075  10.755   7.834  10.797  2.2524 -1.1816  0.6790
13182SOL     OW43076   4.330  10.019   7.994  0.0901 -0.6658  0.4988
13182SOL    HW143077   4.369   9.953   8.052  0.2831 -1.1313 -0.1532
13182SOL    HW243078   4.308  10.091   8.053 -0.3009 -1.3793  1.2595
13183SOL     OW43079   8.290   0.001   6.965  0.1201 -0.1802 -0.1023
13183SOL    HW143080   8.364   0.034   6.913  0.3932  0.6683  0.7985
13183SOL    HW243081   8.247   0.080   6.998 -1.3086 -0.6577 -0.7468
13184SOL     OW43082   1.816   8.021   4.436  0.5558  0.6169  0.2639
13184SOL    HW143083   1.728   8.021   4.398  1.1386 -0.8056 -1.1531
13184SOL    HW243084   1.849   8.109   4.420 -0.0376  0.6994 -0.5634
13185SOL     OW43085   6.346   0.925   1.325  0.2347  0.0709  0.4904
13185SOL    HW143086   6.439   0.903   1.325 -0.0022 -1.0857 -1.0649
13185SOL    HW243087   6.337   0.990   1.255 -0.3800 -1.1542 -0.6051
13186SOL     OW43088   6.278   3.591   0.802  0.0564  0.0156 -0.1578
13186SOL    HW143089   6.227   3.628   0.874 -1.7496  0.3117 -1.5079
13186SOL    HW243090   6.213   3.551   0.745  1.6164 -1.8571 -0.7154
13187SOL     OW43091   2.068   6.235  10.079 -0.0597  0.3442  0.0650
13187SOL    HW143092   2.158   6.202  10.077  0.0790  0.5988  1.3699
13187SOL    HW243093   2.035   6.219   9.991  0.0445 -3.1568  0.5086
13188SOL     OW43094  10.537   4.898   4.191 -0.5115 -0.0505 -0.3251
13188SOL    HW143095  10.565   4.920   4.280 -0.3063  1.7606 -0.8008
13188SOL    HW243096  10.450   4.861   4.202 -0.9076  1.0783  0.5841
13189SOL     OW43097   9.889   9.390   5.111  0.1617  0.4551  0.4047
13189SOL    HW143098   9.886   9.447   5.034  0.5409  1.1452  0.8993
13189SOL    HW243099   9.975   9.405   5.150 -0.8471  1.8439  2.2584
13190SOL     OW43100   1.779   1.359   3.718 -0.2733  0.6103 -0.2425
13190SOL    HW143101   1.812   1.363   3.808 -0.9176  1.8969 -0.0358
13190SOL    HW243102   1.823   1.284   3.680  2.1780  1.6652  0.2916
13191SOL     OW43103   9.801   1.492   5.988 -0.6468 -0.2966  0.1513
13191SOL    HW143104   9.839   1.575   6.019  0.0675 -0.5604  0.0072
13191SOL    HW243105   9.838   1.426   6.046  0.3661 -0.7454 -0.9619
13192SOL     OW43106   1.213  10.703   8.373 -0.0790 -0.2635  0.6916
13192SOL    HW143107   1.236  10.790   8.403  1.0581 -0.5864  0.7948
13192SOL    HW243108   1.238  10.645   8.445  2.8589 -1.0749 -0.8394
13193SOL     OW43109  10.582   4.867   0.863 -0.0247  0.6327  0.2038
13193SOL    HW143110  10.607   4.939   0.922 -1.3644  1.3054  0.0133
13193SOL    HW243111  10.661   4.815   0.854  0.0546 -0.0075  3.3051
13194SOL     OW43112   1.974   6.649   1.057 -0.1869  0.0283 -0.3583
13194SOL    HW143113   1.921   6.570   1.060  1.8916 -1.4735  2.1761
13194SOL    HW243114   1.924   6.714   1.106 -1.4040 -0.0601 -1.4560
13195SOL     OW43115   2.536   7.484   9.565 -0.0258 -0.3196 -0.5284
13195SOL    HW143116   2.611   7.477   9.506  1.4701 -0.1680  1.2588
13195SOL    HW243117   2.569   7.453   9.649 -1.7643  0.5198  0.5159
13196SOL     OW43118   5.243   2.404   1.158 -0.3512 -0.6593  0.7311
13196SOL    HW143119   5.194   2.415   1.077 -2.2651 -0.9273  1.8115
13196SOL    HW243120   5.329   2.441   1.138 -1.0841  0.2027 -1.0959
13197SOL     OW43121   6.844   0.285   2.562 -0.2924  0.2621 -0.0773
13197SOL    HW143122   6.916   0.317   2.615 -1.5497  2.0890  0.6502
13197SOL    HW243123   6.817   0.203   2.603  0.2830  0.4343  0.6503
13198SOL     OW43124   8.356   7.435   3.163  0.7479  0.0751  0.1305
13198SOL    HW143125   8.361   7.450   3.068  0.8707  0.2989  0.1726
13198SOL    HW243126   8.263   7.448   3.183  1.0028  1.8859  0.3407
13199SOL     OW43127   3.173   8.448   2.156  0.2651 -0.7785  0.1254
13199SOL    HW143128   3.079   8.463   2.161  0.3347 -0.0860 -0.5235
13199SOL    HW243129   3.192   8.446   2.062  0.7460 -1.9493  0.2248
13200SOL     OW43130   4.056  10.525   2.215  0.4150  0.0022 -0.0171
13200SOL    HW143131   4.137  10.475   2.208 -0.1808 -0.7631 -2.0934
13200SOL    HW243132   4.003  10.478   2.279  0.3898 -1.3440 -0.9781
13201SOL     OW43133   0.888   6.471   3.449  0.1679  0.6679  0.4291
13201SOL    HW143134   0.908   6.417   3.525 -2.2127  0.4059  0.9475
13201SOL    HW243135   0.969   6.519   3.432  1.6358 -1.3324  1.3575
13202SOL     OW43136  10.773   3.028   7.121 -0.0619 -0.2948 -0.4955
13202SOL    HW143137  10.793   2.942   7.158  1.3664  0.3244  0.2275
13202SOL    HW243138  10.858   3.066   7.102 -0.7184  0.3762 -2.2358
13203SOL     OW43139   5.691   2.737   4.769  0.1839 -0.4430  0.2402
13203SOL    HW143140   5.659   2.811   4.820 -0.1869  0.6095 -1.4261
13203SOL    HW243141   5.631   2.665   4.790 -0.5042  0.2250  0.5891
13204SOL     OW43142   7.998   5.859   3.933 -0.2088  0.4803  0.1767
13204SOL    HW143143   8.044   5.796   3.878  0.8391  0.4838  1.0124
13204SOL    HW243144   8.022   5.945   3.899 -0.1141  0.4660  0.2064
13205SOL     OW43145   7.276   1.806   7.237 -0.0593  0.2037 -0.2668
13205SOL    HW143146   7.363   1.837   7.262 -0.4471  0.0950  1.3089
13205SOL    HW243147   7.277   1.808   7.141  1.2206  1.4530 -0.2685
13206SOL     OW43148   8.355  10.735   5.228 -0.0752  0.3141  0.0131
13206SOL    HW143149   8.432  10.711   5.279  0.4692  1.7210 -0.1104
13206SOL    HW243150   8.324  10.816   5.267 -0.0472  1.0590 -1.4460
13207SOL     OW43151   0.595   5.988   6.370 -0.2717 -0.2334 -0.6970
13207SOL    HW143152   0.612   5.894   6.376  0.9117 -0.1156 -1.8873
13207SOL    HW243153   0.627   6.013   6.284  2.0357  1.7898  0.6148
13208SOL     OW43154   3.386   2.367   8.595 -0.0113  0.0030 -0.0908
13208SOL    HW143155   3.401   2.357   8.689  0.6118  1.0273 -0.0702
13208SOL    HW243156   3.340   2.451   8.587  0.6892  0.3291 -0.7672
13209SOL     OW43157   8.216   1.575   0.091  0.0537 -0.2020 -0.5830
13209SOL    HW143158   8.159   1.600   0.018  0.0299  0.9503 -0.1944
13209SOL    HW243159   8.202   1.481   0.102  0.7659 -0.6030 -2.6640
13210SOL     OW43160   6.649  10.134   4.861 -0.1704 -0.0587  0.5406
13210SOL    HW143161   6.676  10.083   4.785 -1.2003  0.1568  0.0036
13210SOL    HW243162   6.588  10.199   4.826  0.8185  1.3078  1.2728
13211SOL     OW43163   5.979   1.871   5.731  0.5224  0.3452  0.4942
13211SOL    HW143164   5.960   1.780   5.751 -1.9342  0.1724 -1.9727
13211SOL    HW243165   6.006   1.910   5.814 -0.0597 -2.1988  1.9582
13212SOL     OW43166   0.410   1.278   7.534  0.4556 -0.5427  0.0245
13212SOL    HW143167   0.326   1.321   7.548  0.5671  0.2806 -1.5906
13212SOL    HW243168   0.395   1.218   7.461  0.9623 -1.3749  0.5775
13213SOL     OW43169   6.475   4.185  10.434 -0.5308  0.1049  0.4731
13213SOL    HW143170   6.494   4.260  10.491  0.9239 -0.2053  0.4478
13213SOL    HW243171   6.473   4.222  10.345  1.1873  0.0050  0.3554
13214SOL     OW43172   0.333   7.929   5.889 -0.3578 -0.3570 -0.6494
13214SOL    HW143173   0.324   7.859   5.825  2.3216 -0.7405 -0.6983
13214SOL    HW243174   0.253   7.980   5.879 -1.6123 -2.4048 -1.8042
13215SOL     OW43175   9.011   7.827   5.519 -0.7903  0.3293 -0.3702
13215SOL    HW143176   9.008   7.889   5.446 -0.1176 -1.8931 -2.4163
13215SOL    HW243177   9.103   7.828   5.547 -0.5788 -0.3648 -1.0122
13216SOL     OW43178   1.613  10.907   0.072  0.3634  0.5574 -0.2918
13216SOL    HW143179   1.565  10.979   0.114  1.4291  1.3162 -0.3394
13216SOL    HW243180   1.703  10.917   0.102  0.5995 -0.5926 -0.5383
13217SOL     OW43181   4.419   0.019  10.871 -0.3564 -0.7596  0.1333
13217SOL    HW143182   4.514   0.022  10.883 -0.0259 -1.0648 -2.0493
13217SOL    HW243183   4.386   0.089  10.927  1.3027  0.3050 -0.1437
13218SOL     OW43184   0.999   1.677   6.223  0.6253 -0.0627 -0.3929
13218SOL    HW143185   0.975   1.644   6.137  3.4614 -2.2741 -0.4774
13218SOL    HW243186   0.954   1.619   6.285  0.6017 -0.0754 -0.4218
13219SOL     OW43187   3.711   3.343   2.038 -0.1288 -0.0273  0.2411
13219SOL    HW143188   3.616   3.344   2.045 -0.4738 -1.6312 -2.7668
13219SOL    HW243189   3.741   3.294   2.115 -2.1186 -3.2045 -0.8121
13220SOL     OW43190   2.846   4.260   5.778 -0.2373 -0.1036 -0.1896
13220SOL    HW143191   2.906   4.299   5.841  0.7529  0.2695 -1.3224
13220SOL    HW243192   2.820   4.177   5.817 -1.4975  1.1262  1.7647
13221SOL     OW43193   1.374   7.497   4.122  0.4041  0.2986 -0.2406
13221SOL    HW143194   1.468   7.481   4.114  0.9761  3.0209  0.0479
13221SOL    HW243195   1.339   7.481   4.035  1.4670  1.0381 -0.8145
13222SOL     OW43196   0.310   6.566   8.781  0.4583  0.4345 -0.3530
13222SOL    HW143197   0.224   6.579   8.741 -0.5291 -3.0424  0.2922
13222SOL    HW243198   0.372   6.583   8.710 -1.0025 -0.8288 -2.0228
13223SOL     OW43199   6.173   1.827   0.697  0.3116 -0.2853  0.0561
13223SOL    HW143200   6.196   1.822   0.790  3.7079  1.3434 -0.5555
13223SOL    HW243201   6.232   1.765   0.654 -0.3902 -0.1396 -1.1703
13224SOL     OW43202   6.335   6.163   6.308  0.3630  0.3392  0.1234
13224SOL    HW143203   6.243   6.152   6.281  0.4766 -1.1519  0.2378
13224SOL    HW243204   6.330   6.199   6.396 -0.1820 -1.3207  0.8113
13225SOL     OW43205  10.024   5.496   6.036  0.5269 -0.2207  0.0114
13225SOL    HW143206   9.961   5.560   6.067  0.0800 -0.0019 -1.2805
13225SOL    HW243207  10.057   5.532   5.954  0.3374 -1.5812 -0.6922
13226SOL     OW43208   6.878   2.654   9.051 -0.1030  0.1186  0.1130
13226SOL    HW143209   6.913   2.723   8.994 -0.7782  0.5148  0.1757
13226SOL    HW243210   6.924   2.667   9.134  0.9921 -0.5481 -0.3602
13227SOL     OW43211   5.074   2.792   8.195  0.0196 -0.5308  0.0606
13227SOL    HW143212   5.034   2.714   8.157  0.3315 -0.3316 -0.6857
13227SOL    HW243213   5.141   2.758   8.254 -0.2397 -0.8328  0.1884
13228SOL     OW43214  10.215   7.650   0.885  0.0866 -0.1273  0.0489
13228SOL    HW143215  10.263   7.567   0.881  0.1377 -0.1974  1.5991
13228SOL    HW243216  10.149   7.636   0.953 -0.9937  0.5579 -0.8362
13229SOL     OW43217   1.369   4.432   1.305 -0.4753  0.0819  0.3367
13229SOL    HW143218   1.446   4.385   1.271  0.8289  1.5392  1.1476
13229SOL    HW243219   1.351   4.390   1.389  1.1132  1.3890  1.3832
13230SOL     OW43220   4.038   1.011   3.413  0.3496  0.0893 -1.0992
13230SOL    HW143221   4.064   0.936   3.359  0.4280  0.6766 -1.9051
13230SOL    HW243222   4.121   1.043   3.450  0.3928  0.1369 -1.2362
13231SOL     OW43223   6.611   6.707   8.979  0.2100  0.2485 -0.4985
13231SOL    HW143224   6.655   6.779   8.933  1.9072 -0.1528  0.4127
13231SOL    HW243225   6.550   6.671   8.915 -0.2217  2.0763 -1.1838
13232SOL     OW43226   6.832   7.187   3.811  0.2061 -0.1521  0.0529
13232SOL    HW143227   6.760   7.126   3.822  1.9012 -2.1413  0.8238
13232SOL    HW243228   6.817   7.254   3.877 -0.3006 -1.1978  1.0282
13233SOL     OW43229   9.855   4.547   1.184  0.2578 -0.1774 -0.6199
13233SOL    HW143230   9.862   4.479   1.250 -0.0166  1.1083  0.8009
13233SOL    HW243231   9.765   4.541   1.151  0.2223 -0.4563 -0.4715
13234SOL     OW43232   0.923   5.515   9.426 -0.2641 -0.6047  0.3869
13234SOL    HW143233   0.871   5.561   9.491 -0.0189 -1.0109  0.8812
13234SOL    HW243234   0.998   5.481   9.475 -0.5832 -1.7649  0.0918
13235SOL     OW43235   6.792   1.225   5.769 -0.3731  0.3519 -0.0621
13235SOL    HW143236   6.717   1.173   5.742 -0.8604  0.9611  0.0888
13235SOL    HW243237   6.754   1.302   5.812  0.3388  0.5585  0.2219
13236SOL     OW43238   9.149   9.738   4.634  0.6239  0.3757  0.2143
13236SOL    HW143239   9.066   9.690   4.641 -1.5556  3.7043 -0.3462
13236SOL    HW243240   9.206   9.680   4.583 -1.6793 -1.6447 -0.2722
13237SOL     OW43241   4.729   0.030   4.311  0.7354 -0.2332  0.2655
13237SOL    HW143242   4.685  -0.002   4.390 -1.6090  0.2948 -0.7393
13237SOL    HW243243   4.675  -0.003   4.239  1.9803  0.5419 -1.0653
13238SOL     OW43244   0.834   1.645   4.554  0.1049 -0.1191 -0.3229
13238SOL    HW143245   0.801   1.733   4.538 -1.9165 -0.3850  1.7937
13238SOL    HW243246   0.766   1.604   4.608  0.3215 -3.4677 -2.3678
13239SOL     OW43247   7.206   4.865   1.390 -0.2913 -0.3589 -0.3085
13239SOL    HW143248   7.183   4.920   1.315 -1.2409 -0.3815 -0.0478
13239SOL    HW243249   7.132   4.806   1.400  0.7227 -1.7268 -0.5969
13240SOL     OW43250   0.770   7.322   4.792  0.5507 -0.0894 -0.0697
13240SOL    HW143251   0.745   7.407   4.828  2.0639  0.0770  0.6331
13240SOL    HW243252   0.718   7.258   4.841 -1.9980  0.4639 -1.8400
13241SOL     OW43253   7.100   1.672   4.448 -0.5870 -0.0436  0.3607
13241SOL    HW143254   7.129   1.624   4.371 -1.2052  1.1461 -0.6421
13241SOL    HW243255   7.132   1.761   4.435  0.2598 -0.0545  2.0276
13242SOL     OW43256   9.247   0.041   2.265 -0.1752  0.2037  0.0627
13242SOL    HW143257   9.231   0.052   2.359 -1.0884 -1.4767  0.1276
13242SOL    HW243258   9.241  -0.053   2.250 -0.8065  0.5037 -1.8177
13243SOL     OW43259   5.775   8.151  11.038  0.0402 -0.3758 -0.0410
13243SOL    HW143260   5.811   8.237  11.018  0.2957 -0.6687 -0.8735
13243SOL    HW243261   5.752   8.114  10.953 -0.4107 -0.9837  0.3332
13244SOL     OW43262   0.835   6.187   1.916 -0.6994  0.7681 -0.5447
13244SOL    HW143263   0.920   6.165   1.953 -0.4722  0.9783 -0.9341
13244SOL    HW243264   0.775   6.122   1.954 -0.2860  0.3273 -0.6314
13245SOL     OW43265  10.231   1.361   1.629  0.5678  0.1687 -0.5210
13245SOL    HW143266  10.229   1.414   1.709  0.9235 -2.5676  1.4518
13245SOL    HW243267  10.139   1.340   1.612  0.5528  0.0751 -0.3304
13246SOL     OW43268   0.231   7.444   5.980  0.5365 -0.1474 -0.5855
13246SOL    HW143269   0.188   7.373   6.029 -0.6018 -0.4648 -1.9586
13246SOL    HW243270   0.248   7.511   6.045  0.3705 -1.1261  0.5035
13247SOL     OW43271  10.418  10.332  10.300  0.0443 -0.2114  0.3715
13247SOL    HW143272  10.418  10.276  10.222  0.8881 -2.0937  1.6532
13247SOL    HW243273  10.335  10.314  10.343 -0.2076  0.4633  0.1913
13248SOL     OW43274   5.045   6.214   9.397  0.1063 -0.8446  0.0029
13248SOL    HW143275   5.071   6.148   9.332  0.7232 -0.6137  0.0073
13248SOL    HW243276   5.101   6.289   9.378 -0.9475 -0.1193 -0.3422
13249SOL     OW43277   2.871   9.816   6.378  0.4319 -0.2055 -0.1141
13249SOL    HW143278   2.867   9.722   6.398  0.1205  0.2017  1.9497
13249SOL    HW243279   2.918   9.854   6.452 -2.9357  1.7592  1.2555
13250SOL     OW43280  10.896   6.784   7.461 -0.2331 -0.3046 -0.0067
13250SOL    HW143281  10.863   6.861   7.416 -1.0846 -0.3917  0.4487
13250SOL    HW243282  10.822   6.723   7.463 -0.2316 -0.3019  1.4914
13251SOL     OW43283   0.985   1.320   0.021  0.3086  0.0208  0.5373
13251SOL    HW143284   1.023   1.296   0.106  0.1678 -0.7742  0.3752
13251SOL    HW243285   0.953   1.409   0.035 -3.2944 -1.3782  2.5812
13252SOL     OW43286  10.659   7.109   6.610  0.2167  0.4625 -0.2105
13252SOL    HW143287  10.658   7.161   6.691  3.3621  1.9187 -0.9378
13252SOL    HW243288  10.664   7.174   6.540 -0.1859 -0.7982 -1.4595
13253SOL     OW43289   3.022   5.323   0.387 -0.9420 -0.3779 -0.4995
13253SOL    HW143290   3.022   5.231   0.411 -1.2168 -0.2862 -0.1441
13253SOL    HW243291   2.977   5.325   0.302  1.8177 -0.9589 -2.1137
13254SOL     OW43292   3.724   4.103   7.532 -0.3001  0.3533  0.2780
13254SOL    HW143293   3.812   4.076   7.558 -0.5592 -1.4406 -0.5587
13254SOL    HW243294   3.736   4.191   7.496  1.2542 -0.0368 -0.2441
13255SOL     OW43295   6.824   8.974   9.909  0.1498 -0.6282  0.5353
13255SOL    HW143296   6.832   8.919   9.831 -0.6582  0.9885 -0.7402
13255SOL    HW243297   6.893   8.942   9.968 -0.1452 -2.8490 -0.2036
13256SOL     OW43298   2.236   8.978   6.214  0.2126 -0.5936  0.3209
13256SOL    HW143299   2.179   8.929   6.274 -1.2249  2.2836  1.4907
13256SOL    HW243300   2.178   9.003   6.141  0.4812  0.6589  0.5193
13257SOL     OW43301   0.876   0.868   5.043  0.6727 -0.5237 -0.3111
13257SOL    HW143302   0.963   0.864   5.082  0.3359 -0.8185  0.4510
13257SOL    HW243303   0.854   0.777   5.023  0.1044 -0.5892  0.5450
13258SOL     OW43304   9.925   5.694   4.233  0.1686  0.4346  0.4637
13258SOL    HW143305   9.883   5.617   4.195  0.8480 -0.9084  2.2746
13258SOL    HW243306  10.018   5.673   4.234  0.3310  1.1321  1.2612
13259SOL     OW43307   2.934   9.116   1.293  0.3921 -0.6547 -0.3205
13259SOL    HW143308   2.859   9.159   1.335  0.1925 -0.7029 -0.6217
13259SOL    HW243309   3.010   9.153   1.337  0.4459  2.5736 -2.7296
13260SOL     OW43310   1.947   3.184   0.376 -0.7443  0.3455 -0.3442
13260SOL    HW143311   1.985   3.222   0.298  0.0565 -1.0064 -0.6529
13260SOL    HW243312   1.873   3.132   0.344 -0.1754 -0.5308 -0.2810
13261SOL     OW43313  10.982   6.119   5.986 -0.1804 -0.1844 -0.1407
13261SOL    HW143314  11.030   6.084   5.911 -0.4514 -2.0350  0.4959
13261SOL    HW243315  11.050   6.157   6.042  0.0570  0.9029 -1.1224
13262SOL     OW43316   7.214  10.190   7.244  0.2563 -0.1027  0.0909
13262SOL    HW143317   7.245  10.100   7.254  2.7874  0.6051 -0.7744
13262SOL    HW243318   7.142  10.183   7.181  0.8402 -1.4615 -0.4646
13263SOL     OW43319   3.760   6.347   3.204  0.5101 -0.0219  0.5539
13263SOL    HW143320   3.664   6.351   3.202  0.4731 -0.1087  1.5625
13263SOL    HW243321   3.786   6.425   3.253  1.0661  0.9839 -1.2657
13264SOL     OW43322   8.981   7.465   4.950  0.6510  0.3509  0.0979
13264SOL    HW143323   9.026   7.387   4.917  0.5663 -0.4403  1.7693
13264SOL    HW243324   8.919   7.431   5.015 -3.0468  1.2825 -2.6286
13265SOL     OW43325   2.403   9.341   8.220  0.2796  0.1851  0.3666
13265SOL    HW143326   2.492   9.306   8.213  0.4856  0.9278 -1.1639
13265SOL    HW243327   2.413   9.435   8.204 -0.9731  0.0138 -1.8865
13266SOL     OW43328   0.027   1.666   9.343  0.5952  0.4078  0.0244
13266SOL    HW143329  -0.038   1.641   9.277  1.4758 -1.5752 -0.1734
13266SOL    HW243330   0.089   1.721   9.296  0.4186  0.2251 -0.4316
13267SOL     OW43331   0.274  10.867   4.334 -0.7205  0.1113 -0.2615
13267SOL    HW143332   0.248  10.789   4.285 -4.1510  0.0004  1.4248
13267SOL    HW243333   0.201  10.883   4.394  0.2809  4.0294  0.1970
13268SOL     OW43334   2.682  11.060   1.395  0.0694  0.8941  0.5351
13268SOL    HW143335   2.594  11.098   1.391  0.0976  0.8960 -0.0465
13268SOL    HW243336   2.676  10.994   1.465 -1.2826 -1.3517 -1.5335
13269SOL     OW43337   0.822  10.608   1.350 -0.3715 -0.3687 -0.1223
13269SOL    HW143338   0.808  10.699   1.373 -0.8319 -0.0582 -1.5314
13269SOL    HW243339   0.769  10.559   1.413  0.9654  0.2252  1.5298
13270SOL     OW43340   0.335  10.157   2.983 -0.5304 -0.2215  0.3034
13270SOL    HW143341   0.349  10.231   3.041 -0.3889 -0.2961  0.3657
13270SOL    HW243342   0.390  10.176   2.907  0.2581 -0.7205  0.7332
13271SOL     OW43343   6.969   4.899  10.664 -0.7152 -0.0434 -0.1672
13271SOL    HW143344   6.967   4.989  10.699  1.1120  1.1786 -2.8718
13271SOL    HW243345   7.055   4.866  10.689  0.4242  0.6706 -2.8031
13272SOL     OW43346   5.453   2.654   7.832  0.5324 -0.5085 -0.0228
13272SOL    HW143347   5.365   2.617   7.824 -1.0697  2.8736  0.4114
13272SOL    HW243348   5.475   2.681   7.742 -0.4919  1.7994  0.3409
13273SOL     OW43349   0.038   3.284   0.668  0.1906  0.1911 -0.9635
13273SOL    HW143350   0.124   3.319   0.692  0.6494 -1.7068  0.3555
13273SOL    HW243351  -0.011   3.361   0.638  0.8733  2.1527  2.4012
13274SOL     OW43352   2.380   2.149   8.314  0.1325 -0.1805 -0.7812
13274SOL    HW143353   2.398   2.151   8.220 -0.7656 -0.1935 -0.9644
13274SOL    HW243354   2.316   2.079   8.325 -0.9275  0.8048 -0.3914
13275SOL     OW43355   2.240   6.241   4.170  0.1770 -0.4311  0.2929
13275SOL    HW143356   2.246   6.336   4.163  0.2553 -0.4390  0.2530
13275SOL    HW243357   2.169   6.217   4.111  1.8338 -0.6514 -1.7496
13276SOL     OW43358   1.264  10.568   1.586 -0.2433 -0.1898 -0.3372
13276SOL    HW143359   1.316  10.645   1.564 -1.6007  0.5208 -1.1374
13276SOL    HW243360   1.263  10.516   1.505  0.9087 -1.2302  0.2789
13277SOL     OW43361   2.049   6.508  10.601 -0.2123 -0.0063  0.7055
13277SOL    HW143362   1.993   6.529  10.527  0.0551 -0.1562  0.4592
13277SOL    HW243363   2.083   6.593  10.630 -0.2993  0.0501  0.6416
13278SOL     OW43364   4.299   9.140   0.899 -0.1744 -0.0375 -0.3455
13278SOL    HW143365   4.294   9.235   0.911  2.6736  0.0165  1.4805
13278SOL    HW243366   4.378   9.115   0.947 -0.5647 -3.2861 -1.2104
13279SOL     OW43367   4.027   9.977   0.644  0.7046  0.3611 -0.1056
13279SOL    HW143368   3.981  10.049   0.687  0.8227  0.1439  0.4038
13279SOL    HW243369   3.958   9.914   0.623  0.4744  1.0261 -1.4100
13280SOL     OW43370   2.708   1.424   1.694 -0.1896 -0.0288 -0.5675
13280SOL    HW143371   2.629   1.471   1.668  0.1826  0.6848 -0.4381
13280SOL    HW243372   2.688   1.389   1.781 -0.2303  0.4676 -0.3772
13281SOL     OW43373   4.760   4.346   2.207 -0.1924 -0.0355  0.3082
13281SOL    HW143374   4.768   4.388   2.293 -0.0879  1.3733 -0.3483
13281SOL    HW243375   4.841   4.295   2.198 -0.4171 -0.5719  1.2245
13282SOL     OW43376   0.433   3.614   1.436 -0.0141  0.3743 -0.4974
13282SOL    HW143377   0.463   3.684   1.377 -0.7153 -1.1638 -2.8442
13282SOL    HW243378   0.344   3.595   1.406 -2.2088  2.2930  3.8416
13283SOL     OW43379   7.795   2.086   6.184  0.1784  0.0784 -0.5073
13283SOL    HW143380   7.807   2.072   6.278 -0.2855 -1.0389 -0.5977
13283SOL    HW243381   7.700   2.094   6.174  0.2972  1.6601 -0.7178
13284SOL     OW43382   3.772   0.405   2.145 -0.1479 -1.0622 -0.1060
13284SOL    HW143383   3.814   0.400   2.059 -2.2679  3.9474 -1.8671
13284SOL    HW243384   3.840   0.440   2.203  0.1589 -0.0804 -1.0135
13285SOL     OW43385   4.873   8.354   0.520 -0.0123 -0.0732 -0.0602
13285SOL    HW143386   4.843   8.289   0.456 -0.8369 -0.8668  1.0892
13285SOL    HW243387   4.956   8.387   0.484 -0.0950 -1.0054 -1.1689
13286SOL     OW43388   8.622   8.631   7.785 -0.3753  0.2819  0.0127
13286SOL    HW143389   8.699   8.665   7.831  0.8712 -1.1122 -0.9424
13286SOL    HW243390   8.548   8.658   7.839  1.0216 -2.0985  3.5040
13287SOL     OW43391   2.676   9.912   3.815 -0.0357  0.4438 -0.1904
13287SOL    HW143392   2.766   9.890   3.841 -0.3461  0.3151  0.8105
13287SOL    HW243393   2.684  10.000   3.776  0.3399  0.9919  1.0762
13288SOL     OW43394   9.943   7.525   6.630 -0.0151  0.1057  0.1296
13288SOL    HW143395   9.975   7.615   6.620  3.1168 -0.9560 -0.5070
13288SOL    HW243396   9.944   7.510   6.725 -2.5566  1.3081  0.4201
13289SOL     OW43397   9.511   7.543   2.156  0.0384 -0.1302  0.1303
13289SOL    HW143398   9.501   7.509   2.244  1.4664  2.6900  1.5097
13289SOL    HW243399   9.598   7.514   2.128  0.0199 -0.1276  0.0701
13290SOL     OW43400  10.395   2.138   7.376 -0.1206  0.2567  0.0628
13290SOL    HW143401  10.400   2.055   7.423 -1.1129 -0.1845 -0.5763
13290SOL    HW243402  10.382   2.113   7.284 -0.7875  1.0990 -0.0920
13291SOL     OW43403   8.945   7.056   2.924 -0.6695  0.3650 -0.3566
13291SOL    HW143404   9.033   7.084   2.899 -0.2484  0.0540  0.7150
13291SOL    HW243405   8.950   7.043   3.019 -1.5662 -0.7602 -0.4378
13292SOL     OW43406   9.605   9.586   2.417  0.0691 -0.3787  0.4807
13292SOL    HW143407   9.567   9.503   2.387  0.1647 -0.2673  0.0344
13292SOL    HW243408   9.657   9.616   2.342  0.3363 -0.1014  0.7757
13293SOL     OW43409   0.363   2.291   3.191 -0.1310 -0.0641  0.2558
13293SOL    HW143410   0.423   2.224   3.222 -1.1435 -1.5546 -0.8571
13293SOL    HW243411   0.415   2.342   3.128 -0.3715 -2.3284 -1.9211
13294SOL     OW43412   5.134   6.338   4.495  0.1867  0.8464  0.3690
13294SOL    HW143413   5.123   6.262   4.437  0.8110  1.6768 -0.8890
13294SOL    HW243414   5.228   6.355   4.494 -0.0290  2.1413 -0.0596
13295SOL     OW43415  10.458   1.680   9.273 -0.2295  0.5472  0.0376
13295SOL    HW143416  10.398   1.744   9.311 -0.9515 -1.2183  2.0667
13295SOL    HW243417  10.405   1.601   9.261  1.4174 -0.7972  1.0877
13296SOL     OW43418  10.123   6.581   4.593  0.0989  0.4317 -0.2949
13296SOL    HW143419  10.216   6.560   4.584 -0.2758 -1.4305 -0.0835
13296SOL    HW243420  10.079   6.525   4.530 -0.9272  1.1277 -0.2322
13297SOL     OW43421   5.038   0.283   5.333  0.1735 -0.0194  0.8122
13297SOL    HW143422   4.992   0.200   5.327 -0.7597  0.3581  2.2158
13297SOL    HW243423   5.128   0.263   5.310 -0.1438 -1.3177  0.6399
13298SOL     OW43424   4.652   8.575   8.499 -0.3807  0.2660  0.1836
13298SOL    HW143425   4.644   8.661   8.458  0.9104 -0.3938 -1.6057
13298SOL    HW243426   4.675   8.516   8.427  0.4782 -1.2628  1.6224
13299SOL     OW43427   1.985   5.864  10.869  0.4905  0.3123  0.2446
13299SOL    HW143428   2.005   5.858  10.962  1.4902  1.1044  0.0991
13299SOL    HW243429   1.946   5.950  10.858  1.7203  0.8141 -0.2906
13300SOL     OW43430   0.586   1.624   9.493 -0.0102 -0.0057 -0.3321
13300SOL    HW143431   0.633   1.634   9.576  0.3641 -0.3177 -0.5041
13300SOL    HW243432   0.494   1.640   9.516  0.0767 -0.1791  0.1634
13301SOL     OW43433  11.078   6.025   8.316 -0.5650  0.2977 -0.2930
13301SOL    HW143434  11.018   5.950   8.319 -1.6092  1.1031  2.8189
13301SOL    HW243435  11.107   6.036   8.407  0.5907  2.8592 -0.8845
13302SOL     OW43436  10.802   5.330  10.464 -0.1808  0.5739 -0.3506
13302SOL    HW143437  10.755   5.385  10.401 -0.1459 -0.3752 -1.2270
13302SOL    HW243438  10.846   5.264  10.410  1.3536  0.8261  0.5091
13303SOL     OW43439   8.760   9.784   3.855 -0.6652  0.0234  0.3490
13303SOL    HW143440   8.777   9.784   3.949 -2.3211 -0.6639  0.6837
13303SOL    HW243441   8.759   9.877   3.831  1.6768  0.1735  0.5796
13304SOL     OW43442   8.053  10.538   7.996 -0.1936  0.7151 -0.4782
13304SOL    HW143443   8.126  10.477   7.984 -0.5351 -0.2736  1.8901
13304SOL    HW243444   8.085  10.621   7.960  3.4003  1.1684  2.9840
13305SOL     OW43445   9.330   4.249   4.715 -0.3994 -0.0284 -0.1023
13305SOL    HW143446   9.406   4.223   4.662 -0.6186 -0.5093 -0.1871
13305SOL    HW243447   9.328   4.186   4.787 -0.4436  0.2728  0.1628
13306SOL     OW43448   9.337   5.342   9.206 -0.5362 -0.1777  0.0964
13306SOL    HW143449   9.381   5.258   9.192 -0.0815 -0.1750  1.3466
13306SOL    HW243450   9.248   5.329   9.174 -0.7344 -1.4425  1.0852
13307SOL     OW43451  10.402   6.011   7.796 -1.0975 -0.1989  0.1669
13307SOL    HW143452  10.308   5.995   7.800 -1.0109 -1.2129 -1.0977
13307SOL    HW243453  10.427   5.981   7.708  0.7172 -1.7614  1.1404
13308SOL     OW43454   7.145   2.250   0.787  0.2328  0.2061 -0.1621
13308SOL    HW143455   7.214   2.307   0.751 -0.1307  1.3053  0.8396
13308SOL    HW243456   7.186   2.163   0.791  2.1082  1.0864  1.7860
13309SOL     OW43457  10.054   8.979   0.402 -0.0090 -0.1639 -0.3598
13309SOL    HW143458  10.018   8.991   0.490 -1.1860 -1.9196 -0.5440
13309SOL    HW243459  10.004   8.906   0.366  0.6363  0.3401 -2.4027
13310SOL     OW43460   0.031  10.995   3.108  0.3381 -0.1582  0.1863
13310SOL    HW143461   0.015  11.088   3.096  0.5179 -0.3603 -1.9791
13310SOL    HW243462   0.014  10.979   3.201  0.8526  2.1227  0.7258
13311SOL     OW43463   4.795   6.102   5.992 -0.1789 -0.1574 -0.0157
13311SOL    HW143464   4.870   6.080   5.935 -0.1149 -0.8424  0.3228
13311SOL    HW243465   4.748   6.020   6.002 -0.0490 -0.1028  1.1303
13312SOL     OW43466  10.242   4.552   7.228  0.6746 -0.3671 -0.6238
13312SOL    HW143467  10.297   4.503   7.167 -2.0361 -0.1395 -3.5205
13312SOL    HW243468  10.270   4.643   7.218  1.2037 -0.5049 -0.4147
13313SOL     OW43469   9.103   8.139   0.557 -0.1022 -0.3367 -0.2179
13313SOL    HW143470   9.025   8.087   0.578  0.9082 -0.8578  2.7213
13313SOL    HW243471   9.108   8.138   0.461 -3.9774  0.2061 -0.5771
13314SOL     OW43472   2.059   3.629   7.611  0.1896  0.1814  0.0309
13314SOL    HW143473   2.136   3.681   7.635  0.4502 -0.8046  1.4707
13314SOL    HW243474   2.062   3.554   7.670 -1.1679 -0.5477 -0.7812
13315SOL     OW43475   2.741   9.153   1.871 -0.0907  0.4016  0.7325
13315SOL    HW143476   2.768   9.244   1.882 -3.1102  1.4578  0.3287
13315SOL    HW243477   2.665   9.157   1.813 -2.4427 -1.9802  3.3517
13316SOL     OW43478   2.304   1.644   5.343 -0.6195  0.5278 -0.0284
13316SOL    HW143479   2.256   1.664   5.263 -1.7971 -0.5970  0.3701
13316SOL    HW243480   2.289   1.720   5.400 -0.5429  0.9126 -0.5144
13317SOL     OW43481   8.174  10.021   6.123 -0.1829  0.3243  0.4159
13317SOL    HW143482   8.217  10.092   6.076  2.5741 -0.3961  1.6343
13317SOL    HW243483   8.172  10.051   6.214  0.1466 -0.7293  0.7908
13318SOL     OW43484   9.304  10.264   9.492 -0.1398 -0.0524 -0.1774
13318SOL    HW143485   9.231  10.298   9.441 -1.7450 -0.8800  1.4406
13318SOL    HW243486   9.347  10.341   9.528  0.0061  0.4581 -1.3998
13319SOL     OW43487  10.613   3.016   7.405 -1.1216 -0.1656 -0.1538
13319SOL    HW143488  10.679   3.044   7.342 -0.6583  0.0539  0.4126
13319SOL    HW243489  10.535   2.998   7.353 -1.1592  1.2941 -0.6507
13320SOL     OW43490   8.133  10.509  10.433 -0.7461 -0.0942 -0.3510
13320SOL    HW143491   8.102  10.422  10.408 -0.2999 -0.4679  0.3544
13320SOL    HW243492   8.082  10.569  10.379 -0.5387 -0.8187 -1.3948
13321SOL     OW43493   1.149   7.768   7.883 -0.6666 -0.2346 -0.3287
13321SOL    HW143494   1.118   7.775   7.792  0.5156  1.5147 -0.6614
13321SOL    HW243495   1.192   7.852   7.899  0.7659 -1.2050  1.2468
13322SOL     OW43496  10.455   3.554   2.264  0.0914 -0.3731 -0.2932
13322SOL    HW143497  10.380   3.510   2.222  0.7919  0.4194 -2.5065
13322SOL    HW243498  10.529   3.495   2.248  0.4789  0.2233 -0.7572
13323SOL     OW43499   4.932   4.679   2.500  0.1502  0.1884 -0.1575
13323SOL    HW143500   4.911   4.724   2.418  0.4707  0.7956  0.0856
13323SOL    HW243501   4.878   4.600   2.499 -2.0092  1.5832  0.3441
13324SOL     OW43502  10.400  11.103   7.319 -0.1702 -0.2268 -0.3504
13324SOL    HW143503  10.410  11.050   7.240  0.1353  0.6430 -0.9162
13324SOL    HW243504  10.333  11.058   7.370 -0.9642 -0.3782 -1.4811
13325SOL     OW43505   3.555   0.286   2.303  0.5813 -0.3615  0.2271
13325SOL    HW143506   3.474   0.327   2.274  0.8321  0.2081  0.3318
13325SOL    HW243507   3.623   0.322   2.246  0.5675 -1.9645 -0.8708
13326SOL     OW43508   3.710  10.259   4.475  0.2985 -0.1973 -0.2740
13326SOL    HW143509   3.667  10.345   4.479  0.1130 -0.3494  2.1012
13326SOL    HW243510   3.763  10.263   4.396  0.9835  2.4550  0.2289
13327SOL     OW43511   7.678   4.543   6.460  0.2605 -0.5854  2.0509
13327SOL    HW143512   7.594   4.515   6.497 -0.8734 -1.5027 -0.9429
13327SOL    HW243513   7.682   4.637   6.479 -2.5976 -0.0062  0.4594
13328SOL     OW43514   6.073   0.013   3.712 -0.2257 -0.1203  0.4151
13328SOL    HW143515   6.043   0.073   3.643  0.2413 -1.5390 -1.0713
13328SOL    HW243516   6.043   0.054   3.793  0.3378  2.2784 -0.5015
13329SOL     OW43517   9.640   3.996   6.807 -0.1214 -0.1431 -0.5726
13329SOL    HW143518   9.710   4.057   6.829 -0.0342  0.6047 -2.7509
13329SOL    HW243519   9.561   4.036   6.845  0.2152  0.3607 -0.3945
13330SOL     OW43520   6.769   8.189   8.989  0.3114 -0.0833 -0.2832
13330SOL    HW143521   6.834   8.120   9.000  0.2461  0.0059  0.7825
13330SOL    HW243522   6.709   8.156   8.922  0.8576 -0.6148 -0.5150
13331SOL     OW43523   1.237  11.103   4.569  0.9346  0.2123 -0.3252
13331SOL    HW143524   1.166  11.044   4.593 -0.8173  2.4171  0.3520
13331SOL    HW243525   1.236  11.105   4.473  0.3111 -0.0879 -0.3297
13332SOL     OW43526   2.414   9.575   8.615 -0.0860 -0.6642 -0.4586
13332SOL    HW143527   2.459   9.490   8.619  0.6400 -0.2478  1.0101
13332SOL    HW243528   2.388   9.592   8.705  0.0728  0.8209 -0.6672
13333SOL     OW43529   4.053   6.240   5.089  0.4838  0.4723  0.3552
13333SOL    HW143530   4.085   6.217   5.002  1.7662 -0.4690  1.0466
13333SOL    HW243531   4.064   6.335   5.095  0.9194  0.4653 -0.2962
13334SOL     OW43532  10.411   2.087   9.289  0.5070  0.7329 -0.3779
13334SOL    HW143533  10.339   2.141   9.320 -0.3405 -0.0305 -0.9591
13334SOL    HW243534  10.448   2.136   9.216 -0.9199  0.1012 -1.5791
13335SOL     OW43535   2.549   2.924  10.248  0.8533 -0.0399  0.3038
13335SOL    HW143536   2.497   2.907  10.170  1.0766  0.8169 -0.0400
13335SOL    HW243537   2.506   2.873  10.317 -0.6673  0.9119  0.1043
13336SOL     OW43538  10.715   0.092   1.286  0.1082 -0.9489 -0.3122
13336SOL    HW143539  10.776   0.122   1.354 -1.5410  0.3320  0.6758
13336SOL    HW243540  10.718  -0.004   1.292 -0.4224 -0.8845  2.0180
13337SOL     OW43541   1.676   9.365   7.729  0.3139  0.3017  0.0861
13337SOL    HW143542   1.614   9.366   7.802  1.2387  0.0169  0.8865
13337SOL    HW243543   1.620   9.371   7.651 -0.6093  2.1089  0.8395
13338SOL     OW43544   5.427   0.306   4.651 -0.3254 -0.2710 -0.1464
13338SOL    HW143545   5.339   0.269   4.645 -0.4481 -0.3692  1.6180
13338SOL    HW243546   5.427   0.354   4.734  1.3302 -0.4099 -0.0342
13339SOL     OW43547   7.361   1.369   3.070 -0.4765 -0.4118  0.5276
13339SOL    HW143548   7.336   1.421   3.147 -3.1371 -0.4933 -0.1854
13339SOL    HW243549   7.430   1.311   3.101  0.7845  1.7202  2.0091
13340SOL     OW43550   4.495   0.797   8.125  0.2051  0.2671 -0.1216
13340SOL    HW143551   4.514   0.769   8.215  0.2812 -1.2019 -0.5728
13340SOL    HW243552   4.530   0.886   8.121 -0.3406  0.5986  1.4742
13341SOL     OW43553   1.700   7.120   4.914 -0.1579 -0.6680  0.3418
13341SOL    HW143554   1.638   7.169   4.968  0.6610  0.7499  0.0256
13341SOL    HW243555   1.647   7.086   4.841 -0.8392 -0.7432  0.8647
13342SOL     OW43556   0.182   3.013   9.324 -0.3820 -0.0542 -0.2856
13342SOL    HW143557   0.182   3.096   9.373  2.7360 -0.6596  0.9928
13342SOL    HW243558   0.158   2.947   9.389  2.9820 -0.7609  0.4272
13343SOL     OW43559   3.958   9.165   9.270  0.3785 -0.2369  0.0802
13343SOL    HW143560   4.022   9.227   9.236  0.1914 -0.5326 -0.8339
13343SOL    HW243561   4.002   9.080   9.268  0.2666 -0.3022  0.3046
13344SOL     OW43562   5.329   4.166  11.099 -0.4174 -0.5919  0.4141
13344SOL    HW143563   5.340   4.261  11.101  0.6012 -0.7113  1.4734
13344SOL    HW243564   5.235   4.153  11.107 -0.7124  0.3424 -1.1482
13345SOL     OW43565   4.849   8.992   8.557 -0.2260 -0.0971  0.2948
13345SOL    HW143566   4.899   9.055   8.610 -0.2882 -1.1006  1.6010
13345SOL    HW243567   4.916   8.949   8.503 -0.0440  0.3257  0.1708
13346SOL     OW43568  10.590   6.274   4.956  0.2177 -0.3580 -0.1721
13346SOL    HW143569  10.521   6.244   5.015  0.7830  1.3783  1.5140
13346SOL    HW243570  10.603   6.202   4.895 -2.0883 -1.2931  0.3244
13347SOL     OW43571  10.166   1.978   0.822 -0.1645  0.6617  0.2624
13347SOL    HW143572  10.144   2.048   0.760  0.4373  0.0355 -0.6824
13347SOL    HW243573  10.185   2.023   0.904  0.7813  1.6535 -0.4798
13348SOL     OW43574   3.738   4.467   7.071  0.4227 -0.4808  0.4505
13348SOL    HW143575   3.645   4.445   7.068  0.2667 -0.0826  1.8723
13348SOL    HW243576   3.782   4.382   7.081  0.0343 -0.4895  2.3882
13349SOL     OW43577   3.116   3.761   9.292 -0.1593 -0.1739 -0.3463
13349SOL    HW143578   3.147   3.730   9.207 -1.1115 -2.4875  0.0719
13349SOL    HW243579   3.029   3.797   9.275  0.0142  0.1707 -0.4935
13350SOL     OW43580   3.385   9.305   4.208 -0.6541  0.6797  0.2677
13350SOL    HW143581   3.441   9.237   4.245 -0.9731 -1.3176 -2.5440
13350SOL    HW243582   3.445   9.375   4.183 -0.0269  0.5007  1.2274
13351SOL     OW43583   8.887   4.892   2.120 -0.1380 -0.4544 -0.0112
13351SOL    HW143584   8.963   4.932   2.078 -0.2496 -2.2436 -2.1150
13351SOL    HW243585   8.924   4.821   2.173 -0.1348  0.8289  1.8097
13352SOL     OW43586   5.884   8.767   9.402  0.1446  0.6824  0.5602
13352SOL    HW143587   5.788   8.760   9.403  0.1084  1.0987  0.3081
13352SOL    HW243588   5.902   8.850   9.446  0.3701  0.7644  0.3156
13353SOL     OW43589   6.484   7.048  10.052 -0.1204  0.6380 -0.1782
13353SOL    HW143590   6.560   6.989  10.055 -0.4449  0.2097 -0.2692
13353SOL    HW243591   6.486   7.083   9.963  0.5264  1.3791  0.1136
13354SOL     OW43592   6.086   9.198   8.278 -0.1608 -0.0465 -0.1211
13354SOL    HW143593   6.154   9.179   8.214 -1.1220 -0.6360 -1.0037
13354SOL    HW243594   6.075   9.115   8.325 -0.9824 -0.2750 -0.6950
13355SOL     OW43595   9.037   4.915   9.035  0.5135  0.7853 -0.3047
13355SOL    HW143596   9.128   4.943   9.033  1.4204 -1.6611  1.3153
13355SOL    HW243597   8.995   4.972   9.099  1.0842  1.4710 -0.5360
13356SOL     OW43598  10.514   6.052   4.322  0.0178  0.2501  0.1645
13356SOL    HW143599  10.460   5.992   4.271 -1.1251 -0.3368  1.9644
13356SOL    HW243600  10.600   6.011   4.325 -0.0789 -0.0289 -0.6988
13357SOL     OW43601   2.955   0.882   4.908  0.2740  0.3171  0.1497
13357SOL    HW143602   2.881   0.864   4.967 -0.1968  1.7236  0.0082
13357SOL    HW243603   3.025   0.912   4.966  0.2828  0.3076  0.1438
13358SOL     OW43604   5.819   7.998   3.235 -0.3313  0.1645  0.5523
13358SOL    HW143605   5.763   8.072   3.259  0.8766  1.5843 -0.8092
13358SOL    HW243606   5.763   7.943   3.180 -0.7356  0.9728  0.1336
13359SOL     OW43607  10.302   5.494   9.014 -0.0266  0.3735 -0.1777
13359SOL    HW143608  10.344   5.475   9.097 -0.4749  0.4774  0.0744
13359SOL    HW243609  10.374   5.502   8.952  0.2691 -0.5310  0.0311
13360SOL     OW43610   8.242   8.142   9.529  0.2116  0.5529  0.4712
13360SOL    HW143611   8.281   8.210   9.582 -1.6916  0.5813  1.9223
13360SOL    HW243612   8.307   8.124   9.461  1.7354  2.1205  1.4525
13361SOL     OW43613   9.706   3.778   7.513 -0.2294  0.3169  0.4855
13361SOL    HW143614   9.616   3.792   7.543 -0.5967  0.3653 -0.5899
13361SOL    HW243615   9.728   3.859   7.466  0.0632 -0.0354  0.0094
13362SOL     OW43616  10.241  10.601   7.812 -0.1335 -0.5754  0.3223
13362SOL    HW143617  10.301  10.670   7.783 -0.1528 -0.8489 -0.3892
13362SOL    HW243618  10.250  10.600   7.908  1.6877 -1.2221  0.1970
13363SOL     OW43619   8.601   1.270   0.877  0.1925  0.2007 -0.4906
13363SOL    HW143620   8.648   1.353   0.880 -1.7719  1.3530  1.6107
13363SOL    HW243621   8.668   1.205   0.854  1.8711  2.2529 -1.7552
13364SOL     OW43622   4.232  10.584   8.339  0.2469 -0.2713  0.4535
13364SOL    HW143623   4.220  10.660   8.283 -3.2579 -0.4808  0.7099
13364SOL    HW243624   4.221  10.509   8.280  0.1881 -0.5431  0.8070
13365SOL     OW43625   0.820   8.253   1.951  0.2141 -0.0795  0.2698
13365SOL    HW143626   0.749   8.197   1.979 -1.1130  2.1865  1.7928
13365SOL    HW243627   0.879   8.257   2.026  1.3612 -0.9437 -0.5373
13366SOL     OW43628  11.076   6.543   3.975 -0.5115 -0.2154 -0.0535
13366SOL    HW143629  11.046   6.610   3.915 -1.2324  0.0159  0.5551
13366SOL    HW243630  11.148   6.500   3.929  0.6631  1.6309 -0.0520
13367SOL     OW43631   6.561   2.588   1.989  0.5209  0.1217  0.4519
13367SOL    HW143632   6.565   2.496   1.962  2.3198  0.0964  0.6775
13367SOL    HW243633   6.576   2.637   1.908 -1.6763  0.3049  0.0914
13368SOL     OW43634  10.686   5.084   6.065  0.3311 -0.0207  0.1624
13368SOL    HW143635  10.594   5.109   6.076  0.4456  2.1534 -2.6455
13368SOL    HW243636  10.726   5.106   6.149 -1.1268  2.2669  0.3562
13369SOL     OW43637   8.286   8.802   1.392 -0.0235 -0.7317 -0.5031
13369SOL    HW143638   8.326   8.868   1.335 -0.2027  0.0229  0.2128
13369SOL    HW243639   8.359   8.747   1.421  0.3202 -0.0940 -0.1428
13370SOL     OW43640   4.909   9.964   1.427  0.3610  0.0282 -0.0146
13370SOL    HW143641   4.819   9.938   1.408  1.2294 -1.3605 -2.7343
13370SOL    HW243642   4.902  10.056   1.453 -1.9614 -0.4923  1.4480
13371SOL     OW43643   3.568   7.806   9.067 -0.5011 -0.2229 -0.4448
13371SOL    HW143644   3.512   7.806   8.990 -0.7500 -0.5683 -0.2656
13371SOL    HW243645   3.508   7.806   9.141 -0.2635 -0.0940 -0.2483
13372SOL     OW43646   0.877   6.713   7.818  0.2159  0.0921 -0.0767
13372SOL    HW143647   0.944   6.647   7.797 -0.6237 -1.2117  1.0988
13372SOL    HW243648   0.812   6.704   7.748  0.4524  0.1851 -0.3102
13373SOL     OW43649   8.973  10.256  10.874  0.0043 -0.2794 -0.0332
13373SOL    HW143650   9.013  10.338  10.904  0.3221 -0.6600  0.5983
13373SOL    HW243651   8.895  10.284  10.827  0.8194  0.4540 -0.9880
13374SOL     OW43652  11.126   9.266   1.265 -0.4387 -0.0492  0.2535
13374SOL    HW143653  11.034   9.286   1.278 -0.1370  0.2979  2.0719
13374SOL    HW243654  11.173   9.321   1.328  0.9614 -0.6983 -0.1679
13375SOL     OW43655   1.888   4.991   6.951 -0.6079 -0.4989  0.9106
13375SOL    HW143656   1.843   4.950   7.025 -1.1310 -0.4393  0.6297
13375SOL    HW243657   1.818   5.028   6.898 -0.2987 -1.2933 -0.0776
13376SOL     OW43658   2.397   5.096   5.416  0.2837 -0.4121 -0.3346
13376SOL    HW143659   2.469   5.153   5.391  0.5170  0.2547  1.7472
13376SOL    HW243660   2.438   5.012   5.436  0.4502 -0.1186  0.5629
13377SOL     OW43661   8.522   9.841   6.390  0.0373  0.0439 -0.3257
13377SOL    HW143662   8.525   9.910   6.324 -1.2449  0.5854  0.1591
13377SOL    HW243663   8.435   9.803   6.381 -0.9541  1.4395  2.3175
13378SOL     OW43664   6.252   9.403   1.855 -0.3723  0.2070 -0.1030
13378SOL    HW143665   6.313   9.440   1.919 -1.2030  0.2791  0.6639
13378SOL    HW243666   6.279   9.441   1.771  0.4950  0.4044  0.2491
13379SOL     OW43667   4.066   7.677   4.463 -0.1175 -0.5465  0.0425
13379SOL    HW143668   4.027   7.728   4.392 -0.5673 -0.4006  0.3925
13379SOL    HW243669   4.023   7.708   4.542 -1.4085 -2.4096  0.1466
13380SOL     OW43670   5.381   4.670  10.123 -0.1792 -0.5756  0.1007
13380SOL    HW143671   5.351   4.599  10.179  1.4833 -0.6919  0.9222
13380SOL    HW243672   5.427   4.626  10.051  0.5507 -0.3729  0.4273
13381SOL     OW43673   8.886   9.579   9.476 -0.2033  0.2241  0.2431
13381SOL    HW143674   8.823   9.537   9.417 -1.0894  0.8510  0.7154
13381SOL    HW243675   8.914   9.657   9.429  0.7943 -0.4230 -0.2722
13382SOL     OW43676   7.701   9.029   1.894 -0.1372 -0.1724  0.5480
13382SOL    HW143677   7.738   9.080   1.822  0.2396 -0.0502  0.8260
13382SOL    HW243678   7.617   8.998   1.860 -0.4913  0.8523  0.4607
13383SOL     OW43679   4.047   8.196   3.690  0.4647  0.3228 -0.0921
13383SOL    HW143680   4.127   8.200   3.741  1.0955  0.6678 -1.0752
13383SOL    HW243681   3.979   8.171   3.753  1.0430  1.5668  1.0856
13384SOL     OW43682   0.177  10.550   6.110  0.3380  0.3918  0.5912
13384SOL    HW143683   0.246  10.485   6.125  0.1646  0.4835  1.9654
13384SOL    HW243684   0.127  10.515   6.036 -0.2423 -1.4984  1.7947
13385SOL     OW43685   4.458   2.227  10.516  0.3774  0.3898 -0.1755
13385SOL    HW143686   4.535   2.262  10.559 -0.0554  0.8127  0.2615
13385SOL    HW243687   4.411   2.179  10.584  0.9792 -1.0951 -0.7701
13386SOL     OW43688   1.723   5.090   2.407  0.0722  0.0725 -0.1605
13386SOL    HW143689   1.717   5.027   2.335  0.5109 -1.2806  0.9299
13386SOL    HW243690   1.708   5.038   2.486  1.2844  1.1753  0.8493
13387SOL     OW43691   3.251   7.072   8.059 -0.2716 -0.6848 -1.0113
13387SOL    HW143692   3.272   7.056   8.151 -1.9922  1.2852 -0.2015
13387SOL    HW243693   3.336   7.089   8.017  0.3604  0.5119  0.6803
13388SOL     OW43694   1.177   5.459   6.574  0.6830 -0.4170 -0.1533
13388SOL    HW143695   1.182   5.537   6.518  0.0118 -0.4836 -0.3111
13388SOL    HW243696   1.192   5.386   6.514  0.6373 -0.4495 -0.1245
13389SOL     OW43697   9.962  10.460  10.134 -0.4277 -0.3017  0.1240
13389SOL    HW143698  10.038  10.506  10.169 -0.5803 -0.7065  1.0101
13389SOL    HW243699   9.888  10.491  10.186 -0.9154  0.2359 -0.8568
13390SOL     OW43700   8.929   5.090   0.924  0.2149  0.0465 -0.2868
13390SOL    HW143701   8.936   5.121   1.014  1.2283 -1.2915  0.1250
13390SOL    HW243702   8.840   5.054   0.917  0.0433  0.3965  0.0988
13391SOL     OW43703   4.222   4.269   3.649  0.0420 -0.8552  0.2082
13391SOL    HW143704   4.145   4.256   3.594  0.3364 -0.9540 -0.1907
13391SOL    HW243705   4.189   4.270   3.738 -0.5100 -0.2324  0.0077
13392SOL     OW43706  10.762   2.456   9.121 -0.0938  0.3556 -0.1349
13392SOL    HW143707  10.777   2.464   9.215  1.1223 -0.2133 -0.2681
13392SOL    HW243708  10.714   2.373   9.112 -1.9053  1.3326  0.1343
13393SOL     OW43709   3.552   4.922   3.909  0.2111 -0.0273  0.4221
13393SOL    HW143710   3.546   4.975   3.988 -3.7285 -1.6693  1.5013
13393SOL    HW243711   3.602   4.845   3.936  0.0958  0.0660  0.9206
13394SOL     OW43712   4.501   0.159   3.639  0.1100  0.1857 -0.0359
13394SOL    HW143713   4.528   0.237   3.591 -0.9713  0.0904 -0.8267
13394SOL    HW243714   4.409   0.147   3.617  0.1318 -1.0583  0.4324
13395SOL     OW43715   6.874   0.217   2.136 -0.4178  0.1769 -0.3261
13395SOL    HW143716   6.849   0.257   2.219  1.5101 -1.0033  0.8778
13395SOL    HW243717   6.839   0.128   2.140  1.0674 -0.4183 -0.0287
13396SOL     OW43718   5.051   3.007   8.026 -0.1922  0.7683  0.3525
13396SOL    HW143719   5.136   3.014   7.983 -0.1101 -2.5209 -0.2682
13396SOL    HW243720   5.054   2.923   8.071 -3.4054  0.0810 -0.4646
13397SOL     OW43721   3.125   1.445   7.071  0.1406 -0.3579  0.1900
13397SOL    HW143722   3.212   1.457   7.035  0.8732  2.9261  2.6649
13397SOL    HW243723   3.073   1.517   7.035 -1.2627 -1.5273 -0.2509
13398SOL     OW43724   7.293   2.250   0.138 -0.2959  0.8279 -0.1349
13398SOL    HW143725   7.231   2.187   0.172 -2.3434  1.1114 -2.9423
13398SOL    HW243726   7.296   2.232   0.044  1.9472  2.5114 -0.4735
13399SOL     OW43727  10.425   6.354   2.102  0.0531  0.2953 -0.1196
13399SOL    HW143728  10.407   6.264   2.132  1.9854  0.1609  0.7299
13399SOL    HW243729  10.451   6.401   2.181 -2.0628  1.9741 -0.3386
13400SOL     OW43730   9.907  10.586   3.114 -0.0449  0.3986  0.2625
13400SOL    HW143731   9.928  10.669   3.072  0.7620 -0.4044 -0.9998
13400SOL    HW243732   9.932  10.597   3.206 -1.8982  2.2218  0.6067
13401SOL     OW43733   4.694   3.308   2.117 -0.5189  0.3004  0.4644
13401SOL    HW143734   4.641   3.312   2.038  0.9008  1.3457 -0.4719
13401SOL    HW243735   4.724   3.397   2.131  0.6536 -0.1777  1.1816
13402SOL     OW43736   0.511   3.656   6.977 -0.2653  0.1911  0.5674
13402SOL    HW143737   0.452   3.671   6.903  0.3429 -1.7615 -0.3799
13402SOL    HW243738   0.598   3.673   6.940  0.2636 -3.0234  0.0546
13403SOL     OW43739   3.484  11.124   0.806  0.2552 -0.1853  0.2835
13403SOL    HW143740   3.474  11.138   0.712 -2.5277 -0.0122  0.5196
13403SOL    HW243741   3.398  11.147   0.843  1.0112 -1.0414  2.7653
13404SOL     OW43742   7.337   4.813   4.821  0.0157  0.4209 -0.4488
13404SOL    HW143743   7.312   4.902   4.845 -2.2229 -0.1724 -0.3763
13404SOL    HW243744   7.430   4.819   4.799 -0.0789  2.7546 -0.4133
13405SOL     OW43745   9.128   5.107   3.574 -0.1329 -0.2430  0.2733
13405SOL    HW143746   9.075   5.036   3.610  0.5985 -1.4002 -0.8520
13405SOL    HW243747   9.213   5.066   3.555  0.2050  0.8542 -0.6914
13406SOL     OW43748   6.470   4.269  10.738 -0.2793 -0.2596  0.0069
13406SOL    HW143749   6.377   4.272  10.714 -0.1680  1.5025 -0.3201
13406SOL    HW243750   6.481   4.340  10.801  1.4842  1.8126 -2.4565
13407SOL     OW43751   4.026   9.843   6.116 -0.2490 -0.1779 -0.0562
13407SOL    HW143752   3.974   9.916   6.081 -1.2779 -0.5504  0.6469
13407SOL    HW243753   4.098   9.886   6.162 -0.7212  0.4047  0.1633
13408SOL     OW43754  10.341   0.652   0.066  0.4004 -0.3946  0.1445
13408SOL    HW143755  10.247   0.672   0.059  0.0417 -1.0184  2.4255
13408SOL    HW243756  10.349   0.564   0.029  0.2427 -0.0228 -0.7932
13409SOL     OW43757  10.155   6.161   3.535  0.3149  0.0936 -0.0728
13409SOL    HW143758  10.093   6.186   3.603 -0.0351 -1.0682  0.0538
13409SOL    HW243759  10.236   6.205   3.559  0.1195 -0.0885  0.9498
13410SOL     OW43760   2.327   4.501   5.538 -0.1089 -0.5180  0.1536
13410SOL    HW143761   2.376   4.426   5.505 -0.3890  0.5842 -3.0717
13410SOL    HW243762   2.371   4.523   5.620  1.1266 -3.0471  0.2713
13411SOL     OW43763   0.270   2.642   8.034 -0.1219  0.1192 -0.5499
13411SOL    HW143764   0.362   2.656   8.011  0.5048 -1.1900  0.9442
13411SOL    HW243765   0.272   2.626   8.129 -1.4475 -3.1640 -0.9476
13412SOL     OW43766  10.416   2.080   0.347  0.1379 -0.2598 -0.0019
13412SOL    HW143767  10.381   2.168   0.331  0.1056 -0.4675 -1.1945
13412SOL    HW243768  10.486   2.092   0.410 -0.8553  0.4165  1.0047
13413SOL     OW43769   4.543   3.481   0.654 -0.0841  0.0286  0.3860
13413SOL    HW143770   4.601   3.411   0.625  1.1198  0.0854  2.5140
13413SOL    HW243771   4.576   3.559   0.608  0.8610 -0.1476  0.7424
13414SOL     OW43772   6.144   0.189   3.058  0.2581  0.0974 -0.7256
13414SOL    HW143773   6.149   0.156   2.968  3.0865 -0.6360 -0.3942
13414SOL    HW243774   6.129   0.111   3.111  2.0129 -0.0061 -0.3327
13415SOL     OW43775   0.012   2.117   4.453  0.5076 -0.0574  0.0341
13415SOL    HW143776   0.065   2.043   4.424  1.1933 -0.5379  2.2801
13415SOL    HW243777  -0.071   2.078   4.479  0.6597  0.0199  0.6619
13416SOL     OW43778   0.261   9.917  10.632  0.0365  0.0250 -0.0782
13416SOL    HW143779   0.241   9.855  10.562  0.5561  0.4274 -0.6021
13416SOL    HW243780   0.180   9.924  10.683  0.0212 -1.1789  0.0760
13417SOL     OW43781   4.029   4.562   5.102  0.0142 -0.5925 -0.0082
13417SOL    HW143782   4.087   4.619   5.153 -0.8745  0.9424 -0.6168
13417SOL    HW243783   4.068   4.562   5.014 -0.7118  0.2131 -0.3468
13418SOL     OW43784   6.571   0.769   8.542 -0.0906 -0.1342  0.4701
13418SOL    HW143785   6.528   0.684   8.539  1.4218 -0.9255  0.1152
13418SOL    HW243786   6.662   0.749   8.565  0.5499  1.2843 -0.6517
13419SOL     OW43787   9.259   4.276   7.553 -0.5321 -0.2365 -0.8177
13419SOL    HW143788   9.233   4.251   7.464  0.0510  1.5929 -1.5495
13419SOL    HW243789   9.182   4.321   7.588 -0.0558  0.9683 -1.2407
13420SOL     OW43790   6.497  11.053   4.578  0.4652  0.0004 -0.8066
13420SOL    HW143791   6.493  11.140   4.618  2.0988  0.7967 -2.2537
13420SOL    HW243792   6.443  11.060   4.500 -0.2627 -0.6488 -0.3853
13421SOL     OW43793   6.262   5.983   3.807  0.6553  0.2962 -0.7176
13421SOL    HW143794   6.354   5.957   3.807  0.3959 -0.6925  0.0268
13421SOL    HW243795   6.216   5.908   3.768  0.2043  0.9501 -1.4584
13422SOL     OW43796   0.615   5.072   6.097 -0.4158  0.0868 -0.4497
13422SOL    HW143797   0.703   5.054   6.065 -0.6402 -0.3213 -0.8513
13422SOL    HW243798   0.591   4.994   6.147 -0.0515  0.7377  0.7674
13423SOL     OW43799   6.517   7.890   6.868 -0.0738  0.5663 -0.3070
13423SOL    HW143800   6.545   7.981   6.852 -0.0065  0.5103 -0.5068
13423SOL    HW243801   6.444   7.898   6.929  0.9516  0.6659  0.9381
13424SOL     OW43802   8.585   9.530   0.898 -1.0678  0.1920 -0.1644
13424SOL    HW143803   8.516   9.555   0.836  0.8955  1.1396 -2.0810
13424SOL    HW243804   8.607   9.440   0.874 -1.2426  0.0814  0.0851
13425SOL     OW43805   6.968   9.805   4.187 -0.3667 -1.1231  0.2779
13425SOL    HW143806   6.931   9.735   4.241  1.9802 -1.4321  1.6233
13425SOL    HW243807   7.062   9.787   4.185 -0.0392  0.4672 -1.6620
13426SOL     OW43808   0.115   7.609   2.859 -0.0117  0.0208 -0.0678
13426SOL    HW143809   0.097   7.530   2.807  0.2821  0.2931 -0.5916
13426SOL    HW243810   0.201   7.592   2.898  0.4945  0.4712 -0.9533
13427SOL     OW43811   9.221   7.176  10.361  0.0119  0.0899 -0.1059
13427SOL    HW143812   9.223   7.270  10.345 -0.7688  0.0617 -0.4179
13427SOL    HW243813   9.308   7.145  10.336  0.3133  0.7418  0.1154
13428SOL     OW43814   5.251   6.776   2.456 -0.1214  0.2003 -0.2902
13428SOL    HW143815   5.309   6.751   2.527 -0.6609 -3.2793 -0.8724
13428SOL    HW243816   5.165   6.741   2.481 -0.5481 -0.2250 -2.1525
13429SOL     OW43817  10.672   0.172   7.637  0.2296  0.1698  0.0905
13429SOL    HW143818  10.624   0.225   7.573 -0.7783  0.8739  1.3861
13429SOL    HW243819  10.693   0.233   7.708 -0.7024 -1.0830  1.4970
13430SOL     OW43820   2.386   6.501   8.657  0.6989 -0.1774  0.4111
13430SOL    HW143821   2.300   6.501   8.698  0.9066 -1.0588  0.8931
13430SOL    HW243822   2.370   6.473   8.567  0.3346  0.9626  0.1093
13431SOL     OW43823  10.299   1.353   6.236 -0.1991 -0.7607  0.4662
13431SOL    HW143824  10.260   1.378   6.320  0.4268 -0.2023  0.6015
13431SOL    HW243825  10.253   1.273   6.211 -1.4666 -0.0825  0.5740
13432SOL     OW43826   8.763   3.944   6.783 -0.1701  0.2067  0.3368
13432SOL    HW143827   8.719   4.002   6.844  0.6850  0.6447  0.5483
13432SOL    HW243828   8.695   3.918   6.721 -0.6767  1.0145  0.5483
13433SOL     OW43829   6.443   6.452   7.085  0.0408 -0.0777  0.4591
13433SOL    HW143830   6.349   6.470   7.084  0.2889  1.4146  1.0035
13433SOL    HW243831   6.484   6.539   7.084  1.3907 -0.6531  1.9368
13434SOL     OW43832   6.468   7.180   8.392  0.8259  0.2807  0.2695
13434SOL    HW143833   6.395   7.242   8.401  0.6342  0.6160 -2.4658
13434SOL    HW243834   6.469   7.131   8.474 -2.7961 -0.0645  0.2793
13435SOL     OW43835   9.134   5.190   8.365  0.1029  0.0923  0.8810
13435SOL    HW143836   9.064   5.235   8.412  0.7168  0.6774  1.2498
13435SOL    HW243837   9.103   5.187   8.274 -0.3242  0.5077  1.0055
13436SOL     OW43838   9.914   1.074   5.039 -0.1998 -0.4488 -0.0243
13436SOL    HW143839   9.863   1.005   5.081 -0.9139 -0.3750 -0.7452
13436SOL    HW243840  10.005   1.043   5.042 -0.4687 -1.2447 -0.0334
13437SOL     OW43841  10.297   7.945   2.435  0.6177  0.4707 -0.4364
13437SOL    HW143842  10.275   7.991   2.516 -0.0844 -0.2185 -0.2321
13437SOL    HW243843  10.296   8.014   2.368  2.4067  1.2763  0.2999
13438SOL     OW43844   6.746   6.852   4.010  0.3752 -0.1295  0.2303
13438SOL    HW143845   6.761   6.886   4.098 -1.2823  2.5011 -0.3827
13438SOL    HW243846   6.712   6.763   4.024  1.1985 -0.1910  2.1420
13439SOL     OW43847   0.980   2.694   8.103  0.0115  0.5638 -0.3477
13439SOL    HW143848   1.075   2.694   8.107 -0.0013  1.2294  2.7820
13439SOL    HW243849   0.957   2.601   8.097  0.8300  0.4126 -1.3977
13440SOL     OW43850   9.041   8.089   7.617 -0.3611  0.5694  0.4884
13440SOL    HW143851   9.080   8.142   7.547  0.1419 -0.4627 -0.0389
13440SOL    HW243852   9.116   8.052   7.663 -0.7038  0.7125  1.1806
13441SOL     OW43853  10.016   1.178   4.192  0.0887 -0.0708  0.3119
13441SOL    HW143854   9.986   1.269   4.183  1.1619  0.4848  2.0440
13441SOL    HW243855   9.945   1.126   4.153 -0.2100  1.5150 -1.3922
13442SOL     OW43856   4.431   5.862   4.508  0.3943  0.1175  1.1182
13442SOL    HW143857   4.390   5.900   4.430  0.6912  0.4327  1.1127
13442SOL    HW243858   4.359   5.818   4.554  0.1259  0.3458  0.9200
13443SOL     OW43859   2.948   0.594   4.362  0.1674 -0.0051  0.0432
13443SOL    HW143860   2.960   0.600   4.457 -1.3958  0.1042  0.2610
13443SOL    HW243861   2.971   0.680   4.329  4.0735 -0.9362 -0.1640
13444SOL     OW43862   3.901   3.005   9.981  0.1404 -0.5302 -0.3393
13444SOL    HW143863   3.841   3.004   9.906  0.2119 -2.2121 -0.4146
13444SOL    HW243864   3.975   2.951   9.953  0.4030 -0.7649  0.7624
13445SOL     OW43865   6.977   0.466   9.522  0.1150 -0.3468 -0.0481
13445SOL    HW143866   6.993   0.399   9.456  1.0420 -2.1473  1.8715
13445SOL    HW243867   7.060   0.514   9.529 -0.8416  1.8559 -2.1546
13446SOL     OW43868   2.463   3.423   4.820 -0.4399  0.0435 -0.0333
13446SOL    HW143869   2.411   3.344   4.834 -0.4911 -0.2716 -1.7044
13446SOL    HW243870   2.414   3.471   4.753 -0.9127  1.9953  1.6469
13447SOL     OW43871   3.813   2.595   7.336 -0.2539 -0.3538  0.2527
13447SOL    HW143872   3.828   2.509   7.375  0.2739 -0.2137  0.3734
13447SOL    HW243873   3.839   2.658   7.404 -2.1631 -0.0580  0.7764
13448SOL     OW43874   1.669   2.246  10.703 -0.4089  0.2690 -0.5759
13448SOL    HW143875   1.751   2.197  10.691 -0.5772 -0.5258  1.2475
13448SOL    HW243876   1.697   2.336  10.716  0.1093  0.1656 -0.9329
13449SOL     OW43877   8.295  10.376   2.260 -0.5517 -0.1890  0.3570
13449SOL    HW143878   8.201  10.383   2.244 -0.0899  1.5330 -2.2362
13449SOL    HW243879   8.319  10.289   2.226 -1.4039 -1.4067  2.6831
13450SOL     OW43880   2.301   9.257   6.228 -0.7281 -0.1945  0.4655
13450SOL    HW143881   2.297   9.164   6.204  0.9033 -0.3220  0.5788
13450SOL    HW243882   2.267   9.260   6.317  0.7360 -0.9686  1.0864
13451SOL     OW43883   5.660   2.265   6.103 -0.7701 -0.1147 -0.3688
13451SOL    HW143884   5.581   2.284   6.052 -2.5172 -1.4645  1.6316
13451SOL    HW243885   5.650   2.318   6.182  0.4250 -0.2011 -0.1499
13452SOL     OW43886   1.066   0.207   9.641 -0.0728  0.0260  0.3352
13452SOL    HW143887   1.106   0.240   9.722  0.7473  0.4779 -0.2330
13452SOL    HW243888   0.994   0.267   9.623  0.5574  0.7145  0.0456
13453SOL     OW43889   7.952   1.656   7.682  0.0119 -0.0705  0.1312
13453SOL    HW143890   7.999   1.736   7.659  1.4582 -0.8940  0.1429
13453SOL    HW243891   8.012   1.585   7.660 -0.8745 -1.1219  0.9764
13454SOL     OW43892  10.264   1.340   5.418 -0.3325  0.5023  0.3196
13454SOL    HW143893  10.239   1.249   5.432 -2.0941  0.8697 -0.2169
13454SOL    HW243894  10.360   1.339   5.423 -0.2246 -1.5791 -0.8790
13455SOL     OW43895   6.767   4.790   6.247  0.1005 -0.0330  0.0437
13455SOL    HW143896   6.797   4.866   6.297  0.3873 -0.2023  0.1268
13455SOL    HW243897   6.843   4.764   6.195  0.0579 -0.3751  0.1494
13456SOL     OW43898   8.802   7.889  10.499 -0.3441 -0.0983 -0.1874
13456SOL    HW143899   8.833   7.865  10.587 -1.3701  1.3372  0.6082
13456SOL    HW243900   8.857   7.964  10.475 -0.4092 -0.1711 -0.5598
13457SOL     OW43901   1.667   3.017   3.454  0.2065  0.2745 -0.1985
13457SOL    HW143902   1.644   3.053   3.539 -1.8358 -1.1349 -0.0771
13457SOL    HW243903   1.672   2.923   3.468  1.0231  0.1216 -1.3925
13458SOL     OW43904   7.687   7.337   1.129  0.1774  0.0155 -0.1449
13458SOL    HW143905   7.765   7.290   1.161 -0.7874 -2.9983 -1.7987
13458SOL    HW243906   7.619   7.316   1.193  0.2494  1.0850  0.2969
13459SOL     OW43907   0.188   0.149   8.294  0.5799 -0.1258 -0.3792
13459SOL    HW143908   0.098   0.180   8.305 -0.0713 -0.9854 -2.6919
13459SOL    HW243909   0.234   0.181   8.372 -1.9430 -0.5719  1.4386
13460SOL     OW43910   4.386  10.032   8.814  0.0875  0.1490  0.0127
13460SOL    HW143911   4.354   9.953   8.859  0.9671 -0.0273  0.3423
13460SOL    HW243912   4.459  10.002   8.761 -0.1534  0.5884 -0.5717
13461SOL     OW43913   6.922   6.935   9.749 -0.1884 -0.2877 -0.1931
13461SOL    HW143914   6.996   6.957   9.694 -0.4239 -0.3286 -0.5296
13461SOL    HW243915   6.935   6.843   9.772  0.1248 -0.1573  0.1616
13462SOL     OW43916   1.884   4.559   8.379  0.1202 -0.4132 -0.2016
13462SOL    HW143917   1.924   4.645   8.394 -0.9095  0.0072  0.2429
13462SOL    HW243918   1.858   4.561   8.287  0.2958 -0.3390 -0.2506
13463SOL     OW43919   6.881   9.109   2.852  0.2791  0.1353  0.0232
13463SOL    HW143920   6.970   9.101   2.886  0.9764  0.4200 -1.6546
13463SOL    HW243921   6.828   9.052   2.909  1.4603  0.2368  1.2510
13464SOL     OW43922   5.636   3.375  10.017  0.4135  0.3010  0.0684
13464SOL    HW143923   5.681   3.422   9.946 -0.6930  2.1455  0.5146
13464SOL    HW243924   5.702   3.317  10.053  1.1521 -0.3382 -2.1307
13465SOL     OW43925   1.202   9.550   5.225  0.1534 -0.3994 -0.1197
13465SOL    HW143926   1.258   9.627   5.238 -1.4656  1.0791 -1.4092
13465SOL    HW243927   1.262   9.476   5.232  1.9973  1.0324  0.0628
13466SOL     OW43928   4.844  10.318   4.132 -0.2586  0.1649  0.5787
13466SOL    HW143929   4.779  10.367   4.184 -1.5945 -2.3791  1.4868
13466SOL    HW243930   4.816  10.227   4.139  0.9836 -0.5757 -2.6386
13467SOL     OW43931   8.407   0.343   1.874 -0.3652 -0.4070 -1.1418
13467SOL    HW143932   8.428   0.423   1.826  2.3771 -0.7213 -0.6465
13467SOL    HW243933   8.416   0.367   1.966  1.7361 -1.4600 -0.9920
13468SOL     OW43934   0.877   9.275   7.738 -0.0093 -0.2272  0.7957
13468SOL    HW143935   0.852   9.196   7.786  0.5920 -0.9037  0.0263
13468SOL    HW243936   0.968   9.291   7.763  0.9861 -1.7231 -1.5145
13469SOL     OW43937   3.659   2.819   7.934  0.3537  0.1352 -0.0634
13469SOL    HW143938   3.576   2.798   7.976  1.0010  1.0063  1.7212
13469SOL    HW243939   3.637   2.886   7.870 -0.3845 -0.0024  0.0386
13470SOL     OW43940   9.554   8.499   7.637 -0.1650  0.1909  0.0292
13470SOL    HW143941   9.514   8.586   7.643  0.0511  0.2600  0.5107
13470SOL    HW243942   9.481   8.438   7.645 -0.2897  0.3244 -0.0784
13471SOL     OW43943   9.570   1.466   5.350  0.1417 -0.5296 -0.0247
13471SOL    HW143944   9.525   1.388   5.318  1.8444 -1.1758 -0.9527
13471SOL    HW243945   9.640   1.481   5.287  0.2197  1.4199  0.4612
13472SOL     OW43946  10.913   2.739   8.369 -0.4807 -0.0496  0.1269
13472SOL    HW143947  10.860   2.763   8.293 -0.2150 -0.6786 -0.2636
13472SOL    HW243948  10.943   2.650   8.350  3.1906  1.2483 -1.1035
13473SOL     OW43949   1.224   7.789   5.388  0.1074  0.3349  0.0563
13473SOL    HW143950   1.250   7.697   5.394 -1.3474 -0.2407 -1.5473
13473SOL    HW243951   1.306   7.838   5.390  1.5056 -1.3492 -4.6822
13474SOL     OW43952   4.943   3.358   6.540  0.1363  0.4180 -0.2180
13474SOL    HW143953   4.849   3.373   6.549 -0.1178 -1.6841  1.5879
13474SOL    HW243954   4.952   3.309   6.458 -0.4306  0.1169 -0.1036
13475SOL     OW43955   6.888   6.182   9.664  0.1166 -0.1615 -0.4419
13475SOL    HW143956   6.976   6.201   9.630  0.9768 -3.6528 -0.5017
13475SOL    HW243957   6.901   6.168   9.758 -0.7564  1.0349 -0.1127
13476SOL     OW43958   8.800  10.507   5.524  0.1637 -1.1993  0.4792
13476SOL    HW143959   8.776  10.415   5.531 -0.9855 -0.9183  0.3573
13476SOL    HW243960   8.750  10.540   5.449 -0.9370 -0.0193  1.6675
13477SOL     OW43961   3.681   3.019   6.556  0.0966 -0.5358  0.1102
13477SOL    HW143962   3.640   3.055   6.634 -0.4310  0.1910 -0.4904
13477SOL    HW243963   3.625   2.945   6.532 -0.3092 -0.1599 -0.1301
13478SOL     OW43964  10.473   2.812  10.240  1.0681 -0.7457  0.6032
13478SOL    HW143965  10.517   2.896  10.227 -1.9052  0.8261 -0.2252
13478SOL    HW243966  10.495   2.762  10.161  0.6485  0.3796 -0.2601
13479SOL     OW43967   0.585   8.998   2.992 -0.7436 -0.4133  0.2323
13479SOL    HW143968   0.523   8.940   3.037 -1.5145  0.8398  0.8530
13479SOL    HW243969   0.666   8.992   3.044 -1.2350  0.0594  1.0832
13480SOL     OW43970   9.210   1.231  11.011  0.6890 -0.0128  0.2849
13480SOL    HW143971   9.189   1.269  10.925 -1.3641 -2.1523 -0.2765
13480SOL    HW243972   9.305   1.224  11.012  0.7923  0.5871 -1.5798
13481SOL     OW43973   7.267   9.189   6.146  0.0394  0.2327 -0.3394
13481SOL    HW143974   7.280   9.116   6.085 -0.5060  0.0909 -0.2915
13481SOL    HW243975   7.199   9.158   6.205 -0.7245  1.0676 -0.7642
13482SOL     OW43976   5.173   8.546   7.037  0.5992  0.2353  0.2198
13482SOL    HW143977   5.125   8.463   7.035  1.8811 -0.5641  0.8692
13482SOL    HW243978   5.207   8.557   6.949  0.1888  0.2162  0.0582
13483SOL     OW43979   1.433   0.592   8.457  0.0664  0.5781 -0.0595
13483SOL    HW143980   1.520   0.598   8.497  0.2794 -0.1733 -0.3919
13483SOL    HW243981   1.397   0.510   8.490  0.2689 -0.0898 -1.4158
13484SOL     OW43982   8.303  10.003   4.937  0.4139  0.1838 -0.0094
13484SOL    HW143983   8.262   9.971   4.856 -1.3145  0.2834  0.7888
13484SOL    HW243984   8.397   9.995   4.921  0.0857 -1.3183 -1.4240
13485SOL     OW43985   7.725   3.924   7.071 -0.4128  0.1739 -0.0026
13485SOL    HW143986   7.713   3.905   7.164  0.6424  0.6204  0.2398
13485SOL    HW243987   7.681   4.007   7.057 -0.0513  0.4103  0.2452
13486SOL     OW43988   7.782  10.139   8.818  0.1519  0.1469 -0.1676
13486SOL    HW143989   7.798  10.207   8.752  1.2721  0.0561 -0.0176
13486SOL    HW243990   7.745  10.066   8.769 -3.4250  1.6607  0.0127
13487SOL     OW43991   3.985   0.250   6.590 -0.6996 -0.8751 -0.1421
13487SOL    HW143992   3.918   0.187   6.566 -0.5709 -1.2305  0.4084
13487SOL    HW243993   3.955   0.286   6.673 -0.5591 -0.5223 -0.2428
13488SOL     OW43994  10.118   3.045   7.399 -0.4939  0.1831 -1.0140
13488SOL    HW143995  10.207   3.062   7.430 -1.7978  4.3976  1.1477
13488SOL    HW243996  10.081   2.984   7.464 -0.0164  0.6445 -0.2992
13489SOL     OW43997   6.289   9.628   9.547  0.5068 -0.0532  0.3561
13489SOL    HW143998   6.350   9.697   9.521 -0.7630  1.3086  0.8443
13489SOL    HW243999   6.237   9.668   9.617 -0.3567 -1.4737  0.5540
13490SOL     OW44000   1.070   6.348   6.823  0.0155 -0.4719  0.1176
13490SOL    HW144001   1.161   6.339   6.793  0.3993 -0.5105  1.2731
13490SOL    HW244002   1.050   6.441   6.808  0.3210 -0.4110  0.0789
13491SOL     OW44003   2.361   0.020   6.860 -0.2774  0.3253  0.2099
13491SOL    HW144004   2.361   0.024   6.956  1.0072  1.6319  0.2021
13491SOL    HW244005   2.276   0.054   6.834 -0.7156 -0.2304  0.8912
13492SOL     OW44006  10.223   9.956  10.917  0.5270 -0.3931  0.1085
13492SOL    HW144007  10.221   9.863  10.938  1.0528 -0.3891  0.1824
13492SOL    HW244008  10.311   9.985  10.941  0.3408  0.1426  0.1645
13493SOL     OW44009   1.630   7.774   6.182 -0.2129  0.1267  0.5031
13493SOL    HW144010   1.582   7.793   6.263  0.4065 -0.4194  1.0098
13493SOL    HW244011   1.716   7.744   6.212 -0.6657 -2.1262 -0.2817
13494SOL     OW44012   2.140   4.022   0.001  0.3544  0.3033  0.3753
13494SOL    HW144013   2.232   4.045  -0.013  0.6452 -0.7299  0.5272
13494SOL    HW244014   2.125   3.947  -0.056 -1.2419  2.2524 -1.9628
13495SOL     OW44015   7.287   5.440   2.354  0.0760  0.2403 -0.3896
13495SOL    HW144016   7.293   5.458   2.448 -0.1734  2.4014 -0.7373
13495SOL    HW244017   7.344   5.364   2.341  0.6209  0.2917  1.3998
13496SOL     OW44018   3.676   6.813   8.125  0.0656 -0.0649  0.3936
13496SOL    HW144019   3.624   6.820   8.205 -1.9425 -0.9828 -0.7492
13496SOL    HW244020   3.744   6.749   8.145 -1.1424 -1.1842  1.0158
13497SOL     OW44021   8.059   5.929   4.655  0.3008 -0.2207  0.1177
13497SOL    HW144022   8.001   5.979   4.598  2.1491 -0.3610 -2.0068
13497SOL    HW244023   8.096   5.994   4.715 -1.9584 -0.1343  1.5601
13498SOL     OW44024   1.038   8.499   0.609  0.0978  0.4149 -0.1070
13498SOL    HW144025   0.984   8.429   0.572 -0.9329  1.9007 -1.5581
13498SOL    HW244026   1.059   8.469   0.697 -1.4899 -1.0927 -0.1894
13499SOL     OW44027   3.788  10.669   7.899  0.7566  0.5827  0.0923
13499SOL    HW144028   3.865  10.614   7.902  0.5490  0.3236  2.2568
13499SOL    HW244029   3.818  10.751   7.860  1.9256  0.2083  0.1805
13500SOL     OW44030   8.550   5.194   4.739  0.8709 -0.5259  0.0858
13500SOL    HW144031   8.521   5.262   4.679  1.3200 -0.8286 -0.4824
13500SOL    HW244032   8.471   5.143   4.757  0.7856 -0.6008 -0.4754
13501SOL     OW44033   3.657   4.674  10.844  0.0501 -0.3426 -0.3150
13501SOL    HW144034   3.593   4.735  10.808  0.1885 -0.6217 -1.0559
13501SOL    HW244035   3.622   4.587  10.820  0.2250 -0.5248  0.0933
13502SOL     OW44036   2.555   2.909   2.560 -0.2981 -0.1940  0.1296
13502SOL    HW144037   2.556   2.993   2.606  1.6076 -0.4746  0.6720
13502SOL    HW244038   2.468   2.873   2.578 -1.0802  1.5596  0.0436
13503SOL     OW44039  10.878   8.953  10.485 -0.0231  0.3018  0.3551
13503SOL    HW144040  10.932   8.963  10.564  1.1882  0.3918 -0.4591
13503SOL    HW244041  10.802   8.903  10.514  0.1394  0.8002  1.6988
13504SOL     OW44042   2.164   2.177   3.298  0.2845 -0.9244 -0.1335
13504SOL    HW144043   2.169   2.094   3.250  0.5916  0.0131 -1.7792
13504SOL    HW244044   2.211   2.159   3.380  1.5408 -1.9931 -1.0471
13505SOL     OW44045   3.556   7.995   3.104 -0.2371  0.1226  0.0301
13505SOL    HW144046   3.588   8.085   3.108  0.4481 -0.1310  0.4601
13505SOL    HW244047   3.506   7.991   3.023  0.7374  0.5661 -0.6024
13506SOL     OW44048   5.825   8.115   5.425 -0.7306 -0.2497 -0.1685
13506SOL    HW144049   5.763   8.173   5.470 -0.9117 -1.3173  1.0213
13506SOL    HW244050   5.844   8.159   5.342 -1.3102  1.2128  0.4476
13507SOL     OW44051  11.034   1.902   6.704  0.4647  0.1884  0.4619
13507SOL    HW144052  10.965   1.960   6.673 -0.2446 -0.0592  1.5498
13507SOL    HW244053  11.042   1.920   6.797  1.1617 -0.5032  0.5503
13508SOL     OW44054   5.573   5.080   2.395 -0.0151 -0.2865  0.4450
13508SOL    HW144055   5.499   5.133   2.426  0.4705  0.7222 -0.0418
13508SOL    HW244056   5.601   5.124   2.314  1.7438 -0.0283  1.1425
13509SOL     OW44057   1.409  10.468   5.368  0.3365 -0.3401  0.5935
13509SOL    HW144058   1.498  10.480   5.334 -0.1505  0.7070 -0.3638
13509SOL    HW244059   1.353  10.471   5.291 -0.7627  1.7087  1.3803
13510SOL     OW44060   0.434   3.176   9.814 -0.1846 -0.4914 -0.1739
13510SOL    HW144061   0.516   3.155   9.857  0.6070 -0.4636 -1.6022
13510SOL    HW244062   0.419   3.104   9.752 -1.4116 -0.6627  0.2842
13511SOL     OW44063   8.193   8.830  10.916  0.1482 -0.3169  0.0943
13511SOL    HW144064   8.213   8.839  11.009 -2.2621 -1.8174  0.8542
13511SOL    HW244065   8.128   8.898  10.899 -0.6983 -1.1313 -0.0185
13512SOL     OW44066   9.788   0.795   5.901  0.2584  0.4991  0.4641
13512SOL    HW144067   9.850   0.785   5.973  0.3389 -0.7191  0.2434
13512SOL    HW244068   9.795   0.714   5.851  0.0081  1.2152 -0.7764
13513SOL     OW44069   8.245   4.015   9.097  0.4817  0.0956  0.4259
13513SOL    HW144070   8.207   3.994   9.011  0.0020 -1.9383  1.0775
13513SOL    HW244071   8.333   3.979   9.093  1.0383  1.4286  0.2557
13514SOL     OW44072  10.772   8.270   8.346  0.8020  0.2546 -0.0422
13514SOL    HW144073  10.837   8.237   8.283 -0.5484 -1.0961 -0.7957
13514SOL    HW244074  10.690   8.270   8.297 -0.2759 -0.7122  1.6874
13515SOL     OW44075   4.637   8.440   2.292 -0.6009  0.2110  0.4284
13515SOL    HW144076   4.683   8.525   2.293 -1.0379  0.4569  2.1774
13515SOL    HW244077   4.631   8.418   2.199  1.2808  1.1291  0.0336
13516SOL     OW44078   1.781   6.247   1.040 -0.4355 -0.4560 -0.4739
13516SOL    HW144079   1.763   6.335   1.006 -0.2802  0.1925  1.0621
13516SOL    HW244080   1.698   6.201   1.031 -1.1657  0.5519  0.7136
13517SOL     OW44081   4.336   3.221  10.172  0.3390  0.3352 -0.3843
13517SOL    HW144082   4.240   3.227  10.165  0.4754  1.5412 -1.4125
13517SOL    HW244083   4.363   3.174  10.094  0.5148 -1.2112  0.5540
13518SOL     OW44084   4.881  10.440   6.449 -0.4032  0.0012 -0.4024
13518SOL    HW144085   4.801  10.418   6.496 -0.6171  0.3436 -0.5983
13518SOL    HW244086   4.896  10.367   6.389  0.8211 -1.2922  1.3682
13519SOL     OW44087  10.665   5.643   0.150 -0.3981 -0.8115  0.2212
13519SOL    HW144088  10.739   5.597   0.191  0.9170  0.8752 -0.1182
13519SOL    HW244089  10.600   5.649   0.220  0.6160 -0.5943  1.1958
13520SOL     OW44090   9.606   3.765   2.931 -0.5477  0.1687 -0.3457
13520SOL    HW144091   9.682   3.752   2.874  1.2684 -0.8873  2.1530
13520SOL    HW244092   9.580   3.677   2.957 -1.8806  0.5892 -0.1758
13521SOL     OW44093  10.914   8.550   9.418  0.5811 -0.0428  0.0952
13521SOL    HW144094  10.994   8.524   9.464  0.6377  0.6800  0.4138
13521SOL    HW244095  10.866   8.603   9.481 -0.3274 -0.7567  0.0274
13522SOL     OW44096   8.233   3.887   0.785 -0.0881 -0.4056  0.3878
13522SOL    HW144097   8.328   3.889   0.780 -0.1355 -0.0782 -1.7821
13522SOL    HW244098   8.206   3.974   0.754 -1.0935 -0.7137  0.3565
13523SOL     OW44099   0.926   6.476   1.144 -0.2142  0.0266 -0.2311
13523SOL    HW144100   0.937   6.407   1.078  1.3113 -0.0179  0.0417
13523SOL    HW244101   0.889   6.431   1.220  1.8062 -0.7500  0.3347
13524SOL     OW44102   0.179   1.702   0.648  0.4085  0.4492 -0.4616
13524SOL    HW144103   0.217   1.784   0.617 -1.7246  1.9043  0.5925
13524SOL    HW244104   0.086   1.708   0.626  0.1016 -1.4878  0.0982
13525SOL     OW44105   3.855   2.897   0.978 -0.2965 -0.2683 -0.0755
13525SOL    HW144106   3.843   2.857   1.064 -0.4830  0.2396  0.1368
13525SOL    HW244107   3.766   2.912   0.947 -0.2406  1.1117  0.3797
13526SOL     OW44108   5.704   4.853   1.441  0.2696  0.3953 -0.9417
13526SOL    HW144109   5.730   4.880   1.528 -0.8563  0.1753 -0.5204
13526SOL    HW244110   5.612   4.827   1.450  0.2451  0.0068 -2.1055
13527SOL     OW44111   5.388   6.080   0.310  0.1548 -0.4198 -0.1547
13527SOL    HW144112   5.453   6.011   0.295  0.5874 -0.1258  0.3362
13527SOL    HW244113   5.384   6.088   0.406 -0.1773 -0.0258 -0.1995
13528SOL     OW44114   9.176   2.583   0.811 -0.3473 -0.7821 -0.2957
13528SOL    HW144115   9.115   2.648   0.847  0.4115 -0.9866  1.4384
13528SOL    HW244116   9.190   2.612   0.720 -1.3780  0.4745 -0.0873
13529SOL     OW44117   2.679   8.795   9.282 -0.1417 -0.9673  0.3062
13529SOL    HW144118   2.677   8.700   9.298  1.1881 -0.7593  2.0505
13529SOL    HW244119   2.698   8.833   9.367  0.6271  0.7865 -0.5923
13530SOL     OW44120   2.300   6.974   9.850  0.4513 -0.1781 -0.5703
13530SOL    HW144121   2.250   6.941   9.925 -1.1966  2.0817 -0.5882
13530SOL    HW244122   2.261   6.931   9.774 -0.2427  0.1758 -0.4220
13531SOL     OW44123   2.940   1.799   6.756  0.6305 -0.2753  0.1908
13531SOL    HW144124   2.947   1.766   6.846 -0.3819 -2.4494 -0.4490
13531SOL    HW244125   2.964   1.724   6.702  0.7921  0.8618 -1.3769
13532SOL     OW44126   8.231   1.226   8.920  0.5267 -0.1261 -0.2279
13532SOL    HW144127   8.201   1.144   8.881  1.7782 -0.4406 -0.6017
13532SOL    HW244128   8.326   1.213   8.930  0.4102  0.3167  2.0055
13533SOL     OW44129  10.432   4.872   3.323  0.9071 -0.4300  0.2165
13533SOL    HW144130  10.449   4.952   3.272  1.1512 -0.9516 -0.5360
13533SOL    HW244131  10.365   4.826   3.273 -0.3648  0.0134  1.4405
13534SOL     OW44132   5.602   9.315  10.713  0.2202  0.1641  0.4070
13534SOL    HW144133   5.610   9.269  10.629  0.9263  0.9165  0.0528
13534SOL    HW244134   5.658   9.392  10.704  0.2402  0.3017  1.5446
13535SOL     OW44135   8.546   3.375   9.315  0.4077  0.1734  0.0319
13535SOL    HW144136   8.617   3.337   9.366  0.7448  1.2494  0.3881
13535SOL    HW244137   8.568   3.352   9.224  1.4060  0.8002  0.1033
13536SOL     OW44138   6.411   4.352   8.960  0.6381  0.4887 -0.4099
13536SOL    HW144139   6.498   4.389   8.977  0.1321  2.1555 -1.2359
13536SOL    HW244140   6.357   4.386   9.031  0.3426  0.6796 -0.7242
13537SOL     OW44141   3.056   4.972   6.035  0.9692  0.0730 -0.0236
13537SOL    HW144142   3.122   4.966   6.104  0.0718  0.9415  0.9492
13537SOL    HW244143   3.106   4.969   5.953  2.1521  0.1500  0.6765
13538SOL     OW44144   0.387   5.791   1.586 -0.4445 -0.2263  0.0061
13538SOL    HW144145   0.420   5.755   1.503  2.9677  0.5296  0.8851
13538SOL    HW244146   0.350   5.876   1.562 -0.7519 -0.6046 -0.9060
13539SOL     OW44147   2.300   0.136  10.387 -0.4180 -0.7009  0.0632
13539SOL    HW144148   2.229   0.156  10.449 -0.9678  0.6589 -0.9366
13539SOL    HW244149   2.376   0.181  10.423 -0.4215 -0.9684  0.4063
13540SOL     OW44150  10.796   8.380   4.872 -0.4037 -0.0734 -0.5024
13540SOL    HW144151  10.782   8.474   4.882 -0.3297 -0.1418  0.2562
13540SOL    HW244152  10.814   8.349   4.960 -5.9630 -1.7485  0.3860
13541SOL     OW44153   2.997   8.486   5.242  0.1375 -0.0731  0.1506
13541SOL    HW144154   2.960   8.518   5.323  1.5294  2.7584 -0.1968
13541SOL    HW244155   2.937   8.515   5.174 -0.6825 -1.8587  0.0631
13542SOL     OW44156   9.309   1.538   3.761  0.1863 -0.2382  0.1749
13542SOL    HW144157   9.358   1.584   3.693 -1.6393  0.3098 -0.8458
13542SOL    HW244158   9.371   1.530   3.834  2.0924 -0.5454 -1.3964
13543SOL     OW44159   4.451   4.069   0.507 -0.0986  0.4971  0.1841
13543SOL    HW144160   4.360   4.099   0.510 -0.5110 -0.6201 -0.4363
13543SOL    HW244161   4.473   4.069   0.414  0.5380  0.7744  0.3328
13544SOL     OW44162   0.556   9.810   3.865  0.8842 -0.3949  0.1572
13544SOL    HW144163   0.643   9.833   3.832  1.4572  0.4397  2.1511
13544SOL    HW244164   0.533   9.729   3.818  2.1729  0.0514 -1.3128
13545SOL     OW44165   9.090   5.871   8.807 -0.3123 -0.0791  0.9749
13545SOL    HW144166   9.006   5.914   8.790  0.0258 -0.2485 -1.4850
13545SOL    HW244167   9.155   5.941   8.798  0.2557 -0.8743 -3.1931
13546SOL     OW44168  10.711  10.150   3.686 -0.3350 -0.5486  0.4422
13546SOL    HW144169  10.735  10.186   3.601 -1.1737 -0.2562  0.3177
13546SOL    HW244170  10.769  10.195   3.748 -2.3557  2.3058  0.4847
13547SOL     OW44171   5.471   9.217   5.603 -0.1235  0.6256  0.2198
13547SOL    HW144172   5.467   9.121   5.599  3.0636  0.2841  2.0949
13547SOL    HW244173   5.492   9.243   5.514 -3.7321 -0.0452 -1.0059
13548SOL     OW44174   7.029   9.834   1.376 -0.0905  0.3225  0.1370
13548SOL    HW144175   7.122   9.825   1.353 -0.0721 -0.1355  0.3937
13548SOL    HW244176   7.004   9.918   1.338 -0.0914 -0.4562 -1.7082
13549SOL     OW44177   2.251   3.089   7.999  0.2720 -0.3675  0.0812
13549SOL    HW144178   2.259   2.994   8.008  1.3427 -0.2652  0.4440
13549SOL    HW244179   2.287   3.108   7.912  2.3153 -0.0949  0.9229
13550SOL     OW44180   9.937   3.632  10.602  1.0142 -0.2347  0.2880
13550SOL    HW144181   9.892   3.592  10.676 -2.3850  0.9645 -0.9291
13550SOL    HW244182   9.887   3.604  10.525 -0.0432  3.9956 -0.8655
13551SOL     OW44183   1.057   9.305   5.288  0.6572  0.2544  0.3682
13551SOL    HW144184   1.141   9.305   5.240  1.0143  0.9184  0.9713
13551SOL    HW244185   1.034   9.398   5.294  1.6744  0.4120  3.2717
13552SOL     OW44186   9.582   0.621  10.251  0.0495 -0.0283  0.2678
13552SOL    HW144187   9.607   0.536  10.216 -2.7064 -0.7737 -0.0943
13552SOL    HW244188   9.596   0.613  10.346  0.1844 -0.7323  0.1919
13553SOL     OW44189   8.829   3.432   3.894  0.5736  0.3404 -0.1221
13553SOL    HW144190   8.827   3.373   3.969 -1.3266 -0.9683 -1.1034
13553SOL    HW244191   8.822   3.520   3.931 -0.4523 -0.2848  1.2242
13554SOL     OW44192   3.767   8.096   0.137 -0.2280  0.3249  0.4414
13554SOL    HW144193   3.818   8.137   0.067  2.9179 -1.1719  1.6602
13554SOL    HW244194   3.745   8.009   0.103  0.6964 -0.1409  0.9812
13555SOL     OW44195   4.403   2.522   6.087  0.0750 -0.9298  0.4041
13555SOL    HW144196   4.330   2.562   6.134  0.3393  0.1430 -0.0710
13555SOL    HW244197   4.385   2.429   6.090 -0.5277 -0.8011  1.6122
13556SOL     OW44198   6.884   5.636   8.711 -0.6117  0.5234  0.0543
13556SOL    HW144199   6.965   5.671   8.747 -0.4780 -1.5340  1.9855
13556SOL    HW244200   6.818   5.659   8.777 -1.2351  0.4916 -0.5500
13557SOL     OW44201   8.296   9.534   2.216 -0.2165 -0.1593 -0.4678
13557SOL    HW144202   8.263   9.448   2.241 -0.3624 -0.4920 -1.7715
13557SOL    HW244203   8.371   9.515   2.159  0.7717  0.5876  0.5154
13558SOL     OW44204   3.382   7.834   9.256 -0.0617  0.4980  0.3834
13558SOL    HW144205   3.399   7.786   9.337  1.1457  1.7663  0.9214
13558SOL    HW244206   3.357   7.922   9.285  0.0308  0.8638 -0.5995
13559SOL     OW44207   9.806   8.175   9.327  0.7833 -0.1077 -0.1203
13559SOL    HW144208   9.823   8.187   9.420 -0.4640  1.4605 -0.0562
13559SOL    HW244209   9.713   8.156   9.322  0.5950  0.9469 -1.1062
13560SOL     OW44210   9.554   5.451   1.888  0.3183 -0.2212  0.1462
13560SOL    HW144211   9.494   5.398   1.941  0.1510 -0.7932 -0.5973
13560SOL    HW244212   9.509   5.535   1.877 -0.1380 -0.4847 -0.0092
13561SOL     OW44213   9.539   8.042   4.131  0.0202  0.2653  0.6006
13561SOL    HW144214   9.524   8.127   4.172 -0.3809  0.3086  0.3718
13561SOL    HW244215   9.634   8.036   4.123  0.0063  1.3823 -0.8229
13562SOL     OW44216   0.836   7.029   4.125 -0.3743 -0.4443  0.5957
13562SOL    HW144217   0.919   7.074   4.143 -0.5778 -0.1131  0.7046
13562SOL    HW244218   0.845   6.998   4.035  0.8610 -2.5579  1.3770
13563SOL     OW44219   8.539   0.067   1.247 -0.2309 -0.0739 -0.4017
13563SOL    HW144220   8.451   0.033   1.231 -0.3458 -0.4287  0.8695
13563SOL    HW244221   8.535   0.105   1.334  0.5387  1.1050 -0.8530
13564SOL     OW44222   0.389   4.398   2.451 -0.1399  0.5224 -0.1393
13564SOL    HW144223   0.382   4.335   2.380 -3.1487 -0.7873  1.1041
13564SOL    HW244224   0.465   4.452   2.430  0.4554 -1.2883 -3.0684
13565SOL     OW44225   3.885   2.731   4.132  0.1219  0.1787 -0.0687
13565SOL    HW144226   3.908   2.740   4.225  0.1620  1.8424 -0.2065
13565SOL    HW244227   3.857   2.819   4.106 -1.0476 -0.5310 -1.3370
13566SOL     OW44228  10.014   4.509   9.533 -0.2025 -0.4706 -0.0981
13566SOL    HW144229   9.943   4.500   9.469  0.0933 -0.5569 -0.4133
13566SOL    HW244230  10.069   4.432   9.519  0.2527 -0.1289 -0.2255
13567SOL     OW44231   5.609   3.778  10.606  0.0569 -0.1771 -0.0341
13567SOL    HW144232   5.610   3.802  10.514 -1.2164  0.7111  0.1625
13567SOL    HW244233   5.648   3.854  10.651 -0.7282  0.0465  0.2826
13568SOL     OW44234   6.210   1.316   7.085 -0.5177 -0.0747  0.0171
13568SOL    HW144235   6.178   1.277   7.167 -0.1038  0.3301  0.3707
13568SOL    HW244236   6.224   1.408   7.106  1.2297 -0.3051 -0.0277
13569SOL     OW44237   1.976   7.109  11.003 -0.0655  0.1766 -0.4980
13569SOL    HW144238   1.888   7.145  11.008 -0.2017 -0.1084 -0.7838
13569SOL    HW244239   2.019   7.161  10.935 -0.0258  0.2936 -0.3821
13570SOL     OW44240   4.782   0.902   9.368  0.1866  0.0418  0.2651
13570SOL    HW144241   4.834   0.976   9.400  1.6622 -1.7236  2.2526
13570SOL    HW244242   4.801   0.898   9.274  2.0728  0.6949  0.5767
13571SOL     OW44243   2.531   1.310   8.073 -0.1302 -0.3336 -0.1407
13571SOL    HW144244   2.516   1.268   8.158  1.4200  1.7723  1.2858
13571SOL    HW244245   2.596   1.255   8.030  1.8642  0.4750  1.6811
13572SOL     OW44246   1.244   6.890   8.361  0.4127  0.2481 -0.4874
13572SOL    HW144247   1.280   6.978   8.358 -0.0923  0.4652 -0.2431
13572SOL    HW244248   1.296   6.841   8.297  1.5164  0.4105  0.2585
13573SOL     OW44249   8.616   0.604   7.746 -0.1209 -0.3616 -0.2218
13573SOL    HW144250   8.538   0.616   7.800  0.5592  0.1479  0.6737
13573SOL    HW244251   8.673   0.678   7.769 -0.0274  0.1938 -2.0485
13574SOL     OW44252   1.905  10.453   3.043  0.3672 -0.9210  0.1154
13574SOL    HW144253   1.897  10.464   2.949  1.1540 -0.6001  0.0722
13574SOL    HW244254   1.915  10.359   3.056 -0.9882 -1.0910 -0.0060
13575SOL     OW44255   5.452   3.141   3.804  0.0303 -0.3446 -0.4763
13575SOL    HW144256   5.383   3.173   3.862  2.5089  1.6568  1.6218
13575SOL    HW244257   5.494   3.070   3.853  0.7462 -0.1579 -0.8100
13576SOL     OW44258   7.635   0.918   5.940 -0.3387  0.3019  0.1444
13576SOL    HW144259   7.625   0.894   5.848  1.4509 -0.5818  0.1342
13576SOL    HW244260   7.550   0.954   5.965 -0.8026  0.7330 -1.8918
13577SOL     OW44261   8.909   8.686   4.770 -0.1488 -0.2474 -0.6070
13577SOL    HW144262   8.975   8.627   4.734 -0.8629 -0.8778 -0.9051
13577SOL    HW244263   8.940   8.704   4.859 -0.4487 -1.9418 -0.1148
13578SOL     OW44264   1.338   9.070   7.359  0.2800 -0.2650  0.2580
13578SOL    HW144265   1.261   9.107   7.316  0.3706  0.4089  0.6706
13578SOL    HW244266   1.342   8.980   7.326 -0.1064 -0.0057 -0.5308
13579SOL     OW44267   0.416  10.190   9.006 -0.2045 -0.0253  0.6816
13579SOL    HW144268   0.465  10.271   9.018 -0.0368 -0.4271  3.5458
13579SOL    HW244269   0.426  10.168   8.914  0.1991  2.8892 -0.0538
13580SOL     OW44270   1.598   1.094   7.350  0.3515  0.4230 -0.1083
13580SOL    HW144271   1.517   1.048   7.329  0.0352  0.7712  0.3125
13580SOL    HW244272   1.584   1.125   7.440  1.9590 -1.7208  0.9797
13581SOL     OW44273  10.295   0.289   2.741 -0.2515  0.7154  0.7744
13581SOL    HW144274  10.217   0.258   2.694 -0.7544  1.5873  1.0124
13581SOL    HW244275  10.283   0.257   2.830 -0.6959  1.4323  0.9825
13582SOL     OW44276   4.525  10.245   1.024  0.1188  0.2217 -0.7030
13582SOL    HW144277   4.545  10.152   1.037 -1.3581 -0.1872 -1.1161
13582SOL    HW244278   4.481  10.248   0.939 -1.0958  1.0709 -0.0836
13583SOL     OW44279   6.365   7.478   8.362 -0.8903  0.4383  0.4736
13583SOL    HW144280   6.333   7.499   8.450  0.4820 -0.9737  1.3575
13583SOL    HW244281   6.448   7.525   8.355 -1.1317  0.7758 -0.1984
13584SOL     OW44282   7.637   0.558   5.309  0.0300  0.0088  0.6554
13584SOL    HW144283   7.591   0.619   5.252 -2.6097 -0.9135  1.6229
13584SOL    HW244284   7.707   0.609   5.349  0.3125  1.3333 -1.4167
13585SOL     OW44285   8.696   6.347   3.961 -0.0142  0.3168 -0.2407
13585SOL    HW144286   8.736   6.432   3.977 -2.8214  1.3440  2.2142
13585SOL    HW244287   8.725   6.292   4.034  1.0514 -0.6133 -1.3173
13586SOL     OW44288   6.827   2.309   0.037  0.3840  0.0359  0.0796
13586SOL    HW144289   6.800   2.397   0.011  0.2020  0.2082  0.8116
13586SOL    HW244290   6.867   2.322   0.124  2.0009 -0.3437 -0.5819
13587SOL     OW44291   3.390   8.155   7.311 -0.1805 -0.1513  0.7845
13587SOL    HW144292   3.465   8.095   7.310  0.5223  0.7005  1.2194
13587SOL    HW244293   3.397   8.204   7.229 -1.0684 -1.0060  0.1656
13588SOL     OW44294  10.613  10.794   7.948  0.3159 -0.4478  0.2300
13588SOL    HW144295  10.582  10.820   8.034 -1.5211 -0.4468 -0.3875
13588SOL    HW244296  10.646  10.705   7.960 -0.6515 -0.7396  0.7938
13589SOL     OW44297   5.181   2.132   0.409  0.3380  0.0445 -0.2565
13589SOL    HW144298   5.121   2.131   0.335 -1.0680  0.9514  0.8343
13589SOL    HW244299   5.176   2.043   0.445 -0.2707  0.0867 -0.2327
13590SOL     OW44300   1.572   4.383   2.067  0.1390 -0.1662  0.6066
13590SOL    HW144301   1.573   4.478   2.079 -2.0181 -0.1207  0.9614
13590SOL    HW244302   1.519   4.351   2.140 -0.5718 -1.4540 -0.4354
13591SOL     OW44303   6.601   6.586   8.718  0.2287  0.2580  0.2335
13591SOL    HW144304   6.627   6.502   8.756  0.1949  0.7304  1.3350
13591SOL    HW244305   6.548   6.563   8.642  0.9126 -0.7149  0.0353
13592SOL     OW44306   2.653   9.016   5.009 -0.4267 -0.3099 -0.1668
13592SOL    HW144307   2.616   9.060   4.933  1.3229  1.2141 -0.2143
13592SOL    HW244308   2.728   8.967   4.974 -1.0203 -1.5536  0.2410
13593SOL     OW44309   5.129   5.221   9.993  0.7070 -0.7643  0.4454
13593SOL    HW144310   5.217   5.249  10.017  0.5048  0.7605 -0.4741
13593SOL    HW244311   5.102   5.280   9.923 -1.1425 -1.0453  0.8433
13594SOL     OW44312   5.244   9.918   2.256  0.0091  0.0931  0.1369
13594SOL    HW144313   5.189   9.872   2.193 -2.1706  1.6300  0.7945
13594SOL    HW244314   5.332   9.884   2.240 -1.1922 -3.1442 -0.3943
13595SOL     OW44315   0.537   6.757   5.339 -0.1976 -0.2551  0.0021
13595SOL    HW144316   0.591   6.799   5.407  0.4478 -1.3788  0.2013
13595SOL    HW244317   0.600   6.727   5.274 -0.7335 -0.1342 -0.5793
13596SOL     OW44318   1.131   0.501   9.829 -0.3278 -0.4107  1.3715
13596SOL    HW144319   1.137   0.426   9.888 -2.4812 -1.2914  0.5559
13596SOL    HW244320   1.037   0.515   9.817  0.0406  0.8614 -0.4257
13597SOL     OW44321   8.166   4.944   2.356  0.2041  0.8124 -0.0974
13597SOL    HW144322   8.193   4.861   2.317 -0.4024 -0.2622  1.6864
13597SOL    HW244323   8.189   5.009   2.290 -0.8076 -0.8913 -2.2667
13598SOL     OW44324   5.440  10.313   0.444 -0.3979  0.0896 -0.2403
13598SOL    HW144325   5.480  10.336   0.528 -2.6899  0.4310  0.8664
13598SOL    HW244326   5.485  10.234   0.416  0.2968 -0.1449  1.4374
13599SOL     OW44327  10.346   1.472  10.740 -0.1197  0.2776 -0.7344
13599SOL    HW144328  10.312   1.404  10.681  1.1650 -0.1143 -1.0695
13599SOL    HW244329  10.370   1.544  10.682  0.2736  0.2601 -0.6023
13600SOL     OW44330   5.285   6.314   7.792 -0.0249 -0.2118  0.2945
13600SOL    HW144331   5.325   6.246   7.846 -0.4998 -1.1164 -0.4520
13600SOL    HW244332   5.359   6.360   7.753  0.4017  1.7609  3.1749
13601SOL     OW44333   5.780   6.467   9.146 -0.3448  0.3973 -0.8391
13601SOL    HW144334   5.875   6.455   9.138 -0.2038  1.7985 -1.4615
13601SOL    HW244335   5.759   6.425   9.230  0.7425 -0.3193 -0.8901
13602SOL     OW44336   7.433   8.610   9.987 -0.0229 -0.5744  0.4790
13602SOL    HW144337   7.483   8.690  10.004 -2.0701  0.8108  0.3556
13602SOL    HW244338   7.452   8.589   9.896  1.7159 -1.1650  0.9334
13603SOL     OW44339   0.532   9.155  10.912 -0.0731 -0.3620 -0.5674
13603SOL    HW144340   0.606   9.176  10.856 -0.4631  0.6964 -0.6999
13603SOL    HW244341   0.541   9.213  10.987  0.9015 -2.3285  0.9108
13604SOL     OW44342   2.146   9.074   3.647 -0.6211 -0.3497  1.0871
13604SOL    HW144343   2.109   8.999   3.599 -0.7367 -0.1894  0.9267
13604SOL    HW244344   2.074   9.137   3.652 -0.2552  0.1417  0.4016
13605SOL     OW44345   0.453  10.033  10.779  0.7822  0.1790  0.6445
13605SOL    HW144346   0.417  10.048  10.866 -1.2275 -1.1653  0.1075
13605SOL    HW244347   0.386   9.982  10.733  1.5628  1.2190 -1.8471
13606SOL     OW44348   3.055   0.532  10.114  0.8074  0.2127  0.3600
13606SOL    HW144349   2.996   0.476  10.064  0.9170  0.1844  0.2606
13606SOL    HW244350   3.114   0.570  10.048  2.7808 -1.9779  0.7067
13607SOL     OW44351   4.070   1.950   7.048 -0.5226 -0.2898  0.3865
13607SOL    HW144352   3.982   1.976   7.077 -0.0093 -0.7934  2.5838
13607SOL    HW244353   4.055   1.881   6.984 -1.7310  0.3861 -0.1015
13608SOL     OW44354   7.431   7.996   8.142 -0.3411  0.4438 -0.2536
13608SOL    HW144355   7.420   8.071   8.084 -1.1209  0.5837  0.0636
13608SOL    HW244356   7.457   8.034   8.226  2.2315  0.1597 -0.8303
13609SOL     OW44357   1.980  10.532   6.011  0.5778 -0.2322  0.1738
13609SOL    HW144358   2.067  10.504   5.981 -0.4259 -1.6252 -1.6103
13609SOL    HW244359   1.997  10.610   6.063  2.9920 -0.9942  0.6656
13610SOL     OW44360   7.655   7.117   3.852  0.1975 -0.6707  0.1692
13610SOL    HW144361   7.600   7.048   3.892 -0.4861 -0.0693  0.2945
13610SOL    HW244362   7.734   7.118   3.906 -0.3248 -0.5019  0.9630
13611SOL     OW44363   2.141   9.196   0.751 -0.0262 -0.3697 -0.7195
13611SOL    HW144364   2.136   9.200   0.655 -0.0143  0.8906 -0.6825
13611SOL    HW244365   2.202   9.125   0.769 -1.2978 -1.7546 -1.6013
13612SOL     OW44366   6.113   3.050   8.051  0.2340 -0.5608 -0.2367
13612SOL    HW144367   6.129   3.054   8.145  0.3536 -0.9303 -0.2376
13612SOL    HW244368   6.019   3.036   8.042  0.3839 -1.8222 -0.1250
13613SOL     OW44369   3.345   1.972   4.728  0.5473 -0.2845 -0.7537
13613SOL    HW144370   3.436   1.993   4.749  0.8349 -2.3906  0.3387
13613SOL    HW244371   3.293   2.020   4.792  0.9775 -0.3153 -0.3837
13614SOL     OW44372  10.112   4.125   3.504 -0.7698  0.2144 -0.2974
13614SOL    HW144373  10.061   4.166   3.574 -0.1895 -1.2727  1.0705
13614SOL    HW244374  10.083   4.168   3.424 -1.0966  2.3381  0.9076
13615SOL     OW44375   7.698   0.961   1.540  0.6971 -0.2635 -0.1320
13615SOL    HW144376   7.627   1.001   1.490 -0.1357 -0.1233  1.1055
13615SOL    HW244377   7.714   0.877   1.497 -1.2584 -0.9692  0.4096
13616SOL     OW44378   6.016   1.734   3.729 -0.4617  0.2054  0.4634
13616SOL    HW144379   6.034   1.683   3.808  0.0047  1.2018  1.0211
13616SOL    HW244380   6.100   1.772   3.705 -0.4780 -0.5490 -0.8692
13617SOL     OW44381   4.567   4.306   5.446  0.2390 -0.7516  0.4215
13617SOL    HW144382   4.644   4.293   5.500  0.7249 -2.6662 -0.6246
13617SOL    HW244383   4.509   4.234   5.469 -0.1295 -0.7973 -0.5947
13618SOL     OW44384   6.378   8.760   0.177  0.2629  0.0935 -0.3093
13618SOL    HW144385   6.424   8.813   0.113  1.8911  0.4789  1.0907
13618SOL    HW244386   6.425   8.677   0.178 -0.4029 -0.2962 -0.3427
13619SOL     OW44387   1.574   4.495   4.784  0.8224  0.1558  0.4181
13619SOL    HW144388   1.613   4.458   4.705  1.7196 -0.4041  1.1046
13619SOL    HW244389   1.576   4.589   4.770 -0.6056  0.0251 -0.9467
13620SOL     OW44390   1.876   3.895   8.648 -0.1323  0.8327  0.2099
13620SOL    HW144391   1.970   3.877   8.637 -0.4585 -0.9748  0.0224
13620SOL    HW244392   1.869   3.933   8.735  0.4526 -2.2212  1.7221
13621SOL     OW44393   5.355   4.166  10.237 -0.1528 -0.5791  0.4990
13621SOL    HW144394   5.327   4.114  10.313 -1.0118 -0.3436  0.3498
13621SOL    HW244395   5.441   4.200  10.263 -0.7956  0.1991  1.7294
13622SOL     OW44396   3.973  10.104   4.855 -0.1306 -0.4905  0.3430
13622SOL    HW144397   4.008  10.049   4.925  0.4727  1.7707  1.9254
13622SOL    HW244398   3.899  10.149   4.896 -1.5661 -1.1840 -1.3634
13623SOL     OW44399   0.367   5.152   5.691  0.1380  0.1952  0.3199
13623SOL    HW144400   0.306   5.142   5.618 -0.2378 -0.0333  0.6605
13623SOL    HW244401   0.362   5.069   5.738 -0.8345  0.8859  1.5151
13624SOL     OW44402   3.309   2.311   7.541 -0.3085  0.1136  0.0937
13624SOL    HW144403   3.361   2.318   7.461 -0.6729  0.5115 -0.1143
13624SOL    HW244404   3.218   2.314   7.510 -0.4670  1.7076  0.6324
13625SOL     OW44405   0.577  10.200   0.042 -0.7329  0.1178  0.0180
13625SOL    HW144406   0.580  10.124  -0.016 -2.0021  0.0220  0.0594
13625SOL    HW244407   0.561  10.274  -0.016 -3.2910 -0.1224  0.2815
13626SOL     OW44408   4.965   6.858   3.081 -0.3588  0.2943  0.3668
13626SOL    HW144409   4.874   6.873   3.106 -0.2449 -1.7423  2.4415
13626SOL    HW244410   5.016   6.898   3.152  0.3597  1.0860 -0.5817
13627SOL     OW44411   6.761   6.667   1.185 -0.0236 -0.3785  0.0480
13627SOL    HW144412   6.681   6.643   1.139  0.2333 -0.2942 -0.4479
13627SOL    HW244413   6.832   6.643   1.125  0.2877  0.3572  0.1000
13628SOL     OW44414   4.105   9.126   9.656  0.0062  0.6983 -0.3101
13628SOL    HW144415   4.175   9.093   9.600 -0.2704  2.8331 -2.0541
13628SOL    HW244416   4.094   9.058   9.723  2.9718 -0.1978 -0.5883
13629SOL     OW44417   8.292   4.963   0.603 -0.2133 -0.1384 -0.0589
13629SOL    HW144418   8.263   4.872   0.592 -1.0064  0.0353  0.4733
13629SOL    HW244419   8.375   4.967   0.557 -0.1643 -1.1391 -0.0943
13630SOL     OW44420   1.468   6.239  10.901  0.6073 -0.1168 -0.5947
13630SOL    HW144421   1.394   6.192  10.940  1.8710 -1.3889  0.3680
13630SOL    HW244422   1.477   6.201  10.814 -0.3052  0.5778 -1.0170
13631SOL     OW44423   2.125   2.566  10.749 -0.1768 -0.2794  0.4527
13631SOL    HW144424   2.162   2.618  10.677 -1.2862 -0.6702 -0.4308
13631SOL    HW244425   2.062   2.624  10.791 -1.4978 -0.8868 -0.6029
13632SOL     OW44426   8.290   8.573   6.154  0.2933 -0.2873 -0.2036
13632SOL    HW144427   8.298   8.607   6.243  1.0694 -3.3939  1.0512
13632SOL    HW244428   8.380   8.554   6.127 -0.0971 -1.6903 -0.6097
13633SOL     OW44429   4.541   4.888   4.321  0.1072 -0.1059 -0.3624
13633SOL    HW144430   4.544   4.809   4.266 -0.4306 -0.0984 -0.4082
13633SOL    HW244431   4.631   4.899   4.352  0.2195 -0.6563 -0.4755
13634SOL     OW44432   0.119   0.248   6.866 -0.5160 -0.0164 -0.2493
13634SOL    HW144433   0.151   0.294   6.788  0.9636 -0.8314 -0.1506
13634SOL    HW244434   0.195   0.244   6.924 -1.3147 -0.3657  0.7941
13635SOL     OW44435   8.500   1.741   2.731 -0.0239  0.5670 -0.3206
13635SOL    HW144436   8.540   1.790   2.804 -0.9743  3.8866 -1.8311
13635SOL    HW244437   8.529   1.789   2.653 -0.8904 -1.5118 -1.9829
13636SOL     OW44438   0.273   2.027  10.391  0.1745  0.3045  0.3385
13636SOL    HW144439   0.339   1.959  10.403 -0.6556 -0.5072  0.4200
13636SOL    HW244440   0.296   2.069  10.309  1.8328  1.2470  1.2397
13637SOL     OW44441   6.521   4.911   8.641 -0.3149  0.4710 -0.7514
13637SOL    HW144442   6.495   4.991   8.686 -0.2821  0.9927 -1.6335
13637SOL    HW244443   6.439   4.862   8.631 -0.0921 -0.4484  1.3139
13638SOL     OW44444   6.587  10.395   1.214  0.1856 -0.2816 -0.5870
13638SOL    HW144445   6.682  10.398   1.208  0.1538  2.4984 -0.9414
13638SOL    HW244446   6.567  10.304   1.234  2.9251 -0.8786 -0.2092
13639SOL     OW44447   5.083   2.078   6.129 -0.0632 -0.2620  0.2553
13639SOL    HW144448   5.064   1.984   6.136 -0.0197 -0.3073 -0.1986
13639SOL    HW244449   5.160   2.091   6.184  0.8215 -0.7693 -0.8232
13640SOL     OW44450   7.799   3.308  11.112 -0.1305  0.0912 -0.0250
13640SOL    HW144451   7.858   3.300  11.037  0.4340 -2.3217  0.6013
13640SOL    HW244452   7.731   3.243  11.096 -0.0678 -0.3719  1.4658
13641SOL     OW44453   7.857   3.778   4.993  0.5170 -0.0117 -0.2444
13641SOL    HW144454   7.940   3.733   5.007  1.3034  1.2487 -0.7954
13641SOL    HW244455   7.796   3.708   4.968  1.6985 -0.7885 -1.0248
13642SOL     OW44456   4.442   7.169   8.904  0.2917 -0.0924  0.0604
13642SOL    HW144457   4.488   7.127   8.831  0.4044  0.8600 -0.4329
13642SOL    HW244458   4.360   7.120   8.913  0.7896 -0.9542  0.0729
13643SOL     OW44459   0.871  11.012   2.680 -0.1992  0.0159 -0.2868
13643SOL    HW144460   0.847  11.068   2.606 -0.2621 -0.7450 -0.8563
13643SOL    HW244461   0.852  11.065   2.757  0.6429  1.1402 -0.8214
13644SOL     OW44462   8.777   1.096   3.976  0.1162 -0.0394 -0.3746
13644SOL    HW144463   8.824   1.084   4.059  0.4696  0.6130 -0.4696
13644SOL    HW244464   8.823   1.168   3.934 -0.8674  0.4860 -0.5622
13645SOL     OW44465   6.770   8.499   0.947 -0.3011  0.8569 -0.1147
13645SOL    HW144466   6.719   8.533   0.873 -2.1154  1.4467  1.3371
13645SOL    HW244467   6.839   8.564   0.960 -1.8926  2.4627  0.6749
13646SOL     OW44468   5.946  10.618   1.141 -0.3583  0.2477 -0.2913
13646SOL    HW144469   5.934  10.536   1.189 -0.6274 -0.1928 -1.0887
13646SOL    HW244470   5.962  10.684   1.209  0.7358 -0.6073  0.3179
13647SOL     OW44471   3.181  10.595   8.570  0.5485 -0.1761 -0.8631
13647SOL    HW144472   3.150  10.680   8.540 -1.0549 -0.9727 -1.6149
13647SOL    HW244473   3.275  10.607   8.585  0.1915  1.9408 -0.0492
13648SOL     OW44474   9.442   0.515   2.038 -0.3744 -0.3958  0.0896
13648SOL    HW144475   9.479   0.603   2.050  1.4469 -1.0378 -0.3943
13648SOL    HW244476   9.384   0.523   1.963 -0.8992  0.5664  0.5780
13649SOL     OW44477   9.489   5.951  10.806 -0.2918  0.0538 -0.0098
13649SOL    HW144478   9.466   5.978  10.717  0.0694 -2.0226 -0.7743
13649SOL    HW244479   9.584   5.944  10.806 -0.3805 -1.3711  0.0810
13650SOL     OW44480   8.239   0.849   9.214 -0.1079  0.1230  0.8467
13650SOL    HW144481   8.183   0.913   9.259 -0.8606 -0.5995  0.9487
13650SOL    HW244482   8.303   0.822   9.281  0.6327  1.2311  0.6202
13651SOL     OW44483   9.068  10.591   7.880 -0.2712 -0.3859  0.2407
13651SOL    HW144484   9.068  10.646   7.802  2.2042 -0.0656  0.4037
13651SOL    HW244485   8.991  10.534   7.869  0.6103 -1.1611 -3.0131
13652SOL     OW44486   5.696   4.756   6.084 -0.1939 -0.0725 -0.4724
13652SOL    HW144487   5.649   4.679   6.050 -1.3991 -0.2787  1.4846
13652SOL    HW244488   5.663   4.829   6.031 -0.2651 -0.6803 -1.2796
13653SOL     OW44489   2.696   0.455   1.445 -0.5483  0.0644  0.4018
13653SOL    HW144490   2.756   0.449   1.370 -1.1539  1.4530 -0.2361
13653SOL    HW244491   2.751   0.434   1.521  0.1213 -1.2137 -0.3973
13654SOL     OW44492   0.521   2.443   5.648 -0.1335 -0.0131  0.0807
13654SOL    HW144493   0.522   2.348   5.644  1.0083 -0.0687  1.0575
13654SOL    HW244494   0.429   2.466   5.666 -0.2996 -0.9633  0.4716
13655SOL     OW44495   7.574   7.498   5.541 -0.0023  0.4521  0.2742
13655SOL    HW144496   7.561   7.548   5.461 -0.6836  0.0839  0.1409
13655SOL    HW244497   7.617   7.418   5.513 -0.2083  0.3390  0.2757
13656SOL     OW44498   1.061   8.252   7.822  0.4355  0.1551  0.0357
13656SOL    HW144499   1.013   8.221   7.899  2.5386 -1.5514  0.7661
13656SOL    HW244500   1.133   8.304   7.857  0.6740  0.4608 -0.8662
13657SOL     OW44501  10.492   2.541   0.214 -0.2442  0.4293 -0.3279
13657SOL    HW144502  10.567   2.540   0.155 -0.4197  0.5768 -0.5542
13657SOL    HW244503  10.465   2.633   0.217  0.7829  0.7141  1.2704
13658SOL     OW44504   9.576   5.944   9.935  0.1508 -0.1422  0.0455
13658SOL    HW144505   9.660   5.925   9.894  0.6063  2.8355 -0.6532
13658SOL    HW244506   9.593   5.940  10.029  1.0806  0.3321 -0.0927
13659SOL     OW44507  10.340  10.013   5.506  0.0740 -0.0520 -0.0870
13659SOL    HW144508  10.430  10.018   5.538  0.4792  2.5690 -1.3370
13659SOL    HW244509  10.347  10.030   5.412 -1.5880 -1.8305 -0.6041
13660SOL     OW44510   7.933   9.598   1.341  0.0095  0.1064  0.1234
13660SOL    HW144511   7.927   9.632   1.430  1.1573 -0.0668  0.2785
13660SOL    HW244512   7.978   9.666   1.291  1.1182 -0.5918  0.1337
13661SOL     OW44513   0.626   7.902   4.999 -0.1472 -0.4796  0.7654
13661SOL    HW144514   0.708   7.951   4.990 -0.4730 -0.0842 -0.2202
13661SOL    HW244515   0.598   7.886   4.909 -2.0837  0.9597  1.0615
13662SOL     OW44516   8.299  10.399   1.961 -0.9792 -0.3428  0.6622
13662SOL    HW144517   8.334  10.367   2.044 -0.3241  1.2912  1.0449
13662SOL    HW244518   8.312  10.326   1.900  0.4495 -0.8147  1.4917
13663SOL     OW44519   5.050  10.298   9.180  0.0930  0.4219  0.0479
13663SOL    HW144520   5.121  10.357   9.202 -0.6599  1.6744 -0.7551
13663SOL    HW244521   4.998  10.291   9.260  1.5035 -1.1395  0.8886
13664SOL     OW44522   5.185   9.675   9.593  0.3312 -0.5337 -0.5020
13664SOL    HW144523   5.116   9.660   9.658 -0.1512 -3.6684 -1.5459
13664SOL    HW244524   5.233   9.751   9.625 -3.0324  1.2563  0.7625
13665SOL     OW44525   0.848   8.388   0.799  0.2204  0.0612  0.4377
13665SOL    HW144526   0.842   8.391   0.895 -1.7481 -0.6836  0.3825
13665SOL    HW244527   0.810   8.471   0.770 -0.1729 -0.1661  0.2905
13666SOL     OW44528   3.044  10.471   0.289  0.0843 -0.2609 -0.4387
13666SOL    HW144529   3.007  10.483   0.377  0.4771  0.3506 -0.3518
13666SOL    HW244530   3.125  10.423   0.304 -0.4047 -1.1600 -0.5831
13667SOL     OW44531   3.890   6.378   8.898  0.3005 -0.3001  0.1228
13667SOL    HW144532   3.922   6.468   8.907 -1.3622  0.1966  1.4136
13667SOL    HW244533   3.815   6.384   8.839 -0.7909 -0.5458  1.4186
13668SOL     OW44534   6.652   1.128  10.660 -0.7906 -0.3871 -0.1178
13668SOL    HW144535   6.716   1.092  10.598  0.6376  2.0532 -0.2183
13668SOL    HW244536   6.592   1.056  10.678  0.7706 -2.1840 -1.6663
13669SOL     OW44537   3.927  10.937   3.114  0.4131 -0.1456  0.5410
13669SOL    HW144538   3.902  11.024   3.083 -0.7719 -0.3820  0.7633
13669SOL    HW244539   3.925  10.882   3.035  2.2648  0.2243  0.1938
13670SOL     OW44540   7.770   7.742   6.818 -0.4993  0.1313 -0.4615
13670SOL    HW144541   7.859   7.728   6.785  0.2631  1.6305  0.8305
13670SOL    HW244542   7.756   7.836   6.810 -0.5215  0.5027  2.6762
13671SOL     OW44543   0.165   2.140   8.045  0.0193 -0.0149 -0.0214
13671SOL    HW144544   0.152   2.223   7.999  1.2933  0.2836  0.1264
13671SOL    HW244545   0.077   2.113   8.071 -0.3672  1.5792  0.4272
13672SOL     OW44546  10.780   8.591   8.543 -0.5603 -0.3852  0.3749
13672SOL    HW144547  10.762   8.551   8.628 -0.4723  0.4996  0.8209
13672SOL    HW244548  10.857   8.645   8.557 -1.2667  0.7490  0.0617
13673SOL     OW44549   9.940   3.887  10.718  0.1808  0.2231 -0.4379
13673SOL    HW144550   9.975   3.950  10.655  0.6171 -0.4168 -0.8512
13673SOL    HW244551   9.938   3.804  10.671  0.5444 -0.2772  0.4012
13674SOL     OW44552   5.782   1.597   5.569  0.7714 -0.5271  0.1431
13674SOL    HW144553   5.718   1.574   5.502  0.4413  2.3224 -0.6463
13674SOL    HW244554   5.731   1.635   5.640  1.2994 -1.8577  1.3099
13675SOL     OW44555   3.003   7.514   8.579 -0.3880 -1.0553 -0.2147
13675SOL    HW144556   3.074   7.487   8.520  0.3952  2.2403 -1.0137
13675SOL    HW244557   3.042   7.510   8.667  0.7633  0.4093 -0.6189
13676SOL     OW44558   7.548  11.101   8.327 -0.3296  0.6096 -0.1512
13676SOL    HW144559   7.462  11.059   8.318 -1.6447  3.3338 -1.2367
13676SOL    HW244560   7.567  11.137   8.241  0.9851  1.7211  0.5645
13677SOL     OW44561   3.189   7.227   9.401 -0.1679 -0.1479  0.0936
13677SOL    HW144562   3.224   7.193   9.483  1.0183 -1.3797 -0.8880
13677SOL    HW244563   3.259   7.281   9.365 -0.5611  0.1188 -0.2792
13678SOL     OW44564   7.241   8.571   6.777  0.1873 -0.1918 -0.1062
13678SOL    HW144565   7.158   8.547   6.816 -0.1409  0.5721 -0.3339
13678SOL    HW244566   7.306   8.519   6.825 -0.2722  0.1996  0.9663
13679SOL     OW44567   4.296   8.995   5.713 -0.1871 -0.5326  0.0862
13679SOL    HW144568   4.321   9.014   5.804 -0.6937 -2.0807  0.5750
13679SOL    HW244569   4.379   8.980   5.669  0.0294 -0.4133  0.4442
13680SOL     OW44570   1.362   5.820   9.391  0.4146 -0.0255 -0.1363
13680SOL    HW144571   1.443   5.855   9.428 -0.6118  1.2658  1.0117
13680SOL    HW244572   1.387   5.786   9.305  2.2039  0.1252  0.2869
13681SOL     OW44573   8.095   5.794   2.252  0.3318 -0.1297  0.4138
13681SOL    HW144574   8.001   5.779   2.242  0.5528 -0.7715 -0.9002
13681SOL    HW244575   8.112   5.775   2.345 -0.5460 -1.7518  0.2972
13682SOL     OW44576   1.404   6.086   6.350 -0.2721 -0.0665 -0.8697
13682SOL    HW144577   1.493   6.058   6.372  0.0701  1.3312 -0.4124
13682SOL    HW244578   1.352   6.061   6.426 -0.0246  0.3061 -0.5791
13683SOL     OW44579  10.736   3.332  10.062  0.4312 -0.4492 -0.1762
13683SOL    HW144580  10.721   3.324   9.967  0.1108 -0.2929 -0.1392
13683SOL    HW244581  10.649   3.335  10.100  0.3010  4.3885 -0.2592
13684SOL     OW44582   0.086   1.184   4.260  0.5690 -0.3520  0.0131
13684SOL    HW144583   0.119   1.259   4.210 -1.4116  1.4246  1.1873
13684SOL    HW244584   0.143   1.179   4.337  0.4504  0.2667  0.1479
13685SOL     OW44585   8.433   8.561   9.945  0.2662 -0.1608  0.2921
13685SOL    HW144586   8.405   8.651   9.927  0.6528  0.3912  2.2154
13685SOL    HW244587   8.521   8.555   9.909  0.2508  0.2532  0.1843
13686SOL     OW44588  10.991   8.888   5.713  0.3315  0.0640  0.7717
13686SOL    HW144589  11.047   8.810   5.715  0.6131  0.2654  0.7464
13686SOL    HW244590  10.904   8.854   5.691  0.3972 -0.2745  1.0201
13687SOL     OW44591   4.693   7.468   1.332 -0.0700  0.5419 -0.3824
13687SOL    HW144592   4.609   7.480   1.377  1.0240  0.6822  1.7621
13687SOL    HW244593   4.674   7.405   1.262 -1.8561  0.2092  0.3462
13688SOL     OW44594  10.476   2.558   6.255 -0.0239  0.4393  0.5672
13688SOL    HW144595  10.401   2.499   6.242 -1.8267  2.7729 -0.3326
13688SOL    HW244596  10.532   2.542   6.179 -0.3318 -0.2776  0.4794
13689SOL     OW44597   8.565   8.263  10.330  0.2402  1.2355 -0.0504
13689SOL    HW144598   8.521   8.342  10.298 -1.1592  0.8816  0.8997
13689SOL    HW244599   8.579   8.210  10.251 -1.3626  1.2266 -0.3609
13690SOL     OW44600   2.472   3.886   7.771  0.4081 -0.0279  0.4558
13690SOL    HW144601   2.509   3.878   7.683  0.0496 -0.9513  0.3748
13690SOL    HW244602   2.546   3.867   7.829  0.6532  0.6139  0.3640
13691SOL     OW44603   1.124   6.350   3.970  0.2019 -0.1361  0.3705
13691SOL    HW144604   1.147   6.413   4.038 -0.3824  0.2744  0.1845
13691SOL    HW244605   1.034   6.370   3.946  0.0253 -0.9926  0.2589
13692SOL     OW44606   3.441   7.231   6.245  0.0070 -0.4795  0.0447
13692SOL    HW144607   3.441   7.293   6.172  1.0190  1.1882  1.3755
13692SOL    HW244608   3.414   7.148   6.206 -1.8968  0.8641 -1.7394
13693SOL     OW44609   1.551   4.004   4.498 -0.1690  0.7052  0.5562
13693SOL    HW144610   1.639   4.009   4.536 -0.6282  1.5284  1.5629
13693SOL    HW244611   1.554   4.064   4.423  0.0769  0.8588  0.6869
13694SOL     OW44612   0.603   1.028   1.186 -0.5750  0.1778 -0.2928
13694SOL    HW144613   0.629   1.120   1.194 -1.0393  0.4028 -1.1869
13694SOL    HW244614   0.509   1.028   1.199 -0.5488 -0.1986 -0.1010
13695SOL     OW44615   6.141   0.723   8.173 -0.5115  0.1474 -0.1838
13695SOL    HW144616   6.155   0.720   8.078 -2.9603  1.2076 -0.6431
13695SOL    HW244617   6.068   0.783   8.185  0.8020  1.3663  2.5515
13696SOL     OW44618   3.454   9.313   2.002 -0.4170  0.0705 -0.0075
13696SOL    HW144619   3.438   9.295   1.910 -1.8472 -0.7965  0.3891
13696SOL    HW244620   3.523   9.251   2.027  1.8080  1.9432 -1.0298
13697SOL     OW44621  10.844   2.767   2.258 -0.0445 -0.9168 -0.4468
13697SOL    HW144622  10.792   2.759   2.178 -0.6817  0.6663 -0.2235
13697SOL    HW244623  10.852   2.677   2.290  0.3633 -1.6193 -2.3589
13698SOL     OW44624   3.089   1.694   5.687  0.2767 -0.5302 -0.6086
13698SOL    HW144625   3.025   1.674   5.619  2.0288 -1.8435 -1.9787
13698SOL    HW244626   3.052   1.656   5.766 -1.5189  0.4794 -0.8967
13699SOL     OW44627   8.724   0.117   7.921  0.0710 -0.0886 -1.1088
13699SOL    HW144628   8.716   0.135   8.015  2.9722  1.0284 -0.9623
13699SOL    HW244629   8.717   0.203   7.880  2.7542  0.0554 -1.4652
13700SOL     OW44630   0.871   1.577   2.740 -0.2999 -0.0499  0.4059
13700SOL    HW144631   0.882   1.663   2.782 -2.3711  0.8490 -0.7276
13700SOL    HW244632   0.825   1.525   2.805 -0.3699  0.1900  0.5514
13701SOL     OW44633   9.756   3.092   9.348  0.2002  0.1938 -0.3012
13701SOL    HW144634   9.812   3.168   9.364 -0.2699  0.4715  0.0427
13701SOL    HW244635   9.770   3.071   9.256  0.9308  0.2103 -0.2031
13702SOL     OW44636   7.145   1.883   8.872  0.7992  0.0941 -0.1364
13702SOL    HW144637   7.231   1.892   8.830  0.8260 -0.8160 -0.3047
13702SOL    HW244638   7.097   1.824   8.814  0.0942  0.5122  0.0132
13703SOL     OW44639   4.915   9.053  10.026  0.6405  0.3305 -0.2238
13703SOL    HW144640   4.943   9.123  10.085  2.8457  0.0309 -0.8058
13703SOL    HW244641   4.984   8.987  10.034 -1.8438 -2.2771  1.0349
13704SOL     OW44642   9.785   2.878   6.925 -0.3377  0.1506 -0.3474
13704SOL    HW144643   9.839   2.947   6.964  2.1141 -2.5790  1.5533
13704SOL    HW244644   9.827   2.860   6.840  0.9954 -1.0061  0.5125
13705SOL     OW44645   4.552   8.807   8.359  0.4186 -0.1935 -0.2937
13705SOL    HW144646   4.461   8.823   8.337  0.0734 -0.5572  0.7845
13705SOL    HW244647   4.580   8.886   8.406  0.1724 -0.7038  0.7467
13706SOL     OW44648   5.474   6.037   7.317 -0.1550 -0.0145  0.3845
13706SOL    HW144649   5.564   6.014   7.298 -0.0555  0.6800 -0.0381
13706SOL    HW244650   5.452   5.988   7.396  1.0961  0.9962  1.3992
13707SOL     OW44651   4.820   7.740   2.990  0.6956 -0.8568  0.7081
13707SOL    HW144652   4.743   7.731   3.046  1.3399 -2.7800  1.3659
13707SOL    HW244653   4.791   7.711   2.904 -0.0439  1.1904  0.2318
13708SOL     OW44654   9.147   3.817   1.207 -0.1172 -0.1719 -0.0727
13708SOL    HW144655   9.197   3.891   1.173 -0.4297  0.1776  0.2068
13708SOL    HW244656   9.181   3.741   1.160 -0.0093  0.1904 -0.5939
13709SOL     OW44657   7.505   1.198  10.837 -0.4410 -0.5177 -0.8118
13709SOL    HW144658   7.568   1.269  10.820  1.0628 -0.2046  4.3713
13709SOL    HW244659   7.544   1.122  10.794  1.7719  0.4218 -0.6521
13710SOL     OW44660   1.982   2.839   4.605  0.0435 -0.5788  0.4723
13710SOL    HW144661   1.945   2.916   4.562 -0.5094 -0.7196  0.7030
13710SOL    HW244662   1.914   2.809   4.665  0.5917 -0.7337  1.0242
13711SOL     OW44663   9.787   5.229  10.429  0.0077 -0.0702  0.5523
13711SOL    HW144664   9.879   5.232  10.404  0.1392 -0.0873  1.0238
13711SOL    HW244665   9.786   5.255  10.521 -0.6356  1.5872  0.1301
13712SOL     OW44666   4.830   6.361   4.044  0.0079  0.0736  0.5143
13712SOL    HW144667   4.855   6.321   3.960  2.0728  1.9889  0.1207
13712SOL    HW244668   4.745   6.400   4.028  1.0248  1.7402 -1.2445
13713SOL     OW44669   3.003   2.625   9.541  0.4171  0.4415 -0.7376
13713SOL    HW144670   3.069   2.594   9.604  0.0324 -1.0923 -1.0367
13713SOL    HW244671   3.019   2.571   9.463 -1.6842 -0.5581 -0.5480
13714SOL     OW44672  10.301   5.023  10.530  0.2662 -0.3723  0.2209
13714SOL    HW144673  10.328   5.031  10.439 -0.1401 -1.3326 -0.0031
13714SOL    HW244674  10.351   4.948  10.564 -0.3151 -0.6513  0.4892
13715SOL     OW44675   6.021   7.047  10.830  0.4859 -0.4404  0.0374
13715SOL    HW144676   5.933   7.071  10.861 -0.1649  0.9021 -2.5398
13715SOL    HW244677   6.079   7.112  10.868 -0.3229  1.3360 -1.6251
13716SOL     OW44678   1.523   4.207   6.016 -0.6423  0.2066 -0.3142
13716SOL    HW144679   1.489   4.297   6.025  1.1108  0.7269  2.1125
13716SOL    HW244680   1.512   4.187   5.923 -1.0726  2.9563 -0.9666
13717SOL     OW44681   1.455   6.703   1.067 -0.7091 -0.1311 -0.0080
13717SOL    HW144682   1.531   6.666   1.021 -1.4792 -1.4802 -0.2503
13717SOL    HW244683   1.396   6.730   0.997 -1.5795 -1.5428  0.1372
13718SOL     OW44684   6.117  10.744   8.062 -0.0301 -0.0463  0.0926
13718SOL    HW144685   6.127  10.679   7.991  0.2311 -1.9502  1.7760
13718SOL    HW244686   6.204  10.783   8.071 -0.1738  0.5357 -0.9028
13719SOL     OW44687   0.949   2.284   7.343 -0.3278  0.1591  0.0420
13719SOL    HW144688   1.030   2.333   7.333  0.0891 -0.8065 -1.7310
13719SOL    HW244689   0.909   2.287   7.256 -1.6618 -0.2938  0.6195
13720SOL     OW44690   3.570   5.399   9.827  0.2307  0.7655 -0.0422
13720SOL    HW144691   3.612   5.341   9.763 -0.5982  0.1013  0.0030
13720SOL    HW244692   3.508   5.343   9.874  0.7841  1.2481  1.3221
13721SOL     OW44693   6.089   8.969  10.618  0.2429 -0.1950  0.2796
13721SOL    HW144694   6.078   9.051  10.666 -0.4129 -0.9173  1.4157
13721SOL    HW244695   6.006   8.923  10.631  0.7335 -1.1932 -0.0277
13722SOL     OW44696   2.689   3.376   2.755  0.9087 -0.0805 -0.3200
13722SOL    HW144697   2.675   3.446   2.819  0.0496  0.9421 -1.5779
13722SOL    HW244698   2.750   3.316   2.799 -0.9790 -0.3726  2.1585
13723SOL     OW44699   0.793   5.254   5.855 -0.3342 -0.7001  0.7512
13723SOL    HW144700   0.742   5.183   5.817  1.3330 -1.2519 -0.5893
13723SOL    HW244701   0.792   5.323   5.788  0.8670 -0.8472  0.5424
13724SOL     OW44702   1.404   8.740   2.249 -0.7050 -0.3827  0.3384
13724SOL    HW144703   1.350   8.793   2.307  0.2069  0.5037  0.4165
13724SOL    HW244704   1.441   8.672   2.305  1.0140  1.0885  1.0983
13725SOL     OW44705  11.094   6.553  10.151  0.1301  0.3513  0.4657
13725SOL    HW144706  11.080   6.644  10.176 -1.2793 -0.1041  1.4941
13725SOL    HW244707  11.178   6.530  10.191 -0.4980  0.6288  2.0384
13726SOL     OW44708   5.770   5.865   8.407 -0.8045  0.0304 -0.5355
13726SOL    HW144709   5.711   5.796   8.376 -1.0484  0.3531 -0.7948
13726SOL    HW244710   5.854   5.821   8.422 -1.0099 -0.3552 -0.5265
13727SOL     OW44711   4.384  10.740   2.775 -0.3112  0.5229 -0.3402
13727SOL    HW144712   4.300  10.721   2.734 -0.8654 -1.6943  1.5874
13727SOL    HW244713   4.390  10.835   2.774 -2.6816  0.7371 -0.8656
13728SOL     OW44714  10.798   5.923   7.408 -0.1639 -0.0984  0.3012
13728SOL    HW144715  10.765   5.967   7.486  2.2337  4.6511 -0.9617
13728SOL    HW244716  10.725   5.924   7.347 -0.2545  2.4486  0.3399
13729SOL     OW44717   0.187   8.971   6.170  0.5086  0.3529 -0.0670
13729SOL    HW144718   0.263   9.017   6.135 -0.8672  2.7066 -0.2101
13729SOL    HW244719   0.212   8.948   6.260  1.0637  2.0293  0.2400
13730SOL     OW44720   9.040   3.702   5.897  0.0195 -0.3679  0.1165
13730SOL    HW144721   8.958   3.659   5.921 -0.4317  0.1479 -0.4903
13730SOL    HW244722   9.084   3.716   5.981 -1.1886  0.7118  0.6018
13731SOL     OW44723   1.367   4.957   9.819 -0.5252 -0.6269 -0.0949
13731SOL    HW144724   1.341   4.947   9.727 -0.9080  1.0379 -0.1936
13731SOL    HW244725   1.286   4.980   9.864  0.2996  2.9694 -0.1278
13732SOL     OW44726   5.952   9.682   1.586 -0.0715 -0.7038 -0.1948
13732SOL    HW144727   5.917   9.604   1.543 -3.2706  0.3004  0.3790
13732SOL    HW244728   5.955   9.658   1.679  0.9224 -0.7963 -0.2410
13733SOL     OW44729   9.221   2.032   7.330  0.4391  0.0533  0.3200
13733SOL    HW144730   9.270   1.957   7.362  0.0599 -0.7310 -0.8801
13733SOL    HW244731   9.289   2.095   7.304  0.7802 -0.3500  0.2234
13734SOL     OW44732   1.247   5.561   2.943 -0.2889 -0.3996  0.5589
13734SOL    HW144733   1.340   5.571   2.966 -0.0970 -0.8293 -0.0089
13734SOL    HW244734   1.247   5.542   2.850 -1.0160  0.5431  0.3505
13735SOL     OW44735   1.568   8.832   0.630 -0.6262  0.7729  0.0326
13735SOL    HW144736   1.661   8.851   0.612 -0.5379 -1.3763 -2.3085
13735SOL    HW244737   1.550   8.751   0.582 -3.5968  0.7932  0.9098
13736SOL     OW44738   2.776   1.249   8.224 -0.9097  0.1247  0.4128
13736SOL    HW144739   2.820   1.320   8.271 -0.7758  1.1312 -1.1468
13736SOL    HW244740   2.779   1.175   8.284  1.5607  0.5913  0.9901
13737SOL     OW44741   0.593   8.149   2.054 -0.4908  0.2781 -0.0116
13737SOL    HW144742   0.602   8.055   2.063  1.4567  0.5685  2.0200
13737SOL    HW244743   0.499   8.163   2.042 -1.1770 -1.7878  2.1596
13738SOL     OW44744   1.965   4.902   6.053  0.0390 -0.5535 -0.2521
13738SOL    HW144745   1.874   4.917   6.027  0.5171  0.9147 -1.2366
13738SOL    HW244746   1.981   4.810   6.032 -0.6041 -0.2906 -2.1509
13739SOL     OW44747   0.473  10.945   7.522 -0.9451  0.0445  0.1945
13739SOL    HW144748   0.535  10.932   7.449 -1.6090  1.3390 -0.6290
13739SOL    HW244749   0.432  10.859   7.532 -0.2591 -0.3767 -0.4092
13740SOL     OW44750   5.503   6.609   6.334 -0.1318 -0.0563  0.2541
13740SOL    HW144751   5.525   6.600   6.427 -0.1754 -0.2866  0.2425
13740SOL    HW244752   5.566   6.672   6.300 -0.5583  0.5554  0.5967
13741SOL     OW44753   6.153   3.484   2.012 -0.2223 -0.6914 -0.2400
13741SOL    HW144754   6.225   3.535   2.051 -0.6323  1.0365 -1.6223
13741SOL    HW244755   6.184   3.462   1.925 -0.8654 -1.0534 -0.3803
13742SOL     OW44756   3.915   6.528   1.673 -0.4142 -0.1504 -0.4208
13742SOL    HW144757   3.924   6.464   1.603  2.4551 -1.7785  1.2314
13742SOL    HW244758   3.991   6.586   1.662 -1.4233  1.2679 -0.2032
13743SOL     OW44759   1.433   7.968   2.795 -0.2086 -0.1283 -0.5380
13743SOL    HW144760   1.500   7.995   2.732 -0.3227 -0.4227 -0.7860
13743SOL    HW244761   1.460   8.010   2.877  0.7844 -0.9607 -0.4132
13744SOL     OW44762   1.217   9.429   0.861 -0.7896 -0.1527 -0.4484
13744SOL    HW144763   1.250   9.407   0.774 -1.3247 -0.1443 -0.6547
13744SOL    HW244764   1.280   9.388   0.921 -0.1251  0.2842 -0.8336
13745SOL     OW44765   7.353   1.535   7.316 -0.4043 -0.4342  0.0316
13745SOL    HW144766   7.306   1.615   7.295 -1.2992 -0.8766  0.3086
13745SOL    HW244767   7.427   1.534   7.254  0.4859  1.3284  0.9649
13746SOL     OW44768   1.570   4.992   6.266 -0.0533 -0.5787  0.2453
13746SOL    HW144769   1.599   5.055   6.332  1.1313 -1.5627  0.6951
13746SOL    HW244770   1.496   4.947   6.306 -1.0732  0.6554 -0.1753
13747SOL     OW44771  10.213   1.587   9.530 -0.7852 -0.2082  0.0353
13747SOL    HW144772  10.270   1.658   9.560 -0.1449 -0.5757 -0.2825
13747SOL    HW244773  10.173   1.620   9.450 -0.7577 -0.0786  0.0741
13748SOL     OW44774   7.611   8.537   8.036  0.3320  0.4050 -0.5686
13748SOL    HW144775   7.522   8.567   8.018  0.2732  0.4035 -0.2746
13748SOL    HW244776   7.607   8.442   8.025  0.1329  0.3266  0.1302
13749SOL     OW44777   0.858   7.515   0.888 -0.1599 -0.2170  0.1706
13749SOL    HW144778   0.929   7.459   0.918  0.7823  1.0345  0.3635
13749SOL    HW244779   0.816   7.546   0.969 -0.3551 -0.2301  0.0759
13750SOL     OW44780   9.225   8.038   0.029 -0.4976 -0.5956  0.1882
13750SOL    HW144781   9.197   8.070   0.115  0.2926 -1.9774  0.9863
13750SOL    HW244782   9.204   8.110  -0.030 -1.4409  0.2298  1.4615
13751SOL     OW44783   9.479   4.968   2.708  0.1370  0.0173  0.1289
13751SOL    HW144784   9.485   5.034   2.639 -1.2530 -0.4985 -0.5175
13751SOL    HW244785   9.555   4.985   2.764  0.8168  0.9852 -1.0452
13752SOL     OW44786   3.852   2.452   4.573  0.0307  0.7626  0.6851
13752SOL    HW144787   3.778   2.490   4.619 -0.0641  0.6501  0.6274
13752SOL    HW244788   3.870   2.513   4.502 -1.7089 -0.4825 -0.9458
13753SOL     OW44789   4.932   0.313   1.279  0.1477 -0.4364 -0.0619
13753SOL    HW144790   4.943   0.272   1.193  0.5008  0.0244 -0.2420
13753SOL    HW244791   4.977   0.253   1.339  0.8840 -0.2014 -0.3585
13754SOL     OW44792   2.659   7.205   8.405 -0.2828  0.0169  0.0583
13754SOL    HW144793   2.668   7.223   8.499  1.8343  0.3284 -0.1607
13754SOL    HW244794   2.749   7.204   8.372 -1.0375  1.1806 -2.2168
13755SOL     OW44795  10.049   4.793   5.646 -0.0254 -0.0264 -0.3802
13755SOL    HW144796   9.985   4.864   5.644 -0.2055 -0.1851 -0.2807
13755SOL    HW244797  10.054   4.768   5.738  0.0164 -0.1589 -0.4180
13756SOL     OW44798   6.753   0.187   1.733  0.1218  0.4540  0.3297
13756SOL    HW144799   6.724   0.138   1.656  0.9217 -1.1654  1.0136
13756SOL    HW244800   6.824   0.134   1.770  0.8435  2.0153  1.2674
13757SOL     OW44801   9.375   1.727   3.351  0.7611 -0.1437 -0.0250
13757SOL    HW144802   9.449   1.787   3.351 -0.0832  0.9427 -0.5877
13757SOL    HW244803   9.306   1.775   3.396 -0.4206 -0.0047 -1.8553
13758SOL     OW44804   8.827   3.279   4.127 -0.4411  0.9346 -0.1476
13758SOL    HW144805   8.806   3.187   4.144  2.1955  0.3843  0.5660
13758SOL    HW244806   8.832   3.319   4.213  1.8277  0.8667 -0.1989
13759SOL     OW44807   8.186   0.396   2.605 -1.1623 -0.2854  0.3418
13759SOL    HW144808   8.115   0.340   2.575 -0.6034  0.8897 -3.8485
13759SOL    HW244809   8.160   0.485   2.578  0.1311  0.7731  2.3438
13760SOL     OW44810  10.772   8.416   5.645 -0.8452 -0.2855 -0.2088
13760SOL    HW144811  10.822   8.371   5.713 -0.4194  0.1537 -0.2223
13760SOL    HW244812  10.699   8.458   5.692 -1.2045 -0.9257 -0.1887
13761SOL     OW44813   9.648   0.995  10.431  0.0253  0.3346  0.1044
13761SOL    HW144814   9.736   1.007  10.396  0.7554 -1.2151  1.2849
13761SOL    HW244815   9.642   1.059  10.502  0.7229 -0.4651  0.8990
13762SOL     OW44816   4.714   6.285   6.152  0.0598  0.0336  0.2276
13762SOL    HW144817   4.792   6.284   6.208  1.5622  1.0348 -1.7165
13762SOL    HW244818   4.734   6.223   6.082  0.2362  2.0467 -1.6137
13763SOL     OW44819   6.044   2.152  10.429 -0.6121 -0.1049 -0.2795
13763SOL    HW144820   6.024   2.076  10.484 -1.9382  0.2472 -0.2401
13763SOL    HW244821   5.980   2.148  10.358  0.6014 -0.1321 -1.4191
13764SOL     OW44822   6.988  10.465   6.959  0.4483  0.0898  0.0149
13764SOL    HW144823   7.050  10.501   7.022 -1.3196  4.0931 -0.2381
13764SOL    HW244824   7.010  10.508   6.877 -2.8600  2.1451  0.0379
13765SOL     OW44825   0.247   6.135   7.235 -0.4621 -0.0678 -0.1348
13765SOL    HW144826   0.284   6.076   7.301 -0.3120 -0.0836 -0.2317
13765SOL    HW244827   0.270   6.223   7.264 -0.0378 -0.0941 -0.3795
13766SOL     OW44828   2.612   1.103   4.734 -0.3038  0.2056  0.3371
13766SOL    HW144829   2.535   1.055   4.705  0.6014 -0.6693 -0.6579
13766SOL    HW244830   2.678   1.087   4.667  0.8857  0.6137  1.3692
13767SOL     OW44831  10.042   1.202   4.540 -0.2707  0.4930  0.0007
13767SOL    HW144832  10.049   1.125   4.597  0.3703 -0.4351 -1.2767
13767SOL    HW244833   9.975   1.178   4.476  0.9106  0.3956 -1.2555
13768SOL     OW44834   7.400  10.145   0.072  0.1029  0.1364 -0.1918
13768SOL    HW144835   7.474  10.135   0.132 -0.2426  2.1183  0.6393
13768SOL    HW244836   7.431  10.204   0.004 -0.9031  1.7076  0.6345
13769SOL     OW44837  10.179   2.722   7.842  0.3432 -0.0946 -0.0091
13769SOL    HW144838  10.235   2.718   7.764 -1.4546  0.9059 -1.4500
13769SOL    HW244839  10.150   2.632   7.855  0.0044 -0.1432 -1.0346
13770SOL     OW44840  10.638   4.697  10.036 -0.5191  0.1521 -0.2285
13770SOL    HW144841  10.681   4.614  10.015  1.8988  1.2923 -0.1504
13770SOL    HW244842  10.545   4.680  10.024 -0.0167 -2.2675 -1.2119
13771SOL     OW44843   5.094   6.611   6.168 -0.1383  0.0018  0.0491
13771SOL    HW144844   5.160   6.673   6.138  0.7348 -0.5238  0.8141
13771SOL    HW244845   5.014   6.662   6.174  0.1395  0.6061 -1.0881
13772SOL     OW44846   1.610   8.639   4.303  0.0173  0.1318  0.1044
13772SOL    HW144847   1.626   8.705   4.236 -2.7054 -0.8585 -1.7237
13772SOL    HW244848   1.615   8.556   4.255 -3.1186 -0.5599  0.7351
13773SOL     OW44849   2.304  10.800   6.544 -0.1498 -0.2311 -0.0123
13773SOL    HW144850   2.256  10.867   6.495  1.0668  0.0025 -0.9274
13773SOL    HW244851   2.258  10.795   6.628 -1.2869  0.5364 -0.5527
13774SOL     OW44852   0.152   7.937   9.232  0.1938  0.1088 -0.3805
13774SOL    HW144853   0.176   7.911   9.321 -1.6465  0.9884  0.4116
13774SOL    HW244854   0.236   7.950   9.187  1.1564 -1.6744  0.7967
13775SOL     OW44855   2.352  10.488   6.968  0.5901  0.0771 -0.6980
13775SOL    HW144856   2.283  10.512   6.906  0.9708 -0.0022 -1.1608
13775SOL    HW244857   2.431  10.478   6.914  1.2254  1.2567 -0.0432
13776SOL     OW44858   3.011   1.511   7.351  0.3266  0.2811 -0.3687
13776SOL    HW144859   3.075   1.487   7.417  0.8766  0.9649 -0.6346
13776SOL    HW244860   3.052   1.489   7.267  1.1841  2.6831 -0.6792
13777SOL     OW44861   7.796   3.333   5.050 -0.0548 -0.0128  0.9741
13777SOL    HW144862   7.789   3.362   5.141  0.4273 -1.6391  1.5751
13777SOL    HW244863   7.710   3.295   5.030  0.1434 -0.5374  1.0955
13778SOL     OW44864   1.260   8.662   9.901 -0.3375 -0.4664  0.4033
13778SOL    HW144865   1.322   8.677   9.973  0.5286 -0.3250 -0.3508
13778SOL    HW244866   1.309   8.609   9.838 -0.8100  0.0697 -0.4357
13779SOL     OW44867   2.818   7.211   5.145 -0.1353 -0.5626 -0.0707
13779SOL    HW144868   2.750   7.277   5.132  1.0604  0.6927 -0.2312
13779SOL    HW244869   2.898   7.252   5.112  0.9493 -1.4954  1.2739
13780SOL     OW44870   2.081   5.172   8.311  0.6690 -0.1792 -0.0796
13780SOL    HW144871   2.033   5.151   8.231 -1.1150  1.1996  0.5719
13780SOL    HW244872   2.111   5.262   8.298  0.5128 -0.0082  0.7398
13781SOL     OW44873  10.307   3.771   4.356 -0.3311 -0.0682  1.2374
13781SOL    HW144874  10.368   3.768   4.429  1.8052  1.7277 -0.3078
13781SOL    HW244875  10.289   3.864   4.343  0.9535 -0.0961 -1.6430
13782SOL     OW44876   3.852   6.720   7.373 -0.2528 -0.2896 -0.3193
13782SOL    HW144877   3.882   6.782   7.306 -0.8363 -0.0213 -0.3305
13782SOL    HW244878   3.791   6.663   7.327  0.7933 -1.3228 -0.4841
13783SOL     OW44879   9.569   2.389   1.142 -0.2855 -0.1550 -0.0810
13783SOL    HW144880   9.533   2.300   1.152  0.2235 -0.3573  0.0115
13783SOL    HW244881   9.528   2.439   1.212 -1.0981 -0.1418 -0.5563
13784SOL     OW44882   8.121   6.133   0.369 -0.1844 -0.0778  0.4827
13784SOL    HW144883   8.028   6.152   0.384 -0.0264  0.8246  0.4021
13784SOL    HW244884   8.154   6.212   0.326  0.5972 -0.4425  0.4043
13785SOL     OW44885   8.090   3.820   5.315 -0.2472 -0.4246  0.3373
13785SOL    HW144886   8.085   3.912   5.339  0.4336 -0.0921 -0.6937
13785SOL    HW244887   8.178   3.809   5.279 -1.0533 -0.9229 -1.6325
13786SOL     OW44888   0.367  10.647   7.289  0.4047  0.8797  0.3118
13786SOL    HW144889   0.401  10.639   7.378  2.1044  1.6015 -0.2302
13786SOL    HW244890   0.428  10.597   7.235 -1.1614 -0.4056 -0.3701
13787SOL     OW44891   1.208   7.245   8.634 -0.3225  0.5114 -0.4317
13787SOL    HW144892   1.121   7.276   8.612 -0.4926 -0.6076 -1.4042
13787SOL    HW244893   1.267   7.292   8.575 -0.1939  1.6119  0.5381
13788SOL     OW44894   1.991   0.100   5.119  0.0456  0.0669  0.5066
13788SOL    HW144895   1.960   0.175   5.069  0.2545 -1.1570 -1.5764
13788SOL    HW244896   2.077   0.080   5.082 -0.8527 -2.4135 -0.4419
13789SOL     OW44897   7.845  11.088   3.830 -0.2096  0.2657 -0.0401
13789SOL    HW144898   7.824  11.035   3.753 -0.1164 -1.1597  0.8821
13789SOL    HW244899   7.885  11.168   3.794 -2.8387  1.0051 -1.6102
13790SOL     OW44900   8.092   9.839   4.430  0.0123 -0.2309 -0.5508
13790SOL    HW144901   8.092   9.751   4.467  0.3902 -0.7640 -1.7866
13790SOL    HW244902   8.184   9.863   4.423 -0.0985  0.7353  0.8062
13791SOL     OW44903   8.234   0.279   3.198 -0.1541 -0.2528  0.4647
13791SOL    HW144904   8.275   0.323   3.123 -2.7743 -0.0878 -0.9790
13791SOL    HW244905   8.286   0.199   3.210 -0.7927 -1.3411 -2.8952
13792SOL     OW44906  10.179   9.586  10.477 -0.0482  0.5710  0.2721
13792SOL    HW144907  10.154   9.673  10.508 -1.1164  0.0202  1.0295
13792SOL    HW244908  10.098   9.550  10.439  0.0021 -0.5920  1.2038
13793SOL     OW44909  11.110   4.728   4.988  0.6774 -0.4194 -0.2931
13793SOL    HW144910  11.180   4.674   5.025  0.9422 -0.7172 -1.2161
13793SOL    HW244911  11.079   4.678   4.912  0.6311  0.5183 -0.9050
13794SOL     OW44912   8.932   7.897   0.012 -0.8219  0.1495  0.4307
13794SOL    HW144913   8.869   7.867  -0.053 -0.5649 -0.0538  0.2746
13794SOL    HW244914   8.996   7.949  -0.037 -1.6994  1.6624  0.8105
13795SOL     OW44915  10.495   8.157   0.281  0.5681 -0.2257 -0.4280
13795SOL    HW144916  10.473   8.134   0.191 -1.9191 -2.3620  0.5769
13795SOL    HW244917  10.471   8.249   0.289 -0.0544 -0.2543 -1.7198
13796SOL     OW44918   9.199   2.647   4.768 -0.4653 -0.0731 -0.2829
13796SOL    HW144919   9.208   2.650   4.672  0.1595  1.2789 -0.2138
13796SOL    HW244920   9.119   2.597   4.783 -1.3321  0.8463 -1.5761
13797SOL     OW44921   4.938   3.311  10.408  0.0663 -0.0657  0.5408
13797SOL    HW144922   4.875   3.299  10.479 -0.6073 -1.3660 -0.2189
13797SOL    HW244923   4.968   3.401  10.417  1.4297 -0.6926  3.5881
13798SOL     OW44924   1.736   7.764   5.065  0.4349 -0.0981  0.1404
13798SOL    HW144925   1.747   7.858   5.052 -2.1581  0.8502  3.3877
13798SOL    HW244926   1.804   7.740   5.129 -0.8646  0.3779  1.7685
13799SOL     OW44927   8.348   5.108  10.065  0.2494 -0.4864  0.3007
13799SOL    HW144928   8.316   5.054   9.994 -0.4549  2.6476 -1.9970
13799SOL    HW244929   8.441   5.119  10.047  0.4271 -1.0153  0.8602
13800SOL     OW44930   2.720  10.541   5.540 -0.6166 -0.4056  0.0916
13800SOL    HW144931   2.745  10.491   5.463  1.3259  0.2454  0.2507
13800SOL    HW244932   2.781  10.514   5.608 -0.3127  1.2197  0.5195
13801SOL     OW44933   0.968   6.654   2.616 -0.1186 -0.5858 -0.0035
13801SOL    HW144934   0.930   6.739   2.596 -1.6045 -1.2167 -0.0472
13801SOL    HW244935   1.003   6.662   2.704  0.4912  0.2918 -0.3146
13802SOL     OW44936   0.804   3.214   3.689  0.2653 -0.3066  0.0611
13802SOL    HW144937   0.813   3.306   3.663  1.2496 -0.1435  0.9174
13802SOL    HW244938   0.766   3.217   3.776 -2.6113 -0.8362 -1.0578
13803SOL     OW44939   4.950   5.753   5.436 -0.1671  0.1888  0.0759
13803SOL    HW144940   4.928   5.693   5.364 -1.6777  0.5826  0.1601
13803SOL    HW244941   4.985   5.830   5.393 -1.4143  0.5730 -0.3022
13804SOL     OW44942   3.381   7.887   8.311  0.1109  0.1967 -0.1234
13804SOL    HW144943   3.425   7.816   8.264  1.3777  0.1780  0.9923
13804SOL    HW244944   3.350   7.946   8.243 -0.8447 -1.3357 -1.0801
13805SOL     OW44945   9.757   5.112   3.422  0.4822  0.0783 -0.1619
13805SOL    HW144946   9.784   5.086   3.334  0.0064 -0.1070 -0.2567
13805SOL    HW244947   9.677   5.163   3.409 -0.7844 -1.6900  0.2910
13806SOL     OW44948   4.378  10.004   3.088 -0.3476  0.0120  0.6817
13806SOL    HW144949   4.423   9.923   3.065 -0.6285  0.0421 -0.0046
13806SOL    HW244950   4.448  10.065   3.111  0.0417  0.2861 -1.0778
13807SOL     OW44951   0.040   3.345   5.209 -0.7931  0.6473 -0.1077
13807SOL    HW144952   0.085   3.412   5.261 -0.5854  0.2665  0.2106
13807SOL    HW244953   0.107   3.313   5.149 -0.1929 -0.9245  1.3172
13808SOL     OW44954   8.520   0.751   2.607  0.0540 -0.2905 -0.1331
13808SOL    HW144955   8.607   0.740   2.645 -0.1601 -1.7898 -0.0440
13808SOL    HW244956   8.512   0.681   2.543 -0.7718  0.3586 -0.7677
13809SOL     OW44957   5.104   2.896   9.189 -0.0982  0.4797  0.3873
13809SOL    HW144958   5.179   2.898   9.248 -0.2377  1.6598  0.5394
13809SOL    HW244959   5.041   2.838   9.232  0.7812 -0.6644  0.1715
13810SOL     OW44960   9.189   2.217   2.771  0.5173  0.1341 -0.5206
13810SOL    HW144961   9.158   2.291   2.824 -0.0540 -0.4565 -0.0224
13810SOL    HW244962   9.273   2.192   2.811  0.3821  0.0774 -0.2720
13811SOL     OW44963   1.386   1.932   7.161 -0.2337 -0.9114  0.2767
13811SOL    HW144964   1.436   1.945   7.241  0.4644 -1.7971  0.0037
13811SOL    HW244965   1.300   1.969   7.180  0.2117 -0.2738  1.1028
13812SOL     OW44966  10.662   5.785   5.001 -0.0856 -0.6908 -0.1282
13812SOL    HW144967  10.678   5.846   5.073 -2.2783  1.0806 -1.0163
13812SOL    HW244968  10.692   5.832   4.923 -0.7115 -1.2031 -0.6916
13813SOL     OW44969   5.545   1.518   0.120 -0.4238 -0.3000 -0.0305
13813SOL    HW144970   5.535   1.429   0.152 -1.9378  0.3333  1.3685
13813SOL    HW244971   5.618   1.554   0.171 -0.3944 -0.4590  0.0388
13814SOL     OW44972   5.028   0.564   1.049  1.0960  0.2807 -0.3325
13814SOL    HW144973   5.006   0.653   1.022 -2.5937 -0.3500  0.1410
13814SOL    HW244974   5.041   0.516   0.967  0.1739  0.6321 -0.6932
13815SOL     OW44975  10.670   9.575   6.307  0.3037 -0.5410 -0.1997
13815SOL    HW144976  10.674   9.631   6.385 -0.5004 -1.5323  0.5946
13815SOL    HW244977  10.743   9.604   6.252  0.1359  1.0104  0.3506
13816SOL     OW44978   5.176   2.506   1.494 -0.2502 -0.0047 -0.2665
13816SOL    HW144979   5.145   2.437   1.435 -3.0110  1.1665 -0.3278
13816SOL    HW244980   5.267   2.483   1.512 -0.3749 -2.3386 -2.1502
13817SOL     OW44981   7.504   4.359   3.615 -0.0966  0.1930  1.3867
13817SOL    HW144982   7.555   4.279   3.625 -1.6906 -1.4835 -2.2066
13817SOL    HW244983   7.564   4.421   3.574  0.1850 -0.3973  0.8824
13818SOL     OW44984   5.299   0.238   5.308  0.6408 -0.0594  0.3575
13818SOL    HW144985   5.391   0.246   5.333  0.5189 -0.3895  0.9269
13818SOL    HW244986   5.296   0.271   5.218  1.2038  0.5107  0.5399
13819SOL     OW44987   1.983   3.260   8.532 -0.2120  0.2052  0.2971
13819SOL    HW144988   1.986   3.278   8.626 -0.9124  1.7888  0.0495
13819SOL    HW244989   1.910   3.200   8.520  0.1291 -0.3156  0.8019
13820SOL     OW44990   1.344   3.452   8.286  0.9211 -0.1533  0.6471
13820SOL    HW144991   1.257   3.419   8.262  1.7139 -2.5298  0.8092
13820SOL    HW244992   1.327   3.514   8.356 -0.6097 -1.4735  1.5232
13821SOL     OW44993   2.617   9.811   8.582  0.1270  0.1748  0.2839
13821SOL    HW144994   2.622   9.869   8.506 -1.1393  1.0936  0.8699
13821SOL    HW244995   2.544   9.753   8.563 -0.6329  0.8436  1.0553
13822SOL     OW44996   7.860   6.341  10.764 -0.4235 -0.5690  0.0979
13822SOL    HW144997   7.770   6.348  10.731 -0.1586 -2.1036 -1.1002
13822SOL    HW244998   7.906   6.414  10.723 -0.9730 -0.1486  0.2088
13823SOL     OW44999   3.338   1.353   0.064 -0.4666  0.1146  0.1236
13823SOL    HW145000   3.396   1.364   0.140 -2.7227 -0.7631  2.0876
13823SOL    HW245001   3.271   1.421   0.075 -0.7267  0.0952 -1.2137
13824SOL     OW45002   9.556   0.036   8.841 -0.1352  0.5314 -0.3534
13824SOL    HW145003   9.594   0.115   8.879 -1.0139  1.5985 -1.5930
13824SOL    HW245004   9.625  -0.000   8.786 -0.1886  1.2825 -0.9356
13825SOL     OW45005   6.746   8.743   8.877  0.2257 -0.5534  0.4424
13825SOL    HW145006   6.834   8.776   8.898  0.0916  1.1396 -1.3302
13825SOL    HW245007   6.762   8.675   8.811  0.1948  1.4880 -1.8241
13826SOL     OW45008   6.827   8.115   6.414 -0.3548 -0.6893 -0.2012
13826SOL    HW145009   6.837   8.025   6.447 -0.6996 -0.3967  0.7347
13826SOL    HW245010   6.917   8.146   6.404 -0.1970 -0.4079  1.6112
13827SOL     OW45011   5.195  10.497   1.269 -0.0770 -0.5469  0.4920
13827SOL    HW145012   5.158  10.496   1.357  0.1124 -0.6606  0.5703
13827SOL    HW245013   5.195  10.589   1.244  1.1376 -0.3431  1.1471
13828SOL     OW45014   8.704   1.519   0.788  1.0040 -0.6278 -0.4580
13828SOL    HW145015   8.777   1.461   0.766  2.5948  1.4897 -1.1952
13828SOL    HW245016   8.742   1.607   0.784 -1.8306  0.6570 -1.7767
13829SOL     OW45017   8.228   6.834  10.973  0.1510  0.5031  0.5307
13829SOL    HW145018   8.191   6.755  10.933 -1.4525  1.5164 -0.0709
13829SOL    HW245019   8.317   6.839  10.936  0.3007 -0.9961  0.5911
13830SOL     OW45020   3.111   6.874   6.024 -0.0114  0.6495 -0.8938
13830SOL    HW145021   3.150   6.894   6.109 -0.5638 -0.2460 -0.4121
13830SOL    HW245022   3.061   6.952   6.001 -0.8138  0.4767  0.1777
13831SOL     OW45023   4.746   3.990   7.056  0.0759 -0.3696  0.5824
13831SOL    HW145024   4.765   3.973   7.149  0.1878 -0.4120  0.5518
13831SOL    HW245025   4.752   3.904   7.015  1.4052 -0.1575  0.2890
13832SOL     OW45026   7.150   4.494   2.343 -0.4159  0.1930  0.1980
13832SOL    HW145027   7.181   4.447   2.421  0.0060 -1.5054 -0.9468
13832SOL    HW245028   7.160   4.586   2.366  0.2458 -0.2607  1.9358
13833SOL     OW45029   1.152   4.951   2.362  0.3931 -0.3805 -0.3555
13833SOL    HW145030   1.243   4.922   2.349 -0.0008 -0.8360 -2.5728
13833SOL    HW245031   1.154   4.999   2.445  3.2152  1.7661 -1.4623
13834SOL     OW45032   6.119   4.560   6.338 -0.0544 -0.4385 -0.3636
13834SOL    HW145033   6.206   4.545   6.376 -0.6383 -1.8301  0.4907
13834SOL    HW245034   6.131   4.545   6.244  0.5049 -1.2610 -0.1727
13835SOL     OW45035   7.329   9.260   9.451  1.1192 -0.4659 -0.0705
13835SOL    HW145036   7.236   9.259   9.475  1.3911 -0.9962  1.0303
13835SOL    HW245037   7.372   9.210   9.521  2.4174  0.9797  0.2090
13836SOL     OW45038   3.116   1.169   3.007  0.7081  0.5336 -0.2515
13836SOL    HW145039   3.024   1.151   3.026  0.2545  3.9465  1.5588
13836SOL    HW245040   3.161   1.154   3.090  0.8596  3.6102  0.3168
13837SOL     OW45041   3.358   8.847  10.845  0.1406 -0.0220  0.4386
13837SOL    HW145042   3.347   8.864  10.939 -2.2018 -0.0894  0.2371
13837SOL    HW245043   3.352   8.751  10.837 -2.4063  0.1158 -0.0003
13838SOL     OW45044   2.725   7.496   7.639  0.4571 -0.3207  0.3022
13838SOL    HW145045   2.733   7.584   7.601  3.3911 -0.1574  1.0693
13838SOL    HW245046   2.696   7.442   7.566  2.1429  0.6944 -1.2278
13839SOL     OW45047   8.413   0.824   9.418  0.3504  0.2058 -0.2155
13839SOL    HW145048   8.489   0.881   9.407  1.9859 -1.7357  0.2956
13839SOL    HW245049   8.356   0.871   9.478  1.5449  1.3792  0.0529
13840SOL     OW45050   9.986   4.384   8.471  0.2783 -0.7636 -0.0065
13840SOL    HW145051  10.017   4.427   8.391 -0.4878 -0.5970 -0.2260
13840SOL    HW245052  10.017   4.294   8.464  1.0444 -0.5039 -0.0223
13841SOL     OW45053   1.766   8.531   3.132 -0.2430  0.1564 -0.4314
13841SOL    HW145054   1.697   8.580   3.087 -0.9630 -0.4236  0.0155
13841SOL    HW245055   1.818   8.598   3.176 -1.9004  0.5110  1.1340
13842SOL     OW45056   2.913   5.012  10.858 -0.5428 -0.3426 -0.8233
13842SOL    HW145057   2.839   4.999  10.918  0.2547 -0.7063  0.1139
13842SOL    HW245058   2.933   4.924  10.825 -0.9207 -0.1574 -1.5796
13843SOL     OW45059   1.663   7.656   9.626  0.4732  0.1941  0.2901
13843SOL    HW145060   1.746   7.693   9.657  1.6598 -0.9032 -1.3889
13843SOL    HW245061   1.676   7.561   9.628 -0.6278  0.0093 -0.2921
13844SOL     OW45062   0.337   1.409   5.359  0.2840  0.8150 -0.5470
13844SOL    HW145063   0.278   1.387   5.287 -0.6175 -0.0598  0.4221
13844SOL    HW245064   0.393   1.332   5.369  2.0637  1.8709 -1.8515
13845SOL     OW45065   5.731   0.228   9.894  0.4164  0.2696  0.6711
13845SOL    HW145066   5.658   0.170   9.872 -0.2451  0.0764  3.0261
13845SOL    HW245067   5.702   0.315   9.867  0.5406 -0.1693 -0.9763
13846SOL     OW45068   9.186   3.324   5.617  0.4812 -0.1121  0.0459
13846SOL    HW145069   9.261   3.265   5.622 -1.5925 -2.9287  0.0848
13846SOL    HW245070   9.219   3.407   5.652  4.2409 -0.3689 -2.3346
13847SOL     OW45071   7.238  10.527   7.080  0.3506  0.4456 -0.1249
13847SOL    HW145072   7.195  10.580   7.147 -1.7865  0.7873 -1.6647
13847SOL    HW245073   7.299  10.471   7.128 -1.7721  0.0053  2.2200
13848SOL     OW45074   3.090   3.412   2.068 -0.4351 -0.0647 -0.4329
13848SOL    HW145075   3.176   3.384   2.101 -0.0962 -0.9768 -1.9870
13848SOL    HW245076   3.030   3.345   2.100 -0.9089  1.4319  2.0413
13849SOL     OW45077   8.395   3.753   3.175  0.3075 -0.0242 -0.1922
13849SOL    HW145078   8.371   3.809   3.249 -1.6550 -1.1715  0.0946
13849SOL    HW245079   8.472   3.797   3.137 -0.6810  2.4639  0.4535
13850SOL     OW45080   3.001  10.698   9.002  0.5020 -0.2623 -0.0143
13850SOL    HW145081   2.920  10.679   8.955  0.1965  0.9916 -0.0128
13850SOL    HW245082   2.977  10.694   9.094  0.4401  0.0965 -0.0135
13851SOL     OW45083   8.123   6.675   7.795  0.3744 -0.3976 -0.4575
13851SOL    HW145084   8.068   6.693   7.719 -1.3236 -0.6786  0.6415
13851SOL    HW245085   8.093   6.737   7.862  0.8612 -1.0822  0.4188
13852SOL     OW45086   7.107   6.007   2.079  0.6256 -0.1138 -0.1238
13852SOL    HW145087   7.155   5.958   2.012  0.0758  0.1891 -0.7594
13852SOL    HW245088   7.015   6.000   2.052  0.5636  1.6711 -0.5209
13853SOL     OW45089  10.373   3.277   9.462  0.0105 -0.7385  0.1801
13853SOL    HW145090  10.335   3.317   9.384 -1.1221 -0.2618  0.9537
13853SOL    HW245091  10.380   3.184   9.440 -1.0373 -0.7401 -0.2320
13854SOL     OW45092   7.543   7.196   5.126  0.4526 -0.3611 -0.1208
13854SOL    HW145093   7.627   7.228   5.159  0.7639  0.1833 -1.3535
13854SOL    HW245094   7.484   7.271   5.134  0.1900 -0.6158  0.3606
13855SOL     OW45095   6.362   4.673  11.031  0.0844  0.4064 -0.3467
13855SOL    HW145096   6.400   4.730  11.098  1.1590 -0.5842 -0.0824
13855SOL    HW245097   6.340   4.731  10.959 -2.2306  1.7236  1.2570
13856SOL     OW45098   8.943   3.270   2.902 -0.0338  0.4204  0.3555
13856SOL    HW145099   9.001   3.198   2.928 -0.1149  0.3938  0.4692
13856SOL    HW245100   8.928   3.257   2.809  0.7356  0.8600  0.1669
13857SOL     OW45101   9.018   9.772   2.169 -0.0046  0.1949  0.0343
13857SOL    HW145102   8.930   9.747   2.197  0.0281  1.7678  1.7575
13857SOL    HW245103   9.076   9.710   2.212 -0.1504  0.6275  0.8659
13858SOL     OW45104   6.252   1.450   2.671 -0.1112  0.2114 -0.4426
13858SOL    HW145105   6.266   1.545   2.665 -0.0485  0.1660 -1.0948
13858SOL    HW245106   6.165   1.437   2.632  0.7104 -0.2131 -2.2250
13859SOL     OW45107   8.498   9.170   8.588  0.0869  0.5861 -0.2061
13859SOL    HW145108   8.410   9.178   8.625  0.5907 -0.8016  1.4026
13859SOL    HW245109   8.491   9.101   8.523  0.6620 -2.3298  2.5731
13860SOL     OW45110   2.557   7.527   9.181 -0.1267 -0.0049 -0.2606
13860SOL    HW145111   2.533   7.448   9.229  0.0013 -0.2377 -0.5756
13860SOL    HW245112   2.550   7.597   9.246  0.7372 -0.4071  0.2851
13861SOL     OW45113  10.764   5.963   6.125 -0.2038 -0.1873  0.4860
13861SOL    HW145114  10.839   6.020   6.110  0.2644 -0.6247  1.0902
13861SOL    HW245115  10.776   5.891   6.063  0.5996 -0.9255  1.4623
13862SOL     OW45116   0.720   8.003  10.390  0.3577  0.1046  0.0887
13862SOL    HW145117   0.703   7.911  10.411 -3.1013  0.8973  1.4687
13862SOL    HW245118   0.675   8.017  10.307  0.7453  0.5852 -0.0401
13863SOL     OW45119   4.793   4.368   2.844  0.0577  0.2292 -0.0015
13863SOL    HW145120   4.850   4.416   2.782  0.3864  0.3666  0.4028
13863SOL    HW245121   4.722   4.335   2.789  0.2702  0.4693 -0.4352
13864SOL     OW45122   8.332  10.563   6.154  0.4874  0.1323 -0.1058
13864SOL    HW145123   8.310  10.582   6.245  0.0880 -1.3899  0.1406
13864SOL    HW245124   8.247  10.553   6.110  0.6507 -1.3888 -0.1246
13865SOL     OW45125   6.956   8.046   8.396  0.1554  0.3869  0.0840
13865SOL    HW145126   6.930   8.068   8.485  0.0300  0.0363  0.1358
13865SOL    HW245127   7.022   8.112   8.373 -1.4590  1.8905 -0.4113
13866SOL     OW45128  10.599   6.246   1.888  0.2001 -0.2123  1.0389
13866SOL    HW145129  10.693   6.267   1.887 -0.3185  2.3750  0.1719
13866SOL    HW245130  10.568   6.284   1.970 -0.3332  0.2366  0.6328
13867SOL     OW45131   4.803   1.073  10.756  0.7325 -0.9033 -0.4184
13867SOL    HW145132   4.890   1.058  10.793 -0.3678 -1.2604  2.2658
13867SOL    HW245133   4.762   0.987  10.757  0.0370 -0.5828 -0.7627
13868SOL     OW45134  10.891   2.835   1.948 -0.2636 -0.7679  0.5360
13868SOL    HW145135  10.822   2.896   1.973  1.4967  1.8763 -0.5664
13868SOL    HW245136  10.963   2.853   2.008  0.7484 -0.8254 -0.6207
13869SOL     OW45137   5.790   9.928  10.362  0.1651  0.1413  0.6366
13869SOL    HW145138   5.797  10.019  10.332  0.0944 -0.2205 -0.5090
13869SOL    HW245139   5.790   9.876  10.282  2.2084 -1.0274  1.3211
13870SOL     OW45140   4.311   9.762  11.039 -0.3589 -0.3697  0.2011
13870SOL    HW145141   4.347   9.674  11.052  0.0700 -0.4892 -1.4917
13870SOL    HW245142   4.351   9.815  11.107 -0.7816 -1.5096  1.3836
13871SOL     OW45143   9.025  10.445   0.065 -1.1372 -0.5260  0.1832
13871SOL    HW145144   9.032  10.353   0.036 -0.3851 -0.1017 -1.0759
13871SOL    HW245145   9.062  10.495  -0.008 -2.6601  0.8724  0.3164
13872SOL     OW45146   5.533   4.172   9.440 -0.6605 -0.4664  0.2216
13872SOL    HW145147   5.521   4.089   9.395 -0.8711  0.4044 -1.4010
13872SOL    HW245148   5.465   4.172   9.508 -0.8479 -1.4746  0.0490
13873SOL     OW45149   2.129   4.133   6.634  0.2500  0.1631  0.2647
13873SOL    HW145150   2.188   4.081   6.578 -1.1369  0.5529 -1.6806
13873SOL    HW245151   2.101   4.205   6.578 -0.3329  1.2384  1.8878
13874SOL     OW45152   0.256   8.305   8.808  0.1243 -0.7674  0.5845
13874SOL    HW145153   0.229   8.390   8.845  0.0297 -0.0868 -0.9481
13874SOL    HW245154   0.253   8.245   8.881 -0.5623  0.4022  1.5580
13875SOL     OW45155  10.531   1.940   4.795 -0.4613  0.0490 -0.2356
13875SOL    HW145156  10.607   1.900   4.837 -0.2222 -0.3248 -1.0030
13875SOL    HW245157  10.557   1.951   4.703 -1.7206 -1.1401 -0.7884
13876SOL     OW45158   1.566   2.455   6.312 -0.1194 -0.1331 -0.1096
13876SOL    HW145159   1.627   2.523   6.341  1.3608 -0.6336 -1.8812
13876SOL    HW245160   1.533   2.486   6.228 -1.8296 -0.1973  0.5057
13877SOL     OW45161   9.475   3.128   6.181 -0.1785  0.0844 -0.0134
13877SOL    HW145162   9.561   3.088   6.197 -1.0195 -2.3528 -1.1508
13877SOL    HW245163   9.474   3.148   6.087 -0.2500  1.7685  0.3058
13878SOL     OW45164   3.236   4.674   7.425  0.4751 -0.5137 -0.4486
13878SOL    HW145165   3.140   4.671   7.433  0.6253 -0.7602  2.3650
13878SOL    HW245166   3.256   4.613   7.354 -1.4085 -0.8541 -0.7545
13879SOL     OW45167   6.345   2.955   6.876  0.5029  0.3331 -0.2418
13879SOL    HW145168   6.304   2.938   6.961  0.6274 -0.5605 -0.3494
13879SOL    HW245169   6.412   3.020   6.895 -0.8552  1.7423 -0.0470
13880SOL     OW45170   3.599   5.443   0.512 -0.2158 -0.1635  0.0294
13880SOL    HW145171   3.546   5.376   0.556 -0.1686 -0.1669  0.0818
13880SOL    HW245172   3.591   5.520   0.569  1.6476 -0.8072  1.2577
13881SOL     OW45173  10.385   0.160   0.238  0.3657 -0.1825  0.4593
13881SOL    HW145174  10.342   0.167   0.153  1.1851 -2.3166 -0.1854
13881SOL    HW245175  10.456   0.224   0.233 -1.8450  2.5200  1.1001
13882SOL     OW45176   3.380   4.630   1.986 -0.1943 -0.6966  0.3434
13882SOL    HW145177   3.302   4.577   1.966 -0.7546  0.3118 -0.2390
13882SOL    HW245178   3.416   4.651   1.900  0.0188 -0.1331  0.5700
13883SOL     OW45179   0.171  10.310   8.626 -0.8416 -0.0066 -0.1303
13883SOL    HW145180   0.193  10.217   8.627  0.5365  0.2533 -1.4186
13883SOL    HW245181   0.200  10.341   8.540  0.8672  2.0630  1.0571
13884SOL     OW45182  10.389   6.539   4.569  0.9592  0.0197 -0.0675
13884SOL    HW145183  10.424   6.509   4.485  0.8865 -1.8737  0.5389
13884SOL    HW245184  10.465   6.574   4.616  0.8718  1.8426 -1.1720
13885SOL     OW45185   8.723   7.892   1.750 -0.1312 -0.1591 -0.4379
13885SOL    HW145186   8.637   7.851   1.737 -1.3207  1.2930  1.9917
13885SOL    HW245187   8.703   7.978   1.787  2.3823  0.1143  0.4899
13886SOL     OW45188   7.624   2.713   5.329  0.2308  0.1592  0.3249
13886SOL    HW145189   7.560   2.766   5.378 -0.3064  0.4232 -0.6419
13886SOL    HW245190   7.705   2.764   5.331 -1.1051  2.9053 -3.5715
13887SOL     OW45191   7.440   3.706   3.802  0.6207 -0.7605  0.0778
13887SOL    HW145192   7.486   3.749   3.729 -1.4115 -0.1097 -0.9095
13887SOL    HW245193   7.495   3.722   3.878  1.6767  0.5406 -0.9103
13888SOL     OW45194   6.846   3.525   9.796 -0.0149 -0.0074 -0.1302
13888SOL    HW145195   6.844   3.430   9.805  0.6963 -0.3656 -2.8483
13888SOL    HW245196   6.936   3.550   9.817  0.2063 -0.1447 -0.8985
13889SOL     OW45197   9.127   8.502   3.268 -0.0736 -0.8402 -0.3378
13889SOL    HW145198   9.180   8.449   3.207 -1.4228 -2.3372 -0.2723
13889SOL    HW245199   9.065   8.549   3.212  1.3300  1.0244 -0.4274
13890SOL     OW45200  10.113   9.127   5.042  0.1770 -0.2326 -0.2311
13890SOL    HW145201  10.022   9.110   5.020 -0.2111 -0.5786  1.4558
13890SOL    HW245202  10.109   9.169   5.128  1.5713  0.4929 -0.4921
13891SOL     OW45203   6.656   5.095   4.730 -0.0403  0.4047 -0.0336
13891SOL    HW145204   6.611   5.027   4.780  1.0249 -1.7709 -1.8536
13891SOL    HW245205   6.622   5.086   4.641  0.7567  1.6822 -0.4868
13892SOL     OW45206  10.140   4.941   9.154  0.6370  0.0658  0.5682
13892SOL    HW145207  10.187   4.897   9.083 -1.7062  0.1097 -1.1448
13892SOL    HW245208  10.172   5.031   9.151  0.5172  0.0928 -0.5383
13893SOL     OW45209   0.070   2.181   2.701  0.4638 -0.4155  0.1486
13893SOL    HW145210   0.150   2.140   2.733 -0.6112 -1.7909  1.2378
13893SOL    HW245211   0.001   2.147   2.759 -1.2756 -1.1692 -2.2244
13894SOL     OW45212   8.874   9.137   7.057 -0.2849 -0.1452  0.2660
13894SOL    HW145213   8.860   9.232   7.057  1.1821  0.0991 -0.2914
13894SOL    HW245214   8.787   9.100   7.070 -0.7465  1.2846  1.5080
13895SOL     OW45215   4.543   5.957   7.776 -0.2860 -0.0840 -0.4292
13895SOL    HW145216   4.558   6.043   7.738 -0.8413  0.3856  0.4017
13895SOL    HW245217   4.502   5.974   7.860  0.1074 -1.1391 -0.0010
13896SOL     OW45218   1.463   7.041   4.609  0.7320 -0.4657  0.3347
13896SOL    HW145219   1.510   7.124   4.619  0.5283  0.0954 -2.4769
13896SOL    HW245220   1.385   7.050   4.663  1.9589  0.0845  2.1021
13897SOL     OW45221   2.623   2.151   0.541 -0.5616 -0.0049  0.4015
13897SOL    HW145222   2.693   2.216   0.538 -0.6920  0.1146 -0.1836
13897SOL    HW245223   2.561   2.184   0.606 -1.8364  1.7248 -1.5653
13898SOL     OW45224   4.293   4.032   5.829 -0.1353  0.3543 -0.2555
13898SOL    HW145225   4.216   4.086   5.847  0.7724  1.7640 -0.4176
13898SOL    HW245226   4.269   3.944   5.859 -1.5035  0.9324  0.4226
13899SOL     OW45227   0.442   4.444   9.042 -0.4066  0.5293 -0.0694
13899SOL    HW145228   0.362   4.485   9.076  0.4231  1.3333  1.0033
13899SOL    HW245229   0.511   4.508   9.059  0.4400 -0.0277 -1.2336
13900SOL     OW45230   2.820   5.103   3.375 -0.0547 -0.3873 -0.2273
13900SOL    HW145231   2.815   5.143   3.288 -0.9139  1.5590  0.6678
13900SOL    HW245232   2.729   5.097   3.404  0.3228  0.8683  1.3281
13901SOL     OW45233   3.584   5.948  10.465 -0.2033  0.2683  0.8179
13901SOL    HW145234   3.580   6.040  10.491  0.3734  0.3745  0.5502
13901SOL    HW245235   3.502   5.910  10.497 -0.7100  1.0033  0.4236
13902SOL     OW45236   0.925   2.025   7.986  0.2301  0.1227 -0.5249
13902SOL    HW145237   0.888   1.983   8.064  0.7871  1.3605  0.4506
13902SOL    HW245238   0.867   2.099   7.968  1.3987  1.2803  0.2135
13903SOL     OW45239   0.302   4.219   6.981 -0.2763 -0.1667 -0.2447
13903SOL    HW145240   0.377   4.231   7.040  0.5536  0.4656 -1.3817
13903SOL    HW245241   0.265   4.135   7.006  2.9713 -2.3084 -1.8878
13904SOL     OW45242   3.313   4.955   4.415 -0.3593  0.1028  0.2446
13904SOL    HW145243   3.341   5.044   4.436 -0.0858 -0.0731  0.6338
13904SOL    HW245244   3.219   4.962   4.401 -0.5307  0.2579  1.4040
13905SOL     OW45245   7.282   9.809   0.332  0.2726 -0.0990 -0.4299
13905SOL    HW145246   7.301   9.832   0.241  1.1125 -0.4263 -0.3433
13905SOL    HW245247   7.337   9.733   0.349  1.3671  0.9376  0.8548
13906SOL     OW45248   9.125   3.443   7.085  0.3601  0.2196 -0.0547
13906SOL    HW145249   9.171   3.387   7.022  1.5149  1.1855 -0.1177
13906SOL    HW245250   9.036   3.408   7.088  0.3639 -0.0875 -1.9546
13907SOL     OW45251   0.301   0.663   3.196 -0.5516 -0.3010 -0.2765
13907SOL    HW145252   0.344   0.627   3.118 -0.3314 -2.7326  0.8778
13907SOL    HW245253   0.298   0.590   3.257 -0.9847  1.4609  1.9198
13908SOL     OW45254   0.822  10.673   8.546 -0.2813  0.3864  0.0802
13908SOL    HW145255   0.886  10.625   8.598  0.6877  0.2603 -1.1860
13908SOL    HW245256   0.857  10.762   8.541 -1.1251  0.7826  0.8521
13909SOL     OW45257   0.565   1.882   8.049  0.4316  0.3849  0.4651
13909SOL    HW145258   0.491   1.823   8.057  0.4391  0.4309  0.9078
13909SOL    HW245259   0.536   1.949   7.986  0.7246 -0.5266 -0.6782
13910SOL     OW45260   2.822   2.895   7.838  0.2684 -0.1961  0.5238
13910SOL    HW145261   2.864   2.893   7.752 -0.6660 -2.0425  0.0495
13910SOL    HW245262   2.729   2.908   7.819 -0.2940 -2.8971  1.0232
13911SOL     OW45263   1.961   3.208   9.601 -0.3703 -0.4128 -0.2810
13911SOL    HW145264   1.942   3.116   9.620 -1.5980 -0.3161 -0.9589
13911SOL    HW245265   2.029   3.232   9.664  0.2038 -1.8722 -0.3188
13912SOL     OW45266   9.444   8.341   1.141 -0.2935 -0.2058 -0.0208
13912SOL    HW145267   9.486   8.275   1.197  1.1232  0.4310 -0.2871
13912SOL    HW245268   9.418   8.411   1.201 -1.4351 -0.7972  0.2066
13913SOL     OW45269   1.628  10.505   8.998  0.1781 -0.9474 -0.0400
13913SOL    HW145270   1.574  10.447   9.053 -1.9238  0.9592  0.0556
13913SOL    HW245271   1.652  10.451   8.923 -1.8189 -1.9387 -0.0348
13914SOL     OW45272   9.452   5.222  10.090  0.0155 -0.0642 -0.6230
13914SOL    HW145273   9.526   5.173  10.126  2.2389  2.3444 -1.5099
13914SOL    HW245274   9.493   5.288  10.034 -2.8532  1.4571 -1.1250
13915SOL     OW45275   1.877   6.496  11.032 -0.7667  0.2910  0.0650
13915SOL    HW145276   1.858   6.509  10.939 -0.1547 -1.9195 -0.4211
13915SOL    HW245277   1.967   6.465  11.034 -1.2866 -1.2834  1.2206
13916SOL     OW45278   6.570   7.042   9.130 -0.1170  0.0990 -0.3635
13916SOL    HW145279   6.621   7.107   9.081  1.3413 -0.2353  0.6574
13916SOL    HW245280   6.618   6.960   9.118 -1.8486 -0.8245 -1.5145
13917SOL     OW45281   2.552   9.617  10.622 -0.4797  0.0336  0.3976
13917SOL    HW145282   2.509   9.579  10.698 -2.2271  0.4269 -0.3493
13917SOL    HW245283   2.537   9.711  10.630 -1.5346  0.0038 -0.8834
13918SOL     OW45284   4.066   4.683   4.075 -0.0364  0.2358 -0.7133
13918SOL    HW145285   4.027   4.622   4.137  0.1734  1.2170  0.4096
13918SOL    HW245286   4.128   4.734   4.126  1.0330  0.2760 -1.9806
13919SOL     OW45287   0.666   5.479   5.683 -0.2851 -0.2262 -0.3845
13919SOL    HW145288   0.604   5.461   5.613 -0.1588 -0.1706 -0.5130
13919SOL    HW245289   0.732   5.536   5.643 -0.4148  0.1154 -0.1179
13920SOL     OW45290   7.030   9.391  10.454  0.3951  0.1272  0.2049
13920SOL    HW145291   7.071   9.443  10.523 -0.9366 -0.7150  1.7003
13920SOL    HW245292   6.967   9.450  10.414 -2.0487 -0.5181  2.7474
13921SOL     OW45293   1.321   7.451   4.595 -0.3139  0.2207 -0.4257
13921SOL    HW145294   1.233   7.414   4.601 -1.4704  2.9170  0.6192
13921SOL    HW245295   1.355   7.419   4.512 -2.6171 -0.1996 -1.2774
13922SOL     OW45296   8.175   3.528   3.260 -0.0920  0.0893 -0.3440
13922SOL    HW145297   8.191   3.567   3.174  0.1637  0.6444 -0.0516
13922SOL    HW245298   8.097   3.473   3.248 -0.3274  0.5240 -0.8169
13923SOL     OW45299   6.415   1.386   1.597 -0.0394  0.0955  0.2766
13923SOL    HW145300   6.439   1.294   1.608 -0.6906 -0.1275 -0.1014
13923SOL    HW245301   6.463   1.432   1.666  1.1106 -0.3869 -0.1942
13924SOL     OW45302   1.656   8.197   7.049 -0.3024  0.1588 -0.3120
13924SOL    HW145303   1.735   8.175   6.999 -0.5304 -2.4655  0.3471
13924SOL    HW245304   1.584   8.170   6.992 -0.6666  0.4020  0.0289
13925SOL     OW45305   5.224   6.926   3.446  0.1634  1.0878 -0.5689
13925SOL    HW145306   5.249   6.881   3.527  3.3210  0.4830 -1.7236
13925SOL    HW245307   5.205   7.016   3.473  0.7469  0.7964  0.8903
13926SOL     OW45308   1.956  10.082   4.273 -0.1062  0.1780  0.5993
13926SOL    HW145309   1.906  10.160   4.249 -2.7029 -1.3756  0.5948
13926SOL    HW245310   1.916  10.051   4.354  1.5771 -0.5870  1.1899
13927SOL     OW45311   8.427   8.589   4.014 -0.0728  0.1222  0.9544
13927SOL    HW145312   8.501   8.578   3.955 -0.3013  1.6565  0.3378
13927SOL    HW245313   8.352   8.556   3.964 -0.1086  0.4543  0.7882
13928SOL     OW45314   5.327   5.895   9.201 -0.0013  0.2541  0.2890
13928SOL    HW145315   5.233   5.913   9.203 -0.5143 -1.8116 -1.2731
13928SOL    HW245316   5.356   5.908   9.291 -1.8529  0.5494  0.8933
13929SOL     OW45317   6.708   6.862  10.021 -0.1641 -0.1342 -0.2530
13929SOL    HW145318   6.711   6.807   9.943 -0.2266 -1.2265  0.4816
13929SOL    HW245319   6.798   6.888  10.036 -0.5090  2.8139 -2.4981
13930SOL     OW45320   3.151  10.936  11.039 -0.5818 -0.1583  0.1508
13930SOL    HW145321   3.204  10.857  11.043  0.0111  0.2374  0.3071
13930SOL    HW245322   3.209  11.002  11.002 -1.0178  0.2431  0.1653
13931SOL     OW45323   9.748   2.563   7.757  0.1467 -0.2257  0.8999
13931SOL    HW145324   9.697   2.536   7.680  0.6076 -0.4617  0.6725
13931SOL    HW245325   9.729   2.496   7.823  0.2055 -0.3423  0.7987
13932SOL     OW45326   3.014   9.491  10.785  0.2087  0.4233 -0.4922
13932SOL    HW145327   3.064   9.487  10.867 -1.0366  1.2473  0.3451
13932SOL    HW245328   3.068   9.541  10.725  0.2537  1.6116  0.5151
13933SOL     OW45329   8.109   1.469   7.558  0.2988 -0.1713  0.0172
13933SOL    HW145330   8.189   1.495   7.513 -0.9295  2.9532 -0.6548
13933SOL    HW245331   8.137   1.451   7.648  2.0467 -1.5742 -0.7562
13934SOL     OW45332   8.484   4.265   0.196  0.0396  0.0613 -0.0073
13934SOL    HW145333   8.544   4.330   0.231  0.8645 -0.1298 -1.0051
13934SOL    HW245334   8.527   4.181   0.212 -0.7227 -0.2016  0.7102
13935SOL     OW45335   9.523   6.906   3.307  0.1036 -0.8367 -0.5672
13935SOL    HW145336   9.515   6.835   3.243 -1.4837 -0.0842 -1.2711
13935SOL    HW245337   9.438   6.908   3.351  0.9637 -0.9403  1.1888
13936SOL     OW45338   3.633   6.412   8.788 -0.2212 -0.3371  0.0863
13936SOL    HW145339   3.585   6.354   8.730 -1.2007 -0.3113  0.8500
13936SOL    HW245340   3.580   6.416   8.867 -0.5147  2.0981 -0.1685
13937SOL     OW45341   3.575   5.236   6.213  0.0666 -0.7395 -0.5466
13937SOL    HW145342   3.529   5.154   6.231 -1.0055  0.1334  0.9363
13937SOL    HW245343   3.650   5.235   6.273 -0.2226 -0.4149 -0.1814
13938SOL     OW45344   5.850   7.200   0.696 -0.0777  0.1846 -0.3888
13938SOL    HW145345   5.814   7.143   0.764  1.7023  1.6310  1.9173
13938SOL    HW245346   5.808   7.285   0.710 -0.6992  0.2004 -2.0382
13939SOL     OW45347  10.809   2.495   6.434  0.2058 -0.5242 -0.4165
13939SOL    HW145348  10.840   2.439   6.364  1.6983 -1.4197  0.9059
13939SOL    HW245349  10.798   2.437   6.510  1.6416  0.8811  0.9505
13940SOL     OW45350   5.245   3.057   8.591  0.3033 -0.0572 -0.4922
13940SOL    HW145351   5.228   3.116   8.517 -2.7779 -0.1441  0.0571
13940SOL    HW245352   5.177   3.077   8.654 -0.5365 -3.7728 -0.0137
13941SOL     OW45353   8.630  10.603   9.793 -0.0914 -0.0847 -0.1097
13941SOL    HW145354   8.550  10.633   9.838 -0.2675  0.1755 -0.5949
13941SOL    HW245355   8.653  10.522   9.839 -0.6216 -0.1528  0.0499
13942SOL     OW45356   9.071   4.707   9.246 -0.3584 -0.2933  0.0811
13942SOL    HW145357   9.039   4.757   9.171 -2.4114 -0.8213  0.5408
13942SOL    HW245358   8.998   4.650   9.270  0.5425 -0.7366  1.9693
13943SOL     OW45359   0.866   4.936   4.438 -0.4300  0.0896  0.1677
13943SOL    HW145360   0.868   4.843   4.415  0.9177  0.0238  0.4429
13943SOL    HW245361   0.912   4.941   4.522  0.0905  1.0713 -0.1560
13944SOL     OW45362   0.909   1.874   7.231  0.5798 -0.1462 -0.2829
13944SOL    HW145363   0.903   1.867   7.327  2.3842  2.2362  0.0926
13944SOL    HW245364   0.889   1.786   7.200 -0.7736 -0.8306  2.2290
13945SOL     OW45365   3.634  10.443   1.649  0.1373 -0.4998  0.8780
13945SOL    HW145366   3.560  10.498   1.676  0.4005  1.0657 -1.3360
13945SOL    HW245367   3.711  10.495   1.673  0.3831  0.9271 -2.5109
13946SOL     OW45368   8.084   4.444   3.402  0.0446  0.2989  0.2541
13946SOL    HW145369   8.037   4.422   3.483  1.2269  0.0132  0.8935
13946SOL    HW245370   8.100   4.360   3.359  0.4504  0.3353  0.3277
13947SOL     OW45371   1.780   5.309   9.250  0.1637 -0.5196  0.0738
13947SOL    HW145372   1.865   5.315   9.206 -0.9453  0.1311 -2.1417
13947SOL    HW245373   1.716   5.318   9.179 -1.7723  0.1741  1.8135
13948SOL     OW45374   2.709   3.767   2.169  0.3177  0.1322 -0.0262
13948SOL    HW145375   2.739   3.682   2.139 -1.7622 -0.2980 -1.0899
13948SOL    HW245376   2.614   3.758   2.177  0.0209  2.3456 -0.2475
13949SOL     OW45377   9.681   0.046   5.955 -0.0023 -0.3633 -0.2748
13949SOL    HW145378   9.702   0.084   6.040 -2.3031  0.5820 -0.0597
13949SOL    HW245379   9.587   0.062   5.944 -0.1945 -2.3062 -2.0769
13950SOL     OW45380   6.615   5.723  10.750  0.1474  0.2145  0.1959
13950SOL    HW145381   6.536   5.759  10.791 -1.2666 -1.2618 -1.0934
13950SOL    HW245382   6.673   5.798  10.740 -0.8481  1.2402  1.6850
13951SOL     OW45383   9.661   5.444   6.985 -0.3531 -0.7034 -0.5678
13951SOL    HW145384   9.619   5.524   6.954  1.4577  0.7864  0.6241
13951SOL    HW245385   9.727   5.425   6.919  0.9633  0.3103  0.4214
13952SOL     OW45386   8.416   3.028   9.514  0.0668 -0.3905  0.0784
13952SOL    HW145387   8.345   3.012   9.452 -0.6058  2.0544  0.1096
13952SOL    HW245388   8.487   3.062   9.460 -0.4479  1.5501  0.5541
13953SOL     OW45389   6.833   9.730   4.790 -0.3084  0.3982 -0.7729
13953SOL    HW145390   6.782   9.653   4.763  1.5588 -0.9426 -0.7472
13953SOL    HW245391   6.901   9.738   4.722  1.9499 -0.4939  1.2155
13954SOL     OW45392   2.819   0.999   7.187 -0.4335  0.0551  0.5947
13954SOL    HW145393   2.887   1.064   7.170  1.4435 -1.7742  0.7211
13954SOL    HW245394   2.820   0.943   7.109 -0.0852 -1.4017  1.6196
13955SOL     OW45395  10.587   1.746  10.313  0.9565 -0.6440  0.3805
13955SOL    HW145396  10.633   1.752  10.396 -0.4354 -1.3742  1.2490
13955SOL    HW245397  10.591   1.654  10.289  1.6455 -0.3887 -0.5647
13956SOL     OW45398   9.880   3.297   7.935  0.4061 -0.9120  0.1132
13956SOL    HW145399   9.787   3.278   7.921  0.0859  0.1607  0.6164
13956SOL    HW245400   9.916   3.216   7.972 -0.5125 -1.0802  0.6735
13957SOL     OW45401   0.283   1.120   6.976 -0.4610 -0.4102 -0.1684
13957SOL    HW145402   0.318   1.193   7.028 -1.4263 -0.3283  0.3923
13957SOL    HW245403   0.235   1.162   6.905 -2.5301 -0.3820  1.1258
13958SOL     OW45404   6.369   1.812   8.589  0.0186 -0.0742 -0.0337
13958SOL    HW145405   6.377   1.801   8.494  0.2236  1.2766 -0.1879
13958SOL    HW245406   6.300   1.878   8.600 -0.2311 -0.4577  0.7719
13959SOL     OW45407   4.014   1.708   6.928  0.6977  0.2106  0.3318
13959SOL    HW145408   3.954   1.656   6.875 -0.9885  2.4085 -0.0404
13959SOL    HW245409   4.068   1.643   6.974 -0.2925 -1.8025 -1.1896
13960SOL     OW45410   5.779  11.106  10.224  0.5926 -0.9044 -0.0048
13960SOL    HW145411   5.685  11.117  10.213  0.5965 -0.4718  0.3400
13960SOL    HW245412   5.794  11.119  10.318  1.2151  0.8370 -0.3016
13961SOL     OW45413   9.404   5.874   8.616 -0.0327  0.3460 -0.1562
13961SOL    HW145414   9.402   5.824   8.697  0.0831 -0.3417 -0.5632
13961SOL    HW245415   9.457   5.951   8.636  1.6994 -0.8014 -0.0947
13962SOL     OW45416   3.847   4.195   5.462 -0.1236 -0.4853  0.2113
13962SOL    HW145417   3.920   4.148   5.501  1.2561  0.7241 -0.7914
13962SOL    HW245418   3.888   4.254   5.398 -2.0415 -0.2877 -0.9158
13963SOL     OW45419   8.048   2.779   1.200  0.5752 -0.3247  0.3317
13963SOL    HW145420   7.998   2.699   1.213  0.4853 -0.4908 -0.9700
13963SOL    HW245421   7.996   2.832   1.140  1.5759 -0.1604 -0.4176
13964SOL     OW45422   5.850   8.272   9.439 -0.3229  0.1724 -0.1059
13964SOL    HW145423   5.899   8.353   9.424 -2.0453  0.9662 -2.0554
13964SOL    HW245424   5.875   8.215   9.366 -1.0207 -0.0416 -0.1867
13965SOL     OW45425  10.425   3.663   2.663  0.8729  0.4161 -0.7841
13965SOL    HW145426  10.461   3.648   2.576 -0.0966 -0.3827 -1.0572
13965SOL    HW245427  10.348   3.718   2.649  0.1534 -0.5125 -0.5445
13966SOL     OW45428   2.083  10.605   5.251  0.0859 -0.3675  0.1088
13966SOL    HW145429   2.101  10.574   5.339 -0.1656 -2.0766 -0.4024
13966SOL    HW245430   2.170  10.612   5.210  0.1788  0.1105  0.3788
13967SOL     OW45431   0.103  10.563   6.393 -0.2320  0.0990 -0.2274
13967SOL    HW145432   0.167  10.492   6.396  0.8814  1.0818 -0.1140
13967SOL    HW245433   0.024  10.526   6.431 -0.2410 -1.6308 -1.7914
13968SOL     OW45434   2.974   9.555   6.203 -0.2281  0.6840 -0.3245
13968SOL    HW145435   2.926   9.473   6.193  0.7546  0.0720 -0.2420
13968SOL    HW245436   3.037   9.554   6.131  0.6016  0.7717  0.3788
13969SOL     OW45437   4.600  10.923   3.743 -0.2620  0.2903 -0.0905
13969SOL    HW145438   4.655  10.847   3.761 -0.5779  0.0391 -0.1592
13969SOL    HW245439   4.640  10.964   3.666  1.0393  1.3166  1.1059
13970SOL     OW45440   2.444   2.677   5.418 -0.2823  0.2289 -0.1324
13970SOL    HW145441   2.366   2.732   5.413 -0.6363 -0.0615  1.4917
13970SOL    HW245442   2.503   2.713   5.352 -0.4205  2.7152  0.9751
13971SOL     OW45443   0.151  10.823   9.383  0.6554  0.4541  0.1041
13971SOL    HW145444   0.088  10.894   9.367 -1.7283 -1.8088 -1.2488
13971SOL    HW245445   0.190  10.806   9.298  1.2927  0.2078  0.4424
13972SOL     OW45446   5.374   5.952   4.801  0.2107 -0.3394 -0.0850
13972SOL    HW145447   5.315   6.025   4.782  0.1171 -0.0429  1.2667
13972SOL    HW245448   5.427   5.943   4.722 -1.4465 -0.4253 -1.2259
13973SOL     OW45449   7.731   1.514   1.580 -0.6235 -0.9040  0.3611
13973SOL    HW145450   7.823   1.491   1.564  0.0490 -0.0360  2.5113
13973SOL    HW245451   7.681   1.448   1.534  1.0509 -0.9370 -1.5617
13974SOL     OW45452   9.762   2.285   3.197  0.2938  0.1109  0.7848
13974SOL    HW145453   9.817   2.339   3.140  2.4381 -0.8938  1.7978
13974SOL    HW245454   9.673   2.316   3.181  0.9271  0.6475 -2.2086
13975SOL     OW45455   1.961   3.126   6.247 -0.3686 -0.4226  0.2655
13975SOL    HW145456   1.927   3.041   6.276  0.1438 -0.9857 -0.7462
13975SOL    HW245457   1.911   3.145   6.168 -0.0737 -0.0632  0.1663
13976SOL     OW45458   3.433   6.888   9.455  0.0125  0.5652  0.0779
13976SOL    HW145459   3.489   6.832   9.401 -2.9569 -2.3701 -0.2953
13976SOL    HW245460   3.437   6.974   9.414  2.2147 -0.1488 -1.3886
13977SOL     OW45461   4.638   2.221   2.004 -0.2886 -0.1517  0.0930
13977SOL    HW145462   4.680   2.239   2.087 -0.7310  0.3452  0.2158
13977SOL    HW245463   4.544   2.229   2.022 -0.3759  0.5280 -0.5654
13978SOL     OW45464   8.286   0.015   1.428 -0.2934 -0.5748  0.5257
13978SOL    HW145465   8.192   0.018   1.450 -0.5984 -1.1075 -0.6246
13978SOL    HW245466   8.313  -0.074   1.451 -0.3487 -0.7783 -0.1712
13979SOL     OW45467   4.094   8.415   9.640 -0.2453  0.3577  0.0596
13979SOL    HW145468   4.030   8.433   9.570 -1.7037 -1.4506  0.8515
13979SOL    HW245469   4.072   8.327   9.670  1.7652  0.2401  1.3391
13980SOL     OW45470   4.942   4.460   6.178 -0.1468  0.3049  0.4215
13980SOL    HW145471   4.965   4.545   6.141 -2.4705  1.7289  2.0457
13980SOL    HW245472   4.987   4.457   6.262 -0.4402  0.1250  0.5737
13981SOL     OW45473   6.718   9.102   3.658  0.0794  0.2229 -0.2032
13981SOL    HW145474   6.799   9.113   3.608 -0.8918 -1.7095 -2.3893
13981SOL    HW245475   6.655   9.160   3.614 -0.2969  0.0123  0.0515
13982SOL     OW45476  10.868   3.187  10.722  0.4698  0.0627  0.5988
13982SOL    HW145477  10.897   3.119  10.783 -0.2414 -0.0860  0.7829
13982SOL    HW245478  10.785   3.154  10.688  1.2794 -0.2850 -1.1582
13983SOL     OW45479   1.340   5.342   4.434 -0.3103 -0.0474  0.1632
13983SOL    HW145480   1.322   5.330   4.528 -1.2003  0.7247  0.1083
13983SOL    HW245481   1.435   5.350   4.429 -0.1544 -1.1892  0.8577
13984SOL     OW45482  10.135   9.591   7.349  0.5359  0.4946 -0.2340
13984SOL    HW145483  10.076   9.666   7.351  2.1804  1.8340  0.0860
13984SOL    HW245484  10.141   9.567   7.256  0.1932  0.9050 -0.3626
13985SOL     OW45485   6.854   7.420   8.340  0.1750 -0.0658  0.4091
13985SOL    HW145486   6.856   7.337   8.292 -0.4330 -0.7744  1.5702
13985SOL    HW245487   6.904   7.481   8.285  1.3368 -1.4064 -0.0769
13986SOL     OW45488   5.010   6.405   4.879 -0.3798  0.2123  0.8152
13986SOL    HW145489   4.974   6.476   4.932  0.7972  0.1286  1.7913
13986SOL    HW245490   5.104   6.407   4.898 -0.1350 -0.7592 -0.1741
13987SOL     OW45491   5.316   5.185   8.085  0.2927 -0.0439  0.1310
13987SOL    HW145492   5.281   5.262   8.040 -0.1015  0.1498  0.7625
13987SOL    HW245493   5.296   5.112   8.025 -1.0963  0.0746  0.4018
13988SOL     OW45494   5.629   1.869   9.961  0.6639 -0.5232  0.5401
13988SOL    HW145495   5.715   1.835   9.933  0.8089  0.0416  0.2959
13988SOL    HW245496   5.626   1.958   9.926 -0.2144 -0.6929  0.1540
13989SOL     OW45497   6.647   5.727   8.835 -0.1225  0.0176  0.1203
13989SOL    HW145498   6.678   5.773   8.912 -0.3831 -0.8299  0.7481
13989SOL    HW245499   6.552   5.733   8.839 -0.1320  0.2047 -0.2853
13990SOL     OW45500   9.627   9.934   2.444 -0.5403  0.0470 -0.1137
13990SOL    HW145501   9.556   9.997   2.449 -0.8059 -0.1217 -1.3873
13990SOL    HW245502   9.612   9.875   2.517 -0.6746  1.0474  0.6883
13991SOL     OW45503   6.235   0.113   2.800 -0.8421 -0.1149 -0.0469
13991SOL    HW145504   6.222   0.093   2.707  0.2297 -0.7774 -0.0792
13991SOL    HW245505   6.318   0.161   2.802 -0.6625 -0.4539  0.6054
13992SOL     OW45506  10.360   4.210   0.608  0.4117  0.1358  0.8672
13992SOL    HW145507  10.389   4.121   0.586 -1.4326 -0.5609  1.0202
13992SOL    HW245508  10.303   4.198   0.684 -1.0957  1.2232 -0.0289
13993SOL     OW45509   3.826   4.519   2.416  0.6643 -0.1943 -0.7549
13993SOL    HW145510   3.887   4.458   2.375  1.2202  1.6093 -2.7636
13993SOL    HW245511   3.755   4.529   2.353 -0.9474 -0.9748  0.8362
13994SOL     OW45512  10.229   5.070   0.355 -0.0609  0.4444  0.0210
13994SOL    HW145513  10.190   5.053   0.441 -0.9326 -1.2454 -0.6486
13994SOL    HW245514  10.157   5.108   0.304 -0.7472 -2.0687 -1.0230
13995SOL     OW45515   0.709   1.063   8.608  0.1429  0.3593 -0.2359
13995SOL    HW145516   0.740   1.061   8.698 -0.0147  0.2121 -0.1858
13995SOL    HW245517   0.622   1.023   8.611 -0.1069  0.8839 -0.3555
13996SOL     OW45518   5.382   6.193   2.728 -0.2146 -0.2734  0.1606
13996SOL    HW145519   5.384   6.260   2.797 -0.6969 -0.6224  0.5242
13996SOL    HW245520   5.448   6.222   2.665 -0.6354  0.7145  0.1503
13997SOL     OW45521   3.478   3.131  10.595  0.3987 -0.0935  0.3389
13997SOL    HW145522   3.532   3.190  10.648 -0.1979  0.9096 -0.1590
13997SOL    HW245523   3.394   3.175  10.587  1.1104  0.8937 -3.3047
13998SOL     OW45524   1.824   2.147   3.139 -0.0046 -0.0449 -0.1177
13998SOL    HW145525   1.832   2.106   3.225 -1.3783 -1.0009 -0.3946
13998SOL    HW245526   1.733   2.130   3.114 -0.1112  1.6741 -1.0401
13999SOL     OW45527   7.135   9.818   9.942 -0.8396 -0.2689  0.3324
13999SOL    HW145528   7.047   9.826   9.978 -0.9751 -1.0158  0.1841
13999SOL    HW245529   7.189   9.790  10.017 -0.8004 -0.1908  0.3339
14000SOL     OW45530   1.588   3.769   4.729 -0.1315 -0.5542  0.3660
14000SOL    HW145531   1.586   3.748   4.823 -2.3480  0.8818  0.7218
14000SOL    HW245532   1.592   3.865   4.727 -1.9816 -0.4586 -0.9434
14001SOL     OW45533   6.253   2.759   3.766  0.0424  0.0055  0.3409
14001SOL    HW145534   6.252   2.712   3.683  1.0132 -0.2400  0.4503
14001SOL    HW245535   6.345   2.786   3.776 -0.5047  2.0823  0.1893
14002SOL     OW45536   4.463   4.412   5.672 -0.2996  0.4171 -0.6049
14002SOL    HW145537   4.541   4.438   5.722 -0.1998 -0.1692 -0.4522
14002SOL    HW245538   4.490   4.422   5.580  0.3846 -0.9476 -0.5834
14003SOL     OW45539   9.382   8.486   5.268  0.0381 -0.7894  0.0675
14003SOL    HW145540   9.369   8.580   5.282 -1.7998 -0.6854 -1.8422
14003SOL    HW245541   9.466   8.480   5.223  0.1907 -0.0834  0.2372
14004SOL     OW45542   8.908   8.450   9.280  0.0366  0.5606 -0.0816
14004SOL    HW145543   8.986   8.504   9.294  0.2553  0.5621 -1.2276
14004SOL    HW245544   8.835   8.506   9.308  0.3628  0.9557 -0.0178
14005SOL     OW45545   3.834   4.676   8.749  0.0785 -0.6408 -0.4302
14005SOL    HW145546   3.870   4.702   8.665  0.7387 -1.3513 -0.3861
14005SOL    HW245547   3.909   4.677   8.808 -0.5960  1.0733  0.4722
14006SOL     OW45548   8.225   5.378   8.456 -0.4490 -0.4156  0.2628
14006SOL    HW145549   8.194   5.315   8.391 -2.9957 -0.1048  1.0682
14006SOL    HW245550   8.261   5.450   8.404  1.4930 -1.9733 -0.6772
14007SOL     OW45551   1.831   9.888   2.575 -0.2421  0.6592 -0.0810
14007SOL    HW145552   1.902   9.875   2.512 -0.4552 -0.1381 -0.1589
14007SOL    HW245553   1.766   9.940   2.527 -0.4096  0.0491 -0.5272
14008SOL     OW45554   8.883   5.423  10.291 -0.1139 -0.1879 -0.4527
14008SOL    HW145555   8.906   5.470  10.210 -0.6232 -0.5598 -0.8171
14008SOL    HW245556   8.944   5.457  10.356  1.6094 -1.2427 -1.4278
14009SOL     OW45557   9.895   9.252   1.371 -0.7309  0.1810  0.1284
14009SOL    HW145558   9.820   9.298   1.333  0.9846  1.5583 -1.8482
14009SOL    HW245559   9.938   9.316   1.426  0.1902  0.1259 -0.5025
14010SOL     OW45560   6.096   8.368   8.604 -0.4681  0.0640 -0.2440
14010SOL    HW145561   6.018   8.408   8.566 -0.0711  0.0048 -1.1418
14010SOL    HW245562   6.139   8.439   8.652 -0.0492  0.6020 -1.3798
14011SOL     OW45563  10.713   2.662   1.485  0.8910 -0.6015 -0.6084
14011SOL    HW145564  10.704   2.753   1.460 -1.6791 -1.3924 -2.9839
14011SOL    HW245565  10.667   2.655   1.569 -0.3119 -0.0019 -1.2067
14012SOL     OW45566   4.144   7.691  10.813  0.1959 -0.3845  0.3349
14012SOL    HW145567   4.203   7.682  10.888 -0.4693  0.4395  0.9857
14012SOL    HW245568   4.068   7.636  10.836  0.6333 -1.3522 -0.4460
14013SOL     OW45569   2.875   8.637   5.452  0.6078 -0.0839  0.5381
14013SOL    HW145570   2.783   8.656   5.439  0.6488 -0.4380 -0.3364
14013SOL    HW245571   2.891   8.657   5.544 -0.7984 -1.8638  1.2405
14014SOL     OW45572   1.896   9.558   7.480 -0.2025 -0.2097 -0.7887
14014SOL    HW145573   1.839   9.635   7.483  0.3990  0.2828 -1.6847
14014SOL    HW245574   1.844   9.492   7.434 -0.2824  0.0421 -1.0643
14015SOL     OW45575   6.207   8.406   3.735 -0.1496 -0.2632 -0.0936
14015SOL    HW145576   6.226   8.465   3.808  0.6530 -1.8786  1.0726
14015SOL    HW245577   6.113   8.417   3.719  0.2728  2.5505 -1.0897
14016SOL     OW45578   3.536   8.635   8.202  0.7125  0.0321 -0.2567
14016SOL    HW145579   3.617   8.646   8.251  1.4092  0.4438 -1.4749
14016SOL    HW245580   3.512   8.724   8.175 -1.1360  0.1675  1.5872
14017SOL     OW45581   8.853   9.969   2.596 -0.0755  0.3291 -0.5981
14017SOL    HW145582   8.792  10.014   2.537 -1.1307  1.0847  0.9947
14017SOL    HW245583   8.802   9.953   2.675  1.0522 -1.4125 -0.1751
14018SOL     OW45584   6.991   0.397  10.389  0.2758 -0.0637  0.3749
14018SOL    HW145585   7.009   0.307  10.362 -0.2969  0.4167 -1.7692
14018SOL    HW245586   7.076   0.433  10.413  0.8995 -0.4144 -1.2414
14019SOL     OW45587   2.195   2.171   5.060 -0.0025 -0.3508  0.2435
14019SOL    HW145588   2.218   2.248   5.008  0.5576  0.5623  1.7646
14019SOL    HW245589   2.257   2.104   5.032 -0.2187 -0.1401 -0.7982
14020SOL     OW45590   4.619   6.186   8.643  0.0380 -0.1179  0.3430
14020SOL    HW145591   4.642   6.247   8.713  2.3163 -0.7974  0.2538
14020SOL    HW245592   4.631   6.235   8.563 -2.3493  0.5866  0.3253
14021SOL     OW45593   7.042   7.739   3.933  0.5554 -0.3122  0.2298
14021SOL    HW145594   7.113   7.704   3.986  0.4440  0.1912  0.7294
14021SOL    HW245595   7.042   7.686   3.854  2.4650  0.6191 -0.4559
14022SOL     OW45596   3.652   3.381   8.619 -0.0218 -0.4119 -0.3521
14022SOL    HW145597   3.657   3.345   8.531 -0.7030  0.4545 -0.7646
14022SOL    HW245598   3.559   3.397   8.634  0.0174 -1.0710  0.7539
14023SOL     OW45599   9.194  10.969   7.733 -0.5218  0.1605  0.0250
14023SOL    HW145600   9.198  11.064   7.736 -1.3489  0.1750  1.9029
14023SOL    HW245601   9.282  10.940   7.756 -0.7308  0.5038  1.3678
14024SOL     OW45602   0.693   9.956  10.008  0.3687 -0.2262 -0.4681
14024SOL    HW145603   0.614   9.973   9.956 -0.9703  0.4406  1.6219
14024SOL    HW245604   0.738  10.040  10.011 -0.4810  0.2145  0.8239
14025SOL     OW45605   3.872   2.696   6.671  0.3449  0.3225 -0.6800
14025SOL    HW145606   3.780   2.685   6.695 -0.1450  1.1761 -2.0245
14025SOL    HW245607   3.907   2.756   6.736 -0.3558  0.8928 -0.8232
14026SOL     OW45608   3.658   1.133   8.772 -1.0036  0.2359 -0.1582
14026SOL    HW145609   3.661   1.145   8.867  0.1839 -0.4536 -0.0859
14026SOL    HW245610   3.604   1.205   8.740 -0.9431  0.8059  0.9881
14027SOL     OW45611   2.179   3.685   3.458 -0.1251 -0.4984 -0.3581
14027SOL    HW145612   2.213   3.597   3.443  0.2471 -0.5232  0.5726
14027SOL    HW245613   2.246   3.728   3.512 -0.8076 -0.0214  0.1304
14028SOL     OW45614   8.563   1.648   4.108 -0.2575 -0.1065  0.9889
14028SOL    HW145615   8.633   1.708   4.080 -0.7136 -0.5007 -1.1550
14028SOL    HW245616   8.506   1.703   4.163  0.3833  0.8911  0.6945
14029SOL     OW45617   1.641   4.136   7.518 -0.5201 -0.2713  0.5934
14029SOL    HW145618   1.722   4.151   7.566  1.6199  0.0252 -2.8006
14029SOL    HW245619   1.632   4.041   7.513 -0.7543 -0.3028  1.5060
14030SOL     OW45620   9.572   6.392   0.269  0.3661 -0.1610 -0.1576
14030SOL    HW145621   9.548   6.309   0.228 -0.0939  0.1073 -0.4383
14030SOL    HW245622   9.489   6.439   0.279  0.7176  0.6283 -0.8063
14031SOL     OW45623   1.802   2.446   5.837 -0.2915  0.1389 -0.4686
14031SOL    HW145624   1.828   2.354   5.831  0.5561  0.2820  0.6509
14031SOL    HW245625   1.717   2.450   5.794  0.0087 -1.0165 -1.2153
14032SOL     OW45626   0.778   7.468   9.153  0.2895 -0.3244 -0.2452
14032SOL    HW145627   0.804   7.545   9.202 -0.6381 -0.0292 -0.1991
14032SOL    HW245628   0.807   7.485   9.063  1.0086 -0.3861 -0.0296
14033SOL     OW45629   6.259   3.323   4.579 -0.2688 -0.5392 -0.0243
14033SOL    HW145630   6.280   3.386   4.510 -0.9589 -0.6107 -0.3091
14033SOL    HW245631   6.282   3.238   4.542 -0.3565 -0.5517 -0.0492
14034SOL     OW45632   9.172   9.525  10.976 -0.0540  0.2427  0.2633
14034SOL    HW145633   9.267   9.513  10.974 -0.2893 -1.8924 -0.0870
14034SOL    HW245634   9.156   9.600  10.919  1.2662 -0.6864 -1.4306
14035SOL     OW45635   5.682   7.138   2.192  0.1683  0.2579  0.1047
14035SOL    HW145636   5.623   7.068   2.164  0.8850 -0.1655 -0.3874
14035SOL    HW245637   5.727   7.165   2.112 -0.8371  2.0191  0.1016
14036SOL     OW45638   0.351   6.402   9.988  0.6633 -0.1086  0.3115
14036SOL    HW145639   0.360   6.428   9.896  1.9354  1.2269  0.7684
14036SOL    HW245640   0.258   6.411  10.007  0.4246 -0.1466 -0.7745
14037SOL     OW45641   4.697   5.537   8.711  0.0626 -0.1019  0.2658
14037SOL    HW145642   4.752   5.598   8.663  0.5616 -1.3421 -0.8086
14037SOL    HW245643   4.751   5.458   8.720 -0.8552 -0.6847  0.8716
14038SOL     OW45644   7.953   2.154   2.003 -0.3043  0.7070  0.1444
14038SOL    HW145645   7.959   2.074   2.055  0.3884 -1.3722 -2.9079
14038SOL    HW245646   8.039   2.195   2.012  0.6027 -0.8357 -1.0711
14039SOL     OW45647   2.952   5.661   5.804 -0.2444 -0.7603  0.4870
14039SOL    HW145648   2.928   5.602   5.733  0.6947  1.2163 -1.5901
14039SOL    HW245649   2.870   5.706   5.826 -0.0195  0.7497 -1.5008
14040SOL     OW45650   3.281   2.181   0.281  0.2632  0.7887 -0.1650
14040SOL    HW145651   3.251   2.093   0.303  1.1049  0.6593  0.5125
14040SOL    HW245652   3.217   2.239   0.323  0.6374  0.5138  0.7947
14041SOL     OW45653   2.696   2.408   5.144 -0.2563 -0.0697  0.4359
14041SOL    HW145654   2.683   2.359   5.226 -0.1972 -0.2398  0.3433
14041SOL    HW245655   2.612   2.451   5.128 -0.3305 -0.1995  0.4781
14042SOL     OW45656  10.850  10.827   8.277  0.3110  0.0264  0.0872
14042SOL    HW145657  10.844  10.812   8.182  1.5205 -0.7610  0.1117
14042SOL    HW245658  10.800  10.756   8.316 -0.4235  0.5104  0.0483
14043SOL     OW45659   9.445   3.039   7.290 -0.3331  0.6939 -0.4470
14043SOL    HW145660   9.431   2.945   7.281 -1.7170  0.7888  0.5044
14043SOL    HW245661   9.489   3.049   7.374  1.1965  0.8062 -1.2207
14044SOL     OW45662  10.328   2.074  10.681 -0.0373  0.4119  0.6523
14044SOL    HW145663  10.245   2.069  10.635 -0.5940  1.0991  1.5488
14044SOL    HW245664  10.390   2.028  10.624 -0.9007  0.3884 -0.2951
14045SOL     OW45665   8.907   5.040   4.567  0.2265 -0.0506  0.1414
14045SOL    HW145666   8.937   4.955   4.599  1.2994  0.0950 -0.4351
14045SOL    HW245667   8.982   5.098   4.577  0.0618  0.4058 -1.0731
14046SOL     OW45668   8.146   6.482   8.861 -0.4967 -0.1458 -0.4447
14046SOL    HW145669   8.135   6.435   8.779  2.9124  1.1299 -1.8018
14046SOL    HW245670   8.236   6.464   8.887 -0.9235  0.9684  2.0942
14047SOL     OW45671   4.469   5.218   2.340 -0.3855 -0.0034  0.0759
14047SOL    HW145672   4.444   5.130   2.310 -0.9955  0.2737 -0.2550
14047SOL    HW245673   4.526   5.203   2.415 -1.6251 -0.6748  0.9256
14048SOL     OW45674   0.608   8.307   0.373 -0.2200 -0.2168  0.1390
14048SOL    HW145675   0.642   8.338   0.289 -0.6831  1.7033  0.6190
14048SOL    HW245676   0.541   8.243   0.350 -1.4385  1.4158 -1.0319
14049SOL     OW45677  10.893   9.938   9.337  0.9117  0.3716  0.3307
14049SOL    HW145678  10.918   9.851   9.306  0.7366  0.6939 -0.7468
14049SOL    HW245679  10.947   9.998   9.286  0.6047  0.9259  0.6431
14050SOL     OW45680   8.439   3.541   5.089  0.8419  0.4619 -0.0140
14050SOL    HW145681   8.512   3.534   5.151  0.9644 -0.5724 -0.2593
14050SOL    HW245682   8.361   3.532   5.144  0.9451 -0.1900  0.0387
14051SOL     OW45683   0.171   8.598   0.508 -0.8713  0.4492 -0.9633
14051SOL    HW145684   0.166   8.690   0.534 -0.2817  0.3188 -0.3368
14051SOL    HW245685   0.265   8.581   0.499 -0.7594 -0.8132  1.6920
14052SOL     OW45686   0.610   3.861   6.768  0.5260 -0.2767 -0.0650
14052SOL    HW145687   0.600   3.930   6.833  0.0574 -1.6862  1.4506
14052SOL    HW245688   0.545   3.881   6.701 -1.2022 -0.4197  1.4837
14053SOL     OW45689   0.594  11.039   5.964  0.5259  0.4650 -0.3215
14053SOL    HW145690   0.549  10.992   6.035 -2.6225  1.4715 -1.4604
14053SOL    HW245691   0.631  11.117   6.007  0.7042 -0.1157  0.5940
14054SOL     OW45692   7.581  10.744   8.226 -0.4091 -0.3257  0.9633
14054SOL    HW145693   7.576  10.836   8.249 -2.1109 -0.5383  1.6248
14054SOL    HW245694   7.534  10.699   8.297 -1.2845 -1.4995 -0.2976
14055SOL     OW45695   4.700   5.032   9.113  0.0498 -0.0814 -0.1126
14055SOL    HW145696   4.659   4.974   9.049  0.2582  1.4905 -1.7637
14055SOL    HW245697   4.627   5.067   9.164 -0.4900  0.9923 -1.5575
14056SOL     OW45698   6.356   6.021   7.220  0.2267  0.2834  0.3811
14056SOL    HW145699   6.299   5.947   7.198 -0.0514  0.7611 -0.5533
14056SOL    HW245700   6.346   6.030   7.315 -1.0029  0.1349  0.2903
14057SOL     OW45701   4.825   5.427   3.229 -0.0478  0.2673  0.5383
14057SOL    HW145702   4.787   5.433   3.317  0.3961 -1.1465  0.8473
14057SOL    HW245703   4.901   5.370   3.239  0.3060  0.4944 -0.6811
14058SOL     OW45704   8.054   9.772   8.574  0.1207  0.1110  0.1362
14058SOL    HW145705   8.057   9.806   8.484  1.0268 -0.1088  0.0735
14058SOL    HW245706   8.018   9.844   8.626 -0.0315  0.3796 -0.3351
14059SOL     OW45707   8.919   6.746  10.653  0.0034  0.1189 -0.1371
14059SOL    HW145708   8.931   6.759  10.747  0.2694 -0.3948 -0.0997
14059SOL    HW245709   9.008   6.741  10.617 -0.0954  0.2951 -0.4155
14060SOL     OW45710   2.992   7.005   3.629 -0.3975 -0.0017 -0.3140
14060SOL    HW145711   3.010   7.098   3.643  0.5196 -0.0482 -1.1201
14060SOL    HW245712   2.908   6.990   3.673 -1.4724  1.6225 -1.7084
14061SOL     OW45713   2.531   4.342   5.081 -0.4434 -0.0583  0.1621
14061SOL    HW145714   2.555   4.256   5.046 -1.4775 -0.1209 -0.4509
14061SOL    HW245715   2.558   4.339   5.173  0.8746 -0.4833 -0.2130
14062SOL     OW45716   4.850   6.177   3.844  0.5583 -0.1727 -0.2122
14062SOL    HW145717   4.935   6.144   3.814  1.2210  0.6868  0.6632
14062SOL    HW245718   4.807   6.207   3.764 -0.2101 -3.3025 -1.1020
14063SOL     OW45719   0.542   7.795   0.148 -0.0001 -0.8362  0.1315
14063SOL    HW145720   0.535   7.865   0.084 -0.2552 -0.6472  0.3667
14063SOL    HW245721   0.617   7.743   0.118 -0.1251 -0.7550 -0.3207
14064SOL     OW45722   1.887   2.863   6.303  0.1130 -0.2388 -0.0586
14064SOL    HW145723   1.823   2.802   6.265  1.0288 -1.0030 -0.4112
14064SOL    HW245724   1.971   2.819   6.292  0.6935  0.7060  0.5003
14065SOL     OW45725   5.336   9.830   0.474 -0.1090  0.1324  0.8239
14065SOL    HW145726   5.382   9.914   0.482 -1.6515  1.2588 -1.1440
14065SOL    HW245727   5.254   9.844   0.522 -0.3184 -0.2947  0.5902
14066SOL     OW45728   2.917  10.223   9.458  0.2812 -0.1034  1.1039
14066SOL    HW145729   2.957  10.162   9.520  0.5791  0.0316  1.0484
14066SOL    HW245730   2.897  10.170   9.381 -1.1362 -0.5118  1.7347
14067SOL     OW45731   3.498   9.153   9.525 -0.4481 -0.4636 -0.4262
14067SOL    HW145732   3.591   9.134   9.529 -0.8914 -4.2112 -3.0756
14067SOL    HW245733   3.468   9.144   9.615  1.6381  0.5820  0.4351
14068SOL     OW45734  11.037   9.958   0.919  0.0517 -0.0208  0.0778
14068SOL    HW145735  11.071  10.041   0.885  1.7409 -0.6277  0.1816
14068SOL    HW245736  10.954   9.981   0.960 -0.3859  1.3134 -1.4468
14069SOL     OW45737   2.447   9.387   1.651  0.1451  0.3216  0.0972
14069SOL    HW145738   2.485   9.301   1.668 -1.0342 -0.2001  0.1666
14069SOL    HW245739   2.396   9.376   1.571 -1.0432  0.6146  0.7904
14070SOL     OW45740   5.252   1.204   4.197 -0.0889 -0.3245  0.0023
14070SOL    HW145741   5.281   1.123   4.238  1.1194  0.1621  0.1376
14070SOL    HW245742   5.272   1.192   4.104  1.2200  0.2803  0.1920
14071SOL     OW45743   1.135   1.023   5.756 -0.4663  0.2132  0.8510
14071SOL    HW145744   1.163   0.932   5.752 -1.0223  0.0673 -0.7393
14071SOL    HW245745   1.059   1.027   5.698 -0.3733  1.7176  0.7856
14072SOL     OW45746   6.003   4.491   0.576  1.4850 -0.4402 -0.3444
14072SOL    HW145747   6.003   4.579   0.539  0.7518 -0.0077  0.6484
14072SOL    HW245748   6.000   4.504   0.671  0.4184 -1.5252 -0.1970
14073SOL     OW45749   2.155   0.538  10.413  0.1481  0.1287 -0.4271
14073SOL    HW145750   2.150   0.570  10.323 -0.6117  1.8870  0.2068
14073SOL    HW245751   2.069   0.499  10.430 -0.3497  1.3941  0.0792
14074SOL     OW45752   3.577   0.724   3.318 -0.0177 -0.7446  0.0787
14074SOL    HW145753   3.672   0.713   3.306  0.9491  3.8061  1.3675
14074SOL    HW245754   3.561   0.694   3.408  1.2306  2.1192  1.3959
14075SOL     OW45755   0.081   2.165   2.424 -0.3749 -0.6987  0.2352
14075SOL    HW145756   0.175   2.166   2.437 -0.5641  1.7258  1.9724
14075SOL    HW245757   0.044   2.176   2.511 -2.1670  1.5567 -0.7133
14076SOL     OW45758   2.254  10.719   6.823  0.4324 -0.0613  0.1925
14076SOL    HW145759   2.214  10.641   6.786 -0.8086  0.2788  0.7453
14076SOL    HW245760   2.198  10.741   6.898  0.2721  1.8103 -0.4237
14077SOL     OW45761   8.760   2.890   4.894 -0.3498 -0.2890 -0.8139
14077SOL    HW145762   8.832   2.836   4.927 -1.1357 -0.3208  0.9449
14077SOL    HW245763   8.803   2.955   4.837  1.3635  0.9754  1.7295
14078SOL     OW45764   9.058   4.692   1.658  0.0216 -0.4634 -0.2825
14078SOL    HW145765   9.084   4.730   1.574  1.9084  0.5716  0.6911
14078SOL    HW245766   9.028   4.604   1.637 -1.0137  0.2907 -2.1941
14079SOL     OW45767   0.121   8.686   3.353 -0.3034 -0.2375  0.0266
14079SOL    HW145768   0.101   8.612   3.410 -2.5585  1.4610  1.6383
14079SOL    HW245769   0.192   8.732   3.397  0.1425 -0.6627 -0.2406
14080SOL     OW45770   6.973   2.645   7.083 -0.3822 -0.4436  0.1600
14080SOL    HW145771   7.012   2.731   7.062  0.5970 -0.9865 -0.3239
14080SOL    HW245772   7.043   2.598   7.127 -0.4082 -1.5244 -0.9095
14081SOL     OW45773   3.845   3.374  10.097 -0.6877 -0.1977 -0.2023
14081SOL    HW145774   3.852   3.352  10.004  0.3133  0.5251 -0.3152
14081SOL    HW245775   3.885   3.460  10.104 -0.1654 -0.5196  1.0044
14082SOL     OW45776   1.128   1.452   9.645 -0.3876 -0.1859  0.3907
14082SOL    HW145777   1.172   1.511   9.706 -1.1960  1.7831 -0.8217
14082SOL    HW245778   1.048   1.426   9.691 -0.0509 -0.2916  0.9225
14083SOL     OW45779   5.810   0.335   6.428 -0.0006  0.0452 -0.0180
14083SOL    HW145780   5.753   0.259   6.440 -1.4253  1.3249  1.7881
14083SOL    HW245781   5.767   0.387   6.361  0.5816 -0.3416 -0.7097
14084SOL     OW45782   1.503  10.574  10.031 -0.1479 -0.0610 -0.0366
14084SOL    HW145783   1.506  10.597  10.124  0.5359 -0.0374 -0.0607
14084SOL    HW245784   1.430  10.626   9.996 -3.3663 -3.2606  1.3171
14085SOL     OW45785   2.298   6.823   3.854 -0.0237 -0.0478  0.1016
14085SOL    HW145786   2.367   6.876   3.812 -0.9639 -1.1945 -3.2041
14085SOL    HW245787   2.217   6.852   3.813 -0.8740 -2.1441  0.1618
14086SOL     OW45788   2.634   2.709   1.567 -0.0395 -0.1188 -0.2548
14086SOL    HW145789   2.637   2.615   1.548 -0.4005 -0.3629  0.8362
14086SOL    HW245790   2.672   2.716   1.654  1.5069  0.9493 -0.9806
14087SOL     OW45791  10.070   1.627   3.591  0.1184 -0.0152 -0.1586
14087SOL    HW145792  10.060   1.689   3.663 -1.0212 -0.2745 -0.0651
14087SOL    HW245793  10.012   1.661   3.522 -0.4696 -0.9153 -0.1270
14088SOL     OW45794   3.007  10.605   4.469 -0.6909 -0.0759 -0.4559
14088SOL    HW145795   3.047  10.655   4.540 -1.8065  1.3296 -0.7476
14088SOL    HW245796   2.937  10.555   4.511 -3.4723  3.1465 -0.8259
14089SOL     OW45797   9.224   0.505   1.476  0.3648  0.6161 -0.0222
14089SOL    HW145798   9.210   0.593   1.443 -0.5359  0.4390 -0.1389
14089SOL    HW245799   9.156   0.493   1.543  0.5007  0.0339  0.0205
14090SOL     OW45800   8.481   9.650   5.987 -0.5538 -0.3490 -0.4344
14090SOL    HW145801   8.554   9.692   6.030  0.7509 -1.9849 -0.9347
14090SOL    HW245802   8.496   9.664   5.893 -0.4925 -1.2343 -0.5719
14091SOL     OW45803  10.245  10.759   2.370  0.5690 -0.0825  0.5273
14091SOL    HW145804  10.161  10.760   2.325 -0.0352  1.0064  1.6180
14091SOL    HW245805  10.222  10.760   2.463  1.7734  1.6576  0.8401
14092SOL     OW45806   0.430   1.017   7.674 -0.2072 -0.6961 -0.0183
14092SOL    HW145807   0.387   0.933   7.662  1.1069 -1.1267 -2.2655
14092SOL    HW245808   0.493   1.023   7.602 -0.1789  2.1715  0.1105
14093SOL     OW45809   4.585   8.149   4.153  0.2580 -0.3941  0.3030
14093SOL    HW145810   4.602   8.171   4.245 -1.0288 -1.3406  0.7905
14093SOL    HW245811   4.606   8.056   4.147  2.8491  0.1752 -1.0379
14094SOL     OW45812   4.277   5.159  10.848  0.0294 -0.4911  0.2546
14094SOL    HW145813   4.194   5.156  10.895 -0.1778 -0.2831 -0.0868
14094SOL    HW245814   4.269   5.091  10.781 -0.2005  0.0797 -0.3070
14095SOL     OW45815  10.154   0.103   6.107 -0.9517 -0.5808 -0.5008
14095SOL    HW145816  10.125   0.192   6.123  0.4399 -0.2667  0.4957
14095SOL    HW245817  10.243   0.112   6.073 -0.8068 -1.5944 -0.4436
14096SOL     OW45818   9.052  10.836  10.968  0.0937 -0.2061 -0.0068
14096SOL    HW145819   9.123  10.786  11.009 -0.5063  0.5168  2.0810
14096SOL    HW245820   9.061  10.924  11.005  0.0000  0.7743 -2.1692
14097SOL     OW45821   9.648   9.316   9.253  0.1376 -0.0839 -0.0658
14097SOL    HW145822   9.718   9.270   9.298  0.9369  0.9799 -0.2091
14097SOL    HW245823   9.641   9.271   9.168  0.0589 -0.7308  0.2776
14098SOL     OW45824   0.438   6.915   1.236 -0.3708  0.5415 -0.0025
14098SOL    HW145825   0.428   6.887   1.145 -0.8984  0.3828  0.1027
14098SOL    HW245826   0.370   6.867   1.284  0.3935  0.0337  0.6039
14099SOL     OW45827   2.763   7.424   9.422  0.0809  0.2919  0.5316
14099SOL    HW145828   2.838   7.365   9.414  0.3662  0.6285  0.6926
14099SOL    HW245829   2.783   7.497   9.363 -0.6423 -0.1504 -0.2775
14100SOL     OW45830   4.609   9.423   9.645  0.2051 -0.0935 -0.1154
14100SOL    HW145831   4.691   9.424   9.596  1.1692  0.1058  1.4374
14100SOL    HW245832   4.596   9.332   9.669 -1.0228 -0.4326 -1.8919
14101SOL     OW45833   9.728   9.650   2.179  0.0698 -0.1158 -0.1722
14101SOL    HW145834   9.811   9.685   2.212  0.0633  1.5510 -1.7555
14101SOL    HW245835   9.669   9.726   2.176 -0.5655 -0.6282 -1.8568
14102SOL     OW45836   9.499   8.269   8.550  0.4984 -0.2758 -0.1494
14102SOL    HW145837   9.453   8.225   8.479  0.1808  1.6595 -1.2197
14102SOL    HW245838   9.430   8.291   8.613 -0.0044  1.8466 -1.3427
14103SOL     OW45839   1.718   6.988   8.990 -0.1799 -0.3865 -0.1795
14103SOL    HW145840   1.669   6.907   9.001 -0.1081 -0.4737 -0.5062
14103SOL    HW245841   1.806   6.968   9.023 -0.8808  0.3647  2.4186
14104SOL     OW45842   7.205   3.341   3.066 -0.7890 -0.2442 -0.0876
14104SOL    HW145843   7.286   3.352   3.116 -0.9498 -1.6634  0.5310
14104SOL    HW245844   7.144   3.403   3.106  0.2360  1.5625 -1.2082
14105SOL     OW45845   0.190  10.839   5.762  0.3537 -0.0428  0.1036
14105SOL    HW145846   0.281  10.814   5.747  0.3607  0.2404 -0.3528
14105SOL    HW245847   0.168  10.800   5.846  1.7113  2.0606  1.5195
14106SOL     OW45848   6.743  10.198   5.693 -0.1419  1.0677 -0.1174
14106SOL    HW145849   6.751  10.293   5.704 -0.1322  1.3398 -2.0978
14106SOL    HW245850   6.830  10.170   5.663 -0.3515  0.5553 -0.2581
14107SOL     OW45851   6.811   0.612   4.835  0.8993  0.1571  0.0911
14107SOL    HW145852   6.879   0.674   4.859 -0.2987  1.2940  0.6586
14107SOL    HW245853   6.732   0.665   4.823 -0.9616 -1.4295  3.5881
14108SOL     OW45854   2.678   7.799   2.712  0.3887 -0.3470  0.4774
14108SOL    HW145855   2.611   7.830   2.651  0.3745 -0.9063  0.1931
14108SOL    HW245856   2.756   7.850   2.691 -0.1811  0.9647  1.4307
14109SOL     OW45857  10.892  10.676   1.799  0.0057 -0.8945 -0.1128
14109SOL    HW145858  10.875  10.643   1.711  0.3171  0.4358 -0.7062
14109SOL    HW245859  10.814  10.727   1.821  0.5280 -0.0270 -0.2284
14110SOL     OW45860  10.243   1.892   8.965 -0.0540 -0.1684  0.0529
14110SOL    HW145861  10.184   1.924   9.033 -1.1931  1.0709 -1.4485
14110SOL    HW245862  10.254   1.799   8.985  0.4129  0.3219  2.4407
14111SOL     OW45863   5.994   5.753   8.159  0.1744 -0.3065 -0.7451
14111SOL    HW145864   5.973   5.702   8.237  1.3622 -0.9898 -0.8572
14111SOL    HW245865   6.002   5.688   8.089  1.0976  0.0795 -1.0173
14112SOL     OW45866   9.095   4.128   9.207 -0.2207  0.3421  0.1516
14112SOL    HW145867   9.146   4.054   9.173  0.0420  0.1006  1.0439
14112SOL    HW245868   9.007   4.092   9.221 -0.3841  0.4958 -0.4454
14113SOL     OW45869   1.911   6.041   5.887  0.1783  0.0116 -0.2596
14113SOL    HW145870   1.988   5.989   5.912  1.6928  1.1783 -2.2273
14113SOL    HW245871   1.848   5.977   5.854  1.6134 -0.7230 -1.7089
14114SOL     OW45872   9.125   6.644   3.282  0.4386  0.0322 -0.7045
14114SOL    HW145873   9.162   6.715   3.335  0.3908  1.1097 -2.0506
14114SOL    HW245874   9.040   6.678   3.255 -1.2282 -2.0172  1.5494
14115SOL     OW45875   0.097  10.690   0.097 -0.4604  0.5025 -0.3414
14115SOL    HW145876   0.160  10.618   0.106  1.2748  1.9332 -0.2396
14115SOL    HW245877   0.016  10.656   0.135  0.5410 -1.0812  0.5268
14116SOL     OW45878   2.840   7.090   0.320 -0.0915  0.2354  0.0621
14116SOL    HW145879   2.776   7.150   0.357 -2.8702 -2.3543 -0.1500
14116SOL    HW245880   2.841   7.110   0.227 -0.6809  0.2368  0.0548
14117SOL     OW45881   5.191   9.743   5.529  0.4051  0.6770  0.7437
14117SOL    HW145882   5.182   9.832   5.562  0.4951  1.1797 -0.5222
14117SOL    HW245883   5.264   9.747   5.468  0.3405 -0.2386  0.5889
14118SOL     OW45884   4.192   6.498   5.088 -0.3217  0.3545  0.7228
14118SOL    HW145885   4.266   6.438   5.079 -0.4407  0.0897  1.4088
14118SOL    HW245886   4.209   6.568   5.025  1.0264  0.8138  1.5505
14119SOL     OW45887   8.458  10.765  10.148  0.1306 -0.3725 -0.0677
14119SOL    HW145888   8.415  10.735  10.068  1.2998 -0.3576 -0.7269
14119SOL    HW245889   8.537  10.710  10.155  0.6836  0.4604  0.3975
14120SOL     OW45890   8.511   5.018   5.129 -0.7929 -0.1899  0.0819
14120SOL    HW145891   8.440   5.074   5.099 -0.1807  0.5956  0.0810
14120SOL    HW245892   8.545   5.061   5.207 -1.3979 -1.4370  1.0556
14121SOL     OW45893   6.259   3.504   6.339 -0.1326 -0.4000  0.1054
14121SOL    HW145894   6.171   3.533   6.315  0.2013  1.2442  0.7152
14121SOL    HW245895   6.280   3.553   6.419  1.4804 -0.4772 -0.2325
14122SOL     OW45896   0.862   9.098   6.596  0.0573  0.0681 -0.1575
14122SOL    HW145897   0.859   9.126   6.687  0.2400  0.4786 -0.2792
14122SOL    HW245898   0.770   9.096   6.569  0.0384  0.4589 -0.1219
14123SOL     OW45899   0.736   9.820   4.825 -0.3538  0.2652 -0.5808
14123SOL    HW145900   0.831   9.817   4.835 -0.2329  4.3292  1.7846
14123SOL    HW245901   0.722   9.878   4.750 -0.9314  0.2215 -0.5112
14124SOL     OW45902   4.243   6.396   5.437 -0.0345 -0.8252 -0.1995
14124SOL    HW145903   4.232   6.417   5.529  0.3056 -1.4647 -0.0057
14124SOL    HW245904   4.200   6.468   5.390 -1.1336 -1.0318  0.4642
14125SOL     OW45905  10.754   6.327   3.160  0.2640 -0.6371 -0.3144
14125SOL    HW145906  10.743   6.267   3.087 -1.1961 -0.7325 -0.0439
14125SOL    HW245907  10.742   6.414   3.123 -2.3237 -0.7624  0.0746
14126SOL     OW45908   8.360   5.389   6.150 -0.1435  0.3188 -0.5251
14126SOL    HW145909   8.414   5.376   6.071 -0.7832  1.3673 -1.1497
14126SOL    HW245910   8.340   5.482   6.150 -0.3320  0.2930  0.7843
14127SOL     OW45911   3.638   0.020   2.372 -0.5409  0.0995  0.1773
14127SOL    HW145912   3.712  -0.005   2.316 -1.0238 -1.8647  0.3232
14127SOL    HW245913   3.614   0.107   2.342  2.5467  1.3488  0.9002
14128SOL     OW45914   6.980  10.252   4.688  0.5820  0.1272  0.4286
14128SOL    HW145915   6.963  10.158   4.674  1.2580  0.2091 -1.1419
14128SOL    HW245916   6.900  10.295   4.659  0.2887  0.0465  1.1056
14129SOL     OW45917   9.720   2.426   8.294 -0.9266  0.6532  0.2222
14129SOL    HW145918   9.768   2.379   8.226  1.1513  1.0344  1.3209
14129SOL    HW245919   9.629   2.424   8.265 -0.3370 -0.4950 -1.7792
14130SOL     OW45920   6.949   2.261   8.689  0.1617 -0.0857 -0.0360
14130SOL    HW145921   6.934   2.221   8.775  2.3172  0.2451  0.5555
14130SOL    HW245922   7.044   2.267   8.682 -0.0122  3.0682 -0.9761
14131SOL     OW45923   9.250   8.198   5.199 -0.1076 -1.0732  1.1282
14131SOL    HW145924   9.232   8.280   5.153 -2.4380 -0.8845  2.2560
14131SOL    HW245925   9.269   8.135   5.128 -1.6966 -0.3440 -0.0130
14132SOL     OW45926   5.618   0.597   9.320  0.1478 -0.0578 -0.1037
14132SOL    HW145927   5.601   0.579   9.228  2.0763 -1.9986 -0.1688
14132SOL    HW245928   5.534   0.579   9.364 -0.1555 -1.4586 -1.2026
14133SOL     OW45929   7.871   0.620   7.024 -0.2718 -0.2046 -0.3604
14133SOL    HW145930   7.811   0.693   7.037 -0.4120 -0.3187 -0.3536
14133SOL    HW245931   7.937   0.630   7.092 -0.5063 -0.2982 -0.1169
14134SOL     OW45932   2.440   1.573   4.744  0.0336  0.2862  0.0365
14134SOL    HW145933   2.478   1.493   4.781 -1.0401 -0.8848 -1.2630
14134SOL    HW245934   2.514   1.631   4.730  0.8512 -0.5054  0.9410
14135SOL     OW45935   7.197   5.846   1.388 -0.1192  0.2436  0.6733
14135SOL    HW145936   7.191   5.757   1.423  0.3185 -0.6581 -1.3622
14135SOL    HW245937   7.291   5.861   1.378 -0.2234  0.3015 -0.3935
14136SOL     OW45938   5.964   1.288   2.342  0.1037 -0.3831 -0.6125
14136SOL    HW145939   5.921   1.206   2.317 -0.0229 -1.2275  2.0311
14136SOL    HW245940   5.893   1.352   2.344 -0.1323 -0.6262 -0.9919
14137SOL     OW45941   8.566   0.383  10.371  0.5165  0.0606 -0.2846
14137SOL    HW145942   8.582   0.328  10.448  1.8721 -0.4299 -0.8769
14137SOL    HW245943   8.582   0.472  10.401  0.2214 -0.0430  0.1994
14138SOL     OW45944   8.481   9.510  10.448 -0.1160  0.1261 -0.2728
14138SOL    HW145945   8.436   9.510  10.533 -0.6496 -1.1130 -0.5295
14138SOL    HW245946   8.496   9.417  10.429  0.9968  0.4390 -1.0224
14139SOL     OW45947   4.966   9.646   5.076  0.2747  0.5909 -0.3422
14139SOL    HW145948   4.978   9.561   5.119 -1.1917  0.7945  0.5283
14139SOL    HW245949   4.897   9.689   5.127 -1.4691  0.9059 -2.8132
14140SOL     OW45950  10.921   2.521   2.763  0.0841  0.1465  0.5186
14140SOL    HW145951  10.933   2.609   2.727  2.7941 -0.1179  0.5285
14140SOL    HW245952  11.010   2.487   2.773 -0.8568 -2.9393 -0.2764
14141SOL     OW45953   4.497   8.541   0.230  0.3900  0.4343 -0.4755
14141SOL    HW145954   4.541   8.606   0.284  0.6573 -0.2980  0.2037
14141SOL    HW245955   4.519   8.457   0.270  0.7693 -0.1483 -1.8428
14142SOL     OW45956   3.046   6.538   3.716 -0.0428 -0.2510 -0.1616
14142SOL    HW145957   3.101   6.613   3.693  0.5042  0.2473  2.4067
14142SOL    HW245958   3.106   6.463   3.712  0.4322  0.0440  0.9638
14143SOL     OW45959   8.177   1.047   4.970 -0.0994  0.1106 -0.1116
14143SOL    HW145960   8.217   1.061   5.055  0.8298  0.1041 -0.5397
14143SOL    HW245961   8.165   1.135   4.934  0.1218  0.0846 -0.2507
14144SOL     OW45962   1.063   4.599   2.835  0.2514 -0.1181 -0.6505
14144SOL    HW145963   1.136   4.538   2.822  0.4999  0.0306  0.0047
14144SOL    HW245964   1.053   4.604   2.930 -0.9327 -0.5033 -0.7380
14145SOL     OW45965   4.826   5.373   2.010  0.6218  0.1340 -0.1321
14145SOL    HW145966   4.891   5.349   2.076 -0.9178 -0.2712  1.2859
14145SOL    HW245967   4.804   5.464   2.029  2.3858  1.0711 -2.0689
14146SOL     OW45968   7.716   2.830   0.747 -0.0991  0.0625  0.4855
14146SOL    HW145969   7.621   2.824   0.740  0.0028 -1.0108 -0.1614
14146SOL    HW245970   7.741   2.900   0.687 -0.4670  0.2890  0.5953
14147SOL     OW45971  10.092   1.127   8.164  0.0964  0.0998  0.7106
14147SOL    HW145972  10.077   1.035   8.187  0.2621 -0.9117 -2.6776
14147SOL    HW245973  10.004   1.161   8.145  0.2869 -0.5950 -1.7902
14148SOL     OW45974   0.704   4.711  10.612  0.9264 -0.0768  0.2808
14148SOL    HW145975   0.722   4.634  10.558 -2.3560 -1.1161  0.4588
14148SOL    HW245976   0.682   4.675  10.698  1.8539  1.2935  1.1377
14149SOL     OW45977   5.267   8.957   2.112 -0.2988 -0.3810  0.5994
14149SOL    HW145978   5.295   8.976   2.201 -2.5260 -0.0814  1.2960
14149SOL    HW245979   5.263   8.861   2.108 -2.1290 -0.3830  1.5297
14150SOL     OW45980   6.758   2.199   2.511 -0.1228  0.9229  0.0970
14150SOL    HW145981   6.792   2.287   2.526 -1.4186  1.2185  1.5497
14150SOL    HW245982   6.725   2.171   2.596  0.2630 -0.9849 -0.3329
14151SOL     OW45983   4.567   7.128   6.935  0.5939 -0.4822  0.3183
14151SOL    HW145984   4.583   7.077   6.856  1.3923 -0.8901  0.7374
14151SOL    HW245985   4.473   7.147   6.932  0.6347 -0.3617 -0.7969
14152SOL     OW45986   0.175   2.893   9.554  0.4764  0.0635 -0.1304
14152SOL    HW145987   0.257   2.937   9.578 -0.1492  0.4629  1.4194
14152SOL    HW245988   0.197   2.800   9.553  1.2715  0.2478 -1.1191
14153SOL     OW45989   0.754   1.306   2.492 -0.1351 -0.3657 -0.6458
14153SOL    HW145990   0.665   1.274   2.506  0.2154 -0.6782  1.0203
14153SOL    HW245991   0.748   1.400   2.507  0.1258 -0.6204  1.2732
14154SOL     OW45992   3.857  10.026   0.292  0.0222  0.2500 -0.0237
14154SOL    HW145993   3.821  10.064   0.212  0.7184  0.8381 -0.0771
14154SOL    HW245994   3.800   9.952   0.312  0.6755 -0.8097 -1.8729
14155SOL     OW45995   2.874   8.952   4.704  0.5255  0.3734  0.1278
14155SOL    HW145996   2.882   9.046   4.722 -1.1147  0.5126  0.2656
14155SOL    HW245997   2.961   8.926   4.675  1.5349  1.5387  1.9189
14156SOL     OW45998   7.444   3.788   2.692 -0.3354 -0.3385 -0.3759
14156SOL    HW145999   7.359   3.817   2.658 -1.3191 -1.4926  1.0047
14156SOL    HW246000   7.424   3.749   2.776  1.6993  0.0809  0.3568
14157SOL     OW46001   9.255   9.655   6.365 -0.1890  0.2755 -0.3714
14157SOL    HW146002   9.164   9.684   6.368 -0.0781  1.0066 -2.4221
14157SOL    HW246003   9.251   9.561   6.383 -1.4693  0.1214 -1.3442
14158SOL     OW46004   9.038   2.353   5.033  0.3588 -0.2298  0.5076
14158SOL    HW146005   8.976   2.421   5.057 -0.0835 -0.8233  1.0504
14158SOL    HW246006   9.049   2.364   4.938 -0.4201 -0.0032  0.4386
14159SOL     OW46007   6.735   5.169   5.053  0.4062 -0.3011 -0.0729
14159SOL    HW146008   6.820   5.126   5.064 -0.4008 -2.0733 -0.4504
14159SOL    HW246009   6.701   5.178   5.142  1.0140  0.5473  0.0939
14160SOL     OW46010   8.341   8.401   0.108  0.3454 -0.7578 -0.0717
14160SOL    HW146011   8.425   8.434   0.138  1.3249 -4.2969  1.6512
14160SOL    HW246012   8.280   8.423   0.179  0.0963  0.4285 -0.6173
14161SOL     OW46013   0.492   3.539  10.557 -0.1251 -0.0605 -1.0563
14161SOL    HW146014   0.454   3.599  10.494  0.6368  1.1915 -0.3597
14161SOL    HW246015   0.456   3.566  10.641 -1.8942 -2.3198 -1.0087
14162SOL     OW46016  10.027   8.152   3.096 -0.3317  0.9146 -0.7335
14162SOL    HW146017   9.961   8.122   3.159  2.6043 -2.6622  1.0314
14162SOL    HW246018   9.997   8.119   3.012 -0.5579 -1.3226  0.1542
14163SOL     OW46019   6.354   9.493   2.578 -0.0960  0.2654  0.5813
14163SOL    HW146020   6.282   9.534   2.531  1.5299  2.0528 -0.4958
14163SOL    HW246021   6.367   9.409   2.533 -0.1498  0.8698 -0.6031
14164SOL     OW46022   9.330   5.203   6.490  0.0371  0.7588  0.5875
14164SOL    HW146023   9.350   5.128   6.546 -0.2680 -0.1680 -0.4903
14164SOL    HW246024   9.238   5.222   6.508 -1.6545 -2.6214 -2.8374
14165SOL     OW46025  10.410  10.365   4.717 -0.4725 -0.1967 -0.3164
14165SOL    HW146026  10.356  10.291   4.743  0.9746 -0.7657  1.2384
14165SOL    HW246027  10.432  10.348   4.625 -1.1533 -1.0340 -0.3351
14166SOL     OW46028   8.450   2.489   4.900  0.5938 -0.0959  0.0362
14166SOL    HW146029   8.440   2.583   4.916  0.7959 -0.1498  0.5220
14166SOL    HW246030   8.475   2.483   4.808 -0.5686  0.2433 -0.3183
14167SOL     OW46031   3.617   4.111   3.990  0.0547  0.2173  0.3096
14167SOL    HW146032   3.636   4.174   3.920  1.7264  0.5264  0.9980
14167SOL    HW246033   3.522   4.116   4.001 -0.3631 -0.3084 -2.3426
14168SOL     OW46034   6.499   1.538   9.374 -0.0691  0.0439 -0.2686
14168SOL    HW146035   6.569   1.533   9.309  2.1606  1.4794  1.8737
14168SOL    HW246036   6.452   1.455   9.365  2.6757 -1.5520 -0.9351
14169SOL     OW46037   9.374   1.150   6.238 -0.1711  0.4625  0.5506
14169SOL    HW146038   9.460   1.121   6.208  0.4968  1.8800  1.0092
14169SOL    HW246039   9.339   1.075   6.286  0.7980 -0.1443  0.3307
14170SOL     OW46040   8.900   6.528   4.320 -0.0748 -0.3930  0.1396
14170SOL    HW146041   8.812   6.505   4.350 -1.7339  2.0426 -2.3857
14170SOL    HW246042   8.924   6.605   4.373 -1.3556  1.5063 -1.8705
14171SOL     OW46043   5.770   4.948   7.137  0.4920 -0.0480  0.5043
14171SOL    HW146044   5.841   5.011   7.146  1.0666 -0.4748 -0.8104
14171SOL    HW246045   5.793   4.878   7.199 -1.3346  1.9424  3.7486
14172SOL     OW46046   4.204   6.643  10.587 -0.5035  0.1967  0.1192
14172SOL    HW146047   4.281   6.671  10.637 -1.0542  0.4533  0.8441
14172SOL    HW246048   4.239   6.609  10.505  0.2835  1.8253 -0.2506
14173SOL     OW46049   6.653   0.632   7.394  0.0596 -0.5390  0.2353
14173SOL    HW146050   6.664   0.583   7.476  0.4420  0.7065  0.9558
14173SOL    HW246051   6.725   0.603   7.339  0.9082 -0.0236  1.0504
14174SOL     OW46052   2.765   7.092   1.144 -0.0231  0.0103 -0.3708
14174SOL    HW146053   2.704   7.148   1.193  0.5396  1.9269 -1.7287
14174SOL    HW246054   2.718   7.070   1.064  1.7841  3.7239 -2.7114
14175SOL     OW46055   4.488   1.136   6.119 -0.2748  0.1312  0.3953
14175SOL    HW146056   4.490   1.193   6.042  0.1761 -1.0032 -0.4763
14175SOL    HW246057   4.493   1.048   6.082  2.3139 -0.4144  1.7705
14176SOL     OW46058   0.188   8.568  10.682  0.2720  0.2716  0.0880
14176SOL    HW146059   0.155   8.571  10.592  0.7756  2.5370 -0.0831
14176SOL    HW246060   0.109   8.557  10.735  0.1192 -3.0218 -0.6153
14177SOL     OW46061   2.027  10.391   6.423  0.1938  0.1851 -0.2728
14177SOL    HW146062   1.972  10.404   6.346  1.4934 -1.7320 -1.6261
14177SOL    HW246063   1.979  10.327   6.476  0.2625 -0.1131 -0.5636
14178SOL     OW46064   8.350   0.859   3.383 -0.6872 -0.1491  0.4125
14178SOL    HW146065   8.307   0.773   3.377  0.3907 -0.6939  0.2430
14178SOL    HW246066   8.345   0.895   3.295  0.0920 -0.6542  0.1602
14179SOL     OW46067   3.815   3.566   1.863 -0.3119 -0.5876  0.3507
14179SOL    HW146068   3.784   3.564   1.772  1.9932 -0.9792 -0.4931
14179SOL    HW246069   3.780   3.485   1.902  1.1467 -1.9977 -1.1166
14180SOL     OW46070  10.279   2.200   1.438  0.4863  0.5364 -0.0020
14180SOL    HW146071  10.356   2.145   1.425 -0.4090 -0.7272 -0.1812
14180SOL    HW246072  10.313   2.284   1.467  1.9229 -0.0075 -0.0683
14181SOL     OW46073   7.176   9.180   6.988 -0.6783 -0.6878 -0.4597
14181SOL    HW146074   7.103   9.213   7.039 -1.4160  0.0595 -1.9210
14181SOL    HW246075   7.213   9.258   6.946 -0.9411 -1.3950 -2.0806
14182SOL     OW46076   1.952   2.018   0.249  0.1995  0.7967  0.1162
14182SOL    HW146077   1.899   2.021   0.169  0.8001 -1.3692 -0.4338
14182SOL    HW246078   2.035   1.979   0.221  1.0336  1.4904  1.5105
14183SOL     OW46079   3.771   2.548   3.268 -0.0339  0.9383  1.3174
14183SOL    HW146080   3.679   2.571   3.257 -0.3153 -0.7710 -0.3109
14183SOL    HW246081   3.771   2.474   3.328  0.1948  0.3808  0.6374
14184SOL     OW46082   2.420   9.872   1.671 -0.2778  0.3042  0.4084
14184SOL    HW146083   2.364   9.865   1.748 -0.6923 -2.2978 -0.0562
14184SOL    HW246084   2.373   9.825   1.602  1.2475  0.3809 -0.7393
14185SOL     OW46085   3.766   2.028   9.295 -0.0494 -0.4394  0.4227
14185SOL    HW146086   3.725   2.029   9.381  1.3874  0.3614  1.1450
14185SOL    HW246087   3.734   1.948   9.253 -2.3094  0.1435  0.9063
14186SOL     OW46088   1.033   0.016   7.477 -0.1627 -0.0090 -0.0145
14186SOL    HW146089   1.118   0.032   7.435 -0.7810 -1.0901 -1.8182
14186SOL    HW246090   0.985   0.098   7.467 -0.0696 -0.0539 -0.8998
14187SOL     OW46091  10.730   6.547   6.042  0.4295 -0.6592 -0.0826
14187SOL    HW146092  10.663   6.512   5.983  0.2895  0.1763 -0.4283
14187SOL    HW246093  10.682   6.571   6.121  0.4245 -0.6574 -0.0862
14188SOL     OW46094   6.461   7.367  10.925  0.4639 -0.0355 -0.0527
14188SOL    HW146095   6.527   7.321  10.976  0.1324 -0.0967  0.3200
14188SOL    HW246096   6.400   7.404  10.989 -0.4305 -0.8223 -0.4148
14189SOL     OW46097   3.073   9.940  10.736  0.2320 -0.1386 -0.2560
14189SOL    HW146098   3.107  10.011  10.681 -0.7534  0.3793 -0.2104
14189SOL    HW246099   3.080   9.862  10.680  1.9315 -0.1540 -0.0736
14190SOL     OW46100   8.981   1.259   2.676  0.5755  0.1807 -0.4073
14190SOL    HW146101   8.978   1.178   2.727  0.8331 -0.1218 -0.8693
14190SOL    HW246102   8.894   1.298   2.689 -1.1083 -2.1467 -3.3777
14191SOL     OW46103   3.461   1.255   1.784 -0.3379 -0.5833  0.1356
14191SOL    HW146104   3.472   1.351   1.787  1.1906 -0.7393  0.6532
14191SOL    HW246105   3.522   1.222   1.850 -0.3694 -1.9534 -0.4837
14192SOL     OW46106   2.106   6.575   0.841  0.4003  0.2749  0.4301
14192SOL    HW146107   2.060   6.617   0.913 -0.5096  0.8327 -0.4480
14192SOL    HW246108   2.194   6.558   0.875 -0.0406  0.4255  1.6902
14193SOL     OW46109   8.852   5.406   7.807 -0.1622 -0.3658  0.0180
14193SOL    HW146110   8.796   5.454   7.745  0.5735 -2.4791 -2.4766
14193SOL    HW246111   8.810   5.420   7.892 -1.6342  2.1608 -0.9704
14194SOL     OW46112   1.620   6.923   7.455 -0.2400  0.5015 -0.6599
14194SOL    HW146113   1.651   6.845   7.408  1.0122  1.1694 -0.9834
14194SOL    HW246114   1.615   6.895   7.546  0.0806 -0.0012 -0.7925
14195SOL     OW46115   6.107  10.752   6.576  0.1615  0.5805 -0.0225
14195SOL    HW146116   6.175  10.726   6.637 -0.6847 -0.4120  0.5495
14195SOL    HW246117   6.035  10.782   6.632 -1.7988 -3.1379 -0.2033
14196SOL     OW46118   1.960   7.961   7.649  0.3001  0.2875 -0.3269
14196SOL    HW146119   2.042   7.938   7.606  0.1993 -0.1109 -0.3062
14196SOL    HW246120   1.900   7.983   7.577 -0.3216 -1.7993 -0.5128
14197SOL     OW46121   3.296   3.924   0.044  0.3888 -0.1464 -0.0776
14197SOL    HW146122   3.237   3.996   0.063  2.1657  1.1662  0.7511
14197SOL    HW246123   3.278   3.860   0.113 -0.0484  0.2398  0.1721
14198SOL     OW46124  10.966   2.613   1.808  0.4251 -0.0406  0.1460
14198SOL    HW146125  10.929   2.680   1.865 -0.7948 -0.9712  0.4978
14198SOL    HW246126  11.061   2.621   1.819  0.2613  0.9365  0.9634
14199SOL     OW46127   1.139   8.315   4.075  0.1949 -0.0848 -0.5736
14199SOL    HW146128   1.138   8.230   4.119  1.0657  0.0656 -0.2386
14199SOL    HW246129   1.139   8.379   4.147  1.8602  0.1626 -0.7542
14200SOL     OW46130  10.501   7.048   5.353  0.3980 -0.1738 -0.5854
14200SOL    HW146131  10.413   7.070   5.322  0.4897  0.8843 -0.1494
14200SOL    HW246132  10.541   7.000   5.280 -0.2683  0.0385 -1.1016
14201SOL     OW46133  10.668   4.896   1.754  0.2793 -0.0571 -0.2097
14201SOL    HW146134  10.715   4.881   1.672 -0.7970  1.6862 -1.2371
14201SOL    HW246135  10.652   4.809   1.790  0.2561 -0.9141 -2.1847
14202SOL     OW46136   8.090   8.004  10.176 -0.1560  0.0882  0.1515
14202SOL    HW146137   8.058   7.921  10.140  1.4144 -0.5829  0.2265
14202SOL    HW246138   8.135   7.979  10.256  0.6992  0.9724 -0.0432
14203SOL     OW46139   2.576   3.459   9.698  0.4298 -0.5740  0.0659
14203SOL    HW146140   2.614   3.377   9.729 -0.4035 -0.0985  2.6222
14203SOL    HW246141   2.489   3.435   9.666  0.2395 -0.7460  0.6851
14204SOL     OW46142   8.919  11.083   0.615  0.3287  0.1286  0.5808
14204SOL    HW146143   8.958  11.153   0.563  2.6526 -1.2660  0.2627
14204SOL    HW246144   8.936  11.004   0.564 -0.9338 -0.8268  1.5904
14205SOL     OW46145  10.450   1.901   7.473 -0.2716 -0.0416 -0.7080
14205SOL    HW146146  10.538   1.866   7.458 -0.0050 -0.1506  0.9777
14205SOL    HW246147  10.392   1.843   7.423  0.5710 -0.1791 -1.5504
14206SOL     OW46148   0.539   0.507   7.913  0.0363  0.6865  0.1047
14206SOL    HW146149   0.446   0.490   7.933  0.2310  1.2518  1.6646
14206SOL    HW246150   0.545   0.603   7.910  0.7341  0.6847  0.9783
14207SOL     OW46151  10.807   4.523   6.765  0.4109 -0.2148 -0.0667
14207SOL    HW146152  10.812   4.555   6.674  1.8678 -2.0891 -0.6950
14207SOL    HW246153  10.810   4.428   6.757  1.7723 -0.3897  2.0173
14208SOL     OW46154   1.066   2.895   3.010 -0.7320  0.1222  0.0174
14208SOL    HW146155   1.136   2.958   3.028 -0.0517 -0.8796  1.0160
14208SOL    HW246156   0.985   2.944   3.024 -0.2239  0.9124  0.2523
14209SOL     OW46157   2.863  10.920   9.500  0.0995  0.0675 -0.2539
14209SOL    HW146158   2.891  10.997   9.548  1.8963 -0.3209 -0.5977
14209SOL    HW246159   2.773  10.939   9.474 -0.2192  1.1226  1.4756
14210SOL     OW46160   3.525  10.949  10.456  0.6168 -0.0249 -0.2618
14210SOL    HW146161   3.456  10.937  10.521  1.0351 -0.2790  0.1458
14210SOL    HW246162   3.580  11.019  10.493 -0.7781  1.9811 -1.7431
14211SOL     OW46163  10.756  10.822   6.671 -0.3317  0.3361 -0.4932
14211SOL    HW146164  10.747  10.874   6.591  0.3382  1.6081  0.2286
14211SOL    HW246165  10.800  10.880   6.733 -2.5548  0.1021  1.4631
14212SOL     OW46166   6.954   8.816   6.271  0.0231  0.1702  0.0454
14212SOL    HW146167   6.929   8.726   6.293 -0.7720  0.4553  0.3432
14212SOL    HW246168   7.049   8.812   6.259  0.2572 -0.3672  1.7997
14213SOL     OW46169   8.208   9.698   8.202 -0.0978 -0.6557 -0.0991
14213SOL    HW146170   8.279   9.757   8.178 -0.7916  0.4746  0.5551
14213SOL    HW246171   8.242   9.649   8.277 -0.4852  0.8925  1.1303
14214SOL     OW46172   0.640   0.383   2.201 -0.2729  0.8704  0.1537
14214SOL    HW146173   0.649   0.337   2.284  4.4267  0.3674 -0.3618
14214SOL    HW246174   0.573   0.334   2.154 -1.6253 -0.0455  2.8377
14215SOL     OW46175   9.606   3.503   7.655 -0.6561 -0.0978  0.4488
14215SOL    HW146176   9.651   3.585   7.674 -1.4898  0.4003  0.3011
14215SOL    HW246177   9.609   3.454   7.737  1.2063 -0.5949  0.1221
14216SOL     OW46178   8.535   3.883   3.680 -0.1282  0.2102 -0.5495
14216SOL    HW146179   8.541   3.952   3.747 -0.4140  0.5676 -0.8853
14216SOL    HW246180   8.615   3.832   3.690 -1.6864 -1.9833  2.4911
14217SOL     OW46181   7.777   8.730   3.932  0.0674 -0.2256 -1.0019
14217SOL    HW146182   7.777   8.653   3.875  1.0727 -1.6612  0.8429
14217SOL    HW246183   7.798   8.803   3.874  0.0543 -1.4714 -2.6352
14218SOL     OW46184   8.511   3.002  10.923 -0.3369 -0.1799 -0.4386
14218SOL    HW146185   8.431   2.978  10.876 -0.4821  0.8930 -0.7649
14218SOL    HW246186   8.481   3.055  10.996  0.1053  0.7786 -0.9326
14219SOL     OW46187   9.142  10.474   2.384 -0.1079  0.2736  0.6397
14219SOL    HW146188   9.082  10.537   2.424 -1.2930 -1.5794  1.9202
14219SOL    HW246189   9.141  10.496   2.291 -1.3610  1.4188  0.8958
14220SOL     OW46190   4.714   4.240   5.938 -0.4232 -0.0945 -0.4135
14220SOL    HW146191   4.787   4.178   5.926 -0.9953 -1.0514  0.7528
14220SOL    HW246192   4.639   4.185   5.960 -0.8707  1.0176  1.0312
14221SOL     OW46193   1.223   1.649   9.829  0.0312  0.2553  0.2199
14221SOL    HW146194   1.311   1.681   9.850  0.5010 -1.2614  0.6970
14221SOL    HW246195   1.170   1.673   9.905  0.4397 -0.3194  0.6928
14222SOL     OW46196   9.716   9.774   2.949  0.0395 -0.6108  0.2436
14222SOL    HW146197   9.633   9.775   2.997 -0.2837 -2.8924 -0.1620
14222SOL    HW246198   9.782   9.784   3.017 -0.5127  0.9753  0.5990
14223SOL     OW46199   2.420   8.225   7.619 -0.3069 -0.3736  0.0347
14223SOL    HW146200   2.419   8.309   7.573 -0.5705  0.9438  2.3142
14223SOL    HW246201   2.504   8.223   7.664 -0.5921 -1.0028  0.5609
14224SOL     OW46202   2.492   2.752   4.081  0.3485 -0.0006  0.0798
14224SOL    HW146203   2.404   2.716   4.079  0.5534 -0.5923  1.1120
14224SOL    HW246204   2.536   2.713   4.006  0.3409 -1.3464  0.7460
14225SOL     OW46205  10.475   6.347   6.867  0.4378 -0.0933  0.0759
14225SOL    HW146206  10.490   6.329   6.959  3.0554  3.4283  0.5891
14225SOL    HW246207  10.392   6.394   6.865  0.7097  0.4440  0.8020
14226SOL     OW46208   0.673   5.213   9.829  0.5003 -0.0395  0.7696
14226SOL    HW146209   0.606   5.160   9.873  0.2386  0.0148  0.4446
14226SOL    HW246210   0.634   5.235   9.744  0.9741 -0.0919  0.5349
14227SOL     OW46211   4.156   9.580   5.557  0.1542 -0.5052 -0.0561
14227SOL    HW146212   4.133   9.667   5.588  0.6833 -0.2593 -0.3331
14227SOL    HW246213   4.252   9.578   5.560  0.2269 -0.5061 -1.5477
14228SOL     OW46214  10.165   4.611   0.007  0.0353  0.4526  0.0191
14228SOL    HW146215  10.138   4.678   0.070  2.6951 -1.2714  3.3408
14228SOL    HW246216  10.197   4.660  -0.068 -2.8507  2.6609  0.0649
14229SOL     OW46217   0.365   9.543   9.235  0.0584  0.0163  0.4471
14229SOL    HW146218   0.457   9.545   9.210  0.3030 -0.2106  1.2792
14229SOL    HW246219   0.350   9.453   9.266 -0.8377 -0.3888 -1.0604
14230SOL     OW46220   7.080   0.838  11.028  0.0615  0.4544  0.3083
14230SOL    HW146221   7.066   0.889  11.108 -2.6940 -0.9745  0.8672
14230SOL    HW246222   7.056   0.897  10.957  0.9978  1.2331  0.6140
14231SOL     OW46223   5.516   1.381   3.260  0.0793 -0.1085 -0.4908
14231SOL    HW146224   5.530   1.287   3.276 -1.2795 -0.4190 -0.9763
14231SOL    HW246225   5.597   1.422   3.289  1.9486 -1.6952 -3.0637
14232SOL     OW46226   7.428   0.606   7.773  0.1893  0.3059  0.6127
14232SOL    HW146227   7.370   0.625   7.847 -1.6235  1.7909 -1.0798
14232SOL    HW246228   7.377   0.547   7.718  1.4093 -0.5684  0.3959
14233SOL     OW46229  10.748   5.320   6.383 -0.5529 -0.3214 -0.1357
14233SOL    HW146230  10.820   5.262   6.407  1.0128  2.1803  1.7620
14233SOL    HW246231  10.714   5.353   6.467 -2.4822  0.2180 -1.0704
14234SOL     OW46232   8.685   1.498   9.193 -0.4352 -1.1292 -0.2362
14234SOL    HW146233   8.675   1.593   9.196  3.7563 -0.4721 -0.9338
14234SOL    HW246234   8.654   1.473   9.106 -1.0598 -0.3341 -0.2478
14235SOL     OW46235   0.829   9.048  10.932 -0.3547 -0.2492 -0.1153
14235SOL    HW146236   0.797   9.091  10.853  0.2952  0.5675  0.0585
14235SOL    HW246237   0.925   9.056  10.927 -0.3150  0.0256  0.8657
14236SOL     OW46238   9.429   3.808   7.543  0.0329  0.5526  0.1738
14236SOL    HW146239   9.396   3.773   7.625  0.1396 -1.5364 -0.6040
14236SOL    HW246240   9.353   3.849   7.502  0.1533  2.3125  1.6106
14237SOL     OW46241  10.055   0.391   0.003  0.1635 -0.2982 -0.3850
14237SOL    HW146242  10.116   0.385   0.076  1.2901 -1.9814 -1.3711
14237SOL    HW246243  10.109   0.377  -0.075 -0.9816  1.4715 -1.5861
14238SOL     OW46244   5.965   8.440   5.016 -0.6110  0.6851  0.1256
14238SOL    HW146245   6.027   8.457   4.945 -0.1739 -0.5975  0.1866
14238SOL    HW246246   5.891   8.499   4.997 -1.4706 -1.0726 -2.6430
14239SOL     OW46247   0.611   8.638   1.332 -0.2816  0.0003 -0.1338
14239SOL    HW146248   0.646   8.605   1.415  0.3427  0.7014 -0.1029
14239SOL    HW246249   0.653   8.584   1.265 -0.6336 -0.4355 -0.0028
14240SOL     OW46250   2.826  10.152   4.741  0.2360 -0.0936  0.5114
14240SOL    HW146251   2.836  10.097   4.818 -1.2269 -0.2733  0.6030
14240SOL    HW246252   2.824  10.241   4.775 -1.2307 -0.2114  0.8069
14241SOL     OW46253   6.819   7.229   3.046 -0.3064 -0.1102 -0.1383
14241SOL    HW146254   6.889   7.233   2.980 -0.8282  1.1217 -0.6598
14241SOL    HW246255   6.792   7.138   3.047  0.1673 -0.2818 -1.1601
14242SOL     OW46256   1.129   7.325   6.156  0.4721  0.2818 -0.2283
14242SOL    HW146257   1.140   7.283   6.242 -1.9467 -1.9279 -0.8742
14242SOL    HW246258   1.178   7.270   6.096  0.2355  0.4462 -0.5745
14243SOL     OW46259   5.611   0.539   1.622  0.2589 -0.0903 -1.0852
14243SOL    HW146260   5.596   0.560   1.530 -0.3867  1.4303 -0.6738
14243SOL    HW246261   5.702   0.564   1.638  0.1448  0.3809 -1.1418
14244SOL     OW46262  10.301   8.187   6.706  0.4020 -0.3345 -0.8953
14244SOL    HW146263  10.351   8.150   6.633 -0.3777 -0.6613 -1.2807
14244SOL    HW246264  10.215   8.144   6.700  0.5294 -0.8724  0.6238
14245SOL     OW46265   7.787   6.061   1.756 -0.3833  0.1142 -0.0798
14245SOL    HW146266   7.760   6.151   1.776 -3.5383 -0.3106 -1.8204
14245SOL    HW246267   7.819   6.027   1.840  0.2013  2.5801  0.7955
14246SOL     OW46268   6.789   6.568   4.645 -0.8873 -0.3561 -0.5810
14246SOL    HW146269   6.860   6.583   4.582 -1.6437  2.0944 -0.9727
14246SOL    HW246270   6.824   6.504   4.707  1.4097  0.2658 -1.1549
14247SOL     OW46271   4.504   8.018   6.390  0.2669  0.0755  0.3056
14247SOL    HW146272   4.410   8.002   6.387  0.2401  0.2660  0.0375
14247SOL    HW246273   4.512   8.111   6.413  0.4391 -0.7125  4.0411
14248SOL     OW46274   2.382   8.233   5.743 -0.1478  0.3284 -0.4694
14248SOL    HW146275   2.376   8.137   5.736 -0.0975  0.2894 -0.0148
14248SOL    HW246276   2.457   8.248   5.801 -1.2741  0.5907  0.9618
14249SOL     OW46277   7.198   6.167   4.732  0.2031 -0.0341 -0.1555
14249SOL    HW146278   7.165   6.224   4.801 -0.2168 -0.1934 -0.2241
14249SOL    HW246279   7.130   6.169   4.665 -0.2995 -1.4267  0.2838
14250SOL     OW46280  10.541   8.844   3.974 -0.4524  0.0206 -0.2192
14250SOL    HW146281  10.494   8.799   3.904  1.0029  0.4120 -1.5112
14250SOL    HW246282  10.558   8.776   4.040 -2.0677 -0.2947 -0.1028
14251SOL     OW46283   1.123  11.015   3.987 -0.5544  0.1131 -0.4619
14251SOL    HW146284   1.088  11.076   4.052 -0.1288  0.8438 -0.9153
14251SOL    HW246285   1.047  10.968   3.954 -0.8427  0.1446  0.1418
14252SOL     OW46286   5.226   8.482   2.506 -0.7993 -0.1649 -0.3309
14252SOL    HW146287   5.253   8.570   2.479 -0.6511 -0.1049  0.0105
14252SOL    HW246288   5.148   8.497   2.560  1.1261  0.0911  2.6494
14253SOL     OW46289   8.878   8.959  10.595  0.8651  0.3309  0.3326
14253SOL    HW146290   8.903   9.033  10.650 -0.8095  1.1003  0.1237
14253SOL    HW246291   8.788   8.978  10.568  0.8888 -1.0935 -0.8977
14254SOL     OW46292   3.181  10.473   5.670  0.7058 -0.2452  0.8977
14254SOL    HW146293   3.168  10.545   5.608 -0.9114 -0.7304  0.6339
14254SOL    HW246294   3.251  10.504   5.729  0.1215  1.4849  0.7283
14255SOL     OW46295   5.294   6.176   7.113  0.1101  0.9145 -0.3927
14255SOL    HW146296   5.376   6.192   7.160 -0.5920  0.9170  0.8703
14255SOL    HW246297   5.322   6.138   7.029  1.4523  2.2496 -0.5931
14256SOL     OW46298   9.598   4.901   5.001 -0.1152  0.5322  0.9069
14256SOL    HW146299   9.683   4.875   5.037 -1.3506 -2.8218  1.7550
14256SOL    HW246300   9.594   4.857   4.915 -2.6762 -3.5114  2.8043
14257SOL     OW46301   9.390   7.806   3.127  0.2882  0.0006 -0.0553
14257SOL    HW146302   9.432   7.750   3.192  0.4331 -0.1932 -0.3151
14257SOL    HW246303   9.422   7.894   3.147  0.6934 -0.1221 -0.1471
14258SOL     OW46304   0.317   2.657   9.676 -0.1627  0.5528  0.5678
14258SOL    HW146305   0.359   2.637   9.592  1.3730  0.4719  1.3152
14258SOL    HW246306   0.373   2.725   9.714  0.5851 -1.1008  2.5713
14259SOL     OW46307   2.609   5.763  11.080  0.0452  0.3933 -0.0856
14259SOL    HW146308   2.656   5.690  11.121  0.6041  0.0170 -1.3527
14259SOL    HW246309   2.562   5.804  11.152  0.8930 -0.3225  0.9126
14260SOL     OW46310   0.139  10.821  10.536  0.3495  0.1029  0.7731
14260SOL    HW146311   0.069  10.777  10.488  0.1567  1.2135  0.0067
14260SOL    HW246312   0.113  10.913  10.538  2.1600  0.6758 -0.2310
14261SOL     OW46313  10.327   0.504   3.621 -0.0941 -0.1120 -0.7032
14261SOL    HW146314  10.307   0.485   3.713  0.7030  2.3266  0.0462
14261SOL    HW246315  10.375   0.427   3.591  0.1538 -0.7128  1.1082
14262SOL     OW46316   8.445   4.509   9.464 -0.0454 -0.9490  0.0729
14262SOL    HW146317   8.415   4.508   9.555 -0.8854 -0.5053 -0.1925
14262SOL    HW246318   8.527   4.558   9.466 -0.8923  0.4998  0.3529
14263SOL     OW46319   8.056   4.769   3.739 -0.5662  0.0655 -0.2754
14263SOL    HW146320   8.055   4.680   3.705  0.3854 -0.1256  0.1668
14263SOL    HW246321   7.976   4.809   3.705 -1.0438 -0.9805 -0.4024
14264SOL     OW46322   8.148   0.305   6.269  0.6694  0.3598 -0.2754
14264SOL    HW146323   8.156   0.317   6.175 -1.2235 -0.9125 -0.6454
14264SOL    HW246324   8.193   0.223   6.287  0.0539  0.0186 -0.2666
14265SOL     OW46325   3.256   2.102   9.454  0.2126 -0.0777 -0.0414
14265SOL    HW146326   3.273   2.183   9.406  2.1882 -0.2144  0.3139
14265SOL    HW246327   3.243   2.036   9.387 -2.6746  0.6772 -0.3562
14266SOL     OW46328   0.870  10.656   6.800 -0.1673  0.1225  0.6258
14266SOL    HW146329   0.899  10.736   6.842 -0.3960  0.3938  0.2797
14266SOL    HW246330   0.949  10.602   6.793 -0.3003 -0.3411  2.2617
14267SOL     OW46331   2.059   0.110   8.458  0.4815  0.1694 -0.1474
14267SOL    HW146332   2.124   0.054   8.415  1.3162  0.3568  0.8389
14267SOL    HW246333   2.085   0.199   8.436  1.4361  0.3115  1.3955
14268SOL     OW46334   3.116   0.450   8.290 -0.3073  0.0116  0.0680
14268SOL    HW146335   3.079   0.371   8.329  0.2053 -0.7386 -0.9126
14268SOL    HW246336   3.161   0.419   8.211  0.7018  1.1582  0.1618
14269SOL     OW46337   0.405   3.986   3.118  0.2072  0.7258  0.1442
14269SOL    HW146338   0.421   3.945   3.033 -2.7796 -0.8045  0.1907
14269SOL    HW246339   0.367   4.071   3.097  1.4819  1.2792  0.0054
14270SOL     OW46340   0.838   9.407   1.920 -0.4184  0.5676  0.2243
14270SOL    HW146341   0.788   9.405   1.839 -2.4522  2.2365  1.3374
14270SOL    HW246342   0.895   9.483   1.912  1.0649 -0.5688 -0.4985
14271SOL     OW46343   5.881   0.764   7.393  0.5917 -0.0713 -0.1376
14271SOL    HW146344   5.849   0.824   7.460  2.2665  0.2336  0.4407
14271SOL    HW246345   5.948   0.814   7.347  0.2296 -0.6522 -1.3446
14272SOL     OW46346   2.600   3.428  10.570 -0.2986 -0.5962  0.0084
14272SOL    HW146347   2.654   3.455  10.645 -1.0257  0.0344  0.3245
14272SOL    HW246348   2.569   3.341  10.593  0.6731 -1.0182 -0.2318
14273SOL     OW46349   1.552  10.742   1.115 -0.3359 -0.3196  0.0683
14273SOL    HW146350   1.560  10.806   1.045  0.5833  0.1847  0.6035
14273SOL    HW246351   1.467  10.761   1.155 -0.3761  0.1134 -0.2121
14274SOL     OW46352   1.251   7.762   1.801 -0.3470 -0.5796 -0.2016
14274SOL    HW146353   1.206   7.789   1.721  1.0634  0.8727 -0.5584
14274SOL    HW246354   1.185   7.768   1.869 -1.2250 -0.5298 -1.0358
14275SOL     OW46355   5.301   6.800   8.805  0.2341  0.7417  0.4287
14275SOL    HW146356   5.226   6.856   8.785 -1.0142 -1.0751 -0.2310
14275SOL    HW246357   5.263   6.713   8.818  2.2072 -0.2036  0.2067
14276SOL     OW46358   8.800   8.975   0.227 -0.3792  0.0959 -0.0468
14276SOL    HW146359   8.878   8.934   0.264 -1.0178  0.0633  1.3244
14276SOL    HW246360   8.828   9.007   0.141  0.8157 -0.9492 -0.0744
14277SOL     OW46361   2.120   0.780   1.073 -0.3751 -0.1495  0.2694
14277SOL    HW146362   2.068   0.723   1.017 -0.0265 -0.7431  0.5476
14277SOL    HW246363   2.056   0.841   1.111 -1.1407 -1.7954  1.7692
14278SOL     OW46364   1.314   1.874   8.508 -0.6058 -0.1791 -0.0707
14278SOL    HW146365   1.262   1.951   8.531  0.0127  0.7710 -1.7061
14278SOL    HW246366   1.255   1.818   8.458 -0.9294 -0.5894  0.7501
14279SOL     OW46367   7.180   5.109   1.164  0.2682  0.6269  0.3877
14279SOL    HW146368   7.118   5.182   1.169 -0.7709  0.0828 -2.4327
14279SOL    HW246369   7.249   5.140   1.105 -0.1280 -0.5861 -0.7676
14280SOL     OW46370   2.108   1.204   8.890  0.1547 -0.2197 -0.3126
14280SOL    HW146371   2.179   1.244   8.840 -0.7352  0.0236 -1.4228
14280SOL    HW246372   2.124   1.231   8.981  1.7859 -0.6547 -0.4524
14281SOL     OW46373   7.076   6.765   4.904 -0.4860 -0.2255 -0.0629
14281SOL    HW146374   7.105   6.692   4.960 -0.4936 -0.0233  0.2035
14281SOL    HW246375   7.044   6.722   4.825  2.2016 -0.4076 -1.1530
14282SOL     OW46376   9.099   7.898   9.237  0.2572 -0.0398 -0.3079
14282SOL    HW146377   9.044   7.848   9.176 -1.0824 -2.5682  2.7003
14282SOL    HW246378   9.183   7.852   9.236 -0.4927 -1.5529  1.3231
14283SOL     OW46379   9.214   7.812   2.354  0.3334  0.2284  0.2316
14283SOL    HW146380   9.124   7.844   2.344  0.3720  0.7564  1.4112
14283SOL    HW246381   9.248   7.807   2.265 -0.9715 -0.2941 -0.2657
14284SOL     OW46382   9.900   2.713   7.976 -0.3168 -0.1603 -0.6043
14284SOL    HW146383   9.987   2.740   8.005 -0.6549 -0.5586  0.8187
14284SOL    HW246384   9.905   2.617   7.972 -1.0224 -0.2708  0.6574
14285SOL     OW46385   8.582   3.541   4.534 -0.2688  0.2753  0.1580
14285SOL    HW146386   8.602   3.633   4.551  1.4436  0.3443 -1.7693
14285SOL    HW246387   8.512   3.543   4.469 -0.0250  0.2535 -0.1109
14286SOL     OW46388   2.571   6.483   7.283 -0.1674  0.2745 -0.1395
14286SOL    HW146389   2.511   6.522   7.219  1.6108 -0.0311 -2.1064
14286SOL    HW246390   2.646   6.543   7.285  0.5778 -0.6377  0.2949
14287SOL     OW46391   7.863   1.673   6.936 -0.0466  0.2707 -0.2565
14287SOL    HW146392   7.819   1.755   6.961 -0.0147 -0.3337  2.0571
14287SOL    HW246393   7.840   1.660   6.844 -3.9370  0.4904  0.5220
14288SOL     OW46394   3.060   7.398   1.349  0.0101 -0.3876 -0.1169
14288SOL    HW146395   3.079   7.444   1.431 -0.5652 -0.3655  0.0024
14288SOL    HW246396   3.026   7.466   1.291  1.2229 -0.2177 -0.6774
14289SOL     OW46397   6.284   4.694   3.621  0.0869  0.2488  0.2261
14289SOL    HW146398   6.375   4.682   3.649  0.8950 -0.8071 -2.5444
14289SOL    HW246399   6.274   4.789   3.610  0.8506  0.3656  0.4818
14290SOL     OW46400   5.765   1.303   1.142 -0.0611 -0.3699  0.0320
14290SOL    HW146401   5.743   1.350   1.222  0.8257  0.8293 -0.3872
14290SOL    HW246402   5.810   1.368   1.088  2.0714 -1.9379 -0.2135
14291SOL     OW46403   8.799   1.130   4.762  0.8860  0.0754 -0.0222
14291SOL    HW146404   8.725   1.151   4.705 -0.3660 -0.3029  1.4035
14291SOL    HW246405   8.807   1.206   4.820  0.5900 -0.5408  0.8425
14292SOL     OW46406   0.422   7.124   6.830  0.0239 -0.4230  0.6361
14292SOL    HW146407   0.465   7.145   6.748  1.0144  0.7147  1.4048
14292SOL    HW246408   0.364   7.051   6.809 -1.2790  1.1107 -1.5336
14293SOL     OW46409   5.211   4.766   6.267  0.3938  0.1713  0.1361
14293SOL    HW146410   5.235   4.815   6.189  2.9863 -1.2298 -0.0589
14293SOL    HW246411   5.253   4.813   6.339  2.5162 -1.3464 -0.0030
14294SOL     OW46412  10.383   3.753  10.343 -0.5306 -0.2852  0.1924
14294SOL    HW146413  10.339   3.748  10.259 -1.9290 -1.3290  0.9480
14294SOL    HW246414  10.316   3.782  10.405  0.7819  1.7116  0.7721
14295SOL     OW46415   1.022   1.195  10.507 -0.6289  0.5372  0.0893
14295SOL    HW146416   1.089   1.137  10.470  1.0484  2.2971  0.1983
14295SOL    HW246417   1.003   1.157  10.593  1.3736  0.8007  0.6949
14296SOL     OW46418   3.191   0.637   2.135  0.5133  0.4633  0.3849
14296SOL    HW146419   3.167   0.724   2.166  0.5498  0.0699  1.5551
14296SOL    HW246420   3.203   0.648   2.041  0.0075  1.6068  0.4353
14297SOL     OW46421   4.565   6.523   6.960  0.0163  0.1223 -0.1887
14297SOL    HW146422   4.478   6.510   6.998  0.1875  0.6764  0.3949
14297SOL    HW246423   4.624   6.476   7.019  0.2321  0.6298  0.0032
14298SOL     OW46424   6.788   8.454   5.595 -0.7046  0.3664  0.1548
14298SOL    HW146425   6.862   8.398   5.571 -0.7098  1.5163 -2.9596
14298SOL    HW246426   6.726   8.395   5.638  0.6784 -1.2697  0.0110
14299SOL     OW46427   6.721  10.569   8.376  0.2166  0.2210 -0.0605
14299SOL    HW146428   6.737  10.507   8.305  0.2935  0.8390 -0.5904
14299SOL    HW246429   6.630  10.597   8.363 -0.1130 -0.4653  0.7205
14300SOL     OW46430   0.423   2.947   9.668 -0.1977 -0.1114 -0.0134
14300SOL    HW146431   0.433   2.927   9.761  0.1890  0.5603  0.0930
14300SOL    HW246432   0.510   2.930   9.630 -0.4489 -0.7417 -0.3281
14301SOL     OW46433   5.555   2.905   6.221  0.3661 -0.2921 -0.2777
14301SOL    HW146434   5.515   2.989   6.198 -0.1484 -0.0119  1.4866
14301SOL    HW246435   5.510   2.841   6.167 -1.3408  0.2256  0.4734
14302SOL     OW46436   6.416  10.245   6.141  0.1676 -0.5999  0.0673
14302SOL    HW146437   6.463  10.302   6.202  0.9008 -1.0966 -0.0250
14302SOL    HW246438   6.472  10.240   6.064 -0.5387 -0.3453 -0.4773
14303SOL     OW46439   0.604   3.262   9.275  0.4223 -0.2145 -0.6800
14303SOL    HW146440   0.567   3.293   9.192  1.1283  0.8839 -0.6105
14303SOL    HW246441   0.683   3.314   9.287 -0.3079  0.5559  1.2917
14304SOL     OW46442   8.956   8.251  10.695  0.1858 -0.5186  0.1304
14304SOL    HW146443   8.981   8.343  10.706  1.5602 -0.6956 -1.1306
14304SOL    HW246444   8.862   8.253  10.681  0.2337  0.7258 -0.1313
14305SOL     OW46445   3.584   8.626   1.243 -0.2454  0.4464  0.1798
14305SOL    HW146446   3.560   8.537   1.268  0.0208 -0.0140 -1.1607
14305SOL    HW246447   3.573   8.677   1.324 -0.7153 -0.7250  0.8776
14306SOL     OW46448   4.358   6.306   7.297  0.0412  0.6365  0.4073
14306SOL    HW146449   4.324   6.356   7.370 -0.1937  0.8757  0.1362
14306SOL    HW246450   4.453   6.316   7.303  0.2076 -1.2782  2.0587
14307SOL     OW46451   9.114   2.285   7.849 -0.4877  0.6297 -0.3660
14307SOL    HW146452   9.144   2.250   7.766 -0.9637 -0.6706 -0.0105
14307SOL    HW246453   9.158   2.232   7.915  0.4958  2.1450  0.2595
14308SOL     OW46454   4.793  10.402   8.459  0.1252 -0.2160 -0.0865
14308SOL    HW146455   4.720  10.341   8.447  0.2823 -0.2728 -0.8174
14308SOL    HW246456   4.814  10.432   8.370  0.1231  0.8266  0.2570
14309SOL     OW46457   1.665   4.205   7.818 -0.1134  0.5420 -0.3149
14309SOL    HW146458   1.571   4.220   7.807 -0.3763 -1.8067 -2.1411
14309SOL    HW246459   1.678   4.206   7.913 -2.2505 -0.3159  0.0552
14310SOL     OW46460   3.158   6.856  11.095  0.2773 -0.0006 -0.5266
14310SOL    HW146461   3.151   6.899  11.009  2.1566 -0.8139 -1.1216
14310SOL    HW246462   3.136   6.765  11.078 -1.8415  0.2812  0.3876
14311SOL     OW46463   8.814   8.177   6.993  0.3659 -0.3158  0.1782
14311SOL    HW146464   8.839   8.196   7.084  0.1529 -0.8038  0.3377
14311SOL    HW246465   8.834   8.259   6.946 -1.5560  0.7194  1.0563
14312SOL     OW46466   3.454   5.927   0.438  0.0997  0.8091  0.3709
14312SOL    HW146467   3.415   5.991   0.379  0.2404  0.6212  0.0704
14312SOL    HW246468   3.521   5.884   0.385 -1.1214 -0.7650  0.0439
14313SOL     OW46469   8.155   3.903   3.713 -0.2607 -0.1847  0.5098
14313SOL    HW146470   8.232   3.897   3.657  0.5636  0.8099  1.4817
14313SOL    HW246471   8.096   3.964   3.669  0.0538  0.0172  0.3706
14314SOL     OW46472   5.554  10.207   9.838  0.7155  0.1582  0.0632
14314SOL    HW146473   5.566  10.183   9.930 -0.9804  0.5074  0.4130
14314SOL    HW246474   5.574  10.128   9.789 -0.7846 -0.8055  0.9242
14315SOL     OW46475   8.453   7.539   2.889 -0.2302 -0.2374  0.4869
14315SOL    HW146476   8.511   7.589   2.832 -1.6036  1.1732  0.2590
14315SOL    HW246477   8.373   7.591   2.893 -0.6808 -1.0030  2.5856
14316SOL     OW46478   2.541  11.089   4.383  0.3690  0.0167 -0.3660
14316SOL    HW146479   2.478  11.161   4.390  0.5618  0.2882 -1.3178
14316SOL    HW246480   2.613  11.115   4.441  0.5879  0.7640 -0.9463
14317SOL     OW46481   4.852   5.686   7.377  0.7649 -0.0209 -0.2828
14317SOL    HW146482   4.781   5.750   7.369  0.6197  0.2254  2.2526
14317SOL    HW246483   4.810   5.601   7.363  0.4463  0.2591 -1.0776
14318SOL     OW46484   1.791   0.175   6.491  0.4151 -0.0218  0.0644
14318SOL    HW146485   1.772   0.081   6.490  0.8122 -0.1416  1.7394
14318SOL    HW246486   1.714   0.215   6.449 -0.0712 -1.0289 -0.0337
14319SOL     OW46487   6.784   9.759   5.508  0.0628  0.1868 -0.2574
14319SOL    HW146488   6.729   9.783   5.434 -1.2041  0.7342  0.8172
14319SOL    HW246489   6.803   9.666   5.495 -0.2997  0.2272 -1.1582
14320SOL     OW46490  10.414  10.778   7.744  0.3462 -0.0984 -0.4893
14320SOL    HW146491  10.506  10.779   7.768  0.1889 -1.3128  0.2717
14320SOL    HW246492  10.385  10.869   7.755  0.8429 -0.1387  1.8527
14321SOL     OW46493   6.235   5.697   1.052  0.5965 -0.7009 -0.7129
14321SOL    HW146494   6.318   5.649   1.048  1.9620  1.4737 -0.3089
14321SOL    HW246495   6.250   5.764   1.119 -0.9818  0.6395 -1.6419
14322SOL     OW46496   6.447   6.366   7.341 -0.4817  0.1569  0.6252
14322SOL    HW146497   6.446   6.401   7.252 -0.7163 -1.0900  0.1172
14322SOL    HW246498   6.517   6.414   7.385  0.5715 -0.1655 -0.6380
14323SOL     OW46499   7.196   6.685  10.880  0.0081 -0.0414 -0.3289
14323SOL    HW146500   7.147   6.680  10.798 -0.6455  0.6593  0.0094
14323SOL    HW246501   7.137   6.730  10.940  1.4866  1.8434 -0.2227
14324SOL     OW46502   9.391   1.450   5.005  0.1318 -0.2662 -0.2681
14324SOL    HW146503   9.458   1.406   5.057  1.2154  1.3701 -0.1969
14324SOL    HW246504   9.421   1.541   4.999 -0.6706 -0.0888 -2.5588
14325SOL     OW46505   8.269   4.215   1.997 -0.0799 -0.0634  0.3777
14325SOL    HW146506   8.343   4.187   1.944 -0.8397 -0.7161 -0.3529
14325SOL    HW246507   8.290   4.184   2.085  1.8505  2.2305  0.8363
14326SOL     OW46508  10.017   4.827   7.295  0.1626  0.3773 -0.2408
14326SOL    HW146509  10.029   4.872   7.211 -1.6954 -0.6443 -1.1245
14326SOL    HW246510  10.099   4.840   7.341  0.9207  1.7203 -1.8630
14327SOL     OW46511   4.899   8.117   3.352  0.2296 -0.5112  0.0903
14327SOL    HW146512   4.882   8.082   3.265 -0.9238 -0.4736  0.2787
14327SOL    HW246513   4.950   8.049   3.396  0.4789 -0.7003 -0.4789
14328SOL     OW46514   1.483   1.888   2.368 -0.3884 -0.0578  0.3902
14328SOL    HW146515   1.538   1.956   2.330 -0.6451 -0.1891 -0.2331
14328SOL    HW246516   1.544   1.816   2.385 -0.2357  0.0751  0.4106
14329SOL     OW46517   2.851   9.467  10.580  0.4914 -0.4379 -0.2109
14329SOL    HW146518   2.765   9.491  10.614  1.0292  1.2157  0.0673
14329SOL    HW246519   2.910   9.474  10.655  1.1153 -0.0730 -0.7180
14330SOL     OW46520   9.061   4.516   3.535  0.1428  0.0303  0.4402
14330SOL    HW146521   8.985   4.530   3.478 -1.4296 -1.3842  2.0789
14330SOL    HW246522   9.075   4.601   3.577  0.9552  0.9296 -1.5182
14331SOL     OW46523   0.875   3.088   3.463  0.2626  0.2861 -0.2036
14331SOL    HW146524   0.838   3.006   3.497  0.6191  0.0762 -0.3208
14331SOL    HW246525   0.848   3.154   3.527 -0.2483  0.1214 -0.2448
14332SOL     OW46526   8.301  10.884   0.932  0.2251  0.4295  0.8741
14332SOL    HW146527   8.247  10.955   0.899  0.4387  1.2877  2.3002
14332SOL    HW246528   8.238  10.818   0.962 -0.0136 -1.0553 -2.3767
14333SOL     OW46529  10.232   9.435   7.074 -0.4631 -0.7722 -0.3401
14333SOL    HW146530  10.138   9.451   7.064 -0.8350 -2.2505  0.3696
14333SOL    HW246531  10.241   9.341   7.061  0.4750 -1.1365  2.2622
14334SOL     OW46532   4.257   6.801   8.550  0.7410  0.2216  0.4289
14334SOL    HW146533   4.350   6.779   8.547  0.5141 -0.8754  0.7489
14334SOL    HW246534   4.230   6.777   8.638 -0.1728 -0.9484 -0.1378
14335SOL     OW46535   4.857   2.765   2.124 -0.3768 -0.5344  0.2730
14335SOL    HW146536   4.886   2.674   2.131 -0.8174 -0.5470  2.6562
14335SOL    HW246537   4.765   2.763   2.151 -0.9517  0.3669 -1.4939
14336SOL     OW46538   8.571   6.571   7.238  0.1535 -0.2214 -0.1268
14336SOL    HW146539   8.665   6.570   7.224  0.2924 -2.7821  0.5511
14336SOL    HW246540   8.557   6.520   7.318 -1.7956  0.4146  0.0143
14337SOL     OW46541   4.202   9.273   7.936  0.1164  0.1218 -0.7213
14337SOL    HW146542   4.205   9.367   7.918  3.4178  0.8887  2.6483
14337SOL    HW246543   4.272   9.236   7.881 -0.4574 -0.2644 -1.2198
14338SOL     OW46544   8.720   4.570   7.358  0.6925 -0.0347  0.4636
14338SOL    HW146545   8.694   4.566   7.266  1.9428  0.8125  0.0470
14338SOL    HW246546   8.709   4.481   7.390 -2.2405  0.1474  0.2392
14339SOL     OW46547   6.035   1.609   4.002 -0.0241  0.1199 -0.0253
14339SOL    HW146548   5.948   1.579   4.028 -0.1102  0.3600 -0.0275
14339SOL    HW246549   6.094   1.538   4.027 -0.2195 -0.0370 -0.0091
14340SOL     OW46550   5.337   3.760   5.215  0.3414 -0.7065 -0.3030
14340SOL    HW146551   5.405   3.741   5.150  1.2125  0.8420  0.1020
14340SOL    HW246552   5.354   3.851   5.241 -2.4190  0.0503 -0.8359
14341SOL     OW46553   9.939  10.164   5.632  0.4534 -0.1620 -0.0358
14341SOL    HW146554   9.909  10.188   5.719  1.3366  1.2275 -0.0855
14341SOL    HW246555   9.911  10.073   5.621 -2.8122  0.6568  0.3058
14342SOL     OW46556   1.146   9.063   8.565  0.5917  0.0533 -0.0069
14342SOL    HW146557   1.200   9.049   8.487  0.9857 -1.1144  0.4557
14342SOL    HW246558   1.058   9.038   8.538  0.5214  0.6523 -0.3640
14343SOL     OW46559   8.643   7.828   6.998 -0.3688  0.3967 -0.5065
14343SOL    HW146560   8.603   7.914   7.007  1.4396  1.3213 -0.9746
14343SOL    HW246561   8.595   7.786   6.927 -0.8656  1.2481 -0.6781
14344SOL     OW46562   7.418   0.410   5.465  0.2691  0.6842 -0.5326
14344SOL    HW146563   7.471   0.334   5.437  0.5016  0.4405  0.5122
14344SOL    HW246564   7.462   0.485   5.426 -0.5299  0.2400 -2.4237
14345SOL     OW46565  10.204   9.204  10.518 -0.2077 -0.4399 -0.9905
14345SOL    HW146566  10.233   9.296  10.524 -1.4791 -0.1274  2.2108
14345SOL    HW246567  10.111   9.210  10.499 -0.3775 -1.0510 -0.3627
14346SOL     OW46568   2.749   1.705   5.991  0.4002 -0.4744  0.0293
14346SOL    HW146569   2.766   1.613   5.970  2.4684 -0.5487  1.6482
14346SOL    HW246570   2.731   1.706   6.085 -2.7872  0.4795 -0.4829
14347SOL     OW46571   1.712   3.053   0.923 -0.7736 -0.0192 -0.0917
14347SOL    HW146572   1.761   2.979   0.960 -1.3114  0.1254  0.9660
14347SOL    HW246573   1.624   3.019   0.911 -0.6469 -0.0091 -1.1239
14348SOL     OW46574   6.843   7.347   5.333  0.0952 -0.0110  0.2832
14348SOL    HW146575   6.768   7.315   5.282 -0.1916  2.8876 -1.3402
14348SOL    HW246576   6.806   7.372   5.417 -0.7635  1.1685 -0.4185
14349SOL     OW46577   9.874   0.692   7.739 -0.1841 -0.4314  0.2515
14349SOL    HW146578   9.945   0.670   7.801  0.8388  2.0710  0.1031
14349SOL    HW246579   9.796   0.696   7.794 -0.2906 -3.1957  0.4346
14350SOL     OW46580   6.017   3.115  10.391 -0.8140 -0.3536 -0.0199
14350SOL    HW146581   6.053   3.027  10.399 -0.2044 -0.0500  0.6736
14350SOL    HW246582   6.023   3.152  10.479 -0.4051  0.6319 -0.4505
14351SOL     OW46583   5.696  11.073   7.693  0.0650 -0.1577  0.1903
14351SOL    HW146584   5.770  11.091   7.752 -0.5701 -0.9824  1.2759
14351SOL    HW246585   5.645  11.153   7.693  0.5620  0.1636  0.0204
14352SOL     OW46586   1.694   1.705   0.070  0.4224 -0.1113  0.3946
14352SOL    HW146587   1.632   1.632   0.073  1.1511 -0.7469  0.2355
14352SOL    HW246588   1.718   1.719   0.161 -0.6265  0.7395  0.5632
14353SOL     OW46589  10.384   4.435   3.624  0.6422 -0.2400  0.0784
14353SOL    HW146590  10.296   4.465   3.650  1.3821  0.2554  2.1372
14353SOL    HW246591  10.381   4.438   3.528 -0.5458  3.0128  0.0659
14354SOL     OW46592   5.094   8.060   4.834 -0.3517  0.2369  0.4938
14354SOL    HW146593   5.153   8.046   4.909 -0.4058  0.1989  0.5292
14354SOL    HW246594   5.147   8.108   4.771 -0.0557 -0.4130  0.2360
14355SOL     OW46595   9.631   5.214   8.004  0.1787 -0.5737  0.6612
14355SOL    HW146596   9.701   5.229   8.068  0.1813 -0.0024  0.5270
14355SOL    HW246597   9.582   5.139   8.040 -0.2126  0.1399  1.6715
14356SOL     OW46598   2.642  11.001   9.917  0.4060 -0.3566 -0.5563
14356SOL    HW146599   2.637  10.976  10.009  0.7671 -0.3939 -0.5416
14356SOL    HW246600   2.607  10.926   9.869  0.3269 -0.3852 -0.4546
14357SOL     OW46601   2.905   0.440   8.094 -0.2869 -0.5346  0.5320
14357SOL    HW146602   2.959   0.391   8.032  0.7602  2.2435 -0.9391
14357SOL    HW246603   2.963   0.455   8.169  0.3773  0.7424 -0.2020
14358SOL     OW46604   5.084   8.137   9.822  0.0438  0.1770  0.3865
14358SOL    HW146605   5.113   8.067   9.880  0.7120  1.7610  2.0278
14358SOL    HW246606   5.001   8.167   9.860 -0.8175 -0.3992 -0.9383
14359SOL     OW46607   8.355   6.086   2.901  0.0476  0.3457  0.4417
14359SOL    HW146608   8.358   6.180   2.886  0.3442 -0.0232 -2.4612
14359SOL    HW246609   8.429   6.051   2.851 -0.5947 -1.5000  0.6901
14360SOL     OW46610   1.515   1.373   3.699 -0.1876  0.1593 -0.3760
14360SOL    HW146611   1.499   1.464   3.674 -0.1551 -0.4044 -2.7204
14360SOL    HW246612   1.610   1.365   3.702 -0.1909  0.2061 -0.0914
14361SOL     OW46613   6.754   8.811   0.672  0.1259  0.0100 -0.4879
14361SOL    HW146614   6.684   8.770   0.622  0.6071 -1.0806 -0.2965
14361SOL    HW246615   6.834   8.790   0.623  0.4249  0.3966 -0.1761
14362SOL     OW46616   3.240   8.459   3.565 -0.3585 -0.2827  0.1300
14362SOL    HW146617   3.298   8.515   3.617  2.0854 -1.8794 -0.7389
14362SOL    HW246618   3.223   8.384   3.622 -1.5762  0.1319  0.3446
14363SOL     OW46619   2.441   9.748   7.012  0.5323  0.2116  0.0748
14363SOL    HW146620   2.348   9.737   6.995  0.4074  0.5231  0.5249
14363SOL    HW246621   2.446   9.825   7.068  0.8331 -1.1095  1.9971
14364SOL     OW46622   1.012  10.051   8.282 -0.0255 -0.2888 -0.1188
14364SOL    HW146623   1.106  10.067   8.284  0.0466 -0.4527 -1.2939
14364SOL    HW246624   0.977  10.102   8.355  0.6841  1.7211 -1.1226
14365SOL     OW46625   7.074  10.917   9.588 -0.3126 -0.2675 -1.2547
14365SOL    HW146626   7.054  10.947   9.677  0.1949 -0.4976 -1.0589
14365SOL    HW246627   7.000  10.862   9.564 -0.3426 -0.3966 -0.8795
14366SOL     OW46628   0.273   3.142   8.280 -0.5502  0.2821 -0.1309
14366SOL    HW146629   0.246   3.221   8.327  0.1238  2.2254 -2.7399
14366SOL    HW246630   0.210   3.134   8.209 -0.2648 -1.2126 -0.2356
14367SOL     OW46631   7.174   7.881   2.302  0.1450 -0.3090  0.5841
14367SOL    HW146632   7.208   7.966   2.331  0.2638 -0.5013  1.0184
14367SOL    HW246633   7.198   7.821   2.373 -0.8794 -0.5007  0.7758
14368SOL     OW46634   3.939   0.862   6.670 -0.3011  0.7237  0.3348
14368SOL    HW146635   3.919   0.955   6.663 -0.1982  0.6467 -1.2114
14368SOL    HW246636   3.856   0.819   6.649 -0.3022  0.4588  0.8699
14369SOL     OW46637   7.864   2.235   2.809 -0.9638  0.0501  0.4137
14369SOL    HW146638   7.915   2.189   2.743  0.0626  1.0108  0.5022
14369SOL    HW246639   7.923   2.244   2.883 -0.8714  2.0789  0.1536
14370SOL     OW46640   4.423   1.625   0.569  0.8428 -0.0880 -0.1111
14370SOL    HW146641   4.485   1.582   0.628  2.3548  0.6054 -1.1130
14370SOL    HW246642   4.428   1.718   0.592  1.6831  0.2368 -1.4709
14371SOL     OW46643   6.736   6.125   3.193  0.2078 -0.3958 -0.0981
14371SOL    HW146644   6.783   6.158   3.269 -0.2738 -0.4889  0.2448
14371SOL    HW246645   6.683   6.199   3.163 -1.0341 -0.8819  0.7976
14372SOL     OW46646   1.783   7.148   6.662  0.6170 -0.4835  0.4595
14372SOL    HW146647   1.846   7.134   6.733 -0.8826 -0.0588  1.9159
14372SOL    HW246648   1.729   7.069   6.662 -0.8567  0.4696  1.3794
14373SOL     OW46649   6.698   1.987   7.098 -1.2837 -0.1803  0.6604
14373SOL    HW146650   6.752   1.998   7.176 -1.3877  0.6964  0.6139
14373SOL    HW246651   6.623   1.935   7.127  0.0498 -2.2901  0.5077
14374SOL     OW46652   1.692   7.467   9.157  0.0661  0.2478 -0.7434
14374SOL    HW146653   1.654   7.553   9.137 -0.8106  1.0283  3.4479
14374SOL    HW246654   1.783   7.486   9.180  0.4776 -0.3014 -1.8598
14375SOL     OW46655   5.918   8.060   6.209  0.0493 -0.3962  0.1490
14375SOL    HW146656   5.953   8.071   6.121  1.6399  0.2579  0.8207
14375SOL    HW246657   5.944   8.139   6.256 -0.3337 -0.9478  1.3435
14376SOL     OW46658   2.715   4.194   1.301  0.1023  0.1836  0.1610
14376SOL    HW146659   2.781   4.241   1.352  1.0716 -1.0159  0.0683
14376SOL    HW246660   2.724   4.228   1.212  1.0013 -0.3773  0.0322
14377SOL     OW46661   5.848   9.772   5.408 -0.0056 -0.1188  0.5355
14377SOL    HW146662   5.877   9.857   5.374 -1.0607 -0.3664 -1.0565
14377SOL    HW246663   5.853   9.782   5.503 -0.9301  2.0313  0.4194
14378SOL     OW46664   0.068   7.601   2.162  0.2472  0.4407 -0.1961
14378SOL    HW146665   0.068   7.554   2.246 -1.3119  0.2674 -0.2630
14378SOL    HW246666   0.040   7.690   2.185 -1.9905 -0.0649 -0.7068
14379SOL     OW46667   1.428   3.136   1.590 -0.2234 -0.7405 -0.2944
14379SOL    HW146668   1.394   3.200   1.527  1.4371  0.7939  0.2952
14379SOL    HW246669   1.371   3.146   1.667  1.4250  1.8709  0.7164
14380SOL     OW46670  10.958   1.753   8.833 -0.1274  0.4337  0.0663
14380SOL    HW146671  11.008   1.750   8.751 -1.8044  1.0051 -1.0260
14380SOL    HW246672  10.951   1.661   8.859  1.2129  0.3127  0.1131
14381SOL     OW46673   3.795   1.600   3.678  0.1783  0.3568 -0.3258
14381SOL    HW146674   3.823   1.516   3.714  0.3678  0.5479 -0.0158
14381SOL    HW246675   3.779   1.583   3.586  1.8165  0.3324 -0.6343
14382SOL     OW46676   0.528   8.481   3.451  0.1050  0.7831  0.1298
14382SOL    HW146677   0.538   8.568   3.489 -1.2516  1.6955 -1.4545
14382SOL    HW246678   0.569   8.487   3.365  0.6686 -0.3833  0.2952
14383SOL     OW46679   5.436   5.477   7.518 -0.3937 -0.4696  0.1739
14383SOL    HW146680   5.424   5.554   7.463 -3.0328 -2.2724 -2.0605
14383SOL    HW246681   5.526   5.449   7.502 -0.2349  0.6715 -1.0697
14384SOL     OW46682   8.413   3.901   9.687  0.0084  0.0952 -0.5593
14384SOL    HW146683   8.328   3.887   9.728  1.6824 -3.6335  2.1794
14384SOL    HW246684   8.412   3.846   9.609 -0.6173  1.4680 -1.5626
14385SOL     OW46685   5.500   2.751   0.008 -0.1057  0.2586 -0.2621
14385SOL    HW146686   5.487   2.845   0.016  0.7448  0.2663  1.4456
14385SOL    HW246687   5.510   2.736  -0.086  0.5420  1.9857 -0.4957
14386SOL     OW46688   4.366   2.369   6.799  0.3801  0.1295  0.1240
14386SOL    HW146689   4.362   2.307   6.727  0.5142 -0.1856  0.3859
14386SOL    HW246690   4.445   2.345   6.847 -0.1889 -0.2418  0.8992
14387SOL     OW46691  10.187   4.454   7.484 -0.1543 -0.0282  0.0778
14387SOL    HW146692  10.206   4.472   7.392  0.2951  0.9562  0.3511
14387SOL    HW246693  10.110   4.396   7.481 -0.0131 -0.1905 -0.9145
14388SOL     OW46694  11.105   5.767   0.513  0.0515  0.0145 -0.0233
14388SOL    HW146695  11.113   5.695   0.576  1.1125 -0.6631 -0.9069
14388SOL    HW246696  11.012   5.791   0.518 -0.7968 -2.6306 -0.9905
14389SOL     OW46697   2.072  10.171   1.646 -0.1688  0.5059 -0.2131
14389SOL    HW146698   2.002  10.135   1.699 -0.9609 -1.1050 -2.2022
14389SOL    HW246699   2.068  10.121   1.564  1.2073  2.5696 -1.6479
14390SOL     OW46700   7.580   6.812   2.809  0.1642  0.5176  0.7965
14390SOL    HW146701   7.599   6.781   2.897  1.3449  0.6707  0.6152
14390SOL    HW246702   7.664   6.809   2.764 -0.4775  0.1865 -0.4099
14391SOL     OW46703   5.384   4.204   0.731 -0.3988  0.1984 -0.6675
14391SOL    HW146704   5.396   4.109   0.732  2.0449  0.4285 -1.0898
14391SOL    HW246705   5.373   4.226   0.638  2.3847  0.5738 -0.9911
14392SOL     OW46706   1.184   7.541   2.256 -0.3789  0.0733  0.2686
14392SOL    HW146707   1.247   7.495   2.311  0.2125  0.3384 -0.1652
14392SOL    HW246708   1.195   7.633   2.278  0.4809  0.2748 -0.8702
14393SOL     OW46709  11.113   2.221   5.422  0.3172 -0.3970  0.3794
14393SOL    HW146710  11.048   2.291   5.433 -0.1927 -0.7867 -0.1287
14393SOL    HW246711  11.172   2.255   5.354  0.1163 -0.4207  0.1897
14394SOL     OW46712   9.850   2.229  10.281 -0.9890  0.0704  0.2070
14394SOL    HW146713   9.800   2.278  10.348 -0.9173 -1.1191  1.1631
14394SOL    HW246714   9.877   2.296  10.219 -2.1323  1.0396  0.7008
14395SOL     OW46715   7.601   6.082   8.552 -0.7633 -0.1191 -0.2563
14395SOL    HW146716   7.672   6.062   8.614 -3.1599 -0.2338  2.6421
14395SOL    HW246717   7.564   5.997   8.530 -2.6642  0.1126  1.7295
14396SOL     OW46718   9.900   6.473   5.551 -0.8281  0.4218  0.4152
14396SOL    HW146719   9.879   6.383   5.575  1.6124  0.1007  1.7164
14396SOL    HW246720   9.972   6.465   5.489 -1.4734  1.4732 -0.4878
14397SOL     OW46721   5.001   9.396   3.480 -0.1190  0.4609  0.2727
14397SOL    HW146722   5.055   9.318   3.470 -1.4460 -0.4731  0.1699
14397SOL    HW246723   5.019   9.426   3.569  1.0556  0.5586  0.0154
14398SOL     OW46724   8.960   6.972   9.013 -0.8306  0.0537 -0.0352
14398SOL    HW146725   8.991   7.062   9.005  1.4940 -0.8111 -2.9298
14398SOL    HW246726   8.868   6.980   9.037 -0.2391  3.0930  1.6844
14399SOL     OW46727   3.184   3.946   6.633  0.1088  0.1413  0.1905
14399SOL    HW146728   3.273   3.914   6.616 -0.2690 -0.5653 -0.5514
14399SOL    HW246729   3.164   4.000   6.556 -0.2764 -0.1079  0.1117
14400SOL     OW46730   7.933   5.599   7.079  0.1986 -0.1906 -0.4189
14400SOL    HW146731   7.942   5.529   7.144 -0.0561  0.6323  0.5232
14400SOL    HW246732   7.873   5.563   7.014  0.2806 -0.9470 -0.0943
14401SOL     OW46733   3.254   9.169   0.768  0.1183  0.2863  0.4181
14401SOL    HW146734   3.264   9.075   0.752 -0.9179  0.2127  0.1355
14401SOL    HW246735   3.194   9.174   0.843  0.4654  0.7276  0.6766
14402SOL     OW46736   5.534   4.710   9.140  0.1419 -0.6503 -0.8373
14402SOL    HW146737   5.585   4.662   9.206 -2.5526 -1.2781  0.9311
14402SOL    HW246738   5.560   4.801   9.151  0.6105 -0.9020  0.2947
14403SOL     OW46739   8.825   5.941   8.691 -0.2278 -0.2893  0.3825
14403SOL    HW146740   8.821   5.937   8.596 -0.9041 -1.8296  0.4488
14403SOL    HW246741   8.767   5.871   8.721  0.7075 -0.4651  1.9190
14404SOL     OW46742   2.174   9.753   6.918  0.0313 -0.1093  0.7079
14404SOL    HW146743   2.188   9.704   6.837 -1.5721  0.5663 -0.0176
14404SOL    HW246744   2.089   9.723   6.949  0.2457  0.2769  1.6845
14405SOL     OW46745  10.396  10.831   9.853  0.1110 -0.2493 -0.4013
14405SOL    HW146746  10.382  10.829   9.758  0.9681 -0.9185 -0.5285
14405SOL    HW246747  10.471  10.774   9.867  0.1843  0.0876  0.6556
14406SOL     OW46748   0.342   1.612   2.135 -0.2406 -0.3494  0.1415
14406SOL    HW146749   0.344   1.639   2.044  1.0954  0.4387  0.3891
14406SOL    HW246750   0.348   1.516   2.132  0.3646 -0.2920 -0.5794
14407SOL     OW46751   7.405   8.131   8.965 -0.3153 -0.0459  0.0242
14407SOL    HW146752   7.317   8.165   8.984 -0.6358  0.2183 -1.8001
14407SOL    HW246753   7.408   8.123   8.870  1.9995  0.9447 -0.0480
14408SOL     OW46754   2.875   5.402   7.170 -0.0481  0.0149 -0.0579
14408SOL    HW146755   2.797   5.371   7.125 -0.8124  0.8142  0.6663
14408SOL    HW246756   2.947   5.384   7.109 -0.8813 -0.0920 -1.0435
14409SOL     OW46757   4.916   8.541   8.306  0.1752 -0.4063  0.2602
14409SOL    HW146758   4.972   8.532   8.229 -1.1969  0.0682 -0.8277
14409SOL    HW246759   4.968   8.504   8.378  1.4729 -0.8818 -0.8829
14410SOL     OW46760   5.334   8.039   6.521  0.1525 -0.1283 -0.2809
14410SOL    HW146761   5.294   8.048   6.434  1.9269  1.9592 -1.0086
14410SOL    HW246762   5.312   8.121   6.565 -1.4051 -1.4980  1.6268
14411SOL     OW46763   4.617   4.235   4.421  0.3897  0.0750 -0.3943
14411SOL    HW146764   4.526   4.207   4.429  0.7345 -0.9325  0.2175
14411SOL    HW246765   4.664   4.156   4.393  0.8830  0.8995 -1.9733
14412SOL     OW46766  10.153   6.040   5.376 -0.3866  0.1169 -0.2459
14412SOL    HW146767  10.147   6.129   5.412 -1.5649  0.2581 -0.7334
14412SOL    HW246768  10.200   6.051   5.293 -0.6924  0.3335 -0.3966
14413SOL     OW46769   0.946   1.097   0.447 -0.6577 -0.4743  0.1887
14413SOL    HW146770   0.956   1.110   0.541  0.3423  1.1059 -0.0942
14413SOL    HW246771   0.893   1.172   0.418  0.9473  0.3378 -0.8075
14414SOL     OW46772   2.014   9.582   9.589 -0.7661 -0.1020  0.4595
14414SOL    HW146773   1.934   9.634   9.603 -0.8392 -0.3008  0.7836
14414SOL    HW246774   2.081   9.647   9.569 -0.8789  0.1164  0.7771
14415SOL     OW46775   7.452   1.526   5.442 -0.0299  0.1918 -0.2194
14415SOL    HW146776   7.505   1.558   5.369  1.7308  0.3900  1.0858
14415SOL    HW246777   7.418   1.605   5.483  0.7249  0.2122  0.3982
14416SOL     OW46778   4.477   0.970   0.766 -0.5303 -0.1531  0.0157
14416SOL    HW146779   4.494   0.978   0.860  1.2322 -0.5579 -0.2336
14416SOL    HW246780   4.422   0.892   0.758 -0.4318 -0.2968  0.6805
14417SOL     OW46781  10.634   1.557   3.588 -0.1001 -0.1708 -0.1415
14417SOL    HW146782  10.582   1.556   3.507 -0.6424 -1.5789  0.1862
14417SOL    HW246783  10.657   1.649   3.601 -2.0569  0.4303 -0.6089
14418SOL     OW46784   9.699   6.208   0.867  0.5081  0.7222  0.0537
14418SOL    HW146785   9.733   6.140   0.809  1.2310  0.1357  1.1395
14418SOL    HW246786   9.604   6.196   0.866  0.6852 -0.8833  0.9283
14419SOL     OW46787   0.298   2.031   8.834 -0.0508 -0.1986 -0.0233
14419SOL    HW146788   0.210   2.010   8.804  0.3482 -0.1910 -1.2594
14419SOL    HW246789   0.356   1.979   8.778  0.7936  1.2695 -0.5714
14420SOL     OW46790  11.004   3.331   9.997 -0.0855  0.7254 -0.5575
14420SOL    HW146791  11.037   3.254   9.950 -1.2965  0.0337 -0.3192
14420SOL    HW246792  10.910   3.334   9.975 -0.5152  0.8583  1.1537
14421SOL     OW46793   6.075   2.232   5.646 -0.1008  0.2899  0.0908
14421SOL    HW146794   6.088   2.259   5.555 -0.0850 -0.7409 -0.2275
14421SOL    HW246795   6.006   2.166   5.641  0.6095 -0.5034  0.7084
14422SOL     OW46796   1.065   8.860   0.203 -0.2066  0.2470 -0.2347
14422SOL    HW146797   1.065   8.843   0.297 -1.6935 -2.3592 -0.5959
14422SOL    HW246798   0.978   8.831   0.174  0.6179 -0.1207 -2.5653
14423SOL     OW46799   0.844   4.904   0.893  0.0253 -0.0361 -0.4377
14423SOL    HW146800   0.862   4.825   0.944  1.0157  0.3180 -0.2015
14423SOL    HW246801   0.834   4.873   0.803  1.3287 -0.3510 -0.4924
14424SOL     OW46802   8.967   2.812   7.184 -0.5563 -0.5861 -0.4401
14424SOL    HW146803   8.978   2.855   7.268 -0.1125  0.5117 -1.0433
14424SOL    HW246804   9.033   2.851   7.128 -0.3954 -1.7842 -1.1290
14425SOL     OW46805   3.462  10.475   9.125  0.2549  0.2698  0.7838
14425SOL    HW146806   3.528  10.433   9.181  3.1755  1.9032 -1.1242
14425SOL    HW246807   3.448  10.412   9.054 -2.0462 -1.0138  2.2734
14426SOL     OW46808  10.745   5.942   4.225  0.3460 -0.2242  0.5803
14426SOL    HW146809  10.772   5.860   4.266  0.9309 -0.2309  0.1939
14426SOL    HW246810  10.804   5.952   4.150  1.2896  1.3086  1.4794
14427SOL     OW46811   0.362   5.077   9.122  0.2896 -0.3958  0.0816
14427SOL    HW146812   0.450   5.055   9.153  0.5288 -0.3611 -0.5528
14427SOL    HW246813   0.376   5.148   9.059 -0.0872 -0.9874 -0.6914
14428SOL     OW46814   9.078   8.431   2.170 -0.0527  0.3124 -0.0296
14428SOL    HW146815   9.152   8.487   2.193  0.1212  0.2565 -0.4443
14428SOL    HW246816   9.080   8.361   2.236 -0.5905  1.0672  0.8096
14429SOL     OW46817   7.923   6.045   1.251  0.1458  0.2308 -0.0973
14429SOL    HW146818   8.007   6.022   1.292  1.2906  1.5938 -1.5431
14429SOL    HW246819   7.917   5.988   1.175 -1.1789 -1.1405  0.9715
14430SOL     OW46820   9.119   1.079  10.223 -0.1332  0.4204 -0.5513
14430SOL    HW146821   9.088   1.145  10.161 -2.6549 -2.2375 -2.4297
14430SOL    HW246822   9.189   1.033  10.176  0.6078  0.8055  0.1573
14431SOL     OW46823   5.180   1.061   7.277  0.5323 -0.2743  0.2478
14431SOL    HW146824   5.249   1.118   7.242 -0.2417  0.0604 -0.7885
14431SOL    HW246825   5.147   1.109   7.353 -0.6516  1.1110 -1.0705
14432SOL     OW46826   6.622   6.351   3.145 -0.0540 -0.1673 -0.3200
14432SOL    HW146827   6.699   6.393   3.107 -0.0606 -0.3977 -0.5939
14432SOL    HW246828   6.549   6.407   3.119 -0.1314 -0.6494 -1.1711
14433SOL     OW46829  10.016   3.252   5.084 -0.0159  0.5632 -0.0969
14433SOL    HW146830  10.002   3.339   5.047  1.4858  1.3987  1.1660
14433SOL    HW246831  10.100   3.224   5.046  1.7613  1.5978  2.7486
14434SOL     OW46832   6.078   5.059   7.492 -0.3259 -0.4456  0.1869
14434SOL    HW146833   6.015   4.988   7.478 -1.0753 -0.1573  1.7882
14434SOL    HW246834   6.149   5.041   7.431 -1.3679 -1.5043 -0.7704
14435SOL     OW46835   8.016   9.615   2.064  0.0756 -0.6266 -0.0419
14435SOL    HW146836   8.095   9.668   2.077 -1.1240  1.3128 -0.3566
14435SOL    HW246837   8.043   9.526   2.088  2.2771  0.0263  0.0977
14436SOL     OW46838   3.454   7.199   3.659  0.3148  0.0409 -0.1979
14436SOL    HW146839   3.400   7.173   3.585  2.1308 -2.7115 -0.7167
14436SOL    HW246840   3.392   7.216   3.730 -1.2942 -1.1474 -1.2687
14437SOL     OW46841   6.988  11.088   5.724  0.3598 -0.1152 -0.0809
14437SOL    HW146842   7.027  11.136   5.797 -0.5087 -0.4714  0.6391
14437SOL    HW246843   7.059  11.076   5.662  1.0590  0.4018  0.6088
14438SOL     OW46844   3.239   8.455   3.088  0.4605 -0.2930  0.8483
14438SOL    HW146845   3.296   8.514   3.039  1.4499 -0.6646  1.5241
14438SOL    HW246846   3.151   8.491   3.076  0.1946 -1.8395 -3.4158
14439SOL     OW46847   9.909   5.051  10.076  0.0473 -0.2344  0.0050
14439SOL    HW146848   9.973   5.009  10.018 -0.0660 -0.9323  0.3732
14439SOL    HW246849   9.961   5.093  10.144  0.1085 -1.3595  0.6765
14440SOL     OW46850   5.614   9.659   6.905 -0.0723 -0.4329 -0.0434
14440SOL    HW146851   5.621   9.737   6.850  1.1290 -0.7106 -0.2969
14440SOL    HW246852   5.609   9.694   6.994  0.4703 -0.0688 -0.1515
14441SOL     OW46853   5.653   1.544   3.760  0.3013 -0.0607 -0.2900
14441SOL    HW146854   5.706   1.623   3.744 -1.2283  0.6432 -2.3761
14441SOL    HW246855   5.708   1.472   3.730  0.9661  0.4106 -0.2279
14442SOL     OW46856  10.720   8.792   5.595 -0.5757  0.4095  0.0828
14442SOL    HW146857  10.696   8.725   5.658 -0.4013  2.0262  1.9606
14442SOL    HW246858  10.705   8.751   5.509  0.1018 -2.1881  1.1201
14443SOL     OW46859  10.981   4.212   0.979 -0.3304 -0.2247 -0.3206
14443SOL    HW146860  11.023   4.268   1.045 -1.5484  2.8507 -1.9492
14443SOL    HW246861  11.040   4.137   0.969  0.4316 -0.3028  3.4014
14444SOL     OW46862   8.334   3.579  10.289  0.2210  0.1731  0.2364
14444SOL    HW146863   8.287   3.498  10.309  0.8069 -0.1451  0.3723
14444SOL    HW246864   8.376   3.561  10.205  1.3954 -0.1559  0.8651
14445SOL     OW46865   8.737   7.042   1.442  0.1821 -0.3433 -0.2849
14445SOL    HW146866   8.780   7.106   1.498  0.7351 -0.9862  0.0322
14445SOL    HW246867   8.666   7.092   1.399 -0.6173  0.0407  1.3898
14446SOL     OW46868  10.449   2.202   0.935 -0.1925  0.3887  0.5404
14446SOL    HW146869  10.396   2.143   0.988  0.4041 -0.4829  0.1745
14446SOL    HW246870  10.532   2.157   0.924 -0.3389  0.4692 -1.2414
14447SOL     OW46871   0.693   8.198   6.124 -0.6320 -0.3528 -0.3287
14447SOL    HW146872   0.630   8.268   6.143 -0.3609  0.0559 -0.9402
14447SOL    HW246873   0.648   8.142   6.061 -0.5261 -0.2710 -0.4762
14448SOL     OW46874   3.915   1.837   9.668  0.4086 -0.6452 -0.2144
14448SOL    HW146875   3.917   1.932   9.678 -0.7817 -0.6233 -0.0539
14448SOL    HW246876   4.000   1.808   9.700  0.2182  0.2392  1.1545
14449SOL     OW46877   0.310  10.387   7.032 -0.3205  0.2668 -0.4325
14449SOL    HW146878   0.298  10.318   6.967  0.5864  0.6577 -1.0328
14449SOL    HW246879   0.232  10.442   7.023 -1.7314 -1.3711  0.9856
14450SOL     OW46880   1.848   3.595   5.388 -0.6155 -0.8095  0.1128
14450SOL    HW146881   1.775   3.630   5.439 -0.0852  0.1387  0.2460
14450SOL    HW246882   1.857   3.656   5.314  0.8588 -0.1452  0.7979
14451SOL     OW46883   6.671   7.338   0.305  0.2930  0.8212  0.1613
14451SOL    HW146884   6.638   7.402   0.368 -1.3107 -1.2086  1.5036
14451SOL    HW246885   6.760   7.319   0.336  0.3685  1.5377  0.4198
14452SOL     OW46886   2.518   7.057   9.631  0.7400 -0.7560 -0.8661
14452SOL    HW146887   2.526   7.127   9.695  2.1975 -0.9637 -0.7843
14452SOL    HW246888   2.440   7.008   9.659 -0.9267  1.3545 -1.5147
14453SOL     OW46889   1.666   1.197   1.258 -0.0637 -0.5342 -0.3598
14453SOL    HW146890   1.588   1.208   1.313  0.6000 -0.7430  0.6587
14453SOL    HW246891   1.740   1.205   1.319  0.7296 -0.0635 -1.3428
14454SOL     OW46892   6.344   5.090   7.012  0.3120  0.2857  0.3512
14454SOL    HW146893   6.437   5.110   7.014  0.2778  0.5107 -0.1482
14454SOL    HW246894   6.301   5.171   7.040  0.2794  0.0191  1.1058
14455SOL     OW46895   3.807   8.120   2.189  0.3938 -0.1061  0.0807
14455SOL    HW146896   3.773   8.196   2.235  0.0375  0.1113 -0.5297
14455SOL    HW246897   3.885   8.095   2.237  0.9201  1.0848 -0.1340
14456SOL     OW46898   8.696   4.903  11.109  0.6264  0.3006  0.1995
14456SOL    HW146899   8.702   4.941  11.021 -4.0285  0.4736 -0.2881
14456SOL    HW246900   8.700   4.809  11.094  0.7912  0.3514 -0.0950
14457SOL     OW46901   0.574  10.021   1.947  0.6103 -0.0239 -0.3866
14457SOL    HW146902   0.527  10.023   2.031  0.8163 -1.7438 -0.2065
14457SOL    HW246903   0.514   9.978   1.887  0.4361  1.2646 -1.1821
14458SOL     OW46904   5.191   3.481   4.037  0.0887  0.2270 -0.1325
14458SOL    HW146905   5.148   3.509   4.118 -3.1191 -1.5361 -1.0265
14458SOL    HW246906   5.241   3.403   4.062 -1.4371 -0.7222  0.1463
14459SOL     OW46907  10.084   0.476   1.680 -0.0190  0.2007  0.0654
14459SOL    HW146908  10.094   0.476   1.584  1.0852  1.1349  0.1626
14459SOL    HW246909  10.036   0.395   1.698 -1.9645  0.9240 -1.4285
14460SOL     OW46910   7.264   9.575   2.590  0.4653  0.3707 -0.0805
14460SOL    HW146911   7.288   9.667   2.600 -0.2664  0.6586 -0.8768
14460SOL    HW246912   7.341   9.536   2.548  0.4011  0.8334 -0.6495
14461SOL     OW46913   2.037   4.648   2.462 -0.0027  0.2401 -0.2260
14461SOL    HW146914   2.086   4.626   2.383  2.5928 -0.7899  1.5198
14461SOL    HW246915   2.101   4.639   2.533 -2.4434  0.0678  2.1188
14462SOL     OW46916   9.399   9.769   2.477  0.4463  0.6356 -0.2714
14462SOL    HW146917   9.481   9.741   2.519 -0.3914 -1.3438  0.1391
14462SOL    HW246918   9.427   9.831   2.411  2.0670  1.8422  1.4279
14463SOL     OW46919   4.698   6.197   3.365  0.2915  0.6341  0.7430
14463SOL    HW146920   4.668   6.254   3.294 -1.1312  1.1873  1.7281
14463SOL    HW246921   4.783   6.164   3.336  0.0888  1.4406 -0.8659
14464SOL     OW46922   0.451   1.201   9.087  0.4626  0.3242  0.1903
14464SOL    HW146923   0.519   1.252   9.043 -0.1749  1.2117  0.1994
14464SOL    HW246924   0.421   1.139   9.020  0.9237  0.2652  0.0325
14465SOL     OW46925   5.529   2.689   4.024  0.5812  0.1394  0.1246
14465SOL    HW146926   5.566   2.639   4.098  2.0861 -0.4581 -0.9781
14465SOL    HW246927   5.512   2.623   3.957  0.5336  0.8355 -0.5593
14466SOL     OW46928  11.025  10.147   3.921 -0.0129 -0.2716  0.4654
14466SOL    HW146929  11.108  10.103   3.941 -0.0199 -0.3445  0.3360
14466SOL    HW246930  11.031  10.169   3.828  0.6968  1.4970  0.8836
14467SOL     OW46931  10.550   5.676   7.925  0.1340  0.6914  0.1164
14467SOL    HW146932  10.545   5.669   7.830  0.0651  0.1958  0.1549
14467SOL    HW246933  10.555   5.770   7.942  3.7968  0.7290 -0.5467
14468SOL     OW46934   4.146   5.499   6.568 -0.2120  0.2891  0.0086
14468SOL    HW146935   4.133   5.425   6.627 -1.3989 -1.2471 -2.0377
14468SOL    HW246936   4.087   5.567   6.601 -0.0228 -0.1096  1.2101
14469SOL     OW46937   5.578   0.460   9.082  0.0761 -0.4582 -0.4214
14469SOL    HW146938   5.607   0.436   8.994  1.1749  1.9195 -0.7980
14469SOL    HW246939   5.625   0.400   9.140 -1.2839 -2.6045 -1.4093
14470SOL     OW46940   4.304   8.071   3.398  0.2186  0.6474 -0.2060
14470SOL    HW146941   4.282   8.009   3.468 -2.7009  1.3644 -0.3846
14470SOL    HW246942   4.321   8.016   3.321 -0.2989 -0.0025  0.1426
14471SOL     OW46943   5.760   7.716   1.341  0.2252  0.2668  0.0410
14471SOL    HW146944   5.764   7.785   1.274 -1.4562 -0.0852 -0.4565
14471SOL    HW246945   5.740   7.763   1.422  0.1951  0.4815 -0.0896
14472SOL     OW46946   6.704   9.443   9.406  0.4976  0.1996 -0.1212
14472SOL    HW146947   6.797   9.467   9.410  0.4775  0.1563  1.0569
14472SOL    HW246948   6.673   9.481   9.324  0.9003  2.6974  0.7838
14473SOL     OW46949   4.543  10.918   5.855  0.1161  0.2425  0.4683
14473SOL    HW146950   4.521  10.842   5.801  0.6166  0.4424 -0.0296
14473SOL    HW246951   4.479  10.917   5.925 -0.5176 -0.0586 -0.1049
14474SOL     OW46952   9.225  10.774   0.778  0.2742  0.2800  0.9133
14474SOL    HW146953   9.230  10.869   0.765 -1.9474  0.4677  1.0230
14474SOL    HW246954   9.290  10.738   0.719  0.3165  1.8157 -0.0321
14475SOL     OW46955   8.142   0.390   8.909  0.4197  0.0669  0.4153
14475SOL    HW146956   8.076   0.398   8.840  0.8578 -0.8354 -0.1298
14475SOL    HW246957   8.151   0.478   8.944 -1.9945  0.0091  1.3809
14476SOL     OW46958   2.259   8.026   7.693  0.2624  0.7064 -0.0376
14476SOL    HW146959   2.280   7.992   7.780  1.1484  0.3854 -0.3660
14476SOL    HW246960   2.311   8.106   7.685 -1.7100  2.1425  0.6826
14477SOL     OW46961   3.961   0.130   0.363 -0.3320 -0.4926 -0.4153
14477SOL    HW146962   3.913   0.077   0.299  0.0481 -1.7919  0.3324
14477SOL    HW246963   4.027   0.070   0.398  0.9140  0.8417 -0.3902
14478SOL     OW46964   6.376   8.627   9.182 -0.2911 -0.6120 -0.3826
14478SOL    HW146965   6.365   8.594   9.271  0.1696 -2.1307 -0.8642
14478SOL    HW246966   6.457   8.679   9.185  0.1728 -1.3311 -0.0767
14479SOL     OW46967   7.048   2.725   8.087  0.8349 -0.1346  0.2830
14479SOL    HW146968   7.079   2.801   8.038  1.4067 -0.1780  0.5649
14479SOL    HW246969   6.953   2.730   8.081  0.8858 -0.5660 -1.4736
14480SOL     OW46970   9.633   7.089   7.603  0.3781 -0.4229  0.2104
14480SOL    HW146971   9.539   7.108   7.605  0.3441 -0.6160  0.6149
14480SOL    HW246972   9.664   7.113   7.691  0.5714 -1.0328  0.3142
14481SOL     OW46973   4.098   9.741   2.714  0.7083 -0.3733  0.8073
14481SOL    HW146974   4.186   9.748   2.678  0.9085  0.0473  1.3660
14481SOL    HW246975   4.053   9.679   2.656  0.1401  2.2874 -1.8894
14482SOL     OW46976   1.558   6.949   4.358  0.4527 -0.6818 -0.2959
14482SOL    HW146977   1.536   6.955   4.451  0.4696 -0.2451 -0.3183
14482SOL    HW246978   1.635   7.005   4.348  0.6770 -1.0274 -0.5012
14483SOL     OW46979   3.962   6.512  10.561 -0.1774  0.0347  0.3818
14483SOL    HW146980   3.969   6.519  10.466 -0.2559  0.5102  0.4094
14483SOL    HW246981   4.052   6.515  10.592 -0.0094 -2.0772  0.2025
14484SOL     OW46982   2.290   1.362   0.772  0.2058 -0.1968  0.4568
14484SOL    HW146983   2.222   1.422   0.743  0.5186  0.2345  0.6009
14484SOL    HW246984   2.352   1.359   0.698  0.2723 -0.2137  0.5133
14485SOL     OW46985   4.367   1.198   9.199  0.2980  0.5118 -0.0474
14485SOL    HW146986   4.360   1.290   9.221 -0.3066  0.4554 -0.0037
14485SOL    HW246987   4.282   1.175   9.162 -1.0716 -1.0290  3.6048
14486SOL     OW46988   1.922  10.076   6.866 -0.4249  0.4455 -0.2575
14486SOL    HW146989   1.926  10.049   6.774 -0.5241 -1.4414  0.2476
14486SOL    HW246990   2.012  10.065   6.898 -0.1091  2.3058 -0.4073
14487SOL     OW46991   9.362   5.228   5.900  0.7858 -0.2207  0.4484
14487SOL    HW146992   9.377   5.321   5.919 -0.4840 -0.0680  0.7726
14487SOL    HW246993   9.383   5.219   5.807  0.5217  0.4885  0.3123
14488SOL     OW46994   0.010   1.580   4.432 -0.5265 -0.2485  0.0944
14488SOL    HW146995   0.035   1.568   4.523 -2.9012  0.1649  0.8791
14488SOL    HW246996  -0.051   1.509   4.414 -1.3890  0.6305 -0.6037
14489SOL     OW46997  10.749  10.807   0.760  0.1255 -0.1914  0.0809
14489SOL    HW146998  10.656  10.797   0.778  0.1150 -0.6387 -0.2119
14489SOL    HW246999  10.790  10.731   0.802  0.4811  0.5362  1.0994
14490SOL     OW47000   0.755  10.362   8.988  0.2620  0.6160  0.0513
14490SOL    HW147001   0.702  10.362   9.068 -0.3900 -0.2122 -0.3652
14490SOL    HW247002   0.825  10.298   9.005 -2.0016 -2.4856 -1.3390
14491SOL     OW47003   3.532   1.530   6.987  0.0537  0.0044  0.0771
14491SOL    HW147004   3.603   1.585   6.955  1.5001 -1.8110 -0.0074
14491SOL    HW247005   3.453   1.582   6.972  1.3955  2.4699  1.0037
14492SOL     OW47006   1.709   5.275  10.458  0.8293  0.0111  0.3433
14492SOL    HW147007   1.723   5.249  10.549 -0.5734 -0.2637  0.5003
14492SOL    HW247008   1.657   5.204  10.420 -0.6568  1.2096  0.0142
14493SOL     OW47009   5.509   2.604   0.871 -0.2987 -0.0153  0.5891
14493SOL    HW147010   5.425   2.570   0.839  1.2972 -3.8451 -0.0832
14493SOL    HW247011   5.505   2.589   0.966 -0.1384 -0.8983  0.4670
14494SOL     OW47012   9.247   4.807  10.407  0.1381 -0.0832 -0.7742
14494SOL    HW147013   9.283   4.737  10.462  0.5535  1.6692  1.2807
14494SOL    HW247014   9.320   4.834  10.351  0.9819  0.9012  0.7471
14495SOL     OW47015   0.835   7.698   1.406 -0.2642  0.2769 -1.2300
14495SOL    HW147016   0.742   7.682   1.422 -0.2350  1.2663  0.1319
14495SOL    HW247017   0.874   7.698   1.494  0.7574  1.3482 -1.6565
14496SOL     OW47018   9.228   3.237   7.936 -0.1115  0.3683 -0.2049
14496SOL    HW147019   9.156   3.271   7.883 -0.0212  0.5440 -0.2138
14496SOL    HW247020   9.209   3.268   8.025 -1.8425 -2.3174  0.4826
14497SOL     OW47021   6.403   1.727   6.801 -0.3320  0.6342  0.3547
14497SOL    HW147022   6.386   1.768   6.717 -0.6151  1.0672  0.6197
14497SOL    HW247023   6.396   1.798   6.865 -1.7325  0.0144  0.9301
14498SOL     OW47024   7.333   4.694   7.470 -0.2408 -0.3296  0.5011
14498SOL    HW147025   7.375   4.780   7.469 -0.4985 -0.2006 -1.1174
14498SOL    HW247026   7.291   4.689   7.556  0.7905  0.6502  1.0825
14499SOL     OW47027   9.582   1.640   1.036  0.2691  0.8343 -0.1037
14499SOL    HW147028   9.522   1.597   1.097 -2.1295  0.7791 -2.3278
14499SOL    HW247029   9.639   1.569   1.004  0.0651  0.4357  0.4128
14500SOL     OW47030   9.065   2.171   5.987  0.2889 -0.0083 -0.5862
14500SOL    HW147031   9.001   2.102   5.971 -0.2634  0.3463  0.0566
14500SOL    HW247032   9.022   2.251   5.960  0.6216  0.1857 -0.5548
14501SOL     OW47033   4.463   4.721   5.486  0.1342 -0.3169  0.2894
14501SOL    HW147034   4.417   4.781   5.545  0.0256 -0.6438  0.5376
14501SOL    HW247035   4.548   4.708   5.527  0.5685  0.5149 -0.3152
14502SOL     OW47036   3.333   3.327   8.148  0.5068  0.3704 -0.1057
14502SOL    HW147037   3.357   3.415   8.121  0.5626 -0.2689 -2.3831
14502SOL    HW247038   3.249   3.310   8.105  0.2723 -0.5289  0.6612
14503SOL     OW47039   0.667   4.472   6.464 -0.0981  0.5724 -0.2262
14503SOL    HW147040   0.654   4.556   6.507  0.9454  0.2930  0.6874
14503SOL    HW247041   0.760   4.470   6.441  0.0200 -0.5380  0.2463
14504SOL     OW47042   2.493   8.784   1.071 -0.7090 -0.0378 -0.1936
14504SOL    HW147043   2.509   8.698   1.109  1.3929  1.5198  2.8278
14504SOL    HW247044   2.571   8.803   1.019 -0.1900  0.8373  0.8649
14505SOL     OW47045   1.329  10.483   4.189  0.7197 -0.3719 -0.1419
14505SOL    HW147046   1.365  10.488   4.278  2.0316 -0.1265 -0.6707
14505SOL    HW247047   1.261  10.416   4.195  0.9982 -0.5863  0.9728
14506SOL     OW47048   8.402   1.803   4.255 -0.1745 -0.0108 -0.0252
14506SOL    HW147049   8.358   1.887   4.270  0.0144 -0.3981  3.5739
14506SOL    HW247050   8.331   1.742   4.237 -0.4123  0.6534 -1.4873
14507SOL     OW47051   9.090   6.877   3.691 -0.2446  0.7868  0.1295
14507SOL    HW147052   9.126   6.804   3.742  1.0348  0.9739 -0.4730
14507SOL    HW247053   9.017   6.909   3.744  1.1900  1.1388  1.9948
14508SOL     OW47054  10.081   5.376   4.678 -0.3064  0.2328 -0.1920
14508SOL    HW147055  10.117   5.420   4.601 -0.5003 -1.4199 -1.2936
14508SOL    HW247056  10.157   5.338   4.722 -0.0198  2.4065  1.3258
14509SOL     OW47057   4.717   4.724   2.678  0.0698 -0.3855  0.6974
14509SOL    HW147058   4.668   4.652   2.640 -2.6304  2.2460 -1.2897
14509SOL    HW247059   4.791   4.737   2.618  0.2918 -1.1780  0.7969
14510SOL     OW47060   1.750  10.779   3.757 -0.1636  0.0122  0.3802
14510SOL    HW147061   1.797  10.776   3.674  0.4537  2.3884  0.5743
14510SOL    HW247062   1.794  10.715   3.812  1.0149  0.1496 -0.3616
14511SOL     OW47063  11.017   6.404   8.387 -0.4324 -0.4275 -0.3286
14511SOL    HW147064  10.996   6.356   8.306  0.2121  1.1131 -1.4591
14511SOL    HW247065  11.040   6.492   8.357 -0.6506  0.3312  1.5938
14512SOL     OW47066   4.282   7.328   0.508 -0.0374  0.1432  0.6279
14512SOL    HW147067   4.312   7.238   0.514 -0.3090  0.0700  0.9355
14512SOL    HW247068   4.358   7.377   0.476  0.1930 -0.1489  0.7264
14513SOL     OW47069   2.498   7.647   6.376  0.2887 -0.0477 -0.5732
14513SOL    HW147070   2.430   7.641   6.443  1.1761 -2.6413  0.1951
14513SOL    HW247071   2.475   7.581   6.311  1.0565  0.3794 -1.3170
14514SOL     OW47072  11.021   3.367   9.678 -0.5645 -0.1419 -0.0307
14514SOL    HW147073  11.073   3.337   9.604  1.2313  0.2332  0.9863
14514SOL    HW247074  10.946   3.309   9.682  1.2479 -2.6143  0.1078
14515SOL     OW47075   7.835   7.283   6.993  0.2699 -0.0964  0.1854
14515SOL    HW147076   7.927   7.310   6.987 -0.0266  1.3450  1.5274
14515SOL    HW247077   7.835   7.212   7.056  0.8452 -2.4014 -2.2324
14516SOL     OW47078   1.043   0.204  11.075 -0.0003  0.2660  0.1161
14516SOL    HW147079   1.013   0.159  10.996  0.1514  1.2066 -0.4993
14516SOL    HW247080   1.137   0.219  11.060 -0.1153  1.0765  0.1447
14517SOL     OW47081   3.074   8.612   6.806  0.2039  0.0277  0.0318
14517SOL    HW147082   3.040   8.672   6.739  0.1178  0.9888  0.9219
14517SOL    HW247083   3.142   8.662   6.851  0.4506 -0.7121  0.4868
14518SOL     OW47084   0.645  10.905   7.814 -0.6733 -0.1916 -0.7824
14518SOL    HW147085   0.714  10.971   7.819 -1.8441  0.9857  2.9311
14518SOL    HW247086   0.571  10.951   7.773 -0.7098  0.0660 -0.4374
14519SOL     OW47087   4.314   2.890   1.426  1.1737  0.3031  0.3342
14519SOL    HW147088   4.251   2.906   1.497 -0.0599 -3.0749  0.1994
14519SOL    HW247089   4.377   2.829   1.464  0.9805 -0.8955 -1.1854
14520SOL     OW47090   4.961   2.391   9.769 -0.1948 -0.0234 -0.2610
14520SOL    HW147091   5.037   2.334   9.755 -1.6721 -2.6167  1.3133
14520SOL    HW247092   4.909   2.381   9.689 -1.0690 -2.1274  0.4752
14521SOL     OW47093   4.893   0.064   8.833  0.5475  0.0596 -0.2107
14521SOL    HW147094   4.822   0.031   8.889  0.6271 -1.3815 -0.9191
14521SOL    HW247095   4.850   0.085   8.750  0.8033  0.0178 -0.3537
14522SOL     OW47096   4.263  10.837   1.167 -0.1077 -0.5104 -0.4773
14522SOL    HW147097   4.300  10.749   1.158  0.5978 -0.5026  1.8582
14522SOL    HW247098   4.180  10.824   1.211  0.2020  0.0116  0.2765
14523SOL     OW47099   1.788   4.166   9.681  0.1743 -0.2930  0.0981
14523SOL    HW147100   1.757   4.212   9.759 -0.7878 -0.6904 -0.0340
14523SOL    HW247101   1.869   4.210   9.658  0.4853 -0.1852  1.3335
14524SOL     OW47102  10.344   8.167   5.123  0.0097  0.1999  0.6490
14524SOL    HW147103  10.336   8.088   5.176 -0.1096 -0.3585 -0.1691
14524SOL    HW247104  10.437   8.169   5.097 -0.3360 -0.6837 -0.7962
14525SOL     OW47105   3.310   9.961   1.803  0.7699  0.0328 -0.1563
14525SOL    HW147106   3.275   9.915   1.880  0.6626  0.1728 -0.1205
14525SOL    HW247107   3.374   9.901   1.766 -0.8343 -1.0516 -1.3025
14526SOL     OW47108   4.073   2.465   7.474  0.0738 -0.1642 -0.1412
14526SOL    HW147109   4.016   2.391   7.454  0.9167 -1.2087  1.1352
14526SOL    HW247110   4.044   2.494   7.561 -1.6990  2.4788 -1.4805
14527SOL     OW47111   8.020   8.461   3.290  0.0359  0.5205  0.1277
14527SOL    HW147112   8.024   8.481   3.197  3.0640  0.4096  0.1228
14527SOL    HW247113   8.047   8.542   3.333  0.0937  0.1444  0.8163
14528SOL     OW47114   6.919   9.720   8.176 -0.2668 -0.3754  0.4616
14528SOL    HW147115   6.909   9.788   8.242 -2.1531 -0.3353  0.2143
14528SOL    HW247116   7.008   9.730   8.143 -0.7372  2.5505 -0.1798
14529SOL     OW47117   9.786   5.192   7.796 -0.3251  0.0719  0.5901
14529SOL    HW147118   9.730   5.228   7.865 -0.2999  1.9633 -0.3057
14529SOL    HW247119   9.731   5.126   7.753 -1.0732  0.3338  1.1266
14530SOL     OW47120   7.106   6.975  10.559  0.4706 -0.3776 -0.5448
14530SOL    HW147121   7.119   6.881  10.548 -0.1766 -0.8348  1.9793
14530SOL    HW247122   7.058   6.984  10.642  0.3958  2.1675 -0.7699
14531SOL     OW47123   1.761   9.854   8.117 -0.7613 -0.1156  0.0166
14531SOL    HW147124   1.839   9.877   8.166 -0.4402 -0.0091 -0.5393
14531SOL    HW247125   1.754   9.921   8.049 -0.0805 -1.3344 -1.3208
14532SOL     OW47126   1.586   6.325   5.776 -0.3129  0.1273 -0.5255
14532SOL    HW147127   1.529   6.383   5.826  0.5734  1.2976 -0.8329
14532SOL    HW247128   1.671   6.329   5.820  0.1968  0.3511 -1.4774
14533SOL     OW47129   9.691   7.938   5.700  0.7069 -0.2109  0.6090
14533SOL    HW147130   9.691   8.031   5.678  1.0182 -0.6216 -1.2294
14533SOL    HW247131   9.765   7.929   5.761 -0.2753  0.9778  2.0507
14534SOL     OW47132   4.220   1.178   1.444  0.5991  0.0248 -0.6577
14534SOL    HW147133   4.125   1.187   1.450  0.7464  1.3997  0.1447
14534SOL    HW247134   4.254   1.258   1.485  2.0846  1.7624 -4.7894
14535SOL     OW47135   5.696  11.001   6.085  0.1464  0.6001 -0.3216
14535SOL    HW147136   5.772  10.954   6.120  0.9011  0.6942 -1.7557
14535SOL    HW247137   5.718  11.094   6.098 -1.2211  0.6440  2.2586
14536SOL     OW47138  10.913   1.179  10.486 -0.1163  0.2711  0.3158
14536SOL    HW147139  10.950   1.266  10.501 -3.2845  1.8512 -0.2359
14536SOL    HW247140  10.955   1.149  10.405  0.3148  1.7108 -0.0273
14537SOL     OW47141   3.118   5.543   7.501  0.0159  0.2253  0.4726
14537SOL    HW147142   3.032   5.568   7.468 -0.6647 -0.4454  1.6490
14537SOL    HW247143   3.104   5.456   7.540  1.0972  0.3366  1.1510
14538SOL     OW47144   5.010  10.367   7.638  0.0720 -0.1016 -0.0224
14538SOL    HW147145   5.028  10.461   7.633 -0.0997 -0.1371 -1.7344
14538SOL    HW247146   5.066  10.329   7.571 -0.8802 -1.0612 -0.2918
14539SOL     OW47147   5.349   5.115   6.954  0.2175 -0.1685 -0.4767
14539SOL    HW147148   5.431   5.066   6.963  0.3998  0.2890  0.6583
14539SOL    HW247149   5.360   5.167   6.874  1.9593  1.4894  0.7255
14540SOL     OW47150   9.529   2.727   6.425 -0.1494  0.6247  0.2024
14540SOL    HW147151   9.444   2.733   6.380 -0.9738 -0.0715  1.5883
14540SOL    HW247152   9.590   2.697   6.357 -0.8272  1.8825 -1.0063
14541SOL     OW47153   6.825   2.562   9.957  0.2814 -0.0316  0.4126
14541SOL    HW147154   6.910   2.543   9.996 -0.5795 -1.2581  1.7673
14541SOL    HW247155   6.842   2.635   9.896  2.8443 -2.1177 -1.5873
14542SOL     OW47156  11.033   0.847   6.243 -0.7497 -0.0861  0.1226
14542SOL    HW147157  11.061   0.920   6.298 -1.7707 -0.0450  0.6057
14542SOL    HW247158  10.977   0.794   6.300  0.4601 -1.5963 -0.0329
14543SOL     OW47159   0.109   3.278   6.095 -0.0377  0.4928  0.1337
14543SOL    HW147160   0.119   3.331   6.016 -1.1354  0.4195 -0.0707
14543SOL    HW247161   0.182   3.216   6.091  0.1622  0.7561 -0.6080
14544SOL     OW47162   7.217   0.435  10.135  0.6303 -0.3331 -0.4319
14544SOL    HW147163   7.217   0.523  10.173 -1.1191 -0.5075  0.0695
14544SOL    HW247164   7.269   0.383  10.196  0.1976 -0.0046  0.2346
14545SOL     OW47165   6.921   4.562   8.234 -0.0109  0.5119  0.3524
14545SOL    HW147166   6.885   4.619   8.302  0.3669  0.5188  0.5499
14545SOL    HW247167   6.873   4.479   8.245  0.1913  0.4428  0.7666
14546SOL     OW47168   8.809  10.783   1.377  0.4159 -0.1155 -0.2223
14546SOL    HW147169   8.814  10.823   1.464  1.1756 -0.2150 -0.2153
14546SOL    HW247170   8.761  10.846   1.324 -1.3931 -0.7100  0.6321
14547SOL     OW47171  10.125   7.918   3.352  0.2079  0.1913 -0.0513
14547SOL    HW147172  10.065   7.943   3.282 -1.1022 -1.6012  0.3722
14547SOL    HW247173  10.165   7.836   3.322 -0.8746 -0.9797  1.5054
14548SOL     OW47174   0.892   3.068   0.760 -0.2251 -0.3207  0.4137
14548SOL    HW147175   0.974   3.023   0.781  0.3341  0.4603 -0.0469
14548SOL    HW247176   0.913   3.161   0.768 -0.6924 -0.0692 -0.9635
14549SOL     OW47177   1.930   0.687  11.126 -0.2877  0.3193 -0.2096
14549SOL    HW147178   1.923   0.719  11.036 -1.0470 -0.9450 -0.6256
14549SOL    HW247179   1.881   0.604  11.126  0.1953  0.0054  1.2212
14550SOL     OW47180   1.485   0.200   4.307  0.3427 -0.1541  0.4972
14550SOL    HW147181   1.565   0.149   4.318  0.9441  0.7447  0.4760
14550SOL    HW247182   1.471   0.203   4.213  0.6794  0.2513  0.4545
14551SOL     OW47183  10.118   8.295   0.170  0.2212  0.6694 -0.1707
14551SOL    HW147184  10.115   8.271   0.263  1.2773 -1.0441 -0.5252
14551SOL    HW247185  10.179   8.369   0.166  2.3420 -0.9344  0.2684
14552SOL     OW47186   0.546   6.713   7.228 -0.0677  0.0574  0.2995
14552SOL    HW147187   0.581   6.750   7.148  1.6823 -0.6673  0.6903
14552SOL    HW247188   0.470   6.769   7.249  1.2285  2.1187 -0.2264
14553SOL     OW47189   2.309   0.662   1.674 -0.2704 -0.3842 -0.2309
14553SOL    HW147190   2.247   0.712   1.622  0.0550 -0.1120 -0.3599
14553SOL    HW247191   2.387   0.655   1.618 -0.3419 -1.1032 -0.2519
14554SOL     OW47192  10.021  10.188   2.351  0.0300 -0.3362 -0.0696
14554SOL    HW147193  10.098  10.241   2.372  0.8374 -0.8678 -1.5733
14554SOL    HW247194  10.041  10.150   2.265 -1.6178 -1.0414 -0.1637
14555SOL     OW47195   2.144   7.464   5.731 -0.0735 -0.8972  0.6226
14555SOL    HW147196   2.098   7.547   5.720  1.0447 -0.3689 -0.3097
14555SOL    HW247197   2.162   7.434   5.642  1.4373 -1.0285  0.9344
14556SOL     OW47198  10.860   4.606   2.355  0.2097  0.2926  0.1121
14556SOL    HW147199  10.850   4.549   2.432 -1.3080  1.9923  1.2464
14556SOL    HW247200  10.936   4.660   2.376  1.0927 -0.6424 -0.5662
14557SOL     OW47201  10.401   0.235  10.397 -0.0695  0.7087 -0.0090
14557SOL    HW147202  10.403   0.145  10.365  1.0212  0.8435 -0.3483
14557SOL    HW247203  10.318   0.270  10.364 -0.1683  0.0515 -0.4799
14558SOL     OW47204   0.694   5.173   1.946  0.1800 -0.4640  0.1570
14558SOL    HW147205   0.642   5.121   1.886  0.7343 -0.5472 -0.2646
14558SOL    HW247206   0.634   5.197   2.016 -0.4442 -0.4678 -0.3690
14559SOL     OW47207  10.466   3.616   3.873  0.2424 -0.4711 -0.1472
14559SOL    HW147208  10.419   3.559   3.934 -0.7008  0.9557  0.5339
14559SOL    HW247209  10.399   3.645   3.812  0.5887  0.2921 -0.1720
14560SOL     OW47210  11.034   6.195   3.508 -0.6502  0.4031 -0.2334
14560SOL    HW147211  10.969   6.174   3.441  0.3027  0.7725 -1.3249
14560SOL    HW247212  11.113   6.218   3.458 -0.3547  2.2655  0.9777
14561SOL     OW47213   6.329   8.374   6.964 -0.1896 -1.0402  0.1833
14561SOL    HW147214   6.395   8.305   6.967 -0.1582 -1.0511 -0.5627
14561SOL    HW247215   6.277   8.354   6.886 -1.4019 -1.3276  1.0324
14562SOL     OW47216   4.892   2.895   7.827 -0.1831 -0.0663  0.2316
14562SOL    HW147217   4.935   2.942   7.898 -0.2532 -1.5079  1.2664
14562SOL    HW247218   4.952   2.823   7.807  0.1940  0.7160 -1.7110
14563SOL     OW47219   3.532   5.522   6.800 -0.2232  0.1577  0.2262
14563SOL    HW147220   3.508   5.585   6.733  0.2887  1.0776  0.8894
14563SOL    HW247221   3.468   5.535   6.870  0.5072  0.6774  0.8080
14564SOL     OW47222   3.649   5.757  10.235  0.2523 -0.0604  0.5070
14564SOL    HW147223   3.559   5.729  10.219  0.5989 -0.7276 -0.3972
14564SOL    HW247224   3.643   5.821  10.305 -1.0395  0.6574 -0.2413
14565SOL     OW47225   3.304   2.524   7.296 -0.6476 -0.3753 -0.2295
14565SOL    HW147226   3.281   2.539   7.204  0.1968  0.6196 -0.2950
14565SOL    HW247227   3.223   2.540   7.344 -0.9890 -0.4768 -0.7607
14566SOL     OW47228   8.894   3.884   4.677 -0.7359 -0.1239  0.2238
14566SOL    HW147229   8.832   3.811   4.676  0.5791 -1.2999  0.5348
14566SOL    HW247230   8.874   3.931   4.757 -1.1784 -0.5477  0.3698
14567SOL     OW47231  10.671   7.433   0.389  0.3495 -0.2958  0.1555
14567SOL    HW147232  10.682   7.510   0.445  0.4347  1.6380 -2.3591
14567SOL    HW247233  10.691   7.359   0.446 -0.7594  1.4179  2.9924
14568SOL     OW47234   6.723   3.874   4.356  0.1304 -0.0530  0.1852
14568SOL    HW147235   6.663   3.946   4.340  0.9183  0.4385 -0.6981
14568SOL    HW247236   6.800   3.916   4.397  0.5685 -0.3895 -0.2837
14569SOL     OW47237   3.440   4.022   0.354  0.3145  0.4285  0.2104
14569SOL    HW147238   3.433   3.928   0.365 -1.4964  0.6466  1.1669
14569SOL    HW247239   3.532   4.041   0.373  1.0060 -1.2610 -1.2011
14570SOL     OW47240   2.799   2.270   4.929  0.8748  0.2807  0.0649
14570SOL    HW147241   2.775   2.323   5.006  0.3001 -1.7564  1.3711
14570SOL    HW247242   2.745   2.305   4.858  0.2248  1.1801  0.9698
14571SOL     OW47243   1.098   8.115   5.331  0.6799  0.2013 -0.7507
14571SOL    HW147244   1.013   8.089   5.297  0.4335 -0.4350  0.3047
14571SOL    HW247245   1.147   8.146   5.255 -1.0851  2.2284 -1.1529
14572SOL     OW47246   0.148   9.435   8.036  0.0554 -0.3128  0.4708
14572SOL    HW147247   0.205   9.394   8.101  0.2579  1.4952  1.5244
14572SOL    HW247248   0.206   9.457   7.963  0.0993 -1.1240  0.2509
14573SOL     OW47249   3.781   9.611   1.770  0.4246 -0.2677 -1.0247
14573SOL    HW147250   3.763   9.532   1.718 -1.9495  0.7663 -1.9308
14573SOL    HW247251   3.695   9.640   1.799  1.3305  1.5766 -0.0523
14574SOL     OW47252   1.716   9.695  10.988 -0.1083  0.0800  0.4850
14574SOL    HW147253   1.726   9.605  10.959  0.0038 -0.0109  0.7978
14574SOL    HW247254   1.805   9.726  11.003 -0.1600  0.1485  0.6563
14575SOL     OW47255   2.033   9.557   4.558 -0.1760  0.0875 -0.1354
14575SOL    HW147256   1.985   9.513   4.488 -0.8212 -0.5941  0.7117
14575SOL    HW247257   2.054   9.487   4.620  1.5711  0.4396 -0.2767
14576SOL     OW47258   8.359  11.115   4.320  0.6928  0.0048 -0.0322
14576SOL    HW147259   8.432  11.173   4.303 -0.3367  1.1181 -0.8634
14576SOL    HW247260   8.399  11.030   4.341  2.2224  0.9495  1.0803
14577SOL     OW47261   5.344   3.387   9.879  0.1988  0.1608 -0.6610
14577SOL    HW147262   5.307   3.412   9.794 -1.1685 -2.4322 -0.9064
14577SOL    HW247263   5.415   3.328   9.858  0.0099 -0.3073 -0.0056
14578SOL     OW47264   3.627   9.689   5.030  0.3388 -0.4597  0.2267
14578SOL    HW147265   3.605   9.597   5.045  2.1370 -1.1318 -0.8330
14578SOL    HW247266   3.679   9.714   5.106 -0.3096 -0.2380  0.6067
14579SOL     OW47267   0.878   1.061   9.552  0.1938 -0.1802 -0.1794
14579SOL    HW147268   0.898   1.025   9.638 -0.3468 -0.8257 -0.3132
14579SOL    HW247269   0.783   1.049   9.543 -0.1679  1.9996  0.0983
14580SOL     OW47270   1.797   5.995  10.668  0.0875  0.2141 -0.0479
14580SOL    HW147271   1.723   5.935  10.682 -2.8217  4.0757  3.6646
14580SOL    HW247272   1.768   6.052  10.597 -0.4451  1.4573  1.1185
14581SOL     OW47273   9.031  10.137   9.994  0.5252  0.4082 -0.5235
14581SOL    HW147274   9.042  10.141   9.899  1.2935  0.3357 -0.4482
14581SOL    HW247275   9.120  10.122  10.027  0.7853  3.2700  0.3723
14582SOL     OW47276   5.581   6.249  10.154  0.4468  0.5503  0.0861
14582SOL    HW147277   5.624   6.168  10.128  3.0433  1.4191  1.3410
14582SOL    HW247278   5.622   6.316  10.099  0.4779  1.3639  1.0637
14583SOL     OW47279   2.881   0.062   9.247 -0.0170  0.2115 -0.6415
14583SOL    HW147280   2.949   0.003   9.214 -1.1221 -0.5098 -1.7348
14583SOL    HW247281   2.800   0.012   9.238 -0.5650  0.4209  2.1198
14584SOL     OW47282   6.251   8.671   4.988  0.5614 -0.3698 -0.0447
14584SOL    HW147283   6.210   8.605   4.933  1.2822  0.1522 -1.2427
14584SOL    HW247284   6.280   8.623   5.066 -0.0966 -1.2007 -0.3025
14585SOL     OW47285   0.041   7.067   8.711  0.6196  0.6486  0.1746
14585SOL    HW147286  -0.027   7.011   8.673 -0.6196  1.7430  0.7041
14585SOL    HW247287   0.116   7.056   8.653 -0.9127  1.5913 -2.1142
14586SOL     OW47288   6.251   0.091  10.104  0.1374  0.0703  0.1856
14586SOL    HW147289   6.272   0.131  10.188  1.3394 -0.2825  0.0722
14586SOL    HW247290   6.240  -0.002  10.124  0.9241 -0.0968 -0.1096
14587SOL     OW47291  10.132   7.607   6.282 -0.8976 -0.4007  0.3998
14587SOL    HW147292  10.107   7.519   6.256 -2.1167  0.0866 -0.1664
14587SOL    HW247293  10.225   7.601   6.305 -0.7943 -1.6668 -0.3118
14588SOL     OW47294   6.771  10.867  10.563  0.1768  0.1737 -0.0546
14588SOL    HW147295   6.766  10.947  10.616 -1.2872 -0.7912  1.3539
14588SOL    HW247296   6.680  10.849  10.539  0.5616 -0.7564 -0.8778
14589SOL     OW47297   3.981   2.064  10.844 -0.1864 -0.2268  0.1106
14589SOL    HW147298   3.906   2.110  10.807  1.7674  2.0048 -1.3032
14589SOL    HW247299   3.976   2.081  10.939 -1.1230  0.4061 -0.0433
14590SOL     OW47300   4.007   5.760   2.569  0.0356  0.7977 -0.2558
14590SOL    HW147301   3.962   5.845   2.566 -0.3727  0.6133  0.4309
14590SOL    HW247302   3.958   5.704   2.509 -1.2766  0.3216  1.1772
14591SOL     OW47303   4.661   9.499   2.501 -0.0058  0.4060 -0.1451
14591SOL    HW147304   4.634   9.533   2.416 -1.5693  3.4173  1.3921
14591SOL    HW247305   4.701   9.574   2.545  0.7123 -1.0444  1.8352
14592SOL     OW47306   2.982   4.275   7.153  0.5659 -0.0490  0.5345
14592SOL    HW147307   3.036   4.239   7.223  1.7019 -0.3141 -0.4482
14592SOL    HW247308   2.895   4.240   7.169  0.8962 -0.4236  1.5748
14593SOL     OW47309   8.619   9.676   3.426 -0.0752  0.3537 -0.1844
14593SOL    HW147310   8.656   9.738   3.364  0.7213 -1.2953 -1.4416
14593SOL    HW247311   8.603   9.597   3.374 -0.4765 -0.7064  1.4748
14594SOL     OW47312   3.508   5.387  10.167  0.4148  0.1483  0.3892
14594SOL    HW147313   3.554   5.435  10.099 -1.5994  1.2802 -0.2416
14594SOL    HW247314   3.576   5.333  10.208  1.6203 -0.9164 -2.7523
14595SOL     OW47315   2.637   3.323   5.159 -0.0386  0.2351  0.0583
14595SOL    HW147316   2.589   3.276   5.228 -0.3220  0.5695  0.0935
14595SOL    HW247317   2.651   3.258   5.091 -1.2299  0.3240 -0.2861
14596SOL     OW47318   1.741  10.504   0.832 -0.1799 -0.3569  0.1647
14596SOL    HW147319   1.782  10.497   0.746  0.7303 -2.2407  0.6934
14596SOL    HW247320   1.661  10.451   0.825 -0.8133  0.5957  0.0949
14597SOL     OW47321   8.353   4.061   3.009 -0.5370  0.1387  0.0067
14597SOL    HW147322   8.384   3.992   2.950 -0.0814  0.3768 -0.0354
14597SOL    HW247323   8.412   4.056   3.084  1.1628  2.1466 -1.0976
14598SOL     OW47324   3.590   6.190   0.978  0.2124  0.1344  0.2693
14598SOL    HW147325   3.632   6.105   0.968  0.5391  0.4333 -1.1853
14598SOL    HW247326   3.626   6.226   1.058 -0.6788 -1.4935  1.4597
14599SOL     OW47327   1.643   1.379   4.296 -0.2373  0.0595 -0.1064
14599SOL    HW147328   1.634   1.433   4.218  0.0516  1.3832  0.7447
14599SOL    HW247329   1.655   1.290   4.263 -1.3418  0.4129 -1.5276
14600SOL     OW47330   9.711   7.702   9.443  0.2495 -0.0006  0.0662
14600SOL    HW147331   9.775   7.746   9.498 -1.4340 -0.3852  2.5074
14600SOL    HW247332   9.634   7.760   9.445 -0.6171 -1.1077 -0.0230
14601SOL     OW47333   8.341   2.073   0.955 -0.2079 -0.2991  0.3916
14601SOL    HW147334   8.416   2.131   0.948 -0.4305 -0.1332 -0.8831
14601SOL    HW247335   8.283   2.116   1.018  1.3460 -1.1384  2.5061
14602SOL     OW47336   9.471   9.770   3.064  0.2946  0.4761  0.3209
14602SOL    HW147337   9.447   9.826   3.139 -2.6130 -0.2783  0.0680
14602SOL    HW247338   9.485   9.683   3.102  0.8372  0.5093  0.2106
14603SOL     OW47339   0.063   6.810   3.678  0.4786 -0.4925  0.1530
14603SOL    HW147340   0.039   6.795   3.770 -0.8397 -1.3761 -0.2983
14603SOL    HW247341   0.093   6.901   3.676  2.4939 -1.0355  1.8071
14604SOL     OW47342   3.877   4.562   1.855  0.0742  0.1503 -0.0547
14604SOL    HW147343   3.961   4.521   1.878  0.0559 -0.0585 -0.3534
14604SOL    HW247344   3.881   4.649   1.895  0.0312 -0.2091  0.7569
14605SOL     OW47345   0.998   8.757  10.929  0.1617  0.0674  0.0472
14605SOL    HW147346   0.989   8.664  10.950  1.2332  0.2134  1.3311
14605SOL    HW247347   0.911   8.794  10.941  0.1486 -0.4109  1.6046
14606SOL     OW47348   7.795   1.719   8.894  0.0326  0.0272 -0.9410
14606SOL    HW147349   7.871   1.735   8.838  0.6638 -1.6265 -0.6240
14606SOL    HW247350   7.829   1.664   8.965 -1.2278  0.2288 -0.1573
14607SOL     OW47351  10.563   1.352   6.092 -0.1101  0.4935  0.3114
14607SOL    HW147352  10.574   1.282   6.157 -0.5851 -0.2556 -0.3886
14607SOL    HW247353  10.469   1.371   6.093  0.0068  1.0953  0.4539
14608SOL     OW47354   8.160   4.444   5.447 -0.0404 -0.3744 -0.1261
14608SOL    HW147355   8.096   4.373   5.443  1.9160 -2.2005 -0.3239
14608SOL    HW247356   8.190   4.455   5.357  0.5741 -0.1715  0.0985
14609SOL     OW47357   4.294   1.098   8.593  0.4612 -0.5353 -0.0131
14609SOL    HW147358   4.348   1.167   8.631  0.3131 -0.7442  0.5830
14609SOL    HW247359   4.333   1.082   8.507 -0.1735  1.0784 -0.6463
14610SOL     OW47360   1.838   4.103   4.547  0.4185  0.5740 -0.5512
14610SOL    HW147361   1.923   4.079   4.511 -0.4095 -2.9754 -0.4991
14610SOL    HW247362   1.845   4.084   4.641 -0.4875 -0.0561 -0.5907
14611SOL     OW47363   2.030   8.349   8.756  0.1141 -0.9153  0.3753
14611SOL    HW147364   2.045   8.382   8.844 -0.7894 -0.1646  0.2517
14611SOL    HW247365   1.962   8.405   8.720 -0.6428 -2.1959 -0.2425
14612SOL     OW47366  11.033   3.265   7.453 -0.1005 -0.1158  0.4511
14612SOL    HW147367  11.049   3.358   7.468  1.3405 -0.3110  0.2985
14612SOL    HW247368  11.045   3.224   7.539 -0.2199 -0.2303  0.4149
14613SOL     OW47369   7.534   8.979  10.247 -0.4098 -0.0645 -0.7038
14613SOL    HW147370   7.456   8.966  10.193  0.2572 -0.1686 -1.6700
14613SOL    HW247371   7.579   8.894  10.245 -1.3754 -0.7085  1.7045
14614SOL     OW47372   3.529   5.893   4.622  0.1886  0.2267  0.7029
14614SOL    HW147373   3.594   5.963   4.621 -1.8949  2.3071  2.1829
14614SOL    HW247374   3.536   5.853   4.535  1.5167  2.1883 -0.1485
14615SOL     OW47375   7.442   8.565   2.781 -0.0605  0.1448  0.2381
14615SOL    HW147376   7.480   8.629   2.721 -0.1984  1.1327  1.1662
14615SOL    HW247377   7.508   8.554   2.850 -0.4057 -0.0333  0.5489
14616SOL     OW47378   3.525   6.488   5.172  0.2519 -0.1322 -0.3704
14616SOL    HW147379   3.536   6.521   5.261  1.6320 -0.3544 -0.4360
14616SOL    HW247380   3.485   6.561   5.124  1.1563  0.6364  0.0183
14617SOL     OW47381   1.804   1.222   8.972  0.4663  0.1224 -0.0877
14617SOL    HW147382   1.879   1.273   9.004  0.0132  0.5047  0.3773
14617SOL    HW247383   1.741   1.224   9.043  1.0652 -2.4955  0.6224
14618SOL     OW47384   5.492   6.512   5.435 -0.2834 -0.4752 -0.2887
14618SOL    HW147385   5.447   6.491   5.352  0.1792 -0.4868 -0.5372
14618SOL    HW247386   5.584   6.515   5.412 -0.1154 -0.8771  0.3157
14619SOL     OW47387   5.301   4.935   6.457 -0.0772  0.1889  0.2528
14619SOL    HW147388   5.320   4.959   6.547 -0.2624  0.8569  0.1178
14619SOL    HW247389   5.336   5.007   6.404 -1.3969  0.6049 -0.0994
14620SOL     OW47390   8.202   8.069  10.686 -0.9186  0.0277  0.0290
14620SOL    HW147391   8.141   8.070  10.612 -0.6338 -2.2547 -0.3159
14620SOL    HW247392   8.174   7.994  10.739  0.9471 -0.4608  0.4015
14621SOL     OW47393   7.179   5.955   2.609  0.2376 -0.2413  0.3619
14621SOL    HW147394   7.106   5.895   2.595 -0.6097  0.4951  1.4182
14621SOL    HW247395   7.220   5.925   2.690  1.0196 -0.5453 -0.1327
14622SOL     OW47396  10.781   4.148  10.470  0.1793  0.0379 -0.3134
14622SOL    HW147397  10.763   4.211  10.400  1.0495 -1.8730 -2.3647
14622SOL    HW247398  10.807   4.203  10.545  2.2221  2.0979 -2.3636
14623SOL     OW47399   0.510   3.771   6.156  0.2990  0.3540 -0.8289
14623SOL    HW147400   0.497   3.811   6.070  0.2334  1.3844 -0.3555
14623SOL    HW247401   0.436   3.712   6.167 -0.8306  1.7459 -0.6392
14624SOL     OW47402   9.881   6.046   9.413  0.4865  0.1704 -0.3588
14624SOL    HW147403   9.808   6.108   9.412 -2.6792 -2.9265  3.1614
14624SOL    HW247404   9.951   6.091   9.460 -0.9685  1.6993  0.4181
14625SOL     OW47405   1.380   1.122   1.640 -0.0632 -0.5116 -0.6369
14625SOL    HW147406   1.290   1.112   1.609 -0.4498  0.3504  0.1590
14625SOL    HW247407   1.371   1.146   1.732  0.9422  0.7762 -0.8547
14626SOL     OW47408   4.218   3.555   1.263 -0.1272  0.1512 -0.7318
14626SOL    HW147409   4.194   3.494   1.332 -2.0492  1.7811  0.1507
14626SOL    HW247410   4.247   3.500   1.190 -0.1740 -1.6873  0.5901
14627SOL     OW47411   5.313   7.514   6.985  0.0637 -0.7330 -0.8507
14627SOL    HW147412   5.332   7.536   6.894  2.7283  1.2567  0.0634
14627SOL    HW247413   5.367   7.437   7.004  0.5536 -0.3352 -0.6087
14628SOL     OW47414   7.017  10.430   3.754  0.1293  0.5243 -0.1969
14628SOL    HW147415   7.051  10.470   3.674 -2.0845  1.3458 -0.8079
14628SOL    HW247416   6.984  10.503   3.806 -0.7941 -0.2088  0.2900
14629SOL     OW47417   6.999   0.892   3.997  0.0409  0.0773  0.5134
14629SOL    HW147418   7.052   0.814   4.017  0.5771 -0.1292 -1.5290
14629SOL    HW247419   6.930   0.891   4.064 -0.2298 -2.4030  0.3063
14630SOL     OW47420   9.992   3.971   5.211  0.7392  0.5996  0.3761
14630SOL    HW147421  10.064   4.024   5.178 -0.6695  1.8369 -0.8468
14630SOL    HW247422   9.984   3.899   5.148  0.9559  0.4108  0.5631
14631SOL     OW47423   2.563   8.534   2.111 -0.2293  0.3824  0.2685
14631SOL    HW147424   2.477   8.522   2.071 -0.1676 -1.8291  0.6734
14631SOL    HW247425   2.581   8.627   2.103 -1.9376  0.6195 -1.3056
14632SOL     OW47426  10.219   8.333   3.066  0.5071  0.2492  0.3969
14632SOL    HW147427  10.164   8.256   3.055  0.4384  0.2439  0.7681
14632SOL    HW247428  10.254   8.326   3.155  2.6531 -0.7356 -0.4675
14633SOL     OW47429   2.298   7.503   6.536 -0.2502  0.0312 -0.0436
14633SOL    HW147430   2.207   7.525   6.556  0.1268  1.1782  0.4794
14633SOL    HW247431   2.346   7.520   6.617  0.3376 -1.2025 -0.1129
14634SOL     OW47432   1.643   5.068  10.295 -0.3323 -0.3337  0.2539
14634SOL    HW147433   1.574   5.063  10.229  0.5847 -0.8493 -0.7087
14634SOL    HW247434   1.653   4.979  10.327  0.3464 -0.4120 -0.1374
14635SOL     OW47435   7.287   1.874  10.437  0.0803  0.5898 -0.6028
14635SOL    HW147436   7.192   1.877  10.449  0.2214  0.2676  0.7295
14635SOL    HW247437   7.299   1.838  10.349 -1.0294 -3.1952  0.6343
14636SOL     OW47438   7.666   9.568   5.566 -0.4546  0.3185  0.0175
14636SOL    HW147439   7.760   9.550   5.563 -0.5094  0.0098 -2.4342
14636SOL    HW247440   7.661   9.662   5.582  0.3667  0.5908 -1.1429
14637SOL     OW47441   3.328  10.895   0.599 -0.6746 -0.3860 -0.0183
14637SOL    HW147442   3.327  10.816   0.653  0.5975  0.0779  0.7304
14637SOL    HW247443   3.292  10.963   0.657  0.3018  0.0271  0.1229
14638SOL     OW47444   1.319   3.532   3.163  0.3140  0.0829 -0.0958
14638SOL    HW147445   1.261   3.539   3.087 -3.0522  0.5112  2.2463
14638SOL    HW247446   1.334   3.622   3.190  1.2687 -0.0722 -0.1019
14639SOL     OW47447   1.923   3.269   8.793  0.0264  0.0869 -0.5285
14639SOL    HW147448   1.861   3.296   8.860  0.7596  0.4456  0.0135
14639SOL    HW247449   2.006   3.259   8.839  0.3854 -0.3443 -1.2525
14640SOL     OW47450   0.915   4.692   7.565 -0.1688 -0.0482 -0.1875
14640SOL    HW147451   0.968   4.626   7.520  0.6606 -0.6463  1.5572
14640SOL    HW247452   0.824   4.667   7.546  0.1236 -1.8790  0.6167
14641SOL     OW47453   8.682  10.783   3.695 -0.0392 -0.1458 -0.8473
14641SOL    HW147454   8.621  10.718   3.661 -0.5304  0.0468 -0.3443
14641SOL    HW247455   8.767  10.739   3.694 -0.1104 -0.2953 -1.8997
14642SOL     OW47456  10.319   9.786   0.996 -0.3393 -1.0541  0.5086
14642SOL    HW147457  10.349   9.812   1.083  1.2990  0.7925 -0.5401
14642SOL    HW247458  10.371   9.709   0.975 -0.2944 -1.1357  0.9084
14643SOL     OW47459   8.091   0.712   4.499  0.3604  0.0189  0.6749
14643SOL    HW147460   8.092   0.768   4.577  0.5084  0.1730  0.5632
14643SOL    HW247461   8.149   0.639   4.520  0.8065  0.3252  0.5150
14644SOL     OW47462   0.107   0.262   9.519  0.2348  0.1803  0.0780
14644SOL    HW147463   0.099   0.300   9.431  0.1673  1.5796  0.6506
14644SOL    HW247464   0.033   0.298   9.568  1.1343  0.6930  1.1195
14645SOL     OW47465   6.740   6.329   4.441  0.5607 -0.8168  0.2077
14645SOL    HW147466   6.734   6.423   4.424  1.1897 -0.4964  1.5945
14645SOL    HW247467   6.671   6.290   4.387 -0.1735  0.5109  0.1456
14646SOL     OW47468   0.654   1.536   4.715  0.3168  0.7116  0.4944
14646SOL    HW147469   0.565   1.540   4.681  1.1679 -1.4458 -2.4861
14646SOL    HW247470   0.665   1.445   4.742  0.7442  1.6394  3.8041
14647SOL     OW47471   9.804   2.262   6.263 -0.4951  0.0427 -0.1382
14647SOL    HW147472   9.739   2.248   6.195  0.8831 -0.7904 -1.3500
14647SOL    HW247473   9.797   2.184   6.319 -1.9170  0.9229  0.9833
14648SOL     OW47474   7.263   5.614   3.510  0.3054 -0.0828 -0.4078
14648SOL    HW147475   7.331   5.643   3.571 -0.3388 -0.5281  0.5418
14648SOL    HW247476   7.230   5.532   3.547 -1.2857  0.5186 -0.4141
14649SOL     OW47477   7.042   1.123  10.508 -0.3595  0.4134 -0.1956
14649SOL    HW147478   7.042   1.131  10.413  0.4531  0.0592 -0.2320
14649SOL    HW247479   7.023   1.031  10.525 -0.3696  0.4476 -0.0174
14650SOL     OW47480   0.965   7.086   4.758  0.1172 -0.1300  0.3554
14650SOL    HW147481   0.909   7.157   4.789 -0.9359 -1.6327  2.0599
14650SOL    HW247482   0.959   7.090   4.662 -3.0942 -0.3469  0.4697
14651SOL     OW47483   5.155   1.098  10.267 -0.4405 -0.1774 -0.1403
14651SOL    HW147484   5.104   1.138  10.338 -0.2855 -2.9944  1.7022
14651SOL    HW247485   5.245   1.096  10.300 -0.7429 -3.8509  0.9189
14652SOL     OW47486   1.927   4.676   5.640 -0.0015  0.2959  0.7111
14652SOL    HW147487   1.934   4.651   5.548  1.1285 -0.3511  0.9641
14652SOL    HW247488   1.864   4.748   5.639 -0.0333  0.2854 -0.5635
14653SOL     OW47489   8.999   8.996   5.068  0.1749 -0.4604 -0.6281
14653SOL    HW147490   8.975   8.987   5.161 -0.3449  0.6212 -0.6384
14653SOL    HW247491   8.941   9.065   5.036  0.1384 -1.0441 -1.8440
14654SOL     OW47492   1.413   5.595   3.631  0.2575 -0.5090  0.0468
14654SOL    HW147493   1.431   5.688   3.616 -1.6061 -0.1717 -0.4949
14654SOL    HW247494   1.496   5.551   3.616  1.3141  1.1279  0.8718
14655SOL     OW47495  10.699  10.361   0.746 -0.5101  0.0661 -0.3386
14655SOL    HW147496  10.678  10.417   0.821  1.2758 -2.4455  2.2690
14655SOL    HW247497  10.667  10.409   0.670 -0.7448  3.6660  1.8243
14656SOL     OW47498   9.289   3.734   9.996  0.2909 -0.1654  0.1644
14656SOL    HW147499   9.217   3.766  10.050 -1.0299 -0.3666 -1.4205
14656SOL    HW247500   9.262   3.750   9.906  1.6330 -1.4877 -0.5309
14657SOL     OW47501   9.670   9.575   8.821 -0.3953 -0.4326 -1.0427
14657SOL    HW147502   9.646   9.645   8.882  0.5706  0.0451 -1.2007
14657SOL    HW247503   9.728   9.518   8.870 -0.6488 -0.7576 -1.1195
14658SOL     OW47504   2.622   3.963   4.175  0.3276  0.5708  0.4272
14658SOL    HW147505   2.644   3.951   4.267  2.0323 -0.7683 -0.0945
14658SOL    HW247506   2.539   3.919   4.164  0.7206 -0.3644  1.0882
14659SOL     OW47507  10.287   7.856   5.213 -0.0216  0.2171  0.6241
14659SOL    HW147508  10.365   7.820   5.169 -0.1337 -0.6606  1.1267
14659SOL    HW247509  10.228   7.781   5.222 -0.8541  0.8329  0.4312
14660SOL     OW47510   4.913   5.321   5.673  0.0402 -0.1267  0.4123
14660SOL    HW147511   4.866   5.375   5.737 -2.6331 -2.5582  0.7170
14660SOL    HW247512   4.878   5.348   5.588  2.9848  2.5109 -0.1630
14661SOL     OW47513   0.261   7.976   0.649 -0.3321 -0.1849 -0.4451
14661SOL    HW147514   0.209   7.960   0.727  0.8979  0.0373  0.4428
14661SOL    HW247515   0.260   8.071   0.638 -0.7895 -0.2357 -0.9235
14662SOL     OW47516   5.113   2.757   4.651 -0.2167 -0.7008 -0.7300
14662SOL    HW147517   5.118   2.843   4.609 -0.1785  0.0207  0.6793
14662SOL    HW247518   5.160   2.699   4.592  1.0656  0.5557 -1.0198
14663SOL     OW47519   3.704  10.821   1.513  0.7294  0.0904  0.5859
14663SOL    HW147520   3.655  10.754   1.466  1.8943 -0.4020  0.0336
14663SOL    HW247521   3.692  10.800   1.605  1.5695 -1.2557  0.4066
14664SOL     OW47522   2.235   4.964   6.114  0.2990 -0.7317  0.0175
14664SOL    HW147523   2.152   4.963   6.066  1.1454  0.9243 -1.6301
14664SOL    HW247524   2.210   4.959   6.206 -1.7374  0.7560 -0.3883
14665SOL     OW47525   1.932   6.152   0.361  0.4734  0.1730  0.1130
14665SOL    HW147526   1.909   6.226   0.304 -0.7870 -0.5747 -0.3897
14665SOL    HW247527   1.883   6.170   0.442 -0.0570 -0.2350 -0.1106
14666SOL     OW47528   9.607   2.671   6.061  0.3460 -0.0137  0.0925
14666SOL    HW147529   9.630   2.618   5.986 -0.7789  0.0645 -0.3343
14666SOL    HW247530   9.673   2.651   6.127  2.0647  0.8310 -1.3108
14667SOL     OW47531   3.830  10.323   6.613 -0.4869  0.2112 -0.0148
14667SOL    HW147532   3.782  10.293   6.691 -0.3591  0.8603  0.3232
14667SOL    HW247533   3.838  10.245   6.559 -0.5587 -0.2618  0.6374
14668SOL     OW47534  10.736   5.686   9.246  0.4079  0.1246  0.1123
14668SOL    HW147535  10.713   5.594   9.237 -0.9496  0.5831 -1.6024
14668SOL    HW247536  10.716   5.724   9.161  1.8101  1.8371  0.5025
14669SOL     OW47537   6.069   0.468   4.517 -0.3616  0.5220  0.6743
14669SOL    HW147538   6.100   0.549   4.477  0.5730 -0.2553 -0.2165
14669SOL    HW247539   6.052   0.409   4.443 -0.4744 -0.2889  1.3283
14670SOL     OW47540   8.183   9.766   3.235  0.0110  0.1212  0.1956
14670SOL    HW147541   8.247   9.821   3.190  0.5963 -0.2361  0.5668
14670SOL    HW247542   8.200   9.781   3.328  0.1576 -0.6436  0.3021
14671SOL     OW47543  10.304   7.595   7.763  0.0910 -0.1021 -0.6630
14671SOL    HW147544  10.395   7.567   7.751  0.0848 -0.1588 -0.5721
14671SOL    HW247545  10.285   7.578   7.855 -0.0646 -0.2436 -0.7211
14672SOL     OW47546   3.769   8.458   3.330 -0.1790  0.3899 -0.0682
14672SOL    HW147547   3.712   8.426   3.260  2.1374  0.3721 -2.0984
14672SOL    HW247548   3.775   8.386   3.392 -0.1996 -0.6514 -1.2356
14673SOL     OW47549   6.052   1.909   1.084  0.8627  0.1009 -0.4058
14673SOL    HW147550   6.050   2.004   1.077 -0.0755  0.1921  0.8377
14673SOL    HW247551   6.123   1.882   1.024  1.0050  1.5428 -0.9226
14674SOL     OW47552   4.033   5.467   7.202  0.4356  0.3689 -0.0595
14674SOL    HW147553   4.051   5.387   7.152  3.5372  1.9747 -1.7996
14674SOL    HW247554   3.953   5.447   7.251 -0.2064 -2.9602 -2.1448
14675SOL     OW47555   0.881   7.871   7.452 -0.0384 -0.7766  0.1537
14675SOL    HW147556   0.808   7.810   7.465  0.7320 -1.4424  1.5685
14675SOL    HW247557   0.843   7.958   7.462 -0.4449 -1.1446  2.1310
14676SOL     OW47558   3.425   0.404   1.948 -0.0064  0.2339 -0.1403
14676SOL    HW147559   3.477   0.375   1.873 -0.3217  1.0259 -0.6730
14676SOL    HW247560   3.489   0.412   2.019  0.4746  0.5016 -0.5994
14677SOL     OW47561   7.010   0.191   9.338  0.0252 -0.4918  0.5501
14677SOL    HW147562   7.082   0.233   9.291  0.5985 -1.5929  0.3962
14677SOL    HW247563   6.939   0.187   9.275  0.6542 -1.5844 -0.1283
14678SOL     OW47564   2.572   0.207   5.284 -0.0655 -0.3896  0.0746
14678SOL    HW147565   2.668   0.203   5.284 -0.0617 -0.3484 -0.2923
14678SOL    HW247566   2.545   0.127   5.328  0.1189 -1.0851 -1.0505
14679SOL     OW47567   0.109   8.607   4.456 -0.0992 -0.3367  0.4055
14679SOL    HW147568   0.183   8.559   4.419 -0.6756  0.2283 -1.5710
14679SOL    HW247569   0.128   8.610   4.550  1.8298 -1.1314  0.0987
14680SOL     OW47570   1.004   6.959   8.915  0.0809 -0.4074 -0.0439
14680SOL    HW147571   0.948   7.036   8.920 -0.2103 -0.6501  0.5716
14680SOL    HW247572   1.092   6.994   8.899 -0.0028  0.0770  0.5123
14681SOL     OW47573   7.241   0.091   1.899 -0.6805 -0.0900 -0.3002
14681SOL    HW147574   7.231   0.107   1.993  1.0737  0.2063 -0.1418
14681SOL    HW247575   7.273   0.002   1.893  0.5280  0.3503 -0.5289
14682SOL     OW47576   5.939   4.730   4.140 -0.1559 -0.0817  0.6095
14682SOL    HW147577   5.960   4.797   4.075 -1.1997  1.5510  1.8876
14682SOL    HW247578   5.921   4.778   4.220 -2.1615 -1.7921  1.2926
14683SOL     OW47579   2.802   7.120   6.571 -0.8514 -0.2052 -0.7369
14683SOL    HW147580   2.848   7.168   6.502 -2.2802 -0.9969 -2.3091
14683SOL    HW247581   2.840   7.154   6.653  1.5302  0.1320 -1.8898
14684SOL     OW47582   2.129   0.237   6.098 -0.2197  0.1341 -0.3151
14684SOL    HW147583   2.166   0.257   6.184 -1.3730  2.2071 -0.2192
14684SOL    HW247584   2.052   0.184   6.117 -1.0381  1.4081  0.0636
14685SOL     OW47585   0.530   8.610   7.119  0.6141 -0.4383  0.1402
14685SOL    HW147586   0.448   8.646   7.152  1.4557  0.8088  0.9602
14685SOL    HW247587   0.560   8.551   7.188  1.5015  0.8278  0.8686
14686SOL     OW47588  10.723   8.224   0.490  0.2341 -0.0653 -0.6454
14686SOL    HW147589  10.646   8.172   0.465  1.0479 -2.0252  0.6912
14686SOL    HW247590  10.796   8.180   0.447  0.9830 -0.2418  0.7741
14687SOL     OW47591   5.937   8.248   6.604  0.4594 -0.1713  0.0412
14687SOL    HW147592   5.865   8.188   6.583 -0.0838  0.8389 -1.0779
14687SOL    HW247593   5.953   8.296   6.523  1.4179  0.6633  0.6943
14688SOL     OW47594   7.742   9.330  11.022 -0.6896 -0.4378 -0.1210
14688SOL    HW147595   7.676   9.370  11.079  1.6325  4.3598 -0.3456
14688SOL    HW247596   7.824   9.341  11.069  0.5127 -2.6212 -1.5477
14689SOL     OW47597   5.426   5.919   9.440 -0.0649  0.1144  0.2519
14689SOL    HW147598   5.516   5.899   9.466  0.0637 -2.7209 -1.7953
14689SOL    HW247599   5.372   5.878   9.508  0.2784 -2.1683 -0.7349
14690SOL     OW47600   3.911   6.213   2.720 -0.5447 -0.2154  0.1875
14690SOL    HW147601   3.897   6.306   2.740 -0.5786 -0.4045  1.0586
14690SOL    HW247602   4.005   6.205   2.708 -0.5108 -0.1217  0.3849
14691SOL     OW47603   2.392   9.543   4.723  0.4355 -0.1791  0.0028
14691SOL    HW147604   2.365   9.632   4.701 -1.0734 -0.4010  0.8261
14691SOL    HW247605   2.453   9.519   4.653  0.1252  1.1472 -0.7698
14692SOL     OW47606   9.272   0.305   3.972  0.1366 -0.3181  0.8050
14692SOL    HW147607   9.300   0.389   4.009 -0.7564  0.0310  0.6981
14692SOL    HW247608   9.179   0.316   3.954 -0.0698 -1.4582  1.1218
14693SOL     OW47609   4.069   1.684  10.231 -0.3450  0.3611 -0.2972
14693SOL    HW147610   4.153   1.681  10.186  0.4456 -1.4580  1.1969
14693SOL    HW247611   4.005   1.661  10.163  0.6497 -0.9061 -0.8383
14694SOL     OW47612   3.824   8.296   2.544 -0.2043 -0.0079 -0.5292
14694SOL    HW147613   3.781   8.312   2.460  2.7249 -0.1929 -2.2035
14694SOL    HW247614   3.840   8.384   2.579 -0.6349  0.0973 -0.5892
14695SOL     OW47615  10.520   7.139   2.986  0.0758  0.0121  0.4433
14695SOL    HW147616  10.574   7.060   2.981  1.5789  1.0406 -0.5393
14695SOL    HW247617  10.436   7.109   3.023 -0.6049 -2.6818 -2.7850
14696SOL     OW47618   6.911   1.735   5.724 -0.2467 -0.1602  0.1015
14696SOL    HW147619   6.827   1.763   5.761  0.4239  0.6621  1.0310
14696SOL    HW247620   6.961   1.816   5.711  0.9309 -0.7425  0.8649
14697SOL     OW47621   6.665   9.293   0.101 -0.3803 -0.2451  0.5644
14697SOL    HW147622   6.617   9.215   0.129  1.8654 -1.5592  0.9899
14697SOL    HW247623   6.741   9.260   0.053  0.0748  1.7307 -0.2121
14698SOL     OW47624   7.200   7.507  10.800  0.5596  0.6720  0.3193
14698SOL    HW147625   7.235   7.424  10.833  2.6488  0.6957 -1.5645
14698SOL    HW247626   7.143   7.482  10.727  0.2888  0.8438  0.4712
14699SOL     OW47627   1.110   4.122  10.819  0.4358  0.1089 -0.4362
14699SOL    HW147628   1.050   4.158  10.884 -0.3820 -0.5319 -0.8015
14699SOL    HW247629   1.191   4.104  10.867  0.2327  0.6963  0.1416
14700SOL     OW47630   8.330   4.166  10.903  0.0642  0.2606 -0.0733
14700SOL    HW147631   8.295   4.119  10.979 -0.2158  1.2536  0.4321
14700SOL    HW247632   8.280   4.132  10.829  1.3422 -1.7966 -0.0700
14701SOL     OW47633   0.469   6.342   8.305 -0.2111  0.9175  0.3780
14701SOL    HW147634   0.437   6.356   8.394 -0.8608 -0.3862  0.3780
14701SOL    HW247635   0.467   6.247   8.294 -1.1966  1.1032 -1.4004
14702SOL     OW47636   7.578   9.090   8.109  0.1141  0.2947 -0.6639
14702SOL    HW147637   7.503   9.129   8.153  0.0442  0.7306 -1.1603
14702SOL    HW247638   7.614   9.029   8.173  0.7692  1.8108  0.4945
14703SOL     OW47639   2.559   0.506   5.338 -0.6492  0.2514 -0.5508
14703SOL    HW147640   2.564   0.417   5.371 -1.1321  0.2274 -0.5323
14703SOL    HW247641   2.471   0.536   5.362  0.5617  1.8990  2.4405
14704SOL     OW47642   8.657   0.050   4.288 -0.6868 -0.2719 -0.2043
14704SOL    HW147643   8.680   0.055   4.380  0.2348  0.2602 -0.4540
14704SOL    HW247644   8.641   0.141   4.261 -0.3656 -0.3576 -0.7087
14705SOL     OW47645   1.138   0.219   5.848 -0.1445  0.0576  0.2181
14705SOL    HW147646   1.194   0.221   5.925  0.0568  0.3249  0.0641
14705SOL    HW247647   1.141   0.127   5.819  1.6221  0.3837 -0.8072
14706SOL     OW47648  10.651   2.502   3.875 -0.4332  0.6440 -0.0896
14706SOL    HW147649  10.665   2.594   3.898 -1.0928  0.8461 -0.4846
14706SOL    HW247650  10.573   2.502   3.820 -0.2226 -0.1103 -0.4050
14707SOL     OW47651   5.732   7.777   2.719 -0.2077 -0.5487  0.0071
14707SOL    HW147652   5.759   7.812   2.634 -3.4280 -1.7183 -1.6614
14707SOL    HW247653   5.764   7.687   2.720  0.8383 -0.1945  0.6237
14708SOL     OW47654   1.620   2.054   2.970  0.2627 -0.3184  0.4221
14708SOL    HW147655   1.561   1.988   2.935 -0.5992  0.3540  0.5637
14708SOL    HW247656   1.636   2.113   2.896  0.0899 -0.0362  0.6098
14709SOL     OW47657   4.978   7.040   3.329 -0.0204 -0.2056  0.3869
14709SOL    HW147658   4.938   7.101   3.267  0.1596 -1.1757 -0.7405
14709SOL    HW247659   5.020   7.095   3.395 -1.5641  0.8504  0.5343
14710SOL     OW47660   1.653  10.343   8.801 -0.3290 -0.4961 -0.4107
14710SOL    HW147661   1.602  10.279   8.751 -0.8188 -0.0960 -0.4391
14710SOL    HW247662   1.741  10.338   8.764 -0.9449  0.6630 -2.2242
14711SOL     OW47663   9.117   6.439   6.520 -0.8846  0.1909 -0.3526
14711SOL    HW147664   9.097   6.522   6.478 -0.6360  0.0154 -0.8253
14711SOL    HW247665   9.057   6.434   6.594  0.9868  2.1435  1.4460
14712SOL     OW47666   6.812  10.894   3.632 -0.0494 -0.2979 -0.4817
14712SOL    HW147667   6.795  10.800   3.638 -0.3034 -0.2755 -0.8426
14712SOL    HW247668   6.772  10.920   3.549 -0.6403  0.2801 -0.0195
14713SOL     OW47669   6.004   9.712   8.587 -0.2033 -0.0877  0.2451
14713SOL    HW147670   6.044   9.768   8.522 -1.4271 -0.4500 -0.8673
14713SOL    HW247671   5.911   9.734   8.584 -0.8447 -2.5843 -0.7305
14714SOL     OW47672   6.964   2.031   4.007 -0.5880 -0.4906  0.1659
14714SOL    HW147673   6.906   2.040   3.932 -0.1720 -2.1212 -0.3899
14714SOL    HW247674   7.052   2.023   3.969  0.3647  3.5191  1.0231
14715SOL     OW47675   2.939   3.021   5.096 -0.5804  0.2137  0.3903
14715SOL    HW147676   3.003   2.971   5.148 -0.1638  1.3675  1.0383
14715SOL    HW247677   2.982   3.034   5.011 -2.0190 -3.3095 -1.0430
14716SOL     OW47678   7.108   9.130   4.287 -0.0244  0.2292  0.6783
14716SOL    HW147679   7.179   9.079   4.248  0.8304  2.1471 -0.4297
14716SOL    HW247680   7.145   9.163   4.369 -1.0527 -1.9740  2.0971
14717SOL     OW47681   1.141   3.497  10.787 -0.1033 -0.3506 -0.5909
14717SOL    HW147682   1.176   3.471  10.872 -0.9016 -0.5850 -0.3218
14717SOL    HW247683   1.140   3.417  10.736 -0.5439 -0.4140 -0.4869
14718SOL     OW47684   3.786   0.206   0.569  0.0328  0.6315  0.0518
14718SOL    HW147685   3.838   0.206   0.649 -1.8762 -0.5651  1.3847
14718SOL    HW247686   3.849   0.190   0.499  1.3873 -1.8744  1.6762
14719SOL     OW47687  11.003   3.036   0.729 -0.2829 -0.2315  0.5924
14719SOL    HW147688  11.058   3.009   0.655 -0.2795 -1.6715  1.0903
14719SOL    HW247689  11.022   3.129   0.740  0.2583 -0.1622 -0.7553
14720SOL     OW47690  11.019   6.467   5.729 -0.3459 -0.4995  0.6049
14720SOL    HW147691  10.959   6.392   5.738  0.0849 -0.9715 -0.2858
14720SOL    HW247692  11.017   6.509   5.814 -0.7323 -1.4347  1.0790
14721SOL     OW47693   6.916   9.786   9.559  0.1926  0.0223  0.6896
14721SOL    HW147694   6.900   9.702   9.517  0.9172  0.6099 -0.8521
14721SOL    HW247695   6.857   9.787   9.634 -0.9193 -1.2425 -0.1147
14722SOL     OW47696   3.030   6.951   7.880 -0.0624 -0.0129  0.4799
14722SOL    HW147697   2.968   6.901   7.827  0.5805 -0.0186 -0.2906
14722SOL    HW247698   3.076   7.007   7.817 -0.8444  1.6515  1.3292
14723SOL     OW47699   9.327  10.368   1.028  0.2349  0.1359 -0.0368
14723SOL    HW147700   9.321  10.463   1.027 -0.2323  0.1180  0.4207
14723SOL    HW247701   9.354  10.344   0.939 -1.2202  0.5885 -0.6172
14724SOL     OW47702  10.219   5.691   2.153  0.2988 -0.1921  0.3398
14724SOL    HW147703  10.131   5.713   2.121  0.0683  0.7156  1.5204
14724SOL    HW247704  10.277   5.708   2.079 -0.5311 -1.0466 -0.5410
14725SOL     OW47705  10.928   9.683  10.571  0.2269  0.4586 -0.5931
14725SOL    HW147706  10.879   9.710  10.649 -1.4617  0.5271 -1.6236
14725SOL    HW247707  10.869   9.622  10.527  1.6504 -0.5100 -1.2277
14726SOL     OW47708   0.095   6.024   7.709 -0.2925 -0.3829  0.4200
14726SOL    HW147709   0.068   5.936   7.683  1.1409 -0.5262 -0.7030
14726SOL    HW247710   0.031   6.082   7.669 -0.9926 -0.8709  0.8008
14727SOL     OW47711   1.458   6.755   9.491 -0.2486 -0.2237  0.2584
14727SOL    HW147712   1.533   6.734   9.436 -0.6017 -1.3614  0.1621
14727SOL    HW247713   1.474   6.844   9.522  1.4830 -0.6761  0.8071
14728SOL     OW47714   8.006  10.423   7.280  0.5206  0.3344  0.3438
14728SOL    HW147715   7.984  10.481   7.206 -0.9918  0.9681  1.2467
14728SOL    HW247716   7.999  10.335   7.244  1.5718  0.6593 -0.7200
14729SOL     OW47717   0.035   4.694  10.140 -0.3532 -0.0687 -0.0597
14729SOL    HW147718  -0.034   4.640  10.177 -1.0106  0.6610 -0.2053
14729SOL    HW247719   0.008   4.784  10.158  0.0220  0.2537 -1.0655
14730SOL     OW47720   8.875   1.760  10.135  0.1638  0.1371  0.1066
14730SOL    HW147721   8.863   1.666  10.123 -0.5128  0.2907 -0.5176
14730SOL    HW247722   8.930   1.786  10.060  1.1556  0.0888  0.8019
14731SOL     OW47723   3.715   1.696   4.973 -0.0441 -0.3425 -0.3105
14731SOL    HW147724   3.737   1.648   4.893 -0.5161  0.3132 -0.8436
14731SOL    HW247725   3.633   1.656   5.003 -0.4075  0.0947 -0.7228
14732SOL     OW47726   6.165   4.282   7.303  0.0936 -0.2164 -0.1978
14732SOL    HW147727   6.154   4.346   7.373  0.6971  0.2646 -0.5242
14732SOL    HW247728   6.173   4.198   7.348  1.4582  0.1927  0.4001
14733SOL     OW47729   9.758   9.572   6.188 -0.1685  0.3117  0.3553
14733SOL    HW147730   9.809   9.632   6.133 -0.4538 -0.6760 -1.0251
14733SOL    HW247731   9.822   9.510   6.222 -0.2132  0.0128 -0.1019
14734SOL     OW47732   4.213   9.000   1.282  0.2462  0.5288  0.1098
14734SOL    HW147733   4.230   8.908   1.304  1.2535  1.3790  3.4844
14734SOL    HW247734   4.299   9.042   1.283 -0.2008  1.5621 -1.3375
14735SOL     OW47735   2.480   5.139   6.935 -0.2257  0.0837 -0.2626
14735SOL    HW147736   2.402   5.088   6.913 -0.1968  0.1953 -0.6293
14735SOL    HW247737   2.529   5.082   6.995 -1.0205  0.3742  0.6930
14736SOL     OW47738   8.671   9.411   5.664 -0.2865  0.3124 -0.2757
14736SOL    HW147739   8.732   9.356   5.713  0.8145  1.3862 -0.3743
14736SOL    HW247740   8.606   9.350   5.629 -0.4941 -0.6183  1.5805
14737SOL     OW47741   3.204   5.883   6.439 -0.4128 -0.1939 -0.1828
14737SOL    HW147742   3.210   5.856   6.531 -1.3376 -0.4283 -0.1761
14737SOL    HW247743   3.236   5.973   6.438 -0.9224  0.0054  0.4794
14738SOL     OW47744   7.937   4.740   7.702  0.6962 -0.4516  0.1204
14738SOL    HW147745   8.014   4.794   7.685  0.9043 -0.7735  0.0153
14738SOL    HW247746   7.963   4.652   7.672 -0.2694 -0.2446 -1.4166
14739SOL     OW47747   4.722   2.649   8.259 -0.1738  0.2881 -0.2521
14739SOL    HW147748   4.721   2.554   8.274 -1.2100  0.3257 -0.0032
14739SOL    HW247749   4.742   2.658   8.166 -0.6699 -0.1993 -0.4106
14740SOL     OW47750   9.826   0.035   6.470  0.4926 -0.3540  0.0106
14740SOL    HW147751   9.820   0.117   6.519 -0.4165 -0.1884 -0.3642
14740SOL    HW247752   9.909  -0.004   6.499  0.0945 -0.1491  1.5192
14741SOL     OW47753  10.723   1.784  10.544 -0.1561  0.7002  0.0321
14741SOL    HW147754  10.695   1.863  10.591  0.0410 -0.4353  2.1683
14741SOL    HW247755  10.819   1.792  10.538 -0.2871  1.5543 -1.6182
14742SOL     OW47756   0.280   1.200   8.762  0.1142 -0.4727  0.6389
14742SOL    HW147757   0.294   1.235   8.674  1.5354 -1.3619  0.4897
14742SOL    HW247758   0.272   1.277   8.818  1.8393  0.1140  0.1230
14743SOL     OW47759   3.214   6.821   9.190  0.0389 -0.3191  0.1582
14743SOL    HW147760   3.239   6.913   9.176 -0.6923 -0.1174  0.1645
14743SOL    HW247761   3.123   6.824   9.218 -0.5867 -1.1480 -1.6076
14744SOL     OW47762   2.209   8.179   4.484 -0.0984  0.4853  0.5342
14744SOL    HW147763   2.139   8.206   4.544  1.0427  3.0371  0.8631
14744SOL    HW247764   2.170   8.183   4.397 -0.9177 -0.2099  0.8578
14745SOL     OW47765   8.753   6.686   8.951  0.8620 -0.4563  0.6816
14745SOL    HW147766   8.769   6.772   8.990  0.8394 -0.0090 -0.2622
14745SOL    HW247767   8.681   6.702   8.890  0.2058 -1.3604  1.1996
14746SOL     OW47768  10.101  10.607   5.130  0.8131  0.4607  0.3911
14746SOL    HW147769  10.039  10.643   5.194  1.1610  0.6692  0.6089
14746SOL    HW247770  10.086  10.659   5.051 -1.2378 -1.2531 -0.4655
14747SOL     OW47771   8.954   0.833   6.230  0.5105 -0.4583  0.2461
14747SOL    HW147772   8.999   0.912   6.259 -0.3933  0.7656 -1.4884
14747SOL    HW247773   8.875   0.830   6.283  0.1291  0.3209 -0.2489
14748SOL     OW47774  10.315   2.879   6.784  1.1895 -0.1594 -0.0625
14748SOL    HW147775  10.319   2.790   6.817  1.0576 -0.8317 -1.8005
14748SOL    HW247776  10.311   2.933   6.863  1.4712 -1.6612  1.0162
14749SOL     OW47777   6.737   0.114  10.399 -0.2874 -0.4180 -1.0391
14749SOL    HW147778   6.651   0.153  10.413 -0.2050 -0.0246 -1.5796
14749SOL    HW247779   6.726   0.061  10.320 -0.1997 -0.8712 -0.7449
14750SOL     OW47780   5.009   4.046   6.651  0.3921 -1.4915  0.0761
14750SOL    HW147781   4.978   4.093   6.728 -0.4323 -3.3080  0.9327
14750SOL    HW247782   5.082   3.993   6.683  0.9110 -1.2723 -0.7188
14751SOL     OW47783   1.310   6.458   2.796  0.1311 -0.2753  0.0485
14751SOL    HW147784   1.268   6.442   2.712  2.0223  1.6620 -1.3800
14751SOL    HW247785   1.329   6.552   2.796  1.8663 -0.5552  1.8101
14752SOL     OW47786   1.456   5.095  10.101 -0.4709  0.1169 -0.4912
14752SOL    HW147787   1.499   5.042  10.034 -0.1243  1.1782 -1.1177
14752SOL    HW247788   1.382   5.135  10.056  0.3074  1.5850 -0.5127
14753SOL     OW47789   4.624   0.727   1.457  0.5013  0.1991 -0.2976
14753SOL    HW147790   4.704   0.678   1.440  0.5078  0.5545 -1.4209
14753SOL    HW247791   4.646   0.818   1.435 -0.0266  0.4091 -0.0027
14754SOL     OW47792   4.942   9.592   7.454  0.1751  0.3077 -0.1409
14754SOL    HW147793   4.884   9.541   7.511  0.0104  0.3539 -0.2662
14754SOL    HW247794   4.948   9.541   7.373  1.8543 -0.6707  0.5578
14755SOL     OW47795   1.623   3.453   7.840  0.3262  0.3065 -0.0141
14755SOL    HW147796   1.637   3.507   7.918 -0.7359  1.4116 -0.5488
14755SOL    HW247797   1.545   3.490   7.799  1.5654  0.5998 -2.3003
14756SOL     OW47798   9.472   1.835  10.081  0.0662 -0.3542  0.2436
14756SOL    HW147799   9.416   1.897  10.127  0.4433 -0.1659  0.4596
14756SOL    HW247800   9.509   1.780  10.150  1.0631  0.2780  0.2410
14757SOL     OW47801   4.807   7.675   9.485 -0.4381  0.3093  0.4167
14757SOL    HW147802   4.885   7.621   9.475 -1.5406 -1.0971 -1.1008
14757SOL    HW247803   4.841   7.765   9.488  1.3358 -0.3484  1.7064
14758SOL     OW47804   5.720   7.901   5.554  0.1074  0.3063  0.0405
14758SOL    HW147805   5.800   7.851   5.568  0.8331  1.4029 -0.0610
14758SOL    HW247806   5.749   7.983   5.514 -1.0018  0.9661  0.5236
14759SOL     OW47807   9.580   9.687   4.446 -0.3406 -0.3615  0.3896
14759SOL    HW147808   9.545   9.714   4.361  0.9069 -0.7096 -0.2694
14759SOL    HW247809   9.628   9.764   4.477 -4.2137  1.3311  2.8581
14760SOL     OW47810   0.142   4.346   8.952 -0.0926 -0.1601 -0.0087
14760SOL    HW147811   0.200   4.271   8.953 -0.3276 -0.3398  0.2432
14760SOL    HW247812   0.057   4.312   8.979 -0.2241  0.1756  0.0154
14761SOL     OW47813   3.115   0.003  10.722 -0.0789 -0.1986 -0.1132
14761SOL    HW147814   3.193  -0.006  10.776 -0.5239  0.1085  0.5972
14761SOL    HW247815   3.084  -0.087  10.710 -0.2999 -0.2251  0.6324
14762SOL     OW47816   4.473   9.936  10.455  0.9938  0.0939 -0.3153
14762SOL    HW147817   4.387   9.896  10.461  1.3432 -0.4657  1.7451
14762SOL    HW247818   4.469   9.992  10.378 -0.6390 -1.2340 -1.2419
14763SOL     OW47819   3.520   2.177   5.200  0.4142 -0.3168 -0.1287
14763SOL    HW147820   3.585   2.246   5.209  0.6615 -0.4950 -0.5568
14763SOL    HW247821   3.571   2.099   5.178  0.3190 -1.0069  1.8907
14764SOL     OW47822   5.895   8.012   5.142  0.1743 -0.1881  0.2168
14764SOL    HW147823   5.961   7.974   5.200  0.8109  2.0083  1.0013
14764SOL    HW247824   5.944   8.042   5.066 -0.5033 -2.0087 -0.9952
14765SOL     OW47825   4.411   8.320   2.551 -0.1585  0.2192 -0.0935
14765SOL    HW147826   4.361   8.393   2.587 -0.4166  0.6521 -1.2884
14765SOL    HW247827   4.456   8.356   2.475 -0.2026 -0.8366 -0.6445
14766SOL     OW47828   9.138   0.470   0.261 -0.2519  0.0695 -0.2915
14766SOL    HW147829   9.190   0.492   0.338 -2.0295  0.1432  0.9206
14766SOL    HW247830   9.063   0.529   0.263 -0.9393 -0.7039 -1.4342
14767SOL     OW47831   6.947   4.394   9.254  0.7213 -0.4744 -0.2282
14767SOL    HW147832   7.024   4.432   9.295  0.0143 -0.6419  1.3063
14767SOL    HW247833   6.981   4.323   9.200  1.5870 -1.1379  1.1452
14768SOL     OW47834   6.366   6.724   4.748  0.2786 -0.3720 -0.2221
14768SOL    HW147835   6.428   6.654   4.729 -1.0564 -2.2203  1.7487
14768SOL    HW247836   6.280   6.688   4.725 -0.3105  1.2474 -0.7141
14769SOL     OW47837   0.230   3.818   5.149  0.6263 -0.2779  0.4079
14769SOL    HW147838   0.308   3.769   5.125  1.5202  1.6222 -0.7887
14769SOL    HW247839   0.263   3.899   5.188 -0.7283  0.5068  0.0017
14770SOL     OW47840  10.495   5.002   9.402  0.0966 -0.4851 -0.2096
14770SOL    HW147841  10.408   5.011   9.365  0.7231 -0.0970 -1.6819
14770SOL    HW247842  10.495   5.058   9.479 -0.5678  0.5859 -0.9542
14771SOL     OW47843   3.224   1.763   3.186 -0.0414  0.1610  0.4722
14771SOL    HW147844   3.261   1.696   3.128 -0.6187  0.2091  0.0491
14771SOL    HW247845   3.161   1.810   3.132 -0.3931  0.3788  1.0664
14772SOL     OW47846   7.387   9.892   2.285 -0.4287  0.3522  0.3285
14772SOL    HW147847   7.473   9.854   2.304 -0.2314  0.5300 -0.1920
14772SOL    HW247848   7.392   9.980   2.321 -0.5778  0.1842  0.7606
14773SOL     OW47849   4.421   5.617   1.584  0.2004  0.3335  0.0233
14773SOL    HW147850   4.461   5.702   1.568  1.1068 -0.2795 -1.2270
14773SOL    HW247851   4.397   5.586   1.496 -2.0796  0.2129  0.6455
14774SOL     OW47852   6.795   0.585  10.838 -0.2230  0.2572  0.0199
14774SOL    HW147853   6.705   0.611  10.817 -0.4419 -0.5618 -0.0682
14774SOL    HW247854   6.828   0.547  10.757  0.0062  0.0241  0.2221
14775SOL     OW47855   6.518   6.090   2.555 -0.4931 -0.2920  0.0583
14775SOL    HW147856   6.541   6.000   2.578  2.8961  0.1781 -0.9065
14775SOL    HW247857   6.482   6.127   2.636 -1.1668 -2.2497  0.6964
14776SOL     OW47858   9.242   3.841   3.910  0.3862  0.3432 -0.5281
14776SOL    HW147859   9.194   3.840   3.827  0.4033  0.0291 -0.5349
14776SOL    HW247860   9.325   3.797   3.891 -0.2275 -1.1268  0.0137
14777SOL     OW47861   3.843   6.429   2.874  0.0548  0.1205 -0.0140
14777SOL    HW147862   3.846   6.525   2.884  1.4838  0.2600 -1.3684
14777SOL    HW247863   3.906   6.397   2.938  1.8830  0.3562 -1.5751
14778SOL     OW47864   5.777   1.491   2.365 -0.1326  0.3824  1.0023
14778SOL    HW147865   5.784   1.584   2.344  0.3002  0.0605 -0.3917
14778SOL    HW247866   5.691   1.465   2.333  0.4358 -0.0619 -0.2288
14779SOL     OW47867   8.958   1.834  10.470 -0.3454 -0.3604 -0.0589
14779SOL    HW147868   8.954   1.783  10.390  0.7367  0.5507 -0.7293
14779SOL    HW247869   9.019   1.787  10.526  1.7377  0.8346 -1.2088
14780SOL     OW47870   3.252   8.855   3.061  0.1084  0.9963 -0.1271
14780SOL    HW147871   3.204   8.842   3.143  1.0991  1.4566  0.5641
14780SOL    HW247872   3.247   8.772   3.016  0.5706  0.3307  0.9927
14781SOL     OW47873   4.581   6.800   5.426 -0.3016 -0.2687 -0.7147
14781SOL    HW147874   4.557   6.708   5.414  0.0152 -0.3923 -0.4272
14781SOL    HW247875   4.504   6.839   5.469 -0.4181 -0.4100 -0.7935
14782SOL     OW47876   4.815   2.913   9.787  0.0469 -0.8971 -0.2979
14782SOL    HW147877   4.893   2.943   9.833 -0.2937 -0.7692  0.1952
14782SOL    HW247878   4.779   2.845   9.843  0.6881 -2.0960 -1.2966
14783SOL     OW47879   3.440   2.039   3.945  0.2531 -0.2076  0.1363
14783SOL    HW147880   3.389   2.056   3.866  1.5313 -1.5521 -1.0479
14783SOL    HW247881   3.468   1.948   3.936  0.7071 -0.2893  1.9967
14784SOL     OW47882   6.709   8.983   5.844  0.1771  0.0105  0.4164
14784SOL    HW147883   6.670   8.896   5.856  0.5936 -0.1212  0.8747
14784SOL    HW247884   6.683   9.031   5.923  0.4568  0.1013  0.4553
14785SOL     OW47885   2.227   1.405   7.320 -0.3693  0.0459  0.3066
14785SOL    HW147886   2.269   1.323   7.295 -0.6749  0.3394 -1.3129
14785SOL    HW247887   2.155   1.379   7.377 -0.9449 -0.9083 -0.8135
14786SOL     OW47888   3.830  10.141   0.027 -0.3107  0.3176  0.4533
14786SOL    HW147889   3.775  10.220   0.029  1.5307  1.6769 -0.0234
14786SOL    HW247890   3.845  10.124  -0.066 -0.1701 -0.2220  0.5710
14787SOL     OW47891   6.648   1.464  10.265 -0.1509 -0.4582  0.3705
14787SOL    HW147892   6.727   1.450  10.318  0.5868 -0.2696 -0.6488
14787SOL    HW247893   6.655   1.401  10.194 -0.1408  0.5763 -0.5798
14788SOL     OW47894   3.646   0.166   9.249 -0.2089  0.2114  0.8766
14788SOL    HW147895   3.716   0.125   9.300  0.2462 -1.3412 -0.8847
14788SOL    HW247896   3.688   0.239   9.205  0.0801 -0.1146  0.6005
14789SOL     OW47897   1.182   0.176   9.193  0.5016  0.4093  0.2274
14789SOL    HW147898   1.221   0.185   9.280 -0.5501  2.7649  0.5233
14789SOL    HW247899   1.099   0.223   9.199 -0.6322 -1.2129 -1.4657
14790SOL     OW47900   7.177   3.065   9.653 -0.2043 -0.5447  0.2500
14790SOL    HW147901   7.234   3.014   9.596  0.2852  0.3434 -0.0820
14790SOL    HW247902   7.220   3.063   9.738 -0.4589 -1.1074  0.3709
14791SOL     OW47903   0.765  11.070   4.216 -0.2430  0.2124 -0.1367
14791SOL    HW147904   0.695  11.103   4.160 -0.4390 -0.8928 -0.5615
14791SOL    HW247905   0.729  11.076   4.305 -1.0351 -0.7063 -0.3821
14792SOL     OW47906   9.542   5.329   9.703  0.1819  0.3564  0.5558
14792SOL    HW147907   9.451   5.346   9.680  0.6105 -0.6170 -2.2647
14792SOL    HW247908   9.586   5.316   9.619  2.6628 -0.5139  1.8883
14793SOL     OW47909   2.582   9.236  10.781 -0.3948 -0.2432 -0.1436
14793SOL    HW147910   2.657   9.192  10.740  1.5186  3.3046 -0.8487
14793SOL    HW247911   2.572   9.317  10.732 -2.0694  1.2974  2.5119
14794SOL     OW47912   4.256   9.524   1.456 -0.1497 -0.0559 -0.3613
14794SOL    HW147913   4.225   9.601   1.409 -0.8650 -0.2621 -0.2294
14794SOL    HW247914   4.183   9.498   1.512 -0.2543 -1.3995 -1.0845
14795SOL     OW47915   1.291  10.733   4.436  0.2391 -0.4497 -0.3283
14795SOL    HW147916   1.376  10.777   4.439 -0.6325  1.4450 -1.4044
14795SOL    HW247917   1.262  10.744   4.345 -1.8424  0.3886  0.3783
14796SOL     OW47918  10.763   4.363   4.775  0.2268 -0.1682 -0.0693
14796SOL    HW147919  10.705   4.438   4.788  1.2085  0.8209 -1.1224
14796SOL    HW247920  10.707   4.287   4.784 -0.9851  0.7228  0.1270
14797SOL     OW47921  10.852   7.324   1.801 -0.1768  0.5584 -0.3366
14797SOL    HW147922  10.791   7.284   1.863  1.9329 -0.8543  0.9582
14797SOL    HW247923  10.913   7.374   1.855  0.6020  0.8666 -1.4548
14798SOL     OW47924   4.451   3.815   4.643 -0.3949  0.0349 -0.2432
14798SOL    HW147925   4.375   3.758   4.658  0.5697 -1.1606  0.2194
14798SOL    HW247926   4.441   3.845   4.553 -1.1397 -0.5266 -0.3546
14799SOL     OW47927  10.513   0.225   9.232  0.5709  0.6953 -0.1525
14799SOL    HW147928  10.494   0.236   9.325 -1.2237  0.2191 -0.4198
14799SOL    HW247929  10.550   0.137   9.226  0.7670  0.7588  0.1207
14800SOL     OW47930  10.239   2.600   1.298 -0.6108  0.0202  0.6635
14800SOL    HW147931  10.268   2.537   1.364  0.0518 -0.0412  0.3251
14800SOL    HW247932  10.197   2.546   1.231  2.8288 -0.5609 -1.2682
14801SOL     OW47933   0.585  10.185  10.332  0.2945 -0.1593 -0.0814
14801SOL    HW147934   0.502  10.232  10.342  1.1448  1.5109 -0.4587
14801SOL    HW247935   0.570  10.124  10.259 -0.6190  0.0688 -0.0965
14802SOL     OW47936   4.968   7.677   6.775  0.1342 -0.1330  0.4342
14802SOL    HW147937   4.938   7.698   6.687 -1.8574 -1.6293  0.6864
14802SOL    HW247938   5.029   7.603   6.763 -0.1621 -0.3567  0.3108
14803SOL     OW47939   3.067   0.324   5.938 -0.1558 -0.2025  0.0849
14803SOL    HW147940   3.011   0.258   5.979  0.0721 -1.7780 -1.9759
14803SOL    HW247941   3.035   0.331   5.848  0.5357  1.7370 -0.0644
14804SOL     OW47942   6.771   4.809   8.706 -0.7210  0.1115  0.1730
14804SOL    HW147943   6.684   4.842   8.682 -0.3392  1.2971  0.4038
14804SOL    HW247944   6.824   4.887   8.719  0.5439 -0.6063 -0.5019
14805SOL     OW47945  10.266  10.135   4.843 -0.1966  0.3497  0.2995
14805SOL    HW147946  10.350  10.138   4.889 -1.0336 -2.6393  2.3609
14805SOL    HW247947  10.274  10.060   4.784 -0.8918  1.0552 -0.7207
14806SOL     OW47948   9.447   0.600   0.693  0.5137 -0.2065 -0.2825
14806SOL    HW147949   9.456   0.602   0.789  0.9130  2.0152 -0.3075
14806SOL    HW247950   9.421   0.689   0.670  2.3841 -0.1292 -2.4289
14807SOL     OW47951   1.764   5.737   4.064  0.3149 -0.0069 -0.3808
14807SOL    HW147952   1.849   5.751   4.021  0.0327  0.4665 -0.8008
14807SOL    HW247953   1.707   5.705   3.994  0.5752 -2.0304  0.2670
14808SOL     OW47954   3.815   2.378   5.613  0.1643 -0.0829 -0.2113
14808SOL    HW147955   3.835   2.301   5.666  1.4214  0.2900 -0.1052
14808SOL    HW247956   3.738   2.417   5.655  0.8519 -0.0562  1.0822
14809SOL     OW47957   0.293   8.319  10.751  0.3223  0.2897  0.1065
14809SOL    HW147958   0.261   8.407  10.731  1.4437  1.1331  1.7813
14809SOL    HW247959   0.380   8.333  10.788  1.2978 -1.6810 -1.2531
14810SOL     OW47960   1.580   9.033   1.978 -0.6223 -0.2880  0.2622
14810SOL    HW147961   1.519   9.047   1.906 -1.0074  0.4700  0.7240
14810SOL    HW247962   1.590   8.938   1.983 -1.4144 -0.3951 -0.1007
14811SOL     OW47963   3.547   4.550   7.942  0.0969  0.4616  0.0018
14811SOL    HW147964   3.504   4.470   7.910 -1.4825  0.0276  2.8868
14811SOL    HW247965   3.520   4.618   7.880  0.6363 -0.9861 -1.9347
14812SOL     OW47966   7.304   4.425   4.190 -0.4798  0.0284 -0.5556
14812SOL    HW147967   7.224   4.477   4.190  0.0122  0.7919 -0.5003
14812SOL    HW247968   7.373   4.485   4.219  0.0754 -0.6835 -0.3581
14813SOL     OW47969   7.113   9.726   7.051 -0.1194 -0.0388  0.1485
14813SOL    HW147970   7.146   9.753   6.966  0.2721 -0.5628  0.1315
14813SOL    HW247971   7.020   9.706   7.036 -0.1038  0.0888 -0.1052
14814SOL     OW47972   9.122   4.699  10.109  0.1123 -0.6136  0.1151
14814SOL    HW147973   9.106   4.625  10.167 -3.0482  0.2105  0.4909
14814SOL    HW247974   9.110   4.776  10.164 -1.5508  0.1659 -1.2246
14815SOL     OW47975   0.307   8.159   4.072 -0.6211  0.0344  0.0616
14815SOL    HW147976   0.265   8.238   4.039  1.1642  0.9485 -0.1423
14815SOL    HW247977   0.386   8.190   4.117 -1.2348 -1.4378  2.3173
14816SOL     OW47978   8.724   5.885   1.116  0.1698  0.6930  0.5155
14816SOL    HW147979   8.680   5.935   1.047  0.4433 -1.4937 -1.3588
14816SOL    HW247980   8.796   5.942   1.143 -0.5768  2.0650 -0.2093
14817SOL     OW47981   4.756  10.355   5.787 -0.5615 -0.4136 -0.1654
14817SOL    HW147982   4.817  10.405   5.733  1.3648 -2.3603  0.1220
14817SOL    HW247983   4.686  10.331   5.726 -1.3890  2.1918 -0.4013
14818SOL     OW47984   6.871   8.229   7.423  0.3554  0.3363 -0.0747
14818SOL    HW147985   6.892   8.184   7.341 -0.2544  1.2257 -0.7431
14818SOL    HW247986   6.840   8.315   7.395 -2.0024 -0.1040  0.9282
14819SOL     OW47987   2.006   6.944   1.543  0.5841  0.0614  0.2305
14819SOL    HW147988   2.081   6.911   1.493  0.2402  0.1996 -0.3902
14819SOL    HW247989   1.935   6.884   1.522  0.6617 -0.4313  1.3003
14820SOL     OW47990   9.733   3.501   3.031  0.6980 -0.3024 -0.5757
14820SOL    HW147991   9.752   3.508   3.125 -1.1438 -1.5437 -0.0554
14820SOL    HW247992   9.818   3.489   2.990  2.0602  3.9875  0.4204
14821SOL     OW47993   2.467   7.973   2.263  0.3865  0.8213 -0.3599
14821SOL    HW147994   2.414   7.982   2.184  0.7280  0.1781 -0.6701
14821SOL    HW247995   2.555   7.999   2.236  0.6477 -0.0319 -0.3776
14822SOL     OW47996   8.246   2.362   2.545  0.0771  0.1351  0.0238
14822SOL    HW147997   8.244   2.451   2.512 -1.4783  0.0136 -0.3204
14822SOL    HW247998   8.338   2.344   2.562  0.3136  2.2480  1.3516
14823SOL     OW47999   5.622   4.791   9.702  0.3342  0.0453  0.4043
14823SOL    HW148000   5.660   4.852   9.765  0.1792  0.8290 -0.2424
14823SOL    HW248001   5.610   4.843   9.622 -1.6691 -0.2840  0.4315
14824SOL     OW48002   8.196   9.708   5.967 -0.7416 -0.0069  0.3562
14824SOL    HW148003   8.125   9.681   5.910 -1.5473 -0.7537  1.6625
14824SOL    HW248004   8.271   9.655   5.939 -0.4634  1.2396 -1.4453
14825SOL     OW48005   8.949   3.276  10.041  0.0598  0.1642  0.6936
14825SOL    HW148006   8.897   3.197  10.025 -2.2123  1.4819  1.2766
14825SOL    HW248007   9.018   3.247  10.101 -1.2666 -1.1927  1.6319
14826SOL     OW48008  10.126   7.697  10.505  0.5749 -0.0559  0.0256
14826SOL    HW148009  10.091   7.659  10.585 -0.0510  2.4056  1.0374
14826SOL    HW248010  10.055   7.753  10.472  1.0962 -0.4191 -1.8440
14827SOL     OW48011   8.231   8.957   7.311 -0.0199 -0.3118 -0.0189
14827SOL    HW148012   8.162   8.900   7.344 -0.2667  0.0161  0.0288
14827SOL    HW248013   8.302   8.947   7.374  0.7462 -2.1378 -1.0556
14828SOL     OW48014   6.780   5.742   7.445 -0.1047 -0.2731 -0.4724
14828SOL    HW148015   6.727   5.689   7.386 -0.0006 -0.4512 -0.4076
14828SOL    HW248016   6.868   5.704   7.439 -0.2349 -0.7297  0.3083
14829SOL     OW48017  10.325   6.660   5.243 -0.0819 -0.5811 -0.2152
14829SOL    HW148018  10.370   6.577   5.228  1.2444  0.4121 -2.0599
14829SOL    HW248019  10.355   6.717   5.173 -0.9010  1.5100  1.0495
14830SOL     OW48020   5.200   7.049   2.637  0.0493  0.1414  0.0373
14830SOL    HW148021   5.199   6.987   2.710  2.3582 -1.4003 -1.1097
14830SOL    HW248022   5.259   7.119   2.665 -2.2170  1.7299  1.1565
14831SOL     OW48023   6.038   9.552   3.015  0.1320  0.0199 -0.1026
14831SOL    HW148024   5.953   9.564   2.971  0.2512  2.5496  0.2365
14831SOL    HW248025   6.097   9.611   2.969  1.6173 -1.2546  0.0736
14832SOL     OW48026  10.111   4.525   9.838  0.5884 -0.1871  0.7517
14832SOL    HW148027  10.048   4.553   9.772 -1.1701 -2.2480  1.4386
14832SOL    HW248028  10.062   4.525   9.920  1.3590 -2.0412  1.2821
14833SOL     OW48029   5.128   3.024   4.184 -0.2344 -0.1476 -0.0991
14833SOL    HW148030   5.166   2.940   4.211  3.5755  0.6509 -2.1877
14833SOL    HW248031   5.111   3.014   4.091 -1.6686  0.8207  0.0314
14834SOL     OW48032   9.812   8.513   9.370  0.0853 -0.3481  0.1882
14834SOL    HW148033   9.850   8.428   9.394 -0.7957 -0.1160  2.6540
14834SOL    HW248034   9.878   8.577   9.397  0.1068 -0.1701 -0.2800
14835SOL     OW48035   7.374   6.081  10.541 -0.2934  0.1128  0.1597
14835SOL    HW148036   7.291   6.036  10.523 -0.6239  0.1038  1.6165
14835SOL    HW248037   7.369   6.161  10.489 -0.2691 -0.8659 -1.4297
14836SOL     OW48038   4.025   5.937   5.894 -0.0875  0.2977  0.4018
14836SOL    HW148039   3.999   5.851   5.928  0.2276 -1.2916 -2.9223
14836SOL    HW248040   4.109   5.955   5.935 -1.0760  0.0744  2.6908
14837SOL     OW48041   6.132   2.141   2.057 -0.4706 -0.0052 -0.0302
14837SOL    HW148042   6.227   2.152   2.052 -0.4726 -0.1770 -0.4665
14837SOL    HW248043   6.108   2.174   2.144 -0.1470  1.0476 -0.3254
14838SOL     OW48044   4.260  10.772   4.038 -0.2725  0.3169  0.5968
14838SOL    HW148045   4.196  10.734   3.977  1.5832 -1.9695 -0.0577
14838SOL    HW248046   4.207  10.819   4.103 -2.4375  0.8195 -1.4033
14839SOL     OW48047  10.956   5.213   4.262 -0.4278  0.1696  0.2525
14839SOL    HW148048  10.987   5.192   4.350  2.5701 -0.3063 -0.8094
14839SOL    HW248049  11.031   5.198   4.206 -2.2662  0.4065 -2.4465
14840SOL     OW48050   7.161   9.910   9.470  0.2548 -0.4437 -0.4024
14840SOL    HW148051   7.089   9.857   9.504  0.2130  0.6049  1.2434
14840SOL    HW248052   7.233   9.847   9.458 -0.1077 -1.0711  0.5236
14841SOL     OW48053   1.385   1.137   5.287  0.4114  0.5242  0.4049
14841SOL    HW148054   1.480   1.134   5.300  0.5387  2.1176  0.0662
14841SOL    HW248055   1.373   1.190   5.209 -0.7591 -0.0690  0.1568
14842SOL     OW48056   4.310   0.721   7.671 -0.4660  0.0396  0.1842
14842SOL    HW148057   4.228   0.766   7.650 -0.2732  0.6206  0.6338
14842SOL    HW248058   4.328   0.666   7.595 -0.9276  0.4121 -0.2011
14843SOL     OW48059   4.289   7.059  10.285  0.1204 -0.2526  0.0085
14843SOL    HW148060   4.348   7.000  10.333  0.7131 -1.2125 -1.8190
14843SOL    HW248061   4.291   7.027  10.195 -0.9375  1.5091 -0.6881
14844SOL     OW48062   0.727   4.132   5.920 -0.3607  0.0282 -0.1001
14844SOL    HW148063   0.641   4.149   5.881 -0.3692  0.0642 -0.0654
14844SOL    HW248064   0.790   4.156   5.852 -0.4004 -1.0612 -0.5447
14845SOL     OW48065   3.651   9.849  10.471 -0.3079  0.2732  0.3295
14845SOL    HW148066   3.679   9.858  10.562  0.4356  0.4837  0.0873
14845SOL    HW248067   3.662   9.936  10.434 -1.5306  0.4280  0.2734
14846SOL     OW48068  10.829  10.611   1.526  0.3539 -0.1496 -0.5968
14846SOL    HW148069  10.859  10.537   1.472  0.7006  0.0529 -0.6860
14846SOL    HW248070  10.733  10.607   1.521  0.1011 -3.1777  2.8398
14847SOL     OW48071   8.599   5.808   8.820 -0.1536 -0.3066  0.0820
14847SOL    HW148072   8.538   5.881   8.807  0.3499  0.1415  0.2136
14847SOL    HW248073   8.629   5.818   8.910  1.0754  0.2199 -0.3666
14848SOL     OW48074   9.170   3.796   4.189 -0.1223  0.2837  0.2679
14848SOL    HW148075   9.137   3.712   4.222 -0.9023  0.1238 -0.8713
14848SOL    HW248076   9.184   3.781   4.095 -2.0209  1.9208 -0.3350
14849SOL     OW48077   6.515   0.149   9.095 -0.1075  0.1004 -0.0154
14849SOL    HW148078   6.452   0.134   9.165  0.8536 -0.8607  0.6844
14849SOL    HW248079   6.466   0.138   9.014 -0.9402 -0.1034  0.5117
14850SOL     OW48080   9.645   2.792  10.140  0.1454 -0.4399  0.0323
14850SOL    HW148081   9.628   2.779  10.047  0.1370 -0.8878  0.0923
14850SOL    HW248082   9.603   2.875  10.161  1.5903  0.5399 -0.7457
14851SOL     OW48083   2.063  10.466   2.111 -0.0336 -0.2411 -0.5628
14851SOL    HW148084   2.025  10.552   2.127 -0.7999 -0.6619 -0.0685
14851SOL    HW248085   2.027  10.438   2.027 -1.0938 -0.7610  0.0354
14852SOL     OW48086   6.426   8.152   0.129  0.1090  0.4965 -0.4187
14852SOL    HW148087   6.392   8.184   0.046 -0.1939 -0.5583 -0.7179
14852SOL    HW248088   6.364   8.184   0.195 -0.0414  0.7344 -0.6738
14853SOL     OW48089   9.776   4.652  10.577  0.5424  0.3589  0.1828
14853SOL    HW148090   9.795   4.560  10.590 -2.8612 -0.5936 -0.5239
14853SOL    HW248091   9.747   4.683  10.664 -3.2695 -0.7741 -0.4834
14854SOL     OW48092   3.776   7.806   4.910  0.1179  0.0395  0.8462
14854SOL    HW148093   3.719   7.797   4.987  2.2913 -1.4537  2.3938
14854SOL    HW248094   3.765   7.898   4.884 -2.9818 -0.1895  0.9930
14855SOL     OW48095   7.620   7.581   9.515 -0.4673 -0.1912 -0.2655
14855SOL    HW148096   7.542   7.570   9.460 -0.3040  0.4846 -0.6512
14855SOL    HW248097   7.587   7.578   9.605 -1.0452  0.7516 -0.4282
14856SOL     OW48098   7.144   9.887   4.749 -0.1681  0.3794 -0.2345
14856SOL    HW148099   7.098   9.842   4.677 -2.5737  1.1285  0.7212
14856SOL    HW248100   7.236   9.864   4.737 -0.8147 -1.6191 -2.0365
14857SOL     OW48101   3.704   2.517   8.688  0.4466  0.2710 -0.1465
14857SOL    HW148102   3.722   2.594   8.742  0.3452 -0.2698  0.6718
14857SOL    HW248103   3.617   2.488   8.716  0.3739  0.0004 -0.6342
14858SOL     OW48104   6.913   6.726   2.913 -0.6463 -0.3629 -0.3902
14858SOL    HW148105   7.006   6.704   2.923  0.0898  3.1493  2.1952
14858SOL    HW248106   6.912   6.793   2.844 -0.7524  1.5806  1.3975
14859SOL     OW48107  10.874   7.054   4.527 -0.4553 -0.3649 -0.4942
14859SOL    HW148108  10.921   6.996   4.467 -1.7045 -0.6566 -1.2292
14859SOL    HW248109  10.941   7.088   4.586  0.6411 -0.8514 -1.4369
14860SOL     OW48110   1.746  11.077   1.850 -0.1624  0.2359 -0.4540
14860SOL    HW148111   1.714  11.099   1.937  1.0898 -1.7120  0.5812
14860SOL    HW248112   1.671  11.034   1.808  0.0204 -1.2982  0.7083
14861SOL     OW48113   9.598   5.535   5.366 -0.0296 -0.3127  0.1923
14861SOL    HW148114   9.677   5.568   5.410  0.6224 -1.3114 -0.2056
14861SOL    HW248115   9.620   5.537   5.273 -0.4863 -0.5938  0.0764
14862SOL     OW48116   7.464  10.440   2.720 -0.4104  0.0537 -0.3848
14862SOL    HW148117   7.536  10.448   2.658  1.8801 -0.5036  2.0458
14862SOL    HW248118   7.442  10.531   2.743 -0.0485  0.2177 -0.6802
14863SOL     OW48119   5.370   7.882   4.623 -0.2824 -0.0849  0.2574
14863SOL    HW148120   5.364   7.823   4.698  1.0340  1.9069  2.0377
14863SOL    HW248121   5.427   7.835   4.561  0.8470 -0.6734  1.6767
14864SOL     OW48122   4.422   6.989   8.220 -0.6839  0.1207 -0.2614
14864SOL    HW148123   4.331   6.995   8.192 -0.3814 -0.8073 -1.5013
14864SOL    HW248124   4.435   6.897   8.241 -0.2488  0.3959  0.7164
14865SOL     OW48125   1.696   9.174   9.419  0.0865 -0.1179  0.2386
14865SOL    HW148126   1.701   9.200   9.327 -0.2726 -0.6549  0.0643
14865SOL    HW248127   1.668   9.253   9.465 -2.7045 -0.5721 -0.4962
14866SOL     OW48128   0.287   4.016  10.878 -0.1662  0.2027  0.9154
14866SOL    HW148129   0.372   3.974  10.886  0.5634  1.5180  0.4082
14866SOL    HW248130   0.243   3.970  10.807  0.4600  0.0584  0.6232
14867SOL     OW48131   3.708   5.062   0.942  0.1304 -0.3754 -0.1527
14867SOL    HW148132   3.659   5.100   1.015  1.2520  0.3393  0.2461
14867SOL    HW248133   3.796   5.096   0.952  0.5753 -1.1746 -1.2045
14868SOL     OW48134   9.023   5.727   9.991 -0.1643  0.5273 -0.3423
14868SOL    HW148135   9.109   5.693  10.017 -0.3952  0.9325  1.0267
14868SOL    HW248136   8.993   5.776  10.067 -1.9431 -0.2319 -0.5214
14869SOL     OW48137   8.857   7.670   2.793 -0.3750  0.0660  0.3147
14869SOL    HW148138   8.877   7.624   2.712 -0.9334 -0.1815  0.3165
14869SOL    HW248139   8.894   7.615   2.862  1.9323  1.2716  0.1369
14870SOL     OW48140   2.468   5.679   8.031  0.5223 -0.3764  0.2136
14870SOL    HW148141   2.450   5.611   7.966  0.0772  0.1509 -0.2238
14870SOL    HW248142   2.443   5.640   8.114  1.8413 -1.3443  0.1780
14871SOL     OW48143   6.481   0.437   7.639 -0.3715  0.7412  0.0004
14871SOL    HW148144   6.423   0.496   7.688 -1.4177 -1.9917  2.2976
14871SOL    HW248145   6.569   0.472   7.655 -0.9252  1.5796  1.4695
14872SOL     OW48146   2.082   8.072   2.890  0.2437 -0.3251 -0.2187
14872SOL    HW148147   1.994   8.087   2.856  0.4143 -1.2673 -1.1096
14872SOL    HW248148   2.104   8.154   2.934 -0.3028  0.6552 -1.6813
14873SOL     OW48149   1.837   9.001   7.958 -0.0589 -0.1946 -0.2297
14873SOL    HW148150   1.930   9.023   7.956 -0.1228  0.1408  0.3890
14873SOL    HW248151   1.801   9.042   7.879 -0.1882  2.0032  0.9196
14874SOL     OW48152   0.179   2.853   8.533 -0.2254 -0.3606  0.4450
14874SOL    HW148153   0.154   2.772   8.489  3.0901 -1.1201 -0.3321
14874SOL    HW248154   0.145   2.844   8.622 -1.2770 -1.8782 -0.0747
14875SOL     OW48155   4.910   1.411   7.626 -0.0831  0.0706 -0.2394
14875SOL    HW148156   4.887   1.330   7.671  1.6325 -1.2230 -1.5192
14875SOL    HW248157   4.848   1.416   7.553 -1.9748  1.4399  1.3879
14876SOL     OW48158   6.812   5.399   3.704  0.0481 -0.5085  0.1958
14876SOL    HW148159   6.777   5.344   3.773 -0.3915  0.1210  0.4810
14876SOL    HW248160   6.846   5.476   3.749  1.7545 -1.0579 -0.0775
14877SOL     OW48161   7.952   0.301   0.185 -0.0576 -0.3611  0.5511
14877SOL    HW148162   7.894   0.227   0.201  2.4693 -2.0060  3.0193
14877SOL    HW248163   8.032   0.261   0.150 -0.1006  1.7597 -2.3452
14878SOL     OW48164   5.600   2.219   1.593  0.0053 -0.4975 -0.4396
14878SOL    HW148165   5.541   2.218   1.668  0.7335  1.4181  0.2243
14878SOL    HW248166   5.683   2.184   1.627  0.1169 -0.3382 -0.5439
14879SOL     OW48167   5.830  10.439   7.339 -0.0306 -0.2197 -0.3125
14879SOL    HW148168   5.776  10.382   7.394 -1.2325  1.1927  0.0273
14879SOL    HW248169   5.920  10.410   7.357 -0.6094 -3.5276 -1.8779
14880SOL     OW48170   2.208   6.751   9.180 -0.1519 -0.5445 -0.2320
14880SOL    HW148171   2.137   6.722   9.122  0.1348 -0.6479 -0.5374
14880SOL    HW248172   2.255   6.817   9.129 -0.5203  0.1284  0.2839
14881SOL     OW48173   0.651   5.914   1.974  0.4270  0.0729  0.0555
14881SOL    HW148174   0.570   5.949   2.010 -0.1293 -0.1070 -0.9701
14881SOL    HW248175   0.623   5.844   1.915  1.3246 -0.0069 -0.2997
14882SOL     OW48176   3.653   1.157   6.292  0.0426 -0.1500  0.6423
14882SOL    HW148177   3.657   1.100   6.214 -1.2587 -0.2979  0.6576
14882SOL    HW248178   3.583   1.218   6.272  1.9253  2.0335  0.2852
14883SOL     OW48179   5.715   9.803   8.213  0.2327  0.1124  0.1807
14883SOL    HW148180   5.807   9.824   8.229  0.2033  0.3348  0.0605
14883SOL    HW248181   5.705   9.713   8.245  0.4630  0.1292  0.3030
14884SOL     OW48182   5.597   6.779   3.338 -0.2629  0.0470 -0.1283
14884SOL    HW148183   5.665   6.843   3.359 -0.5394 -0.2383  1.8626
14884SOL    HW248184   5.625   6.741   3.255  2.4858 -0.6637  0.9975
14885SOL     OW48185   6.674   7.540   0.832  0.1422 -0.5053  0.0377
14885SOL    HW148186   6.590   7.493   0.827  0.0145 -0.2931  0.1556
14885SOL    HW248187   6.705   7.543   0.742  0.0555 -0.6428  0.0022
14886SOL     OW48188   4.945   2.049   0.790 -1.1799  0.1289  0.4629
14886SOL    HW148189   5.017   2.110   0.778 -0.1908 -0.8810  0.9976
14886SOL    HW248190   4.883   2.069   0.720  0.0611  0.4139 -0.5751
14887SOL     OW48191   5.513   4.523   2.542  0.5112 -0.3151 -0.2203
14887SOL    HW148192   5.607   4.530   2.527  0.7261 -3.3072 -0.8612
14887SOL    HW248193   5.477   4.495   2.458 -1.1399  1.5877 -0.2303
14888SOL     OW48194   1.529   2.055   1.665 -0.0011 -0.1486  0.2128
14888SOL    HW148195   1.451   2.041   1.719  0.7494  0.5200  1.5423
14888SOL    HW248196   1.599   2.070   1.729  1.0503  0.0654 -0.9610
14889SOL     OW48197   4.955   6.944   6.889  0.8021 -0.0750  0.8919
14889SOL    HW148198   5.006   6.897   6.954  0.4183 -0.9480  0.5721
14889SOL    HW248199   5.002   6.931   6.807  0.6720  0.0609  0.7937
14890SOL     OW48200   6.841   7.338   7.503 -0.4087 -0.0522  0.2320
14890SOL    HW148201   6.802   7.263   7.458 -0.2116 -0.0069 -0.0218
14890SOL    HW248202   6.793   7.414   7.470  1.8826  0.3960 -2.5638
14891SOL     OW48203   7.081   6.854   5.629  0.1578 -0.4332  0.2538
14891SOL    HW148204   7.018   6.869   5.558 -1.2408  0.3713  1.6154
14891SOL    HW248205   7.093   6.759   5.630 -0.5790 -0.5494 -0.4159
14892SOL     OW48206   9.693   0.274   9.586 -0.0739  0.2505 -0.1289
14892SOL    HW148207   9.676   0.183   9.563 -1.2684  0.3897  0.1587
14892SOL    HW248208   9.784   0.275   9.616 -0.0242 -0.8193 -0.2253
14893SOL     OW48209  10.061   9.473   6.592 -0.2756  0.1492 -0.0238
14893SOL    HW148210  10.137   9.414   6.591  0.6653  1.2089  2.4694
14893SOL    HW248211   9.986   9.414   6.605  0.2733 -0.7546 -0.7915
14894SOL     OW48212   5.043   6.283   0.518 -0.7284  0.5440 -0.3011
14894SOL    HW148213   5.114   6.291   0.581 -0.2138 -2.0827 -0.4456
14894SOL    HW248214   4.965   6.270   0.571 -1.2033  3.3585 -0.1453
14895SOL     OW48215   9.617  10.562   8.601  0.1038 -0.1274  0.1343
14895SOL    HW148216   9.588  10.498   8.666  1.4628 -0.5964  0.3013
14895SOL    HW248217   9.676  10.620   8.649  0.9618 -0.3595 -0.6204
14896SOL     OW48218   4.935   5.558   0.796 -0.6701  0.0089 -0.3317
14896SOL    HW148219   4.907   5.470   0.818  1.2693 -0.4494  0.5833
14896SOL    HW248220   4.886   5.615   0.856 -3.4927 -0.1688 -2.3225
14897SOL     OW48221   5.569   8.152   9.651 -0.2771 -0.1633  0.5640
14897SOL    HW148222   5.562   8.208   9.728  1.3012  0.7618  0.1013
14897SOL    HW248223   5.564   8.063   9.684 -0.3907  0.2304  1.6334
14898SOL     OW48224   7.022   2.868   3.317  0.3549 -0.2385  0.7798
14898SOL    HW148225   6.953   2.933   3.304  0.6182  0.1592  1.3560
14898SOL    HW248226   7.086   2.911   3.374  1.6232 -0.2043 -0.6087
14899SOL     OW48227  11.011   9.341  10.481  0.2384 -0.3675  0.3888
14899SOL    HW148228  11.053   9.319  10.398  1.0108  0.5822  0.5056
14899SOL    HW248229  10.934   9.391  10.457  0.2758 -0.3856  0.2319
14900SOL     OW48230   4.247   9.611   7.361  0.0323  0.4128 -0.2561
14900SOL    HW148231   4.184   9.541   7.344  0.4939  0.0737 -0.5803
14900SOL    HW248232   4.290   9.626   7.277 -1.3018  2.3534 -0.6744
14901SOL     OW48233   9.830   3.719   5.744  0.1351  0.1565 -0.0821
14901SOL    HW148234   9.917   3.756   5.755  0.3517 -0.5815  0.8171
14901SOL    HW248235   9.813   3.671   5.825 -1.1019  0.2643 -0.2454
14902SOL     OW48236   5.008   9.960   9.288 -0.2166 -0.3315  0.2716
14902SOL    HW148237   5.021   9.905   9.211  2.7309  1.5778 -0.7826
14902SOL    HW248238   4.956  10.034   9.257  0.0518 -0.0900  0.3935
14903SOL     OW48239   2.363   0.152   3.677  0.2971 -0.1153 -0.5882
14903SOL    HW148240   2.328   0.067   3.648 -0.6692  0.2407 -0.5072
14903SOL    HW248241   2.432   0.172   3.615  0.3343 -0.8325 -0.7832
14904SOL     OW48242   5.955   9.876   0.861  0.3926  0.1057  0.2315
14904SOL    HW148243   5.968   9.967   0.836  0.8914  0.2521  1.0103
14904SOL    HW248244   5.893   9.842   0.796  0.2619  0.9734 -0.1057
14905SOL     OW48245   5.043   1.680   6.041 -0.0563  0.0477 -0.2231
14905SOL    HW148246   5.069   1.685   5.949  1.0819 -0.1893  0.0685
14905SOL    HW248247   5.018   1.589   6.054 -1.1208  0.2798 -0.5087
14906SOL     OW48248   5.170   4.535   1.997  0.0686 -0.4437 -0.0865
14906SOL    HW148249   5.223   4.608   1.965 -0.3483 -0.5849 -1.1536
14906SOL    HW248250   5.205   4.458   1.952 -0.1096 -0.7611  0.3062
14907SOL     OW48251   8.834   9.130  11.084 -0.1372 -0.1632 -0.3344
14907SOL    HW148252   8.749   9.137  11.041 -0.9349  1.9227  1.3769
14907SOL    HW248253   8.866   9.221  11.088  0.4552 -0.4070  2.2569
14908SOL     OW48254   8.975   0.787   7.465 -0.1383  0.2608  0.4120
14908SOL    HW148255   8.966   0.882   7.457 -0.8853  0.1276 -0.5997
14908SOL    HW248256   9.052   0.766   7.411  1.2068  0.4707  2.1665
14909SOL     OW48257   9.803   7.191   8.145  0.3181 -0.0110  0.0697
14909SOL    HW148258   9.858   7.266   8.125  0.1363  0.5483  1.5017
14909SOL    HW248259   9.779   7.203   8.237 -1.1368 -0.9107 -0.1512
14910SOL     OW48260   5.185  11.115   3.342  0.1094  0.3543 -0.1562
14910SOL    HW148261   5.220  11.057   3.276  0.3678  0.6025 -0.2362
14910SOL    HW248262   5.153  11.056   3.411  1.6187  0.1514  0.3988
14911SOL     OW48263   1.411  10.057   0.467  0.4073  0.0474  0.4939
14911SOL    HW148264   1.330  10.108   0.473 -0.4684 -1.2781  0.2747
14911SOL    HW248265   1.480  10.121   0.483 -0.6914  1.1405  1.0609
14912SOL     OW48266   9.493   4.071   2.618 -0.2472 -0.4335 -0.3650
14912SOL    HW148267   9.514   4.162   2.640  3.1867 -1.2430  0.2813
14912SOL    HW248268   9.398   4.066   2.626 -0.4077  2.6493  1.3446
14913SOL     OW48269   6.765   3.970   5.562 -0.1633 -0.4383  0.6342
14913SOL    HW148270   6.679   3.928   5.566  0.0457 -1.0855 -0.9449
14913SOL    HW248271   6.759   4.029   5.488  1.4323 -2.2230 -1.0307
14914SOL     OW48272   6.414   1.184   8.921 -0.9057  0.4864 -0.5452
14914SOL    HW148273   6.378   1.102   8.953 -0.7161  0.5231 -0.2296
14914SOL    HW248274   6.372   1.251   8.975 -0.8032  0.5710 -0.5697
14915SOL     OW48275   8.906   8.215   5.619  0.4864 -0.0414  0.4473
14915SOL    HW148276   8.897   8.145   5.554  1.0205  0.6814 -0.4204
14915SOL    HW248277   8.987   8.260   5.595 -0.1154  1.2101  0.6764
14916SOL     OW48278   0.002   3.076   0.334 -0.1210  0.1663 -0.1545
14916SOL    HW148279  -0.044   3.158   0.350  2.6456  1.5919  1.0680
14916SOL    HW248280  -0.051   3.010   0.378 -0.4599  1.8774  2.1805
14917SOL     OW48281   0.008   3.068   3.467  0.5276 -0.1037  0.3347
14917SOL    HW148282  -0.054   3.125   3.422  1.3510  0.8086  0.3345
14917SOL    HW248283  -0.036   2.983   3.469 -1.4898  0.8781  1.8780
14918SOL     OW48284   4.786   4.728   5.972 -0.5846  0.4128  0.5242
14918SOL    HW148285   4.861   4.708   6.029  0.2777 -0.0672 -0.7226
14918SOL    HW248286   4.824   4.730   5.884 -2.0041  0.4216 -0.1034
14919SOL     OW48287   5.380   2.871   6.754  0.0203  0.1343  0.5097
14919SOL    HW148288   5.366   2.783   6.788 -0.3401  0.0756  0.2164
14919SOL    HW248289   5.356   2.865   6.661  0.1412  0.5035  0.4519
14920SOL     OW48290   2.950   2.650   5.350 -0.1621  0.2573  0.6028
14920SOL    HW148291   2.964   2.647   5.444 -0.9085  0.1450  0.7182
14920SOL    HW248292   2.864   2.609   5.337  0.6141 -1.1851 -0.2846
14921SOL     OW48293   0.833   7.821   2.129 -0.4614  0.1002  0.3755
14921SOL    HW148294   0.879   7.884   2.184  0.3780  0.5799 -0.8320
14921SOL    HW248295   0.748   7.862   2.113  0.2881  1.2352 -0.8697
14922SOL     OW48296   1.033  10.570   2.218  0.3720  0.9434  0.3393
14922SOL    HW148297   1.061  10.519   2.141  0.2187  0.4254  0.6192
14922SOL    HW248298   1.027  10.505   2.288 -0.5235  1.2284  0.5348
14923SOL     OW48299   6.985   2.391   5.695 -0.2414  0.6530  0.4089
14923SOL    HW148300   7.045   2.451   5.739  0.0866 -1.0179  2.4153
14923SOL    HW248301   7.038   2.353   5.624  0.4967  0.5836  0.9800
14924SOL     OW48302   0.976  11.063   0.088 -0.0495 -0.2843 -0.4478
14924SOL    HW148303   0.945  11.091   0.002 -0.8273 -0.1823 -0.1394
14924SOL    HW248304   0.907  11.091   0.148 -0.3894 -1.9722 -0.0159
14925SOL     OW48305   6.159   3.466   5.324 -0.0029  0.0954  0.3904
14925SOL    HW148306   6.192   3.452   5.235 -1.1959 -1.5042  0.1520
14925SOL    HW248307   6.156   3.561   5.334  0.9657  0.2948 -0.9631
14926SOL     OW48308   7.833   4.126  10.193 -0.1764  0.0443  0.4096
14926SOL    HW148309   7.896   4.196  10.202  0.0795 -0.0123 -0.7462
14926SOL    HW248310   7.850   4.089  10.106 -0.7518 -0.9985  0.7190
14927SOL     OW48311   0.559   5.451   6.371  0.3278  0.6096 -0.2275
14927SOL    HW148312   0.492   5.516   6.351  0.0259  0.2599 -0.3672
14927SOL    HW248313   0.624   5.498   6.423 -1.6984  0.1581  2.9752
14928SOL     OW48314   3.590   3.196   0.528 -0.1171  0.2159  0.5444
14928SOL    HW148315   3.500   3.168   0.546 -0.5760  1.8890  1.0101
14928SOL    HW248316   3.580   3.266   0.463  0.8514  0.3889  0.5744
14929SOL     OW48317   5.486   5.384   3.177 -0.1863 -0.3356  0.1326
14929SOL    HW148318   5.501   5.302   3.224 -0.0991 -0.4198 -0.0422
14929SOL    HW248319   5.410   5.423   3.220 -1.0912 -1.1677 -0.6587
14930SOL     OW48320   5.336   8.862   9.256 -0.3201 -0.1951 -0.4476
14930SOL    HW148321   5.260   8.862   9.315 -0.9220 -1.4890 -1.1635
14930SOL    HW248322   5.324   8.940   9.202  0.6422  1.4390  1.5656
14931SOL     OW48323   0.151   4.266   0.069  0.3325 -0.3024 -0.0836
14931SOL    HW148324   0.233   4.293   0.111 -0.1264  1.2957 -0.1488
14931SOL    HW248325   0.170   4.271  -0.025 -0.0491  0.9258 -0.1236
14932SOL     OW48326   8.703   1.449   8.345 -0.5985 -0.7543  0.3057
14932SOL    HW148327   8.760   1.395   8.399 -0.0509  0.1397  0.6519
14932SOL    HW248328   8.760   1.482   8.276 -0.5670  0.5118  0.9097
14933SOL     OW48329   5.856   4.307   6.263  0.3927  0.9316 -0.1775
14933SOL    HW148330   5.824   4.314   6.173  0.6283  1.9359 -0.1900
14933SOL    HW248331   5.837   4.216   6.288  0.7117  0.5242 -1.3757
14934SOL     OW48332   8.787   1.827   4.921 -0.6571  0.0386  0.1385
14934SOL    HW148333   8.804   1.888   4.849  0.2953 -0.5965 -0.2002
14934SOL    HW248334   8.695   1.803   4.911 -1.0880  1.4853  0.3439
14935SOL     OW48335   0.217   5.069   6.774 -0.1154 -0.2212  0.3022
14935SOL    HW148336   0.157   5.142   6.753  0.9622  0.8076  0.7039
14935SOL    HW248337   0.173   4.992   6.739 -0.6490  0.7978 -1.4318
14936SOL     OW48338   3.822   7.991   7.964 -0.1919  0.0428 -0.3306
14936SOL    HW148339   3.833   8.070   7.910  1.6720  1.3303  1.7336
14936SOL    HW248340   3.901   7.940   7.949 -0.3837 -0.3512 -0.0236
14937SOL     OW48341  10.591   1.975   7.784 -0.2354 -0.0628  0.8433
14937SOL    HW148342  10.595   1.880   7.782 -1.7420 -0.2154 -2.5788
14937SOL    HW248343  10.516   1.994   7.841 -2.1854 -1.1947 -1.2019
14938SOL     OW48344   7.230  10.076   6.340  0.5163 -0.2778 -0.5349
14938SOL    HW148345   7.134  10.081   6.343  0.5425  0.2370 -0.4552
14938SOL    HW248346   7.249  10.013   6.270  0.0615 -3.1979  1.7416
14939SOL     OW48347   6.832   6.698   5.139 -0.7771 -0.0344 -0.6611
14939SOL    HW148348   6.849   6.696   5.045  0.5150  0.7177 -0.4771
14939SOL    HW248349   6.900   6.642   5.176 -1.5321 -0.6547 -0.1987
14940SOL     OW48350  10.073   4.665  10.285  0.3391 -0.4482  0.3115
14940SOL    HW148351  10.070   4.581  10.331 -0.8568  0.0274  1.1512
14940SOL    HW248352  10.166   4.690  10.288  0.3092 -0.3876  2.6232
14941SOL     OW48353   5.838   8.120   9.179  0.6105  0.2175 -0.5655
14941SOL    HW148354   5.800   8.199   9.141  1.9633  0.3965 -1.6146
14941SOL    HW248355   5.868   8.069   9.104 -0.7781 -1.5937  0.0754
14942SOL     OW48356   8.384   5.794   7.098 -0.3143  0.0901  0.0119
14942SOL    HW148357   8.290   5.785   7.086 -0.3398 -2.1543  1.4970
14942SOL    HW248358   8.422   5.735   7.034 -0.0929 -1.9830  1.9477
14943SOL     OW48359   7.744   8.429   2.764 -0.2127 -0.4671 -0.4471
14943SOL    HW148360   7.656   8.425   2.726 -0.9465  0.1670  1.1071
14943SOL    HW248361   7.762   8.522   2.773 -0.5909 -0.5629  1.8346
14944SOL     OW48362   1.177   3.114   0.138 -0.3264  0.0259  0.3264
14944SOL    HW148363   1.093   3.125   0.092  0.0029 -2.1983 -0.9679
14944SOL    HW248364   1.239   3.093   0.068  1.2764  1.2983  1.3116
14945SOL     OW48365  10.218  10.714   8.390 -0.4292 -0.2682  0.6572
14945SOL    HW148366  10.130  10.687   8.365  0.2552 -0.6942 -1.4689
14945SOL    HW248367  10.275  10.642   8.362  0.9814  1.5528 -1.6075
14946SOL     OW48368   3.930   5.697   9.351 -0.2314  0.1157 -0.0186
14946SOL    HW148369   3.969   5.666   9.432 -0.1224 -0.4694 -0.2853
14946SOL    HW248370   3.921   5.618   9.297 -0.9204  0.3858 -0.3188
14947SOL     OW48371   7.731   2.570   9.722 -0.1525  0.3261  0.1120
14947SOL    HW148372   7.655   2.567   9.664  0.3489  1.2981 -0.6022
14947SOL    HW248373   7.710   2.638   9.786  0.4672  1.1977 -0.5972
14948SOL     OW48374   1.403   6.408   2.407 -0.3018  0.4442  0.1804
14948SOL    HW148375   1.348   6.384   2.481  0.5372  2.7735  1.6796
14948SOL    HW248376   1.451   6.328   2.386 -1.3015 -0.5424  1.4924
14949SOL     OW48377   8.629   5.942   0.530  0.2515  0.5767  0.1932
14949SOL    HW148378   8.538   5.914   0.543  0.2122  0.1342 -0.9542
14949SOL    HW248379   8.680   5.869   0.565  0.1710  0.7230  0.6252
14950SOL     OW48380  10.875   2.414   8.658  0.9799  0.3363 -0.0500
14950SOL    HW148381  10.901   2.483   8.597  0.7777  0.3377 -0.1346
14950SOL    HW248382  10.836   2.462   8.732  0.2186  0.2772 -0.4139
14951SOL     OW48383   5.700   8.400   4.490 -0.0537 -0.5468  0.4027
14951SOL    HW148384   5.638   8.331   4.465  0.2745 -0.4615 -0.6715
14951SOL    HW248385   5.685   8.412   4.584 -2.5711  0.3597 -0.0497
14952SOL     OW48386   9.255  11.016   1.623 -0.3277 -0.0263  0.0634
14952SOL    HW148387   9.229  11.023   1.531  1.5001 -0.6151 -0.5327
14952SOL    HW248388   9.271  11.106   1.651  1.0332  0.0327 -0.8159
14953SOL     OW48389   4.106   2.951   9.139  0.0402 -0.2159  0.1893
14953SOL    HW148390   4.068   2.896   9.207  1.9667  0.1276  1.6488
14953SOL    HW248391   4.142   2.890   9.075 -0.6100 -0.5697  0.1566
14954SOL     OW48392   4.202   0.186   7.481 -0.1879  0.0087  0.6436
14954SOL    HW148393   4.243   0.124   7.542  0.2381 -2.1432 -1.6836
14954SOL    HW248394   4.110   0.186   7.506 -0.2605 -1.8540  0.5178
14955SOL     OW48395   5.437   5.358   5.965 -0.1866 -0.2059 -0.5756
14955SOL    HW148396   5.448   5.385   6.057  2.9393 -0.1981 -0.8614
14955SOL    HW248397   5.350   5.391   5.942 -1.3048 -0.6434  2.4964
14956SOL     OW48398   3.232   4.266   4.854  0.3129 -0.1448  0.1009
14956SOL    HW148399   3.191   4.340   4.899 -0.9056 -0.4798 -0.4199
14956SOL    HW248400   3.326   4.285   4.859  0.2166  0.0303  2.3731
14957SOL     OW48401   5.128  10.590   3.236 -0.4406 -0.0603  0.3214
14957SOL    HW148402   5.085  10.552   3.312 -1.4209  0.8914  0.2555
14957SOL    HW248403   5.057  10.628   3.184  0.3952  0.9205 -0.1383
14958SOL     OW48404   4.282   5.645   5.052 -0.1416  0.5335 -0.1112
14958SOL    HW148405   4.209   5.586   5.070  0.5259  0.1163  1.3229
14958SOL    HW248406   4.259   5.727   5.096  0.0671  0.5344 -0.0012
14959SOL     OW48407   3.981   6.249   6.836  0.6145  0.2091  0.2988
14959SOL    HW148408   3.914   6.212   6.778 -0.2485 -0.8914  1.8880
14959SOL    HW248409   4.037   6.174   6.858  0.9464  0.6060  0.8243
14960SOL     OW48410   8.493   4.297  10.596 -0.0073  0.7927  0.7588
14960SOL    HW148411   8.479   4.229  10.530 -1.9038  0.2794  1.6200
14960SOL    HW248412   8.476   4.379  10.549 -1.8880  0.4064  0.6664
14961SOL     OW48413   5.493  10.881   1.751 -0.5164 -0.0510  0.3437
14961SOL    HW148414   5.529  10.797   1.778 -0.9788 -0.0839  0.8574
14961SOL    HW248415   5.415  10.892   1.804 -1.5926 -0.2367 -1.1555
14962SOL     OW48416   7.269   6.475   2.041  0.1078  0.3042 -0.3805
14962SOL    HW148417   7.293   6.389   2.075  0.0451  0.4491  0.0370
14962SOL    HW248418   7.211   6.456   1.966  0.0793 -0.0136 -0.2790
14963SOL     OW48419  10.575   5.148  10.835  0.7231 -0.7281  0.0171
14963SOL    HW148420  10.656   5.118  10.875  1.5211 -0.4072 -1.3080
14963SOL    HW248421  10.581   5.243  10.837 -1.3329 -0.4922  3.2605
14964SOL     OW48422  10.784   0.270  10.676 -0.4255 -0.3805  0.3710
14964SOL    HW148423  10.793   0.358  10.711 -0.0183 -0.7720  1.2655
14964SOL    HW248424  10.855   0.262  10.612  0.4468 -0.5569  1.3448
14965SOL     OW48425   1.049   3.307   6.464  0.4264 -0.3219  0.2881
14965SOL    HW148426   1.098   3.237   6.421 -0.2319 -0.1049 -0.8686
14965SOL    HW248427   0.994   3.263   6.528 -0.3392 -0.9415 -0.7675
14966SOL     OW48428   8.675   4.203   2.152 -0.0054  0.5508  0.4277
14966SOL    HW148429   8.754   4.201   2.206  0.2870 -1.9122  0.0612
14966SOL    HW248430   8.615   4.141   2.195 -0.7728  0.5229 -0.6320
14967SOL     OW48431   5.348   7.402   8.115 -0.2661  0.3790 -0.0969
14967SOL    HW148432   5.433   7.403   8.160 -1.0465  1.7189  1.5016
14967SOL    HW248433   5.363   7.452   8.035  0.0857  2.2830  1.0745
14968SOL     OW48434   3.579   4.474   3.208 -0.0720 -0.4620 -0.3511
14968SOL    HW148435   3.606   4.388   3.177 -0.1233 -0.1447 -1.3276
14968SOL    HW248436   3.487   4.464   3.232  0.3449 -1.0622  1.0848
14969SOL     OW48437   0.062   5.061  10.097 -0.0009  0.2432  0.4687
14969SOL    HW148438   0.097   5.009  10.169  0.6429 -1.9711 -1.3290
14969SOL    HW248439  -0.025   5.025  10.082  0.2471  0.0122 -0.4723
14970SOL     OW48440   7.990   6.734   1.744 -0.2040  0.4501  0.4626
14970SOL    HW148441   7.947   6.699   1.822 -0.2555  2.0301  1.1778
14970SOL    HW248442   8.058   6.669   1.723 -0.3119 -0.0998  1.7100
14971SOL     OW48443   1.644   0.356   3.134 -0.0571 -0.0237 -0.0173
14971SOL    HW148444   1.592   0.420   3.086  1.4134  0.7501 -0.6439
14971SOL    HW248445   1.583   0.283   3.151 -1.8552  1.6341  1.0121
14972SOL     OW48446   4.295   0.347   2.226 -0.0768  0.4735 -0.6563
14972SOL    HW148447   4.335   0.423   2.186  0.7992  0.3958  0.0447
14972SOL    HW248448   4.366   0.284   2.236 -0.5018  0.0717 -0.0147
14973SOL     OW48449   6.135   6.870   3.656  0.1859 -0.4765  0.6963
14973SOL    HW148450   6.095   6.844   3.573  1.1693 -3.5929  1.0683
14973SOL    HW248451   6.229   6.875   3.636  0.1377  3.2573  0.6690
14974SOL     OW48452   8.164   3.174   2.663  0.1780  0.0958  0.1822
14974SOL    HW148453   8.181   3.093   2.711 -0.0359 -0.7572 -1.1406
14974SOL    HW248454   8.251   3.208   2.641  0.2697  0.2604  0.7819
14975SOL     OW48455   8.430   6.613   4.935 -0.3522 -0.5294 -0.0938
14975SOL    HW148456   8.452   6.520   4.924 -2.1813 -0.7623 -2.3962
14975SOL    HW248457   8.335   6.614   4.942 -0.4573  1.2785 -1.4159
14976SOL     OW48458   8.195  10.764   4.591 -0.0834 -0.7859  0.3418
14976SOL    HW148459   8.116  10.722   4.558  1.6158 -1.6714 -3.1140
14976SOL    HW248460   8.176  10.858   4.587 -0.3293 -0.8775 -2.6234
14977SOL     OW48461   1.099   7.816   5.124  0.4828  0.5260  0.2857
14977SOL    HW148462   1.043   7.747   5.160  0.6622  0.0620 -0.3035
14977SOL    HW248463   1.154   7.844   5.197  0.5645 -0.1177  0.4753
14978SOL     OW48464  10.228   7.959  10.021 -0.4978  0.0684  0.3207
14978SOL    HW148465  10.248   7.902   9.946  0.7699  1.4542 -0.4506
14978SOL    HW248466  10.190   8.037   9.983  1.9584  1.6335  0.8525
14979SOL     OW48467   2.794   2.606   5.003  0.1194  0.2313 -0.2287
14979SOL    HW148468   2.884   2.587   4.975  0.1067  0.9383 -0.7841
14979SOL    HW248469   2.767   2.528   5.051 -0.2331 -1.5761 -3.0727
14980SOL     OW48470   5.470   4.282   4.497 -0.3044  0.1189  0.1317
14980SOL    HW148471   5.543   4.228   4.526  0.1780 -0.1689 -1.4766
14980SOL    HW248472   5.457   4.346   4.567  2.4959  1.1211 -0.1426
14981SOL     OW48473   0.765   6.302   6.788 -0.1773 -0.2034  0.3750
14981SOL    HW148474   0.848   6.263   6.814 -1.0087 -1.6722  1.0016
14981SOL    HW248475   0.718   6.231   6.743 -0.3392  1.1626 -1.7091
14982SOL     OW48476   5.904   1.042  10.498  0.1720  0.8919  0.1576
14982SOL    HW148477   5.978   1.101  10.509  0.6471  0.1280  1.2652
14982SOL    HW248478   5.904   0.988  10.577  0.1021 -0.9509 -1.0304
14983SOL     OW48479   8.867   6.769   7.297  0.2432 -0.0142  0.5099
14983SOL    HW148480   8.858   6.849   7.246 -0.4093  0.5108  1.4312
14983SOL    HW248481   8.901   6.704   7.234 -2.0054  0.1866 -1.0110
14984SOL     OW48482   4.741   0.780   2.085 -0.5762 -0.5324 -0.4556
14984SOL    HW148483   4.688   0.742   2.155 -0.6075  1.6146  0.7495
14984SOL    HW248484   4.832   0.760   2.110 -0.5368  0.9572  0.7011
14985SOL     OW48485   8.010   7.644   8.152  0.2391  0.4573  0.5093
14985SOL    HW148486   8.006   7.715   8.088 -0.6645  0.0705  0.1092
14985SOL    HW248487   7.920   7.610   8.156  0.3027  0.3913  1.9048
14986SOL     OW48488   5.472   8.513  10.201 -0.2686  0.6163 -1.1693
14986SOL    HW148489   5.511   8.555  10.124  0.6856  0.9823 -0.5093
14986SOL    HW248490   5.448   8.587  10.257  1.1949  0.3344 -0.1071
14987SOL     OW48491   7.128   4.759   6.807  0.1589  0.2831 -0.8046
14987SOL    HW148492   7.147   4.709   6.887  2.5768 -1.3608 -2.3086
14987SOL    HW248493   7.182   4.720   6.740 -3.2114  0.2990 -3.8271
14988SOL     OW48494   7.297   6.045   1.746 -0.2016 -0.1845  0.1757
14988SOL    HW148495   7.363   6.100   1.788 -0.2464 -0.9716  1.3317
14988SOL    HW248496   7.288   5.969   1.804  0.3684 -1.7845 -1.7127
14989SOL     OW48497   5.375  10.603   8.074 -0.3534 -0.0225 -0.6653
14989SOL    HW148498   5.465  10.633   8.088 -0.7080  0.3998  0.9370
14989SOL    HW248499   5.374  10.512   8.103 -0.4261 -0.0688 -0.8065
14990SOL     OW48500   4.696   3.978   1.927 -0.3109 -0.0959 -0.3836
14990SOL    HW148501   4.782   4.008   1.898 -0.3392  0.5760  0.1967
14990SOL    HW248502   4.701   3.883   1.924 -0.0598 -0.0531 -1.8142
14991SOL     OW48503   6.191   1.160   7.862 -0.8168 -0.0858  0.3011
14991SOL    HW148504   6.230   1.075   7.884 -1.1911 -0.5915 -0.9279
14991SOL    HW248505   6.172   1.199   7.947 -0.1301 -0.9863  0.9028
14992SOL     OW48506   0.552   6.002   7.991 -0.0726 -0.4530 -0.1841
14992SOL    HW148507   0.636   5.978   7.950  0.2212  0.6283 -0.2468
14992SOL    HW248508   0.490   6.007   7.918  0.5333  1.8434 -0.6114
14993SOL     OW48509   1.931   2.160  10.928 -0.3357 -0.0581  0.0541
14993SOL    HW148510   1.947   2.253  10.946 -0.3181 -0.1623  0.5725
14993SOL    HW248511   1.908   2.122  11.012  1.6251 -0.9390  0.2538
14994SOL     OW48512   6.771   4.746   4.388 -0.5663 -0.6974 -0.6756
14994SOL    HW148513   6.691   4.794   4.371 -1.3790 -0.7652  2.3110
14994SOL    HW248514   6.841   4.811   4.381 -1.3330  0.2648  0.3304
14995SOL     OW48515   4.803   7.718   7.017 -0.0082 -0.0739  0.1945
14995SOL    HW148516   4.757   7.638   7.045  0.0061 -0.0254  0.3614
14995SOL    HW248517   4.843   7.695   6.934  1.1707 -0.6952  0.9016
14996SOL     OW48518   5.481   8.898   0.609 -0.5959 -0.0979 -0.1456
14996SOL    HW148519   5.469   8.969   0.672 -1.1375  2.1500 -2.5507
14996SOL    HW248520   5.413   8.835   0.630 -1.3198  1.0085  0.9832
14997SOL     OW48521   9.280   6.843   1.856  0.1393  0.0146  0.2857
14997SOL    HW148522   9.235   6.760   1.871 -0.0515 -0.0754 -0.7056
14997SOL    HW248523   9.305   6.841   1.763  0.7771  0.7518  0.4246
14998SOL     OW48524   4.058   4.277   3.874 -0.3745 -0.2765 -0.0026
14998SOL    HW148525   3.964   4.282   3.855 -0.0070 -0.0202 -1.9465
14998SOL    HW248526   4.064   4.218   3.950 -1.9854 -1.7231 -0.9285
14999SOL     OW48527  10.772   8.436   3.281 -0.0311 -0.8677  0.0537
14999SOL    HW148528  10.759   8.443   3.186 -2.8467 -0.0941  0.4096
14999SOL    HW248529  10.837   8.503   3.301 -1.1750  0.6496 -1.0751
15000SOL     OW48530   8.149   4.608  10.755  0.1897 -0.1428  0.2769
15000SOL    HW148531   8.230   4.561  10.776  0.3207  0.3048  0.7934
15000SOL    HW248532   8.177   4.699  10.740 -0.1091 -0.1459 -0.3511
15001SOL     OW48533   0.351   9.079   7.132  0.0251  0.2756 -0.7365
15001SOL    HW148534   0.274   9.137   7.125  1.0716  1.7932 -0.1854
15001SOL    HW248535   0.333   9.026   7.209 -0.6144  0.3973 -0.7908
15002SOL     OW48536   2.033   6.075   8.277 -0.0710 -0.5454  0.4923
15002SOL    HW148537   2.015   5.985   8.249 -2.4782 -0.4603  1.5305
15002SOL    HW248538   2.079   6.114   8.203 -0.8181 -2.0507 -0.8311
15003SOL     OW48539   6.211   5.184   1.379 -0.0760  0.3635 -0.4588
15003SOL    HW148540   6.303   5.161   1.366 -0.2340 -0.4922 -0.1250
15003SOL    HW248541   6.206   5.276   1.353  0.8031  0.3292 -0.8010
15004SOL     OW48542   9.496   5.004   8.137  0.2330 -0.8871  0.0095
15004SOL    HW148543   9.582   4.987   8.174 -0.9831 -1.5332  2.8911
15004SOL    HW248544   9.450   4.920   8.143 -0.5183 -0.6570 -1.8000
15005SOL     OW48545   5.853   1.002  10.069 -0.1273 -0.1204  0.6862
15005SOL    HW148546   5.877   0.913  10.041 -0.9371 -0.3677  0.7681
15005SOL    HW248547   5.826   1.046   9.988  0.5882  0.1615  0.5933
15006SOL     OW48548  10.317   2.817   9.575 -0.3459 -0.0938  0.1600
15006SOL    HW148549  10.284   2.774   9.654 -0.3655  0.5296  0.5007
15006SOL    HW248550  10.406   2.783   9.565  0.8821  2.2135  2.3348
15007SOL     OW48551   6.351   6.236   0.507 -0.0791  0.5851  0.3924
15007SOL    HW148552   6.447   6.239   0.514 -0.1156  2.3741  0.5891
15007SOL    HW248553   6.334   6.229   0.414  0.2290 -1.1942  0.4366
15008SOL     OW48554   4.426   9.161   3.344  0.3047 -0.1082  0.2394
15008SOL    HW148555   4.413   9.245   3.301  0.6255 -0.6716 -1.0021
15008SOL    HW248556   4.401   9.096   3.278 -0.6837 -0.9885  1.4303
15009SOL     OW48557  10.405   3.038   2.887 -0.2014  0.5555 -0.1640
15009SOL    HW148558  10.415   3.040   2.983 -0.9484 -1.1080 -0.0243
15009SOL    HW248559  10.330   3.094   2.870  0.2758  1.3117  0.1506
15010SOL     OW48560   0.973   3.522   7.472 -0.7614 -0.1859  0.2445
15010SOL    HW148561   0.891   3.572   7.470 -2.0788 -2.2006  1.1047
15010SOL    HW248562   0.974   3.474   7.389 -0.2335  0.1119  0.0705
15011SOL     OW48563   1.296   0.576   2.349 -0.3131  0.4177 -0.0678
15011SOL    HW148564   1.252   0.557   2.432 -2.6655  1.4539 -1.0226
15011SOL    HW248565   1.325   0.667   2.357  2.2999 -0.3805  0.7437
15012SOL     OW48566   3.030   4.002   8.487  0.4362  0.4098 -0.1092
15012SOL    HW148567   2.985   3.935   8.539 -0.3001  1.1072  0.1758
15012SOL    HW248568   2.996   4.085   8.520  0.6330  0.8993 -1.0803
15013SOL     OW48569   1.635  11.090   9.639 -0.0903 -0.8142 -0.2970
15013SOL    HW148570   1.712  11.143   9.661  0.6950 -1.6836 -0.8610
15013SOL    HW248571   1.659  11.045   9.558 -0.2761 -2.8553  0.7014
15014SOL     OW48572  10.573   7.558  10.357 -0.0785 -0.5590 -0.3369
15014SOL    HW148573  10.514   7.622  10.398  0.5755  0.1529 -0.4870
15014SOL    HW248574  10.541   7.548  10.268 -0.6660 -1.0600 -0.0774
15015SOL     OW48575  11.117   0.932   2.298  0.4917 -0.0254 -0.0731
15015SOL    HW148576  11.063   0.853   2.293  0.7572 -0.1979 -0.3031
15015SOL    HW248577  11.071   0.989   2.359 -0.6533  0.3800 -1.2747
15016SOL     OW48578  10.832   6.243   9.487 -0.4363 -0.5495  0.1360
15016SOL    HW148579  10.914   6.234   9.440 -0.6802 -0.8639 -0.2330
15016SOL    HW248580  10.765   6.213   9.425 -0.8459 -0.1323  0.3659
15017SOL     OW48581   0.146  10.173   5.090  0.0010  0.2232 -0.0461
15017SOL    HW148582   0.122  10.153   5.181  0.3819 -1.0803 -0.2104
15017SOL    HW248583   0.105  10.257   5.073 -0.2479  0.3988  1.2763
15018SOL     OW48584   3.402   6.473  10.140  0.4759 -0.4095  0.0696
15018SOL    HW148585   3.336   6.511  10.082 -2.0387  1.0974  3.5559
15018SOL    HW248586   3.380   6.380  10.143 -2.6788  0.2222  2.1890
15019SOL     OW48587   4.210   7.625   8.417 -0.1298 -0.2510  0.2794
15019SOL    HW148588   4.294   7.638   8.461  1.6211 -0.4329 -2.7375
15019SOL    HW248589   4.177   7.542   8.451  2.0202 -1.2880 -0.0051
15020SOL     OW48590   2.181   6.025   0.392  0.0227  0.4967 -0.4621
15020SOL    HW148591   2.220   6.069   0.468 -1.4834  0.9227  0.1059
15020SOL    HW248592   2.086   6.035   0.405 -0.2878 -0.5139 -1.7665
15021SOL     OW48593   6.997   3.915   5.428 -0.2399 -0.2347 -0.0487
15021SOL    HW148594   6.926   3.904   5.491  2.0088 -1.5038  2.4228
15021SOL    HW248595   6.991   3.839   5.371 -0.5458 -0.6219  0.4936
15022SOL     OW48596   1.508   9.262   9.700 -0.0761  0.0533  0.1978
15022SOL    HW148597   1.566   9.294   9.631 -0.8757 -1.6637 -1.3421
15022SOL    HW248598   1.422   9.296   9.677 -0.3549 -0.5461  0.3448
15023SOL     OW48599   5.258   0.395  10.143 -0.5180 -0.5037 -0.6924
15023SOL    HW148600   5.243   0.460  10.075 -1.0643 -0.0638 -0.1608
15023SOL    HW248601   5.173   0.352  10.156 -0.7553  0.2868  0.5838
15024SOL     OW48602   0.735   3.052   5.347  0.1905  0.1085 -0.4493
15024SOL    HW148603   0.781   2.971   5.367  0.1385  0.4355  1.1229
15024SOL    HW248604   0.648   3.024   5.318 -0.1006 -0.3889  0.8701
15025SOL     OW48605   0.304   7.746   3.608 -0.1263  0.6984 -0.4699
15025SOL    HW148606   0.240   7.815   3.623  1.2689  1.5911  2.0634
15025SOL    HW248607   0.387   7.791   3.597  0.8495 -0.4842  1.3819
15026SOL     OW48608  10.106   2.471   7.940  0.1139 -0.4903 -0.1894
15026SOL    HW148609  10.067   2.429   8.016  3.0794 -3.2497  0.0570
15026SOL    HW248610  10.109   2.402   7.873 -1.6230  1.5897 -2.6114
15027SOL     OW48611   9.564   4.860   1.889  0.4286  0.7173 -0.1083
15027SOL    HW148612   9.478   4.856   1.848 -0.1806  1.6107  1.0426
15027SOL    HW248613   9.620   4.904   1.824  0.1272 -0.1743 -0.9997
15028SOL     OW48614   7.677   4.226   4.440 -0.0264 -0.0641 -0.0380
15028SOL    HW148615   7.700   4.306   4.393 -0.9203 -1.0258 -2.2394
15028SOL    HW248616   7.585   4.238   4.464  0.0988 -0.0699  0.4564
15029SOL     OW48617   1.381   4.441   8.898  0.1978 -0.0076  0.7967
15029SOL    HW148618   1.433   4.418   8.976  0.3107  0.3307  0.8216
15029SOL    HW248619   1.325   4.513   8.928  0.6107  0.4771  0.4251
15030SOL     OW48620   5.707   4.184   6.038 -0.0316  0.5195  0.0386
15030SOL    HW148621   5.624   4.231   6.046 -0.5556  0.0153 -1.8908
15030SOL    HW248622   5.691   4.118   5.971  2.2446  1.1924 -1.2976
15031SOL     OW48623   9.818   2.426   9.487 -0.1858  0.1363  0.5284
15031SOL    HW148624   9.821   2.447   9.394  0.9172  0.8870  0.7092
15031SOL    HW248625   9.826   2.331   9.490  0.6119  0.1624 -0.1315
15032SOL     OW48626   7.865   1.545   0.634 -0.0206  0.1479 -0.5930
15032SOL    HW148627   7.820   1.541   0.718  1.2942 -1.5407  0.0835
15032SOL    HW248628   7.825   1.475   0.583  1.1811 -0.7735 -0.3020
15033SOL     OW48629   3.359   7.662   7.233 -0.2012 -0.3757 -0.1093
15033SOL    HW148630   3.374   7.574   7.199 -0.4246 -0.4742  0.0403
15033SOL    HW248631   3.407   7.665   7.316  0.8275  0.0600 -0.7035
15034SOL     OW48632   5.698   1.810   7.834 -0.5617 -0.1078  0.2052
15034SOL    HW148633   5.661   1.880   7.780  1.1053  0.6426 -0.0184
15034SOL    HW248634   5.630   1.743   7.837 -1.8100  1.0981 -0.3971
15035SOL     OW48635   1.163   8.377   0.866 -0.0043 -0.3158  0.0279
15035SOL    HW148636   1.125   8.428   0.937  0.6861 -0.1883  0.3033
15035SOL    HW248637   1.115   8.293   0.869 -0.1196 -0.2366  0.5048
15036SOL     OW48638   4.545   0.925   7.105  0.2440  0.2786 -0.0143
15036SOL    HW148639   4.598   0.911   7.027 -0.0336  0.4824 -0.2399
15036SOL    HW248640   4.567   0.852   7.163  0.4702  0.1437 -0.2712
15037SOL     OW48641   4.407   6.329   9.789 -0.0038  0.1085 -0.0400
15037SOL    HW148642   4.354   6.363   9.861 -1.3359 -1.7284 -0.0731
15037SOL    HW248643   4.344   6.289   9.729  1.3062 -1.0609 -0.7125
15038SOL     OW48644   6.463   0.053   5.894  0.0028  0.4133 -0.7434
15038SOL    HW148645   6.435   0.125   5.837 -2.1497 -1.2254 -1.9183
15038SOL    HW248646   6.507  -0.007   5.834 -0.6493 -0.4799 -0.3443
15039SOL     OW48647   2.679   3.673   1.293 -0.0363  0.0899 -0.2863
15039SOL    HW148648   2.709   3.596   1.341  0.4185  1.7810  2.3338
15039SOL    HW248649   2.757   3.707   1.250  0.0100 -0.2413 -0.4658
15040SOL     OW48650   7.905   6.866   8.951  0.0655 -0.1952 -0.1293
15040SOL    HW148651   7.856   6.884   9.031 -0.3184 -2.1236  0.1062
15040SOL    HW248652   7.923   6.953   8.914 -3.6151  0.6471 -0.3154
15041SOL     OW48653   6.863   0.970   2.550  0.2218 -0.3226 -0.9303
15041SOL    HW148654   6.906   0.986   2.466 -0.0189 -0.6711 -1.1279
15041SOL    HW248655   6.832   0.879   2.543 -0.3751 -0.1375 -0.7274
15042SOL     OW48656   7.324   3.761   8.536 -0.7063 -0.0718 -0.1612
15042SOL    HW148657   7.232   3.751   8.561 -0.4525  0.9028  1.2150
15042SOL    HW248658   7.350   3.846   8.571  0.6237 -0.1533 -0.8786
15043SOL     OW48659   7.825   2.482   2.063 -0.6433  0.2782 -0.3430
15043SOL    HW148660   7.866   2.399   2.041 -0.2777  0.1876  0.6411
15043SOL    HW248661   7.753   2.491   2.000 -0.3656 -0.5268 -0.7835
15044SOL     OW48662   2.058   2.199   4.012 -0.1881  0.0439 -0.4837
15044SOL    HW148663   2.040   2.259   4.084 -1.7942 -0.9498  0.0014
15044SOL    HW248664   2.123   2.245   3.959 -2.5560  3.0628 -1.1089
15045SOL     OW48665   6.135   7.091   4.204  0.4737 -0.2208  0.5687
15045SOL    HW148666   6.062   7.097   4.142  0.9351 -0.0747  0.0392
15045SOL    HW248667   6.196   7.029   4.164  0.4085 -0.7531  1.2622
15046SOL     OW48668   7.425   2.015   5.754 -0.3330  0.8953 -0.1685
15046SOL    HW148669   7.484   1.939   5.756 -0.3092  0.9124  1.7119
15046SOL    HW248670   7.374   2.004   5.674 -0.4250 -1.1936  0.1300
15047SOL     OW48671   6.699   7.641   9.079  0.0955 -0.1144 -0.2215
15047SOL    HW148672   6.675   7.582   9.008  1.0659 -0.5971 -0.1680
15047SOL    HW248673   6.766   7.698   9.041 -0.6178  0.7623 -0.1837
15048SOL     OW48674   2.363   2.790   1.652 -0.0891 -0.5751 -0.0791
15048SOL    HW148675   2.359   2.878   1.615 -1.3274 -1.0258 -1.0736
15048SOL    HW248676   2.433   2.747   1.603  0.7338 -0.0693  0.6236
15049SOL     OW48677  10.869   5.723   4.682 -0.2535 -1.0888  0.4961
15049SOL    HW148678  10.868   5.774   4.763  0.4710 -0.1735 -0.0507
15049SOL    HW248679  10.954   5.742   4.643 -0.8440 -1.0023 -0.7948
15050SOL     OW48680   8.735   5.506  11.014  0.0765 -0.2432 -0.6926
15050SOL    HW148681   8.710   5.529  10.925  0.0425  0.2531 -0.5613
15050SOL    HW248682   8.760   5.590  11.054  0.9472 -0.5835 -0.5069
15051SOL     OW48683   0.739   5.708   6.985  0.0954 -0.3739  0.2324
15051SOL    HW148684   0.647   5.707   6.960 -0.4455  0.3476  2.0497
15051SOL    HW248685   0.762   5.616   6.998 -0.0301 -0.6379 -1.3038
15052SOL     OW48686   1.798   3.204   4.041  0.0229 -0.2055  0.3878
15052SOL    HW148687   1.770   3.286   4.082  0.7572 -0.3485  1.1943
15052SOL    HW248688   1.872   3.174   4.093  2.0472  0.3964 -1.9486
15053SOL     OW48689   4.467   8.651   8.002 -0.5897  0.3642  0.3564
15053SOL    HW148690   4.419   8.642   8.084  0.0085 -1.6413  0.5362
15053SOL    HW248691   4.400   8.638   7.934 -0.7304 -0.0616  0.5700
15054SOL     OW48692   2.413  10.671   5.140 -0.5108  0.2660  0.0001
15054SOL    HW148693   2.377  10.583   5.138 -0.7760  0.3876 -1.4836
15054SOL    HW248694   2.467  10.678   5.061 -2.4021  2.1738 -1.2582
15055SOL     OW48695   9.118  10.214   6.426 -0.1672 -0.2378  0.2841
15055SOL    HW148696   9.144  10.286   6.485  0.5907 -0.9013  0.7797
15055SOL    HW248697   9.023  10.224   6.417  0.0773  1.6085 -0.7042
15056SOL     OW48698   2.650  10.966   3.215  0.3418  0.1218  0.0583
15056SOL    HW148699   2.664  10.878   3.249  0.2924  1.0904  2.8247
15056SOL    HW248700   2.572  10.959   3.160  0.5858 -1.6269 -0.1122
15057SOL     OW48701  10.884   9.795   9.929 -0.1754 -0.0120 -0.4542
15057SOL    HW148702  10.797   9.765   9.957 -0.3345  0.9546  0.1244
15057SOL    HW248703  10.883   9.786   9.834 -1.1897  0.7018 -0.5250
15058SOL     OW48704   4.540   5.895   1.547 -0.5086 -0.5940  0.2297
15058SOL    HW148705   4.616   5.889   1.490 -1.6659  2.7378 -1.9430
15058SOL    HW248706   4.576   5.918   1.633  0.9629  0.9619 -0.7603
15059SOL     OW48707   2.406   7.325   5.910 -0.0356  0.2709 -0.3664
15059SOL    HW148708   2.334   7.378   5.945 -0.2221  0.0050 -0.3432
15059SOL    HW248709   2.483   7.381   5.918 -0.5014  1.2121 -1.9193
15060SOL     OW48710   3.875   8.685  10.235 -0.8341  0.1232 -0.7976
15060SOL    HW148711   3.874   8.722  10.323  1.8987  0.2643 -0.7440
15060SOL    HW248712   3.963   8.649  10.225 -1.0299  0.1810 -3.5095
15061SOL     OW48713   5.153  10.521   8.801 -0.1061 -0.0603  0.4381
15061SOL    HW148714   5.095  10.450   8.777 -0.5592  0.6319 -0.5949
15061SOL    HW248715   5.194  10.492   8.883 -0.8019 -1.1837  0.4120
15062SOL     OW48716   2.912  10.897   0.231 -0.0851  0.2086  0.1493
15062SOL    HW148717   2.894  10.983   0.191 -1.6167  0.2440  0.8275
15062SOL    HW248718   2.999  10.906   0.269 -0.1298  1.3970  0.0153
15063SOL     OW48719   2.843   0.314   9.667 -0.4028 -0.5362  0.3363
15063SOL    HW148720   2.929   0.279   9.689 -0.8911 -0.6207  2.3329
15063SOL    HW248721   2.783   0.270   9.728 -1.4083  1.6649  1.0423
15064SOL     OW48722   4.507   6.843   0.262 -0.0884  0.9312  0.1931
15064SOL    HW148723   4.518   6.813   0.352 -1.7850 -0.1062  0.0995
15064SOL    HW248724   4.422   6.887   0.261 -1.4506 -1.4686 -1.4128
15065SOL     OW48725  10.922   1.086   3.993 -0.1561  0.0433  0.7042
15065SOL    HW148726  10.834   1.073   3.958 -0.6871  1.0221  1.6116
15065SOL    HW248727  10.950   1.170   3.955  0.6795 -0.5784 -0.1135
15066SOL     OW48728   2.651   1.014   4.031 -0.2738 -0.0424  0.0543
15066SOL    HW148729   2.668   0.982   4.120  1.4684 -0.4596 -0.3996
15066SOL    HW248730   2.644   0.934   3.978  1.4668  0.2316 -0.6345
15067SOL     OW48731   3.587   9.604   8.628  0.0406  0.4981  0.8070
15067SOL    HW148732   3.520   9.547   8.667  0.0930 -0.3136 -0.2325
15067SOL    HW248733   3.658   9.545   8.605 -0.1176  0.8804 -0.7742
15068SOL     OW48734   5.634   9.245   3.419  0.4207  0.4939  0.2307
15068SOL    HW148735   5.648   9.340   3.422  1.2035  0.3794  0.4280
15068SOL    HW248736   5.685   9.211   3.493  1.5678 -0.2338 -0.8577
15069SOL     OW48737   1.829   5.154   7.672 -0.0439 -0.5020 -0.5986
15069SOL    HW148738   1.885   5.170   7.596 -0.6465 -0.0322 -0.9437
15069SOL    HW248739   1.777   5.078   7.648 -1.1229  0.3991 -1.1605
15070SOL     OW48740   7.460   2.815   1.655 -0.3837  0.4476 -0.1266
15070SOL    HW148741   7.498   2.867   1.726 -0.6980 -1.0954  1.2349
15070SOL    HW248742   7.533   2.764   1.620 -0.8037 -1.2736  1.3735
15071SOL     OW48743   9.423   4.768   8.929  0.1179  0.1819 -0.2584
15071SOL    HW148744   9.409   4.728   9.015  0.5463 -0.2210 -0.3736
15071SOL    HW248745   9.344   4.746   8.879 -0.3741  0.8650  0.1877
15072SOL     OW48746  10.647   7.759   6.699 -0.4511  0.5628 -0.1096
15072SOL    HW148747  10.566   7.712   6.676  0.5024 -1.9742  1.3397
15072SOL    HW248748  10.641   7.772   6.793  0.5495  0.9705 -0.0967
15073SOL     OW48749   0.406   6.748  10.924  0.1582 -0.0382  0.5174
15073SOL    HW148750   0.399   6.676  10.861 -0.9760 -0.7234  1.3917
15073SOL    HW248751   0.446   6.708  11.001  1.0929  0.6857  0.4246
15074SOL     OW48752   1.504   1.112   9.036  0.5110 -0.2451  0.0649
15074SOL    HW148753   1.528   1.172   9.106  0.2488 -1.5638  1.3324
15074SOL    HW248754   1.572   1.045   9.036 -0.2062 -1.0037 -0.0097
15075SOL     OW48755   6.039   9.353   5.836  0.2592 -0.0296  0.0309
15075SOL    HW148756   6.096   9.403   5.896  2.0619 -1.0197 -0.7730
15075SOL    HW248757   6.047   9.399   5.752 -0.4341  0.0334 -0.0005
15076SOL     OW48758  11.042   4.207   1.390 -0.0413  0.4921 -0.2865
15076SOL    HW148759  11.026   4.245   1.476  2.5542  3.4238 -0.9064
15076SOL    HW248760  11.115   4.147   1.404 -0.6586 -0.2537 -0.2095
15077SOL     OW48761   3.158   1.852   4.172  0.2281  0.1923  0.1208
15077SOL    HW148762   3.177   1.936   4.131  1.3820 -0.5706 -0.9751
15077SOL    HW248763   3.069   1.862   4.208  0.0963  1.6488 -0.5484
15078SOL     OW48764   6.064   1.526   8.967  0.2913 -0.1244  0.1488
15078SOL    HW148765   6.119   1.550   9.041 -0.3039  1.9666 -0.0300
15078SOL    HW248766   6.121   1.539   8.890  0.7470 -1.8081  0.1461
15079SOL     OW48767   6.249  10.742   2.176  0.0586 -0.5025  0.0193
15079SOL    HW148768   6.270  10.681   2.105  0.0428 -0.2964 -0.1628
15079SOL    HW248769   6.267  10.829   2.140 -1.2436 -0.3044 -0.1910
15080SOL     OW48770   7.120   6.960   6.434  0.5407 -0.4846 -0.3298
15080SOL    HW148771   7.152   6.881   6.390  0.4433 -0.1150 -1.0946
15080SOL    HW248772   7.105   7.022   6.362  2.6473  0.9809  0.3988
15081SOL     OW48773   4.935   8.714   0.470  0.3573 -0.2112 -0.0047
15081SOL    HW148774   4.930   8.744   0.560  0.6009 -1.7156  0.5241
15081SOL    HW248775   5.025   8.682   0.460  0.4396  0.2342 -0.8989
15082SOL     OW48776   9.379   4.214   9.105  0.0284  0.3428  0.5976
15082SOL    HW148777   9.473   4.227   9.118  0.2690 -0.2601 -0.4223
15082SOL    HW248778   9.343   4.302   9.107  1.1813  1.0942 -2.8705
15083SOL     OW48779   3.779   1.280   2.300  0.0561  0.6298  0.4068
15083SOL    HW148780   3.696   1.254   2.340 -0.1221 -1.8626 -1.3726
15083SOL    HW248781   3.846   1.252   2.364 -0.2719 -2.3749 -0.3982
15084SOL     OW48782  10.188   9.888   6.244 -0.1374  0.0806 -0.1719
15084SOL    HW148783  10.116   9.844   6.289 -0.4562  1.1874  0.4239
15084SOL    HW248784  10.236   9.933   6.313  0.6530  0.0298 -0.6690
15085SOL     OW48785   6.041   0.074   8.394  0.2391 -0.1873 -0.7569
15085SOL    HW148786   5.996   0.153   8.367 -0.9189 -0.7854 -0.6314
15085SOL    HW248787   5.995   0.003   8.351  0.4215 -0.8959  0.1657
15086SOL     OW48788   3.537   7.135   3.172 -0.5867 -0.3504 -0.0103
15086SOL    HW148789   3.476   7.077   3.126 -0.1770 -1.2163  0.5028
15086SOL    HW248790   3.606   7.076   3.204  0.6995  0.6340 -0.8522
15087SOL     OW48791  10.765   4.431  10.457  0.1556  0.1973  0.8076
15087SOL    HW148792  10.720   4.515  10.453  1.9810  1.2474  1.2299
15087SOL    HW248793  10.759   4.405  10.549 -0.8430 -0.4266  0.5875
15088SOL     OW48794   3.645   4.783   9.186  0.3830 -0.4745 -0.5071
15088SOL    HW148795   3.663   4.739   9.269  0.1256  0.5076  0.0956
15088SOL    HW248796   3.597   4.863   9.211  0.9026  0.1899 -1.5435
15089SOL     OW48797   2.362   0.783   3.603  0.3307 -1.0203 -0.3484
15089SOL    HW148798   2.418   0.706   3.597  2.9726  0.7747 -0.3113
15089SOL    HW248799   2.352   0.812   3.512 -0.1929 -1.0783 -0.3113
15090SOL     OW48800   7.964   8.862   8.822  0.9078 -0.0457 -0.1567
15090SOL    HW148801   7.951   8.783   8.875 -0.8697  0.3441  0.0854
15090SOL    HW248802   8.045   8.900   8.855 -1.3360  1.6186  4.3480
15091SOL     OW48803   7.973   9.645   3.845 -0.0626 -0.7108 -0.0410
15091SOL    HW148804   7.962   9.585   3.771 -1.0381 -1.7206  0.8894
15091SOL    HW248805   8.026   9.596   3.907 -2.2896 -1.3588  1.4660
15092SOL     OW48806   0.803   3.017   2.430 -0.0395 -0.3007 -0.1146
15092SOL    HW148807   0.725   3.054   2.472  0.2586 -0.8919  0.9839
15092SOL    HW248808   0.834   3.087   2.372 -0.8143  0.3038  0.1785
15093SOL     OW48809   1.397   7.978  10.410 -0.0285  0.2155  0.3144
15093SOL    HW148810   1.483   7.991  10.370  0.8957 -1.1835  1.7184
15093SOL    HW248811   1.414   7.921  10.485 -1.7166  2.4527  2.5344
15094SOL     OW48812   7.950   2.216   3.533 -0.2836 -0.2494  0.0794
15094SOL    HW148813   7.946   2.122   3.547  0.6138 -0.6397 -1.8721
15094SOL    HW248814   8.044   2.235   3.529 -0.3949  1.1021  2.3831
15095SOL     OW48815   4.573   7.029   8.696  0.5423 -0.0464 -0.0196
15095SOL    HW148816   4.557   7.082   8.618 -0.5262 -1.6283 -0.9111
15095SOL    HW248817   4.534   6.944   8.676  1.7798 -1.0315  1.5666
15096SOL     OW48818   0.728   8.457   8.563 -0.2977 -0.6525 -0.3370
15096SOL    HW148819   0.659   8.515   8.531  0.8119  0.7284 -0.3416
15096SOL    HW248820   0.779   8.511   8.623  1.7126 -1.0965 -1.5329
15097SOL     OW48821   9.874   2.141   7.147  0.1077  0.6356  0.0446
15097SOL    HW148822   9.901   2.135   7.239 -0.1703 -0.0277  0.0908
15097SOL    HW248823   9.950   2.110   7.098 -0.1987 -0.2764  0.1248
15098SOL     OW48824   4.255   7.037   9.128  0.3577 -0.2375  0.7550
15098SOL    HW148825   4.191   7.013   9.196 -0.5038  0.9792  0.4056
15098SOL    HW248826   4.281   7.126   9.149  1.6546 -0.5661  0.6443
15099SOL     OW48827  10.813   6.903   3.281 -0.1565  0.5564 -0.4172
15099SOL    HW148828  10.864   6.969   3.234  1.2706  0.7906  1.3923
15099SOL    HW248829  10.794   6.943   3.366 -1.1439 -0.5582 -0.0856
15100SOL     OW48830   3.903   4.472   9.944 -0.2483  0.0194 -0.2496
15100SOL    HW148831   3.843   4.401   9.965 -0.6707  0.7385  1.0661
15100SOL    HW248832   3.860   4.551   9.977  0.7465  0.7455 -0.6308
15101SOL     OW48833   2.335   5.937   7.317  0.2467 -0.8213  0.4107
15101SOL    HW148834   2.240   5.940   7.301  0.6462 -0.9923 -2.4571
15101SOL    HW248835   2.370   5.883   7.247  2.8061  1.7763 -0.5285
15102SOL     OW48836   5.875   0.587   5.887  0.1228 -0.2259 -0.7654
15102SOL    HW148837   5.811   0.598   5.818  0.3594  2.1192 -0.7000
15102SOL    HW248838   5.960   0.595   5.843  0.3021 -0.0224 -0.3892
15103SOL     OW48839   9.624   9.302   4.190  0.5798  0.1234 -0.0359
15103SOL    HW148840   9.615   9.314   4.096  1.7078 -0.4422 -0.2284
15103SOL    HW248841   9.579   9.220   4.209  2.1239 -0.8448 -0.4278
15104SOL     OW48842  10.876   5.128   7.158 -0.3237  0.3070 -0.1026
15104SOL    HW148843  10.784   5.105   7.142 -1.0267  0.0119  3.4715
15104SOL    HW248844  10.921   5.044   7.161 -0.0943  0.3949 -1.0199
15105SOL     OW48845   5.813   2.782   6.095 -0.4806 -0.3104 -0.0228
15105SOL    HW148846   5.734   2.813   6.140  0.3143  0.1797  1.0903
15105SOL    HW248847   5.839   2.704   6.145  1.1568  0.9826  1.2832
15106SOL     OW48848   4.380   2.205   2.047 -0.5875  0.1519 -0.0781
15106SOL    HW148849   4.344   2.168   2.127 -1.0162  1.0851  0.1815
15106SOL    HW248850   4.306   2.205   1.986  0.1836 -2.2698 -1.1322
15107SOL     OW48851   7.328   8.866   0.751 -0.4515 -0.2984 -0.0334
15107SOL    HW148852   7.409   8.819   0.768  0.2191 -0.0265 -2.1237
15107SOL    HW248853   7.338   8.949   0.797  0.2750 -0.4416  0.0815
15108SOL     OW48854   6.584   4.437   4.810  0.5275  0.1132 -0.1938
15108SOL    HW148855   6.619   4.503   4.750  3.2747 -0.2182  0.9121
15108SOL    HW248856   6.600   4.473   4.897  0.8106 -1.3994  0.4070
15109SOL     OW48857   0.439   9.931   7.655  0.6002  0.2266  0.0191
15109SOL    HW148858   0.396   9.893   7.579  0.5805 -1.2495  0.7211
15109SOL    HW248859   0.512   9.981   7.619 -0.4325  1.0111 -1.0493
15110SOL     OW48860   8.595   6.400   4.767  0.0012 -0.2547  0.0107
15110SOL    HW148861   8.540   6.356   4.702 -1.8685 -0.1275  1.4147
15110SOL    HW248862   8.588   6.345   4.845  1.2953  0.1848  0.4670
15111SOL     OW48863   7.186   5.916   2.981 -0.2417 -0.2698  0.5960
15111SOL    HW148864   7.175   6.000   2.935  0.1131 -1.2837 -1.4947
15111SOL    HW248865   7.276   5.889   2.959 -0.2895 -1.1037  1.3824
15112SOL     OW48866   2.145   7.823   5.815 -0.2614 -0.2682 -0.2974
15112SOL    HW148867   2.102   7.766   5.752  0.5972 -0.8950 -0.3305
15112SOL    HW248868   2.073   7.868   5.860 -0.9035 -0.4240 -1.1493
15113SOL     OW48869   5.826   0.379   2.479  0.2143 -0.3968  0.8009
15113SOL    HW148870   5.876   0.361   2.399  2.7743 -0.4862  2.3071
15113SOL    HW248871   5.790   0.467   2.465  0.8296 -0.3009 -0.3590
15114SOL     OW48872   4.613   1.911   6.261 -0.1387  0.1518 -0.1482
15114SOL    HW148873   4.704   1.932   6.239  0.0926 -1.5695 -0.9982
15114SOL    HW248874   4.601   1.821   6.230 -2.9481  1.2333 -2.6166
15115SOL     OW48875   2.771   2.922   2.968  0.0714 -0.3846  0.4280
15115SOL    HW148876   2.768   2.882   2.880 -1.3509  0.0326  0.2556
15115SOL    HW248877   2.854   2.892   3.005  1.7554  1.0957 -1.8381
15116SOL     OW48878   7.386   2.979   7.772 -0.5495  0.0101  0.5588
15116SOL    HW148879   7.437   2.921   7.715 -0.7127  0.2123  0.2090
15116SOL    HW248880   7.300   2.937   7.779 -0.3504 -0.3214  1.1354
15117SOL     OW48881   5.834   8.102   0.992  0.0098  0.2666 -0.1119
15117SOL    HW148882   5.841   8.015   0.953  0.4183  0.4589 -0.4760
15117SOL    HW248883   5.874   8.161   0.928  1.3352  0.5117  0.8878
15118SOL     OW48884  11.046   2.146   2.938 -0.2980 -0.2231  0.5302
15118SOL    HW148885  11.113   2.212   2.957 -1.0589  0.7398 -0.0483
15118SOL    HW248886  11.044   2.091   3.017  0.6805  0.1414  0.8301
15119SOL     OW48887   2.128   5.121   3.724  0.3224 -0.6215  0.0054
15119SOL    HW148888   2.163   5.184   3.662 -0.4206  0.2785  0.4810
15119SOL    HW248889   2.171   5.038   3.702  1.2855  0.0430 -0.6391
15120SOL     OW48890   4.024  10.589   3.999 -0.6801  0.4291 -0.1067
15120SOL    HW148891   4.014  10.597   4.094 -0.8607  0.2772 -0.1118
15120SOL    HW248892   4.054  10.499   3.986 -1.0095  0.3315 -0.2178
15121SOL     OW48893   7.106   5.118  11.048  0.0203  0.1579  0.2578
15121SOL    HW148894   7.101   5.213  11.039 -2.3287  0.0296 -0.5697
15121SOL    HW248895   7.016   5.091  11.067  0.3529 -2.0130 -0.9041
15122SOL     OW48896  10.623   1.099   8.720 -0.3071  0.4226  0.0329
15122SOL    HW148897  10.540   1.088   8.674 -0.2715 -1.8288  0.4014
15122SOL    HW248898  10.602   1.083   8.812  0.6221 -0.9343  0.0436
15123SOL     OW48899  10.152   6.176   4.313 -0.6000 -0.7143 -0.1872
15123SOL    HW148900  10.202   6.098   4.339  0.5881 -0.1330 -0.6592
15123SOL    HW248901  10.191   6.202   4.229  0.1180  1.2933  0.7122
15124SOL     OW48902   8.916   9.547   0.593  0.5013 -0.0722  0.6582
15124SOL    HW148903   8.959   9.612   0.537 -0.0003 -0.1739  0.1463
15124SOL    HW248904   8.833   9.530   0.550  0.6678 -1.1441  0.7226
15125SOL     OW48905   7.434   9.834   3.221 -1.1133  0.3553  0.6073
15125SOL    HW148906   7.457   9.924   3.196 -1.0805  0.5536  1.3064
15125SOL    HW248907   7.411   9.841   3.314 -0.3371 -0.4975  0.8801
15126SOL     OW48908   9.942   4.872   1.575  0.4766 -0.0474  0.4019
15126SOL    HW148909   9.948   4.789   1.621  0.0895 -1.1569 -1.4575
15126SOL    HW248910  10.022   4.876   1.521  0.3312  0.6132  0.2270
15127SOL     OW48911   3.973   8.756   7.533 -0.2574  0.2842  0.2444
15127SOL    HW148912   3.983   8.841   7.489  1.4394 -0.2160 -0.3709
15127SOL    HW248913   3.974   8.778   7.626  0.5341  0.9199  0.0981
15128SOL     OW48914   0.977   7.438   6.654 -0.0032 -0.2378  0.2827
15128SOL    HW148915   0.923   7.517   6.654 -0.1494 -0.3236 -0.9539
15128SOL    HW248916   0.920   7.371   6.693 -0.4939 -0.1339 -0.2508
15129SOL     OW48917   7.861   3.084   1.705  0.2290 -0.5515  0.1614
15129SOL    HW148918   7.846   3.017   1.638  0.3739  0.3949 -0.8530
15129SOL    HW248919   7.954   3.076   1.727  0.2500 -0.6696  0.0288
15130SOL     OW48920   5.860   3.966   5.633  0.3007 -0.3907  0.2528
15130SOL    HW148921   5.936   4.020   5.613  1.0372 -1.1013  1.0658
15130SOL    HW248922   5.785   4.019   5.606  1.1073 -0.6201 -2.8833
15131SOL     OW48923   1.380   3.158   6.013  0.2791  0.6829  0.4360
15131SOL    HW148924   1.378   3.190   5.923 -2.8143  0.0107  0.1464
15131SOL    HW248925   1.421   3.072   6.008  2.7000  1.7765  0.1947
15132SOL     OW48926   7.395   0.344   2.657  0.2859  0.1490  0.0351
15132SOL    HW148927   7.379   0.436   2.679 -1.1457  0.2776 -1.3831
15132SOL    HW248928   7.424   0.346   2.566  1.1312 -0.7558  0.2643
15133SOL     OW48929   4.768  10.986   8.257  0.1018  0.1150 -0.4379
15133SOL    HW148930   4.863  10.998   8.260 -0.2349  4.0026  0.2248
15133SOL    HW248931   4.754  10.897   8.291  3.3980  0.0009  1.0077
15134SOL     OW48932   3.270   2.589   5.590  0.0872 -0.0660 -0.4166
15134SOL    HW148933   3.333   2.612   5.522 -0.4897 -2.6181 -1.9763
15134SOL    HW248934   3.321   2.586   5.671  0.6791  3.6182 -0.4817
15135SOL     OW48935   9.127   5.210   1.453  0.2902 -0.1883  0.4094
15135SOL    HW148936   9.158   5.162   1.377 -2.1905 -2.2919  0.5940
15135SOL    HW248937   9.164   5.163   1.528 -0.9239 -0.9280  0.5619
15136SOL     OW48938   9.315   1.874   0.210  0.4884  0.4046  0.2578
15136SOL    HW148939   9.241   1.905   0.158 -0.6918 -1.9916  0.3860
15136SOL    HW248940   9.368   1.824   0.148  0.0544 -0.9244  0.9363
15137SOL     OW48941  10.405   6.081   1.381  0.6036 -0.2445  0.3986
15137SOL    HW148942  10.414   6.140   1.457 -1.2788  0.3014  0.2458
15137SOL    HW248943  10.476   6.107   1.323 -0.0236  1.7535  0.4509
15138SOL     OW48944   6.788   9.464   2.238 -0.0768  0.0078 -0.6081
15138SOL    HW148945   6.726   9.538   2.246 -0.3263 -0.0538 -1.7355
15138SOL    HW248946   6.736   9.394   2.199  0.4453 -0.3919 -0.5934
15139SOL     OW48947   0.163   7.689   0.648  0.0308 -0.8620  0.4655
15139SOL    HW148948   0.184   7.608   0.695 -0.1275 -1.4931 -0.5324
15139SOL    HW248949   0.213   7.683   0.567 -1.5592 -0.9363 -0.5466
15140SOL     OW48950   0.911  10.201   6.079  0.2373  0.2435  0.0650
15140SOL    HW148951   0.942  10.198   5.988  1.3800  1.6108  0.3644
15140SOL    HW248952   0.992  10.206   6.131 -0.1982 -3.3862  1.4217
15141SOL     OW48953  10.811  10.588   2.342 -0.1768  0.3924 -0.1616
15141SOL    HW148954  10.774  10.579   2.254  0.5344 -0.1996 -0.4163
15141SOL    HW248955  10.873  10.515   2.349 -1.7712 -0.8933  1.6544
15142SOL     OW48956  10.320   2.094   7.110  0.5412 -0.2231 -0.0857
15142SOL    HW148957  10.279   2.162   7.055 -0.7825  0.4378  1.6060
15142SOL    HW248958  10.283   2.012   7.078  0.8707 -0.0018 -1.0711
15143SOL     OW48959   9.905   9.973   2.494  0.1335 -0.0124 -0.4348
15143SOL    HW148960   9.814   9.949   2.481  0.1211  0.1653 -0.6800
15143SOL    HW248961   9.915  10.056   2.447  0.2161  0.3827  0.2576
15144SOL     OW48962   7.407   4.259   4.522  0.0172  0.0287 -0.2173
15144SOL    HW148963   7.347   4.308   4.577  0.5851  0.1063  0.3438
15144SOL    HW248964   7.354   4.232   4.447 -1.8267 -3.3395  2.0582
15145SOL     OW48965   2.989   9.180   4.848  0.6722  0.0043 -0.1525
15145SOL    HW148966   2.959   9.251   4.791  1.5504  0.5258  0.0145
15145SOL    HW248967   2.952   9.201   4.934  0.5903  0.0423 -0.1970
15146SOL     OW48968   4.872   6.716   9.401 -0.0399  0.5913  0.7628
15146SOL    HW148969   4.866   6.674   9.486 -0.2558  0.1062  0.5084
15146SOL    HW248970   4.950   6.771   9.407  1.6856 -1.6683  0.2986
15147SOL     OW48971   7.560   7.452   3.932  0.2793 -0.3022 -0.3370
15147SOL    HW148972   7.549   7.357   3.938  0.2865 -0.2394  0.8625
15147SOL    HW248973   7.642   7.470   3.978  0.8661  0.1869 -1.5161
15148SOL     OW48974  10.908   5.992   2.585 -0.4770  1.1496 -0.1237
15148SOL    HW148975  10.900   5.965   2.677  1.9564  0.2880 -0.0902
15148SOL    HW248976  10.918   6.087   2.590  0.0575  1.0707  0.5493
15149SOL     OW48977  10.210   2.231   5.001 -0.2239 -1.1523  0.5508
15149SOL    HW148978  10.249   2.144   4.993 -1.5560 -1.7684  0.4774
15149SOL    HW248979  10.258   2.273   5.073  2.1771 -0.9349 -1.0436
15150SOL     OW48980   4.834   4.488   8.762  0.2529  0.4641  0.9205
15150SOL    HW148981   4.923   4.494   8.797  0.9049  1.2818 -0.7817
15150SOL    HW248982   4.813   4.576   8.733 -1.6584  0.5832  2.4466
15151SOL     OW48983   2.084   1.060   4.463  0.5404 -0.4808 -0.0007
15151SOL    HW148984   2.115   1.126   4.401  0.0455  0.5074  0.7726
15151SOL    HW248985   2.049   0.990   4.408  3.3641 -1.2889 -0.8917
15152SOL     OW48986   7.215   8.298   7.118 -0.4020 -0.0501  0.1072
15152SOL    HW148987   7.238   8.250   7.198 -1.1050 -0.9890 -0.2340
15152SOL    HW248988   7.148   8.360   7.146 -0.5635 -0.2950  0.2631
15153SOL     OW48989  10.478   5.305   3.040 -0.0586 -0.0754 -0.5906
15153SOL    HW148990  10.562   5.283   2.998  0.4585 -1.3842  1.0228
15153SOL    HW248991  10.461   5.395   3.013  1.7837  0.1540 -1.1261
15154SOL     OW48992   7.139   8.220   1.438 -0.1837  0.1085 -0.2171
15154SOL    HW148993   7.132   8.214   1.342 -0.5841  1.7083 -0.3343
15154SOL    HW248994   7.098   8.140   1.470  2.1991 -1.6877 -1.3840
15155SOL     OW48995   0.848   3.028   7.748 -0.3670  0.0124 -0.2028
15155SOL    HW148996   0.924   3.068   7.791 -0.0770 -0.5501 -0.1760
15155SOL    HW248997   0.877   3.009   7.659 -0.9034  0.9864 -0.5957
15156SOL     OW48998   6.685   1.746   6.527 -0.0807 -0.4842  0.1289
15156SOL    HW148999   6.679   1.695   6.608 -1.9607  0.1486  0.4529
15156SOL    HW249000   6.680   1.837   6.557  0.6001 -0.2028 -0.6071
15157SOL     OW49001   6.754   6.028  11.083 -0.3001  0.1490  0.5554
15157SOL    HW149002   6.779   6.106  11.033 -0.4558  0.1884  0.5382
15157SOL    HW249003   6.793   6.043  11.170  0.1552 -0.0227  0.3825
15158SOL     OW49004   5.287   7.063   8.398  0.8727  0.2869 -0.2293
15158SOL    HW149005   5.194   7.069   8.421  0.2793  1.0619 -2.5171
15158SOL    HW249006   5.333   7.083   8.479 -0.9835  1.3541  0.6276
15159SOL     OW49007   5.671   9.715   9.292  0.7422  0.2044  0.5445
15159SOL    HW149008   5.766   9.719   9.304  0.6799 -1.6279  2.2579
15159SOL    HW249009   5.660   9.692   9.200  2.0447 -0.7791  0.5953
15160SOL     OW49010   2.657   1.884   7.780  0.3788 -0.0300 -0.4848
15160SOL    HW149011   2.690   1.797   7.801  1.3231  0.1080 -1.3129
15160SOL    HW249012   2.565   1.883   7.808  1.2175 -0.1891  2.5947
15161SOL     OW49013   1.951   8.767   1.655 -0.5203 -0.1460 -0.0878
15161SOL    HW149014   1.994   8.795   1.574 -0.2947 -0.3355 -0.0335
15161SOL    HW249015   1.945   8.847   1.708 -0.6159 -0.0340 -0.2668
15162SOL     OW49016   6.263   8.625  10.533  0.1845  0.5647 -0.0454
15162SOL    HW149017   6.209   8.546  10.537  1.2474 -0.2047 -0.2742
15162SOL    HW249018   6.321   8.618  10.609  1.5448  0.1539 -1.0890
15163SOL     OW49019   4.283   4.558   5.821 -0.7676  0.5235  0.5266
15163SOL    HW149020   4.352   4.515   5.770 -1.2510  0.3761 -0.0165
15163SOL    HW249021   4.326   4.584   5.903 -0.2790 -0.3335  0.5553
15164SOL     OW49022   7.382   2.040   3.628  0.9339  0.3440  0.1117
15164SOL    HW149023   7.319   1.994   3.572  0.9346 -1.6722  1.6547
15164SOL    HW249024   7.445   2.078   3.566  0.0954 -0.4902 -1.3247
15165SOL     OW49025   2.997   2.898   9.887 -0.6228  0.3603  0.4452
15165SOL    HW149026   2.915   2.913   9.840  0.9784 -0.4533 -2.8646
15165SOL    HW249027   3.007   2.802   9.887  0.9528  0.5082 -0.4074
15166SOL     OW49028   1.710  11.018   9.356  0.9360 -0.1305  0.0770
15166SOL    HW149029   1.702  11.025   9.261 -1.0752 -0.0828  0.2231
15166SOL    HW249030   1.780  11.081   9.378  0.3145  1.0628 -1.2094
15167SOL     OW49031   2.139  10.928   7.147  0.0432  0.1219  0.3459
15167SOL    HW149032   2.174  10.839   7.156 -0.8152 -0.4060 -1.1419
15167SOL    HW249033   2.152  10.968   7.233  1.3719 -1.0932  0.7583
15168SOL     OW49034   6.980   4.614  10.624  0.1340  0.2318 -0.0754
15168SOL    HW149035   6.989   4.709  10.620  0.1931  0.2588  0.6529
15168SOL    HW249036   7.064   4.584  10.659  0.2125 -0.1123 -0.5528
15169SOL     OW49037   6.125   4.884   1.106 -0.0172  0.5629  0.1465
15169SOL    HW149038   6.112   4.880   1.200 -0.0942  1.0650  0.1604
15169SOL    HW249039   6.198   4.945   1.095  0.4613 -0.0329 -0.0829
15170SOL     OW49040   6.365   3.551  10.990 -0.2489  0.2832 -0.4195
15170SOL    HW149041   6.338   3.600  10.912 -1.2986  0.7130  0.1992
15170SOL    HW249042   6.289   3.496  11.010 -0.1104  0.4153  0.4860
15171SOL     OW49043   8.828   1.178   5.503 -0.7278  0.4536  0.0175
15171SOL    HW149044   8.867   1.104   5.550 -1.9596  1.0186  2.0951
15171SOL    HW249045   8.840   1.157   5.411  0.5148 -1.4773  0.5481
15172SOL     OW49046   8.163   9.891  10.758 -0.1100 -0.1477  0.1052
15172SOL    HW149047   8.202   9.846  10.833  3.9663  0.2587 -1.5182
15172SOL    HW249048   8.101   9.828  10.721  0.7225 -1.8893  1.5343
15173SOL     OW49049   5.527   0.145   2.181 -0.0354 -0.1587  0.2944
15173SOL    HW149050   5.555   0.061   2.145  1.1338  0.7410 -1.0027
15173SOL    HW249051   5.579   0.157   2.260  0.0886 -0.4729  0.2608
15174SOL     OW49052   1.082   6.509   4.278  0.0229  0.8737 -0.1340
15174SOL    HW149053   1.044   6.579   4.225 -0.6436  1.6911  1.3687
15174SOL    HW249054   1.010   6.447   4.291 -0.1033  1.1615  0.5982
15175SOL     OW49055   6.158   2.041  11.095  0.5590 -0.3413 -0.9883
15175SOL    HW149056   6.158   2.090  11.177 -2.1753 -0.8180 -0.6086
15175SOL    HW249057   6.208   1.962  11.113 -0.4391 -0.6851  0.4143
15176SOL     OW49058   0.681   3.752   5.827 -0.4845  0.2032  0.6177
15176SOL    HW149059   0.669   3.786   5.738  0.8227  0.1320  0.3881
15176SOL    HW249060   0.759   3.798   5.859  0.6467 -1.7017  0.7254
15177SOL     OW49061   3.871   2.348   8.986  1.0442  0.6909 -0.0645
15177SOL    HW149062   3.823   2.271   8.955 -0.1811  1.2870  0.3219
15177SOL    HW249063   3.888   2.399   8.906  0.3446  0.8549 -0.1138
15178SOL     OW49064   9.018   8.814   6.496 -0.1269  0.1017 -0.3929
15178SOL    HW149065   9.010   8.909   6.484  1.4601  0.3507  0.3015
15178SOL    HW249066   9.066   8.784   6.419 -1.1975 -0.2658 -0.9412
15179SOL     OW49067   5.400   8.316   8.280 -0.5191 -0.4167 -0.2433
15179SOL    HW149068   5.482   8.365   8.279 -0.6483 -0.0976 -3.3555
15179SOL    HW249069   5.340   8.372   8.330  0.3267  0.8398 -0.5903
15180SOL     OW49070   1.791   0.383   9.815  0.7031 -0.6925 -0.1977
15180SOL    HW149071   1.810   0.457   9.757  1.0187 -1.7425 -1.4895
15180SOL    HW249072   1.727   0.418   9.878  0.5160  0.5559 -1.0359
15181SOL     OW49073   3.997   6.686   4.249  0.4182 -0.1566 -0.3494
15181SOL    HW149074   4.051   6.629   4.304  0.0372 -0.9667 -0.7836
15181SOL    HW249075   4.059   6.728   4.190  0.7631  0.2651  0.3031
15182SOL     OW49076   8.077   0.740   9.596 -0.0363  0.5567  0.7604
15182SOL    HW149077   8.118   0.655   9.582  0.1552  0.9700 -1.6039
15182SOL    HW249078   8.151   0.800   9.610 -0.1803  0.3538  2.7176
15183SOL     OW49079   4.103   2.048   5.789  0.0526 -0.0478  0.2674
15183SOL    HW149080   4.083   1.962   5.826 -0.3587 -0.1003 -0.0680
15183SOL    HW249081   4.195   2.041   5.762 -0.0988 -0.5403 -0.1673
15184SOL     OW49082  10.095   1.897   7.276  1.1144  0.0948  0.0423
15184SOL    HW149083  10.058   1.963   7.335  0.7904 -0.2284  0.1988
15184SOL    HW249084  10.059   1.814   7.307  1.4585 -0.1499 -0.2061
15185SOL     OW49085   6.938   2.627   9.310 -0.0679 -0.0915 -0.6576
15185SOL    HW149086   6.886   2.693   9.356 -0.7699 -1.2043  0.1751
15185SOL    HW249087   7.028   2.642   9.341 -0.7557 -1.9815  2.6271
15186SOL     OW49088   0.330   4.768  10.650  0.3615 -0.3470 -0.4372
15186SOL    HW149089   0.302   4.760  10.741  1.5786 -0.9063 -0.0872
15186SOL    HW249090   0.369   4.683  10.629  1.3265  0.2257 -1.0367
15187SOL     OW49091  10.583   6.053   0.461  0.6119 -0.2141 -0.2638
15187SOL    HW149092  10.651   6.071   0.526 -0.7050  1.9252  0.6192
15187SOL    HW249093  10.519   6.000   0.508  0.2304  0.3295 -0.1674
15188SOL     OW49094   1.014   4.453   5.672 -0.8166 -0.8557 -0.5402
15188SOL    HW149095   0.920   4.469   5.666 -0.5112  0.8831 -1.0688
15188SOL    HW249096   1.051   4.494   5.593  0.3761 -1.6594 -0.4304
15189SOL     OW49097  10.714   0.564   0.326 -0.0845  0.0044  0.3700
15189SOL    HW149098  10.789   0.603   0.281 -0.2750 -0.1274 -0.0747
15189SOL    HW249099  10.644   0.629   0.314  0.0219  0.2330  0.9843
15190SOL     OW49100  10.101   4.480   2.824 -0.5184  0.1157  0.2842
15190SOL    HW149101  10.132   4.556   2.776  0.8684 -1.4644 -1.4820
15190SOL    HW249102  10.105   4.408   2.761 -3.0461 -1.2088  1.4826
15191SOL     OW49103   8.169  10.041   7.977 -0.5899 -0.1765  0.1237
15191SOL    HW149104   8.180   9.959   7.929  0.1954  0.1937 -0.3537
15191SOL    HW249105   8.259  10.074   7.989 -0.8478  0.2456  0.9557
15192SOL     OW49106   4.344   7.678  11.017  0.0975 -0.4668  0.2885
15192SOL    HW149107   4.299   7.728  11.084  0.6366 -0.3276  0.5549
15192SOL    HW249108   4.417   7.734  10.990  0.1603 -0.7187 -0.0731
15193SOL     OW49109   3.640   3.801   3.972 -0.0713 -0.1712  0.0271
15193SOL    HW149110   3.586   3.761   3.903 -0.2736 -1.0634  0.6988
15193SOL    HW249111   3.630   3.895   3.957 -1.7590 -0.3089  0.0710
15194SOL     OW49112  10.576   3.337   4.903  0.0439  0.0944 -0.5666
15194SOL    HW149113  10.617   3.387   4.833  0.1711 -2.4143 -2.4225
15194SOL    HW249114  10.532   3.265   4.859 -0.5847 -1.1656  1.9054
15195SOL     OW49115   2.580   2.699  11.101 -0.2991 -0.2752  0.0083
15195SOL    HW149116   2.573   2.733  11.190 -0.4053 -1.0149  0.2840
15195SOL    HW249117   2.498   2.651  11.087 -0.1708 -0.3812 -0.3995
15196SOL     OW49118  10.655  10.380   4.237  0.3668 -0.3839  0.1442
15196SOL    HW149119  10.596  10.362   4.310  0.1416 -1.0189 -0.1860
15196SOL    HW249120  10.598  10.392   4.161  0.6708 -1.5293 -0.2839
15197SOL     OW49121   7.111   1.038   5.359  0.6483  0.4765 -0.5439
15197SOL    HW149122   7.026   1.062   5.322  0.4267  0.8736  0.1941
15197SOL    HW249123   7.144   0.969   5.302 -0.9800 -0.9698  0.1753
15198SOL     OW49124   9.791   2.083   4.288  0.6961 -0.6497 -0.3218
15198SOL    HW149125   9.808   2.060   4.379  2.8269 -2.3418 -1.0561
15198SOL    HW249126   9.876   2.107   4.253 -0.2192  0.8078 -1.6979
15199SOL     OW49127   4.757   8.673   5.368  0.1911  0.1741 -0.2151
15199SOL    HW149128   4.822   8.611   5.336 -0.5934 -1.4281  1.1501
15199SOL    HW249129   4.679   8.655   5.314  0.1203  0.3258 -0.1640
15200SOL     OW49130   8.359   4.399   0.007 -0.2991 -0.2718 -0.4759
15200SOL    HW149131   8.405   4.353   0.077  0.8087  0.2127 -0.8545
15200SOL    HW249132   8.390   4.357  -0.074 -0.1249  0.3783 -0.7621
15201SOL     OW49133   2.924   3.556   7.147 -0.4531 -0.2879  0.0774
15201SOL    HW149134   3.013   3.590   7.149 -0.4298 -0.3416 -0.0650
15201SOL    HW249135   2.903   3.539   7.239 -0.1092 -0.8191  0.0600
15202SOL     OW49136   5.883   3.964   5.069 -0.2796 -0.2186  0.2071
15202SOL    HW149137   5.969   3.936   5.038  0.7099  0.9925  1.7386
15202SOL    HW249138   5.901   4.034   5.131 -2.3904  0.1327  0.5030
15203SOL     OW49139   1.278   3.102   8.797 -0.7675 -0.7284 -0.4128
15203SOL    HW149140   1.189   3.070   8.790 -0.5378 -1.0280 -2.4530
15203SOL    HW249141   1.330   3.041   8.745  0.1482  1.1355 -1.7927
15204SOL     OW49142   8.461   1.414   4.965  0.2562 -0.1421  0.8982
15204SOL    HW149143   8.470   1.349   4.895 -0.0283  1.5772 -0.8151
15204SOL    HW249144   8.368   1.413   4.986 -0.1297  1.1099 -0.5957
15205SOL     OW49145   6.954  11.046   5.175  0.3009 -0.0225 -0.6154
15205SOL    HW149146   6.960  10.979   5.244 -1.4056 -0.7462 -1.1077
15205SOL    HW249147   7.029  11.103   5.191 -0.2216  0.0591  2.0722
15206SOL     OW49148   8.732   2.356   7.276  0.3831  0.4219 -0.0626
15206SOL    HW149149   8.807   2.297   7.284  0.9385  1.0829 -0.2818
15206SOL    HW249150   8.755   2.431   7.330 -0.0257  0.7282 -0.3072
15207SOL     OW49151   9.083   4.315   3.736 -0.1761  0.0446  0.2250
15207SOL    HW149152   8.994   4.309   3.770 -0.0094  0.4338  0.7338
15207SOL    HW249153   9.084   4.395   3.684 -0.3146 -0.3319 -0.3709
15208SOL     OW49154   5.271   5.482   5.623 -0.2970  0.2738  0.0599
15208SOL    HW149155   5.276   5.418   5.552 -2.4102 -0.9048  0.8664
15208SOL    HW249156   5.264   5.567   5.578  1.0760 -0.1648 -1.0536
15209SOL     OW49157   4.673   2.431   7.129 -0.0683 -0.2405  0.3405
15209SOL    HW149158   4.629   2.366   7.074 -0.2430  0.1703 -0.0125
15209SOL    HW249159   4.622   2.435   7.209 -0.5133  0.0223  0.0487
15210SOL     OW49160   8.636   3.928   1.291  0.9125  0.2114  0.6971
15210SOL    HW149161   8.601   3.840   1.294  0.9729  0.2237  2.7636
15210SOL    HW249162   8.725   3.917   1.255  1.5547 -0.8228  2.4919
15211SOL     OW49163   5.384   4.496   1.295 -0.1851 -0.3344 -0.0344
15211SOL    HW149164   5.437   4.449   1.359 -0.7550  0.7253  1.2464
15211SOL    HW249165   5.294   4.475   1.318 -0.3979 -0.0387 -0.5818
15212SOL     OW49166  10.662   7.922  10.958 -0.1792 -0.3545  0.1434
15212SOL    HW149167  10.642   7.854  11.022 -0.0945 -0.2360  0.2980
15212SOL    HW249168  10.732   7.973  10.999 -0.5599  0.1090  0.2314
15213SOL     OW49169   0.696   7.364  11.047 -0.0517  0.2444  0.1251
15213SOL    HW149170   0.669   7.443  11.001 -1.5861  0.2797  1.0096
15213SOL    HW249171   0.649   7.368  11.130 -0.1393 -1.5938  0.1939
15214SOL     OW49172   1.379   7.209   5.534 -0.4732  0.0593  0.0097
15214SOL    HW149173   1.369   7.169   5.447  0.0021 -0.4252  0.1678
15214SOL    HW249174   1.466   7.250   5.531  0.4925 -1.7773  0.9373
15215SOL     OW49175   9.953   9.196   2.114 -0.0224 -0.0430  0.1044
15215SOL    HW149176  10.014   9.144   2.165  0.8160 -0.4099 -1.2168
15215SOL    HW249177   9.995   9.206   2.029 -1.7741 -0.2954 -0.8561
15216SOL     OW49178   6.597   8.375   4.110 -0.0601 -0.0536  0.1133
15216SOL    HW149179   6.655   8.413   4.044 -0.7864  0.2360 -0.3710
15216SOL    HW249180   6.522   8.434   4.112 -0.4966 -0.6151  0.4824
15217SOL     OW49181   4.884   3.020  10.588  0.8077 -0.0927  0.6485
15217SOL    HW149182   4.904   2.927  10.579  0.3054 -0.1004 -0.6032
15217SOL    HW249183   4.919   3.044  10.674  1.0938 -1.3898  0.9149
15218SOL     OW49184   5.863   0.030   5.360  0.2394  0.2485  0.3671
15218SOL    HW149185   5.819   0.104   5.319  0.1819 -0.4739 -0.9450
15218SOL    HW249186   5.792  -0.029   5.386  0.3427 -0.2131 -0.3568
15219SOL     OW49187   9.141   9.371   7.845  0.3098 -0.1032  0.2592
15219SOL    HW149188   9.114   9.440   7.784 -2.1661 -1.0869  0.1587
15219SOL    HW249189   9.094   9.389   7.926  1.8455 -0.1001  1.2053
15220SOL     OW49190   2.313   1.154   7.288  0.3966  0.8405 -0.0740
15220SOL    HW149191   2.315   1.140   7.193  1.3568 -0.8474  0.1471
15220SOL    HW249192   2.271   1.075   7.322 -0.4928  1.7043  0.8955
15221SOL     OW49193   2.840   0.256   5.318 -0.6388  0.0559 -1.0273
15221SOL    HW149194   2.832   0.253   5.413 -0.5310 -1.1355 -1.0370
15221SOL    HW249195   2.923   0.301   5.302 -1.7013  2.2481 -0.6411
15222SOL     OW49196   4.758   4.679   1.573  0.0772  0.1553  0.1717
15222SOL    HW149197   4.756   4.737   1.649  0.4392 -0.0025  0.3016
15222SOL    HW249198   4.821   4.611   1.596  1.0326  0.7139 -0.7120
15223SOL     OW49199   2.209   8.436   1.478  0.3501 -0.1355 -0.0004
15223SOL    HW149200   2.241   8.363   1.426  1.4041  0.6757 -0.5412
15223SOL    HW249201   2.140   8.399   1.533  1.0356 -1.5738 -0.0811
15224SOL     OW49202   5.556   0.814  10.603  0.0754 -0.4512  0.4806
15224SOL    HW149203   5.587   0.900  10.632 -0.0620 -0.5403  0.8894
15224SOL    HW249204   5.611   0.752  10.650 -1.1061 -0.6293  1.6795
15225SOL     OW49205   1.318  10.104   4.986  0.4814  0.2705 -0.4720
15225SOL    HW149206   1.320  10.199   4.976  0.1849  0.3202 -0.0876
15225SOL    HW249207   1.225  10.083   4.997  0.6811  0.1148  1.0523
15226SOL     OW49208  10.209   2.046   1.665 -0.5258  0.1872 -0.1204
15226SOL    HW149209  10.186   2.096   1.587 -0.1043 -0.3195 -0.5724
15226SOL    HW249210  10.135   1.986   1.678  0.1150 -0.8396 -1.0706
15227SOL     OW49211   9.956   0.127   5.063 -0.0430  0.1330  0.6465
15227SOL    HW149212   9.893   0.070   5.017 -0.9325 -0.1235  2.1169
15227SOL    HW249213   9.963   0.090   5.150  0.8937  1.1513  1.0296
15228SOL     OW49214   8.034   5.822  10.914 -0.5690  0.8916 -0.1058
15228SOL    HW149215   8.020   5.808  10.820 -0.5618  2.0221 -0.2914
15228SOL    HW249216   8.001   5.910  10.930  0.5448  1.1863  0.7047
15229SOL     OW49217   7.634   4.394   8.890  0.4986  0.8309  0.0648
15229SOL    HW149218   7.666   4.428   8.974  1.8914 -1.3498  0.4880
15229SOL    HW249219   7.539   4.394   8.899  0.5377  2.5487  0.8203
15230SOL     OW49220   8.983   4.468  11.104 -0.0339 -0.4733 -0.2916
15230SOL    HW149221   8.910   4.492  11.161  0.0240 -0.8936 -0.0367
15230SOL    HW249222   9.024   4.394  11.148  0.0243 -0.7896 -0.8719
15231SOL     OW49223   0.692   3.261   5.726  0.4733 -0.0949 -0.1633
15231SOL    HW149224   0.705   3.252   5.820  1.0602 -0.2363 -0.2571
15231SOL    HW249225   0.684   3.171   5.694 -1.9892 -0.0182  0.0488
15232SOL     OW49226   2.714   5.571   6.870 -0.7099 -0.0249 -0.4584
15232SOL    HW149227   2.767   5.492   6.884 -0.0082  0.4713 -0.2225
15232SOL    HW249228   2.758   5.638   6.922 -0.6092  0.8177 -1.5921
15233SOL     OW49229  10.862   7.019   9.731 -0.6616  0.1576 -0.4469
15233SOL    HW149230  10.869   6.930   9.699  2.7827  1.0753 -2.8030
15233SOL    HW249231  10.949   7.040   9.765 -1.2987  2.6539 -0.1273
15234SOL     OW49232  11.028   5.350   7.181 -0.4503  0.3222  0.0961
15234SOL    HW149233  11.034   5.355   7.277 -0.0156 -0.7427  0.1414
15234SOL    HW249234  10.970   5.276   7.164 -0.2018  0.2502 -0.4645
15235SOL     OW49235   0.833   2.016   0.100  0.3849 -0.1111  1.1917
15235SOL    HW149236   0.738   2.029   0.094  0.5064  0.3900  0.2804
15235SOL    HW249237   0.861   2.077   0.168  0.2488  0.7975  0.4433
15236SOL     OW49238   7.566  10.645   6.861 -0.1432 -0.2769  0.1690
15236SOL    HW149239   7.612  10.634   6.777 -1.3725 -0.8302 -0.4670
15236SOL    HW249240   7.624  10.700   6.913  0.9951 -0.5371 -0.7754
15237SOL     OW49241   0.495   7.879   3.352 -0.2791 -0.2390 -0.5551
15237SOL    HW149242   0.527   7.966   3.377  1.5433 -1.3068  1.0883
15237SOL    HW249243   0.572   7.823   3.355 -1.1901 -1.7610 -2.6658
15238SOL     OW49244   7.665   6.308   5.953 -0.1173 -0.9645 -0.3489
15238SOL    HW149245   7.721   6.249   6.003 -1.7417 -2.6262 -0.3560
15238SOL    HW249246   7.723   6.347   5.887  1.5243 -0.6249  1.2305
15239SOL     OW49247   8.342   6.681   9.989 -0.9646  0.1304  0.1245
15239SOL    HW149248   8.382   6.756   9.945 -1.2284 -0.6342 -1.4865
15239SOL    HW249249   8.414   6.619  10.001 -1.2853 -0.6002 -1.3719
15240SOL     OW49250   5.150   9.328   7.605  0.5760 -0.2756  0.4248
15240SOL    HW149251   5.135   9.359   7.516 -0.0488 -2.7610 -0.4371
15240SOL    HW249252   5.197   9.245   7.594  2.0764  0.1963  2.5244
15241SOL     OW49253   6.026   2.324   8.869  0.0958  0.1679  0.2710
15241SOL    HW149254   6.116   2.320   8.902  0.1568  1.1301  0.2620
15241SOL    HW249255   6.031   2.385   8.795 -0.5691  0.2655  0.3028
15242SOL     OW49256   2.653   5.111   4.711 -0.1260 -0.4070 -0.4350
15242SOL    HW149257   2.618   5.030   4.746 -2.2691 -0.1682 -1.8377
15242SOL    HW249258   2.665   5.168   4.788  2.6325 -2.3444  0.7453
15243SOL     OW49259   6.348   1.567   3.342 -0.3763  0.1774 -0.0698
15243SOL    HW149260   6.382   1.655   3.325  1.5840 -0.6061 -0.5657
15243SOL    HW249261   6.320   1.570   3.434  1.5865  0.7994  0.5704
15244SOL     OW49262   6.296   0.724   1.732 -0.0549  0.5088 -0.2942
15244SOL    HW149263   6.271   0.817   1.732 -0.8255  0.3079 -0.5097
15244SOL    HW249264   6.268   0.692   1.647 -1.1157 -0.2546  0.3134
15245SOL     OW49265   2.171   3.819   8.660  0.4247 -0.1538  0.0977
15245SOL    HW149266   2.220   3.897   8.638 -1.0618  0.6101 -0.6788
15245SOL    HW249267   2.196   3.798   8.750  0.8954  1.1738  0.2897
15246SOL     OW49268   5.017   7.228   7.252 -0.4071  0.5300  0.7723
15246SOL    HW149269   5.075   7.154   7.237  0.6944  1.4163  0.5506
15246SOL    HW249270   4.935   7.203   7.209  0.7005  0.4171 -1.3965
15247SOL     OW49271   8.943   0.474   2.641 -0.0718 -0.4130 -0.0561
15247SOL    HW149272   8.954   0.492   2.548  0.0483 -0.0151  0.0314
15247SOL    HW249273   9.033   0.468   2.674  0.0421 -4.2903 -0.6301
15248SOL     OW49274   6.951   8.606   7.561  0.2429 -0.3599  0.2394
15248SOL    HW149275   6.946   8.691   7.518 -1.6396 -0.8375 -0.5866
15248SOL    HW249276   6.992   8.549   7.497 -1.7467 -0.8594 -0.6724
15249SOL     OW49277   1.147   7.856   2.581 -0.0029  0.2760 -0.7067
15249SOL    HW149278   1.059   7.821   2.596  0.4724 -0.3753  0.7514
15249SOL    HW249279   1.198   7.826   2.656  0.9660  2.3855 -0.4414
15250SOL     OW49280  10.950   0.554   5.807 -0.4056 -0.3072 -0.4206
15250SOL    HW149281  10.997   0.471   5.810  0.7410  0.3404 -0.1240
15250SOL    HW249282  10.896   0.548   5.728  0.0036 -1.1416 -0.6455
15251SOL     OW49283   1.791   6.383   6.559 -0.1568 -0.0329  0.0980
15251SOL    HW149284   1.882   6.353   6.561 -0.0765  0.1154 -0.7634
15251SOL    HW249285   1.787   6.441   6.483 -0.8645  0.3247  0.3983
15252SOL     OW49286   3.864   1.853   6.670  0.3252  0.5434  0.0481
15252SOL    HW149287   3.887   1.796   6.597  3.1070  0.9057  0.5126
15252SOL    HW249288   3.892   1.940   6.642  0.2871  0.8904  1.0545
15253SOL     OW49289   1.765   5.682   9.180 -0.1369  0.2521 -0.1633
15253SOL    HW149290   1.710   5.616   9.137 -1.0258 -0.0739  1.3823
15253SOL    HW249291   1.704   5.751   9.206  0.8023  1.7881 -1.8728
15254SOL     OW49292   1.256   0.468   9.163  0.6026  0.4342  0.0326
15254SOL    HW149293   1.277   0.391   9.215  1.1226  0.2145 -0.4923
15254SOL    HW249294   1.273   0.441   9.072  0.1947  0.9676 -0.2038
15255SOL     OW49295   3.714  10.680   0.105  0.2540  0.1314 -0.3344
15255SOL    HW149296   3.675  10.603   0.063  0.6283 -0.6957  0.7879
15255SOL    HW249297   3.639  10.728   0.141  0.0065  0.3863 -1.1637
15256SOL     OW49298   2.717   0.975   5.557 -0.3407 -0.3259  0.3987
15256SOL    HW149299   2.702   0.975   5.462  1.1972 -0.4471  0.1328
15256SOL    HW249300   2.720   0.883   5.581 -0.0611 -0.3016  0.4544
15257SOL     OW49301  10.244   4.734   3.190  0.4418  0.5837 -0.1169
15257SOL    HW149302  10.211   4.695   3.271 -0.8713 -0.4249 -1.1034
15257SOL    HW249303  10.168   4.741   3.133  1.3781  1.0477 -1.3616
15258SOL     OW49304   4.549   5.589   9.820 -0.0475  0.5656 -0.3105
15258SOL    HW149305   4.583   5.632   9.898  0.0602 -1.8747  1.0907
15258SOL    HW249306   4.617   5.527   9.794 -0.9202 -0.0859 -1.1435
15259SOL     OW49307   4.051   4.061   5.052  0.1954 -0.1263 -0.3857
15259SOL    HW149308   4.091   4.117   5.119 -0.5024 -0.8098  0.6225
15259SOL    HW249309   4.123   4.004   5.024  0.6034  0.4532 -0.5452
15260SOL     OW49310   5.026   0.342   8.573  0.9440  0.5240 -0.8064
15260SOL    HW149311   5.030   0.251   8.545 -0.2917 -0.5483  2.1310
15260SOL    HW249312   5.117   0.372   8.571  1.3448 -0.6939 -1.9561
15261SOL     OW49313   4.106   5.184   3.625  0.2228  0.1448 -0.1692
15261SOL    HW149314   4.018   5.159   3.598 -0.1877  0.5196  0.7833
15261SOL    HW249315   4.107   5.280   3.618  0.4185  0.1730  0.1941
15262SOL     OW49316   7.360   8.662   0.056  0.2139  0.2123  0.5283
15262SOL    HW149317   7.302   8.726   0.016  1.3187  0.6197 -0.4836
15262SOL    HW249318   7.332   8.578   0.018  1.3120  0.6021 -1.2774
15263SOL     OW49319   0.689   9.094   7.324 -0.1782 -0.3353  0.2294
15263SOL    HW149320   0.627   9.021   7.324  1.1648 -1.5281 -0.8477
15263SOL    HW249321   0.766   9.061   7.371  0.9733 -0.1305 -1.4065
15264SOL     OW49322   7.024  10.640   0.338  0.4691  0.5396 -0.1830
15264SOL    HW149323   6.997  10.613   0.425 -0.0206  2.9087  0.4736
15264SOL    HW249324   7.114  10.607   0.329  0.4250  0.0325  1.0934
15265SOL     OW49325   5.403   9.506   3.036 -0.3061 -0.2035 -1.0541
15265SOL    HW149326   5.362   9.528   2.952 -1.5763 -1.4571 -0.7900
15265SOL    HW249327   5.408   9.411   3.037 -0.4932 -0.2248  0.3748
15266SOL     OW49328   6.570   6.814   5.203 -0.2248  0.1967  0.1001
15266SOL    HW149329   6.514   6.759   5.149  0.8354  0.5405 -1.4100
15266SOL    HW249330   6.659   6.781   5.187  0.0054 -1.1205  3.3324
15267SOL     OW49331   8.496  10.766   7.300  0.1864 -0.4061  0.3470
15267SOL    HW149332   8.406  10.769   7.266 -0.6542  0.0125  2.4262
15267SOL    HW249333   8.526  10.857   7.294  0.9035 -0.7285 -1.3381
15268SOL     OW49334   6.107   8.227   1.595  0.1872  0.4816 -0.2271
15268SOL    HW149335   6.047   8.183   1.655  0.7935  0.6487  0.5202
15268SOL    HW249336   6.051   8.284   1.541 -0.3123  0.7074  0.5227
15269SOL     OW49337   2.009   0.262   0.223  0.5144 -0.2855 -0.1590
15269SOL    HW149338   2.093   0.217   0.217  0.7333  0.1691 -0.5662
15269SOL    HW249339   2.029   0.344   0.268  0.6749  0.7183 -1.9650
15270SOL     OW49340   3.251   6.989   1.449  0.1585 -0.0226  0.1147
15270SOL    HW149341   3.274   6.897   1.440 -0.5451 -0.1279 -0.8527
15270SOL    HW249342   3.177   6.990   1.510  0.4187 -0.0568  0.4302
15271SOL     OW49343   2.949   7.413   5.438  0.2160 -0.4098  0.1444
15271SOL    HW149344   2.949   7.454   5.351 -1.6473 -0.1194  0.2406
15271SOL    HW249345   2.924   7.322   5.421  1.3206 -0.7427  0.2447
15272SOL     OW49346   7.102   7.420   9.039  0.6358 -0.0062 -0.4825
15272SOL    HW149347   7.122   7.463   9.123 -0.3712  0.1171 -0.2987
15272SOL    HW249348   7.007   7.413   9.038  0.7158 -1.1737 -1.0479
15273SOL     OW49349   1.106  10.997   1.006 -0.1174  0.3223  0.4118
15273SOL    HW149350   1.134  10.906   1.002 -0.0774  0.3066  0.9608
15273SOL    HW249351   1.103  11.025   0.915  0.3775 -0.0727  0.2688
15274SOL     OW49352   6.330   5.177   8.847 -0.4636  0.7648 -0.6486
15274SOL    HW149353   6.338   5.252   8.788 -0.7038  2.5465  1.4606
15274SOL    HW249354   6.420   5.151   8.866 -0.3815  0.1843 -1.7081
15275SOL     OW49355   4.069   4.812   9.733  0.1392 -0.0936 -0.2476
15275SOL    HW149356   4.124   4.814   9.812 -1.6855  2.3759  1.1074
15275SOL    HW249357   4.082   4.898   9.692 -2.7805  0.7249  0.3030
15276SOL     OW49358  10.432   6.264   7.141  0.3276  0.3719 -0.2183
15276SOL    HW149359  10.344   6.254   7.106  0.1041 -0.4396  0.5605
15276SOL    HW249360  10.472   6.178   7.130  0.4362  0.2534  0.9998
15277SOL     OW49361   0.016   1.382   9.103 -0.0312  0.2506  0.0894
15277SOL    HW149362  -0.055   1.445   9.096 -0.4275 -0.2070 -0.0742
15277SOL    HW249363   0.041   1.384   9.195 -0.4357  0.2187  0.2012
15278SOL     OW49364  10.653  10.231   2.209  0.1679  0.0442 -0.3616
15278SOL    HW149365  10.564  10.256   2.182  0.2285 -0.2151 -0.8071
15278SOL    HW249366  10.699  10.213   2.127 -0.0102 -1.9992 -0.0556
15279SOL     OW49367   6.687   5.154   3.784  0.4235  0.2807  0.0379
15279SOL    HW149368   6.749   5.096   3.828  0.1243  0.7427  1.0862
15279SOL    HW249369   6.625   5.095   3.742  0.3613 -0.1610  0.7476
15280SOL     OW49370  10.113   0.391   2.165  0.0840  0.5192 -0.5250
15280SOL    HW149371  10.172   0.453   2.206  1.3073  0.4066 -2.0339
15280SOL    HW249372  10.170   0.329   2.120 -1.1154 -1.2110  0.1991
15281SOL     OW49373   4.242   4.276   5.516  0.1691  0.2096 -0.5733
15281SOL    HW149374   4.300   4.206   5.545  0.6202  0.3550 -1.1048
15281SOL    HW249375   4.189   4.296   5.593 -0.4995 -1.2335 -0.6389
15282SOL     OW49376   0.718   7.463   6.377  0.1630  0.1959 -0.4427
15282SOL    HW149377   0.775   7.393   6.409  0.2305  0.3141 -0.3010
15282SOL    HW249378   0.655   7.419   6.320 -1.0411 -0.3049  1.1881
15283SOL     OW49379   7.995   2.459   4.927 -0.9082  0.3177 -0.1033
15283SOL    HW149380   8.073   2.403   4.928 -1.2952 -0.2255 -0.1429
15283SOL    HW249381   7.979   2.478   5.020  1.4342  3.5175 -0.1750
15284SOL     OW49382  10.421   2.475   4.676  0.0040 -0.0638 -0.3364
15284SOL    HW149383  10.456   2.410   4.738 -1.4958  0.6183  1.2800
15284SOL    HW249384  10.380   2.541   4.731 -1.4851  0.5258 -2.0764
15285SOL     OW49385   7.764   6.848   3.678 -0.3378 -0.4020  0.7277
15285SOL    HW149386   7.716   6.927   3.704  0.4073 -0.5275  2.6230
15285SOL    HW249387   7.779   6.801   3.760  1.4505 -1.2330 -0.0326
15286SOL     OW49388   7.817   7.655   2.139 -0.3877 -0.2595  0.5498
15286SOL    HW149389   7.767   7.669   2.220 -0.9352  1.6272 -0.0859
15286SOL    HW249390   7.848   7.741   2.114  0.5243 -0.9483 -0.8114
15287SOL     OW49391   6.075   9.019   3.449 -0.2053 -0.3946  0.0524
15287SOL    HW149392   6.142   9.002   3.515  0.4138 -0.3206 -0.5390
15287SOL    HW249393   6.114   9.086   3.393 -0.6071 -0.6539 -0.5489
15288SOL     OW49394   9.471   4.572   9.395  0.2696 -0.4375 -1.0400
15288SOL    HW149395   9.542   4.605   9.451 -1.6361  1.2356  0.5503
15288SOL    HW249396   9.434   4.498   9.444 -0.7128  0.3424 -0.5769
15289SOL     OW49397  10.389   1.137   1.604 -0.7290  0.0301  0.1288
15289SOL    HW149398  10.359   1.097   1.523  0.9168  1.3323 -1.1900
15289SOL    HW249399  10.322   1.203   1.624 -2.5091 -1.9970  1.3440
15290SOL     OW49400   3.309   0.621   1.281 -0.0735 -0.5744  0.2755
15290SOL    HW149401   3.233   0.590   1.330 -1.0036  0.4511 -0.4645
15290SOL    HW249402   3.335   0.547   1.227  0.8447 -1.6631  2.0856
15291SOL     OW49403   6.005   0.471   8.920  0.3055  0.5117 -0.6092
15291SOL    HW149404   6.077   0.495   8.861  2.1965  0.2017  1.4273
15291SOL    HW249405   6.029   0.384   8.952 -1.0639  0.3594  0.0496
15292SOL     OW49406   4.148   0.606   5.519  0.3582 -0.7852  0.4452
15292SOL    HW149407   4.057   0.620   5.545  0.2103  0.8069 -0.7485
15292SOL    HW249408   4.196   0.678   5.560  0.2678  1.2017 -2.6136
15293SOL     OW49409  11.086   8.724   8.988 -0.4005 -0.5243  0.0009
15293SOL    HW149410  11.099   8.819   8.997 -0.7581 -0.4094 -0.6510
15293SOL    HW249411  10.993   8.711   9.007  0.1839 -1.1318  2.9668
15294SOL     OW49412  11.001   7.309   6.267  0.2112 -0.4924  0.2138
15294SOL    HW149413  11.001   7.398   6.232 -0.2389 -0.1187  1.1137
15294SOL    HW249414  11.092   7.293   6.293  0.2891 -0.2873  0.0626
15295SOL     OW49415   3.668   7.576   0.423  0.6088 -0.1958  0.4896
15295SOL    HW149416   3.604   7.517   0.463  0.6387  0.7354  1.9860
15295SOL    HW249417   3.664   7.556   0.330 -0.5905 -1.3713  0.7610
15296SOL     OW49418   8.556   6.736   1.446 -0.7185 -0.3398  0.0481
15296SOL    HW149419   8.608   6.808   1.410  0.1199 -0.2451  1.4268
15296SOL    HW249420   8.465   6.762   1.429 -0.4064  0.7881  0.0610
15297SOL     OW49421   9.816   3.781  11.122  0.6404  0.0138  0.0774
15297SOL    HW149422   9.860   3.697  11.128 -0.6626 -0.6313  1.3314
15297SOL    HW249423   9.832   3.823  11.207 -1.7741 -0.6318  0.9537
15298SOL     OW49424   4.010   7.781   4.068  0.4879 -0.5749 -0.3478
15298SOL    HW149425   4.073   7.849   4.041 -0.0460  0.7764  1.5788
15298SOL    HW249426   3.989   7.804   4.158  0.2719 -3.3511  0.3761
15299SOL     OW49427   6.204   9.989   8.881  0.1325 -0.6295  0.3968
15299SOL    HW149428   6.245   9.937   8.811  2.3723  0.6432  0.6809
15299SOL    HW249429   6.136   9.932   8.916  1.5403 -2.8450 -0.2429
15300SOL     OW49430   2.092   4.349   8.041 -0.3178 -0.1364 -0.3128
15300SOL    HW149431   2.058   4.260   8.035  0.9395 -0.8102  1.4647
15300SOL    HW249432   2.145   4.360   7.962  0.5519 -1.4656  0.0571
15301SOL     OW49433   7.045   1.233  10.241 -0.1889  0.2607 -0.9080
15301SOL    HW149434   7.015   1.180  10.167 -1.6617  2.5675 -2.0847
15301SOL    HW249435   7.088   1.309  10.201  2.8674 -0.4423  0.7170
15302SOL     OW49436   3.825   4.665  10.607 -0.4821  0.0252 -0.3858
15302SOL    HW149437   3.797   4.687  10.696  0.9361 -1.5327  0.4889
15302SOL    HW249438   3.811   4.746  10.558 -1.5158  0.8630  1.1798
15303SOL     OW49439   1.861   1.829   8.318  0.0460  0.3270 -0.5415
15303SOL    HW149440   1.796   1.896   8.298 -1.4277 -0.8642  0.0306
15303SOL    HW249441   1.839   1.756   8.260  0.3657 -0.3884  0.2084
15304SOL     OW49442   3.765   6.351   5.826  0.2823 -0.1623 -0.3288
15304SOL    HW149443   3.800   6.400   5.752  0.0042 -1.1727 -1.1419
15304SOL    HW249444   3.779   6.259   5.803 -3.8535 -0.7449 -1.2749
15305SOL     OW49445   7.044   7.841   7.552 -0.3856 -0.6894  0.0481
15305SOL    HW149446   7.120   7.898   7.562  0.1752 -0.6000 -3.4782
15305SOL    HW249447   7.071   7.757   7.589  1.5050 -0.6672 -1.1948
15306SOL     OW49448   1.289   8.308   6.069  0.1705  0.2485  0.5380
15306SOL    HW149449   1.252   8.230   6.029  3.1148 -0.6233 -0.8133
15306SOL    HW249450   1.281   8.293   6.164  0.1714 -1.4668  0.2985
15307SOL     OW49451   5.567   5.282   4.663 -0.5336  0.2595  0.0672
15307SOL    HW149452   5.544   5.255   4.574 -1.8565 -0.3597  0.5866
15307SOL    HW249453   5.639   5.344   4.650 -1.4048  1.0189 -1.5112
15308SOL     OW49454   6.834   2.836   1.516 -0.2014  0.7485  0.5214
15308SOL    HW149455   6.887   2.780   1.460 -0.8420  0.1289  0.5217
15308SOL    HW249456   6.872   2.923   1.506 -0.4678  0.7090 -1.0868
15309SOL     OW49457   2.752   6.426   8.012 -0.4029 -0.1268 -0.0908
15309SOL    HW149458   2.826   6.392   7.961 -1.3596  0.2635 -1.7986
15309SOL    HW249459   2.724   6.352   8.065  1.1174 -0.3165  0.5046
15310SOL     OW49460   6.545   5.733   8.550 -0.7650  0.2560  0.6065
15310SOL    HW149461   6.622   5.758   8.602 -0.2433  1.6427 -0.7474
15310SOL    HW249462   6.568   5.759   8.461 -3.1110  1.4120  0.2730
15311SOL     OW49463   9.386   3.379   1.601 -0.1735 -0.6750  0.2010
15311SOL    HW149464   9.325   3.307   1.615 -0.5148  0.0738  3.0840
15311SOL    HW249465   9.358   3.418   1.518 -0.0576 -3.6635 -1.3858
15312SOL     OW49466  10.804   0.997   1.654  0.5586 -0.2893  0.0731
15312SOL    HW149467  10.849   0.915   1.673 -0.1157 -1.1977 -1.9210
15312SOL    HW249468  10.780   0.990   1.561  1.2479  2.5371 -0.4257
15313SOL     OW49469   4.384   5.845   5.855  0.0206 -0.0884  0.4685
15313SOL    HW149470   4.338   5.850   5.939  0.4723  0.5250  0.6939
15313SOL    HW249471   4.450   5.915   5.861  0.0135 -0.0008 -0.4210
15314SOL     OW49472   1.402   2.470   7.985 -0.0413 -0.3192  0.0035
15314SOL    HW149473   1.400   2.375   7.972  0.4352 -0.5086  1.2378
15314SOL    HW249474   1.488   2.497   7.951  0.6114 -0.6117  1.3689
15315SOL     OW49475  10.913   7.860   8.931  0.2520 -0.0359 -0.5104
15315SOL    HW149476  11.002   7.833   8.954 -0.8200 -1.9241  2.0243
15315SOL    HW249477  10.893   7.931   8.992 -0.0693  0.2185 -0.9069
15316SOL     OW49478   9.386   4.605   4.795  0.6536 -0.2133  0.5850
15316SOL    HW149479   9.296   4.597   4.766  0.7210 -0.4867  0.4432
15316SOL    HW249480   9.384   4.578   4.887  0.9613 -2.5914 -0.0253
15317SOL     OW49481   4.481   6.773   2.803 -0.0175  0.3916 -0.1418
15317SOL    HW149482   4.395   6.764   2.762  0.2952  0.5047 -0.8233
15317SOL    HW249483   4.474   6.854   2.855 -0.5306  0.0464  0.3421
15318SOL     OW49484   5.933   1.465   9.739 -0.0373  0.2739  0.1769
15318SOL    HW149485   6.013   1.482   9.690 -1.7196  3.5584 -1.7782
15318SOL    HW249486   5.951   1.384   9.787  4.1356  0.4744 -0.6697
15319SOL     OW49487   5.604  10.092   1.444 -0.3130  0.4095 -0.2982
15319SOL    HW149488   5.651  10.014   1.414  0.6117  0.4479  0.9820
15319SOL    HW249489   5.512  10.074   1.424 -0.1195 -1.0330  0.0071
15320SOL     OW49490   4.211   7.053  11.107 -0.3537  0.0974 -0.4509
15320SOL    HW149491   4.153   7.068  11.181  0.4264 -1.1039  0.4533
15320SOL    HW249492   4.299   7.059  11.145  0.1071  1.1381 -1.6335
15321SOL     OW49493   3.011   9.991   0.077 -0.6651 -0.7445  0.2376
15321SOL    HW149494   2.958   9.964   0.153 -0.1371 -0.5776  0.6680
15321SOL    HW249495   3.099   9.962   0.098  0.1170  1.9709  1.1052
15322SOL     OW49496   0.329   2.790  10.443 -0.3101 -0.0194  0.1399
15322SOL    HW149497   0.248   2.761  10.484  0.3291 -0.4410  1.1412
15322SOL    HW249498   0.309   2.878  10.410 -2.2921 -1.4545 -3.0021
15323SOL     OW49499   9.459   8.615   6.313  0.0685  0.3971 -0.0986
15323SOL    HW149500   9.435   8.657   6.231 -0.3842 -1.2246 -0.8273
15323SOL    HW249501   9.555   8.615   6.313  0.0704  0.1928 -0.7414
15324SOL     OW49502   8.501  10.577   0.436 -0.2095  0.1164 -0.4036
15324SOL    HW149503   8.475  10.596   0.346 -0.9899 -0.7004 -0.3588
15324SOL    HW249504   8.569  10.510   0.428 -1.8956 -1.6756 -0.3225
15325SOL     OW49505   3.967   9.003   8.319 -0.0589  0.6274 -0.5912
15325SOL    HW149506   3.931   8.961   8.397 -0.3968  3.0095  0.6486
15325SOL    HW249507   3.961   8.937   8.251  1.8933 -2.2348  1.7497
15326SOL     OW49508   2.988  11.061   2.059 -0.3343 -0.2089 -0.1829
15326SOL    HW149509   2.979  11.056   2.154  0.6536  1.6589  0.0464
15326SOL    HW249510   2.899  11.053   2.026 -0.6277 -1.5033  0.8368
15327SOL     OW49511   7.997  10.510   2.552 -0.0481  0.5857 -0.6516
15327SOL    HW149512   8.042  10.461   2.621 -0.5472  0.7911 -0.1725
15327SOL    HW249513   7.988  10.448   2.480  1.8210  0.8030 -1.1226
15328SOL     OW49514   9.880   0.086   4.101 -0.1482  0.2222 -0.1075
15328SOL    HW149515   9.953   0.128   4.056  0.7503 -2.2122 -1.0761
15328SOL    HW249516   9.866   0.140   4.179  1.5759  1.6860 -0.7402
15329SOL     OW49517   4.445   5.962   2.067 -0.3820 -0.1981  0.2558
15329SOL    HW149518   4.517   5.916   2.111 -0.4745 -1.9728 -1.3354
15329SOL    HW249519   4.367   5.929   2.110 -0.3376  0.5846  0.9606
15330SOL     OW49520   2.327   1.441   5.530 -0.0182 -0.3159 -0.0377
15330SOL    HW149521   2.318   1.503   5.457  0.8051  0.4823  0.5225
15330SOL    HW249522   2.239   1.405   5.541 -0.9067  1.8575  0.5565
15331SOL     OW49523   1.375   0.334   8.180  0.0839  0.3196  0.3439
15331SOL    HW149524   1.432   0.339   8.104  1.6244 -0.3795  1.4011
15331SOL    HW249525   1.319   0.412   8.173  0.2701  0.3251 -1.4053
15332SOL     OW49526   3.082   3.536   3.587 -0.0032 -0.0116 -0.2544
15332SOL    HW149527   3.025   3.574   3.654  0.2151 -1.6254  0.9033
15332SOL    HW249528   3.137   3.474   3.634  0.7146 -0.6306 -1.8182
15333SOL     OW49529   0.951   8.550   2.977  0.0627 -0.4183  0.0070
15333SOL    HW149530   0.920   8.478   2.922  1.6802 -1.3989  0.3342
15333SOL    HW249531   1.020   8.592   2.926  0.8873 -0.7126  0.8464
15334SOL     OW49532   2.857   2.638   5.823  0.1771  0.3370  0.1870
15334SOL    HW149533   2.820   2.718   5.786 -0.7677  0.0898  0.5593
15334SOL    HW249534   2.786   2.574   5.819  0.6064 -0.2016  0.7957
15335SOL     OW49535   0.848   4.271   2.016  0.1871  0.3298 -0.0392
15335SOL    HW149536   0.847   4.176   2.027  0.6037  0.1443 -1.3516
15335SOL    HW249537   0.806   4.306   2.094 -0.9883 -0.9934 -0.0611
15336SOL     OW49538   4.642   6.356   2.545 -0.8917 -0.3921 -0.9816
15336SOL    HW149539   4.586   6.432   2.533 -1.2419 -0.1906  1.3494
15336SOL    HW249540   4.722   6.376   2.497 -1.3414  1.0435 -1.1630
15337SOL     OW49541   8.496   4.320   7.610 -0.1924 -0.4164 -0.4466
15337SOL    HW149542   8.489   4.247   7.671 -0.4379 -0.3073 -0.3432
15337SOL    HW249543   8.488   4.398   7.665 -0.9616 -0.3227 -0.6813
15338SOL     OW49544   0.672   6.840   6.634  0.0441  0.4435  0.2140
15338SOL    HW149545   0.584   6.827   6.598  0.0756  1.0819 -0.0997
15338SOL    HW249546   0.703   6.751   6.654 -0.5081  0.1865 -0.0526
15339SOL     OW49547   8.712   5.427   6.154  0.6138  0.0672 -0.1566
15339SOL    HW149548   8.657   5.482   6.099 -0.1012  1.4543  1.8283
15339SOL    HW249549   8.794   5.418   6.105 -0.9787 -1.3377 -2.8017
15340SOL     OW49550  10.952   7.143   0.691 -0.3541 -0.0109  0.2382
15340SOL    HW149551  11.026   7.150   0.751  0.2386 -0.4030 -0.4381
15340SOL    HW249552  10.967   7.061   0.644 -0.0925  0.9349 -1.3740
15341SOL     OW49553   6.353   0.087   4.075 -0.1961 -0.4026 -0.2685
15341SOL    HW149554   6.404   0.027   4.021  0.8264  0.6435 -0.5125
15341SOL    HW249555   6.265   0.086   4.037  0.1741 -0.6740 -1.1316
15342SOL     OW49556   1.499   4.437   1.611 -0.5856 -0.6952 -1.0823
15342SOL    HW149557   1.455   4.362   1.651  0.8129 -0.2766  1.4975
15342SOL    HW249558   1.429   4.502   1.598 -1.2529 -1.1553  0.0431
15343SOL     OW49559   6.149   7.556   8.832 -0.0132 -0.2511 -0.6232
15343SOL    HW149560   6.184   7.526   8.916  1.8560  0.2234 -1.1812
15343SOL    HW249561   6.086   7.624   8.855  0.4043 -0.1868  0.4044
15344SOL     OW49562   8.043   9.544   3.348 -0.0578 -0.1047 -0.5308
15344SOL    HW149563   8.045   9.631   3.309  0.6526 -0.4906 -1.4099
15344SOL    HW249564   8.123   9.539   3.400  1.5205 -1.2356 -2.8759
15345SOL     OW49565  11.074   0.436  10.228 -0.2733  0.1490  0.9040
15345SOL    HW149566  11.141   0.445  10.296 -0.7291 -1.3183  1.5703
15345SOL    HW249567  11.014   0.371  10.262 -1.0007  0.0347 -0.5416
15346SOL     OW49568  10.380   4.631   4.577  0.7262  0.1658  0.3031
15346SOL    HW149569  10.381   4.577   4.498  1.2972  0.9125 -0.2197
15346SOL    HW249570  10.337   4.577   4.643  0.0625 -0.3913 -0.5716
15347SOL     OW49571   2.450   9.215   2.074 -0.6485 -0.1174 -0.2787
15347SOL    HW149572   2.525   9.158   2.087 -0.8700 -0.6359 -1.1854
15347SOL    HW249573   2.474   9.297   2.117  1.5084  0.6401 -2.6893
15348SOL     OW49574   3.027   9.162   5.887  0.5098 -0.3164  0.2050
15348SOL    HW149575   3.079   9.237   5.918 -0.8323  0.4881  0.5697
15348SOL    HW249576   3.042   9.162   5.792 -0.5166  1.2790 -0.0029
15349SOL     OW49577   3.487   7.677   7.482  0.0221 -0.7230  0.3422
15349SOL    HW149578   3.567   7.726   7.500  0.1284 -0.3939 -0.8727
15349SOL    HW249579   3.427   7.701   7.552  0.1554  1.0041 -0.0838
15350SOL     OW49580   7.564   4.117   3.719 -0.0257  0.4817  0.1889
15350SOL    HW149581   7.627   4.056   3.758  0.0428 -0.9135 -1.9434
15350SOL    HW249582   7.492   4.061   3.690 -1.3302  1.8107  0.7513
15351SOL     OW49583   8.441   0.067   6.112  0.3187  0.1334 -0.0620
15351SOL    HW149584   8.491   0.148   6.121  0.6573 -0.1179  0.3306
15351SOL    HW249585   8.395   0.058   6.196 -1.2573  0.9321 -0.7878
15352SOL     OW49586   4.632   2.143  10.059 -0.1715  0.0406  0.2147
15352SOL    HW149587   4.668   2.210  10.001  0.5028 -0.9524 -0.5618
15352SOL    HW249588   4.709   2.101  10.097 -0.4731 -1.4647 -0.7078
15353SOL     OW49589   4.397   6.957   7.405 -0.7252 -0.4965 -0.3728
15353SOL    HW149590   4.387   6.871   7.447 -1.4408  0.2027  0.9487
15353SOL    HW249591   4.490   6.963   7.383 -0.4789 -1.2012  0.4421
15354SOL     OW49592   1.994   2.660   3.109 -0.7270 -0.2531  0.1622
15354SOL    HW149593   1.905   2.692   3.122 -0.6889 -0.8493  2.3177
15354SOL    HW249594   2.010   2.602   3.184  1.4118 -0.2814 -0.2459
15355SOL     OW49595   7.202   5.605   6.062  0.3614 -0.0418  0.3094
15355SOL    HW149596   7.201   5.530   6.121 -0.9978 -0.8248 -0.6497
15355SOL    HW249597   7.286   5.647   6.078  0.7128 -1.1705  1.6120
15356SOL     OW49598   3.867   0.016   2.222 -0.0885  0.2774 -0.4077
15356SOL    HW149599   3.946  -0.032   2.247 -0.1295  0.2441 -0.3391
15356SOL    HW249600   3.897   0.084   2.163 -0.0533  0.0535 -0.6465
15357SOL     OW49601   7.944   8.608   5.579  0.0090 -0.0352  0.5994
15357SOL    HW149602   7.976   8.678   5.522  1.3203 -0.8430  0.2839
15357SOL    HW249603   8.022   8.580   5.628  0.0071 -2.5393 -0.6682
15358SOL     OW49604   8.669   6.219   0.528  0.0396  0.2406  0.1166
15358SOL    HW149605   8.629   6.240   0.613  0.7615  1.9265  0.0932
15358SOL    HW249606   8.641   6.130   0.509 -2.0169  0.6386  1.0439
15359SOL     OW49607   9.723   1.843   3.659 -0.1462  0.2493  0.0747
15359SOL    HW149608   9.640   1.887   3.642  1.5086  4.5566  1.7418
15359SOL    HW249609   9.788   1.892   3.608  1.7046 -1.5944  0.4903
15360SOL     OW49610   7.540   5.305   2.862  0.3878 -0.5028  0.2595
15360SOL    HW149611   7.548   5.299   2.958 -2.1218  0.9570  0.6426
15360SOL    HW249612   7.505   5.220   2.836  0.4068 -0.6545  0.7079
15361SOL     OW49613  10.267  10.472   4.483 -0.0555  0.1436 -0.2923
15361SOL    HW149614  10.191  10.454   4.427 -0.2458  0.8603 -0.2695
15361SOL    HW249615  10.234  10.531   4.550  0.8114  1.4746 -0.9991
15362SOL     OW49616   3.878   0.604   5.558  0.3120  0.1021 -0.0200
15362SOL    HW149617   3.806   0.644   5.607 -0.0050  0.5913 -0.8466
15362SOL    HW249618   3.875   0.648   5.472 -0.8977 -2.6241 -1.4797
15363SOL     OW49619   0.303   8.533   6.866  0.4778  0.5886 -0.1813
15363SOL    HW149620   0.324   8.619   6.829 -0.6303  0.8783 -0.1816
15363SOL    HW249621   0.215   8.543   6.902  1.0196 -0.0557  1.4110
15364SOL     OW49622  11.018   0.239   2.150 -0.2834 -0.2418 -0.1144
15364SOL    HW149623  11.017   0.165   2.210 -1.8193  0.6863  1.0867
15364SOL    HW249624  10.930   0.240   2.112 -1.0717  2.1718  1.5306
15365SOL     OW49625   9.342   7.915   4.313 -0.3039  0.2849  0.0272
15365SOL    HW149626   9.402   7.958   4.252 -1.3098  1.2754 -0.2977
15365SOL    HW249627   9.379   7.933   4.400  1.0132 -0.9500 -0.2402
15366SOL     OW49628   5.261   6.403   7.312 -0.3082 -0.0722 -0.0506
15366SOL    HW149629   5.182   6.426   7.361 -1.3468  0.0962 -1.7374
15366SOL    HW249630   5.247   6.312   7.285  0.5729 -0.3969  0.5370
15367SOL     OW49631   1.907  10.390   5.429 -0.3308  0.0219  0.2427
15367SOL    HW149632   1.880  10.321   5.490 -0.3761  0.1995  0.4216
15367SOL    HW249633   1.986  10.427   5.467 -0.0939 -0.1825 -0.0454
15368SOL     OW49634   5.380   1.744   8.265 -0.0800 -0.5246 -0.1385
15368SOL    HW149635   5.464   1.700   8.279  0.3368  0.2304 -0.2136
15368SOL    HW249636   5.326   1.679   8.220  1.2954 -0.1968 -2.4379
15369SOL     OW49637   0.405   9.546   6.468  0.6236 -0.1173 -0.3187
15369SOL    HW149638   0.429   9.553   6.375  1.4871  1.2428 -0.0392
15369SOL    HW249639   0.442   9.626   6.507 -0.7838 -0.0625  0.9712
15370SOL     OW49640   3.242   8.963   0.181  0.2247 -0.1480  0.3721
15370SOL    HW149641   3.187   8.909   0.124 -1.9118 -2.1550  3.9388
15370SOL    HW249642   3.198   9.048   0.184  0.3625 -0.0145 -0.8261
15371SOL     OW49643   2.504   4.034   1.358 -0.3054  0.3057 -0.0338
15371SOL    HW149644   2.507   3.965   1.293 -3.7665 -0.8237  0.7577
15371SOL    HW249645   2.595   4.059   1.372  0.7350 -0.9472 -3.5783
15372SOL     OW49646   0.198   0.035   8.763  0.0234 -0.1254 -0.8488
15372SOL    HW149647   0.166  -0.003   8.681 -0.0550 -0.6248 -0.5917
15372SOL    HW249648   0.275  -0.018   8.785 -2.3354 -2.9572  1.6579
15373SOL     OW49649   2.165   3.318   5.670 -0.4774  1.1651 -0.0198
15373SOL    HW149650   2.202   3.238   5.632  1.6328  1.6365  0.8905
15373SOL    HW249651   2.163   3.380   5.597  2.3707  1.6758  0.2133
15374SOL     OW49652   4.849  10.979  10.986 -0.1428 -0.2517  0.0204
15374SOL    HW149653   4.809  10.964  11.072 -0.7483 -0.2628 -0.2621
15374SOL    HW249654   4.834  10.898  10.938  0.9934 -0.5870  0.2038
15375SOL     OW49655   1.459   0.301  10.658 -0.2214 -0.3212 -0.6111
15375SOL    HW149656   1.370   0.332  10.677 -0.0102 -0.9761  1.7692
15375SOL    HW249657   1.448   0.210  10.633 -0.1900 -0.6375  0.4729
15376SOL     OW49658   0.524   9.747   1.532  0.3251  0.0212  0.1079
15376SOL    HW149659   0.520   9.779   1.441 -0.8925  0.2982  0.2410
15376SOL    HW249660   0.559   9.658   1.524 -1.9885 -0.8973 -0.9369
15377SOL     OW49661   6.053   0.879   1.071  0.4231 -0.0163  0.2235
15377SOL    HW149662   5.979   0.820   1.087  0.0196  0.3380 -0.3047
15377SOL    HW249663   6.129   0.821   1.067  0.0885 -0.4536  0.1309
15378SOL     OW49664   8.005   5.877  10.372 -0.1984  0.3771  0.1764
15378SOL    HW149665   7.916   5.906  10.352 -0.2354  0.3888  0.3539
15378SOL    HW249666   8.038   5.841  10.289 -0.6278 -0.2985  0.2923
15379SOL     OW49667   0.343  10.152  10.032  0.1857  1.3777  0.1491
15379SOL    HW149668   0.295  10.183  10.109 -0.4488  0.4214  0.1542
15379SOL    HW249669   0.390  10.075  10.063 -2.4258 -0.8778 -1.0578
15380SOL     OW49670   5.423  10.651   4.376 -0.0522 -0.2513 -0.2650
15380SOL    HW149671   5.516  10.664   4.357  0.1637 -0.2770  0.7123
15380SOL    HW249672   5.406  10.705   4.453 -0.9802  0.1641 -0.7470
15381SOL     OW49673  10.541   2.578   4.441  0.5148  0.2849 -0.5738
15381SOL    HW149674  10.496   2.553   4.521 -2.5737 -2.4739 -2.8900
15381SOL    HW249675  10.585   2.498   4.412  0.9169  0.9792 -1.9840
15382SOL     OW49676   8.894   3.720   8.152  0.0322  0.5130  0.2944
15382SOL    HW149677   8.825   3.769   8.197 -0.1935  2.1026 -1.6623
15382SOL    HW249678   8.847   3.651   8.105 -0.4975  2.2607 -1.9437
15383SOL     OW49679   6.728   8.916   0.958 -0.5059  0.0126 -0.1310
15383SOL    HW149680   6.821   8.934   0.975 -0.4421 -0.3818 -0.0503
15383SOL    HW249681   6.729   8.848   0.890 -0.7582  1.4695 -1.6342
15384SOL     OW49682   4.772   3.641   8.416 -0.0145  0.1573  0.2422
15384SOL    HW149683   4.701   3.699   8.442 -0.3104 -0.5966  1.1876
15384SOL    HW249684   4.753   3.558   8.461  0.8489 -0.4056 -0.3990
15385SOL     OW49685   8.759   7.550   3.966  0.0340 -0.2863  0.0898
15385SOL    HW149686   8.718   7.476   4.011  0.4829 -0.1388  0.7585
15385SOL    HW249687   8.853   7.531   3.970  0.1481  0.2955  0.2255
15386SOL     OW49688   8.122   7.496  11.005  0.1680 -0.2388 -0.0473
15386SOL    HW149689   8.107   7.469  10.914  1.0551 -0.2333 -0.2029
15386SOL    HW249690   8.187   7.566  10.999 -0.8858  0.8211  0.4853
15387SOL     OW49691   3.179  10.502   5.192 -0.0982 -0.6518  0.1308
15387SOL    HW149692   3.135  10.551   5.262  0.6515  0.5917 -0.2433
15387SOL    HW249693   3.203  10.419   5.232  0.3710  0.0670  1.3777
15388SOL     OW49694   9.286   0.179   7.174  0.4377  0.0480 -0.3983
15388SOL    HW149695   9.354   0.118   7.146 -0.5424 -0.3718 -2.0095
15388SOL    HW249696   9.218   0.124   7.212 -0.1265  0.2042 -1.1705
15389SOL     OW49697   0.364   4.992   5.922 -0.2923  0.4790 -0.2881
15389SOL    HW149698   0.396   4.907   5.891  0.0628  1.0037 -1.3990
15389SOL    HW249699   0.444   5.039   5.947 -0.4537  0.6737 -0.1385
15390SOL     OW49700   4.327   1.011  10.196 -0.1736  0.1603  0.2361
15390SOL    HW149701   4.294   1.062  10.123 -0.9739 -0.2417  0.3110
15390SOL    HW249702   4.370   1.075  10.253  0.8720  0.4118 -0.8069
15391SOL     OW49703   7.448  10.807   7.212 -0.5982 -0.3238 -0.1189
15391SOL    HW149704   7.498  10.731   7.182 -2.1390 -0.9016 -1.3725
15391SOL    HW249705   7.492  10.882   7.172  0.1046 -0.6618 -0.0050
15392SOL     OW49706   9.728   2.498   4.856  0.3757  0.1100  0.3538
15392SOL    HW149707   9.719   2.542   4.772  0.6129 -1.4293 -0.5165
15392SOL    HW249708   9.780   2.558   4.910  1.0011  0.7195 -0.8921
15393SOL     OW49709   9.695   0.595   1.444  0.0701  0.1469 -0.1425
15393SOL    HW149710   9.685   0.579   1.538 -2.0260 -1.8908 -0.6252
15393SOL    HW249711   9.625   0.656   1.423 -0.9516 -1.1758 -0.7211
15394SOL     OW49712   0.574  10.319   8.269 -0.1404  0.5506 -0.3762
15394SOL    HW149713   0.644  10.317   8.335  0.1640  0.2680 -0.7051
15394SOL    HW249714   0.618  10.297   8.187 -0.8453 -0.9612 -0.3740
15395SOL     OW49715   3.218   4.925   5.183  0.0739 -0.3860  0.7320
15395SOL    HW149716   3.198   4.998   5.242 -1.6614 -0.6995  0.6047
15395SOL    HW249717   3.234   4.965   5.098  1.7138  0.0067  1.2030
15396SOL     OW49718   0.816   3.140   1.229 -0.0749  0.4596  0.0368
15396SOL    HW149719   0.746   3.177   1.281 -1.5014 -0.4641 -1.1492
15396SOL    HW249720   0.776   3.067   1.183  2.1086 -1.3268  0.7395
15397SOL     OW49721   2.236   0.098   0.160 -0.2554 -0.6195  0.0019
15397SOL    HW149722   2.307   0.108   0.097 -0.6577 -0.2088 -0.3995
15397SOL    HW249723   2.274   0.127   0.243 -0.4128  1.2101 -0.5206
15398SOL     OW49724   8.693   8.036   1.505  0.0608  0.3617 -0.2861
15398SOL    HW149725   8.781   8.061   1.478  0.4177 -0.5410  0.0056
15398SOL    HW249726   8.705   7.986   1.586 -0.6753 -0.1202 -0.4561
15399SOL     OW49727  10.653  10.104   2.451  0.3007 -0.1576  0.4671
15399SOL    HW149728  10.604  10.025   2.427 -1.9003  1.1324  0.4775
15399SOL    HW249729  10.642  10.163   2.377 -1.7056  1.7079  2.1393
15400SOL     OW49730   0.637   2.837  10.697  0.2307 -0.4796  0.2110
15400SOL    HW149731   0.619   2.909  10.757 -1.4375  0.9440 -1.8431
15400SOL    HW249732   0.557   2.783  10.700 -0.5639  0.4745 -1.7732
15401SOL     OW49733   7.819   0.703   2.543 -0.3340 -0.6428  0.2184
15401SOL    HW149734   7.835   0.616   2.581 -1.7434 -2.2369 -2.5230
15401SOL    HW249735   7.726   0.702   2.522  0.1125  0.5476 -2.0800
15402SOL     OW49736   5.901   5.982   6.831 -0.0537 -0.8988  0.0465
15402SOL    HW149737   5.979   5.933   6.858 -0.9560 -2.7031 -0.4517
15402SOL    HW249738   5.835   5.960   6.897 -0.2208  0.4891  0.3799
15403SOL     OW49739   4.909   8.944   3.222  0.0644 -0.2974  0.0480
15403SOL    HW149740   4.885   8.949   3.315  1.1016  1.4391  0.2662
15403SOL    HW249741   4.998   8.908   3.222  0.6761  1.1649 -0.1381
15404SOL     OW49742   1.627  10.037   5.384  0.4276 -0.6020  0.8439
15404SOL    HW149743   1.664   9.984   5.314  1.4004 -0.1491  0.9896
15404SOL    HW249744   1.685  10.113   5.389 -0.0484 -0.2804  1.6545
15405SOL     OW49745   1.591   2.824   2.535  0.2235 -0.2194 -0.1280
15405SOL    HW149746   1.611   2.762   2.606 -0.9608  0.7371  1.0987
15405SOL    HW249747   1.510   2.867   2.563 -0.6116 -0.2188 -2.3744
15406SOL     OW49748   8.901   5.024   7.840 -0.4128  0.2876 -0.2803
15406SOL    HW149749   8.896   4.970   7.919 -0.8627  0.4248 -0.2138
15406SOL    HW249750   8.992   5.054   7.838 -0.5184  0.6939  0.4717
15407SOL     OW49751   1.706   5.284   4.925 -0.1551 -0.4673  0.1100
15407SOL    HW149752   1.677   5.375   4.934 -0.4157 -0.6212  0.8541
15407SOL    HW249753   1.645   5.246   4.862  1.0647  0.3441 -1.6410
15408SOL     OW49754   9.869   6.686   4.035 -0.0593  0.8132  0.3122
15408SOL    HW149755   9.883   6.781   4.028  0.1611  0.6925 -1.2012
15408SOL    HW249756   9.779   6.673   4.004  0.6140  0.3258 -1.5271
15409SOL     OW49757   5.862  10.762   5.475 -0.6077  0.2147 -0.3697
15409SOL    HW149758   5.915  10.788   5.400  0.2893  1.5662  0.6577
15409SOL    HW249759   5.800  10.834   5.487 -0.3940  0.2814  0.4659
15410SOL     OW49760   2.707   9.075   4.311  0.2939  0.0977 -0.6176
15410SOL    HW149761   2.687   9.143   4.376  0.8200 -0.0327 -0.3093
15410SOL    HW249762   2.743   9.003   4.363 -0.0824 -0.3453 -0.9616
15411SOL     OW49763   4.294   4.540   6.551 -0.4081  0.5831  0.0215
15411SOL    HW149764   4.312   4.447   6.537 -0.9885  0.5888 -0.8213
15411SOL    HW249765   4.375   4.574   6.588 -0.8339 -0.6510  2.2994
15412SOL     OW49766  10.303   8.026   7.054 -0.2049 -0.0157 -0.5942
15412SOL    HW149767  10.386   7.978   7.047  0.2240  0.7591 -0.9285
15412SOL    HW249768  10.256   8.005   6.974 -0.2304 -0.2738 -0.5111
15413SOL     OW49769   7.589   3.736   4.063  0.5188 -0.4001 -0.1631
15413SOL    HW149770   7.571   3.810   4.120  0.7225  0.5171 -1.2599
15413SOL    HW249771   7.683   3.739   4.047  0.2798  0.1769 -1.6175
15414SOL     OW49772   1.480   5.186   3.488  0.1695  0.1759  0.1505
15414SOL    HW149773   1.510   5.241   3.416  0.7006  0.2320  0.4119
15414SOL    HW249774   1.559   5.146   3.523  0.2300  1.7436  2.0119
15415SOL     OW49775   1.156   2.174   7.955  0.1143 -0.4166 -0.6345
15415SOL    HW149776   1.148   2.212   7.867 -0.2136  0.1810 -0.3484
15415SOL    HW249777   1.081   2.115   7.962  0.0168 -0.2979 -0.6733
15416SOL     OW49778   7.163   8.302   8.091  0.3841 -0.2896 -0.4155
15416SOL    HW149779   7.243   8.353   8.086  0.7266 -0.7340  0.3434
15416SOL    HW249780   7.102   8.347   8.033  1.2392 -0.0585 -1.1483
15417SOL     OW49781   8.283   3.243   8.924 -0.3977 -0.2093  0.0705
15417SOL    HW149782   8.268   3.286   8.840  1.5735 -2.1892 -1.3976
15417SOL    HW249783   8.365   3.281   8.956 -0.8362  0.1066  0.8693
15418SOL     OW49784   8.992   8.936   3.157  0.4329 -0.1703  0.1367
15418SOL    HW149785   8.946   8.927   3.073 -0.2851 -0.7241  0.5771
15418SOL    HW249786   8.937   8.889   3.220  0.3414  1.2580  1.1543
15419SOL     OW49787   8.449   5.661   6.835  0.3050 -0.1538  0.0679
15419SOL    HW149788   8.370   5.660   6.782  0.5479 -0.0536 -0.2992
15419SOL    HW249789   8.490   5.746   6.818  1.1593 -0.7093 -0.7549
15420SOL     OW49790   8.702   7.782   6.548 -0.5259  0.2543  1.1422
15420SOL    HW149791   8.742   7.729   6.616  1.9219  0.4342 -0.0511
15420SOL    HW249792   8.775   7.830   6.509 -2.0923  1.4774 -0.4422
15421SOL     OW49793   0.560   7.179   0.647 -0.5672  0.0338  0.1446
15421SOL    HW149794   0.595   7.103   0.692 -0.6794 -0.0290  0.1277
15421SOL    HW249795   0.565   7.250   0.711 -0.0250  0.1245  0.0028
15422SOL     OW49796   6.416  10.574   1.379  0.3216  0.1906  0.5802
15422SOL    HW149797   6.463  10.528   1.310 -2.1986  0.6335 -1.5713
15422SOL    HW249798   6.387  10.656   1.339 -2.6997 -0.2819  1.5185
15423SOL     OW49799   5.245   1.694   4.385  0.2041 -0.3811  0.2541
15423SOL    HW149800   5.267   1.609   4.347  0.3032  0.0319 -0.6331
15423SOL    HW249801   5.149   1.696   4.386  0.1560 -1.2085  1.9299
15424SOL     OW49802   8.316   6.507   7.908 -0.0338 -0.1066 -0.7095
15424SOL    HW149803   8.222   6.518   7.917 -0.1825 -1.2225 -0.7207
15424SOL    HW249804   8.354   6.588   7.942 -0.9593 -0.0862  0.3213
15425SOL     OW49805   5.664   7.607   6.718  0.3680  0.1877  0.2934
15425SOL    HW149806   5.681   7.639   6.807  1.4155  0.6368 -0.0531
15425SOL    HW249807   5.662   7.512   6.727  0.2755  0.2344  0.8253
15426SOL     OW49808   5.301   9.403   2.595  0.1104 -0.6283 -0.8834
15426SOL    HW149809   5.293   9.482   2.542 -2.8212  0.0521  0.3898
15426SOL    HW249810   5.368   9.351   2.551  0.1706  1.3452 -3.3116
15427SOL     OW49811   6.441   4.415   3.819 -0.7758 -0.3910  0.0385
15427SOL    HW149812   6.358   4.375   3.792 -0.1444 -0.4714 -1.9923
15427SOL    HW249813   6.477   4.353   3.883 -0.1945 -2.8490 -2.4396
15428SOL     OW49814   3.782   3.095   9.735  0.1963  0.2214  0.3931
15428SOL    HW149815   3.803   3.007   9.703 -0.1159  0.5871 -0.8681
15428SOL    HW249816   3.686   3.098   9.736  0.1769  1.0585 -1.1172
15429SOL     OW49817   5.596   1.761   3.181 -0.6006 -0.1239 -0.4838
15429SOL    HW149818   5.643   1.678   3.173 -0.4180 -0.0379 -0.3347
15429SOL    HW249819   5.555   1.757   3.267 -1.1006 -0.3166 -0.7335
15430SOL     OW49820   1.311  11.085   7.399 -0.2904 -0.3045 -0.1235
15430SOL    HW149821   1.396  11.103   7.359  1.3277 -0.7396  2.7631
15430SOL    HW249822   1.284  11.001   7.364  1.5866 -1.1905  0.4387
15431SOL     OW49823   8.099   5.042   4.477 -0.2202 -0.5590  0.2042
15431SOL    HW149824   8.118   5.113   4.416 -0.1689  0.7450  1.6789
15431SOL    HW249825   8.005   5.051   4.496  0.0866  0.0905  1.5339
15432SOL     OW49826   7.423   8.151   7.915  0.1799  0.4189  0.7734
15432SOL    HW149827   7.380   8.235   7.900  0.0804  0.3517  0.6779
15432SOL    HW249828   7.388   8.094   7.846  0.0290  0.2200  1.0162
15433SOL     OW49829   4.320   1.485   8.911  0.9913 -0.5077 -0.0482
15433SOL    HW149830   4.397   1.524   8.953  0.8203 -0.1239 -0.0927
15433SOL    HW249831   4.283   1.555   8.857  0.9135 -0.8475 -0.4447
15434SOL     OW49832   1.075   7.452   3.088 -0.6559 -0.2117  0.1996
15434SOL    HW149833   1.076   7.482   3.179  0.3437  4.0525 -1.0145
15434SOL    HW249834   1.003   7.500   3.047  1.0013  0.6210 -1.9301
15435SOL     OW49835   2.874   1.656   3.981 -0.1370 -0.0276  0.3158
15435SOL    HW149836   2.936   1.587   3.958  0.4090  0.6050 -0.1651
15435SOL    HW249837   2.848   1.636   4.071 -1.0461 -1.6215 -0.2694
15436SOL     OW49838   5.076   8.902   4.806 -0.3530 -0.0793 -0.8435
15436SOL    HW149839   5.150   8.946   4.764  1.5478  2.1565  4.0482
15436SOL    HW249840   5.005   8.967   4.803  0.3318  0.7881  0.6708
15437SOL     OW49841   4.652   8.813   7.902 -0.1949  0.1833 -0.1716
15437SOL    HW149842   4.727   8.755   7.909 -0.1668  0.1636 -0.6138
15437SOL    HW249843   4.580   8.764   7.943  0.4368  0.9699  1.9954
15438SOL     OW49844   6.031   7.833   7.138  0.0308  0.0096  0.0216
15438SOL    HW149845   6.084   7.812   7.061 -1.4049 -4.7574 -0.0228
15438SOL    HW249846   5.980   7.910   7.112  2.3485  0.9186 -2.2575
15439SOL     OW49847   4.583  10.069   9.932 -0.0351  0.0412 -0.2766
15439SOL    HW149848   4.515  10.049   9.868 -0.2677  1.4471 -0.4990
15439SOL    HW249849   4.664  10.072   9.881  0.2101 -1.4477 -0.0408
15440SOL     OW49850   2.782  10.390   8.858 -0.1542  0.3603 -0.2303
15440SOL    HW149851   2.699  10.353   8.887  0.7301 -0.0413  1.9516
15440SOL    HW249852   2.784  10.477   8.898  1.0483 -0.1560  0.8911
15441SOL     OW49853   5.731   8.325   1.792  0.1492 -0.4448 -0.4214
15441SOL    HW149854   5.697   8.378   1.720  1.1394 -0.3550 -0.8360
15441SOL    HW249855   5.783   8.386   1.844  0.9676 -0.9118 -0.6811
15442SOL     OW49856   7.694   4.510   3.450  0.2006 -0.1459  0.9032
15442SOL    HW149857   7.764   4.551   3.400  0.5478 -2.4084 -0.5841
15442SOL    HW249858   7.613   4.541   3.408  0.3909  0.2278  0.8074
15443SOL     OW49859   3.959   6.984  10.315  0.6432  0.4070  0.1535
15443SOL    HW149860   4.006   6.926  10.375  0.3629  0.0779  0.0639
15443SOL    HW249861   3.995   7.071  10.331  1.0410  0.2131  0.3235
15444SOL     OW49862   5.284   5.846   3.949 -0.1020  0.3520 -0.9068
15444SOL    HW149863   5.305   5.899   4.026  0.4708 -0.7328 -0.2967
15444SOL    HW249864   5.322   5.894   3.876  0.1924  0.9121 -0.3987
15445SOL     OW49865   1.548  10.085   9.684  0.2278 -0.4540  0.5919
15445SOL    HW149866   1.462  10.073   9.724  0.2588  0.5563  0.9931
15445SOL    HW249867   1.610  10.059   9.753  0.2652  0.2090  0.8076
15446SOL     OW49868   6.416   7.337   9.821  0.1148  0.0185 -0.0459
15446SOL    HW149869   6.334   7.357   9.776 -0.0672  1.1539  0.7364
15446SOL    HW249870   6.413   7.390   9.901  0.9825 -0.9952  0.6897
15447SOL     OW49871   2.466   1.100   0.800  0.4557 -0.3572 -0.4547
15447SOL    HW149872   2.537   1.038   0.817 -0.3548 -1.8426 -2.1441
15447SOL    HW249873   2.510   1.182   0.777  1.7174 -1.5541 -2.6285
15448SOL     OW49874   4.682   3.197   7.843 -0.2276  0.0016  0.1480
15448SOL    HW149875   4.746   3.214   7.912  0.9238  1.4700 -1.2220
15448SOL    HW249876   4.676   3.279   7.794 -2.8892 -0.2069 -0.0331
15449SOL     OW49877   3.877   1.986   1.704 -0.2432  0.1382 -0.1374
15449SOL    HW149878   3.848   2.047   1.636 -0.1491 -0.1346 -0.4250
15449SOL    HW249879   3.932   1.923   1.657 -0.4608 -0.2541  0.1305
15450SOL     OW49880   9.391  10.033   1.465  0.1030  0.4243 -0.3055
15450SOL    HW149881   9.452   9.980   1.414 -0.9354 -0.1778 -0.9511
15450SOL    HW249882   9.364   9.977   1.537  0.9044  0.9722  0.4420
15451SOL     OW49883   1.811  11.008   6.525  0.2620 -0.4349 -0.9782
15451SOL    HW149884   1.884  11.026   6.585 -0.9585 -0.0724  0.4331
15451SOL    HW249885   1.853  10.969   6.448  1.8478 -1.2806  0.2491
15452SOL     OW49886   1.471  10.861   2.916  0.1610 -0.1985  0.0495
15452SOL    HW149887   1.455  10.810   2.837  2.0370  0.8070 -1.0373
15452SOL    HW249888   1.558  10.834   2.945 -0.9018 -1.3765  2.4878
15453SOL     OW49889   5.238   2.140   9.372 -0.0374 -0.8289  0.4286
15453SOL    HW149890   5.292   2.120   9.295  0.7268 -0.8758  0.9680
15453SOL    HW249891   5.218   2.054   9.410 -2.0295 -0.9574 -0.7633
15454SOL     OW49892   7.288   1.725   1.517  0.6572  0.0208  0.3108
15454SOL    HW149893   7.287   1.630   1.529 -1.8561  0.0340  0.8227
15454SOL    HW249894   7.379   1.750   1.530  1.8101 -2.5206 -1.8689
15455SOL     OW49895   7.973   9.086  10.413  0.1888 -0.0736 -0.4294
15455SOL    HW149896   7.938   9.083  10.324 -0.0126  1.0935 -0.4049
15455SOL    HW249897   7.995   9.178  10.427  1.1910 -0.4153  0.3583
15456SOL     OW49898   2.881   3.945   3.261  0.1498 -0.0052 -0.4657
15456SOL    HW149899   2.879   3.899   3.177  0.2434 -1.5058  0.3216
15456SOL    HW249900   2.859   3.878   3.326  0.6453  0.9795  0.7644
15457SOL     OW49901   2.924  10.970   3.545  0.2499  0.3748 -0.1987
15457SOL    HW149902   2.881  10.898   3.498 -0.7139 -0.0229  1.2033
15457SOL    HW249903   3.013  10.971   3.511  0.5801 -2.1243  0.3909
15458SOL     OW49904   2.858   2.891   3.441 -0.0749  0.4251 -0.3754
15458SOL    HW149905   2.850   2.980   3.475 -0.3954  1.6356 -3.2738
15458SOL    HW249906   2.946   2.888   3.403 -0.1993 -0.3706 -0.6176
15459SOL     OW49907   8.226   6.413  10.543  0.1521 -0.0820  0.0306
15459SOL    HW149908   8.174   6.332  10.538  0.1767 -0.1088  0.2181
15459SOL    HW249909   8.217   6.452  10.456 -0.8828  0.3527  0.3113
15460SOL     OW49910   6.974   4.047   3.589 -0.2610 -0.2004 -0.0945
15460SOL    HW149911   7.023   4.073   3.511  0.5366 -0.8356  0.1801
15460SOL    HW249912   6.965   4.128   3.640  0.0068  0.0336 -0.4149
15461SOL     OW49913   9.734   7.265   3.014 -0.1247  0.3749  0.5356
15461SOL    HW149914   9.769   7.349   2.986 -1.0565  0.4942 -0.3272
15461SOL    HW249915   9.651   7.287   3.057 -0.0440 -0.0503  0.9158
15462SOL     OW49916   4.344   0.320  10.183 -0.4539  0.1930  0.0800
15462SOL    HW149917   4.303   0.281  10.261 -0.8641  0.8768  0.2169
15462SOL    HW249918   4.270   0.358  10.135  0.1029  2.3274  0.8283
15463SOL     OW49919   2.339   1.641   2.128  0.2966 -0.2418 -0.2969
15463SOL    HW149920   2.387   1.594   2.059 -0.1309  1.5081 -1.8851
15463SOL    HW249921   2.246   1.628   2.105  0.0035 -1.9370  1.5954
15464SOL     OW49922   6.268   6.433   5.509  0.1150 -0.1486  0.0888
15464SOL    HW149923   6.246   6.487   5.433 -0.0781  1.5814  1.3155
15464SOL    HW249924   6.355   6.400   5.490 -0.3002 -0.5113 -1.2896
15465SOL     OW49925   5.065   6.862   6.649  0.0114 -0.4572 -0.4767
15465SOL    HW149926   5.112   6.890   6.571 -0.0998  0.7311 -0.1361
15465SOL    HW249927   5.106   6.779   6.673 -0.9472 -1.6461 -2.6369
15466SOL     OW49928   2.114   7.061   9.575 -0.1183 -0.1592  0.0810
15466SOL    HW149929   2.147   6.979   9.611  0.8847  0.4166  0.5320
15466SOL    HW249930   2.174   7.081   9.503  0.4555  0.8224  0.8027
15467SOL     OW49931   0.039   9.100   0.552 -0.1888  0.2801 -0.3928
15467SOL    HW149932  -0.020   9.153   0.497 -0.0333  1.4451  0.5163
15467SOL    HW249933   0.064   9.159   0.623 -1.1615 -1.4645  1.4907
15468SOL     OW49934   3.094   8.991   8.260  0.6092  0.0568 -0.1989
15468SOL    HW149935   3.155   9.052   8.301 -1.6023  1.8561  0.5877
15468SOL    HW249936   3.072   9.031   8.176  1.6963 -1.4287 -1.2716
15469SOL     OW49937   3.766  10.754   5.227  0.1103 -0.4280 -0.0356
15469SOL    HW149938   3.730  10.665   5.224  1.7361 -1.1209 -0.4315
15469SOL    HW249939   3.692  10.811   5.208 -1.1042 -1.6543  0.8582
15470SOL     OW49940  10.754   7.452  10.529  0.5446  0.1741  0.3793
15470SOL    HW149941  10.683   7.462  10.466  0.6154  2.2126  0.5516
15470SOL    HW249942  10.801   7.374  10.500 -1.3546 -0.8289 -0.1132
15471SOL     OW49943   8.079   8.291   8.207 -0.2681  0.3861  0.0334
15471SOL    HW149944   8.151   8.246   8.250  0.1082  0.3100 -0.6671
15471SOL    HW249945   8.025   8.220   8.171 -0.8719  0.4314  0.8336
15472SOL     OW49946   8.594   8.223   7.890 -0.4484  0.3269  0.0645
15472SOL    HW149947   8.536   8.289   7.851 -2.2489 -0.8584  0.6209
15472SOL    HW249948   8.641   8.186   7.815  0.2048  1.8347 -0.3122
15473SOL     OW49949  10.930   7.935   1.671  0.4032  0.2838 -0.1937
15473SOL    HW149950  10.944   7.857   1.724  0.3021  0.1998 -0.2914
15473SOL    HW249951  10.879   7.905   1.596  0.6367  0.3793 -0.3943
15474SOL     OW49952   3.778   2.429   9.973 -0.2122  0.2165 -0.4585
15474SOL    HW149953   3.838   2.500   9.951 -0.3228  1.0886  1.8152
15474SOL    HW249954   3.713   2.429   9.902  0.5107  1.5420 -1.1436
15475SOL     OW49955  10.581   2.859   0.677  0.9660  0.5979 -0.1151
15475SOL    HW149956  10.486   2.860   0.687  1.0154  0.7408  0.3734
15475SOL    HW249957  10.613   2.820   0.758  1.3676  1.4638  0.1480
15476SOL     OW49958   0.672   8.866   8.205  0.3959 -0.1909 -0.1256
15476SOL    HW149959   0.690   8.879   8.112  0.6552 -0.6305 -0.1433
15476SOL    HW249960   0.715   8.939   8.249  1.1110 -0.5180 -0.2759
15477SOL     OW49961   1.783   8.035   5.008  0.1367  0.4971  0.9638
15477SOL    HW149962   1.872   8.066   4.991 -0.1165  0.9287  0.3937
15477SOL    HW249963   1.738   8.111   5.045 -0.1678  0.4700  0.6554
15478SOL     OW49964   4.689   1.932   4.843 -0.6659 -0.6600 -0.3571
15478SOL    HW149965   4.770   1.953   4.796 -0.6410  2.5220  0.8288
15478SOL    HW249966   4.716   1.926   4.935 -1.5512 -1.1084 -0.1123
15479SOL     OW49967   1.756   0.823   5.519 -0.2648 -0.0744  0.4795
15479SOL    HW149968   1.837   0.795   5.563  0.3642 -0.3192 -0.7976
15479SOL    HW249969   1.691   0.758   5.545  0.3916 -0.8873  0.1387
15480SOL     OW49970   2.179   5.373   5.289 -0.2415 -0.2624 -0.0477
15480SOL    HW149971   2.117   5.323   5.342  0.3528 -1.6378 -0.6131
15480SOL    HW249972   2.165   5.342   5.200  0.3615  0.3720 -0.3697
15481SOL     OW49973   4.858   0.741   8.250 -0.2447 -0.4072 -0.3847
15481SOL    HW149974   4.817   0.768   8.167 -0.8382 -0.3934 -0.0916
15481SOL    HW249975   4.837   0.648   8.258 -0.9371 -0.2110  0.1725
15482SOL     OW49976   2.240   9.319   4.496 -0.1612  0.2865  0.4491
15482SOL    HW149977   2.258   9.407   4.461 -0.5162  0.4472  0.6621
15482SOL    HW249978   2.201   9.336   4.581 -0.6842 -0.0711  0.2806
15483SOL     OW49979   4.880   8.004   6.024 -0.0271 -0.0717  0.5442
15483SOL    HW149980   4.932   7.931   6.056  0.7856  0.5149  0.6054
15483SOL    HW249981   4.789   7.977   6.038  0.2622 -0.1121  2.7885
15484SOL     OW49982   8.632   5.455   5.561  0.2790  0.4407 -0.7800
15484SOL    HW149983   8.622   5.548   5.581  0.7313  0.0307  1.7926
15484SOL    HW249984   8.693   5.452   5.487  0.0665  2.1870 -1.0498
15485SOL     OW49985   6.458   9.703   9.242  0.3125 -0.1951  0.0484
15485SOL    HW149986   6.434   9.618   9.280  1.7375 -0.5766  0.1848
15485SOL    HW249987   6.496   9.681   9.157 -0.5296  0.4312 -0.4957
15486SOL     OW49988   4.194   7.977   3.986  0.6405 -0.0223  0.3348
15486SOL    HW149989   4.205   8.066   4.019 -0.3158  0.5844 -0.8789
15486SOL    HW249990   4.281   7.951   3.958  0.9676  0.4566  0.8792
15487SOL     OW49991   6.183   6.527   7.107 -0.3174 -0.6458 -0.5099
15487SOL    HW149992   6.158   6.452   7.162  0.5631 -1.8891 -1.7455
15487SOL    HW249993   6.109   6.587   7.115 -0.8363 -1.4135  0.9108
15488SOL     OW49994   4.355   8.904  10.043  0.2480 -0.4080  0.5916
15488SOL    HW149995   4.403   8.957   9.979 -1.9173 -0.7979 -1.5019
15488SOL    HW249996   4.390   8.932  10.128  2.0016  1.4347 -0.6331
15489SOL     OW49997   8.112   1.973   6.934 -0.3627  0.5208  0.1287
15489SOL    HW149998   8.121   2.020   7.017  0.0522  0.7820 -0.0613
15489SOL    HW249999   8.178   1.905   6.938 -0.6183  0.2761  0.1848
15490SOL     OW50000   4.835   1.813   8.663  0.0520 -0.0272  0.8706
15490SOL    HW150001   4.840   1.900   8.623 -0.0591 -0.7746 -0.8836
15490SOL    HW250002   4.852   1.828   8.756  2.7643  1.5701  0.2494
15491SOL     OW50003   7.535   3.641   9.388  0.2688 -0.2392  0.0371
15491SOL    HW150004   7.608   3.703   9.387 -0.8752  1.2272  1.5850
15491SOL    HW250005   7.466   3.686   9.438 -1.6074 -1.6682 -1.1472
15492SOL     OW50006   2.877   0.415   0.738  0.2355 -0.0732  0.5024
15492SOL    HW150007   2.892   0.506   0.766 -0.3894  1.1172 -2.6130
15492SOL    HW250008   2.841   0.423   0.650 -1.3040 -3.3626  0.7020
15493SOL     OW50009   6.329   6.149   7.452  0.2246  0.2900 -0.2559
15493SOL    HW150010   6.345   6.178   7.542 -1.4410 -0.5536  0.3596
15493SOL    HW250011   6.374   6.213   7.398 -0.5665  2.0949  1.1212
15494SOL     OW50012   6.974  10.595  10.807 -0.0975 -0.1716  0.0831
15494SOL    HW150013   6.981  10.631  10.719 -0.6420 -1.1749 -0.3898
15494SOL    HW250014   6.882  10.568  10.816  0.1800 -1.0327  0.5562
15495SOL     OW50015  11.006   3.019   8.010 -0.0406  0.1214  0.1799
15495SOL    HW150016  11.085   2.967   8.024 -0.2144  0.0644  1.0369
15495SOL    HW250017  10.988   3.059   8.095  0.9613  2.9035 -0.8028
15496SOL     OW50018   0.636  10.005   4.658 -0.3295  0.0570 -0.0704
15496SOL    HW150019   0.542   9.992   4.651 -0.3518 -1.1466  1.8620
15496SOL    HW250020   0.645  10.076   4.722  0.0898  0.7999 -0.9255
15497SOL     OW50021   6.960   9.004   5.948 -0.0220 -0.2112 -0.1397
15497SOL    HW150022   6.870   8.980   5.926 -0.1288 -0.4947  0.5627
15497SOL    HW250023   6.992   8.931   6.001  0.2081  0.4349  0.6378
15498SOL     OW50024   5.291   0.640   5.815 -0.1558 -0.3634 -0.0750
15498SOL    HW150025   5.335   0.723   5.835  0.1913 -0.7120  0.6463
15498SOL    HW250026   5.311   0.625   5.722  1.0358 -0.3707  0.1596
15499SOL     OW50027  11.053   1.145   2.747 -0.0486  0.2245  0.5400
15499SOL    HW150028  11.011   1.059   2.745 -0.2993  0.3505  0.1298
15499SOL    HW250029  11.025   1.184   2.830 -0.3080  0.0929  0.5153
15500SOL     OW50030   3.594   6.209  10.194 -0.3858 -0.1294  0.2533
15500SOL    HW150031   3.561   6.164  10.272  0.0852 -1.6393 -0.3684
15500SOL    HW250032   3.617   6.297  10.225 -1.8441 -0.0993  1.4129
15501SOL     OW50033   5.093   6.981   8.820 -0.6481 -0.1739 -0.2965
15501SOL    HW150034   5.086   6.993   8.915  1.5255 -0.4198 -0.0517
15501SOL    HW250035   5.008   7.008   8.786 -1.1921  0.7383  1.6413
15502SOL     OW50036   9.313   8.984   8.736  0.4433  0.2924  0.2622
15502SOL    HW150037   9.285   9.032   8.814 -0.7363  0.4816 -0.2608
15502SOL    HW250038   9.285   8.894   8.751 -0.9401  0.5653 -0.4498
15503SOL     OW50039   4.264   4.219   6.192 -0.6137 -0.9727  0.4874
15503SOL    HW150040   4.212   4.220   6.111  1.8788 -2.9190 -1.3399
15503SOL    HW250041   4.344   4.171   6.168  0.6822 -0.8143  3.9020
15504SOL     OW50042   4.070   2.760   4.791 -0.1245 -0.1885  0.2875
15504SOL    HW150043   4.072   2.668   4.817 -1.9934 -0.4102 -0.1926
15504SOL    HW250044   4.138   2.802   4.844  0.6947 -1.8106  0.5783
15505SOL     OW50045   4.870   5.416   2.630  0.8156 -0.2960  0.5277
15505SOL    HW150046   4.945   5.363   2.605  0.7975  0.0168 -0.2394
15505SOL    HW250047   4.803   5.353   2.655  1.3511 -0.5743  1.2807
15506SOL     OW50048   9.367   2.235   0.840 -0.1672 -0.6498 -0.5884
15506SOL    HW150049   9.366   2.311   0.898 -1.1475 -1.1972  0.1487
15506SOL    HW250050   9.458   2.206   0.839  0.2802  0.6847 -1.1166
15507SOL     OW50051   9.955   5.829   2.463  0.3592 -0.0094 -0.1148
15507SOL    HW150052   9.979   5.914   2.426 -0.1753  0.6189  0.9274
15507SOL    HW250053   9.880   5.848   2.519  1.1089 -0.9236  1.2516
15508SOL     OW50054   1.738   4.452   2.648 -0.3536 -0.1217 -0.3312
15508SOL    HW150055   1.808   4.409   2.599 -1.1784 -0.2426 -1.4386
15508SOL    HW250056   1.707   4.521   2.590  1.8559  3.0257  1.9291
15509SOL     OW50057   3.275   0.985   1.161  0.4285 -0.7571  0.0962
15509SOL    HW150058   3.183   0.987   1.188  0.0513  0.7608 -1.1737
15509SOL    HW250059   3.272   0.954   1.071  0.7981  2.2781 -1.0631
15510SOL     OW50060   1.463   3.663   8.488  0.4641  0.1288  0.4361
15510SOL    HW150061   1.522   3.708   8.549  0.5556  0.4560  0.1079
15510SOL    HW250062   1.463   3.718   8.410 -0.4059  0.2158  0.4891
15511SOL     OW50063   8.588  10.585   1.497 -0.6230  0.3970  0.3002
15511SOL    HW150064   8.654  10.613   1.433  0.7363 -0.3048  1.3585
15511SOL    HW250065   8.521  10.543   1.444 -0.1910  1.0339 -0.7936
15512SOL     OW50066   3.767   7.990   9.091 -0.1913 -0.0248 -0.1465
15512SOL    HW150067   3.791   7.992   8.998  0.4633 -0.4308  0.0071
15512SOL    HW250068   3.696   7.925   9.095 -0.1978 -0.0333 -0.3549
15513SOL     OW50069   1.451   0.211   0.993  0.2405 -0.1933 -0.1783
15513SOL    HW150070   1.478   0.120   0.991  3.2209  0.5694  0.4057
15513SOL    HW250071   1.492   0.250   0.916 -0.9410  0.6984 -0.3897
15514SOL     OW50072   0.808   6.495   9.496  0.0662 -0.4297 -0.1832
15514SOL    HW150073   0.771   6.458   9.415  1.2922 -0.2268 -0.8680
15514SOL    HW250074   0.747   6.469   9.565 -1.1558 -0.3691 -1.2131
15515SOL     OW50075   4.789   9.746   6.270 -0.0519 -0.1018  0.2604
15515SOL    HW150076   4.727   9.759   6.198  1.5787  1.6763 -0.9428
15515SOL    HW250077   4.736   9.712   6.342 -2.0450 -0.4174 -1.2679
15516SOL     OW50078  10.456   3.159   6.226 -0.2508 -0.0359 -0.4431
15516SOL    HW150079  10.491   3.240   6.189  0.0388 -0.6515 -1.5707
15516SOL    HW250080  10.407   3.187   6.303  1.3112  1.0274  0.2157
15517SOL     OW50081   0.541   5.745   0.759  0.0859  0.2532  0.4663
15517SOL    HW150082   0.602   5.818   0.744  0.8883 -0.4490  0.1828
15517SOL    HW250083   0.587   5.669   0.723 -0.9740 -0.2982  0.2583
15518SOL     OW50084   6.558   7.605  10.248 -0.0711  0.1803 -0.8385
15518SOL    HW150085   6.563   7.535  10.184 -1.4500  1.2433 -2.1694
15518SOL    HW250086   6.641   7.651  10.240  0.5827 -0.8921 -0.4039
15519SOL     OW50087   6.643   8.068   8.774 -0.1367 -0.2512  0.4087
15519SOL    HW150088   6.617   7.980   8.801  1.3794 -1.1058 -0.7472
15519SOL    HW250089   6.607   8.076   8.685  0.3008  0.0325  0.2582
15520SOL     OW50090   4.497   4.576  11.045  0.2926 -0.2734 -0.0783
15520SOL    HW150091   4.416   4.562  10.996 -0.1498  1.1567  0.1929
15520SOL    HW250092   4.469   4.613  11.129  1.2566  1.1057 -0.3343
15521SOL     OW50093   3.266   2.169   5.145  0.4841 -0.1817  0.0186
15521SOL    HW150094   3.358   2.185   5.168  0.0457  1.4790  0.7659
15521SOL    HW250095   3.229   2.127   5.224  0.4895 -0.4384 -0.1141
15522SOL     OW50096   3.438   3.786   6.746  0.1876 -0.6763 -0.3114
15522SOL    HW150097   3.522   3.759   6.709 -0.5232  0.4246 -2.9543
15522SOL    HW250098   3.456   3.872   6.785  0.5107 -0.9268  0.0980
15523SOL     OW50099   0.100  10.871   0.503  0.5584 -0.5823 -0.2966
15523SOL    HW150100   0.027  10.850   0.445  2.0626  0.1532 -2.5810
15523SOL    HW250101   0.178  10.840   0.457  1.7885 -0.6427  1.6959
15524SOL     OW50102   6.264   7.095   9.904  0.2363  0.6820  0.2084
15524SOL    HW150103   6.320   7.172   9.898  1.8636 -0.4966 -0.1957
15524SOL    HW250104   6.229   7.098   9.993  0.8709  1.4761  0.4396
15525SOL     OW50105   9.771   2.830   0.253 -0.5388 -0.0120 -0.3113
15525SOL    HW150106   9.852   2.803   0.295 -0.0464  0.7967 -0.7242
15525SOL    HW250107   9.709   2.759   0.273  0.3812 -0.8622 -0.3841
15526SOL     OW50108   9.649   4.640   6.113 -0.0014  0.1312  0.5197
15526SOL    HW150109   9.633   4.607   6.201 -0.1152  1.6435  1.0993
15526SOL    HW250110   9.743   4.658   6.110 -0.2612  1.7135  0.9637
15527SOL     OW50111   1.128   4.725   4.460 -0.1596 -0.3328 -0.1829
15527SOL    HW150112   1.171   4.663   4.401  0.9769  1.7469 -1.6598
15527SOL    HW250113   1.035   4.714   4.442  0.1547  0.2726 -2.4720
15528SOL     OW50114   7.209   1.900   3.432 -0.3439  0.9661  0.2654
15528SOL    HW150115   7.173   1.966   3.373  1.0257  1.1643 -0.4033
15528SOL    HW250116   7.145   1.830   3.432 -1.7675  2.2192  0.8815
15529SOL     OW50117   2.042   0.113  10.031  0.1092 -0.0631 -0.0245
15529SOL    HW150118   2.050   0.206  10.055 -1.7815 -0.3298  1.9941
15529SOL    HW250119   2.127   0.075  10.052  1.1790  1.2857 -1.5979
15530SOL     OW50120   3.773   7.737   7.519  0.0089  0.0928 -0.1782
15530SOL    HW150121   3.806   7.673   7.456 -0.2937  0.4439 -0.7023
15530SOL    HW250122   3.832   7.730   7.593  0.4856 -0.1941 -0.5780
15531SOL     OW50123   4.018   0.553   4.169 -0.0563 -0.0216 -0.0046
15531SOL    HW150124   4.024   0.505   4.252 -1.6824  0.6056  0.5068
15531SOL    HW250125   4.097   0.526   4.121 -0.1591 -2.0721  0.8490
15532SOL     OW50126   1.567   2.613   1.618 -0.6851 -0.0194  0.3321
15532SOL    HW150127   1.528   2.659   1.543  0.8197  0.8017  0.0180
15532SOL    HW250128   1.585   2.682   1.682  3.7402  0.3656 -1.0449
15533SOL     OW50129   8.761   4.807   2.699 -0.0761 -0.2900  0.5836
15533SOL    HW150130   8.768   4.893   2.658  0.6073 -0.4079  0.4450
15533SOL    HW250131   8.712   4.754   2.637  0.1905 -0.2180  0.3112
15534SOL     OW50132   7.900   5.351   5.014  0.3480 -0.0907  0.0322
15534SOL    HW150133   7.861   5.396   5.089  0.5315 -0.8775  0.6170
15534SOL    HW250134   7.905   5.418   4.946  0.0230  0.5976  0.6645
15535SOL     OW50135   3.690   5.665   5.974 -0.3231 -0.0705  0.2748
15535SOL    HW150136   3.605   5.631   6.001 -0.8886  0.8927 -0.2187
15535SOL    HW250137   3.692   5.754   6.010  0.1891  0.1497 -0.2933
15536SOL     OW50138   8.099   2.836   0.688 -0.0700 -0.1333  0.0659
15536SOL    HW150139   8.190   2.837   0.719 -0.3190 -2.1229  1.0518
15536SOL    HW250140   8.104   2.873   0.600  2.0036 -1.5979 -0.5326
15537SOL     OW50141   3.868   2.824   8.084 -0.3582 -0.0449  1.0453
15537SOL    HW150142   3.804   2.818   8.014 -1.6502 -1.4206  2.2541
15537SOL    HW250143   3.948   2.786   8.047 -0.9288 -0.4741  0.2192
15538SOL     OW50144   0.266   5.460  10.307 -0.4744 -0.8650 -0.3884
15538SOL    HW150145   0.223   5.494  10.385  0.4894 -0.3012 -0.0860
15538SOL    HW250146   0.206   5.480  10.236 -1.4043 -1.4578  0.2024
15539SOL     OW50147  10.842   1.338   0.278  0.7434  0.0476  0.6077
15539SOL    HW150148  10.865   1.313   0.189 -0.3298 -1.5318  0.7205
15539SOL    HW250149  10.909   1.298   0.333  0.6782 -0.0933  0.5859
15540SOL     OW50150   8.455   8.628   1.499  0.0508  0.0180  0.0306
15540SOL    HW150151   8.540   8.621   1.543 -0.8341  2.2946  2.3603
15540SOL    HW250152   8.408   8.548   1.524  0.7817 -0.2890  0.4526
15541SOL     OW50153   8.564   7.310   2.934  0.2275  0.1198 -0.3256
15541SOL    HW150154   8.649   7.328   2.973 -0.4583 -0.5650  1.5975
15541SOL    HW250155   8.528   7.397   2.914  1.5324  0.3924 -1.5803
15542SOL     OW50156   0.500   6.993  10.094 -0.5893 -0.3755 -0.2013
15542SOL    HW150157   0.555   6.977  10.170 -1.1355 -1.3051  0.0147
15542SOL    HW250158   0.412   6.967  10.122 -0.6970 -1.3023 -1.3231
15543SOL     OW50159   3.773   5.493   1.883  0.1569 -0.3282 -0.3045
15543SOL    HW150160   3.850   5.538   1.848  0.0423 -0.3569 -0.5990
15543SOL    HW250161   3.804   5.404   1.903  0.1737 -0.3710 -0.5218
15544SOL     OW50162   8.816   3.786   8.738  0.2334 -0.4784  0.1699
15544SOL    HW150163   8.858   3.779   8.652  0.6346 -0.6970  0.3796
15544SOL    HW250164   8.734   3.737   8.729 -0.5272  0.8800 -0.5733
15545SOL     OW50165   9.083   2.670   8.540 -0.4207 -0.5806  0.1970
15545SOL    HW150166   9.131   2.607   8.595  2.0667  1.4900  0.5700
15545SOL    HW250167   9.055   2.738   8.601 -0.1294  0.3263 -0.6614
15546SOL     OW50168   1.172   7.030  10.825  0.4766  0.3138 -0.5488
15546SOL    HW150169   1.200   6.947  10.863  3.1622  1.0617 -0.7569
15546SOL    HW250170   1.094   7.007  10.773  0.3099 -1.7762  0.5420
15547SOL     OW50171   5.026   3.577  10.390  0.4688 -0.0190 -0.0188
15547SOL    HW150172   5.057   3.667  10.405 -0.1926  0.1360  0.4588
15547SOL    HW250173   5.090   3.540  10.330  0.5167  0.9132 -0.5721
15548SOL     OW50174   6.816   8.075   7.163  0.6693  0.6456  0.4535
15548SOL    HW150175   6.841   8.086   7.071  0.8541  0.0380  0.4281
15548SOL    HW250176   6.866   7.999   7.192  1.1746  1.2708  1.2647
15549SOL     OW50177   6.094   6.462  10.577  0.7542  0.0602  0.1331
15549SOL    HW150178   6.115   6.526  10.508  0.8868  1.5905  1.5248
15549SOL    HW250179   6.162   6.475  10.643  0.3270 -1.0061  0.8068
15550SOL     OW50180   9.113   2.573   6.643  0.5113 -0.3051 -0.2618
15550SOL    HW150181   9.029   2.594   6.604  0.3863 -1.0946 -0.4478
15550SOL    HW250182   9.170   2.646   6.620 -0.7899  1.6503  2.1878
15551SOL     OW50183   9.492   9.183   5.470 -0.1283 -0.4987  0.4176
15551SOL    HW150184   9.551   9.249   5.435 -2.1099  0.3272 -1.5987
15551SOL    HW250185   9.514   9.103   5.422 -0.4677 -0.2647 -0.1258
15552SOL     OW50186   7.542   7.468   0.580  0.0806 -0.1533 -0.0135
15552SOL    HW150187   7.521   7.423   0.662 -0.8029  0.5744  0.1790
15552SOL    HW250188   7.517   7.559   0.596  1.1636  0.2632 -0.6366
15553SOL     OW50189   6.712   3.660   7.659  0.1218  0.4129 -0.4616
15553SOL    HW150190   6.628   3.703   7.672 -0.3700 -1.2269  2.7579
15553SOL    HW250191   6.775   3.716   7.705 -0.0727 -0.7982  1.3525
15554SOL     OW50192   7.322   9.557   7.207 -0.4518  0.0364 -0.5620
15554SOL    HW150193   7.382   9.491   7.172  0.9831  0.6306  0.6342
15554SOL    HW250194   7.245   9.507   7.234 -0.5434 -0.7528 -2.1439
15555SOL     OW50195   8.152   7.457   0.676 -0.3617  0.3069 -0.1880
15555SOL    HW150196   8.219   7.389   0.675 -1.4375 -0.8212  0.5055
15555SOL    HW250197   8.149   7.490   0.586  0.7315  0.0008 -0.3472
15556SOL     OW50198   0.917   6.703   8.090 -0.5332  0.3214 -0.2275
15556SOL    HW150199   0.889   6.699   7.999 -0.3490  0.1791 -0.2793
15556SOL    HW250200   1.012   6.713   8.086 -0.2587 -1.7645 -0.0561
15557SOL     OW50201   1.556   3.696   5.933  0.1651 -0.4963 -0.8445
15557SOL    HW150202   1.541   3.604   5.914  1.5144 -0.9511  0.1200
15557SOL    HW250203   1.650   3.709   5.919  0.1129  0.5619 -0.3378
15558SOL     OW50204   3.127   2.971   1.684 -0.2857  0.5337 -0.2323
15558SOL    HW150205   3.139   3.027   1.608 -0.8633  2.3634  0.9583
15558SOL    HW250206   3.186   2.897   1.669  1.2854  1.9518 -1.4035
15559SOL     OW50207   0.536   0.035   1.967  0.2895  0.1237 -0.8434
15559SOL    HW150208   0.494   0.093   1.904 -0.1211 -1.0050 -1.6351
15559SOL    HW250209   0.528  -0.053   1.929  0.4445 -0.5321  0.5618
15560SOL     OW50210   2.352   3.577   4.323  0.2295  0.2497 -0.1393
15560SOL    HW150211   2.395   3.493   4.337  0.8992  0.6014 -0.0217
15560SOL    HW250212   2.266   3.568   4.363  0.4398 -0.2564  0.2015
15561SOL     OW50213   8.892   4.386   4.919 -0.6792  0.2781  0.1079
15561SOL    HW150214   8.911   4.461   4.862  2.0989  0.6942  1.3778
15561SOL    HW250215   8.915   4.417   5.007  0.7978 -2.0710  0.6576
15562SOL     OW50216   1.737  10.029   3.474  0.3493 -0.4127 -0.0094
15562SOL    HW150217   1.744  10.040   3.569 -1.4103 -0.4884  0.1579
15562SOL    HW250218   1.758  10.115   3.438  1.9298 -0.6154  0.3765
15563SOL     OW50219   3.938  10.700   4.298  0.0827  0.0628 -0.9406
15563SOL    HW150220   4.012  10.758   4.316 -0.8375  0.4223  2.2785
15563SOL    HW250221   3.928  10.648   4.378 -2.1366 -1.1189 -1.8926
15564SOL     OW50222   0.828   9.842   0.549 -0.2415 -0.3022  0.7373
15564SOL    HW150223   0.736   9.860   0.567 -0.4047 -1.2530  0.9009
15564SOL    HW250224   0.845   9.882   0.464 -1.2826 -1.6256 -0.1283
15565SOL     OW50225   6.894   0.639  10.281 -0.5096  0.2027 -0.3200
15565SOL    HW150226   6.822   0.675  10.333  0.3490  1.1401  0.2582
15565SOL    HW250227   6.907   0.551  10.317 -0.9181  0.2861  0.0411
15566SOL     OW50228  10.876   1.195   6.234  0.0808  0.0966  0.3049
15566SOL    HW150229  10.792   1.156   6.212  0.4061 -0.4374 -0.0376
15566SOL    HW250230  10.876   1.202   6.329 -0.3796  0.1658  0.2979
15567SOL     OW50231   0.756   1.292   9.015  0.0085 -0.5504 -0.2913
15567SOL    HW150232   0.832   1.288   9.074 -0.7266 -1.9086  0.6145
15567SOL    HW250233   0.788   1.339   8.938  1.0154  1.2827  1.1630
15568SOL     OW50234   4.624   0.194   3.141 -0.0925  0.0482  0.1838
15568SOL    HW150235   4.604   0.101   3.140 -0.2493  0.0826  0.0380
15568SOL    HW250236   4.596   0.226   3.055  0.3196  0.1539  0.0879
15569SOL     OW50237   7.110   1.654   3.171 -0.3399  0.0650 -0.3404
15569SOL    HW150238   7.084   1.743   3.193  0.9569  0.0819  1.4439
15569SOL    HW250239   7.031   1.612   3.138 -1.1333  1.6790 -0.5420
15570SOL     OW50240   8.650   1.031   2.582  0.6559 -0.0740 -0.0793
15570SOL    HW150241   8.557   1.013   2.570  0.2304  1.1495  1.1201
15570SOL    HW250242   8.672   0.992   2.666  1.0376  0.3029  0.0015
15571SOL     OW50243   6.835   6.967   3.108 -0.1689  0.0028 -0.0748
15571SOL    HW150244   6.805   6.878   3.128 -0.3780  0.7585  3.6070
15571SOL    HW250245   6.928   6.967   3.133  0.2663  0.4639 -1.5694
15572SOL     OW50246   5.716  11.037   1.759  0.0881  0.3461 -0.1258
15572SOL    HW150247   5.632  10.991   1.752  0.2574  0.1697 -1.1821
15572SOL    HW250248   5.758  10.999   1.836 -0.0474 -0.8471 -0.6151
15573SOL     OW50249   7.907   7.495  10.490  0.0538  0.1395 -0.0089
15573SOL    HW150250   7.903   7.589  10.472 -0.7875  0.1184  0.0244
15573SOL    HW250251   7.821   7.473  10.526 -0.3468 -0.9595 -1.5580
15574SOL     OW50252   4.906   4.485   1.168 -0.4627 -0.6539  0.2799
15574SOL    HW150253   4.909   4.534   1.085  0.2105  0.8026  1.1137
15574SOL    HW250254   4.826   4.515   1.210 -1.1732 -1.9300 -0.1371
15575SOL     OW50255   1.857   7.732  10.926 -0.5749  0.0921  0.1171
15575SOL    HW150256   1.837   7.793  10.855 -0.3663  1.5153  1.2444
15575SOL    HW250257   1.772   7.710  10.964 -0.6920 -0.7115 -0.5641
15576SOL     OW50258   6.602  11.000   8.924 -0.2394 -0.3916 -0.4147
15576SOL    HW150259   6.628  11.076   8.872  2.5892  0.3950  1.8803
15576SOL    HW250260   6.649  10.927   8.885 -1.7141 -0.7493 -1.6371
15577SOL     OW50261   6.045   2.964  11.006 -0.4587 -0.5910  0.1594
15577SOL    HW150262   5.994   2.888  11.033 -1.0111 -0.5018 -0.5996
15577SOL    HW250263   6.006   2.991  10.923  0.3455 -0.0649 -0.0641
15578SOL     OW50264   0.151   7.232   8.895 -0.2806  0.4836 -0.1812
15578SOL    HW150265   0.086   7.187   8.841 -0.0956  0.8332 -0.7034
15578SOL    HW250266   0.160   7.318   8.855 -0.7021  1.0332  0.8646
15579SOL     OW50267   1.235   2.163   1.791  0.3236  0.3351  0.1605
15579SOL    HW150268   1.307   2.222   1.814 -0.3014  0.6864  1.2725
15579SOL    HW250269   1.277   2.077   1.782  1.0717  0.7458 -0.4443
15580SOL     OW50270   8.744   8.885   7.846  0.1657  0.1586 -0.7691
15580SOL    HW150271   8.827   8.848   7.817  1.5052  1.1574  1.5799
15580SOL    HW250272   8.747   8.977   7.818  0.6395  0.6375  0.7796
15581SOL     OW50273   0.340   6.408   4.258 -0.0880 -0.2233 -0.3782
15581SOL    HW150274   0.391   6.475   4.304 -0.6892 -0.0185 -0.0060
15581SOL    HW250275   0.393   6.387   4.181 -0.3993  1.4823 -1.1031
15582SOL     OW50276   0.794   6.502   0.110 -0.6346  0.1917 -0.2252
15582SOL    HW150277   0.707   6.540   0.097  0.1118  1.7749 -0.8070
15582SOL    HW250278   0.829   6.549   0.186 -0.1973 -0.2736 -0.1382
15583SOL     OW50279   2.265   2.089   7.694  0.5202 -0.4574  0.0307
15583SOL    HW150280   2.190   2.130   7.736  0.0524 -0.7775 -0.4744
15583SOL    HW250281   2.302   2.157   7.638  0.4079 -0.4000  0.0262
15584SOL     OW50282   4.008   3.145   5.945 -0.6255 -1.0447 -0.3291
15584SOL    HW150283   4.019   3.101   5.860 -0.6564 -2.5854  0.4373
15584SOL    HW250284   3.970   3.079   6.002 -1.4273  0.2324  0.6826
15585SOL     OW50285   9.247   4.595   2.180  0.1858  0.3275  0.6945
15585SOL    HW150286   9.315   4.658   2.202  0.1691  0.7082 -0.2997
15585SOL    HW250287   9.165   4.642   2.193  0.1663  0.4258  0.2570
15586SOL     OW50288   9.918   8.449   9.742 -0.0902 -0.0952  0.0393
15586SOL    HW150289  10.009   8.440   9.768 -0.1594  0.1088  0.3595
15586SOL    HW250290   9.908   8.541   9.719 -0.5300  0.1672  1.2366
15587SOL     OW50291   1.832   4.626   4.586 -0.2632  0.4573  0.0997
15587SOL    HW150292   1.891   4.605   4.658 -0.6950 -0.7866  0.1115
15587SOL    HW250293   1.850   4.559   4.520 -0.3012  1.2231 -0.7103
15588SOL     OW50294   9.118   3.787   2.269  0.5602 -0.2257  0.2249
15588SOL    HW150295   9.130   3.864   2.325 -1.1760  0.0633  0.2417
15588SOL    HW250296   9.028   3.794   2.238  0.4292 -2.1575  0.0771
15589SOL     OW50297   7.350   6.275   8.537 -0.3050 -0.4255 -0.3719
15589SOL    HW150298   7.440   6.248   8.555 -0.8420 -0.8896  2.0220
15589SOL    HW250299   7.349   6.370   8.549  0.0366 -0.2829 -1.3769
15590SOL     OW50300  10.282   2.778   4.476  0.2968  0.0315  0.3850
15590SOL    HW150301  10.278   2.769   4.571  0.5148  3.4825  0.8647
15590SOL    HW250302  10.357   2.725   4.449 -1.2375 -3.0683  1.6651
15591SOL     OW50303   4.155   0.873   4.085  0.2443  0.4095 -0.0844
15591SOL    HW150304   4.096   0.942   4.054 -0.1045  0.1943  0.0853
15591SOL    HW250305   4.154   0.808   4.016  3.2962  2.0895 -1.8858
15592SOL     OW50306  10.510   3.778   3.223 -0.3421  0.3617 -0.1505
15592SOL    HW150307  10.522   3.764   3.129 -1.5689 -0.1832 -0.2530
15592SOL    HW250308  10.594   3.756   3.262 -0.8747 -3.3564 -0.7486
15593SOL     OW50309   7.211  10.373   3.261  0.0774 -0.1983  0.9113
15593SOL    HW150310   7.170  10.320   3.192  3.2829 -0.2240 -1.1665
15593SOL    HW250311   7.224  10.311   3.333 -1.2695 -0.7442  0.7252
15594SOL     OW50312   4.928   7.760   9.875 -0.0489  0.0327 -0.3252
15594SOL    HW150313   4.975   7.681   9.902  1.9598  0.7400 -1.5189
15594SOL    HW250314   4.914   7.809   9.956  0.4532 -0.6432  0.1800
15595SOL     OW50315  10.804   5.035   5.555 -0.3454  0.7304  0.3348
15595SOL    HW150316  10.888   5.004   5.588 -0.8119 -1.0386 -0.0418
15595SOL    HW250317  10.802   5.009   5.463 -1.6494 -0.0471  0.5584
15596SOL     OW50318   6.440   7.624   6.724 -0.0923  0.3072 -0.1234
15596SOL    HW150319   6.379   7.676   6.671  0.3863  1.4891  0.4539
15596SOL    HW250320   6.505   7.688   6.755  1.5631 -0.9357 -0.8763
15597SOL     OW50321   7.659   2.280  10.983 -0.0413 -0.3935  0.6958
15597SOL    HW150322   7.577   2.328  10.996 -0.5429 -0.9320 -0.2714
15597SOL    HW250323   7.632   2.188  10.978  0.5979 -0.5646  0.2074
15598SOL     OW50324   2.905   9.989   0.559 -0.4099  0.2695 -0.3423
15598SOL    HW150325   2.987  10.023   0.594 -0.8836  1.4824 -0.3864
15598SOL    HW250326   2.886   9.913   0.614  0.1695  0.6278  0.3746
15599SOL     OW50327   4.427   7.328   7.643 -0.5060  0.1863  0.1583
15599SOL    HW150328   4.512   7.324   7.599 -1.2518  1.9536 -1.5991
15599SOL    HW250329   4.374   7.263   7.599 -0.4006 -0.1113  0.4693
15600SOL     OW50330   9.778   4.035   7.411 -0.1224 -0.0004 -0.4619
15600SOL    HW150331   9.705   4.085   7.448 -1.5840 -1.3610 -1.3957
15600SOL    HW250332   9.796   4.076   7.327  1.7173  1.6881  0.6487
15601SOL     OW50333   5.051   8.869  10.897  0.5275  0.5744  0.9637
15601SOL    HW150334   5.085   8.912  10.975  1.3377 -0.1954  1.0432
15601SOL    HW250335   5.127   8.855  10.841 -0.1620  1.9622 -0.4139
15602SOL     OW50336   6.632   3.246   1.366  0.0775  0.4873 -0.1482
15602SOL    HW150337   6.558   3.306   1.374  0.3293  0.8534 -0.4789
15602SOL    HW250338   6.624   3.187   1.440  0.4452  1.6278  0.8371
15603SOL     OW50339   5.666   6.046   3.251 -0.2208 -0.2582  0.0196
15603SOL    HW150340   5.720   6.087   3.183  0.6218  0.4128  1.0593
15603SOL    HW250341   5.622   5.974   3.206  0.2989  0.1825 -1.2419
15604SOL     OW50342   6.125   3.407   1.243 -0.2461  0.0190 -0.1317
15604SOL    HW150343   6.216   3.396   1.216 -0.5759 -2.6661 -0.4481
15604SOL    HW250344   6.126   3.388   1.337 -0.7244 -2.5125 -0.5483
15605SOL     OW50345   7.891   7.824   3.157 -0.1959 -0.3537 -0.0098
15605SOL    HW150346   7.975   7.823   3.203  0.0147  0.1727 -0.3735
15605SOL    HW250347   7.906   7.776   3.076  0.7850  2.7001 -1.7909
15606SOL     OW50348   0.128  10.443   0.792  0.6534  0.3801 -0.1769
15606SOL    HW150349   0.048  10.495   0.785  1.1316  1.2655  0.7589
15606SOL    HW250350   0.186  10.480   0.726 -0.3347 -1.5220 -2.2417
15607SOL     OW50351   0.806   9.544   9.690 -0.5142  0.3260 -0.2758
15607SOL    HW150352   0.794   9.454   9.659 -0.3079 -0.1967  1.1192
15607SOL    HW250353   0.724   9.566   9.732  0.2380 -0.0796  1.4707
15608SOL     OW50354   9.939  10.392   2.900 -0.2289  0.2365  0.0375
15608SOL    HW150355  10.030  10.414   2.877 -0.6095 -0.3111 -2.2593
15608SOL    HW250356   9.906  10.470   2.943  1.1265  0.7188  0.2565
15609SOL     OW50357   9.316   1.805   4.922 -0.8207  0.1315 -0.0304
15609SOL    HW150358   9.222   1.804   4.940 -1.3131  1.8915 -2.1857
15609SOL    HW250359   9.323   1.805   4.827  1.4580 -1.9106  0.0255
15610SOL     OW50360   5.622   1.994  10.359 -0.1899  0.1421 -0.0685
15610SOL    HW150361   5.678   1.917  10.345  2.0103  1.3965  1.3212
15610SOL    HW250362   5.615   2.001  10.455 -1.7711  0.7349 -0.2003
15611SOL     OW50363  10.226   5.672   1.730  0.3727  0.0667  0.4587
15611SOL    HW150364  10.218   5.715   1.645  1.3789  1.4798  1.0317
15611SOL    HW250365  10.253   5.583   1.710  1.2681  0.5749 -0.6916
15612SOL     OW50366   1.707   7.707   1.309  0.1633  0.5455  0.0198
15612SOL    HW150367   1.718   7.674   1.220 -0.3197  0.5551 -0.0423
15612SOL    HW250368   1.769   7.655   1.361 -0.2698 -0.1656 -0.1525
15613SOL     OW50369  10.320  10.551   0.596 -0.1534  0.2143  0.1941
15613SOL    HW150370  10.255  10.621   0.589 -0.6661 -0.4288 -2.9075
15613SOL    HW250371  10.290  10.484   0.534  2.5096 -0.9257  0.0071
15614SOL     OW50372   2.253   6.556   3.884  0.2391  0.2743 -0.4274
15614SOL    HW150373   2.265   6.532   3.976  0.7355  0.4464 -0.4437
15614SOL    HW250374   2.274   6.649   3.881  2.8422 -0.2717 -1.1756
15615SOL     OW50375   8.693  10.170   2.459  0.2310 -0.4828 -0.7140
15615SOL    HW150376   8.757  10.237   2.436 -1.1834  0.3557 -2.4163
15615SOL    HW250377   8.620  10.218   2.498 -0.0945 -1.2324 -0.3714
15616SOL     OW50378   1.150  10.845   4.620  0.2735  0.1213 -0.0142
15616SOL    HW150379   1.072  10.790   4.618 -0.3002  0.9184  0.0064
15616SOL    HW250380   1.208  10.808   4.554  1.0986 -2.2068  1.8904
15617SOL     OW50381   5.840   7.734   0.813 -0.0886  0.7205  0.3836
15617SOL    HW150382   5.914   7.792   0.833 -0.7082  2.7380 -2.5510
15617SOL    HW250383   5.811   7.762   0.726 -2.5840 -1.8565  0.2616
15618SOL     OW50384   0.453   1.930   6.796 -0.4641 -0.4625 -0.5294
15618SOL    HW150385   0.361   1.927   6.825 -0.1331 -0.8274  0.5492
15618SOL    HW250386   0.500   1.882   6.864  0.4523 -0.7945 -1.3909
15619SOL     OW50387   6.847  10.760   5.220  0.2827 -0.3576 -0.1925
15619SOL    HW150388   6.936  10.763   5.253  0.1775 -2.2879  0.3671
15619SOL    HW250389   6.857  10.752   5.125  0.6831 -0.0298 -0.1805
15620SOL     OW50390  10.921  11.006   9.331 -0.3329  0.0605 -0.0031
15620SOL    HW150391  10.874  10.987   9.412  0.3484 -2.5104 -0.1310
15620SOL    HW250392  10.952  10.921   9.300  2.7912  1.3666 -0.9104
15621SOL     OW50393   0.710  11.089   9.663  0.1849 -0.5545 -0.4509
15621SOL    HW150394   0.667  11.146   9.727  0.5437 -1.5853  0.7611
15621SOL    HW250395   0.643  11.070   9.598 -0.5087 -0.2991  0.1756
15622SOL     OW50396   1.654   6.292   9.071  0.5392  0.0593 -0.4459
15622SOL    HW150397   1.676   6.201   9.090 -0.4927 -0.1203 -0.0896
15622SOL    HW250398   1.624   6.291   8.980 -0.6096 -0.1670 -0.0722
15623SOL     OW50399   1.984  10.278   0.901  0.3373  0.1461 -0.3738
15623SOL    HW150400   1.926  10.339   0.856 -2.2796 -1.3326  0.7767
15623SOL    HW250401   1.969  10.294   0.994  0.8664 -1.1223 -0.0479
15624SOL     OW50402   0.470   6.866   7.609  0.0901  0.4424 -0.2944
15624SOL    HW150403   0.526   6.942   7.624 -0.1665  0.3125  1.4562
15624SOL    HW250404   0.384   6.902   7.590  0.3525  0.6042 -1.2322
15625SOL     OW50405   8.256   0.940   9.630 -0.8295  0.1458 -0.1638
15625SOL    HW150406   8.244   0.920   9.723 -1.9773  0.0464 -0.3140
15625SOL    HW250407   8.273   1.034   9.627  1.1452 -0.1734  0.2832
15626SOL     OW50408   9.969   4.847   9.800 -0.6060 -0.0373  0.2664
15626SOL    HW150409  10.029   4.918   9.823 -0.7273  0.6897 -1.5262
15626SOL    HW250410   9.964   4.849   9.705 -2.8092 -0.6531  0.3147
15627SOL     OW50411  10.216   1.838  10.431 -0.0715 -0.1592  0.4073
15627SOL    HW150412  10.239   1.801  10.517 -1.4357  0.1821  0.9509
15627SOL    HW250413  10.154   1.908  10.452  0.5995  0.8246 -0.7790
15628SOL     OW50414   4.814   1.485   0.927 -0.4100 -0.4012 -0.2413
15628SOL    HW150415   4.815   1.429   0.849  0.1748 -0.5491 -0.1272
15628SOL    HW250416   4.877   1.445   0.986 -0.7502 -0.2098  0.2591
15629SOL     OW50417   3.688   8.539   1.902  0.1003 -0.2085 -0.1960
15629SOL    HW150418   3.767   8.494   1.932 -0.8366 -1.4513  0.4899
15629SOL    HW250419   3.717   8.592   1.828  1.7470  0.0708  0.6038
15630SOL     OW50420   1.995   0.942   5.978 -1.1348  0.4151 -0.3755
15630SOL    HW150421   2.078   0.938   5.931 -0.4707 -0.5263  0.8012
15630SOL    HW250422   1.974   1.036   5.983 -0.0226  0.6817 -0.5079
15631SOL     OW50423   9.176   9.151   1.043 -0.2918  0.3637  0.3655
15631SOL    HW150424   9.082   9.161   1.062 -0.4844 -2.0050  0.9648
15631SOL    HW250425   9.198   9.229   0.992 -2.5441  1.0778  0.3592
15632SOL     OW50426  10.487   9.356  10.789 -0.0768  0.0130  0.5143
15632SOL    HW150427  10.394   9.367  10.770 -0.0761 -1.8092 -0.8877
15632SOL    HW250428  10.522   9.445  10.797 -1.6562  0.7507 -0.4389
15633SOL     OW50429   4.615   9.361  10.504  0.3602  0.1943  0.0734
15633SOL    HW150430   4.648   9.421  10.570 -1.3942 -0.1980  1.3797
15633SOL    HW250431   4.577   9.417  10.437  2.0724  0.5902 -0.6304
15634SOL     OW50432   3.404   6.108   7.259  0.2026  0.2991  0.3031
15634SOL    HW150433   3.331   6.069   7.308 -0.6932 -0.3572 -1.4805
15634SOL    HW250434   3.482   6.080   7.307 -0.6072 -0.8260  1.0252
15635SOL     OW50435   0.551   1.185   7.111 -0.2043 -0.1141  0.0805
15635SOL    HW150436   0.639   1.180   7.148  0.4013 -0.2298 -1.2986
15635SOL    HW250437   0.562   1.156   7.020 -1.8376 -1.0102  0.1357
15636SOL     OW50438   3.884   5.896   6.301  0.3366 -0.0808  0.2804
15636SOL    HW150439   3.805   5.897   6.356 -0.2124  0.5368 -0.5006
15636SOL    HW250440   3.906   5.989   6.291 -1.2191  0.0723 -2.8417
15637SOL     OW50441   4.232   1.235   3.866  0.1673 -0.0861  0.5189
15637SOL    HW150442   4.301   1.203   3.923 -1.8658 -0.0313  3.2184
15637SOL    HW250443   4.172   1.282   3.925 -1.0948  1.6920 -2.0017
15638SOL     OW50444   2.795   6.772  10.023  0.1077 -0.4231  1.2444
15638SOL    HW150445   2.808   6.845  10.083  2.6798 -0.1552  0.4687
15638SOL    HW250446   2.756   6.703  10.077 -1.7973  1.2207  2.1294
15639SOL     OW50447   8.516  10.301  10.554  1.0559  0.3928  0.1609
15639SOL    HW150448   8.436  10.249  10.552 -0.6578  2.7177  2.2642
15639SOL    HW250449   8.487  10.391  10.538  3.1768  1.3792  1.4568
15640SOL     OW50450   1.831  10.770   4.697 -0.0322 -0.5407 -0.0860
15640SOL    HW150451   1.788  10.831   4.757  0.5823 -1.5651  1.4741
15640SOL    HW250452   1.896  10.725   4.752  1.8999 -0.1967 -1.9606
15641SOL     OW50453   3.497   4.425   1.320  0.2119 -0.1798 -0.2208
15641SOL    HW150454   3.429   4.490   1.341 -0.3582 -1.1286  1.0286
15641SOL    HW250455   3.479   4.353   1.380  0.7667 -1.5424 -1.6396
15642SOL     OW50456   9.545  10.458   9.085 -0.3702 -0.1793 -0.3349
15642SOL    HW150457   9.460  10.414   9.082  1.8530 -5.1512 -0.2222
15642SOL    HW250458   9.559  10.489   8.996 -1.9669  0.0952 -0.5252
15643SOL     OW50459   4.881   9.771   1.827 -0.0546 -0.0919  0.0261
15643SOL    HW150460   4.876   9.736   1.738 -1.3414  2.0912 -0.8320
15643SOL    HW250461   4.945   9.842   1.822 -2.5086  2.2999 -0.1098
15644SOL     OW50462  10.110   8.033   5.628 -0.2031 -0.5837  0.0090
15644SOL    HW150463  10.198   8.072   5.627 -1.1980  1.7909 -1.5758
15644SOL    HW250464  10.064   8.081   5.697 -0.2607 -1.9824  0.9955
15645SOL     OW50465   9.288   7.224   6.664  0.1798 -0.4590 -0.0687
15645SOL    HW150466   9.351   7.280   6.710 -0.2277 -0.3554  0.3804
15645SOL    HW250467   9.273   7.269   6.581 -0.7171  0.5292  0.5911
15646SOL     OW50468   8.219   6.503   5.564  0.0150 -0.0291  0.0281
15646SOL    HW150469   8.172   6.585   5.578  1.2977  0.6410  0.6537
15646SOL    HW250470   8.311   6.530   5.555  0.9944 -1.5488  3.5437
15647SOL     OW50471   5.003   2.893   0.203 -0.0617 -0.3769  0.5204
15647SOL    HW150472   4.990   2.799   0.219  1.3366 -0.5511  0.7490
15647SOL    HW250473   5.085   2.897   0.153  0.1769  0.7527  0.9776
15648SOL     OW50474   5.768  10.280   0.964  0.2500  0.1666  0.3184
15648SOL    HW150475   5.824  10.248   0.893 -0.4444  3.2044 -1.7944
15648SOL    HW250476   5.805  10.240   1.043  1.9492 -2.2638 -1.5488
15649SOL     OW50477   2.161   5.969   3.856  0.0890 -0.4220 -0.2899
15649SOL    HW150478   2.203   5.916   3.923  1.5616  1.5019  0.4037
15649SOL    HW250479   2.117   6.039   3.904  0.0811  0.2579 -1.2447
15650SOL     OW50480   8.630   5.524   7.665  0.2894  0.0041 -0.2400
15650SOL    HW150481   8.615   5.475   7.584  1.5911 -0.7895 -0.0373
15650SOL    HW250482   8.572   5.600   7.658  0.1784 -0.1776 -1.7985
15651SOL     OW50483   8.528   9.064   8.862 -0.1116 -0.5311 -0.3883
15651SOL    HW150484   8.490   9.094   8.779  0.0688  2.1630  0.3863
15651SOL    HW250485   8.617   9.037   8.838  0.0176  0.4256 -1.0927
15652SOL     OW50486   2.787   6.484  10.863  0.3269  0.3591  0.1426
15652SOL    HW150487   2.746   6.568  10.845  1.0354  0.4599 -1.0953
15652SOL    HW250488   2.831   6.460  10.781 -1.7124 -2.2991 -0.3397
15653SOL     OW50489   1.868   6.426   0.808  0.2136  0.0451  0.5639
15653SOL    HW150490   1.848   6.427   0.715  2.3197 -1.3505  0.0481
15653SOL    HW250491   1.948   6.478   0.817 -0.1806  0.5034  1.6640
15654SOL     OW50492   9.001   9.779   0.414 -0.6074  0.1155  0.2142
15654SOL    HW150493   9.084   9.807   0.374 -0.7830 -0.1882 -0.3736
15654SOL    HW250494   8.945   9.857   0.410  0.3122  0.9542  2.4909
15655SOL     OW50495   9.585   1.820   4.205  0.1844 -0.0298 -0.1769
15655SOL    HW150496   9.522   1.828   4.134  0.8514 -0.6396 -0.8705
15655SOL    HW250497   9.532   1.804   4.283 -0.6001  1.3846 -0.3917
15656SOL     OW50498   7.441   0.215  10.475  0.0387  0.1148  0.7592
15656SOL    HW150499   7.435   0.237  10.568  1.1021  1.9401  0.4681
15656SOL    HW250500   7.535   0.202  10.460 -0.2119 -1.0208  0.1038
15657SOL     OW50501   6.845   6.330   7.044  0.1371  0.6041  0.2099
15657SOL    HW150502   6.756   6.305   7.071  0.1400  1.4862  1.1139
15657SOL    HW250503   6.899   6.255   7.068 -0.0237  0.9693  1.8284
15658SOL     OW50504   3.860   2.718   6.153 -0.0063 -0.1705 -0.2875
15658SOL    HW150505   3.820   2.662   6.219 -0.6605 -0.4450 -0.9030
15658SOL    HW250506   3.875   2.660   6.078  0.9197  0.0875 -0.3202
15659SOL     OW50507   8.116   7.779   0.446 -0.0289 -0.0913  0.0481
15659SOL    HW150508   8.033   7.819   0.420  0.0087  0.1581  0.3082
15659SOL    HW250509   8.103   7.686   0.429 -0.1934  0.0020 -0.3595
15660SOL     OW50510   9.080  11.016   9.944  0.0773 -0.6464  0.2663
15660SOL    HW150511   9.025  11.054   9.876  0.9920  0.1682 -0.0358
15660SOL    HW250512   9.169  11.031   9.914  0.4904 -2.6495  0.3609
15661SOL     OW50513   6.959   3.299  10.248 -0.0597  0.2288  0.1362
15661SOL    HW150514   6.930   3.285  10.338  1.2720 -0.4440  0.4722
15661SOL    HW250515   6.919   3.383  10.223 -1.3578 -0.1192  0.9399
15662SOL     OW50516   4.124   4.382   7.357  0.3668 -0.8192  0.5088
15662SOL    HW150517   4.135   4.416   7.268  0.9081 -1.1342  0.4478
15662SOL    HW250518   4.108   4.288   7.345 -1.0234 -0.6271  0.6803
15663SOL     OW50519   5.843   0.031  10.483 -0.1194 -0.1313 -0.3374
15663SOL    HW150520   5.918   0.089  10.475 -1.0188  1.0350 -0.4904
15663SOL    HW250521   5.870  -0.034  10.548  1.2461 -0.1133 -0.8653
15664SOL     OW50522   7.142   9.520  10.676 -0.2234  0.3875 -0.5763
15664SOL    HW150523   7.086   9.598  10.668  1.1873  1.5093  0.1426
15664SOL    HW250524   7.143   9.501  10.770  0.8974  0.6377 -0.5214
15665SOL     OW50525   9.502   0.995   7.285 -0.1442 -0.3591 -0.3916
15665SOL    HW150526   9.523   0.902   7.282  0.8080 -0.1298 -1.8029
15665SOL    HW250527   9.494   1.014   7.379 -1.5883 -2.0891 -0.1154
15666SOL     OW50528   6.608   9.925   1.130  0.1583  0.0629  0.6148
15666SOL    HW150529   6.575   9.844   1.170  0.2663 -0.0513  0.4736
15666SOL    HW250530   6.535   9.957   1.077  0.5575 -0.6542 -0.3970
15667SOL     OW50531   6.012   2.586   2.123 -0.3631  0.1139  0.1502
15667SOL    HW150532   5.932   2.561   2.168 -0.5388 -0.6087 -0.5389
15667SOL    HW250533   6.082   2.567   2.185 -0.4712 -2.3288 -0.3717
15668SOL     OW50534   0.471   6.429   5.235 -0.2017 -0.5825  0.3947
15668SOL    HW150535   0.496   6.478   5.156  0.4725 -1.2822  0.1598
15668SOL    HW250536   0.381   6.456   5.251 -0.0985  0.1601 -0.1642
15669SOL     OW50537   1.266  10.732  10.349  0.2115 -0.4152 -0.1002
15669SOL    HW150538   1.354  10.717  10.313  0.1045  1.0200 -1.0509
15669SOL    HW250539   1.207  10.720  10.275 -0.3818 -1.0319  0.4587
15670SOL     OW50540   8.266   5.621   2.764  0.1453  0.1817 -0.0401
15670SOL    HW150541   8.290   5.663   2.847 -1.6778  1.5660 -0.1455
15670SOL    HW250542   8.207   5.550   2.790  2.5021 -1.8500  0.0650
15671SOL     OW50543   4.085   4.089   3.254 -0.8373 -0.1983  0.0316
15671SOL    HW150544   4.091   4.122   3.165 -0.2538 -0.5676 -0.0712
15671SOL    HW250545   4.042   4.159   3.303  0.5685  0.8201 -0.1341
15672SOL     OW50546   0.302   8.869   9.911  0.2768  0.0176  0.2401
15672SOL    HW150547   0.355   8.946   9.929 -1.5350  1.6405 -0.8976
15672SOL    HW250548   0.226   8.877   9.969 -0.6051 -0.1247 -0.8501
15673SOL     OW50549   0.078   3.420   3.307  0.0909  0.4579  1.0562
15673SOL    HW150550   0.046   3.333   3.280 -0.2507  0.8670  0.0865
15673SOL    HW250551   0.125   3.404   3.388 -0.0898 -0.6211  0.9654
15674SOL     OW50552   0.990  10.796   0.054 -0.3077 -0.0105 -0.1062
15674SOL    HW150553   1.006  10.890   0.045 -1.6096  0.2409 -0.0371
15674SOL    HW250554   0.944  10.772  -0.027  0.1160 -0.6259 -0.1777
15675SOL     OW50555  10.101   0.356  10.565 -0.5244  0.8740  0.3128
15675SOL    HW150556  10.021   0.305  10.561  0.5632 -0.8538 -1.5872
15675SOL    HW250557  10.162   0.301  10.614  0.8492 -0.0885 -2.2691
15676SOL     OW50558   9.310   6.273   4.992 -0.0328 -0.8172  0.0070
15676SOL    HW150559   9.353   6.217   5.057 -0.9729  0.1184  1.4942
15676SOL    HW250560   9.292   6.215   4.918  1.1948 -1.8803  0.4982
15677SOL     OW50561   7.513   3.260   2.445  0.1140 -0.0722  0.0779
15677SOL    HW150562   7.421   3.232   2.446  0.5028 -1.4284  0.4138
15677SOL    HW250563   7.556   3.197   2.387  1.4478 -1.6387  2.6100
15678SOL     OW50564  10.372   3.874   1.910  0.4174 -0.1222 -0.1578
15678SOL    HW150565  10.354   3.876   2.004  0.9201 -0.3354 -0.0529
15678SOL    HW250566  10.409   3.786   1.895  1.4467  0.3301 -0.3403
15679SOL     OW50567   6.812   2.194  10.458  0.3687  0.4336 -0.2796
15679SOL    HW150568   6.818   2.198  10.553 -0.0084 -1.1484 -0.1647
15679SOL    HW250569   6.816   2.285  10.430 -1.6139  1.0945  1.3724
15680SOL     OW50570   5.760   4.183   8.951 -0.3359  0.0049  0.2492
15680SOL    HW150571   5.708   4.192   8.870 -0.6949  2.0959  0.6550
15680SOL    HW250572   5.763   4.272   8.987  1.5763 -0.5139  1.4716
15681SOL     OW50573   2.020   3.598   6.859  0.4370  0.2387 -0.1875
15681SOL    HW150574   2.073   3.519   6.872  1.1553  0.9636  1.6629
15681SOL    HW250575   1.990   3.592   6.768  0.6424 -2.0399 -0.1709
15682SOL     OW50576   9.191   9.912   7.483 -0.3363  0.1689  0.2366
15682SOL    HW150577   9.148   9.845   7.536 -0.9986 -1.1597 -1.8501
15682SOL    HW250578   9.284   9.889   7.485 -0.7182 -1.8380 -1.6948
15683SOL     OW50579   2.219   4.119   3.583  0.0516  0.0689 -0.5161
15683SOL    HW150580   2.225   4.033   3.626 -1.6838  0.4616  0.5975
15683SOL    HW250581   2.264   4.106   3.499  2.3978 -1.0893  0.7908
15684SOL     OW50582   0.745   9.141   1.293  0.4454 -0.1528 -0.0926
15684SOL    HW150583   0.785   9.054   1.283 -0.0638 -0.3556 -0.3929
15684SOL    HW250584   0.726   9.169   1.204 -2.0979 -1.0207  0.0951
15685SOL     OW50585   9.503   5.387   2.593 -0.3836  0.2011  0.1208
15685SOL    HW150586   9.521   5.390   2.687 -1.1837  0.5060  0.2814
15685SOL    HW250587   9.493   5.294   2.573  1.7205 -0.0194 -0.0784
15686SOL     OW50588   6.430   1.853   8.280  0.2266  0.3834 -0.0360
15686SOL    HW150589   6.350   1.831   8.231  1.0944  0.5055 -1.5885
15686SOL    HW250590   6.484   1.901   8.216  1.4769  0.4456  1.0301
15687SOL     OW50591   5.554   0.246   5.397 -0.3311 -0.3352 -0.3074
15687SOL    HW150592   5.538   0.225   5.489 -1.4249  0.0208 -0.3978
15687SOL    HW250593   5.624   0.311   5.399  1.9054 -2.5695  0.0662
15688SOL     OW50594   2.347   5.564   5.857  0.2260 -0.4311  0.1568
15688SOL    HW150595   2.260   5.544   5.893  0.0497 -0.3988 -0.2422
15688SOL    HW250596   2.368   5.651   5.891  0.2409 -0.5737  0.5113
15689SOL     OW50597   5.399   0.637   0.041 -0.2903 -0.8400 -0.5324
15689SOL    HW150598   5.347   0.704   0.085  0.3345  0.0323 -1.0998
15689SOL    HW250599   5.391   0.560   0.097 -1.6846 -0.5404 -0.2955
15690SOL     OW50600  10.750   2.351   4.079 -0.3769  0.0025 -0.1687
15690SOL    HW150601  10.714   2.412   4.015 -0.6136 -0.0911 -0.1272
15690SOL    HW250602  10.673   2.311   4.119 -0.2330  0.3567  0.4630
15691SOL     OW50603   8.339   2.315   7.277  0.1841 -0.2912 -0.0906
15691SOL    HW150604   8.378   2.400   7.301  0.6480  0.0787 -2.0109
15691SOL    HW250605   8.259   2.338   7.231 -0.0600 -0.9345  0.0099
15692SOL     OW50606  10.211   3.299   0.971 -0.1270 -0.1104 -0.3094
15692SOL    HW150607  10.119   3.273   0.969 -1.2220  3.2665 -0.5912
15692SOL    HW250608  10.220   3.359   0.897  1.5016  1.8237  1.3200
15693SOL     OW50609   7.806   0.487   1.953  0.2397  0.2163 -0.5244
15693SOL    HW150610   7.880   0.525   2.000 -1.9517  2.2746  1.5256
15693SOL    HW250611   7.776   0.556   1.894 -1.7416  0.5808  0.7986
15694SOL     OW50612   2.961   1.896   8.548  0.1239  0.0398  0.5069
15694SOL    HW150613   2.984   1.816   8.502 -1.3630  1.4313 -3.0042
15694SOL    HW250614   2.866   1.889   8.563  0.1994  0.5985  1.3200
15695SOL     OW50615   5.119   2.509   9.387  0.1564 -0.1785  0.3359
15695SOL    HW150616   5.177   2.523   9.462  0.3451 -0.1992  0.1921
15695SOL    HW250617   5.176   2.515   9.310 -0.1691  0.5935  0.1508
15696SOL     OW50618   4.486   1.738   7.708 -0.1579 -0.2253 -0.2099
15696SOL    HW150619   4.538   1.750   7.787  2.7630 -2.4751 -1.6231
15696SOL    HW250620   4.405   1.786   7.726  0.7025  0.1089  3.7368
15697SOL     OW50621   5.444   6.658   1.296 -0.0092  0.5920 -0.4016
15697SOL    HW150622   5.530   6.620   1.316  0.0639  1.0431  0.1749
15697SOL    HW250623   5.388   6.627   1.367 -0.2029  0.6989 -0.5078
15698SOL     OW50624   9.077   0.450   3.317 -0.6201  0.3124 -0.5457
15698SOL    HW150625   9.159   0.491   3.290 -0.0934 -1.0722 -1.1286
15698SOL    HW250626   9.100   0.359   3.337 -1.9707 -0.0537 -0.5056
15699SOL     OW50627  10.521  10.608  10.425  0.2598 -0.5695  0.7714
15699SOL    HW150628  10.540  10.591  10.333  1.3593  0.7232  0.7359
15699SOL    HW250629  10.464  10.535  10.451  0.8118 -1.5432 -0.6230
15700SOL     OW50630   7.467   4.088   5.916  0.1431  0.4661 -0.3985
15700SOL    HW150631   7.558   4.103   5.893  0.1513  1.0058 -0.0114
15700SOL    HW250632   7.438   4.021   5.854  1.3000 -1.0512  0.6231
15701SOL     OW50633   3.708   8.023  10.115  0.9675  0.1058 -0.0940
15701SOL    HW150634   3.666   8.107  10.132  2.0832  0.4399  1.1676
15701SOL    HW250635   3.639   7.970  10.074 -0.6822  0.6540  1.8173
15702SOL     OW50636   8.828   5.358   1.835 -0.2844 -0.1421 -0.5621
15702SOL    HW150637   8.878   5.303   1.896  0.2148  0.9943  0.0946
15702SOL    HW250638   8.880   5.358   1.755  1.8401  2.4875  0.6751
15703SOL     OW50639   6.161   6.977   9.480 -0.6655 -0.6099 -0.1499
15703SOL    HW150640   6.241   6.943   9.440 -0.8281  0.3196 -1.3384
15703SOL    HW250641   6.162   6.944   9.570  1.9972  0.8823  0.4491
15704SOL     OW50642   6.629   7.614   2.506  0.3012  0.5057 -0.2101
15704SOL    HW150643   6.565   7.544   2.521 -0.3276  1.3160  0.9843
15704SOL    HW250644   6.677   7.585   2.428 -0.1001 -1.1384  0.1080
15705SOL     OW50645  10.913   0.610   0.881 -0.0563 -0.2329  0.5390
15705SOL    HW150646  11.002   0.625   0.848  0.1895 -1.0482  0.7920
15705SOL    HW250647  10.857   0.625   0.805  0.1644  1.5389  0.6813
15706SOL     OW50648   7.791   8.866   1.610  0.0657 -0.0789 -0.4363
15706SOL    HW150649   7.879   8.845   1.643 -0.0802  0.6288  0.4480
15706SOL    HW250650   7.737   8.791   1.636  0.7390 -1.3514 -2.5308
15707SOL     OW50651  10.796   5.200   7.937  0.4755  0.3418 -0.0557
15707SOL    HW150652  10.703   5.183   7.949  0.3129  0.8470 -0.5897
15707SOL    HW250653  10.824   5.138   7.870  0.6116 -0.0625  0.3678
15708SOL     OW50654  10.372   1.365   0.135  0.4542  0.0282 -0.2295
15708SOL    HW150655  10.416   1.418   0.200 -0.5601  1.0610 -0.3516
15708SOL    HW250656  10.442   1.333   0.078  0.9641  3.2408 -1.6272
15709SOL     OW50657   9.490   9.960   8.712  0.1999  0.0501  0.5814
15709SOL    HW150658   9.450   9.934   8.629  0.2768  1.0852  0.1956
15709SOL    HW250659   9.583   9.939   8.703  0.3321  0.7744  0.1188
15710SOL     OW50660   7.116  10.681   8.444 -0.1488 -0.1708  0.1509
15710SOL    HW150661   7.059  10.604   8.445 -1.6031  0.8229 -1.0861
15710SOL    HW250662   7.149  10.686   8.354  1.2985 -0.2706  0.6490
15711SOL     OW50663   5.913   9.040   2.383 -0.2163  0.1434 -0.0768
15711SOL    HW150664   5.932   9.130   2.357  1.0781 -0.2200 -0.4878
15711SOL    HW250665   5.840   9.014   2.328 -1.6831  1.4293  1.1506
15712SOL     OW50666   3.092   4.766   4.979 -0.1819  0.1651  0.2264
15712SOL    HW150667   3.004   4.803   4.985 -0.2259  0.0230  0.4932
15712SOL    HW250668   3.147   4.827   5.028 -0.1092  0.3252 -0.0562
15713SOL     OW50669   2.456  10.127   8.387  0.3993  0.0789  0.0368
15713SOL    HW150670   2.397  10.070   8.437  0.8456  0.3914  0.9446
15713SOL    HW250671   2.458  10.088   8.300 -0.4027 -0.4834  0.2508
15714SOL     OW50672   6.859   0.092  10.640  0.0509 -0.1026  0.3168
15714SOL    HW150673   6.803   0.111  10.565  1.1563  0.3239 -0.4213
15714SOL    HW250674   6.866   0.175  10.687  1.0470  0.1569 -0.2755
15715SOL     OW50675   1.557   5.745   8.859  0.0978  0.1454  0.8030
15715SOL    HW150676   1.614   5.754   8.782 -0.1485  0.6118  0.6739
15715SOL    HW250677   1.473   5.715   8.823 -0.7715  2.6058  0.5678
15716SOL     OW50678   6.981   1.979   2.152 -1.0767  0.6176  0.3637
15716SOL    HW150679   7.028   2.002   2.232 -1.1578 -0.6187  0.7801
15716SOL    HW250680   6.891   1.965   2.181 -1.2516  0.8299 -0.0677
15717SOL     OW50681   9.328   3.847   3.248  0.1764 -0.9793  0.1685
15717SOL    HW150682   9.406   3.856   3.193  0.5629 -0.6594  0.7626
15717SOL    HW250683   9.309   3.936   3.279  0.2421 -1.2226  0.9297
15718SOL     OW50684  10.655   9.548   5.325  0.2900  0.0951 -0.5188
15718SOL    HW150685  10.663   9.470   5.380 -0.9541  0.7841  0.7019
15718SOL    HW250686  10.617   9.515   5.243 -0.2987 -0.5867  0.0125
15719SOL     OW50687   2.193   0.907  10.331  0.2194  0.7360  0.2183
15719SOL    HW150688   2.286   0.894  10.311  0.0653  0.7549 -0.5399
15719SOL    HW250689   2.163   0.971  10.267 -0.6786 -0.4227 -0.5768
15720SOL     OW50690   5.652   1.060  10.730 -0.0948 -0.3799 -0.6141
15720SOL    HW150691   5.661   1.146  10.689  0.9986 -0.2782 -0.1973
15720SOL    HW250692   5.560   1.055  10.755 -0.4292  0.1864 -1.6827
15721SOL     OW50693   9.370   9.985   3.992 -0.3756 -0.1477  0.1533
15721SOL    HW150694   9.399  10.003   4.082 -0.1179 -0.1578  0.0752
15721SOL    HW250695   9.330   9.899   3.997 -0.0623 -0.2945  0.1991
15722SOL     OW50696   6.806  10.095   0.025 -0.0936  0.1031 -0.1923
15722SOL    HW150697   6.721  10.053   0.040 -0.3925  0.6093 -0.4482
15722SOL    HW250698   6.785  10.187   0.015  0.7312  0.6010  2.1064
15723SOL     OW50699   5.173   5.411   5.893  0.0353 -0.4178  0.7271
15723SOL    HW150700   5.114   5.479   5.925 -0.5734 -0.8469  0.5554
15723SOL    HW250701   5.197   5.438   5.805 -0.0884 -0.3535  0.7139
15724SOL     OW50702   5.307  10.742   8.815  0.1191 -0.2403  0.1389
15724SOL    HW150703   5.234  10.799   8.788 -0.9737 -0.5431  2.2265
15724SOL    HW250704   5.269  10.654   8.820  0.5487 -0.3819  1.4064
15725SOL     OW50705   3.530   0.266   1.715  0.1383  0.2301  0.1477
15725SOL    HW150706   3.624   0.254   1.724  0.3059 -0.1810 -1.6966
15725SOL    HW250707   3.521   0.337   1.651 -0.8380  1.4477  1.5732
15726SOL     OW50708   5.486   0.388   9.745  0.1927  0.3024 -0.1922
15726SOL    HW150709   5.541   0.366   9.670  0.0362 -0.0017 -0.2186
15726SOL    HW250710   5.457   0.304   9.779 -1.0624  0.4836 -0.7789
15727SOL     OW50711   8.275   8.438   8.868  0.1315  0.1956  0.0142
15727SOL    HW150712   8.222   8.405   8.940  0.8862 -0.8983  0.0987
15727SOL    HW250713   8.220   8.429   8.790 -0.0180 -0.3702  0.1840
15728SOL     OW50714   9.180   7.342   2.312  0.2749 -0.1530 -0.5725
15728SOL    HW150715   9.156   7.250   2.312  1.0889 -0.3774 -1.4388
15728SOL    HW250716   9.272   7.343   2.339  0.6728  0.2717 -1.8686
15729SOL     OW50717   2.285   4.984   7.212  0.2106 -0.4193  0.0380
15729SOL    HW150718   2.377   4.959   7.214  0.5306  0.5451 -1.0316
15729SOL    HW250719   2.248   4.933   7.140 -0.1375 -0.9047  0.5503
15730SOL     OW50720   6.575   4.522   1.440  0.1297  0.1250 -0.0877
15730SOL    HW150721   6.488   4.540   1.404  0.2806  0.8182 -0.1273
15730SOL    HW250722   6.565   4.535   1.534  0.3310  0.8353 -0.1567
15731SOL     OW50723   3.736   1.313   6.505 -0.1249  0.0002 -0.1209
15731SOL    HW150724   3.670   1.283   6.442  2.2964  0.4899 -3.0874
15731SOL    HW250725   3.699   1.393   6.542 -0.9730  0.5849 -2.1213
15732SOL     OW50726   0.301   7.199   7.820 -0.1330 -0.0416 -0.2270
15732SOL    HW150727   0.294   7.144   7.742  0.2764  0.9837 -1.0072
15732SOL    HW250728   0.367   7.155   7.874 -2.1503 -2.1206  0.7390
15733SOL     OW50729   7.660   1.603   7.597 -0.2875 -0.2246  0.1301
15733SOL    HW150730   7.656   1.508   7.608 -1.0266 -0.0245  1.9192
15733SOL    HW250731   7.750   1.626   7.620 -0.4747 -0.3514  0.9954
15734SOL     OW50732   2.984  10.670   0.084  0.0755  0.0501 -0.2443
15734SOL    HW150733   2.985  10.760   0.119 -1.1817  0.6926 -1.7103
15734SOL    HW250734   2.980  10.614   0.162 -1.3089  1.3579  0.6849
15735SOL     OW50735   7.461   4.358   5.812 -0.2021  0.2024 -0.6704
15735SOL    HW150736   7.503   4.320   5.735 -0.7291 -0.0673 -0.8300
15735SOL    HW250737   7.442   4.283   5.869  2.9725  0.6222  1.1843
15736SOL     OW50738  11.014   8.331   8.056  0.1348  0.3345  0.1841
15736SOL    HW150739  10.954   8.370   7.992 -0.6988 -0.0138  0.7291
15736SOL    HW250740  10.985   8.240   8.062 -0.4970  0.6090  1.8229
15737SOL     OW50741   8.790   0.810   6.461  0.3037  0.1663  0.5055
15737SOL    HW150742   8.860   0.749   6.485 -0.3757 -0.2242  1.5508
15737SOL    HW250743   8.775   0.862   6.540 -0.3092  0.5181  0.1690
15738SOL     OW50744   6.628   5.924   6.914  0.1800  0.0227 -0.2950
15738SOL    HW150745   6.691   5.863   6.952 -0.1507  0.4829  1.0464
15738SOL    HW250746   6.643   6.006   6.960  0.0666  0.7483 -1.5045
15739SOL     OW50747   9.560   5.865   7.054  0.0208  0.3332  0.2698
15739SOL    HW150748   9.564   5.878   6.959  1.7426  0.9547  0.4045
15739SOL    HW250749   9.468   5.841   7.071 -0.4913  0.9600 -1.4413
15740SOL     OW50750   8.271   5.179   6.498  0.3766 -0.1271 -0.2984
15740SOL    HW150751   8.230   5.166   6.583  2.0024  0.8925  0.6847
15740SOL    HW250752   8.265   5.093   6.455 -1.4865 -0.3590  0.3420
15741SOL     OW50753   7.613   0.506  10.628 -0.0782 -0.4188  0.3228
15741SOL    HW150754   7.572   0.497  10.542  1.5191 -1.0553 -0.4098
15741SOL    HW250755   7.645   0.596  10.630 -0.7213 -0.1856  0.5567
15742SOL     OW50756   5.924   1.046   8.516  0.1387 -0.8230  0.1442
15742SOL    HW150757   6.002   1.079   8.560  0.3603 -1.0622 -0.0658
15742SOL    HW250758   5.854   1.055   8.580  0.3747 -0.7700  0.3934
15743SOL     OW50759   9.858   7.154   1.528 -0.1116  0.6340 -0.4702
15743SOL    HW150760   9.947   7.187   1.544 -0.2631  0.0563  2.0946
15743SOL    HW250761   9.872   7.068   1.489  0.3838  1.2562 -1.7374
15744SOL     OW50762   1.669   3.616   0.982  0.2504  0.2378 -0.0809
15744SOL    HW150763   1.753   3.636   1.024 -0.6878  0.4826  1.7680
15744SOL    HW250764   1.670   3.520   0.972  0.4228  0.1426  0.7238
15745SOL     OW50765   2.745   5.935  10.571 -0.0722 -0.2800 -0.1926
15745SOL    HW150766   2.667   5.957  10.621 -0.2078 -0.0712 -0.5017
15745SOL    HW250767   2.716   5.870  10.507  0.0078 -0.1984 -0.3128
15746SOL     OW50768   2.472   7.146   2.623  0.2386  0.2133 -0.5882
15746SOL    HW150769   2.441   7.154   2.713 -1.1372  2.2419 -1.1683
15746SOL    HW250770   2.536   7.216   2.613  0.7309 -0.2957 -1.0608
15747SOL     OW50771   8.763   1.149   8.901  0.2866 -0.0560  0.2182
15747SOL    HW150772   8.798   1.144   8.812 -0.2143 -1.2139  0.0619
15747SOL    HW250773   8.839   1.134   8.957  0.4332 -0.3651 -0.0546
15748SOL     OW50774   2.944   1.121   0.571  0.1132 -0.9190  0.0518
15748SOL    HW150775   2.859   1.081   0.589 -0.3004 -0.5351 -1.0450
15748SOL    HW250776   2.968   1.164   0.653 -2.8149  2.8209 -0.7888
15749SOL     OW50777  10.165   2.666   4.127  0.0463  0.1863  0.3493
15749SOL    HW150778  10.100   2.683   4.195 -2.4377  0.2657 -1.8474
15749SOL    HW250779  10.205   2.752   4.111 -2.0440  1.0603 -0.7269
15750SOL     OW50780   8.261  10.658   2.807 -0.0059  0.2231 -0.3687
15750SOL    HW150781   8.354  10.680   2.812  0.0741 -0.3289  1.3827
15750SOL    HW250782   8.232  10.693   2.723  1.5236  1.4059 -0.4412
15751SOL     OW50783   2.041   5.157   0.283  0.1721  0.1054  0.3476
15751SOL    HW150784   2.121   5.206   0.301  1.9169 -1.5257 -2.2420
15751SOL    HW250785   2.047   5.080   0.340  0.9491 -0.4765 -0.5058
15752SOL     OW50786   2.702  11.117  10.651  0.3669  0.2917  0.1774
15752SOL    HW150787   2.746  11.124  10.567  1.1668 -0.1705  0.5440
15752SOL    HW250788   2.693  11.023  10.666 -0.7844  0.3801  0.0973
15753SOL     OW50789   2.999   7.277   0.504 -0.2778  0.7167  0.9082
15753SOL    HW150790   2.913   7.282   0.545 -0.7240  0.0623  0.0988
15753SOL    HW250791   2.987   7.318   0.418 -0.8613 -2.7036 -0.8166
15754SOL     OW50792   1.362   4.586   7.216 -0.9021 -0.4930  0.0789
15754SOL    HW150793   1.456   4.571   7.205 -0.9833 -1.4991  0.6121
15754SOL    HW250794   1.325   4.573   7.129 -0.6764 -1.2852  0.0877
15755SOL     OW50795   1.426   4.640   5.964  0.1862  0.2254 -0.2676
15755SOL    HW150796   1.487   4.570   5.940  0.0074 -0.2441  0.5883
15755SOL    HW250797   1.362   4.641   5.892  0.3649 -0.2868 -0.4412
15756SOL     OW50798  10.388   6.401   8.364  0.4255 -0.2609  0.0494
15756SOL    HW150799  10.300   6.364   8.353  0.4287 -0.2029 -0.1951
15756SOL    HW250800  10.427   6.348   8.433  0.9693 -1.7529 -1.3274
15757SOL     OW50801   4.736  10.111  10.493 -0.1562 -0.1783 -0.0640
15757SOL    HW150802   4.754  10.042  10.557  0.5652 -0.7078 -0.8016
15757SOL    HW250803   4.816  10.163  10.491  0.4810 -1.1211 -1.6514
15758SOL     OW50804   2.782   0.757   3.699  0.1971 -0.5695  0.0864
15758SOL    HW150805   2.772   0.663   3.709 -1.1355 -0.3402  1.2509
15758SOL    HW250806   2.870   0.775   3.732 -0.1275 -1.2274  1.3792
15759SOL     OW50807   6.024   0.054   4.392  0.1525  0.2713 -0.2978
15759SOL    HW150808   5.957   0.043   4.324  1.6592 -0.2224 -1.7928
15759SOL    HW250809   6.084  -0.020   4.378  0.9486  0.6438  1.0434
15760SOL     OW50810   3.984   1.567   7.691 -0.1208 -0.2242 -0.3092
15760SOL    HW150811   3.904   1.606   7.656 -0.9266 -2.0864 -0.6717
15760SOL    HW250812   3.955   1.483   7.728  1.7394 -1.1411 -0.8347
15761SOL     OW50813  10.903   5.451   2.072 -0.2551 -0.0228 -0.6147
15761SOL    HW150814  10.848   5.483   2.001  0.0068  2.8421  0.3711
15761SOL    HW250815  10.846   5.452   2.149  0.4390  0.4166 -0.0967
15762SOL     OW50816   8.500   5.650  10.371  0.0929  0.5338  0.3281
15762SOL    HW150817   8.569   5.586  10.352 -0.4696  0.1777 -0.5391
15762SOL    HW250818   8.546   5.721  10.416  0.8447 -0.1579  0.6774
15763SOL     OW50819   2.603   2.717   5.203  0.1133 -0.4969 -0.1428
15763SOL    HW150820   2.641   2.680   5.123  1.6159 -0.0027  0.3107
15763SOL    HW250821   2.611   2.811   5.192 -3.0824 -0.1918 -0.9969
15764SOL     OW50822   8.768   0.564   7.257  0.3101  0.7896 -0.0480
15764SOL    HW150823   8.732   0.489   7.210  1.6612  0.4491 -0.5844
15764SOL    HW250824   8.736   0.553   7.347 -2.1349  1.3413 -0.7510
15765SOL     OW50825   4.447  10.734  10.981  0.3489  0.1209  0.6206
15765SOL    HW150826   4.365  10.723  10.933  0.8762  0.9128 -0.5121
15765SOL    HW250827   4.431  10.808  11.039  0.4628  0.7317 -0.1074
15766SOL     OW50828   0.628   4.147  11.037  0.4666 -0.0677 -0.1535
15766SOL    HW150829   0.586   4.170  10.954  0.1775  1.4073  0.3667
15766SOL    HW250830   0.657   4.057  11.025  1.7185  0.5545 -2.3896
15767SOL     OW50831   0.424   6.527   5.696  0.1997  0.2696  0.5857
15767SOL    HW150832   0.485   6.535   5.770  0.4157 -1.7168  0.6882
15767SOL    HW250833   0.362   6.599   5.708  0.4719  0.2398  2.4964
15768SOL     OW50834   2.839   5.115   0.171  0.1569  0.0025 -0.4926
15768SOL    HW150835   2.757   5.163   0.184  0.3676  0.2373 -0.0222
15768SOL    HW250836   2.895   5.175   0.122  0.2288  0.0299 -0.3756
15769SOL     OW50837  10.166   8.287   7.041  0.3714  0.3156 -0.4123
15769SOL    HW150838  10.204   8.200   7.048 -1.9743 -0.8738 -1.3322
15769SOL    HW250839  10.203   8.324   6.961  2.7680  0.9907  0.9088
15770SOL     OW50840   8.679   4.482   5.357 -0.0778 -0.1367  0.0456
15770SOL    HW150841   8.663   4.418   5.426 -1.1439  1.4246  1.3219
15770SOL    HW250842   8.770   4.509   5.369 -0.5738  0.9476  1.6181
15771SOL     OW50843   5.569   7.249   4.458  0.2001 -0.2514 -0.2242
15771SOL    HW150844   5.532   7.217   4.376 -0.6312 -1.3139  0.5242
15771SOL    HW250845   5.573   7.171   4.514  0.8172  0.4319  0.7175
15772SOL     OW50846   7.430   8.419   0.534 -0.3355  0.6328 -0.1253
15772SOL    HW150847   7.456   8.327   0.523  3.0798  1.5483 -0.9263
15772SOL    HW250848   7.403   8.447   0.446 -3.4525 -0.0254  0.5036
15773SOL     OW50849   9.663   0.027   2.043  0.7728  0.7396  0.8816
15773SOL    HW150850   9.739   0.010   1.988  0.1484  0.7794 -0.0198
15773SOL    HW250851   9.688   0.103   2.095  0.8199  1.6967 -0.4797
15774SOL     OW50852   5.087   4.018   0.007  0.1604 -0.2361 -0.0994
15774SOL    HW150853   5.061   3.938  -0.038  2.1141 -1.0844  0.1645
15774SOL    HW250854   5.087   3.995   0.100  0.5432  0.1323 -0.0050
15775SOL     OW50855  10.641  10.081   5.297  0.4456 -0.0264  0.0357
15775SOL    HW150856  10.662  10.142   5.226  2.1640 -0.8286 -0.2085
15775SOL    HW250857  10.601  10.006   5.254  0.9321 -0.2524 -0.0372
15776SOL     OW50858   6.699   1.392   2.715  0.9509  0.0731  0.6449
15776SOL    HW150859   6.627   1.411   2.655  0.5174 -1.0897  0.7718
15776SOL    HW250860   6.664   1.413   2.802  1.3929  1.2227  0.5714
15777SOL     OW50861   3.557   3.536   3.832  0.0156  0.5697 -0.3406
15777SOL    HW150862   3.514   3.492   3.906  0.6548  1.0762  0.3501
15777SOL    HW250863   3.624   3.473   3.804 -2.3580 -1.1157 -2.7265
15778SOL     OW50864   6.962   9.765  11.037 -0.0701  0.5341  0.3987
15778SOL    HW150865   6.970   9.677  11.001 -0.1259 -0.1537  1.9662
15778SOL    HW250866   6.868   9.778  11.048 -0.0112  0.3385  1.1888
15779SOL     OW50867   5.445   5.903   5.365 -0.2439  0.4081  0.0421
15779SOL    HW150868   5.381   5.973   5.375 -2.3420 -1.5482  1.6112
15779SOL    HW250869   5.394   5.829   5.331  1.9414 -0.3220 -1.9048
15780SOL     OW50870   5.603   2.419   6.614 -0.3112  0.1152  0.2896
15780SOL    HW150871   5.508   2.406   6.607 -0.3122  0.7369 -1.3708
15780SOL    HW250872   5.638   2.332   6.636 -1.1919 -0.2988  0.0965
15781SOL     OW50873   6.528   1.407   5.583  0.0385  0.2636  0.4099
15781SOL    HW150874   6.470   1.358   5.641  0.0776  0.2578  0.4438
15781SOL    HW250875   6.606   1.352   5.575 -0.9372 -0.9300 -1.6127
15782SOL     OW50876   9.953   9.102   6.681  0.0201  0.0132  0.0884
15782SOL    HW150877  10.020   9.052   6.634 -0.0244  1.0735 -1.1425
15782SOL    HW250878   9.873   9.051   6.669  0.4903 -1.0760  1.2675
15783SOL     OW50879   1.915   7.373   7.621  0.6328 -0.7467  0.3312
15783SOL    HW150880   1.930   7.315   7.696  2.1140  0.6809  1.1932
15783SOL    HW250881   1.839   7.335   7.576  0.3330 -2.2027  1.9770
15784SOL     OW50882   2.061  10.927   9.097  0.1734  0.0047 -0.5503
15784SOL    HW150883   1.996  10.987   9.060  0.2821 -1.3219 -3.1841
15784SOL    HW250884   2.011  10.848   9.118  0.4371  0.0976  0.4582
15785SOL     OW50885   1.552   5.466  10.651 -0.8168 -0.4545 -0.5391
15785SOL    HW150886   1.621   5.468  10.585 -1.9704 -1.8863 -1.8758
15785SOL    HW250887   1.598   5.476  10.734  0.9555 -0.9551 -1.4107
15786SOL     OW50888   5.405  10.430   8.652  0.0378  0.2745 -0.6123
15786SOL    HW150889   5.439  10.491   8.586 -1.0394 -0.9369 -2.3998
15786SOL    HW250890   5.346  10.483   8.705  0.0167  1.0562 -1.3818
15787SOL     OW50891   8.159   8.515   0.290  0.0307 -0.4064  0.3855
15787SOL    HW150892   8.116   8.533   0.374  0.2783  2.7247 -0.0456
15787SOL    HW250893   8.119   8.577   0.229  1.3352 -1.1844 -1.3325
15788SOL     OW50894   8.269   8.737   1.931 -0.3084 -0.0771  0.5200
15788SOL    HW150895   8.275   8.652   1.887  1.5723  0.1245  0.2886
15788SOL    HW250896   8.176   8.759   1.929 -0.9101 -2.3133  0.9763
15789SOL     OW50897   9.782   4.140   6.315  0.1164 -0.0032  0.1353
15789SOL    HW150898   9.835   4.219   6.319  0.4286 -0.1525 -0.8063
15789SOL    HW250899   9.770   4.124   6.221 -0.3364 -0.8065  0.3237
15790SOL     OW50900  10.048   0.700   7.513  0.0186  0.4955  0.6456
15790SOL    HW150901  10.123   0.661   7.557  1.5741  2.2009 -0.3443
15790SOL    HW250902   9.976   0.693   7.576  0.8916 -1.4955  1.4863
15791SOL     OW50903   9.552   9.142   3.947  0.2670 -0.1293  0.4375
15791SOL    HW150904   9.477   9.135   4.007  0.0745 -0.2106  0.1899
15791SOL    HW250905   9.525   9.207   3.882 -0.4543 -1.6814 -0.8914
15792SOL     OW50906   4.756   7.260   6.022 -0.0458 -0.1460  1.0253
15792SOL    HW150907   4.766   7.302   6.107 -0.6210 -1.8800  1.9980
15792SOL    HW250908   4.706   7.180   6.040  0.5641 -0.9995 -0.8068
15793SOL     OW50909   0.971   9.390  10.868 -0.1705  0.3582 -0.1535
15793SOL    HW150910   1.040   9.405  10.804  0.5813  0.6147  0.6927
15793SOL    HW250911   0.897   9.442  10.836 -0.0087  0.0204 -1.1078
15794SOL     OW50912   6.963   4.945   0.800 -0.6598  0.5292  0.1863
15794SOL    HW150913   6.910   4.871   0.829  1.5531 -0.6053  1.5886
15794SOL    HW250914   6.927   4.968   0.714 -2.3896 -1.1651  0.3932
15795SOL     OW50915   3.564   9.385   7.193 -0.0016 -0.0706  0.6102
15795SOL    HW150916   3.594   9.475   7.205 -1.3364  0.6206 -0.8168
15795SOL    HW250917   3.642   9.335   7.171  0.6268  0.9215  0.5679
15796SOL     OW50918   9.854  10.616   4.324  0.6500  0.8623 -0.0533
15796SOL    HW150919   9.877  10.635   4.415  0.2223 -0.2327  0.2972
15796SOL    HW250920   9.761  10.592   4.328  0.7828  0.2214 -0.6855
15797SOL     OW50921   5.282   6.304   9.736 -0.8808 -0.0655  0.4114
15797SOL    HW150922   5.297   6.363   9.810 -0.6579  1.1959 -0.6072
15797SOL    HW250923   5.348   6.236   9.746  0.4294  1.1474  0.3194
15798SOL     OW50924  11.016   2.124  10.184 -0.5882  0.4369 -0.1965
15798SOL    HW150925  10.981   2.117  10.095 -2.6163 -1.0269  0.6527
15798SOL    HW250926  10.975   2.203  10.219 -2.7629 -0.9687  0.6049
15799SOL     OW50927   3.190   2.303   9.861 -0.2138 -0.2886 -0.1850
15799SOL    HW150928   3.190   2.215   9.825 -1.1920 -0.0010 -0.9417
15799SOL    HW250929   3.099   2.318   9.888 -0.0354  0.4356  0.0442
15800SOL     OW50930   0.332  10.278  10.313 -0.4725  0.2471 -0.6048
15800SOL    HW150931   0.363  10.368  10.327 -0.5064  0.1027  0.4394
15800SOL    HW250932   0.240  10.281  10.336  0.1716 -0.7094  2.5042
15801SOL     OW50933  10.052   2.611   6.342 -0.3333 -0.1514  0.0390
15801SOL    HW150934  10.123   2.641   6.399 -0.1950  0.4087 -0.4188
15801SOL    HW250935  10.052   2.516   6.351 -0.1253 -0.0913  0.7481
15802SOL     OW50936   3.615   5.239   8.685  0.7004 -0.1550  0.2668
15802SOL    HW150937   3.611   5.334   8.694  0.6065 -0.1231 -0.0694
15802SOL    HW250938   3.664   5.225   8.604  0.6298 -0.3910  0.2628
15803SOL     OW50939   0.365   1.038   5.987  0.2558 -0.2664  0.2851
15803SOL    HW150940   0.416   1.119   5.982  0.4520 -0.2405  2.2285
15803SOL    HW250941   0.276   1.064   5.963  0.9072 -0.1626 -2.3641
15804SOL     OW50942   7.319   8.065  10.065  0.0814  0.0041 -0.0625
15804SOL    HW150943   7.409   8.049  10.037 -0.3049  0.0327 -1.4039
15804SOL    HW250944   7.275   7.981  10.053 -0.0380 -0.0465  0.7264
15805SOL     OW50945   1.964   8.067   8.904 -0.5140  0.1632  0.1425
15805SOL    HW150946   1.930   8.035   8.820 -0.4585  0.3478  0.0486
15805SOL    HW250947   1.984   7.988   8.954 -1.8204  0.0278  0.5110
15806SOL     OW50948   1.275   8.689   1.866  0.2465 -0.0780  0.1413
15806SOL    HW150949   1.363   8.656   1.884  1.3610  2.3958 -0.3908
15806SOL    HW250950   1.263   8.762   1.926 -0.6953  0.7997 -1.0506
15807SOL     OW50951   7.458   5.022   1.176  0.3882  0.0304  0.0692
15807SOL    HW150952   7.399   4.963   1.223  0.5124 -0.6122 -0.5744
15807SOL    HW250953   7.403   5.061   1.108  0.4231  0.3095  0.1985
15808SOL     OW50954   1.758   8.711   6.959 -0.5704 -0.0239  0.1695
15808SOL    HW150955   1.676   8.713   7.009 -0.2913  0.1761  0.6172
15808SOL    HW250956   1.814   8.650   7.006 -0.3648  0.0426  0.0140
15809SOL     OW50957   7.648  10.895   3.475 -0.0772 -0.0116  0.6511
15809SOL    HW150958   7.638  10.988   3.497  4.0499  0.5093  1.1344
15809SOL    HW250959   7.621  10.889   3.384 -0.5657  1.6386  0.6480
15810SOL     OW50960   1.461  10.690  10.565 -0.2433  0.1338 -0.2756
15810SOL    HW150961   1.368  10.672  10.577 -0.4304  1.0391 -0.2908
15810SOL    HW250962   1.506  10.613  10.600 -0.8543  1.0799  2.8980
15811SOL     OW50963   7.100   8.649   4.709  0.7432 -0.3925  0.2219
15811SOL    HW150964   7.124   8.739   4.728  1.2326 -0.3642 -0.4843
15811SOL    HW250965   7.155   8.625   4.634 -0.6768 -0.6648 -0.7853
15812SOL     OW50966   8.816   4.297   3.849  0.3721  0.2403 -0.4884
15812SOL    HW150967   8.745   4.360   3.855 -0.3669 -0.5880 -0.3260
15812SOL    HW250968   8.816   4.252   3.933  1.5986  0.7577 -0.1968
15813SOL     OW50969   0.336   7.629   6.180 -0.0514 -0.5134  0.2030
15813SOL    HW150970   0.292   7.710   6.204  0.2331 -0.0362 -0.8175
15813SOL    HW250971   0.426   7.655   6.161  0.7656 -1.4976  2.4327
15814SOL     OW50972   5.793   0.111   6.826 -0.1834  0.1474 -0.1038
15814SOL    HW150973   5.775   0.068   6.910  1.4043  0.4169  0.4092
15814SOL    HW250974   5.869   0.065   6.791  0.9213  1.8228 -0.0328
15815SOL     OW50975   3.967   2.913   8.440 -0.2007  0.6879  0.1137
15815SOL    HW150976   3.940   2.821   8.434  1.4723  0.2315 -1.3803
15815SOL    HW250977   3.889   2.960   8.468 -0.9690 -1.2560  1.4210
15816SOL     OW50978   3.359   0.254  10.774  0.1272 -0.2915 -0.1449
15816SOL    HW150979   3.365   0.159  10.786  3.5112 -0.3435 -1.2222
15816SOL    HW250980   3.337   0.264  10.682  0.8213 -0.0529 -0.2875
15817SOL     OW50981   7.943   0.005   3.253  0.1072  0.2225 -0.3778
15817SOL    HW150982   7.971   0.094   3.274 -1.1720  0.0459  2.4821
15817SOL    HW250983   7.849   0.012   3.238  0.2306 -0.4689 -1.6840
15818SOL     OW50984  10.861  10.278  10.777  0.0305 -0.5877  0.7947
15818SOL    HW150985  10.864  10.359  10.827 -2.7505 -0.3208  0.6459
15818SOL    HW250986  10.881  10.305  10.687  0.8509 -0.4026  1.0165
15819SOL     OW50987   3.165   6.792   4.551 -0.4098 -0.3721 -0.0639
15819SOL    HW150988   3.087   6.740   4.536  0.2238 -0.7365 -2.6494
15819SOL    HW250989   3.148   6.874   4.504 -0.2210  0.6229  1.5129
15820SOL     OW50990   5.816   1.946   7.547 -0.0759 -0.5528 -0.4041
15820SOL    HW150991   5.871   2.017   7.581 -0.1472 -0.3030 -0.8102
15820SOL    HW250992   5.743   1.941   7.608 -0.3483  0.0818 -0.6741
15821SOL     OW50993   7.148   6.117   6.049  0.3983  0.0864  0.6021
15821SOL    HW150994   7.153   6.055   6.122  1.1848 -0.6515 -0.0511
15821SOL    HW250995   7.065   6.096   6.006 -0.2934  0.8395  1.5398
15822SOL     OW50996   5.338   1.459   8.009 -0.5987 -0.1471  0.3960
15822SOL    HW150997   5.268   1.523   8.020  1.2681  1.8095  1.7050
15822SOL    HW250998   5.361   1.465   7.916 -0.3579  1.2685  0.5179
15823SOL     OW50999   2.335   4.772   2.659  0.1482  0.5448 -0.1946
15823SOL    HW151000   2.290   4.827   2.594 -1.4085 -1.2830 -0.7437
15823SOL    HW251001   2.403   4.727   2.609 -0.8888 -0.6714 -0.5760
15824SOL     OW51002  10.050   5.439   3.866  0.5823  0.0916  0.4419
15824SOL    HW151003  10.115   5.371   3.844  0.7861  1.0737 -2.3700
15824SOL    HW251004  10.097   5.521   3.854 -0.3230  0.8057  1.5707
15825SOL     OW51005   0.799   0.612   4.936 -0.1605  0.3171  0.4350
15825SOL    HW151006   0.738   0.578   4.870 -0.1447  1.4896 -0.2072
15825SOL    HW251007   0.790   0.552   5.010  1.7998 -2.6439 -1.5514
15826SOL     OW51008   9.451  10.526   8.839  0.1281 -0.4002  0.3190
15826SOL    HW151009   9.389  10.595   8.863  1.1404  0.8347 -0.4820
15826SOL    HW251010   9.397  10.459   8.796 -0.5312  1.1279 -1.3351
15827SOL     OW51011   7.233   3.314   9.348  0.3727  0.3092 -0.0498
15827SOL    HW151012   7.199   3.324   9.437 -1.2491  0.5762 -0.6447
15827SOL    HW251013   7.287   3.236   9.351 -0.2183 -0.0842  1.0293
15828SOL     OW51014   0.807   8.012   3.988 -0.1337 -0.2315 -0.0330
15828SOL    HW151015   0.828   7.996   4.080 -2.7465 -1.1348  0.4957
15828SOL    HW251016   0.851   8.094   3.967  2.0038 -0.9020  1.4564
15829SOL     OW51017  10.810  10.936   1.263  0.2616 -0.3034 -0.1482
15829SOL    HW151018  10.837  10.846   1.242  0.7250 -0.4637  1.0904
15829SOL    HW251019  10.809  10.940   1.358  1.6601  1.4161 -0.1519
15830SOL     OW51020   1.534   5.379   6.110  0.5321  0.1918 -0.1767
15830SOL    HW151021   1.536   5.474   6.121  1.9285  0.4340 -1.9715
15830SOL    HW251022   1.625   5.352   6.120 -0.1280 -1.3859  2.8786
15831SOL     OW51023   4.973   3.262   4.251 -0.3848 -0.0863  0.1545
15831SOL    HW151024   4.991   3.169   4.263 -1.7595 -0.3989 -0.0347
15831SOL    HW251025   4.918   3.285   4.325 -0.4314  0.4595 -0.0471
15832SOL     OW51026  10.793   3.774   7.220 -0.3425 -0.2251 -0.2975
15832SOL    HW151027  10.741   3.720   7.280 -1.0569  0.5502 -0.2058
15832SOL    HW251028  10.771   3.864   7.244 -0.3295  0.0999 -1.4685
15833SOL     OW51029   1.202   1.655   3.429  0.0593  0.3216 -0.1931
15833SOL    HW151030   1.192   1.749   3.419 -0.6239  0.2660 -0.1361
15833SOL    HW251031   1.166   1.636   3.516 -0.5358 -0.0850 -0.5199
15834SOL     OW51032   0.359   2.567   8.544 -0.0690 -0.3296  0.5291
15834SOL    HW151033   0.366   2.471   8.539 -0.1351 -0.3223  0.2809
15834SOL    HW251034   0.331   2.584   8.634  2.9123 -0.3669  1.5842
15835SOL     OW51035   5.490  10.770   9.042  0.3221 -0.2900  0.0120
15835SOL    HW151036   5.433  10.733   9.109 -0.5392  1.4602  0.3140
15835SOL    HW251037   5.459  10.734   8.960 -0.7732  0.0797  0.2514
15836SOL     OW51038   4.173  10.115   5.883 -0.3830  0.3673  0.5665
15836SOL    HW151039   4.134  10.082   5.802 -0.8113 -1.2511  1.3789
15836SOL    HW251040   4.106  10.099   5.950 -0.9075  3.5688  0.9784
15837SOL     OW51041  10.149   7.736   0.596  0.1850  0.4780  0.1308
15837SOL    HW151042  10.079   7.685   0.555  0.1187  0.4113  0.3270
15837SOL    HW251043  10.115   7.759   0.682  0.2912  0.6912  0.1173
15838SOL     OW51044   3.480   3.835   4.534 -0.2493 -0.0604 -0.1401
15838SOL    HW151045   3.525   3.834   4.450  0.2245  0.9172  0.0916
15838SOL    HW251046   3.511   3.756   4.578  0.2122 -0.0967 -0.5145
15839SOL     OW51047   6.883   2.238  10.725 -0.4453 -0.3556 -0.1661
15839SOL    HW151048   6.950   2.228  10.793  0.7331 -2.5320 -1.5492
15839SOL    HW251049   6.850   2.327  10.738  2.9294  0.9611  0.4118
15840SOL     OW51050   0.851   1.104   2.110  0.5074  0.1598 -0.4035
15840SOL    HW151051   0.770   1.144   2.079 -0.1997 -0.4166  0.6369
15840SOL    HW251052   0.910   1.177   2.127  0.0011  0.6187 -0.6092
15841SOL     OW51053   5.853  10.115   0.740  0.4732  0.3758 -0.6286
15841SOL    HW151054   5.941  10.109   0.702  0.0978  1.5065 -1.7473
15841SOL    HW251055   5.797  10.074   0.674  0.3174 -2.1248  0.9113
15842SOL     OW51056   5.092   0.558   0.283  0.5266 -0.3756 -0.1720
15842SOL    HW151057   5.101   0.495   0.212 -0.3532 -0.7663  0.0525
15842SOL    HW251058   5.003   0.591   0.276  0.5432 -0.1505  0.5318
15843SOL     OW51059   6.055   4.068   1.005  0.1921 -0.0330  0.3349
15843SOL    HW151060   6.015   4.154   0.997  0.6274  0.0988 -0.4594
15843SOL    HW251061   5.981   4.007   1.008 -0.0831  0.1719 -1.5333
15844SOL     OW51062  10.466  10.211  10.055 -0.2982 -0.1753  0.3855
15844SOL    HW151063  10.539  10.171  10.007  0.0910  1.0300 -0.0695
15844SOL    HW251064  10.465  10.301  10.025 -1.5351  0.0095  0.9382
15845SOL     OW51065   7.405   6.458  10.765  0.4223  0.4375  0.1926
15845SOL    HW151066   7.482   6.481  10.713  0.4901  1.6008  0.7656
15845SOL    HW251067   7.338   6.521  10.737 -0.3747 -0.6141 -0.3619
15846SOL     OW51068   7.298   8.788  10.545 -0.2068  0.4285 -0.1616
15846SOL    HW151069   7.387   8.759  10.523 -0.7578 -1.4491 -0.1001
15846SOL    HW251070   7.296   8.790  10.640 -0.1673  0.7064 -0.1657
15847SOL     OW51071  10.962   8.029   8.712  0.3792  0.2933 -0.5125
15847SOL    HW151072  10.945   7.996   8.801 -0.5394 -0.1985 -0.8561
15847SOL    HW251073  10.932   8.119   8.715  0.2430  0.2452 -0.3504
15848SOL     OW51074   1.000   4.278   6.643  0.0525  0.1600  0.5888
15848SOL    HW151075   1.058   4.317   6.710  1.1781 -0.3415 -0.0596
15848SOL    HW251076   0.913   4.309   6.667  0.7688  2.3675  0.6147
15849SOL     OW51077   2.643  11.073   3.553 -0.0299 -0.0705  0.0254
15849SOL    HW151078   2.607  10.990   3.584 -0.9644 -0.4925 -2.0106
15849SOL    HW251079   2.731  11.051   3.521 -0.2000 -0.2481 -0.3256
15850SOL     OW51080   3.914   2.731  10.125  0.4338  0.7371 -0.5453
15850SOL    HW151081   3.856   2.716  10.050  0.0526 -0.6966  0.0099
15850SOL    HW251082   3.854   2.755  10.196  0.4767 -0.8066  0.0463
15851SOL     OW51083   5.304   2.891   6.498  0.0095 -0.0682 -0.1165
15851SOL    HW151084   5.364   2.843   6.440  2.6037  1.3108  1.2580
15851SOL    HW251085   5.290   2.975   6.455  0.8250  0.4279  0.5625
15852SOL     OW51086   0.892   6.845   9.142 -0.2290  0.2180 -0.3153
15852SOL    HW151087   0.812   6.809   9.104 -0.7968  0.2232  0.8449
15852SOL    HW251088   0.943   6.873   9.067 -1.9569  1.5993 -1.0453
15853SOL     OW51089   4.710   7.429   0.208 -0.1847 -0.3176  0.6612
15853SOL    HW151090   4.736   7.520   0.214  0.1326 -0.3180 -0.5532
15853SOL    HW251091   4.715   7.408   0.115 -0.1023 -1.6185  0.9383
15854SOL     OW51092   7.140   9.325   7.642 -0.0144  0.1038  0.2963
15854SOL    HW151093   7.208   9.387   7.669  0.4464 -0.9452  1.7000
15854SOL    HW251094   7.124   9.272   7.721  0.5281 -2.3907 -1.1652
15855SOL     OW51095  10.578   9.790   6.805  0.2920 -0.1384 -0.2755
15855SOL    HW151096  10.576   9.773   6.899  1.6813  0.2609 -0.1524
15855SOL    HW251097  10.660   9.749   6.775  0.0078 -0.0073 -1.2609
15856SOL     OW51098   5.234   3.535   3.521  0.0127  0.2305  0.1404
15856SOL    HW151099   5.255   3.456   3.471 -0.5262  0.3770 -0.3264
15856SOL    HW251100   5.210   3.503   3.608  2.6033  0.0797  0.8728
15857SOL     OW51101   1.233   3.496   5.530 -0.3989 -0.0981 -0.3159
15857SOL    HW151102   1.296   3.547   5.479 -0.1894 -0.4343 -0.3949
15857SOL    HW251103   1.154   3.495   5.477 -0.5464  0.5088 -0.1198
15858SOL     OW51104   0.344   9.900   0.964  0.3786 -0.2332  0.4927
15858SOL    HW151105   0.270   9.936   1.013 -0.2860 -1.3195  0.3078
15858SOL    HW251106   0.316   9.902   0.873  1.6401  1.8604  0.0732
15859SOL     OW51107   4.416   6.710  10.738 -0.1786  0.0297  0.0857
15859SOL    HW151108   4.445   6.791  10.778 -0.7157  0.4670 -0.3960
15859SOL    HW251109   4.485   6.689  10.674 -0.3166  0.4039 -0.1855
15860SOL     OW51110   0.357   6.776   2.026  0.0572 -0.1439 -0.1021
15860SOL    HW151111   0.362   6.822   1.942  1.6352  2.4276  1.2902
15860SOL    HW251112   0.446   6.742   2.040 -0.5547 -1.8510 -0.0802
15861SOL     OW51113   5.457   4.285   6.115 -0.5635  0.2807  0.1501
15861SOL    HW151114   5.413   4.363   6.149 -0.3740 -0.3294  1.9127
15861SOL    HW251115   5.390   4.217   6.115  0.0985 -0.4276  2.0167
15862SOL     OW51116   3.753   7.044   7.983 -0.1659  0.2925 -0.3035
15862SOL    HW151117   3.709   6.970   8.026 -1.9445  0.9434 -0.9122
15862SOL    HW251118   3.803   7.003   7.912  3.5985 -0.9262  2.6499
15863SOL     OW51119  11.026   3.409   8.742  0.3550 -0.2588 -0.2115
15863SOL    HW151120  11.084   3.356   8.686  1.2461  0.6917 -0.2205
15863SOL    HW251121  11.086   3.469   8.787 -0.5285  0.0341  0.5859
15864SOL     OW51122   7.890   3.174   7.571  1.0917  0.1182 -0.2244
15864SOL    HW151123   7.896   3.261   7.610  0.1179  0.2886 -0.4200
15864SOL    HW251124   7.945   3.178   7.493  0.7944  0.6546 -0.4044
15865SOL     OW51125   5.055   9.688   8.171  0.2930 -0.1610  0.0772
15865SOL    HW151126   4.962   9.712   8.162 -0.3855 -3.1085 -4.0612
15865SOL    HW251127   5.101   9.753   8.117  0.2269 -0.4073 -0.2783
15866SOL     OW51128  10.638   3.980   9.495 -0.0274 -0.3494 -0.7592
15866SOL    HW151129  10.669   4.029   9.571  0.7951 -1.2739 -0.4743
15866SOL    HW251130  10.685   4.019   9.421 -0.1037 -0.0830 -0.6680
15867SOL     OW51131   5.620   5.465   0.832  0.0457  0.1239  0.5810
15867SOL    HW151132   5.577   5.440   0.914  0.3429 -3.2301 -0.1716
15867SOL    HW251133   5.712   5.442   0.845  0.1734 -0.0390 -0.5311
15868SOL     OW51134   2.164   7.161   2.904  0.3709  0.0865  0.3381
15868SOL    HW151135   2.170   7.070   2.933 -0.4480 -0.2719 -0.5414
15868SOL    HW251136   2.097   7.200   2.960  0.8443  0.1937  0.8284
15869SOL     OW51137   8.097   0.336   7.574  0.3246 -0.8520  0.5128
15869SOL    HW151138   8.052   0.253   7.587 -0.2737 -0.7287 -0.5626
15869SOL    HW251139   8.189   0.313   7.562  0.1291 -1.3973 -0.0117
15870SOL     OW51140   2.834   8.824   6.910 -0.3073 -0.1938  0.2256
15870SOL    HW151141   2.922   8.807   6.944 -0.0995 -1.8454 -1.0479
15870SOL    HW251142   2.842   8.905   6.860  0.6883 -0.7721 -0.5621
15871SOL     OW51143   3.850   9.535   8.961  0.0485  0.9395  0.1911
15871SOL    HW151144   3.851   9.620   8.918 -1.3895  1.7161  1.5846
15871SOL    HW251145   3.784   9.543   9.029 -1.4317 -1.8523 -0.7473
15872SOL     OW51146   3.438   3.841   5.633 -0.0680 -0.4715  0.3363
15872SOL    HW151147   3.466   3.751   5.616  1.0589 -0.1892  0.5842
15872SOL    HW251148   3.347   3.833   5.661 -0.3836 -1.4109 -0.8463
15873SOL     OW51149   5.278   2.504   7.112  0.6692  0.2340  0.0463
15873SOL    HW151150   5.278   2.409   7.099 -0.3700  0.3145 -0.6062
15873SOL    HW251151   5.278   2.515   7.207 -0.8852 -0.4428  0.1587
15874SOL     OW51152   9.969  10.786   3.333 -0.0762  0.3404  0.4787
15874SOL    HW151153  10.002  10.845   3.265 -1.4982  1.7290  0.9368
15874SOL    HW251154   9.984  10.833   3.415 -1.6173  0.3005  0.8203
15875SOL     OW51155   0.282   7.222   0.784 -0.7526 -0.4492  0.2598
15875SOL    HW151156   0.326   7.178   0.856 -0.5920  0.0713  0.4864
15875SOL    HW251157   0.282   7.158   0.713  2.0443  0.1070 -0.3755
15876SOL     OW51158   7.753   3.607   8.174 -0.4569  0.2542 -0.3643
15876SOL    HW151159   7.698   3.639   8.246  0.3716  0.4173  0.2083
15876SOL    HW251160   7.843   3.624   8.203 -0.0998 -0.0480 -1.2669
15877SOL     OW51161   2.826   0.935   6.916  0.5017  0.4602  0.1244
15877SOL    HW151162   2.909   0.958   6.875  0.5568  0.8027  0.4205
15877SOL    HW251163   2.766   1.004   6.889  0.8979  1.5157  1.7630
15878SOL     OW51164   6.147  10.955   7.787 -0.4802 -0.1215 -0.2792
15878SOL    HW151165   6.237  10.984   7.806  0.3991 -2.2761 -0.8469
15878SOL    HW251166   6.125  10.999   7.705  0.4485 -0.2910 -0.6410
15879SOL     OW51167  10.945  10.909   3.879 -0.5443 -0.0569  0.5059
15879SOL    HW151168  10.947  10.866   3.965 -1.9475  1.0008  1.0902
15879SOL    HW251169  10.926  10.838   3.817  0.7596 -0.8783  1.0017
15880SOL     OW51170   7.762   4.570   6.206  0.3483  0.0146 -0.0015
15880SOL    HW151171   7.793   4.660   6.200  1.3246 -0.2537  0.7368
15880SOL    HW251172   7.736   4.560   6.297  1.2131 -0.7426  0.1755
15881SOL     OW51173   2.106   4.529   6.727 -0.0122  0.0846  0.7464
15881SOL    HW151174   2.167   4.470   6.772  0.3994 -0.3863 -0.4012
15881SOL    HW251175   2.028   4.476   6.712  0.4346 -0.2701 -0.4734
15882SOL     OW51176   7.659   3.331   1.984  0.0891  0.1420  0.4853
15882SOL    HW151177   7.583   3.275   1.970 -0.6598  1.4121 -0.8693
15882SOL    HW251178   7.623   3.419   1.992  1.2760  0.5321  1.9931
15883SOL     OW51179   0.011   2.093  10.448 -0.4451 -0.0087  0.6271
15883SOL    HW151180  -0.018   2.098  10.357 -0.0694  1.8799  0.5635
15883SOL    HW251181   0.101   2.059  10.442 -0.4390  0.0609  0.2889
15884SOL     OW51182   6.472   8.766  10.703 -0.1474 -0.5888  0.4548
15884SOL    HW151183   6.431   8.852  10.693  0.7331 -0.2309 -0.2143
15884SOL    HW251184   6.566   8.784  10.699  0.0424 -1.6140 -0.0162
15885SOL     OW51185   3.750   1.146   9.439  0.2436 -0.3164  0.4108
15885SOL    HW151186   3.664   1.132   9.400 -0.9169  0.2885  2.6094
15885SOL    HW251187   3.792   1.210   9.382 -2.1478  2.0584  1.1169
15886SOL     OW51188   9.359   4.836   6.162  0.7200  0.1227 -0.0904
15886SOL    HW151189   9.343   4.821   6.255  1.2062 -1.6104 -0.2596
15886SOL    HW251190   9.426   4.904   6.159 -0.8265  1.7585  0.7546
15887SOL     OW51191   3.662   2.378   5.138  0.5888 -0.3413 -0.0468
15887SOL    HW151192   3.742   2.426   5.158  0.8496 -1.0335  0.6472
15887SOL    HW251193   3.652   2.384   5.043  0.6680  0.9780  0.0150
15888SOL     OW51194  10.790   2.210   7.938 -0.5484 -0.1680 -0.0774
15888SOL    HW151195  10.742   2.256   8.006 -1.2979 -1.8327  0.5771
15888SOL    HW251196  10.850   2.152   7.986  2.5529  2.1430 -0.8486
15889SOL     OW51197   9.072   5.460   3.904 -0.2844 -0.0077 -0.3282
15889SOL    HW151198   9.006   5.504   3.852 -1.2025  0.6910  1.3677
15889SOL    HW251199   9.070   5.369   3.873 -1.2971  0.2332 -1.0092
15890SOL     OW51200   1.288   8.854   3.153 -0.0036  0.1653 -0.8494
15890SOL    HW151201   1.203   8.895   3.136 -0.1425  0.4945  0.5370
15890SOL    HW251202   1.319   8.896   3.233  1.1711 -0.4179 -0.9843
15891SOL     OW51203   5.650   1.799   6.775 -0.2932 -0.3583  0.1334
15891SOL    HW151204   5.592   1.863   6.735 -1.5654 -2.5679 -1.8694
15891SOL    HW251205   5.734   1.844   6.784 -1.7936  2.3609  1.4375
15892SOL     OW51206   8.605   9.951  10.656 -0.0192 -0.2098 -0.0630
15892SOL    HW151207   8.527  10.001  10.632  0.7521  0.8758 -0.3895
15892SOL    HW251208   8.577   9.896  10.729 -1.1141  0.0718 -0.2510
15893SOL     OW51209   8.113   3.567  10.654 -0.0627  0.1702  0.4371
15893SOL    HW151210   8.175   3.496  10.671  0.6056  0.8634  0.9790
15893SOL    HW251211   8.167   3.645  10.647 -0.6906  0.4963 -1.2098
15894SOL     OW51212   0.594   7.529   1.812  0.1740  0.1701  0.2100
15894SOL    HW151213   0.621   7.512   1.722  0.1428 -0.4560  0.3175
15894SOL    HW251214   0.532   7.459   1.832  0.1565  0.3258  0.7075
15895SOL     OW51215   0.437   6.357   2.025  0.1299 -0.2736  0.1215
15895SOL    HW151216   0.502   6.375   1.957 -0.6110  0.7562 -0.3458
15895SOL    HW251217   0.418   6.264   2.015 -0.3597 -0.0373 -1.4695
15896SOL     OW51218   8.446   3.787   8.166  0.5610  0.2662  0.1852
15896SOL    HW151219   8.414   3.724   8.102  1.4866 -1.2686  1.1669
15896SOL    HW251220   8.528   3.819   8.130  0.1266  0.8749 -0.2799
15897SOL     OW51221   7.597   4.598   4.763 -0.0379 -0.0073  0.0338
15897SOL    HW151222   7.667   4.631   4.819 -0.7694  0.8219  0.4647
15897SOL    HW251223   7.544   4.543   4.821  1.4985 -2.5659 -0.7913
15898SOL     OW51224   1.301   2.831   4.123 -0.3729  0.0666 -0.0743
15898SOL    HW151225   1.240   2.833   4.049 -0.2941 -0.0946 -0.1462
15898SOL    HW251226   1.375   2.884   4.095 -0.6195  0.5247  0.1399
15899SOL     OW51227   7.610   7.252  10.455 -0.5982 -0.5026 -0.6801
15899SOL    HW151228   7.541   7.277  10.394 -0.1876  0.8954 -0.6024
15899SOL    HW251229   7.567   7.255  10.541 -0.9075 -1.4671 -0.7881
15900SOL     OW51230   2.262   4.052   4.227 -0.1314 -0.0463  0.0675
15900SOL    HW151231   2.289   4.118   4.164  2.9071 -1.3666 -0.1878
15900SOL    HW251232   2.279   4.091   4.313 -0.9409  0.4756 -0.0048
15901SOL     OW51233   7.795   4.338   1.232 -0.0614 -0.3351  0.0967
15901SOL    HW151234   7.756   4.384   1.157 -0.3393  0.0674  0.4894
15901SOL    HW251235   7.882   4.377   1.242 -0.1612 -0.1424  0.2084
15902SOL     OW51236   6.411   8.149   3.264 -0.2772  0.3763 -0.0280
15902SOL    HW151237   6.468   8.104   3.326  1.2070  1.9598 -0.1489
15902SOL    HW251238   6.434   8.113   3.179 -0.1693  0.2946  0.0358
15903SOL     OW51239   3.861   1.219   7.424 -0.1443 -0.0383  0.0150
15903SOL    HW151240   3.845   1.286   7.358  0.9404  2.2412  1.9011
15903SOL    HW251241   3.955   1.219   7.438 -0.2062 -1.3901  0.6480
15904SOL     OW51242   5.208   2.377   8.021  0.3737  0.0114  0.2472
15904SOL    HW151243   5.138   2.430   8.058 -1.8539 -2.4196 -0.2333
15904SOL    HW251244   5.226   2.415   7.936 -1.4289 -0.1789 -0.2412
15905SOL     OW51245   1.900   8.106   0.117  0.3056 -0.5844  0.1409
15905SOL    HW151246   1.846   8.180   0.144  0.2552 -1.0802  1.5228
15905SOL    HW251247   1.838   8.045   0.076 -0.0297 -0.7107  0.8086
15906SOL     OW51248   5.954   8.257   6.976 -0.3065 -0.7539 -1.0096
15906SOL    HW151249   5.915   8.340   7.007 -0.0316 -0.8442 -0.4079
15906SOL    HW251250   6.037   8.283   6.936  1.2616 -0.9643  1.7949
15907SOL     OW51251   6.212   9.680  10.795  0.1865 -0.2686  0.6049
15907SOL    HW151252   6.250   9.670  10.882  2.0450  2.2499  0.2092
15907SOL    HW251253   6.125   9.715  10.810  0.6720  0.6078  1.4687
15908SOL     OW51254   6.133   6.372   6.850  0.4484 -0.3806 -0.3622
15908SOL    HW151255   6.109   6.328   6.931  3.2381  0.9393  1.3093
15908SOL    HW251256   6.087   6.456   6.853  0.3134 -0.4573 -0.3029
15909SOL     OW51257   9.170   1.372   2.481 -0.1678  0.0957  0.0430
15909SOL    HW151258   9.109   1.328   2.540 -1.1454 -0.4539 -1.3155
15909SOL    HW251259   9.228   1.421   2.538 -1.9047  0.6704  1.4006
15910SOL     OW51260   6.403   3.455   7.463 -0.0251 -0.8222  0.4125
15910SOL    HW151261   6.339   3.385   7.450 -0.6238 -0.2408  0.1412
15910SOL    HW251262   6.362   3.513   7.528  0.3267 -0.5644  0.4042
15911SOL     OW51263   2.440   4.486   7.822  0.6316 -0.7674  0.5141
15911SOL    HW151264   2.411   4.441   7.902 -0.4633  0.5565  0.9059
15911SOL    HW251265   2.506   4.549   7.853 -1.8255  1.7858  0.9238
15912SOL     OW51266   1.664   6.639   1.818 -0.2892 -0.5044 -0.1449
15912SOL    HW151267   1.725   6.568   1.840 -1.0514 -1.1338 -0.0458
15912SOL    HW251268   1.711   6.719   1.844 -0.3982 -1.1023  2.0549
15913SOL     OW51269   7.666   0.070  10.394 -0.1432  0.4597 -0.6907
15913SOL    HW151270   7.665  -0.010  10.342 -0.6087  0.4710 -0.6993
15913SOL    HW251271   7.759   0.091  10.404  0.0164 -0.6313  0.1766
15914SOL     OW51272   2.407  10.991   5.825 -0.0790  0.1265  0.2921
15914SOL    HW151273   2.361  11.062   5.780  1.1018  0.0925 -1.0389
15914SOL    HW251274   2.499  11.014   5.818  0.2686 -1.1140  0.6137
15915SOL     OW51275   7.823   1.054   9.819  0.3802  0.2803  0.0993
15915SOL    HW151276   7.850   1.080   9.731 -0.3412  0.1480 -0.1679
15915SOL    HW251277   7.846   0.961   9.825 -2.1530 -0.4804 -1.0124
15916SOL     OW51278   8.704   5.798   7.410  0.0402 -0.3897 -0.0231
15916SOL    HW151279   8.689   5.822   7.319  0.4674 -0.7968 -0.2059
15916SOL    HW251280   8.622   5.759   7.440 -1.2139  2.5805  0.7343
15917SOL     OW51281   7.244   4.952   5.393 -0.0329  0.4737  0.5113
15917SOL    HW151282   7.284   4.911   5.317 -0.3121  0.3044  0.4552
15917SOL    HW251283   7.231   5.043   5.368 -1.3135  0.1333 -0.1158
15918SOL     OW51284  10.290   9.201   5.693 -0.0059  0.1591 -0.3352
15918SOL    HW151285  10.350   9.153   5.636  0.3653  0.9472 -0.6242
15918SOL    HW251286  10.237   9.254   5.634 -1.1284 -0.6760 -0.0920
15919SOL     OW51287   1.322   8.354   9.133 -0.0341  0.0035  0.0312
15919SOL    HW151288   1.303   8.344   9.040 -0.6509  1.3458 -0.0165
15919SOL    HW251289   1.417   8.348   9.139  0.2295  2.0413 -1.0371
15920SOL     OW51290   3.041   7.756   9.440  0.3446  0.1865  0.0158
15920SOL    HW151291   3.092   7.836   9.430  1.1720 -0.2267  0.7663
15920SOL    HW251292   2.979   7.775   9.511  1.1133 -0.0857  0.7909
15921SOL     OW51293   9.772   9.594   7.173 -0.1622  0.2297  0.7885
15921SOL    HW151294   9.698   9.599   7.112  0.1824 -0.4549  0.3016
15921SOL    HW251295   9.752   9.518   7.228  0.7724 -0.7390 -0.1660
15922SOL     OW51296   8.796   1.772   6.118 -0.2492  0.2349  0.2237
15922SOL    HW151297   8.811   1.721   6.198 -0.7788 -0.4403 -0.0983
15922SOL    HW251298   8.760   1.709   6.056 -0.6012  0.9364 -0.2930
15923SOL     OW51299   6.350   2.849   1.510 -0.0797  0.4400  0.4666
15923SOL    HW151300   6.427   2.876   1.460  0.1270 -1.7964 -0.5367
15923SOL    HW251301   6.303   2.931   1.527 -0.0499  1.4112 -3.2023
15924SOL     OW51302  10.654   4.108   8.429  0.3563 -0.3583 -0.0890
15924SOL    HW151303  10.681   4.159   8.506 -0.4545  0.5301 -0.3695
15924SOL    HW251304  10.608   4.033   8.466  0.0816 -0.0043  0.3031
15925SOL     OW51305   6.258   5.623   0.627 -0.1565  0.3320 -0.4677
15925SOL    HW151306   6.180   5.599   0.676  0.6945 -0.5787  0.4846
15925SOL    HW251307   6.328   5.627   0.692  0.8708 -0.2420 -1.4913
15926SOL     OW51308   8.147   0.392   8.073 -0.7400 -0.0237 -0.2091
15926SOL    HW151309   8.185   0.304   8.076 -1.5244 -0.3758 -0.3421
15926SOL    HW251310   8.222   0.451   8.081 -0.1250 -0.6941 -0.8365
15927SOL     OW51311   2.199   9.017   7.606 -0.1027  0.0301 -0.5678
15927SOL    HW151312   2.218   9.090   7.666 -0.0179 -1.2207  1.0004
15927SOL    HW251313   2.278   9.009   7.553 -0.8761  2.3687 -2.2467
15928SOL     OW51314   4.250   8.745   6.883 -0.4713 -0.1552 -0.3590
15928SOL    HW151315   4.248   8.753   6.788 -1.0231  0.3094 -0.3160
15928SOL    HW251316   4.170   8.790   6.912 -1.7317 -2.5273  0.1475
15929SOL     OW51317   4.727   6.782   3.669 -0.3324  0.1845 -0.4920
15929SOL    HW151318   4.703   6.767   3.761  2.7331 -0.6705  0.3003
15929SOL    HW251319   4.750   6.874   3.664 -0.7239  0.2833 -0.4530
15930SOL     OW51320   2.809   3.936   7.716 -0.2673 -0.3595 -0.7970
15930SOL    HW151321   2.842   3.911   7.802  0.6240 -0.0764 -1.0382
15930SOL    HW251322   2.858   3.880   7.655 -0.3203 -0.0156 -1.1588
15931SOL     OW51323   6.103   3.135   0.076  0.2011 -0.1844 -0.5099
15931SOL    HW151324   6.102   3.130   0.172 -0.5201 -0.1237 -0.5130
15931SOL    HW251325   6.085   3.046   0.047  1.4921 -0.4343 -0.6015
15932SOL     OW51326   6.064   0.743   7.824 -0.2405 -0.4242 -0.0516
15932SOL    HW151327   6.050   0.835   7.846 -1.4980 -0.3178 -1.1435
15932SOL    HW251328   5.976   0.706   7.822 -0.0392 -0.9305 -2.5155
15933SOL     OW51329   5.679   6.852   9.686 -0.1266 -0.2115  0.1663
15933SOL    HW151330   5.667   6.760   9.660 -2.4203 -0.0242  0.3282
15933SOL    HW251331   5.660   6.902   9.607  1.4915  0.1554 -0.0244
15934SOL     OW51332   4.831  10.360  10.246 -0.1594 -0.1641  0.5598
15934SOL    HW151333   4.768  10.344  10.176  0.1493 -1.4152  0.5526
15934SOL    HW251334   4.879  10.438  10.217 -0.6836 -0.0888 -0.1431
15935SOL     OW51335   0.387   8.126   1.646 -0.2789  0.6307  0.1008
15935SOL    HW151336   0.368   8.170   1.564  1.7756  0.0764 -0.7185
15935SOL    HW251337   0.431   8.192   1.699  3.0869 -0.3596 -1.2443
15936SOL     OW51338   9.967   5.377   1.391 -0.5047 -0.4403  0.2926
15936SOL    HW151339   9.984   5.442   1.459 -1.0559  1.1066 -0.9786
15936SOL    HW251340  10.053   5.348   1.362 -0.1674  1.0595 -0.3085
15937SOL     OW51341   5.073   1.387   9.273 -0.3937 -0.0553  0.1652
15937SOL    HW151342   5.059   1.448   9.200  1.6123  1.0055  0.5869
15937SOL    HW251343   5.149   1.335   9.246 -1.7219 -2.0570  0.0719
15938SOL     OW51344   2.389  10.492   3.416 -0.2259 -0.2303 -0.5551
15938SOL    HW151345   2.453  10.553   3.379  0.4130 -0.2612  0.4706
15938SOL    HW251346   2.427  10.405   3.401  1.0305 -0.1844  1.8510
15939SOL     OW51347   3.849   2.298   6.197 -0.2766 -0.1327  0.6712
15939SOL    HW151348   3.790   2.226   6.175 -1.0865  0.2271  1.6125
15939SOL    HW251349   3.813   2.374   6.151  2.4165 -0.8429 -3.1377
15940SOL     OW51350   7.622   8.394   9.433 -0.5120 -0.2246  0.0759
15940SOL    HW151351   7.658   8.369   9.347  1.4325 -1.9563  1.3059
15940SOL    HW251352   7.625   8.490   9.433  0.8330 -0.2237 -1.2449
15941SOL     OW51353   8.619   4.430   1.120 -0.1151  0.0341  0.2358
15941SOL    HW151354   8.680   4.389   1.059  0.0492 -0.4894  0.7325
15941SOL    HW251355   8.533   4.394   1.096 -0.2089  0.6815 -0.3892
15942SOL     OW51356   1.394   2.176   4.867 -0.0946  0.2634 -0.3006
15942SOL    HW151357   1.488   2.194   4.873  0.1853 -1.0674 -0.3726
15942SOL    HW251358   1.358   2.252   4.821  1.1228  0.2788 -1.3029
15943SOL     OW51359   8.509   2.435   3.268  0.2947 -0.4601  0.6217
15943SOL    HW151360   8.491   2.451   3.360  0.6501  1.5310  0.4011
15943SOL    HW251361   8.540   2.520   3.235 -1.6405 -0.5806 -1.7715
15944SOL     OW51362   6.136   6.336   1.904 -0.4284  0.3515 -0.0435
15944SOL    HW151363   6.143   6.281   1.981  2.0948  0.5115 -0.0732
15944SOL    HW251364   6.142   6.276   1.830  2.8680  0.5387 -0.0838
15945SOL     OW51365  11.046   7.718   9.523 -0.3629  0.2622  0.1827
15945SOL    HW151366  11.128   7.697   9.568 -0.4420 -0.0089  0.2034
15945SOL    HW251367  10.992   7.640   9.536 -0.5459  0.3580 -0.0118
15946SOL     OW51368  10.404  10.247   4.055 -0.0141 -0.6425  0.0931
15946SOL    HW151369  10.342  10.319   4.038  0.6811  0.2354  1.1256
15946SOL    HW251370  10.350  10.176   4.089 -0.6390 -0.3972 -0.3587
15947SOL     OW51371   4.477   1.038  10.574  0.3030 -1.0189 -0.4667
15947SOL    HW151372   4.532   1.035  10.652 -0.0407 -0.9458 -0.2161
15947SOL    HW251373   4.509   0.966  10.520  1.1257 -0.5182 -0.6618
15948SOL     OW51374  10.758   8.066   9.581  0.7012 -0.4761  0.5873
15948SOL    HW151375  10.840   8.049   9.627  1.6805 -0.0770 -0.9213
15948SOL    HW251376  10.784   8.074   9.489 -0.8018  1.3179  0.2588
15949SOL     OW51377   2.171   2.403   6.149  0.0773 -0.5492  0.3464
15949SOL    HW151378   2.136   2.478   6.100  1.9216 -0.6859 -1.2861
15949SOL    HW251379   2.094   2.348   6.165 -1.0398  0.8844  0.1235
15950SOL     OW51380   1.257   0.105   2.300 -0.5484  0.3117 -0.0256
15950SOL    HW151381   1.172   0.101   2.342  0.4462 -1.0043  2.0194
15950SOL    HW251382   1.306   0.171   2.349  0.3616 -0.6631  0.4404
15951SOL     OW51383   9.039   1.277   5.715 -0.1577 -0.1115  0.5531
15951SOL    HW151384   9.054   1.357   5.665  0.4458 -0.9657 -0.6822
15951SOL    HW251385   8.951   1.288   5.752 -0.5593  0.6047 -0.5734
15952SOL     OW51386   3.551   2.079   7.511 -0.2671 -0.1844  0.0268
15952SOL    HW151387   3.509   2.134   7.445  1.9193  0.5311 -0.8777
15952SOL    HW251388   3.593   2.141   7.570  2.3587 -0.7566 -1.0820
15953SOL     OW51389   3.214   1.081   8.404 -0.0469 -0.2442  0.2333
15953SOL    HW151390   3.157   1.156   8.423 -1.3353 -1.2035  0.3063
15953SOL    HW251391   3.269   1.111   8.332  1.7221  1.8555  2.2657
15954SOL     OW51392   2.282  11.122   1.750  0.3639 -0.1170  0.6669
15954SOL    HW151393   2.365  11.075   1.753  0.3869 -0.0489  1.3394
15954SOL    HW251394   2.301  11.204   1.704  0.6139 -0.2037  0.6168
15955SOL     OW51395   8.973   5.847   1.890  0.4795  0.0952  0.4575
15955SOL    HW151396   8.914   5.908   1.935 -0.6637  0.0036 -0.8592
15955SOL    HW251397   8.915   5.780   1.853  1.6673 -1.5737  1.4901
15956SOL     OW51398  10.322   8.902   6.845 -0.1611 -0.0032 -0.0423
15956SOL    HW151399  10.266   8.973   6.878  1.6369  1.2639  0.4650
15956SOL    HW251400  10.336   8.845   6.921 -0.0469  0.1739  0.0705
15957SOL     OW51401   0.802   5.627   3.484 -0.5809 -0.1681  0.9191
15957SOL    HW151402   0.806   5.702   3.424 -0.8435  0.3119  1.4868
15957SOL    HW251403   0.814   5.666   3.571  0.7769 -0.9649  1.1195
15958SOL     OW51404   6.297   4.717   8.433 -0.0667  0.0262  0.3152
15958SOL    HW151405   6.217   4.764   8.452 -1.6996 -2.6022  0.5105
15958SOL    HW251406   6.275   4.660   8.359  1.2662 -1.5069  1.0170
15959SOL     OW51407   8.435   8.436  10.956 -0.1014  0.7216 -0.6068
15959SOL    HW151408   8.504   8.386  10.912 -1.5069 -0.7429 -1.2533
15959SOL    HW251409   8.482   8.499  11.010  1.8548 -1.9529  1.1041
15960SOL     OW51410   7.617  10.420   1.485  0.4052 -0.4488  0.4627
15960SOL    HW151411   7.611  10.485   1.555 -0.9213 -0.0258  0.0046
15960SOL    HW251412   7.679  10.457   1.423  1.9665 -1.0541  1.6080
15961SOL     OW51413   0.598   8.044   6.833  0.4551 -0.0057  0.5812
15961SOL    HW151414   0.622   8.136   6.837  0.8252  0.0195 -1.2673
15961SOL    HW251415   0.506   8.041   6.861 -0.4665  1.3664 -1.9587
15962SOL     OW51416   5.501   8.142   4.940 -0.2002  0.4924  0.6737
15962SOL    HW151417   5.413   8.140   4.978 -0.6519  0.0491 -0.3554
15962SOL    HW251418   5.549   8.073   4.986 -1.4989 -1.8436 -1.2575
15963SOL     OW51419   1.101   6.122  10.980 -0.2680  0.3654 -0.3995
15963SOL    HW151420   1.035   6.173  10.934  0.9146  0.7229 -1.7820
15963SOL    HW251421   1.092   6.034  10.943 -2.5834 -0.6808  2.2700
15964SOL     OW51422   2.133   9.091   1.766 -0.0892  0.4223  0.4168
15964SOL    HW151423   2.056   9.036   1.778 -0.3449  0.3900 -1.1594
15964SOL    HW251424   2.102   9.164   1.713  0.8408  0.6997  0.2371
15965SOL     OW51425   4.887  10.878   2.747 -0.5566  0.0270 -0.3140
15965SOL    HW151426   4.947  10.899   2.676 -1.2189 -1.9719 -1.5290
15965SOL    HW251427   4.800  10.902   2.713 -0.8629 -0.8188 -0.1535
15966SOL     OW51428   6.205   8.211   6.394  0.2750  0.5298  0.4518
15966SOL    HW151429   6.219   8.305   6.381  1.2346  0.1496 -1.5992
15966SOL    HW251430   6.288   8.171   6.371 -0.5050 -0.9153  0.0599
15967SOL     OW51431  10.924   7.337   1.070  0.1595 -0.1573  0.3435
15967SOL    HW151432  10.909   7.431   1.078 -1.3391  0.0418 -3.1182
15967SOL    HW251433  10.868   7.310   0.998  2.0961 -3.3484 -0.1505
15968SOL     OW51434   7.745   7.600   1.180  0.1859 -0.2940  0.1152
15968SOL    HW151435   7.791   7.622   1.099  1.6731 -3.7612 -0.1593
15968SOL    HW251436   7.698   7.519   1.159 -4.1034  1.5922  1.1889
15969SOL     OW51437   0.364   0.798  10.144 -0.1936  0.1838  0.0323
15969SOL    HW151438   0.408   0.875  10.180  1.3709 -0.9976  0.7159
15969SOL    HW251439   0.426   0.726  10.155 -0.9450 -0.8856 -2.0839
15970SOL     OW51440   0.632  10.837   0.879 -0.6428  0.3217  0.2211
15970SOL    HW151441   0.606  10.923   0.846  0.0301  0.9297  1.2199
15970SOL    HW251442   0.604  10.836   0.971  1.3121  0.3763  0.8719
15971SOL     OW51443   9.773   8.513   2.210  0.2130 -0.3418  0.0519
15971SOL    HW151444   9.800   8.562   2.288 -0.1083 -0.7898  0.4534
15971SOL    HW251445   9.747   8.580   2.147 -0.8176  0.0108  0.8133
15972SOL     OW51446   8.567   1.610   1.699 -0.5990  0.1946  0.0262
15972SOL    HW151447   8.655   1.575   1.688  0.0568  0.7078  3.0309
15972SOL    HW251448   8.518   1.572   1.625  1.6172 -1.6781 -0.6253
15973SOL     OW51449  10.753   9.643   3.069  0.2928 -0.0207 -0.6028
15973SOL    HW151450  10.712   9.685   2.994  1.7517  1.3453 -0.6847
15973SOL    HW251451  10.762   9.713   3.134 -0.8027 -1.1331  0.8365
15974SOL     OW51452   9.673   3.169  10.746  0.5600 -0.2477 -0.8736
15974SOL    HW151453   9.708   3.181  10.835 -2.1295  0.8054  0.1698
15974SOL    HW251454   9.685   3.076  10.728  2.4297 -0.2160  0.0018
15975SOL     OW51455   0.830   8.578   8.966 -0.1553  0.2012  0.1753
15975SOL    HW151456   0.861   8.544   9.050 -1.6602 -1.8508 -0.0181
15975SOL    HW251457   0.762   8.516   8.939 -0.7158  1.6177 -1.8755
15976SOL     OW51458   3.093   2.736   6.243  0.0735  0.0018  0.3381
15976SOL    HW151459   3.169   2.708   6.192  0.6086 -0.1225  1.1742
15976SOL    HW251460   3.018   2.698   6.197  0.5793 -0.5088 -0.0852
15977SOL     OW51461   5.946   0.707   0.361 -0.3866 -0.2224 -0.2233
15977SOL    HW151462   5.950   0.735   0.452 -1.8774  1.2923 -0.5904
15977SOL    HW251463   6.003   0.630   0.358  1.6358  1.0862  1.4464
15978SOL     OW51464   0.874   3.821   4.478 -0.2149 -0.4952 -0.1548
15978SOL    HW151465   0.861   3.732   4.445  0.3739 -0.3622 -0.7810
15978SOL    HW251466   0.917   3.867   4.406 -2.3944  0.9028 -0.6339
15979SOL     OW51467  10.323   3.794   7.759 -0.0231  0.0771  0.0435
15979SOL    HW151468  10.334   3.733   7.831  0.2046 -1.3407 -1.1418
15979SOL    HW251469  10.228   3.794   7.742 -0.1250  0.7053  0.5624
15980SOL     OW51470   7.121   5.528   7.662  0.8081  0.9243 -0.3346
15980SOL    HW151471   7.192   5.569   7.612  1.7729  2.1585  1.9054
15980SOL    HW251472   7.154   5.526   7.752 -0.6478 -1.6575  0.2296
15981SOL     OW51473  10.591   4.144   4.763  0.0101  0.3896  0.1506
15981SOL    HW151474  10.509   4.174   4.723  0.3462  1.7641  0.4557
15981SOL    HW251475  10.616   4.067   4.712 -0.6360  0.9012 -0.9646
15982SOL     OW51476   2.569   8.029   0.014 -0.1663 -0.6381 -0.4287
15982SOL    HW151477   2.661   8.043   0.035 -0.1797 -2.6451  1.3591
15982SOL    HW251478   2.521   8.076   0.083 -0.3960 -1.4512 -0.0197
15983SOL     OW51479   1.047   5.526   3.141 -0.0296  0.2400 -0.3548
15983SOL    HW151480   1.024   5.436   3.165  0.5545  0.3678  0.7411
15983SOL    HW251481   1.110   5.516   3.069  0.9994 -0.2940  0.5808
15984SOL     OW51482   7.248   8.174   2.359 -0.2976  0.3479 -0.5079
15984SOL    HW151483   7.259   8.234   2.433 -0.2049 -1.4860  1.0530
15984SOL    HW251484   7.156   8.150   2.361  0.0854 -1.2704  0.3775
15985SOL     OW51485   1.305   1.007  10.037  0.3471  0.6635  0.2243
15985SOL    HW151486   1.401   1.006  10.046  0.4148  2.6545 -0.0064
15985SOL    HW251487   1.275   1.067  10.105 -0.7781 -0.0808  0.4044
15986SOL     OW51488   2.178   1.922   8.765  0.0384  0.0247 -0.1447
15986SOL    HW151489   2.136   1.885   8.843  0.5261  0.5352  0.3633
15986SOL    HW251490   2.108   1.923   8.700 -0.5572  0.1915  0.4738
15987SOL     OW51491   1.334   5.691   9.804  0.1062  0.2163 -0.3977
15987SOL    HW151492   1.378   5.627   9.861 -0.8461  0.0574  0.1750
15987SOL    HW251493   1.404   5.723   9.747  0.7007 -0.9910 -0.3854
15988SOL     OW51494   7.208  11.035   4.822 -0.5895 -0.0795  0.4436
15988SOL    HW151495   7.245  11.045   4.910  0.7546  1.5761 -0.2631
15988SOL    HW251496   7.249  11.105   4.771  0.5181 -2.4414 -2.1276
15989SOL     OW51497   0.059   0.755   8.005 -0.4506  0.0442 -0.2234
15989SOL    HW151498   0.023   0.727   7.921 -3.3427 -2.1357  1.5307
15989SOL    HW251499   0.044   0.850   8.007  0.0755  0.2104 -2.2792
15990SOL     OW51500   4.034   7.174   5.869  0.2283  0.0649 -0.0468
15990SOL    HW151501   3.947   7.135   5.872  0.0040  0.4785 -0.8707
15990SOL    HW251502   4.025   7.254   5.921  0.6065 -0.7925  1.3798
15991SOL     OW51503   6.421   6.051   3.095 -0.3845  0.2156  0.3292
15991SOL    HW151504   6.482   5.989   3.134  0.3754 -1.6784 -3.3999
15991SOL    HW251505   6.429   6.130   3.149  2.0418 -1.4073  2.5739
15992SOL     OW51506   3.602   7.876   6.451 -0.4785  0.2715 -0.6729
15992SOL    HW151507   3.645   7.802   6.496 -0.5180  0.9754  0.5479
15992SOL    HW251508   3.522   7.891   6.500  0.4258  2.3294  0.2640
15993SOL     OW51509  10.671   6.950   4.229  0.4797 -0.0592 -0.2542
15993SOL    HW151510  10.607   7.017   4.254  0.0480 -0.6019  0.1208
15993SOL    HW251511  10.710   6.922   4.312  1.0750  0.1267 -0.4601
15994SOL     OW51512   4.868   8.334  10.715  0.2338 -0.5102 -0.6818
15994SOL    HW151513   4.821   8.376  10.787  2.2264  0.5001  0.1102
15994SOL    HW251514   4.839   8.243  10.718 -0.4600 -0.2821  0.7693
15995SOL     OW51515  10.457   9.441   0.098  0.5078 -0.0149 -0.0155
15995SOL    HW151516  10.505   9.440   0.180 -0.2892 -3.3133  0.5371
15995SOL    HW251517  10.513   9.394   0.036 -1.4915 -3.2658  0.4474
15996SOL     OW51518   4.443   2.773   7.625 -0.2313  0.3337 -0.3188
15996SOL    HW151519   4.433   2.686   7.587 -0.8195  0.1322  0.2764
15996SOL    HW251520   4.409   2.764   7.714 -0.0772  1.1149 -0.1743
15997SOL     OW51521   1.687   0.011   2.653 -0.5629 -0.2254  0.3796
15997SOL    HW151522   1.763   0.069   2.654 -1.1653  0.6094 -0.5193
15997SOL    HW251523   1.661   0.007   2.561 -1.3593 -0.8330  0.6204
15998SOL     OW51524   3.751   9.259   8.911 -0.1703 -0.3914  0.0218
15998SOL    HW151525   3.731   9.311   8.989  1.9264 -0.5838  0.7340
15998SOL    HW251526   3.812   9.313   8.861 -0.9561 -0.5704 -1.1545
15999SOL     OW51527   3.888   8.413   6.351 -1.0028 -0.5067 -0.0020
15999SOL    HW151528   3.877   8.352   6.424 -0.7715  0.4419  0.8439
15999SOL    HW251529   3.848   8.369   6.276 -0.8096 -1.7040  0.5819
16000SOL     OW51530   9.085   1.024   7.431 -0.6052 -0.3405 -0.1942
16000SOL    HW151531   9.116   1.053   7.345  0.2189 -0.2397  0.1282
16000SOL    HW251532   9.126   1.085   7.493  0.6263 -1.7459  0.4446
16001SOL     OW51533   9.109   0.542   6.930  0.0198 -0.7125 -0.1300
16001SOL    HW151534   9.068   0.529   7.015  1.5256 -0.9839  0.5881
16001SOL    HW251535   9.166   0.466   6.918  1.2034  0.2014 -0.5361
16002SOL     OW51536   2.656   7.712   8.267 -0.7222  0.4309  0.0452
16002SOL    HW151537   2.658   7.808   8.273  2.6030  0.4898 -0.0575
16002SOL    HW251538   2.600   7.694   8.192  1.0102  2.5221 -1.9106
16003SOL     OW51539   4.093   8.537   7.142  0.0954  0.1237 -0.2552
16003SOL    HW151540   4.136   8.497   7.066 -0.9163  0.8484 -1.2487
16003SOL    HW251541   4.120   8.628   7.140  0.9696 -0.0871  0.9571
16004SOL     OW51542   3.495   5.374   1.026  0.1702 -0.3589  0.0924
16004SOL    HW151543   3.505   5.460   1.068 -1.0624 -0.3775  0.4659
16004SOL    HW251544   3.560   5.374   0.956 -0.7829  1.4990 -0.8679
16005SOL     OW51545   7.797   7.968   7.927 -0.1971 -0.3960  0.4032
16005SOL    HW151546   7.826   7.998   7.841 -0.8700 -1.5411 -0.2475
16005SOL    HW251547   7.870   7.917   7.961 -0.5209 -1.2819 -0.1989
16006SOL     OW51548   2.477   8.176   0.698  0.0775  0.1280 -0.4270
16006SOL    HW151549   2.456   8.134   0.782  2.4449 -2.0545 -0.8117
16006SOL    HW251550   2.562   8.216   0.712 -0.7063  2.1363 -1.0677
16007SOL     OW51551   2.433   4.179   9.351 -0.0086 -0.2070  0.3317
16007SOL    HW151552   2.408   4.136   9.433 -0.2342  1.0483  0.9345
16007SOL    HW251553   2.383   4.260   9.350 -2.2594 -1.4575 -2.4336
16008SOL     OW51554   8.820   8.253   1.718 -0.2472 -0.2640  0.0033
16008SOL    HW151555   8.803   8.314   1.789 -2.2610 -0.5132 -0.1918
16008SOL    HW251556   8.749   8.189   1.725  0.5645 -1.3246 -1.1242
16009SOL     OW51557   7.625   3.858   6.249  0.2673  0.2684  0.5889
16009SOL    HW151558   7.568   3.790   6.213 -1.5262  1.4366  1.1191
16009SOL    HW251559   7.658   3.904   6.172  0.8957 -0.6987  0.2582
16010SOL     OW51560   6.038   2.087   8.184 -0.0739 -0.2143 -0.0639
16010SOL    HW151561   5.965   2.033   8.216 -0.1361 -1.7235 -2.4579
16010SOL    HW251562   6.107   2.023   8.163  1.2807  1.0279  0.4478
16011SOL     OW51563   3.053  10.378   8.940 -0.3192  0.2631  0.4992
16011SOL    HW151564   3.000  10.441   8.988 -2.6372 -0.7707 -0.5759
16011SOL    HW251565   2.994  10.342   8.873  0.7288 -3.3153  1.2686
16012SOL     OW51566   5.186   5.246   4.941 -0.2547  0.4624 -0.8314
16012SOL    HW151567   5.278   5.266   4.958 -0.2335  1.3082 -1.8416
16012SOL    HW251568   5.172   5.273   4.850 -1.4964  0.3279 -0.6958
16013SOL     OW51569   6.233   2.439   6.810  0.0558  0.4126 -0.2113
16013SOL    HW151570   6.219   2.516   6.754  2.9896  0.9044 -0.3786
16013SOL    HW251571   6.297   2.467   6.874 -0.1912 -1.3877  0.8863
16014SOL     OW51572   2.118   3.013   5.128  0.0492  0.0722  0.2335
16014SOL    HW151573   2.025   3.026   5.144  0.4347  2.0785  1.1017
16014SOL    HW251574   2.156   3.100   5.131  1.7606 -0.5220 -1.6849
16015SOL     OW51575   7.521   4.720  10.371  0.3667  0.0250 -0.3395
16015SOL    HW151576   7.489   4.668  10.297 -2.9151  0.4510  0.6250
16015SOL    HW251577   7.545   4.804  10.334  1.2149 -0.5891 -1.2323
16016SOL     OW51578   8.534   8.730   3.568  0.0713  0.3122  0.1605
16016SOL    HW151579   8.513   8.800   3.630 -1.3481  0.4121 -0.4064
16016SOL    HW251580   8.582   8.666   3.620 -0.8338  0.5261  1.3098
16017SOL     OW51581   7.461   0.238   1.738 -0.3909  0.1400 -0.2819
16017SOL    HW151582   7.521   0.164   1.727  1.5559  1.6339 -0.3098
16017SOL    HW251583   7.395   0.207   1.800 -1.3036 -2.5333 -2.3935
16018SOL     OW51584   5.984   4.151   5.249  0.0935 -0.0954 -0.2321
16018SOL    HW151585   6.029   4.126   5.330 -0.2047  0.2334  0.0434
16018SOL    HW251586   5.902   4.189   5.279 -0.5560 -1.0604 -0.7456
16019SOL     OW51587   2.704   5.843   3.995 -0.0101  0.3478 -0.4159
16019SOL    HW151588   2.783   5.896   4.009 -0.2615  0.8635 -0.8811
16019SOL    HW251589   2.728   5.755   4.025  0.2802  0.8149  0.7874
16020SOL     OW51590   4.292   7.348   6.223 -0.0331  0.1823  0.0679
16020SOL    HW151591   4.254   7.315   6.142 -1.4450 -0.3319  0.9058
16020SOL    HW251592   4.323   7.436   6.201 -0.8094  0.2235 -0.9136
16021SOL     OW51593   6.332   6.992   1.796 -0.1935 -0.0210 -0.0699
16021SOL    HW151594   6.352   6.965   1.706 -0.6758  1.6394 -0.7179
16021SOL    HW251595   6.297   6.914   1.838  0.7302 -1.0129 -1.1123
16022SOL     OW51596   0.720   2.180  10.800  0.0322  0.3916  0.0593
16022SOL    HW151597   0.763   2.136  10.727  0.5312  0.3675  0.3656
16022SOL    HW251598   0.786   2.238  10.836  0.5981 -1.3213  1.9759
16023SOL     OW51599   9.841   0.574   5.753  0.7791 -0.3614 -0.5831
16023SOL    HW151600   9.890   0.492   5.752  0.3323 -0.7648  2.0350
16023SOL    HW251601   9.749   0.547   5.747  0.5865 -0.1866  0.9973
16024SOL     OW51602   3.246  10.876   3.585  0.7362 -0.3839  0.4949
16024SOL    HW151603   3.261  10.877   3.491 -0.6684  0.1027  0.2691
16024SOL    HW251604   3.207  10.790   3.603  0.0674 -0.0843  0.4818
16025SOL     OW51605  10.978   8.975   7.033  0.0644 -0.0762  0.0971
16025SOL    HW151606  10.966   8.895   6.981  0.1660  0.2225 -0.3919
16025SOL    HW251607  10.994   9.044   6.968  1.9618 -0.0085  0.5917
16026SOL     OW51608   5.906   7.499   1.319  0.1835  0.8112  0.3506
16026SOL    HW151609   5.981   7.551   1.289  0.2053  0.4855 -0.1665
16026SOL    HW251610   5.832   7.560   1.317  0.4741  1.2085  1.1227
16027SOL     OW51611  10.841   5.330   2.444  0.0863  0.3519 -0.2142
16027SOL    HW151612  10.903   5.375   2.501 -0.9078  0.5599  0.7491
16027SOL    HW251613  10.756   5.370   2.465 -0.2135  0.9292 -2.3711
16028SOL     OW51614   6.983   1.861   4.799 -0.8342 -0.0508  0.1301
16028SOL    HW151615   7.033   1.877   4.719 -0.5928 -0.9810  0.0768
16028SOL    HW251616   6.892   1.856   4.769 -0.8866  0.9231  0.1174
16029SOL     OW51617   1.722   6.341   7.947  0.1249  0.2245  0.0928
16029SOL    HW151618   1.703   6.368   8.036 -0.2956 -1.5315  0.5702
16029SOL    HW251619   1.652   6.381   7.894  0.3490  1.2246  0.5209
16030SOL     OW51620   7.744   4.118   1.435  0.2948 -0.3945  0.1689
16030SOL    HW151621   7.694   4.079   1.364  0.6098  0.9682 -0.8221
16030SOL    HW251622   7.783   4.197   1.398  0.2943  0.4698  1.9072
16031SOL     OW51623   1.336   1.088   0.421  0.1591 -0.3416  0.1303
16031SOL    HW151624   1.336   1.183   0.433  0.4671 -0.2847 -0.2900
16031SOL    HW251625   1.415   1.059   0.467 -0.0345 -0.4164  0.4170
16032SOL     OW51626   6.853   4.346   8.370  0.5563 -0.3179  0.1150
16032SOL    HW151627   6.802   4.376   8.446 -1.3208 -0.7255 -0.9159
16032SOL    HW251628   6.885   4.259   8.396 -1.1996 -1.0484  0.0281
16033SOL     OW51629   6.495   6.200   9.499 -0.6492 -0.1707  0.2916
16033SOL    HW151630   6.421   6.204   9.559 -0.7179 -0.6347  0.2445
16033SOL    HW251631   6.510   6.106   9.485  0.0192 -0.0878  0.3963
16034SOL     OW51632   8.732  10.781   2.596 -0.3626  0.2686  0.1824
16034SOL    HW151633   8.761  10.841   2.665 -2.4780 -1.3468  2.6605
16034SOL    HW251634   8.685  10.836   2.534  1.3770  1.7363  0.1002
16035SOL     OW51635   1.113   9.399   0.389 -0.2911  0.2892  0.4862
16035SOL    HW151636   1.088   9.307   0.392  0.4553  0.0301 -0.4806
16035SOL    HW251637   1.030   9.447   0.391 -0.6795 -0.4031  1.0238
16036SOL     OW51638   5.654   2.555   7.164 -0.1381 -0.0666 -0.0742
16036SOL    HW151639   5.620   2.481   7.113 -1.1942  1.2682 -1.3764
16036SOL    HW251640   5.652   2.524   7.255 -1.2925 -1.3692 -0.5093
16037SOL     OW51641   4.574   9.534  10.981 -0.1045  0.9590  0.5735
16037SOL    HW151642   4.558   9.440  10.993  1.9089  0.5418  0.3645
16037SOL    HW251643   4.620   9.561  11.060  0.6374  1.4258 -0.0021
16038SOL     OW51644   0.298   2.623   2.593 -0.1367 -0.4112  0.0681
16038SOL    HW151645   0.374   2.670   2.626  0.4902 -1.1873 -0.2570
16038SOL    HW251646   0.268   2.675   2.519  1.9715 -1.6914 -1.7886
16039SOL     OW51647   3.422   1.160   7.837  0.3014 -0.0891 -0.1351
16039SOL    HW151648   3.442   1.179   7.929  0.3770  0.4897 -0.2663
16039SOL    HW251649   3.333   1.192   7.824  0.6336  0.7324 -0.5057
16040SOL     OW51650   6.366   5.706   5.593  0.1082  0.2382 -0.3005
16040SOL    HW151651   6.277   5.699   5.629  0.4324  1.7260  0.8774
16040SOL    HW251652   6.386   5.617   5.562 -0.8467 -0.7233  1.6678
16041SOL     OW51653   1.574  10.817   5.193  0.5877  0.1977 -0.2477
16041SOL    HW151654   1.643  10.870   5.153  0.3588  0.4327 -0.3327
16041SOL    HW251655   1.572  10.847   5.284  0.4105  0.3854 -0.3129
16042SOL     OW51656   6.981   2.994   8.968 -0.1936  0.2101  0.4376
16042SOL    HW151657   6.998   3.086   8.947  0.6359  0.1139  0.6521
16042SOL    HW251658   6.914   2.967   8.905  0.7330  0.5167 -0.7279
16043SOL     OW51659   7.232   3.662   4.378  0.0349  0.0390 -0.0354
16043SOL    HW151660   7.312   3.633   4.334 -0.7477  0.5342 -1.8893
16043SOL    HW251661   7.250   3.753   4.402 -0.0687  0.2724 -0.7935
16044SOL     OW51662   3.421  10.663   5.419  0.1117  0.2362  0.1332
16044SOL    HW151663   3.330  10.635   5.420 -0.4234  1.7839 -0.6678
16044SOL    HW251664   3.447  10.657   5.327  0.0499  1.9598 -0.0346
16045SOL     OW51665   6.551   8.466   3.212  0.2175 -0.4029 -0.6197
16045SOL    HW151666   6.627   8.482   3.268  0.0515  0.4967 -0.6390
16045SOL    HW251667   6.484   8.433   3.271  0.4137 -0.5795 -0.4931
16046SOL     OW51668  11.126   8.501   7.427 -0.2205  0.2747 -0.2176
16046SOL    HW151669  11.032   8.514   7.421 -0.0878  1.8011  0.3917
16046SOL    HW251670  11.145   8.427   7.369 -1.7763 -0.0356 -0.3533
16047SOL     OW51671   8.574   6.511   7.506  0.2544 -0.5205 -0.4410
16047SOL    HW151672   8.640   6.578   7.525 -0.2453 -0.4133  1.0738
16047SOL    HW251673   8.592   6.442   7.569  1.1290 -2.1357 -2.3630
16048SOL     OW51674   3.468   5.311   0.097  0.3826 -0.4868 -0.0163
16048SOL    HW151675   3.478   5.406   0.104 -1.7532 -0.2679  0.8487
16048SOL    HW251676   3.388   5.298   0.045  1.7999 -1.8921 -2.0288
16049SOL     OW51677  10.244   3.769  10.103 -0.7747  0.3043 -0.8783
16049SOL    HW151678  10.327   3.740  10.064 -0.7996  3.6199 -3.9588
16049SOL    HW251679  10.178   3.742  10.039 -1.7796  0.0264  0.2505
16050SOL     OW51680   9.024   4.802   6.541  0.5969 -0.5981 -0.0370
16050SOL    HW151681   8.975   4.866   6.488  0.6503 -0.7628 -0.2853
16050SOL    HW251682   8.986   4.810   6.629 -0.9692 -1.8382 -0.5609
16051SOL     OW51683   6.388   9.147   1.555 -0.2315  0.2045 -0.3002
16051SOL    HW151684   6.405   9.067   1.604 -0.7015  0.1145 -0.2773
16051SOL    HW251685   6.468   9.162   1.505  0.7445  0.9856  1.4092
16052SOL     OW51686   6.612   1.079   3.264 -0.5087  0.4051 -0.0657
16052SOL    HW151687   6.599   1.042   3.351  0.4310  0.9036  0.2992
16052SOL    HW251688   6.644   1.168   3.280  0.8512  0.0915 -0.9039
16053SOL     OW51689   1.630   4.137   6.647 -0.2869 -0.3873 -0.2812
16053SOL    HW151690   1.660   4.139   6.738 -0.8980  3.8756  0.0140
16053SOL    HW251691   1.534   4.134   6.654 -0.3326 -0.0770 -0.7755
16054SOL     OW51692   3.640   5.808   0.293  0.2762 -0.1781  0.1718
16054SOL    HW151693   3.660   5.716   0.273 -0.8082 -0.2508 -0.6866
16054SOL    HW251694   3.719   5.856   0.267 -0.0491 -0.5992 -1.8324
16055SOL     OW51695   3.586  10.656  10.909  0.5191  0.4979 -0.3703
16055SOL    HW151696   3.586  10.582  10.970  0.7070  1.2764  0.6038
16055SOL    HW251697   3.601  10.616  10.823  0.3611 -0.6146  0.0982
16056SOL     OW51698   7.171  10.680   9.851  0.5975  0.5665  0.2682
16056SOL    HW151699   7.145  10.758   9.802  3.1962  1.1863 -0.2711
16056SOL    HW251700   7.165  10.707   9.943  0.0785  0.8879  0.1459
16057SOL     OW51701   6.017   4.545   7.079 -0.1208 -0.3848 -0.7450
16057SOL    HW151702   5.998   4.452   7.086 -2.3233 -0.0330 -1.0837
16057SOL    HW251703   5.990   4.568   6.990  2.5645  0.1916 -1.5050
16058SOL     OW51704   5.376   5.606   7.262  0.2718 -1.1068  0.4420
16058SOL    HW151705   5.407   5.650   7.183  0.2860 -1.0663  0.4703
16058SOL    HW251706   5.281   5.603   7.251  0.2221 -0.5582  0.7083
16059SOL     OW51707   6.073  10.357   7.463 -0.1149 -0.1878 -0.3153
16059SOL    HW151708   6.110  10.445   7.461  1.1162 -0.5272  2.8723
16059SOL    HW251709   6.135  10.303   7.414 -0.3352  0.5041 -1.3773
16060SOL     OW51710   2.032  11.109   6.695 -0.1953 -0.1024  0.1596
16060SOL    HW151711   2.000  11.152   6.775 -2.3555 -1.1738 -0.0368
16060SOL    HW251712   2.034  11.016   6.717 -0.6999 -0.4016 -0.9786
16061SOL     OW51713   5.007   5.503   9.934  0.1145 -0.7215  0.2380
16061SOL    HW151714   5.059   5.549   9.868 -2.4425 -0.0920 -1.4886
16061SOL    HW251715   5.038   5.538  10.017  0.8723  1.3304 -0.8381
16062SOL     OW51716  10.923   6.350   7.419  0.0548 -0.0720 -0.2442
16062SOL    HW151717  10.834   6.366   7.451  0.4578  0.9279  0.4442
16062SOL    HW251718  10.914   6.277   7.358 -1.1172 -0.4977  0.4009
16063SOL     OW51719   1.296   8.467   5.531 -0.1421 -0.4774 -0.0373
16063SOL    HW151720   1.255   8.535   5.478 -0.4361 -0.0952  0.6760
16063SOL    HW251721   1.338   8.409   5.467 -0.5723 -0.0763 -0.6927
16064SOL     OW51722   2.357   8.444   2.822 -0.3630  0.5007  0.1103
16064SOL    HW151723   2.338   8.499   2.898  1.7164 -0.0570  1.1088
16064SOL    HW251724   2.365   8.506   2.749 -0.0609  1.3132  0.8201
16065SOL     OW51725   1.468   4.116   2.576 -0.4647  0.2701  0.0385
16065SOL    HW151726   1.485   4.176   2.649 -1.0945  1.1802 -0.5383
16065SOL    HW251727   1.381   4.080   2.594  0.4343 -1.5492  1.0740
16066SOL     OW51728   9.916   6.511   9.461  0.2260  0.4874  0.2548
16066SOL    HW151729   9.833   6.483   9.499  0.4377 -0.3905  0.0843
16066SOL    HW251730   9.895   6.593   9.415 -0.3405  0.7669  0.9908
16067SOL     OW51731   0.563   8.780   2.340 -0.3018  0.1324 -0.3954
16067SOL    HW151732   0.550   8.747   2.250 -0.9141 -1.0243  0.0938
16067SOL    HW251733   0.576   8.701   2.392 -1.9737  0.6374  0.8608
16068SOL     OW51734   1.677   0.084   1.526 -0.1579  0.3176 -0.4213
16068SOL    HW151735   1.715   0.170   1.541  1.0302 -0.5000  1.7326
16068SOL    HW251736   1.583   0.096   1.539  0.1227  1.0858  1.1766
16069SOL     OW51737   4.509   0.711   2.912 -0.2767  0.2290  0.3519
16069SOL    HW151738   4.544   0.625   2.934 -0.4825  0.4789  1.7437
16069SOL    HW251739   4.580   0.772   2.933 -0.2472  0.4314 -0.3161
16070SOL     OW51740   9.020   6.404   8.239  0.3116  0.2269  0.1390
16070SOL    HW151741   9.091   6.410   8.175  0.5538  0.3863  0.4204
16070SOL    HW251742   9.063   6.384   8.321 -0.1912 -2.4225 -0.1736
16071SOL     OW51743   6.547   3.542   3.425  0.4783  0.0698 -0.1043
16071SOL    HW151744   6.586   3.510   3.344  1.1928 -1.0034  0.6210
16071SOL    HW251745   6.550   3.637   3.419  0.0195  0.0103 -1.5503
16072SOL     OW51746   1.882   0.286   3.826  0.0603 -0.2180  0.1097
16072SOL    HW151747   1.907   0.309   3.737 -0.5068  1.5343  0.3435
16072SOL    HW251748   1.788   0.269   3.821 -0.3698  1.7164  0.6247
16073SOL     OW51749   6.046   3.717   6.995 -0.1667  0.4955  0.6548
16073SOL    HW151750   6.138   3.745   6.996 -0.0644  0.2110 -0.2313
16073SOL    HW251751   6.042   3.647   7.060  0.3315  0.2651  0.4477
16074SOL     OW51752   9.384   7.405   5.657  0.2183 -0.4247 -0.1813
16074SOL    HW151753   9.466   7.361   5.678  0.9071 -0.5721 -2.8386
16074SOL    HW251754   9.410   7.493   5.629 -0.4881 -0.5143 -1.1801
16075SOL     OW51755   2.350   7.832   6.920  0.3797  0.5411  0.0181
16075SOL    HW151756   2.328   7.861   6.832  2.1228  2.2928  0.1008
16075SOL    HW251757   2.270   7.788   6.952 -1.0377  1.8353 -1.5823
16076SOL     OW51758   0.926   7.141   9.178 -0.6092  0.3182 -0.5058
16076SOL    HW151759   0.910   7.048   9.190 -2.5044  0.7582  0.8201
16076SOL    HW251760   0.872   7.165   9.103 -1.5144  0.6685  0.2467
16077SOL     OW51761   5.947   4.834  10.246  0.7145 -0.0506  0.2064
16077SOL    HW151762   5.998   4.834  10.327  2.7035 -0.4809 -0.9732
16077SOL    HW251763   5.955   4.744  10.212 -0.4093  0.0126 -0.2887
16078SOL     OW51764   3.883   8.017   6.654  0.6446 -0.2842 -0.1188
16078SOL    HW151765   3.898   8.031   6.748 -1.6188  1.0034  0.1278
16078SOL    HW251766   3.869   7.923   6.646  0.5436 -0.3677  0.8911
16079SOL     OW51767   0.252  10.850   2.995 -0.7004 -0.5993  0.5228
16079SOL    HW151768   0.324  10.825   3.053  1.2221  0.2923 -1.3106
16079SOL    HW251769   0.187  10.889   3.053  0.5276 -0.9121  2.2047
16080SOL     OW51770   2.693   0.163   9.860  0.2112  0.0831 -0.3325
16080SOL    HW151771   2.693   0.073   9.893  1.6733  0.6337  1.3257
16080SOL    HW251772   2.602   0.180   9.835 -0.2196 -1.6214 -0.0438
16081SOL     OW51773   9.896   4.267   4.917  0.2129  0.4047 -0.8283
16081SOL    HW151774   9.971   4.314   4.881  0.0019  0.6891 -0.9003
16081SOL    HW251775   9.820   4.306   4.874 -0.0377  0.6997 -0.1292
16082SOL     OW51776   4.385   8.813   1.803 -0.1873  0.4048  0.2266
16082SOL    HW151777   4.449   8.856   1.747 -0.9058 -0.2862 -1.1592
16082SOL    HW251778   4.418   8.827   1.892  3.0712 -1.6971 -0.4790
16083SOL     OW51779   8.551   1.914   4.493  0.8115  0.2375 -0.6528
16083SOL    HW151780   8.536   1.997   4.538 -0.4362  0.0938 -0.7786
16083SOL    HW251781   8.465   1.888   4.460  1.3853 -0.5477 -1.5869
16084SOL     OW51782   1.954   9.927   5.999  0.1894  0.1266 -0.4107
16084SOL    HW151783   1.886   9.941   5.934 -0.3114 -1.2265 -0.2125
16084SOL    HW251784   2.036   9.938   5.951 -0.0669  3.3191 -0.3290
16085SOL     OW51785   3.227   4.338   7.034  0.2098  0.1719  0.0050
16085SOL    HW151786   3.137   4.315   7.057 -0.2314  0.1300 -1.6680
16085SOL    HW251787   3.279   4.268   7.074 -0.6472 -0.7170 -0.3719
16086SOL     OW51788   4.256   7.899   1.222 -0.0841 -0.0550 -0.4584
16086SOL    HW151789   4.267   7.950   1.142 -0.5209  0.9410  0.0982
16086SOL    HW251790   4.224   7.962   1.287 -0.0063 -0.9006  0.4288
16087SOL     OW51791   9.603   5.795   1.457 -0.0176  0.1476 -0.2154
16087SOL    HW151792   9.618   5.808   1.363 -1.2704  1.4203 -0.2641
16087SOL    HW251793   9.690   5.792   1.495  0.5738 -1.6268 -1.5511
16088SOL     OW51794   3.320   7.213   9.627  0.4294 -0.0371  0.4624
16088SOL    HW151795   3.292   7.283   9.686  1.1792  0.7095 -0.0465
16088SOL    HW251796   3.414   7.203   9.645  0.2164 -1.3500  0.9654
16089SOL     OW51797   0.913   5.778   3.677  0.3457 -0.2718 -0.4532
16089SOL    HW151798   0.932   5.862   3.636 -0.3987  0.6565  0.9845
16089SOL    HW251799   0.995   5.730   3.674  0.8859  0.6515 -0.9730
16090SOL     OW51800   9.532   7.797   3.852  0.2104  0.2329 -0.0565
16090SOL    HW151801   9.483   7.867   3.895 -0.3217 -0.4128  0.3900
16090SOL    HW251802   9.615   7.794   3.900  0.6428  1.2213 -0.7156
16091SOL     OW51803   6.024   4.963   1.331  0.0699  0.5722  0.0110
16091SOL    HW151804   5.941   4.990   1.370 -0.5220 -0.6991 -0.3245
16091SOL    HW251805   6.078   5.042   1.333 -0.9666  1.2919  0.6858
16092SOL     OW51806   7.475   2.631  10.622 -0.1183  0.3705  0.4053
16092SOL    HW151807   7.501   2.670  10.538  0.1373  1.7425  1.0914
16092SOL    HW251808   7.531   2.555  10.631  1.6804  1.6379  0.4809
16093SOL     OW51809  10.670   6.401   1.433 -0.2431  0.3042  0.1956
16093SOL    HW151810  10.632   6.314   1.421  0.7081 -0.1875  0.5827
16093SOL    HW251811  10.621   6.439   1.506 -2.8212  1.4117 -1.9788
16094SOL     OW51812   7.609   0.317   3.691 -0.0977  0.6370  0.1947
16094SOL    HW151813   7.606   0.407   3.726 -0.2439  1.1369 -1.0593
16094SOL    HW251814   7.655   0.325   3.608  1.6826 -0.7908  0.9779
16095SOL     OW51815  10.312   0.153  11.092 -0.3510 -0.1115  0.3528
16095SOL    HW151816  10.384   0.136  11.031  0.8699  0.2818  1.6410
16095SOL    HW251817  10.268   0.068  11.101 -0.9030 -0.0631 -1.4552
16096SOL     OW51818   4.731   2.300   3.523  0.0903  0.4250 -0.3135
16096SOL    HW151819   4.735   2.207   3.499  1.1959  1.0278 -2.8600
16096SOL    HW251820   4.780   2.306   3.605 -0.1540 -1.2511 -0.0032
16097SOL     OW51821   1.746  10.488   9.474  0.4273 -0.1143  0.2709
16097SOL    HW151822   1.656  10.456   9.472  0.0597  0.9053 -0.1307
16097SOL    HW251823   1.747  10.561   9.412  1.0715  1.0383  1.5919
16098SOL     OW51824   3.532   5.589   5.111 -0.3525 -0.3340  0.1155
16098SOL    HW151825   3.489   5.646   5.173  0.7523  0.7455 -0.0671
16098SOL    HW251826   3.476   5.511   5.106 -1.5241  0.4368  0.8767
16099SOL     OW51827   5.329   3.825   2.559 -0.2470 -0.0661  0.0982
16099SOL    HW151828   5.322   3.920   2.545 -0.4133 -0.1157 -0.1457
16099SOL    HW251829   5.411   3.815   2.608 -0.3769  0.2313  0.3850
16100SOL     OW51830   1.986   2.343   1.282  0.2623 -0.0877 -0.1795
16100SOL    HW151831   1.926   2.276   1.314 -0.0826  0.8819  1.3030
16100SOL    HW251832   2.074   2.306   1.295  0.0438 -1.1782 -1.6006
16101SOL     OW51833   2.887   6.668   1.754 -0.4106  0.0509 -0.0887
16101SOL    HW151834   2.956   6.604   1.772  0.1414  0.6953  0.1609
16101SOL    HW251835   2.926   6.727   1.689 -1.0109 -0.0337 -0.5274
16102SOL     OW51836  10.189   7.297   8.427  0.3638 -0.1425 -0.8343
16102SOL    HW151837  10.132   7.238   8.475 -0.8656  2.4238  1.0552
16102SOL    HW251838  10.268   7.305   8.481 -0.5005  1.7719  0.2243
16103SOL     OW51839   6.763   0.338   4.789 -0.3876 -0.3149  0.2509
16103SOL    HW151840   6.779   0.431   4.803 -1.8134 -0.1062  0.6043
16103SOL    HW251841   6.758   0.301   4.877 -0.8347 -0.5391  0.1339
16104SOL     OW51842   8.480   3.595  10.033  0.0099 -0.0530 -0.6572
16104SOL    HW151843   8.540   3.651  10.082 -0.7793  1.0405 -0.8919
16104SOL    HW251844   8.519   3.588   9.946  0.0262  0.3019 -0.6825
16105SOL     OW51845  11.019   2.415   7.596  0.2785  0.4448 -0.0883
16105SOL    HW151846  11.022   2.484   7.662  0.4189  0.9791 -0.6414
16105SOL    HW251847  10.972   2.343   7.638 -1.0691  1.3638  0.0429
16106SOL     OW51848  10.549  10.671   1.499 -0.3168 -0.1234  0.1839
16106SOL    HW151849  10.497  10.639   1.425 -0.0852  2.5041 -1.2646
16106SOL    HW251850  10.501  10.747   1.530  1.5906  1.1900  0.0983
16107SOL     OW51851   9.942  11.116   9.371  0.2311  0.0581 -0.6644
16107SOL    HW151852   9.965  11.034   9.415  0.5746  0.7523  0.4963
16107SOL    HW251853  10.023  11.167   9.370  0.1312  0.2267 -1.7629
16108SOL     OW51854   0.129   1.430   0.511  0.0711 -0.5155 -0.0601
16108SOL    HW151855   0.033   1.434   0.509  0.1109  1.2386 -2.1353
16108SOL    HW251856   0.155   1.506   0.562  0.3710 -1.0248  0.5551
16109SOL     OW51857   8.721   2.085   6.284 -0.1768  0.0333  0.3904
16109SOL    HW151858   8.763   2.013   6.331  0.4772 -0.2363 -0.5816
16109SOL    HW251859   8.741   2.069   6.192 -0.8115  0.9535  0.0791
16110SOL     OW51860   3.934   4.071   3.661  0.1637  0.1532 -0.0026
16110SOL    HW151861   3.908   4.037   3.747 -1.0890  0.0860 -0.3956
16110SOL    HW251862   3.869   4.036   3.601  2.7902 -2.5046 -1.5660
16111SOL     OW51863   9.745   6.568   0.107  0.1400 -0.4121 -0.1998
16111SOL    HW151864   9.685   6.497   0.127  0.4914 -0.4091  0.9365
16111SOL    HW251865   9.697   6.648   0.129  0.9564 -0.4471  2.0309
16112SOL     OW51866   7.529   1.677   2.485  0.3390  0.1394  0.1915
16112SOL    HW151867   7.530   1.756   2.538  2.7187  0.8244 -0.7301
16112SOL    HW251868   7.532   1.708   2.394 -0.2563 -1.0128 -0.2488
16113SOL     OW51869   9.735   7.352   2.059 -0.6327  0.1182 -0.2192
16113SOL    HW151870   9.781   7.284   2.010 -0.0180  0.3121  0.0764
16113SOL    HW251871   9.753   7.433   2.010 -0.1711  0.2824  0.2103
16114SOL     OW51872   3.619   0.732   0.736 -0.4334 -0.2012  0.2137
16114SOL    HW151873   3.608   0.675   0.812  0.8948 -0.1651  0.4621
16114SOL    HW251874   3.689   0.792   0.761 -1.1192  0.8941 -0.4257
16115SOL     OW51875   1.824   1.211   5.765 -0.3417 -0.0174 -0.4270
16115SOL    HW151876   1.877   1.243   5.837 -0.4019  0.5047 -0.6123
16115SOL    HW251877   1.788   1.290   5.724  1.0394 -0.1891 -2.0699
16116SOL     OW51878   0.122   2.356   7.475 -0.0661  0.4430 -0.1385
16116SOL    HW151879   0.142   2.448   7.457  0.0826  0.7797  1.5411
16116SOL    HW251880   0.026   2.353   7.477 -0.1108  1.1317  2.1149
16117SOL     OW51881   6.259   7.245   9.277  0.6623 -0.4399 -0.0429
16117SOL    HW151882   6.284   7.297   9.353  0.4919 -0.6358  0.1516
16117SOL    HW251883   6.274   7.154   9.304  1.7463 -0.4663 -0.6693
16118SOL     OW51884   1.400   4.610   9.188  0.1464  0.4586  0.6246
16118SOL    HW151885   1.359   4.669   9.124  0.5826  0.3421  0.2251
16118SOL    HW251886   1.332   4.592   9.252  0.2829  2.1677  1.2920
16119SOL     OW51887   6.610   0.964   4.941  0.4712 -0.0945  0.1175
16119SOL    HW151888   6.530   1.012   4.920 -0.0092 -1.3312 -0.9693
16119SOL    HW251889   6.676   1.033   4.953 -0.5175  0.8984  0.0539
16120SOL     OW51890  10.019   5.641   1.910 -1.0168 -0.5177  0.6502
16120SOL    HW151891   9.953   5.702   1.942 -2.6395 -1.5538 -0.5540
16120SOL    HW251892  10.082   5.695   1.862 -2.1157  0.2750  0.0666
16121SOL     OW51893   4.202   9.527   4.423  0.0909 -0.9146 -0.1703
16121SOL    HW151894   4.199   9.525   4.519  0.1623  1.9201 -0.0199
16121SOL    HW251895   4.112   9.549   4.397  0.6609  1.1917 -0.5265
16122SOL     OW51896   6.795   3.386   2.609  0.0964 -0.3756 -0.0981
16122SOL    HW151897   6.797   3.451   2.680  0.0420 -0.9550  0.4446
16122SOL    HW251898   6.831   3.307   2.648 -0.5015 -0.8775 -0.5369
16123SOL     OW51899   2.602  10.539   1.441  0.4632  0.3829  0.1387
16123SOL    HW151900   2.655  10.474   1.487  1.5011  0.5079 -0.8335
16123SOL    HW251901   2.604  10.511   1.350 -0.3180  0.9579 -0.0624
16124SOL     OW51902   7.176   3.465   8.989  0.0227  0.1335 -0.2661
16124SOL    HW151903   7.235   3.487   9.061 -0.1481 -0.2887  0.0060
16124SOL    HW251904   7.096   3.515   9.008  0.4520  1.0772 -0.8889
16125SOL     OW51905   5.731  11.083   0.030  0.4890  0.2150  0.6091
16125SOL    HW151906   5.768  11.017   0.089  1.0338 -0.0552 -0.0306
16125SOL    HW251907   5.655  11.040  -0.009  0.6627  0.0765  0.4240
16126SOL     OW51908   5.970   6.602   6.783  0.5394 -0.2883 -0.9934
16126SOL    HW151909   5.977   6.693   6.754 -0.2514  0.0924 -0.0329
16126SOL    HW251910   5.882   6.595   6.820  1.8661 -0.4166  2.4295
16127SOL     OW51911  10.518   1.453   3.326  0.5508 -0.1526  0.1611
16127SOL    HW151912  10.495   1.407   3.246  3.4433 -0.5557 -0.5682
16127SOL    HW251913  10.444   1.511   3.343 -1.0664 -1.5642 -1.5860
16128SOL     OW51914   0.920   8.915   1.304 -0.2302  0.0038 -0.4763
16128SOL    HW151915   0.871   8.840   1.338 -1.7308  1.3052  0.3274
16128SOL    HW251916   0.973   8.945   1.378  1.1214 -0.8096 -1.0720
16129SOL     OW51917   6.686   6.063   4.738 -0.5845 -0.1730  0.2254
16129SOL    HW151918   6.676   6.046   4.644 -3.4721 -0.8021  0.5485
16129SOL    HW251919   6.699   5.976   4.777 -0.6283 -0.0426  0.5306
16130SOL     OW51920   2.574   0.374   7.571 -0.6121  0.0735  0.3053
16130SOL    HW151921   2.561   0.461   7.608 -2.1182 -0.6388  1.6152
16130SOL    HW251922   2.636   0.332   7.630 -0.2778  0.0884 -0.0338
16131SOL     OW51923  10.723   3.729   6.923 -0.6210 -0.0707 -0.3738
16131SOL    HW151924  10.786   3.742   6.994 -0.4715  1.3748 -0.7319
16131SOL    HW251925  10.658   3.669   6.959  0.5895 -1.0797  0.2296
16132SOL     OW51926   6.585   9.021   6.825  0.7261 -0.6107  0.5185
16132SOL    HW151927   6.615   8.939   6.786  1.2506  0.4332 -1.3948
16132SOL    HW251928   6.656   9.083   6.809 -0.7647  0.9104 -0.5676
16133SOL     OW51929  10.394  10.710   2.137 -0.2570 -0.8283 -0.1684
16133SOL    HW151930  10.460  10.644   2.157 -0.3734 -1.0168 -0.3950
16133SOL    HW251931  10.345  10.720   2.219  0.6366 -0.0002  0.2841
16134SOL     OW51932  10.744   8.633   4.082  0.1902 -0.2853 -1.2266
16134SOL    HW151933  10.730   8.640   4.176 -1.7458 -0.4159 -1.4661
16134SOL    HW251934  10.830   8.593   4.073  0.1778 -0.7529  0.5002
16135SOL     OW51935   7.734   5.586   6.870  0.0658  0.1555  0.4015
16135SOL    HW151936   7.662   5.586   6.933 -0.8646 -0.7250 -0.6344
16135SOL    HW251937   7.706   5.645   6.801 -0.0770 -0.8805 -0.4459
16136SOL     OW51938   0.413   2.813   4.534 -0.3437 -0.0699  0.3060
16136SOL    HW151939   0.329   2.839   4.571 -1.7067  0.1080 -2.5622
16136SOL    HW251940   0.389   2.752   4.463  1.9391  0.0464 -0.6490
16137SOL     OW51941   8.649   8.636   1.237 -0.3667 -0.4838  0.2787
16137SOL    HW151942   8.710   8.594   1.298 -1.2912 -0.7995  0.9945
16137SOL    HW251943   8.564   8.632   1.280 -0.8992  0.0065 -0.6856
16138SOL     OW51944   0.190   0.853   2.987 -0.2688  0.2747 -1.1466
16138SOL    HW151945   0.242   0.848   3.067 -1.0562 -0.3434 -0.6604
16138SOL    HW251946   0.108   0.809   3.009  0.3198 -1.9292 -2.9682
16139SOL     OW51947   0.751  10.683   2.059 -0.4198  0.3015 -0.4877
16139SOL    HW151948   0.732  10.743   2.132  0.2266  0.5434 -0.5122
16139SOL    HW251949   0.838  10.648   2.079 -1.4617 -1.9745  0.4240
16140SOL     OW51950   0.798   8.990   0.473  0.1633 -0.1724 -0.2860
16140SOL    HW151951   0.784   8.905   0.515  0.8071 -0.4471 -0.6039
16140SOL    HW251952   0.769   9.055   0.537 -1.3535 -0.6528 -0.4448
16141SOL     OW51953   3.591   9.658   9.101 -0.0993  0.1678  0.0627
16141SOL    HW151954   3.670   9.701   9.132  0.3384 -1.2293  0.9699
16141SOL    HW251955   3.549   9.723   9.044 -0.3640  2.4857  2.6719
16142SOL     OW51956   6.551   4.550   5.824 -0.2977  0.0083  0.5057
16142SOL    HW151957   6.626   4.495   5.844 -0.0766  0.4434  0.9024
16142SOL    HW251958   6.582   4.639   5.840 -0.8253  0.2043  0.4481
16143SOL     OW51959   9.290   6.887  10.946 -0.3631 -0.5128  0.0800
16143SOL    HW151960   9.320   6.958  10.889 -0.1364 -0.7992 -0.1622
16143SOL    HW251961   9.277   6.929  11.032  2.0610 -0.6024  0.5731
16144SOL     OW51962   5.198   8.586   4.009  0.1247 -0.2515 -0.0431
16144SOL    HW151963   5.241   8.665   3.977  0.3252  0.1743  1.2181
16144SOL    HW251964   5.136   8.563   3.940  0.1920  0.8994 -0.5102
16145SOL     OW51965  10.660   6.542   2.897  0.0728  0.0458  0.0099
16145SOL    HW151966  10.587   6.589   2.857  0.5295  1.4158  0.7041
16145SOL    HW251967  10.642   6.450   2.881 -1.3296  0.4139 -0.6278
16146SOL     OW51968  10.711   3.761   4.443 -0.4671  1.0356 -0.3021
16146SOL    HW151969  10.791   3.708   4.451 -1.0956  0.3116  2.0625
16146SOL    HW251970  10.682   3.747   4.353 -0.4250 -2.5062  0.0866
16147SOL     OW51971   5.080   2.423   0.948 -0.4956  0.3424  0.1750
16147SOL    HW151972   5.116   2.364   0.882  0.7253  1.6793 -0.3999
16147SOL    HW251973   5.041   2.495   0.899  0.9824  1.6764  0.8405
16148SOL     OW51974   7.241   8.250   6.687  0.2447  0.2412 -0.4021
16148SOL    HW151975   7.192   8.186   6.737 -0.0003  0.3722 -0.4728
16148SOL    HW251976   7.313   8.201   6.648  0.5924  0.1920  0.2957
16149SOL     OW51977  10.863   9.634   2.282  0.1470  0.5600 -0.3429
16149SOL    HW151978  10.839   9.659   2.371  0.7353 -1.2908  0.3705
16149SOL    HW251979  10.831   9.545   2.272  0.7592  0.4656 -1.7173
16150SOL     OW51980   0.862   3.829   8.445 -0.4241  0.2885  0.2034
16150SOL    HW151981   0.828   3.752   8.401 -0.4695 -0.0167  0.7723
16150SOL    HW251982   0.871   3.803   8.536 -2.1642  1.4916  0.7750
16151SOL     OW51983   3.035   6.814   5.604 -0.1354 -0.1582 -0.5128
16151SOL    HW151984   2.960   6.814   5.664  0.8748  0.5718  0.8026
16151SOL    HW251985   3.093   6.747   5.639 -0.4108 -1.1550 -1.8862
16152SOL     OW51986   6.502   9.614   1.172  0.1849 -0.1696 -0.2845
16152SOL    HW151987   6.488   9.680   1.104  0.9724 -0.5893 -0.8754
16152SOL    HW251988   6.451   9.539   1.145 -0.5396  0.1126  0.2765
16153SOL     OW51989   2.121   4.918  10.187  0.0343 -0.0507 -0.5691
16153SOL    HW151990   2.063   4.912  10.263  2.4536  2.8778  1.7567
16153SOL    HW251991   2.196   4.863  10.209 -0.0840 -0.7769 -1.8389
16154SOL     OW51992   1.565   1.574   9.338  0.2064 -0.2375 -0.1023
16154SOL    HW151993   1.495   1.559   9.401  0.3570  1.2283  0.4723
16154SOL    HW251994   1.522   1.576   9.253 -0.4041  0.2768  0.2087
16155SOL     OW51995   6.010   6.420   6.411 -0.0588  0.2739 -0.6606
16155SOL    HW151996   6.092   6.465   6.432 -0.8899  2.4672 -1.7736
16155SOL    HW251997   5.944   6.464   6.465 -0.2944 -2.9552  1.9607
16156SOL     OW51998   0.679  10.516   9.722 -0.4040  0.0769 -0.6396
16156SOL    HW151999   0.618  10.474   9.661 -0.4609  0.7136 -1.0340
16156SOL    HW252000   0.765  10.480   9.699 -0.3463  0.7195 -1.4772
16157SOL     OW52001   2.081   9.061   7.901 -0.7531 -0.4541  0.1699
16157SOL    HW152002   2.152   8.998   7.918  0.2125  0.2414 -1.1261
16157SOL    HW252003   2.121   9.127   7.845 -2.0630  0.7197  0.5732
16158SOL     OW52004   2.829   3.598   4.729 -0.0229 -0.9349 -0.3378
16158SOL    HW152005   2.856   3.689   4.735  0.1648 -1.0484  0.6691
16158SOL    HW252006   2.739   3.601   4.696  0.4137 -0.4596 -1.5549
16159SOL     OW52007   6.152   9.861   1.490 -0.5214  0.0355  0.0568
16159SOL    HW152008   6.093   9.800   1.534 -0.4862 -0.2820 -0.3227
16159SOL    HW252009   6.240   9.826   1.506 -0.6223 -1.7895 -2.6663
16160SOL     OW52010   6.828   6.533   5.385  0.0518 -0.1872 -0.0356
16160SOL    HW152011   6.878   6.451   5.394 -0.7829 -0.5065  2.4125
16160SOL    HW252012   6.766   6.515   5.315  1.1349 -0.9695 -0.8318
16161SOL     OW52013  10.622   7.092   4.892 -0.2664 -0.5307  0.6038
16161SOL    HW152014  10.660   7.025   4.835  0.9355  1.4278 -1.0439
16161SOL    HW252015  10.657   7.175   4.859 -1.8431  0.9689  2.4066
16162SOL     OW52016   9.529   8.127   7.479 -0.4514  0.3131  0.1448
16162SOL    HW152017   9.577   8.123   7.562  0.9277 -0.5044 -0.6555
16162SOL    HW252018   9.545   8.216   7.446 -0.6136  0.4835  0.5171
16163SOL     OW52019   9.392   8.866   5.802  0.0810  0.1373 -0.2185
16163SOL    HW152020   9.394   8.854   5.707  0.8980 -0.7021 -0.1218
16163SOL    HW252021   9.479   8.839   5.831  0.1164  1.1583  0.6955
16164SOL     OW52022   2.153   7.279   8.437 -0.4596 -0.1957  0.5541
16164SOL    HW152023   2.200   7.196   8.425 -2.6349 -1.6136  1.1815
16164SOL    HW252024   2.218   7.346   8.416  1.2975 -2.0418 -0.3423
16165SOL     OW52025  10.529   0.155  10.629 -0.3148 -0.6778  0.0921
16165SOL    HW152026  10.485   0.194  10.553 -1.3240 -1.1854  0.3994
16165SOL    HW252027  10.614   0.199  10.632 -1.3343  1.4196  0.3266
16166SOL     OW52028   6.890   0.227   0.919 -0.3339 -0.4755 -0.4655
16166SOL    HW152029   6.920   0.257   0.833  4.8562  0.1657  1.2183
16166SOL    HW252030   6.890   0.305   0.974 -0.4922 -1.3616  0.8415
16167SOL     OW52031   8.810  10.606   2.155 -0.3485  0.2876 -0.3036
16167SOL    HW152032   8.889  10.653   2.181 -0.8820  0.7678  0.5160
16167SOL    HW252033   8.739  10.669   2.170 -0.8589 -0.0297 -1.3161
16168SOL     OW52034   9.271   3.454  10.026 -0.2129 -0.1701  0.4664
16168SOL    HW152035   9.206   3.493  10.085  0.0865  1.7613 -0.4124
16168SOL    HW252036   9.349   3.508  10.037 -1.0167  2.3543 -3.7953
16169SOL     OW52037  10.934   4.846   6.338 -0.0722 -0.2080 -0.0322
16169SOL    HW152038  11.023   4.825   6.309  0.1859 -0.0459  0.6242
16169SOL    HW252039  10.878   4.815   6.267  0.4735 -0.7723 -0.2271
16170SOL     OW52040  10.886   1.178   2.127 -0.2174  0.5763 -0.1094
16170SOL    HW152041  10.914   1.267   2.108 -1.5092  0.7112 -1.6208
16170SOL    HW252042  10.840   1.150   2.048 -3.0195 -0.1307  1.6310
16171SOL     OW52043   1.892   3.287  10.510 -0.2306  0.1711  0.5376
16171SOL    HW152044   1.908   3.343  10.586 -0.8435 -0.0449  0.8325
16171SOL    HW252045   1.880   3.348  10.438 -0.4217  0.4068  0.7666
16172SOL     OW52046   0.150  10.250   1.338 -1.4151 -0.2195  0.0184
16172SOL    HW152047   0.082  10.215   1.396 -1.8923 -0.2443 -0.5456
16172SOL    HW252048   0.101  10.297   1.270 -0.9568 -1.4681 -1.2238
16173SOL     OW52049   5.187   1.850   4.608 -0.0768 -0.5713 -0.0863
16173SOL    HW152050   5.142   1.774   4.644 -0.8720 -0.4273 -0.7321
16173SOL    HW252051   5.222   1.821   4.524 -0.7430 -0.1276 -0.5295
16174SOL     OW52052  10.914   5.663   1.605 -0.9473 -0.2609 -0.7870
16174SOL    HW152053  10.922   5.578   1.563  1.1283 -0.7337  0.4135
16174SOL    HW252054  10.975   5.719   1.557 -1.3687  0.2290 -0.7645
16175SOL     OW52055   3.891   7.531   0.839  0.8524  0.5817 -0.5622
16175SOL    HW152056   3.977   7.503   0.871  0.3500  1.0115  1.2822
16175SOL    HW252057   3.851   7.577   0.913 -2.8172 -3.4562  0.4038
16176SOL     OW52058   5.570   5.324   1.348 -0.1735 -0.2153  0.0130
16176SOL    HW152059   5.591   5.326   1.441 -0.3305  0.5840  0.0458
16176SOL    HW252060   5.519   5.244   1.336  1.0480 -1.0565  0.3331
16177SOL     OW52061   6.759   6.750   4.855 -0.4011 -0.8054 -0.3737
16177SOL    HW152062   6.776   6.727   4.764  1.0802 -1.4825  0.0501
16177SOL    HW252063   6.712   6.833   4.851 -1.1771 -1.2936 -1.7723
16178SOL     OW52064   0.177   6.633   8.166  0.6865  0.4763 -0.1805
16178SOL    HW152065   0.221   6.550   8.149 -1.1133 -1.0147  1.7448
16178SOL    HW252066   0.089   6.607   8.195  0.0207  3.0778  0.3536
16179SOL     OW52067   5.122  10.672   8.155 -0.3432 -0.4317 -0.1824
16179SOL    HW152068   5.071  10.720   8.090  1.1126  0.7966 -0.4687
16179SOL    HW252069   5.206  10.656   8.112  0.9533  1.1160  1.5928
16180SOL     OW52070  10.757   2.425   0.412  0.5605 -0.0387 -0.5376
16180SOL    HW152071  10.743   2.515   0.383  0.6856  0.4251  0.8082
16180SOL    HW252072  10.774   2.376   0.331  0.4944  1.1396 -1.2769
16181SOL     OW52073   9.607   2.009   6.627 -0.1079 -0.0366 -0.0439
16181SOL    HW152074   9.595   2.095   6.587 -1.0356 -0.8069 -1.5407
16181SOL    HW252075   9.568   1.948   6.564  0.9434 -1.6005  0.7561
16182SOL     OW52076   6.081   1.654   4.531 -0.2319 -0.3321 -0.3440
16182SOL    HW152077   6.017   1.680   4.465  1.1208 -0.2772 -1.6742
16182SOL    HW252078   6.118   1.572   4.498  1.4099  0.3698 -0.3716
16183SOL     OW52079   2.261  10.459   8.198  0.2425 -0.4653 -0.2171
16183SOL    HW152080   2.280  10.542   8.242  1.8758 -2.5275  3.5217
16183SOL    HW252081   2.346  10.415   8.193 -0.5947 -2.0066 -1.8993
16184SOL     OW52082   0.093   8.668   8.324 -0.4781 -0.6278  0.2334
16184SOL    HW152083   0.069   8.737   8.385  1.0119  0.9716 -0.8953
16184SOL    HW252084   0.013   8.615   8.314 -1.7064  1.0077  1.0030
16185SOL     OW52085   7.220   2.534   2.484 -0.3397 -0.2046 -0.2778
16185SOL    HW152086   7.260   2.576   2.408  1.0574 -0.2205  0.4329
16185SOL    HW252087   7.170   2.461   2.447 -0.4253  0.3357 -1.2557
16186SOL     OW52088   9.076   3.697   7.174 -0.3505  0.0030 -0.0917
16186SOL    HW152089   9.097   3.616   7.129  2.7242  0.8839 -0.4650
16186SOL    HW252090   9.026   3.748   7.110 -1.9905 -1.3972  0.0237
16187SOL     OW52091   2.717   9.159   7.044 -0.4120  0.3222 -0.3440
16187SOL    HW152092   2.683   9.120   6.964  1.7888 -0.3865 -1.0166
16187SOL    HW252093   2.703   9.092   7.111  2.4749 -1.4408 -1.2960
16188SOL     OW52094   4.679   3.201   6.471  0.2296  0.4183  0.1548
16188SOL    HW152095   4.590   3.175   6.495 -0.3281  1.1688 -1.0257
16188SOL    HW252096   4.669   3.246   6.387  1.7618  0.2824 -0.1239
16189SOL     OW52097   7.082   3.643   0.523  0.1957  0.3499  0.5447
16189SOL    HW152098   7.118   3.557   0.502  1.1095  0.9945 -0.6324
16189SOL    HW252099   6.987   3.629   0.524  0.2662 -0.4411 -0.8118
16190SOL     OW52100   2.040   2.519   3.344  0.0368 -0.5678  0.0549
16190SOL    HW152101   1.964   2.476   3.304 -0.6399 -0.2872  0.9891
16190SOL    HW252102   2.005   2.558   3.425  0.4844  2.2520 -1.0110
16191SOL     OW52103   1.546   3.145   5.450 -0.2936  0.2669 -0.0137
16191SOL    HW152104   1.605   3.082   5.409  0.4075 -0.4351  1.9492
16191SOL    HW252105   1.482   3.167   5.382 -0.0313 -1.8616 -1.0069
16192SOL     OW52106   6.178   7.380   7.937  0.5422 -0.6468  0.3029
16192SOL    HW152107   6.175   7.299   7.885  2.0345 -1.3117  1.2075
16192SOL    HW252108   6.202   7.352   8.025 -0.0560  0.6801  0.9220
16193SOL     OW52109   3.236   8.688   8.902  0.1686 -0.0638 -0.4011
16193SOL    HW152110   3.214   8.662   8.812 -2.4156 -1.8701  0.6328
16193SOL    HW252111   3.305   8.627   8.928  1.2873  0.7848 -1.2489
16194SOL     OW52112   6.651   8.922   2.407  0.2467 -0.4015 -0.4532
16194SOL    HW152113   6.679   8.839   2.370  1.2254 -0.0290 -0.5901
16194SOL    HW252114   6.644   8.981   2.332 -0.8248 -0.4409 -0.4109
16195SOL     OW52115   6.798   7.409   2.709 -0.4740 -0.4212  0.3234
16195SOL    HW152116   6.741   7.353   2.655 -0.4270 -0.7162  0.5717
16195SOL    HW252117   6.763   7.497   2.698 -1.5128 -0.7069  1.1292
16196SOL     OW52118   6.124   3.686   2.840  1.0483 -0.4178  0.5662
16196SOL    HW152119   6.074   3.646   2.769 -1.1330  0.8161  1.3468
16196SOL    HW252120   6.107   3.631   2.916  0.8905 -0.0119  0.8296
16197SOL     OW52121   6.868   2.891   5.765  0.3919  0.8203 -0.0320
16197SOL    HW152122   6.949   2.850   5.735  1.2192  1.6835  0.9422
16197SOL    HW252123   6.897   2.966   5.818 -1.0318  0.7421  0.9147
16198SOL     OW52124   5.396   6.212   2.008 -0.1713  0.0605 -0.3961
16198SOL    HW152125   5.408   6.179   1.919  2.0953 -0.1007 -0.0781
16198SOL    HW252126   5.469   6.175   2.058 -0.8709  0.8900  1.3190
16199SOL     OW52127   5.511   6.039   5.984 -0.7675  0.2198  0.1642
16199SOL    HW152128   5.520   5.979   5.910 -0.6035  0.4139  0.0243
16199SOL    HW252129   5.581   6.014   6.044 -1.4622 -0.5331  0.6802
16200SOL     OW52130   7.567   3.119  11.040  0.1968 -0.2608 -0.7728
16200SOL    HW152131   7.566   3.025  11.059  0.1256 -0.2208 -0.5744
16200SOL    HW252132   7.482   3.150  11.071 -0.0446 -0.2503 -1.4400
16201SOL     OW52133   1.801   3.995   8.875  0.1973  0.6783 -0.0254
16201SOL    HW152134   1.763   3.928   8.932 -2.2494  0.8990 -1.2681
16201SOL    HW252135   1.798   4.076   8.926 -0.2759  0.5342  0.1761
16202SOL     OW52136   8.444   1.410   2.040 -0.0997 -0.3766  0.0654
16202SOL    HW152137   8.429   1.379   1.950  1.3494 -0.2011 -0.2684
16202SOL    HW252138   8.536   1.437   2.040 -0.8568  2.4832  0.7665
16203SOL     OW52139   3.151   6.540   1.805 -0.4590 -0.0168  0.1567
16203SOL    HW152140   3.202   6.466   1.837 -1.1203 -0.9553 -0.8473
16203SOL    HW252141   3.214   6.597   1.761 -0.2378 -1.1944 -1.1319
16204SOL     OW52142   1.093   8.756   7.080 -0.0587  0.1772  0.5829
16204SOL    HW152143   0.997   8.762   7.074 -0.1007 -0.7467  0.1033
16204SOL    HW252144   1.125   8.800   7.002 -0.0298  1.6135  1.3764
16205SOL     OW52145   3.505   2.546   8.176  0.2023 -0.5487  0.2770
16205SOL    HW152146   3.585   2.591   8.203  1.1361 -1.1851 -1.3574
16205SOL    HW252147   3.456   2.612   8.127  0.6613 -0.7421 -0.4426
16206SOL     OW52148   2.136   8.169   8.591  0.5140  0.1662 -0.0052
16206SOL    HW152149   2.062   8.108   8.587 -0.1597  1.0282 -1.6558
16206SOL    HW252150   2.109   8.234   8.656  0.4520 -0.2851  0.4311
16207SOL     OW52151   7.936   4.435   8.385 -0.2022 -0.3081  0.3292
16207SOL    HW152152   7.870   4.374   8.353 -0.7302 -1.0193  2.6294
16207SOL    HW252153   7.892   4.520   8.388 -0.7001 -0.5801  0.8365
16208SOL     OW52154   8.588   2.988   3.933 -0.3949  0.0093 -0.1760
16208SOL    HW152155   8.533   2.967   4.008  1.4890 -1.5374  0.8788
16208SOL    HW252156   8.540   2.955   3.857 -0.5682 -2.1208  0.7867
16209SOL     OW52157   6.355   0.826  11.100  0.4962 -0.1991 -0.0794
16209SOL    HW152158   6.297   0.806  11.173  0.5617  1.7936  0.5725
16209SOL    HW252159   6.440   0.843  11.141  1.8964 -3.7943 -1.0611
16210SOL     OW52160   1.023   3.579   7.167  0.6393  0.3552  0.6013
16210SOL    HW152161   1.073   3.582   7.086  2.1016 -1.0627  1.3854
16210SOL    HW252162   0.931   3.582   7.139  1.1028 -0.2971 -1.1145
16211SOL     OW52163   8.044   5.812   2.801 -0.4635  0.2513  0.0847
16211SOL    HW152164   8.081   5.845   2.883 -0.0357 -1.9458  0.8560
16211SOL    HW252165   8.103   5.844   2.733  1.4945 -1.0794  1.0504
16212SOL     OW52166   2.598   9.119   3.603 -0.1033  0.4375  0.8003
16212SOL    HW152167   2.641   9.201   3.578  1.8145 -0.5440  0.6742
16212SOL    HW252168   2.510   9.145   3.629  0.1884  2.4256 -0.0285
16213SOL     OW52169  10.443   3.799   5.716  0.2919  0.1291  0.2993
16213SOL    HW152170  10.406   3.722   5.761 -0.5400  0.2787 -0.1166
16213SOL    HW252171  10.368   3.844   5.680  0.8702  0.5707 -0.3763
16214SOL     OW52172   1.247   0.479  10.464 -0.0323  0.3296  0.2046
16214SOL    HW152173   1.310   0.412  10.437 -0.3698 -0.1088  0.4902
16214SOL    HW252174   1.241   0.468  10.559  0.6294  1.4026  0.3826
16215SOL     OW52175   8.925   5.798   6.973  0.7080  0.1088  0.2445
16215SOL    HW152176   8.963   5.754   6.897  1.6451  1.2389  0.0408
16215SOL    HW252177   8.850   5.742   6.998 -0.5176  0.4505 -2.3521
16216SOL     OW52178   8.354   1.519   2.661  0.0920  0.5220 -0.5812
16216SOL    HW152179   8.393   1.601   2.689  0.8212 -0.3510  1.1578
16216SOL    HW252180   8.341   1.470   2.743  0.2361 -1.3194 -1.5998
16217SOL     OW52181   1.139   3.625   9.281 -0.3288 -0.1797  0.4457
16217SOL    HW152182   1.150   3.632   9.375 -0.5359 -0.0495  0.4607
16217SOL    HW252183   1.192   3.697   9.246 -1.8276  1.0260  0.5651
16218SOL     OW52184   5.490  10.672   5.336  0.5672 -0.2977  0.1658
16218SOL    HW152185   5.397  10.678   5.316  0.3241  0.9989  1.5229
16218SOL    HW252186   5.532  10.732   5.274  0.5397 -0.9564 -0.5106
16219SOL     OW52187   8.204   3.998   1.419  0.1127  0.5074 -0.9338
16219SOL    HW152188   8.279   3.946   1.390 -0.2070  0.5188 -1.8061
16219SOL    HW252189   8.203   3.988   1.514  1.5714  0.9673 -0.8345
16220SOL     OW52190   4.699   2.201   0.182 -0.0897 -0.0863 -0.0273
16220SOL    HW152191   4.644   2.143   0.129 -0.2599 -0.5539  0.6456
16220SOL    HW252192   4.742   2.258   0.118 -0.2770 -0.6458 -0.6672
16221SOL     OW52193   6.802   1.387   4.211  0.1406 -0.0593  0.1291
16221SOL    HW152194   6.762   1.474   4.198  0.0642  0.2054  1.8381
16221SOL    HW252195   6.836   1.390   4.301  0.0924 -1.8236  0.2357
16222SOL     OW52196   7.986   9.670   6.344 -0.5900  0.0472  0.1116
16222SOL    HW152197   7.968   9.586   6.386  0.2436  0.2432  0.8872
16222SOL    HW252198   8.057   9.651   6.282 -0.3337  0.1996  0.3584
16223SOL     OW52199  11.119   8.902   2.539  0.3306  0.7527 -0.4708
16223SOL    HW152200  11.136   8.818   2.495 -1.0104  0.3853 -0.3137
16223SOL    HW252201  11.206   8.931   2.568  0.8462 -0.4755 -0.7124
16224SOL     OW52202   7.189   2.880   5.079 -0.3097  0.5075  0.3397
16224SOL    HW152203   7.129   2.840   5.143  0.3950 -1.2667 -0.0325
16224SOL    HW252204   7.143   2.872   4.995  0.1450 -0.2725  0.1500
16225SOL     OW52205   6.315   6.222   0.222 -0.8673 -0.0186  0.3140
16225SOL    HW152206   6.263   6.222   0.141 -0.8163 -0.4875  0.2765
16225SOL    HW252207   6.386   6.160   0.204 -2.2903 -2.1465  1.6066
16226SOL     OW52208   0.019   0.067   7.162  0.2926  0.2094 -0.5035
16226SOL    HW152209   0.023   0.077   7.066  0.6819  1.8106 -0.3507
16226SOL    HW252210   0.064  -0.015   7.179  1.0281  0.3437 -1.6383
16227SOL     OW52211   2.091   9.585   0.742 -0.2045  0.0485  0.2704
16227SOL    HW152212   2.120   9.636   0.818 -0.0882 -0.8789  0.8783
16227SOL    HW252213   2.149   9.611   0.671 -0.5520  1.2025  0.3977
16228SOL     OW52214   7.030   6.956   0.862 -0.3590 -0.1177 -0.2932
16228SOL    HW152215   7.002   6.981   0.950 -0.7152 -0.8186 -0.2018
16228SOL    HW252216   7.091   7.025   0.836  1.0953 -0.7965  1.1774
16229SOL     OW52217   4.898   1.584  10.581 -0.7154 -0.2287 -0.3576
16229SOL    HW152218   4.896   1.492  10.610  0.2490  0.6083  2.7080
16229SOL    HW252219   4.818   1.594  10.529 -1.6089 -2.4209  0.4614
16230SOL     OW52220   0.826   8.362   5.134 -0.3481 -0.0796  0.4763
16230SOL    HW152221   0.795   8.335   5.047  1.0299  1.3112 -0.5013
16230SOL    HW252222   0.797   8.453   5.143  2.2284  0.8604  0.0423
16231SOL     OW52223   2.081  10.374   4.653 -0.0709  0.4982  0.6963
16231SOL    HW152224   2.054  10.284   4.667 -0.8571  0.4664 -0.7671
16231SOL    HW252225   2.141  10.371   4.579  0.1636  1.1382  0.8461
16232SOL     OW52226   3.933   3.044   8.924  0.2326 -0.3459  0.8337
16232SOL    HW152227   3.840   3.025   8.912 -0.5594  2.7527  1.2141
16232SOL    HW252228   3.943   3.052   9.019  0.7498 -0.0498  0.7582
16233SOL     OW52229   5.961   2.195   7.602  0.4615  0.0281 -0.2558
16233SOL    HW152230   6.001   2.223   7.684  0.1085  0.6060 -0.2749
16233SOL    HW252231   6.012   2.239   7.534  1.3206 -1.1477 -0.4037
16234SOL     OW52232   1.368   9.315   0.210  0.0003  0.1738 -0.4787
16234SOL    HW152233   1.436   9.270   0.262 -1.9983 -1.2926  1.0307
16234SOL    HW252234   1.299   9.250   0.200 -2.1596  2.2548 -0.0271
16235SOL     OW52235   0.939   7.628   3.421  0.3185  0.1958 -0.1322
16235SOL    HW152236   1.019   7.631   3.474 -0.0688  0.7802  0.4304
16235SOL    HW252237   0.920   7.719   3.399  0.2081 -0.0018 -0.8882
16236SOL     OW52238   0.499   1.237   2.340  0.0450 -0.4066  0.3610
16236SOL    HW152239   0.594   1.237   2.327  0.1633 -0.0627  1.1496
16236SOL    HW252240   0.487   1.265   2.431 -0.8366  0.1601  0.0880
16237SOL     OW52241   6.848   1.240   6.626 -0.4723 -0.1799  0.9097
16237SOL    HW152242   6.810   1.271   6.709 -2.7661 -0.9061  0.2122
16237SOL    HW252243   6.937   1.276   6.626 -0.2250 -0.4970  3.8651
16238SOL     OW52244   9.230   4.158   2.690 -0.4439  0.3943  0.2285
16238SOL    HW152245   9.267   4.132   2.774  2.3803  0.8531 -0.7589
16238SOL    HW252246   9.173   4.233   2.711 -0.5940 -0.1195  1.7985
16239SOL     OW52247   2.796   4.090   8.858 -0.8396  0.0330 -0.5101
16239SOL    HW152248   2.818   4.049   8.774 -1.4455  1.2357 -1.2689
16239SOL    HW252249   2.873   4.073   8.913 -0.9857 -1.9334 -0.8457
16240SOL     OW52250   6.599   4.931   0.804 -0.1540  0.3962  0.1228
16240SOL    HW152251   6.569   4.920   0.714 -0.2435 -0.3566  0.2371
16240SOL    HW252252   6.585   4.845   0.845  0.1441  0.6487  0.7758
16241SOL     OW52253   2.658   3.292   9.142 -0.4890 -0.2253  1.0256
16241SOL    HW152254   2.700   3.378   9.145 -0.3047 -0.2153 -0.5504
16241SOL    HW252255   2.711   3.242   9.079 -2.3221 -0.4694 -0.4302
16242SOL     OW52256   6.984   5.736   9.263  0.2741 -0.2481 -0.6325
16242SOL    HW152257   7.057   5.686   9.225  0.3643  0.7109 -1.7876
16242SOL    HW252258   6.907   5.680   9.250  0.6637 -0.9469 -0.0669
16243SOL     OW52259   7.576   0.236   7.261  0.0467 -0.6723 -0.0214
16243SOL    HW152260   7.575   0.314   7.317  0.3704  0.3564 -1.3719
16243SOL    HW252261   7.557   0.163   7.320  1.5429  0.1957  1.6248
16244SOL     OW52262   0.984   2.235   0.558 -0.1116  0.2116  0.0187
16244SOL    HW152263   1.051   2.268   0.617 -0.5152  0.3939  0.3766
16244SOL    HW252264   0.905   2.283   0.582 -0.2470  0.4124 -0.7753
16245SOL     OW52265   8.654  11.109  11.009 -0.3158  0.2223  0.5026
16245SOL    HW152266   8.671  11.062  10.928 -0.0982  0.9731  0.0970
16245SOL    HW252267   8.701  11.192  10.999  0.1721  0.1002  1.6298
16246SOL     OW52268   2.005   5.692   0.830 -0.0803  0.1390 -0.0887
16246SOL    HW152269   2.008   5.598   0.814 -0.3774  0.3226 -1.3794
16246SOL    HW252270   2.038   5.731   0.749 -2.4645  1.2096 -0.6405
16247SOL     OW52271   5.235   2.514   7.781  0.3842 -0.0448 -0.6701
16247SOL    HW152272   5.140   2.521   7.773  0.2263 -0.9456  0.1654
16247SOL    HW252273   5.263   2.473   7.699 -0.1747 -1.3971 -0.2190
16248SOL     OW52274   9.227   9.396   1.454 -0.5799  0.4133  0.1475
16248SOL    HW152275   9.320   9.405   1.433 -0.9418  0.6751 -1.4507
16248SOL    HW252276   9.213   9.301   1.459  0.0203  0.3743  1.7255
16249SOL     OW52277   9.476   9.197   0.589  0.5252  0.3631 -0.1111
16249SOL    HW152278   9.434   9.222   0.672 -0.2539 -0.3388 -0.2784
16249SOL    HW252279   9.409   9.214   0.523  0.9717  0.4579 -0.5461
16250SOL     OW52280   9.471   8.231   2.698 -1.0414  0.1237  0.1901
16250SOL    HW152281   9.405   8.300   2.690 -2.0101 -0.6885  0.8970
16250SOL    HW252282   9.536   8.267   2.758 -0.8192  0.9365 -0.5154
16251SOL     OW52283   9.582   7.329   7.376  0.2390 -0.5192  0.0686
16251SOL    HW152284   9.639   7.376   7.437  0.2013 -2.0578  1.3613
16251SOL    HW252285   9.640   7.307   7.302  0.8818 -0.6049  0.5871
16252SOL     OW52286   4.034   1.021   8.542 -0.4610  0.4750  0.1799
16252SOL    HW152287   4.122   1.051   8.519  0.1177 -0.4880  1.0424
16252SOL    HW252288   3.984   1.030   8.461  0.1556  1.9543 -0.0820
16253SOL     OW52289   8.782   6.215   8.124  0.3869 -0.8311  0.3292
16253SOL    HW152290   8.800   6.200   8.031  0.0980 -2.1921  0.4602
16253SOL    HW252291   8.811   6.304   8.140 -0.9003 -0.0339 -1.4068
16254SOL     OW52292   4.575   6.708   0.805 -0.0982 -0.4091  0.4492
16254SOL    HW152293   4.548   6.782   0.860  1.4452 -0.2941  1.1053
16254SOL    HW252294   4.663   6.687   0.835  0.6935 -0.5333 -1.8111
16255SOL     OW52295  10.811   4.332   0.046 -0.6304 -0.1058 -0.6602
16255SOL    HW152296  10.886   4.286   0.085 -0.7068 -1.1638 -1.7054
16255SOL    HW252297  10.755   4.353   0.121 -0.5949 -1.7444 -0.1343
16256SOL     OW52298   8.083   6.017   5.308 -0.7064 -0.2173  0.0247
16256SOL    HW152299   8.135   5.982   5.381 -0.6450 -0.9027 -0.3426
16256SOL    HW252300   8.115   6.107   5.297 -2.5619  0.8809  2.6036
16257SOL     OW52301   5.179   3.505  10.843 -0.3265 -0.0114  0.2218
16257SOL    HW152302   5.180   3.445  10.769 -1.4264  1.5694 -1.1493
16257SOL    HW252303   5.269   3.536  10.850 -0.2474 -0.0518 -0.5660
16258SOL     OW52304   2.514   3.045   0.848  0.2646 -0.2390 -0.3967
16258SOL    HW152305   2.523   2.956   0.883 -0.1362  0.1538  0.7828
16258SOL    HW252306   2.603   3.077   0.841  0.3514 -0.1230  0.9152
16259SOL     OW52307   7.254   7.255   5.524 -0.4401 -0.3476  0.3819
16259SOL    HW152308   7.310   7.182   5.550 -0.8018 -0.5400  0.6148
16259SOL    HW252309   7.195   7.219   5.458  0.3238  0.0825 -0.5646
16260SOL     OW52310   6.820   7.193  10.718 -0.1617 -0.0244  0.0448
16260SOL    HW152311   6.872   7.273  10.707 -1.1177  0.4119 -1.4832
16260SOL    HW252312   6.752   7.217  10.781 -0.2970  0.2766 -0.2191
16261SOL     OW52313   6.065   1.476   4.893  0.3173  0.3823 -0.1196
16261SOL    HW152314   6.080   1.388   4.929  1.6260  0.2364 -0.9659
16261SOL    HW252315   5.971   1.490   4.904 -0.0606 -1.4409 -0.6530
16262SOL     OW52316  10.451   5.660   4.514 -0.0209  0.9557 -0.4491
16262SOL    HW152317  10.446   5.599   4.587  0.0074 -1.3467 -2.2511
16262SOL    HW252318  10.518   5.623   4.457  1.5717  3.8863 -0.6578
16263SOL     OW52319   8.706  11.105   6.628  0.4849  0.4952 -0.3348
16263SOL    HW152320   8.788  11.150   6.608 -0.4961  2.5206  0.0271
16263SOL    HW252321   8.676  11.071   6.544  0.7304  1.4022 -0.7987
16264SOL     OW52322   0.794   3.458   0.190 -0.8627 -0.3751 -0.1686
16264SOL    HW152323   0.718   3.405   0.216 -0.6072  0.2198  2.0064
16264SOL    HW252324   0.789   3.461   0.095 -3.4349 -0.5581 -0.1154
16265SOL     OW52325   0.825   5.282   9.351  0.2212  0.3913 -0.3053
16265SOL    HW152326   0.844   5.375   9.352  1.5558  0.1679  1.5174
16265SOL    HW252327   0.911   5.240   9.358 -0.4569 -0.8959  0.9840
16266SOL     OW52328   6.877   7.637   9.569 -0.4736 -0.2772  0.5532
16266SOL    HW152329   6.815   7.681   9.511  2.6529  0.8870 -2.2215
16266SOL    HW252330   6.879   7.547   9.537  2.2008  0.6383 -2.3819
16267SOL     OW52331   3.542   9.715   6.475 -0.7198  0.4400  0.2002
16267SOL    HW152332   3.597   9.789   6.503  1.0864 -1.0232  0.7399
16267SOL    HW252333   3.585   9.638   6.513 -2.7164 -0.8733 -0.0955
16268SOL     OW52334   0.451   2.265   2.851  0.1025 -0.2358  0.1363
16268SOL    HW152335   0.422   2.264   2.760 -0.2585  0.6327  0.2354
16268SOL    HW252336   0.451   2.172   2.877  0.0221 -0.4740 -0.6812
16269SOL     OW52337   1.124   1.858   5.565  0.1589 -0.1193  0.1745
16269SOL    HW152338   1.193   1.826   5.506  1.7692  1.9806  0.8054
16269SOL    HW252339   1.138   1.952   5.569 -2.8795  0.4182  0.2775
16270SOL     OW52340   2.326   0.108   0.544  0.2435  0.9186 -0.8422
16270SOL    HW152341   2.352   0.082   0.633  0.5908  2.2610 -0.5315
16270SOL    HW252342   2.234   0.132   0.552 -0.2081 -0.5992 -1.2275
16271SOL     OW52343   1.897   5.332   4.500 -0.3512  0.4759 -0.1380
16271SOL    HW152344   1.874   5.255   4.552 -0.2560 -0.7281 -1.7942
16271SOL    HW252345   1.974   5.369   4.545  0.0851 -0.8604  0.2616
16272SOL     OW52346   3.009   1.728   9.056  0.0889 -0.7551  0.3122
16272SOL    HW152347   2.993   1.801   8.996 -1.3614 -1.5858 -0.3702
16272SOL    HW252348   3.095   1.695   9.031  0.5879  0.4629  0.3639
16273SOL     OW52349  10.652   2.377   5.360  0.1201  0.0470  0.1080
16273SOL    HW152350  10.599   2.377   5.280  1.2237 -0.7582 -0.6446
16273SOL    HW252351  10.593   2.344   5.428 -0.2550 -1.1881 -0.7855
16274SOL     OW52352   4.611   5.125   6.618  0.1994  0.4701 -0.1068
16274SOL    HW152353   4.606   5.202   6.561 -1.8773  0.8638  0.5246
16274SOL    HW252354   4.563   5.057   6.570  0.2227  0.1942  0.2583
16275SOL     OW52355  10.741   5.729   8.965  0.1617 -0.1524 -0.5301
16275SOL    HW152356  10.693   5.790   8.909  0.2617  1.1445  0.7476
16275SOL    HW252357  10.833   5.742   8.942  0.3895  1.8388  1.2359
16276SOL     OW52358   1.711   1.617   5.348 -0.8242  0.1060  0.9221
16276SOL    HW152359   1.781   1.553   5.337  1.1722  2.0381  1.5561
16276SOL    HW252360   1.631   1.570   5.324  0.7360 -2.0231 -0.4661
16277SOL     OW52361   4.284   1.394   3.649  0.4973  0.1941 -0.0452
16277SOL    HW152362   4.248   1.354   3.728  1.2958  0.2248  0.3357
16277SOL    HW252363   4.378   1.399   3.665  0.5676  0.9724 -0.6522
16278SOL     OW52364   1.779   0.040   5.671 -0.0323  0.3973 -0.6454
16278SOL    HW152365   1.868   0.073   5.684  0.3972  0.9039 -3.8833
16278SOL    HW252366   1.787  -0.055   5.673  0.3517  0.4447  0.2186
16279SOL     OW52367   5.331   7.491   8.885  0.2128 -0.4868  0.0394
16279SOL    HW152368   5.325   7.395   8.890  0.2363 -0.4436  2.0586
16279SOL    HW252369   5.243   7.521   8.907  0.2027 -0.0302 -0.6014
16280SOL     OW52370   1.969   7.662   6.141  0.6020  0.1391 -0.5145
16280SOL    HW152371   1.929   7.703   6.218  0.1955 -2.3298  0.6924
16280SOL    HW252372   1.896   7.616   6.098  1.4722 -1.6752 -0.1585
16281SOL     OW52373  10.163   5.916   8.116  0.2068  0.2249 -0.2552
16281SOL    HW152374  10.218   5.953   8.185 -2.4286  3.2783  0.4538
16281SOL    HW252375  10.171   5.979   8.044 -3.9971  2.2824  0.7667
16282SOL     OW52376   8.257   8.859   9.256 -0.6415  0.4372  0.1808
16282SOL    HW152377   8.349   8.855   9.229 -0.1192  0.9565  1.7752
16282SOL    HW252378   8.230   8.767   9.265 -0.0435  0.2865  0.4507
16283SOL     OW52379   0.627   1.849   4.238  0.0888  0.2351  0.2824
16283SOL    HW152380   0.709   1.878   4.198  0.2603  0.0720  0.5133
16283SOL    HW252381   0.560   1.872   4.174  0.4629 -0.9496 -0.5888
16284SOL     OW52382   3.207   2.170   7.776 -0.8410  0.4265 -0.0845
16284SOL    HW152383   3.289   2.152   7.822 -1.3506 -1.8494  0.0721
16284SOL    HW252384   3.234   2.210   7.694  0.4215 -0.0995  0.0421
16285SOL     OW52385   3.269   1.805   1.827 -0.0116 -0.3589  0.0399
16285SOL    HW152386   3.315   1.754   1.760 -0.1533 -0.0025 -0.3319
16285SOL    HW252387   3.179   1.810   1.795 -0.7501 -2.4851  1.5804
16286SOL     OW52388   7.622   6.911   8.706 -0.4780 -0.2833  0.3040
16286SOL    HW152389   7.579   6.989   8.742  0.2683  0.5408 -0.5281
16286SOL    HW252390   7.577   6.894   8.623 -1.5739 -1.6190  1.1258
16287SOL     OW52391   9.080   4.332   8.590 -0.3113  0.4499  0.0938
16287SOL    HW152392   9.029   4.355   8.513  0.2356 -0.3562 -0.5229
16287SOL    HW252393   9.159   4.386   8.584  0.0041 -0.0416 -0.2327
16288SOL     OW52394  10.959   6.901   6.042 -0.3595  0.0531  0.3870
16288SOL    HW152395  10.961   6.894   5.947 -1.4979 -0.0592  0.3614
16288SOL    HW252396  11.051   6.901   6.068 -0.0529 -0.5379 -0.6659
16289SOL     OW52397  10.185   8.043   7.731  0.0912 -0.1963  0.2847
16289SOL    HW152398  10.145   8.078   7.651  1.2735  2.3000  0.6744
16289SOL    HW252399  10.199   7.950   7.712 -1.7133 -0.1866 -1.5210
16290SOL     OW52400   1.705  10.948   3.124 -0.0986 -0.6246  0.3138
16290SOL    HW152401   1.640  11.018   3.120 -0.1373 -0.5800  1.4082
16290SOL    HW252402   1.772  10.980   3.185  0.8168 -0.7978 -0.5602
16291SOL     OW52403   2.874  10.836  10.974  0.6191  0.0835 -0.1591
16291SOL    HW152404   2.945  10.883  11.018 -1.0331  0.5276  2.2273
16291SOL    HW252405   2.885  10.745  11.001  1.6759 -0.3515 -1.8501
16292SOL     OW52406   3.907   4.023  10.651  0.0393  0.1791 -0.6321
16292SOL    HW152407   3.991   4.006  10.694  0.1833  0.2374 -0.8883
16292SOL    HW252408   3.881   4.110  10.683 -0.3912 -0.2385  0.1841
16293SOL     OW52409   3.313   0.918   8.051  0.3062 -0.2103 -0.0288
16293SOL    HW152410   3.218   0.932   8.053  0.3871  0.5735 -1.1037
16293SOL    HW252411   3.349   0.998   8.089  0.5724 -0.0268 -0.6643
16294SOL     OW52412   7.767   9.582   4.870  0.1233 -0.6126 -0.0742
16294SOL    HW152413   7.791   9.493   4.845  0.1628  0.1110 -3.0597
16294SOL    HW252414   7.850   9.625   4.891 -0.0159 -1.5588  2.7932
16295SOL     OW52415   4.182   3.879   6.213 -0.0642 -0.4459  0.0922
16295SOL    HW152416   4.123   3.954   6.203  0.4424  0.0570  0.7510
16295SOL    HW252417   4.134   3.806   6.175  0.2917  0.5888 -2.5277
16296SOL     OW52418   0.348   0.578   4.269 -0.3078 -0.9853  0.0221
16296SOL    HW152419   0.305   0.664   4.267 -1.0966 -1.3730 -0.1088
16296SOL    HW252420   0.358   0.558   4.361 -1.1195 -1.2285  0.0675
16297SOL     OW52421   3.894   9.599  10.831 -0.5691  0.2169 -0.0244
16297SOL    HW152422   3.873   9.506  10.838  1.3469 -0.2254  0.2247
16297SOL    HW252423   3.884   9.619  10.738 -2.6429  0.2233  0.1495
16298SOL     OW52424   0.083   0.508   1.966  0.2418  0.3721  0.2724
16298SOL    HW152425  -0.004   0.477   1.940  0.6288 -1.5322  1.0351
16298SOL    HW252426   0.096   0.589   1.917 -0.9845 -0.5523 -1.7409
16299SOL     OW52427   9.784   4.558   3.166  0.3349  0.3139 -0.0190
16299SOL    HW152428   9.711   4.605   3.126  0.3683  0.6017  0.2568
16299SOL    HW252429   9.756   4.541   3.256 -0.1385 -1.1737 -0.4103
16300SOL     OW52430   0.908   9.156  10.173 -0.4405  0.3930 -0.1162
16300SOL    HW152431   0.981   9.100  10.149 -1.7232 -1.3819 -0.1426
16300SOL    HW252432   0.944   9.244  10.176  2.0987 -0.5925  1.5930
16301SOL     OW52433   0.591   5.840   6.707 -0.2255 -0.2981  0.3936
16301SOL    HW152434   0.541   5.782   6.650  0.1486 -1.0396  0.8132
16301SOL    HW252435   0.548   5.834   6.792 -1.4539  1.6343 -0.0071
16302SOL     OW52436   5.756   8.722   0.918 -0.1597  0.2755  0.4228
16302SOL    HW152437   5.816   8.657   0.881 -0.7231  0.5797 -1.0535
16302SOL    HW252438   5.804   8.804   0.913 -1.2930  0.8825 -2.5317
16303SOL     OW52439   4.998  11.074   2.941 -0.4015 -0.0432 -0.1251
16303SOL    HW152440   5.089  11.050   2.962  0.3148  0.5736 -2.2804
16303SOL    HW252441   4.974  11.015   2.870 -1.9078 -0.5479  0.7694
16304SOL     OW52442  10.143   0.400   0.771  0.3861  0.2484  0.1401
16304SOL    HW152443  10.191   0.362   0.845 -2.1591  0.6677  2.1448
16304SOL    HW252444  10.051   0.381   0.790 -0.4026  0.4683 -2.9212
16305SOL     OW52445   8.209   4.283   0.349  0.3504  0.8012  0.3807
16305SOL    HW152446   8.304   4.269   0.348  0.3189  0.6043  0.1405
16305SOL    HW252447   8.189   4.317   0.261 -0.0412 -0.7641 -0.1639
16306SOL     OW52448   2.861   1.433   6.061 -0.2185 -0.3014  0.1295
16306SOL    HW152449   2.868   1.463   6.152  0.6405  0.8079 -0.2831
16306SOL    HW252450   2.902   1.347   6.062  1.8595  0.6270  0.3913
16307SOL     OW52451   5.204  10.587   9.440 -0.6290  0.9255 -0.6046
16307SOL    HW152452   5.198  10.587   9.536 -0.4437 -1.0079 -0.5496
16307SOL    HW252453   5.121  10.624   9.411 -0.9074  1.0382  0.3011
16308SOL     OW52454   1.903   8.068   9.320  0.5738 -0.1441 -0.1539
16308SOL    HW152455   1.855   8.046   9.399  2.0203 -0.7105  0.6065
16308SOL    HW252456   1.840   8.054   9.249 -1.6701  3.0435  0.9656
16309SOL     OW52457   9.031   0.439  10.203  0.4200 -0.1655  0.0731
16309SOL    HW152458   8.982   0.371  10.157  1.2559 -0.6184 -0.1701
16309SOL    HW252459   9.013   0.519  10.153 -0.0883 -0.3186  0.0055
16310SOL     OW52460   5.991   0.889   3.833 -0.8227  0.3749 -0.2080
16310SOL    HW152461   5.946   0.885   3.917  0.4252  2.1883  0.6051
16310SOL    HW252462   5.923   0.870   3.768 -1.9216 -0.5325  1.1435
16311SOL     OW52463  10.489   3.892   8.487  0.3990  0.1772  0.0447
16311SOL    HW152464  10.412   3.937   8.454  0.1265  0.1926  0.6861
16311SOL    HW252465  10.487   3.806   8.444  0.8838  0.7423 -1.1256
16312SOL     OW52466   1.854   4.396   4.435 -1.0203  0.4322  0.4420
16312SOL    HW152467   1.797   4.323   4.460 -0.1867 -0.7528 -0.9697
16312SOL    HW252468   1.898   4.366   4.355 -1.0603  2.6985 -0.5073
16313SOL     OW52469   4.293  10.437   5.100 -0.0094 -0.3673  0.1397
16313SOL    HW152470   4.205  10.412   5.129 -0.8753 -0.8195 -2.5922
16313SOL    HW252471   4.310  10.379   5.025  1.5061  1.4936 -1.0300
16314SOL     OW52472   3.947   7.804   7.166  0.0450 -0.3563 -0.0732
16314SOL    HW152473   3.995   7.879   7.203  1.9880 -0.2815 -2.4526
16314SOL    HW252474   3.968   7.731   7.223  1.9333  0.0020 -0.2419
16315SOL     OW52475   0.894   9.359  10.424  0.2431 -0.2520  0.2454
16315SOL    HW152476   0.820   9.298  10.433  0.2803 -0.8019 -2.4458
16315SOL    HW252477   0.969   9.303  10.402  0.8892  0.5365  0.3765
16316SOL     OW52478   0.692   0.761  10.462  0.0047 -0.3330 -0.6659
16316SOL    HW152479   0.782   0.794  10.466  0.0327 -0.4931  0.7708
16316SOL    HW252480   0.650   0.797  10.540 -0.1129 -3.1742  0.7024
16317SOL     OW52481   0.872   6.245  10.159 -1.0664  0.0711 -0.3140
16317SOL    HW152482   0.843   6.316  10.216 -1.5573 -0.5284  0.2041
16317SOL    HW252483   0.966   6.237  10.175 -0.8764  1.0645 -0.9014
16318SOL     OW52484   4.333   8.619   7.588 -0.0184 -0.5309  0.1812
16318SOL    HW152485   4.411   8.564   7.580 -0.1060 -0.5083 -0.9599
16318SOL    HW252486   4.272   8.584   7.523  0.0101  1.0334 -0.7442
16319SOL     OW52487   7.628   0.163   9.239 -0.3053  0.2686 -0.0152
16319SOL    HW152488   7.689   0.091   9.250 -0.6568 -0.0941 -0.4090
16319SOL    HW252489   7.678   0.230   9.192  0.4068  0.7972  1.4403
16320SOL     OW52490   0.187   2.466   6.564 -0.5878 -0.0601  0.0815
16320SOL    HW152491   0.104   2.419   6.572 -1.4231  0.8998 -2.2968
16320SOL    HW252492   0.249   2.399   6.534  0.1052 -1.2494  3.6782
16321SOL     OW52493   2.634   2.596   8.671  0.2878  0.1445 -0.1226
16321SOL    HW152494   2.643   2.688   8.648 -2.1531  0.5687  0.3422
16321SOL    HW252495   2.720   2.571   8.705  0.9738  2.2642 -0.1624
16322SOL     OW52496   2.933   3.909   0.159  0.0741 -0.0389 -0.0288
16322SOL    HW152497   2.998   3.841   0.174  1.2055  0.8887 -0.5873
16322SOL    HW252498   2.932   3.961   0.239  0.6190  0.4234 -0.3157
16323SOL     OW52499   2.069   8.186   3.742 -0.1405 -0.0388 -0.6010
16323SOL    HW152500   2.047   8.176   3.834 -0.6422 -0.4209 -0.7627
16323SOL    HW252501   2.133   8.258   3.741  1.2383 -1.1970  0.2251
16324SOL     OW52502   7.901   7.142   3.512  0.0958  1.0677  0.7854
16324SOL    HW152503   7.958   7.106   3.580 -1.2796  0.2946  1.5793
16324SOL    HW252504   7.840   7.198   3.559 -0.4220  1.0996  0.0916
16325SOL     OW52505   9.992   6.540   0.235  0.0485 -0.1781 -0.1957
16325SOL    HW152506   9.902   6.539   0.200 -0.7604  0.4583  1.7199
16325SOL    HW252507  10.002   6.627   0.273  0.8954 -0.7590  0.9990
16326SOL     OW52508   3.368   5.487   7.984  0.3268  0.0798  0.3461
16326SOL    HW152509   3.363   5.575   8.023  0.2381  0.8149 -1.2636
16326SOL    HW252510   3.322   5.495   7.900 -0.6259 -1.7981  0.6363
16327SOL     OW52511   5.391   4.398   8.705 -0.3788 -0.3321  0.1539
16327SOL    HW152512   5.371   4.491   8.718  0.2632 -0.2150  0.3157
16327SOL    HW252513   5.307   4.359   8.680 -0.3042  0.6469 -1.8692
16328SOL     OW52514   4.956   0.055   0.377  0.0172  0.2358  0.1686
16328SOL    HW152515   4.980  -0.028   0.420  1.1721  1.0467  1.1289
16328SOL    HW252516   5.037   0.105   0.374 -0.6184  1.2442 -0.6562
16329SOL     OW52517   4.881   7.910   0.270  0.4471  0.0962  0.2218
16329SOL    HW152518   4.858   7.940   0.182  0.1998 -1.9021 -0.4571
16329SOL    HW252519   4.799   7.913   0.319  0.2914 -0.0756 -0.0248
16330SOL     OW52520   5.881   6.749   8.355  0.2391 -0.7649  0.3050
16330SOL    HW152521   5.867   6.840   8.384  0.1780 -1.3521  2.3231
16330SOL    HW252522   5.794   6.710   8.358 -0.0080 -0.5221 -2.1409
16331SOL     OW52523   7.845   3.275   5.480  0.5010  0.5191  0.2872
16331SOL    HW152524   7.804   3.336   5.542  0.1183  1.4000 -0.7933
16331SOL    HW252525   7.853   3.326   5.399  0.2653 -0.8456 -0.6195
16332SOL     OW52526   5.762   1.321   8.774  0.6649  0.6755  0.2752
16332SOL    HW152527   5.692   1.348   8.833  0.2448  0.2675 -0.0303
16332SOL    HW252528   5.800   1.243   8.815 -0.0059  0.0485 -0.2689
16333SOL     OW52529  10.738   0.567   9.758 -0.3506 -0.1124  0.2699
16333SOL    HW152530  10.644   0.553   9.749 -0.2142 -2.2517  1.5302
16333SOL    HW252531  10.778   0.498   9.705  0.4720 -0.5209  1.3698
16334SOL     OW52532  10.375  11.116   8.278 -0.1396  0.6736 -0.1643
16334SOL    HW152533  10.328  11.096   8.358  0.3677  0.3862  0.0642
16334SOL    HW252534  10.336  11.198   8.247  0.8907  1.7910  1.3678
16335SOL     OW52535   1.672   6.077   6.389  0.3847 -0.3897 -0.1865
16335SOL    HW152536   1.702   6.018   6.320 -0.2289  0.1645 -0.9465
16335SOL    HW252537   1.738   6.146   6.391 -0.0204  0.0244 -0.7978
16336SOL     OW52538   5.701   9.804   8.957  0.2489  0.3553 -0.1458
16336SOL    HW152539   5.708   9.709   8.944 -0.1966  0.3488 -0.3368
16336SOL    HW252540   5.615   9.818   8.995  1.1802  0.4713  2.1011
16337SOL     OW52541   3.548   4.410   7.622  0.0395 -0.2726 -0.0060
16337SOL    HW152542   3.640   4.391   7.606  0.3263  1.2392 -0.3060
16337SOL    HW252543   3.520   4.342   7.684  0.7757 -2.0062 -1.4875
16338SOL     OW52544   1.564   9.440   7.118  0.1423  0.3978  0.4382
16338SOL    HW152545   1.535   9.353   7.091 -2.0735  1.8452 -2.3969
16338SOL    HW252546   1.496   9.470   7.179 -0.0845  0.7917  0.0012
16339SOL     OW52547   9.291  10.738  11.041  0.4455 -0.2124 -0.0410
16339SOL    HW152548   9.347  10.697  11.107  0.8528 -1.7036 -1.2584
16339SOL    HW252549   9.338  10.726  10.959  0.2120  2.0860 -0.5871
16340SOL     OW52550   4.637  10.586   0.974 -0.4450 -0.4657 -0.5269
16340SOL    HW152551   4.705  10.531   1.013 -0.6718 -1.0600 -0.9622
16340SOL    HW252552   4.641  10.667   1.025 -0.8894 -1.3004  0.9099
16341SOL     OW52553   8.615   6.269   7.693 -0.2857 -0.4907 -0.0521
16341SOL    HW152554   8.684   6.310   7.746  0.3034  0.7920 -1.7296
16341SOL    HW252555   8.655   6.189   7.658  0.4429  0.3245 -1.1408
16342SOL     OW52556  11.128   6.880   4.744 -0.0963  0.6868  0.5819
16342SOL    HW152557  11.160   6.808   4.690 -0.2227  0.2902  1.0270
16342SOL    HW252558  11.106   6.839   4.827  0.2003  1.3056  0.9737
16343SOL     OW52559   5.198  10.566   9.977  0.8262 -0.0625  0.2287
16343SOL    HW152560   5.246  10.621  10.038  0.9126  0.4156 -0.2627
16343SOL    HW252561   5.260  10.496   9.954  1.1597  0.3440 -0.1155
16344SOL     OW52562  10.389   0.463  10.740 -0.3030 -0.5056 -0.0108
16344SOL    HW152563  10.415   0.443  10.650 -0.0122 -1.2297  0.2169
16344SOL    HW252564  10.456   0.523  10.772 -1.4797  1.3464 -0.8809
16345SOL     OW52565  10.281   0.716   0.795  0.0544 -0.5089  0.3271
16345SOL    HW152566  10.337   0.693   0.721 -0.5385 -0.3031 -0.1924
16345SOL    HW252567  10.342   0.744   0.863  0.5267  1.9395 -0.9829
16346SOL     OW52568   7.629   0.331   2.833 -0.3527  0.0627 -0.3281
16346SOL    HW152569   7.537   0.316   2.810 -0.1002 -0.9677 -0.7400
16346SOL    HW252570   7.626   0.386   2.910 -1.3480 -0.5939  0.1230
16347SOL     OW52571   9.088   4.485   1.226  0.5143  0.3888  0.0845
16347SOL    HW152572   9.168   4.536   1.236  0.1653  0.8499  0.5755
16347SOL    HW252573   9.017   4.545   1.249 -0.0743  0.3385 -1.4454
16348SOL     OW52574   7.677   1.301   4.321 -0.9553  0.3411  0.2574
16348SOL    HW152575   7.743   1.239   4.353  0.3962  0.8117 -1.4607
16348SOL    HW252576   7.597   1.278   4.369 -0.0367 -1.5141  1.0030
16349SOL     OW52577   3.122   5.906   5.070 -0.0855  0.0323  0.0510
16349SOL    HW152578   3.037   5.885   5.032  0.3071  1.2438 -1.5924
16349SOL    HW252579   3.169   5.823   5.070 -1.1749 -0.6167  0.8033
16350SOL     OW52580   3.793   0.444   2.739  0.8492 -0.0423 -0.1660
16350SOL    HW152581   3.746   0.511   2.788  0.4413 -1.0822  0.8978
16350SOL    HW252582   3.757   0.451   2.650 -1.6851 -1.0566  0.6833
16351SOL     OW52583   3.530   1.585   2.249  0.7959  0.0112 -0.2194
16351SOL    HW152584   3.511   1.512   2.308  3.0164  0.7226  1.5190
16351SOL    HW252585   3.449   1.598   2.199 -1.0435 -0.9626  2.3272
16352SOL     OW52586   8.936   8.299   3.770  0.4045  0.4510  0.3247
16352SOL    HW152587   9.014   8.300   3.827 -0.7757 -0.8524  2.0744
16352SOL    HW252588   8.931   8.208   3.739 -0.5912  0.4320  0.5105
16353SOL     OW52589   6.995   3.339   9.209  0.2180 -0.1958 -0.2323
16353SOL    HW152590   7.081   3.317   9.247 -0.2662 -1.1456  0.3383
16353SOL    HW252591   6.934   3.332   9.283 -0.5412 -0.7971 -0.9057
16354SOL     OW52592  10.726   9.560  10.436 -0.3537  0.0515  0.0608
16354SOL    HW152593  10.662   9.489  10.439  0.3428 -0.6086 -0.2860
16354SOL    HW252594  10.678   9.637  10.466 -1.0823 -0.5938  0.5939
16355SOL     OW52595   6.251   7.863   2.741 -0.1865  0.7283  0.8293
16355SOL    HW152596   6.252   7.924   2.668 -0.7662 -0.6497 -0.3927
16355SOL    HW252597   6.182   7.895   2.799 -1.1888  0.6795 -0.3006
16356SOL     OW52598   5.450   2.470   1.544 -0.6769  0.2877  0.3118
16356SOL    HW152599   5.514   2.511   1.603 -0.2141 -1.1506  0.8344
16356SOL    HW252600   5.502   2.416   1.485 -1.1390  1.6464 -1.4375
16357SOL     OW52601   6.431   5.232   7.968 -0.1101 -0.3752  0.3771
16357SOL    HW152602   6.429   5.310   8.024 -1.4026  0.2988 -0.5451
16357SOL    HW252603   6.487   5.257   7.895 -0.4347 -0.3291  0.1381
16358SOL     OW52604   8.789   6.344   6.239 -0.5769 -0.2028 -0.5751
16358SOL    HW152605   8.770   6.357   6.332 -0.7755 -1.8655 -0.3396
16358SOL    HW252606   8.883   6.325   6.237 -0.4820  0.2930 -0.7706
16359SOL     OW52607   6.056   3.458   7.502  0.1796  0.1656  0.5539
16359SOL    HW152608   6.098   3.410   7.574  1.4935  0.4605  0.0306
16359SOL    HW252609   5.979   3.406   7.480  0.7276 -0.8765  1.0174
16360SOL     OW52610   1.554   3.050   3.749 -0.1346 -0.1836 -0.2233
16360SOL    HW152611   1.637   3.098   3.752  0.5633 -1.2364 -1.5308
16360SOL    HW252612   1.567   2.977   3.809 -0.8089  0.6558  0.9656
16361SOL     OW52613   6.903   0.879   3.590 -0.1523  0.4601  0.0767
16361SOL    HW152614   6.874   0.811   3.651  0.4045  1.9305  2.0698
16361SOL    HW252615   6.972   0.926   3.637 -0.1782  2.1125 -1.4256
16362SOL     OW52616   9.089  10.591   8.350 -0.3010  0.1951 -0.1375
16362SOL    HW152617   9.150  10.556   8.415 -2.8668 -1.3084  1.6321
16362SOL    HW252618   9.124  10.563   8.266  1.2463 -0.8828  0.8158
16363SOL     OW52619   4.886   6.581   7.725  0.5020 -0.5515 -0.1517
16363SOL    HW152620   4.928   6.631   7.794  0.2250 -0.9097  0.2826
16363SOL    HW252621   4.904   6.489   7.747 -0.6459 -0.7259  0.1599
16364SOL     OW52622   5.395  11.059   5.254 -0.1925 -0.3078 -0.5431
16364SOL    HW152623   5.318  11.005   5.235  0.3616 -1.2984 -0.0659
16364SOL    HW252624   5.359  11.143   5.282 -1.1971 -1.4546  1.9106
16365SOL     OW52625   0.617   4.019   9.337  0.4457  0.4807  0.1478
16365SOL    HW152626   0.607   3.935   9.293  0.0665 -0.1106  1.3090
16365SOL    HW252627   0.594   4.084   9.271 -1.4705 -0.4335 -0.1481
16366SOL     OW52628   4.318   9.406   0.991  0.7175  0.0765 -0.1450
16366SOL    HW152629   4.386   9.420   1.056 -0.7795  1.2938  1.2372
16366SOL    HW252630   4.348   9.452   0.913  1.9341 -0.3098  0.0842
16367SOL     OW52631   7.589   5.212   1.848 -0.2589 -0.2427 -0.4118
16367SOL    HW152632   7.670   5.262   1.857  0.7369 -2.2006  3.0596
16367SOL    HW252633   7.601   5.162   1.767  1.5576  0.2645 -0.5009
16368SOL     OW52634   0.196   6.673   6.740  0.0536 -0.0427 -0.4065
16368SOL    HW152635   0.233   6.601   6.792  0.7754  0.2444 -0.5155
16368SOL    HW252636   0.133   6.630   6.683 -0.3242 -0.4438  0.2935
16369SOL     OW52637   5.409   3.771  10.147  0.3706 -0.2394 -0.3417
16369SOL    HW152638   5.485   3.830  10.143  0.7430 -0.6830  0.1126
16369SOL    HW252639   5.441   3.694  10.193 -0.0974 -0.8286 -0.9906
16370SOL     OW52640   9.286   1.631   9.036  0.0039  0.1930 -0.2884
16370SOL    HW152641   9.316   1.718   9.007  1.1211 -0.8468 -2.4580
16370SOL    HW252642   9.332   1.570   8.980 -0.5512 -1.8633  1.3886
16371SOL     OW52643   2.157   9.231   0.458 -0.5600 -0.1968  0.8045
16371SOL    HW152644   2.120   9.293   0.395 -1.2948  0.6249  1.9928
16371SOL    HW252645   2.252   9.243   0.450 -0.4344 -2.1863 -2.1378
16372SOL     OW52646   2.559   0.001   0.434 -0.0907  0.2937  0.5666
16372SOL    HW152647   2.515   0.051   0.503  0.6792 -0.3974  1.6005
16372SOL    HW252648   2.580  -0.083   0.476  0.0387 -0.2967 -0.6430
16373SOL     OW52649   5.709   3.100   8.971  0.0445 -0.1818 -0.0455
16373SOL    HW152650   5.615   3.081   8.980  0.3851 -1.2722  1.6665
16373SOL    HW252651   5.746   3.022   8.930  0.3199 -0.0446 -0.0624
16374SOL     OW52652   3.043   3.031   4.840  0.1620 -0.0449  0.2692
16374SOL    HW152653   3.104   2.971   4.798  0.9401  0.5468  0.5175
16374SOL    HW252654   2.960   3.015   4.797  0.8198  0.1704 -1.1401
16375SOL     OW52655   3.582  10.539   9.539  0.2970  0.3610  0.5131
16375SOL    HW152656   3.492  10.532   9.571  0.1309  2.4212  0.6646
16375SOL    HW252657   3.584  10.623   9.493  1.9308 -0.0555 -0.2592
16376SOL     OW52658   1.539   3.495   3.005 -0.0660  0.1142 -0.3348
16376SOL    HW152659   1.484   3.457   3.074  0.4749  0.0850  0.0887
16376SOL    HW252660   1.521   3.442   2.928  1.6192 -1.8913  0.5402
16377SOL     OW52661   2.746   1.484   2.267  0.3600  0.2714  0.2314
16377SOL    HW152662   2.718   1.502   2.356 -1.0150  3.6600 -0.7420
16377SOL    HW252663   2.673   1.434   2.229  0.7063 -0.6937  0.7906
16378SOL     OW52664   3.980   2.794   3.699  0.7628  0.1531 -0.4285
16378SOL    HW152665   4.051   2.783   3.763  0.1967 -0.6903  0.0789
16378SOL    HW252666   3.934   2.711   3.701  1.3687 -0.2909 -2.7569
16379SOL     OW52667   3.062   3.553   5.360  0.1357 -0.1588  0.2018
16379SOL    HW152668   3.097   3.503   5.286 -0.9198 -2.1932  1.0107
16379SOL    HW252669   3.034   3.636   5.321  1.2380 -0.4754 -1.3405
16380SOL     OW52670   4.543   3.942   6.326 -0.3098  0.5378 -0.0195
16380SOL    HW152671   4.486   3.942   6.250  0.5873  0.2171 -0.7165
16380SOL    HW252672   4.573   4.033   6.334  0.7674  0.2925 -0.9828
16381SOL     OW52673   1.434   7.980   5.854 -0.2755  0.4490  0.5877
16381SOL    HW152674   1.416   7.899   5.807  0.2998  0.7804 -0.2083
16381SOL    HW252675   1.516   7.964   5.900  0.6395  1.0881 -0.7826
16382SOL     OW52676   9.609   3.645   5.595 -0.4708  0.3319  0.2560
16382SOL    HW152677   9.564   3.730   5.593 -1.7661 -0.1006  3.5869
16382SOL    HW252678   9.695   3.664   5.632 -0.4107  0.3292  0.1165
16383SOL     OW52679   1.774   5.745   8.439  0.0686  0.1002 -0.4862
16383SOL    HW152680   1.697   5.694   8.414  1.4624 -1.5135 -1.7377
16383SOL    HW252681   1.821   5.759   8.357  0.7230  1.7357  0.1371
16384SOL     OW52682   8.056   5.582   8.586 -0.1084 -0.1005  0.2410
16384SOL    HW152683   7.966   5.578   8.554  0.5103  1.9832 -2.0297
16384SOL    HW252684   8.092   5.496   8.566 -1.0468 -0.3282 -0.5676
16385SOL     OW52685   1.523   9.490   0.505 -0.0527  0.9562 -0.1650
16385SOL    HW152686   1.570   9.422   0.457  1.0008  0.0787  1.9782
16385SOL    HW252687   1.587   9.525   0.567 -1.5883  1.3362  1.2727
16386SOL     OW52688   6.458   1.727   7.565  0.0885 -0.2976 -0.9418
16386SOL    HW152689   6.389   1.667   7.536 -0.6321 -0.3049  0.6780
16386SOL    HW252690   6.414   1.810   7.580  0.4342 -0.2601 -0.0355
16387SOL     OW52691   3.909   5.851   5.180  0.5552  0.1759 -0.3407
16387SOL    HW152692   3.871   5.937   5.196 -1.7135 -0.3842 -2.2211
16387SOL    HW252693   3.951   5.858   5.094  0.7590 -0.4678 -0.3044
16388SOL     OW52694   3.916   1.700  10.464 -0.4574 -0.1431  0.4241
16388SOL    HW152695   3.850   1.634  10.444  0.3002 -0.5280 -0.8998
16388SOL    HW252696   3.975   1.699  10.389  1.7622 -0.6480  2.0787
16389SOL     OW52697   8.190   8.168   3.275  0.3473 -0.0821  0.6489
16389SOL    HW152698   8.184   8.224   3.352 -0.3293 -1.2000  1.4416
16389SOL    HW252699   8.103   8.129   3.267  0.1196  0.7084 -1.2401
16390SOL     OW52700   3.313   7.090  10.203 -0.0916  0.3493  0.3345
16390SOL    HW152701   3.400   7.104  10.166 -0.6094  2.9442 -0.0746
16390SOL    HW252702   3.266   7.039  10.136 -0.1001  2.4570 -1.3839
16391SOL     OW52703   9.571   3.891   3.157 -0.1334  0.0435  0.8284
16391SOL    HW152704   9.600   3.846   3.078 -0.7808 -0.5719  0.9298
16391SOL    HW252705   9.651   3.903   3.208  0.0694 -0.9253  0.7620
16392SOL     OW52706   2.176   7.526   4.045 -0.3871 -0.2787  0.3815
16392SOL    HW152707   2.250   7.470   4.022  0.3377  0.7677  0.0449
16392SOL    HW252708   2.159   7.506   4.137  0.1434 -0.7267  0.3874
16393SOL     OW52709   4.672   7.750   8.154 -0.4362  0.7324 -0.0232
16393SOL    HW152710   4.634   7.744   8.242 -1.8381 -0.5165 -0.6779
16393SOL    HW252711   4.759   7.711   8.163 -0.5718  0.6055  0.8093
16394SOL     OW52712   4.950   2.617   6.981  0.1204  0.1911 -0.2420
16394SOL    HW152713   5.031   2.569   6.963  0.0566 -0.0421  0.0857
16394SOL    HW252714   4.959   2.699   6.932  0.9667  0.5884  0.5462
16395SOL     OW52715   8.108   6.409   0.277 -0.4397 -0.5770  0.1698
16395SOL    HW152716   8.140   6.442   0.193 -0.1557 -0.5493  0.2873
16395SOL    HW252717   8.061   6.483   0.316  1.2121  0.1200  0.9767
16396SOL     OW52718   5.348   5.504   2.384  0.0931 -0.6097 -0.4593
16396SOL    HW152719   5.259   5.523   2.353 -0.2516 -0.2917  0.6726
16396SOL    HW252720   5.340   5.419   2.428  0.0694  0.0013  0.7313
16397SOL     OW52721   9.732   0.809   3.898  0.3456 -0.8436 -0.1728
16397SOL    HW152722   9.815   0.845   3.927  0.0301 -0.6891  0.5556
16397SOL    HW252723   9.671   0.827   3.969  0.0759 -2.4210  0.0439
16398SOL     OW52724   0.892   1.994   1.380  0.1665  0.4455  0.4342
16398SOL    HW152725   0.945   1.973   1.457  0.3148  2.4034  0.9157
16398SOL    HW252726   0.939   2.067   1.338 -1.6788  1.7034  0.4361
16399SOL     OW52727   6.086   5.723  10.429 -0.2998 -0.2218 -0.2964
16399SOL    HW152728   6.138   5.643  10.418  1.3877  0.9679 -1.4255
16399SOL    HW252729   6.034   5.707  10.508 -0.1548 -2.4953 -0.5879
16400SOL     OW52730   5.233  10.307   7.105  0.1219 -0.4185 -0.5560
16400SOL    HW152731   5.320  10.294   7.143 -0.2241  0.7514  0.7348
16400SOL    HW252732   5.177  10.245   7.152 -0.1225  0.3376  0.1743
16401SOL     OW52733   2.947   7.709   4.239 -0.0511  0.4358  0.0726
16401SOL    HW152734   3.040   7.728   4.233  0.0844 -0.1690  0.1679
16401SOL    HW252735   2.939   7.648   4.313 -0.6997  1.5605  0.9863
16402SOL     OW52736   0.364   9.479   3.464 -0.2636  0.7712 -0.7242
16402SOL    HW152737   0.307   9.404   3.445 -0.8315  1.2880 -1.0965
16402SOL    HW252738   0.452   9.447   3.445 -0.3268 -0.2947  0.6303
16403SOL     OW52739  10.144   5.934   7.788 -0.1670  0.0097  0.1277
16403SOL    HW152740  10.089   5.930   7.709  0.1984  0.2438 -0.1411
16403SOL    HW252741  10.083   5.957   7.858 -0.5755 -0.6030 -0.0058
16404SOL     OW52742   7.599   9.408   8.050  0.1245 -0.3003 -0.0666
16404SOL    HW152743   7.623   9.316   8.055 -0.7146 -0.4984  0.5064
16404SOL    HW252744   7.582   9.424   7.957  0.9861 -0.5321 -0.2648
16405SOL     OW52745   2.996   7.454   6.600 -0.4376  0.2779  0.3326
16405SOL    HW152746   3.088   7.480   6.596 -0.2871 -0.1594  0.8292
16405SOL    HW252747   2.948   7.529   6.565  0.1556  0.1763 -0.7305
16406SOL     OW52748   8.346   6.836   5.333 -0.9236  0.3558  1.0859
16406SOL    HW152749   8.423   6.779   5.334 -1.3965 -0.3370  0.0065
16406SOL    HW252750   8.323   6.847   5.425  0.0447  0.0042  1.3903
16407SOL     OW52751   4.050   9.583   7.109 -0.1579 -0.0296  0.1994
16407SOL    HW152752   4.005   9.512   7.063  1.7295 -0.3946 -1.2117
16407SOL    HW252753   4.023   9.663   7.064 -0.1077 -0.1523 -0.0495
16408SOL     OW52754   5.732   8.684   8.673  0.6007  0.3047 -0.5108
16408SOL    HW152755   5.691   8.712   8.755  0.1981 -2.2885  0.2530
16408SOL    HW252756   5.696   8.744   8.607 -1.4699  0.5413  0.7260
16409SOL     OW52757   7.586   2.815  10.994 -0.0874  0.7090  0.2572
16409SOL    HW152758   7.660   2.784  11.046 -0.2387 -0.0464  0.0334
16409SOL    HW252759   7.626   2.855  10.917  0.1014 -1.4375 -0.8459
16410SOL     OW52760   9.516   1.642   2.245  0.1646  0.3046  0.5293
16410SOL    HW152761   9.563   1.720   2.277 -0.1972  0.9186 -0.3976
16410SOL    HW252762   9.493   1.594   2.325  0.4832  1.0931  1.1150
16411SOL     OW52763   2.982   5.698   0.049  0.4635 -0.5168 -0.5355
16411SOL    HW152764   2.894   5.679   0.081  0.8609  0.0334  0.9700
16411SOL    HW252765   3.007   5.620   0.000 -0.8755 -0.6531 -1.0556
16412SOL     OW52766   5.631   9.755   5.216 -0.1122 -0.1177 -0.1932
16412SOL    HW152767   5.622   9.844   5.249  0.5334  0.1993 -0.8451
16412SOL    HW252768   5.675   9.707   5.287  0.2007  0.2672 -0.1248
16413SOL     OW52769   2.048   7.299   1.568  0.3728  0.5094  0.1315
16413SOL    HW152770   2.131   7.309   1.614 -0.3997  0.3522  1.6457
16413SOL    HW252771   1.981   7.317   1.635 -0.8773 -2.1382 -0.2527
16414SOL     OW52772   7.751   4.601   9.750 -0.7391 -0.1691  0.3673
16414SOL    HW152773   7.662   4.634   9.763 -1.8950 -2.1605 -1.6655
16414SOL    HW252774   7.806   4.679   9.751 -2.7889  1.3872 -0.4636
16415SOL     OW52775   9.369   2.952   1.301 -0.1994 -0.2237  0.4141
16415SOL    HW152776   9.461   2.971   1.285 -0.5966 -0.7093 -3.1067
16415SOL    HW252777   9.362   2.857   1.292 -1.0432 -0.1929  0.6572
16416SOL     OW52778   5.451   2.285   5.957  0.7621  0.4032  0.0143
16416SOL    HW152779   5.436   2.370   5.914  0.8230  1.3496  1.7620
16416SOL    HW252780   5.365   2.258   5.987  0.9239  0.4943  0.5746
16417SOL     OW52781   7.586   5.788  11.015 -0.0820 -0.1274 -0.4956
16417SOL    HW152782   7.615   5.721  10.953  2.0426  0.0680  0.2132
16417SOL    HW252783   7.606   5.871  10.972  1.1635  0.0089  0.2705
16418SOL     OW52784   5.242   9.131   5.784  0.7297  0.4312  0.1909
16418SOL    HW152785   5.318   9.176   5.820  0.5063  0.6954  0.3314
16418SOL    HW252786   5.277   9.079   5.711  1.3914 -0.9823  1.4458
16419SOL     OW52787   6.711  11.046   9.489 -0.4065 -0.2331  0.3691
16419SOL    HW152788   6.722  11.078   9.399 -0.5504 -0.9783  0.0757
16419SOL    HW252789   6.618  11.023   9.495 -1.5242  3.9904  2.1512
16420SOL     OW52790   3.012   2.297   4.523  0.7441  0.8120 -0.1493
16420SOL    HW152791   3.094   2.303   4.572  1.4250  1.1844 -1.2872
16420SOL    HW252792   3.034   2.243   4.447 -0.8478 -1.6407  1.0081
16421SOL     OW52793   1.563   4.029   1.013 -0.4727 -0.3550  0.2245
16421SOL    HW152794   1.643   4.036   1.065  0.2696 -2.4099 -0.5269
16421SOL    HW252795   1.593   4.008   0.924 -1.8183 -0.7701 -0.1659
16422SOL     OW52796   7.699   1.892   5.430 -0.2674  0.3565  0.5798
16422SOL    HW152797   7.781   1.940   5.423 -0.5005  0.9117  1.4397
16422SOL    HW252798   7.636   1.957   5.461 -0.5984 -0.4869  1.7726
16423SOL     OW52799   0.062   4.311   6.854  0.0008 -0.0788  0.7012
16423SOL    HW152800   0.077   4.399   6.888  1.3319  0.3189 -0.7990
16423SOL    HW252801   0.131   4.257   6.892 -0.4135 -0.3307  1.1007
16424SOL     OW52802   1.714   2.767   8.129 -0.4135 -0.6514  0.3053
16424SOL    HW152803   1.651   2.696   8.138 -2.7249  1.1777 -0.2948
16424SOL    HW252804   1.668   2.833   8.077  1.3711  1.5308  1.3145
16425SOL     OW52805   8.931   7.013   3.192  0.0411 -0.4272 -0.0638
16425SOL    HW152806   8.978   7.077   3.245  1.3054 -0.3706 -1.2072
16425SOL    HW252807   8.931   6.933   3.246 -1.2914  0.3961  1.2398
16426SOL     OW52808   3.634   0.587   2.908 -0.3111  0.2089  0.5104
16426SOL    HW152809   3.605   0.526   2.975 -1.5043  1.6341  1.3604
16426SOL    HW252810   3.710   0.631   2.946 -0.4835  0.4303  0.6048
16427SOL     OW52811   5.758   0.680   4.002  0.4718 -0.1644  0.1310
16427SOL    HW152812   5.665   0.702   3.995  0.1567 -0.3684  2.7739
16427SOL    HW252813   5.760   0.598   4.050  2.0188 -0.5796 -0.5858
16428SOL     OW52814   5.935   1.621   3.505  0.5506 -0.2646 -0.0238
16428SOL    HW152815   5.933   1.642   3.599 -0.6181 -0.1864 -0.0547
16428SOL    HW252816   5.979   1.697   3.465  0.1646  0.1634  0.3500
16429SOL     OW52817  10.617   5.672   3.706 -0.2210  0.5049  0.3241
16429SOL    HW152818  10.646   5.676   3.797 -0.8411  0.6357  0.5189
16429SOL    HW252819  10.698   5.670   3.655  0.1278  0.6536  0.8669
16430SOL     OW52820   4.219   2.622   3.643  0.3387  0.6216 -0.2968
16430SOL    HW152821   4.242   2.565   3.569  0.1766 -0.4923  0.4903
16430SOL    HW252822   4.174   2.696   3.602  0.3773  0.0981 -1.3332
16431SOL     OW52823   8.907   7.667   0.486  0.3393  0.4655 -0.3671
16431SOL    HW152824   8.820   7.657   0.525  0.8521 -1.6225  0.3506
16431SOL    HW252825   8.895   7.732   0.417 -2.0615 -0.5794 -1.0386
16432SOL     OW52826   6.642   3.031   5.631 -0.8729 -0.4547  0.4677
16432SOL    HW152827   6.717   2.989   5.672 -0.2144  0.0598 -0.2021
16432SOL    HW252828   6.568   2.973   5.653 -0.2767 -1.0258  1.0245
16433SOL     OW52829   3.449   0.575   6.272 -0.1653  0.3540 -0.6760
16433SOL    HW152830   3.543   0.597   6.269 -0.0155 -0.3682 -1.4485
16433SOL    HW252831   3.405   0.660   6.269  0.4489  0.9937  3.1197
16434SOL     OW52832   6.640   8.451   6.935  0.4418 -0.4945  0.2370
16434SOL    HW152833   6.551   8.483   6.924  0.6492  0.4194  1.0717
16434SOL    HW252834   6.695   8.526   6.912  0.9743 -0.7379  0.7103
16435SOL     OW52835   6.033   8.993   6.742  0.1265 -0.2897 -0.6618
16435SOL    HW152836   6.005   9.018   6.654 -0.9176  1.2884  0.0900
16435SOL    HW252837   6.112   9.044   6.757 -0.2112  0.1331 -0.3318
16436SOL     OW52838   7.676   7.913   0.705  1.1266  0.0684 -0.0440
16436SOL    HW152839   7.649   7.876   0.621  0.4820  0.7076 -0.1365
16436SOL    HW252840   7.707   8.001   0.683  1.6132 -0.0131  0.3035
16437SOL     OW52841   2.112   3.153   0.605 -0.3273  0.0497  0.3698
16437SOL    HW152842   2.030   3.167   0.652  0.7175 -1.0190  2.6207
16437SOL    HW252843   2.086   3.152   0.512 -2.9090 -0.6937  1.0185
16438SOL     OW52844   6.083   5.611   0.824 -0.1641 -0.3814  0.0481
16438SOL    HW152845   6.101   5.621   0.917 -0.7899 -1.4810  0.2950
16438SOL    HW252846   6.029   5.688   0.802  1.0620  0.5763  0.2753
16439SOL     OW52847   0.878   4.171   5.178 -0.2680 -0.0736 -0.2674
16439SOL    HW152848   0.906   4.128   5.098 -2.0850 -1.5094 -0.2112
16439SOL    HW252849   0.872   4.264   5.156  3.1461  0.1797 -0.5755
16440SOL     OW52850   2.363   8.773   6.897  0.0440 -0.2816 -0.3511
16440SOL    HW152851   2.452   8.737   6.892 -0.2213 -0.9660 -0.3059
16440SOL    HW252852   2.376   8.864   6.922  0.8948  0.5017 -3.2175
16441SOL     OW52853   5.123   4.449   1.355 -0.0791 -0.2522 -0.0731
16441SOL    HW152854   5.058   4.384   1.384 -0.6964 -0.3200 -1.5215
16441SOL    HW252855   5.093   4.475   1.268  1.0954  0.7464 -0.1973
16442SOL     OW52856   4.530  10.935  10.384  0.0869 -0.3362 -0.2236
16442SOL    HW152857   4.458  10.981  10.341  0.7868  1.0047 -0.0098
16442SOL    HW252858   4.494  10.906  10.468 -0.4506 -0.4529 -0.4904
16443SOL     OW52859  10.862   9.664   5.783  0.3432  0.2061  0.5087
16443SOL    HW152860  10.940   9.710   5.812  0.4553  0.1618  0.2848
16443SOL    HW252861  10.874   9.574   5.814  0.2503  0.2641  0.7141
16444SOL     OW52862   4.137   2.904   1.626  0.3705 -0.6826 -0.1537
16444SOL    HW152863   4.200   2.865   1.687 -0.0611 -0.3260  0.5436
16444SOL    HW252864   4.061   2.923   1.681  0.0658 -0.1184 -0.7617
16445SOL     OW52865   3.137   6.365   9.745 -0.1587 -0.2725  0.3781
16445SOL    HW152866   3.072   6.425   9.709 -0.6921 -0.5282  0.8997
16445SOL    HW252867   3.090   6.282   9.753  0.6780 -0.8736 -0.7048
16446SOL     OW52868   4.374   5.002   2.199  0.1213 -0.3858 -0.0949
16446SOL    HW152869   4.281   5.009   2.179  0.4171  0.3029 -1.3340
16446SOL    HW252870   4.391   4.907   2.203 -0.6317 -0.5125  0.2317
16447SOL     OW52871   8.139   5.125   3.486 -0.5407  0.2718 -0.3677
16447SOL    HW152872   8.118   5.154   3.398 -0.7324 -1.0018 -0.7667
16447SOL    HW252873   8.123   5.201   3.542  0.8167  1.4910 -1.5673
16448SOL     OW52874   7.351  10.377   0.913 -0.3903  0.3687 -0.3806
16448SOL    HW152875   7.358  10.282   0.924 -0.2361  0.5890  2.0503
16448SOL    HW252876   7.274  10.389   0.858 -0.1808 -1.1669 -1.0618
16449SOL     OW52877   0.226   8.982   7.366  0.5757  0.3630 -0.1744
16449SOL    HW152878   0.171   8.912   7.401 -0.1234 -0.0315 -1.9752
16449SOL    HW252879   0.216   9.054   7.429  0.8989 -0.9266  1.4381
16450SOL     OW52880   6.274   9.205  10.080 -0.7179  0.5057 -0.5579
16450SOL    HW152881   6.278   9.177  10.171  0.0220 -1.2953 -1.1019
16450SOL    HW252882   6.201   9.267  10.077 -1.2440  0.0147  1.0977
16451SOL     OW52883   2.058   2.349   4.227  0.7937  0.4353 -0.9803
16451SOL    HW152884   1.979   2.332   4.279  0.0212 -0.3930 -2.3616
16451SOL    HW252885   2.130   2.341   4.289 -0.0815 -0.7073 -0.0746
16452SOL     OW52886   7.798   0.315   7.732  0.0790 -0.1590 -0.3890
16452SOL    HW152887   7.848   0.303   7.812 -1.7579  1.4726  1.1316
16452SOL    HW252888   7.791   0.410   7.722  0.6175 -0.2861 -2.7940
16453SOL     OW52889   4.116  10.699   8.571  0.1161 -0.2082  0.8440
16453SOL    HW152890   4.151  10.662   8.491  0.9644 -0.7594  1.4556
16453SOL    HW252891   4.023  10.712   8.553  0.3104 -0.2359 -0.2501
16454SOL     OW52892   0.736   8.088   3.033  0.0878 -0.2031  0.1284
16454SOL    HW152893   0.644   8.110   3.049 -0.8391 -1.9306 -2.3051
16454SOL    HW252894   0.754   8.016   3.093 -0.3431 -0.2726  0.1771
16455SOL     OW52895   4.755   9.067   0.984 -0.5263  0.2799  0.3759
16455SOL    HW152896   4.749   9.013   0.905  0.3130 -2.8632  2.2888
16455SOL    HW252897   4.666   9.068   1.018 -0.5768  0.2210  0.2508
16456SOL     OW52898   6.055   9.361  10.070  0.2730  0.4192 -0.3475
16456SOL    HW152899   6.003   9.282  10.052  0.3983  0.1342  0.5251
16456SOL    HW252900   6.033   9.385  10.160  0.2535  1.3765 -0.5927
16457SOL     OW52901  10.589   9.343   2.031  0.1768  0.5195 -0.2661
16457SOL    HW152902  10.665   9.354   1.973  1.1590 -0.6427  0.7468
16457SOL    HW252903  10.615   9.275   2.093 -0.6583  2.0133  1.8515
16458SOL     OW52904   4.427   5.761   6.277 -0.2115  0.3851  0.2126
16458SOL    HW152905   4.388   5.824   6.337 -0.2792  1.1987 -0.6579
16458SOL    HW252906   4.418   5.676   6.321  0.3799  1.0435  1.6301
16459SOL     OW52907   7.156   6.836   2.171 -0.3909  0.4349  0.3862
16459SOL    HW152908   7.202   6.753   2.174 -2.0175 -0.5137  0.0861
16459SOL    HW252909   7.200   6.890   2.237  2.4412  0.3394 -1.2346
16460SOL     OW52910   5.779   9.947   6.136  0.4135 -0.5821 -0.5555
16460SOL    HW152911   5.757  10.036   6.108  0.3531 -0.6408 -0.6986
16460SOL    HW252912   5.828   9.958   6.217 -2.5980 -0.5317  1.4516
16461SOL     OW52913   0.489  10.505   8.951  0.2605  0.7144 -0.5783
16461SOL    HW152914   0.496  10.485   9.044  1.5157 -2.4218 -1.2222
16461SOL    HW252915   0.544  10.582   8.938  3.1423 -0.9592  0.7565
16462SOL     OW52916   1.586   2.410   5.412  0.4356  0.1601 -0.0894
16462SOL    HW152917   1.521   2.380   5.349 -0.3223 -0.3451  0.8946
16462SOL    HW252918   1.563   2.501   5.430 -0.2709 -0.1279  0.5458
16463SOL     OW52919   2.124   4.336   8.843 -0.0715 -0.0783  0.0566
16463SOL    HW152920   2.109   4.243   8.827 -0.1319 -0.0967  0.2103
16463SOL    HW252921   2.038   4.377   8.833 -0.6843 -0.4570  2.8081
16464SOL     OW52922   7.165   2.139   9.010 -0.5316 -0.4326 -0.4570
16464SOL    HW152923   7.163   2.054   8.965  0.1641 -0.3847 -0.5927
16464SOL    HW252924   7.074   2.159   9.028 -0.6556 -1.6898  0.4507
16465SOL     OW52925   0.779  10.247   9.559 -0.2957  0.6163  0.0057
16465SOL    HW152926   0.843  10.316   9.542 -1.0145  1.6487  1.3447
16465SOL    HW252927   0.825  10.185   9.614 -0.0078  0.6094 -0.2381
16466SOL     OW52928   5.047   1.540   4.636 -0.2487  0.3100 -0.4650
16466SOL    HW152929   4.982   1.545   4.566 -0.0456  0.7235 -0.6283
16466SOL    HW252930   5.002   1.496   4.708 -0.5508  0.1480 -0.7511
16467SOL     OW52931   3.403   3.402   4.009 -0.6814  0.2621  0.0286
16467SOL    HW152932   3.334   3.375   4.071  1.5833 -0.1517  2.5691
16467SOL    HW252933   3.430   3.320   3.967 -0.9887  0.2421 -0.1284
16468SOL     OW52934   8.355   1.231   9.581  0.0594 -0.0160  0.5912
16468SOL    HW152935   8.394   1.277   9.507  0.6370 -2.0365 -0.4559
16468SOL    HW252936   8.429   1.213   9.640  0.0880 -0.7050  0.3558
16469SOL     OW52937   1.530   5.537   2.986  0.1245 -1.1379  0.1244
16469SOL    HW152938   1.522   5.499   2.898 -0.4603 -0.3035 -0.2060
16469SOL    HW252939   1.621   5.566   2.991 -0.0493 -0.4283 -0.5477
16470SOL     OW52940   7.930   8.093   2.485 -0.4511  0.0609  0.9653
16470SOL    HW152941   7.889   8.012   2.454  1.1549 -0.6703  0.6743
16470SOL    HW252942   8.021   8.070   2.502  0.1132  1.8463  0.6611
16471SOL     OW52943   0.677   6.163   5.545 -0.1145  0.2690 -0.3550
16471SOL    HW152944   0.696   6.198   5.632 -0.7335  1.1310 -0.5576
16471SOL    HW252945   0.660   6.240   5.491 -0.1916 -0.2820 -1.1341
16472SOL     OW52946   5.581  10.255   0.043  0.0974 -0.2304  0.2530
16472SOL    HW152947   5.504  10.286   0.092 -1.0551 -1.5455 -0.6774
16472SOL    HW252948   5.566  10.284  -0.047  0.5629 -0.7157  0.0138
16473SOL     OW52949   2.465   7.852   3.698  0.4300 -0.2724 -0.3881
16473SOL    HW152950   2.499   7.941   3.688 -0.6273 -0.0582 -2.7937
16473SOL    HW252951   2.401   7.859   3.769 -0.1514  1.0745 -1.0047
16474SOL     OW52952  10.424   1.836  10.822 -0.1465 -0.5070 -0.4008
16474SOL    HW152953  10.352   1.897  10.835  0.6014  0.2206  0.5030
16474SOL    HW252954  10.389   1.768  10.765 -0.9321  0.8932 -1.6351
16475SOL     OW52955   2.945   1.941   9.757  0.0517  0.1549  0.2962
16475SOL    HW152956   2.883   1.905   9.694  0.1316  0.2789  0.1468
16475SOL    HW252957   2.999   1.866   9.783  0.6706  0.2928 -0.5336
16476SOL     OW52958   4.667   2.948   6.145  0.3506  0.1306 -0.1992
16476SOL    HW152959   4.718   2.872   6.174 -1.9286 -0.5710  2.3841
16476SOL    HW252960   4.661   3.005   6.221  1.0022  2.4208 -1.7480
16477SOL     OW52961   5.546  10.957   6.729  0.0945 -0.1955  0.0400
16477SOL    HW152962   5.523  10.872   6.767 -0.5029 -1.0773 -2.1767
16477SOL    HW252963   5.621  10.986   6.781 -0.5783 -1.3636  1.7742
16478SOL     OW52964   2.051   8.110   3.999 -0.7501 -0.0171  0.1946
16478SOL    HW152965   1.970   8.086   4.044  0.1023 -1.6424  0.9642
16478SOL    HW252966   2.106   8.150   4.066 -0.2491 -0.5646  0.1207
16479SOL     OW52967   9.155   8.456   6.600 -0.6285 -0.0456 -0.7547
16479SOL    HW152968   9.067   8.480   6.570  0.0035 -0.2375 -2.8824
16479SOL    HW252969   9.183   8.530   6.654 -2.1661 -0.0974  0.1939
16480SOL     OW52970   1.192   4.819   7.670  0.5022 -0.4497  0.1237
16480SOL    HW152971   1.098   4.806   7.658  0.1586  1.9833 -0.2939
16480SOL    HW252972   1.207   4.805   7.764 -0.1778 -1.3253  0.1070
16481SOL     OW52973   7.170   9.205   3.880  0.0406  0.7670  0.3461
16481SOL    HW152974   7.250   9.176   3.837 -0.9518  1.2979 -2.0796
16481SOL    HW252975   7.120   9.125   3.896  0.3700  0.5659  0.3608
16482SOL     OW52976   3.659   6.035   9.105 -0.0343 -0.7795  0.1364
16482SOL    HW152977   3.625   6.097   9.169  1.3649  1.7099 -1.4095
16482SOL    HW252978   3.705   5.969   9.158  2.1985  1.8807  1.7589
16483SOL     OW52979   0.384   4.236   4.049  0.3999 -0.1373  0.1210
16483SOL    HW152980   0.311   4.194   4.094  0.7703 -0.4943  0.3896
16483SOL    HW252981   0.343   4.281   3.974 -0.0843 -0.3812  0.2353
16484SOL     OW52982   4.149   6.496   4.383  0.5090 -0.4921 -0.0725
16484SOL    HW152983   4.241   6.483   4.408  0.3016 -0.2200  0.9019
16484SOL    HW252984   4.099   6.447   4.448 -0.0439 -0.5287 -0.5144
16485SOL     OW52985   9.845  11.093   1.845 -0.5155  0.7440 -0.5291
16485SOL    HW152986   9.844  11.018   1.785 -1.0909 -1.7838  2.3756
16485SOL    HW252987   9.937  11.100   1.873 -0.4210  1.3170 -0.9554
16486SOL     OW52988   2.338   3.408   9.554  0.2864 -0.5100 -0.1702
16486SOL    HW152989   2.311   3.478   9.494  2.0457  1.0873  0.7918
16486SOL    HW252990   2.256   3.368   9.583 -0.9886  2.5383  0.8330
16487SOL     OW52991   3.495  10.321   6.272  0.4260 -0.2790  0.3038
16487SOL    HW152992   3.460  10.389   6.330  2.1070  1.0438 -0.1702
16487SOL    HW252993   3.471  10.349   6.184 -1.1419 -1.7092  0.2117
16488SOL     OW52994   7.418   7.233   8.600 -0.2746 -0.0419  0.2478
16488SOL    HW152995   7.444   7.211   8.689 -0.2648  1.6847  0.7105
16488SOL    HW252996   7.331   7.195   8.590  0.3177 -1.5026  0.4561
16489SOL     OW52997   3.709   1.501  10.427  0.5649  0.0921  0.2227
16489SOL    HW152998   3.737   1.411  10.446 -0.1382 -0.3357 -0.6700
16489SOL    HW252999   3.656   1.526  10.502 -1.1611 -1.1111 -0.5225
16490SOL     OW53000  10.806   5.386   9.591  0.0752  0.3570 -0.0054
16490SOL    HW153001  10.892   5.424   9.607  1.1504 -1.4494 -1.1516
16490SOL    HW253002  10.754   5.413   9.667  1.6924  1.3298  0.8233
16491SOL     OW53003   4.489   5.164   0.411 -0.5312  0.0645 -0.6186
16491SOL    HW153004   4.515   5.244   0.366 -0.6215  0.6455  0.3225
16491SOL    HW253005   4.408   5.137   0.367 -1.4742  1.4848  0.1436
16492SOL     OW53006  10.433  11.086   2.009  0.8715 -0.7253 -0.8110
16492SOL    HW153007  10.467  11.105   1.922 -0.3513 -1.6282 -1.5226
16492SOL    HW253008  10.386  11.003   1.999  0.3884 -0.6537  0.6172
16493SOL     OW53009   6.104   6.908   3.361  0.0689 -0.1382 -0.0499
16493SOL    HW153010   6.198   6.890   3.356 -0.0368 -0.4059 -1.2716
16493SOL    HW253011   6.063   6.834   3.316 -0.7104  0.1865  0.1127
16494SOL     OW53012   5.863   4.956   7.827  0.9687  0.1942  0.1316
16494SOL    HW153013   5.815   4.919   7.752  2.1859 -0.2326 -0.4716
16494SOL    HW253014   5.795   4.988   7.886 -0.0315  1.2546 -1.5057
16495SOL     OW53015   8.668   0.961   9.465  0.7464 -0.9940 -0.0775
16495SOL    HW153016   8.625   0.997   9.387  0.2039 -0.1102  0.6124
16495SOL    HW253017   8.761   0.965   9.444  0.7078  0.7333 -0.0933
16496SOL     OW53018  10.489   0.746   0.276 -0.4917 -0.2040  0.2313
16496SOL    HW153019  10.433   0.705   0.210 -0.5893 -1.0561  0.8117
16496SOL    HW253020  10.428   0.780   0.341 -0.3558 -0.7536  0.6529
16497SOL     OW53021   6.649   7.438   4.232 -0.2005 -0.2388  0.2810
16497SOL    HW153022   6.670   7.516   4.181 -0.5675 -0.3851 -0.0927
16497SOL    HW253023   6.561   7.453   4.265 -0.5383 -0.7745 -0.3441
16498SOL     OW53024   6.672   3.572   5.078 -0.0097  0.0757  0.3702
16498SOL    HW153025   6.627   3.488   5.091  0.8675 -0.3031  1.0848
16498SOL    HW253026   6.732   3.556   5.005 -1.2091  0.6669 -0.7780
16499SOL     OW53027   7.657   4.695   5.044 -0.9674 -0.2518 -0.5615
16499SOL    HW153028   7.652   4.705   5.139 -0.6126  2.2366 -0.7381
16499SOL    HW253029   7.750   4.678   5.026 -1.1025 -1.1484 -0.4585
16500SOL     OW53030   9.008   8.871   7.395 -0.1716  0.3135 -0.5631
16500SOL    HW153031   9.062   8.889   7.472 -0.1762 -0.1484 -0.4528
16500SOL    HW253032   9.070   8.861   7.324 -0.2400  3.0590 -1.1220
16501SOL     OW53033   3.049   3.691  10.998  0.0413 -0.7155 -0.0510
16501SOL    HW153034   3.124   3.676  11.056  1.0037 -2.0088 -1.5646
16501SOL    HW253035   3.079   3.757  10.936 -0.9657  0.6137  0.8110
16502SOL     OW53036   4.569   2.725   1.767 -0.0974 -0.1407  0.1145
16502SOL    HW153037   4.512   2.730   1.690  2.1461  1.0518 -1.5716
16502SOL    HW253038   4.581   2.631   1.782 -0.1258 -0.3941 -1.3464
16503SOL     OW53039  10.779   6.248   7.990  0.4975  0.3063 -0.2390
16503SOL    HW153040  10.794   6.193   7.913 -0.4152 -0.2678 -0.0250
16503SOL    HW253041  10.866   6.262   8.027  0.8298 -0.3108 -0.7685
16504SOL     OW53042   1.100   8.506   4.260  0.1547  0.4348  0.2843
16504SOL    HW153043   1.154   8.542   4.331 -0.3635  1.0380  0.3761
16504SOL    HW253044   1.056   8.581   4.222  0.9600  0.2075 -1.1574
16505SOL     OW53045   7.903   1.187  10.043 -0.1268  0.0227  0.0221
16505SOL    HW153046   7.868   1.122  10.105 -1.3144 -0.0668 -0.6977
16505SOL    HW253047   7.871   1.157   9.957  0.5097  0.7857 -0.4959
16506SOL     OW53048   5.743   4.858   2.464  0.3076 -1.0688  0.1262
16506SOL    HW153049   5.667   4.915   2.452  1.0841 -0.1746 -0.7596
16506SOL    HW253050   5.815   4.918   2.482  1.1861 -1.7260 -1.0337
16507SOL     OW53051   1.330   9.895  10.524 -0.4844 -0.0158  0.1785
16507SOL    HW153052   1.255   9.954  10.517 -0.3097  0.0946 -0.8839
16507SOL    HW253053   1.321   9.836  10.449 -0.7644 -1.4893  1.3127
16508SOL     OW53054   7.630  10.039   0.267  0.2552  0.0780 -0.2086
16508SOL    HW153055   7.697   9.979   0.233  0.2552 -0.5065  0.7856
16508SOL    HW253056   7.661  10.126   0.241  1.7472 -0.1190  0.7449
16509SOL     OW53057   1.704   9.397   5.755 -0.4168 -0.2362 -0.0241
16509SOL    HW153058   1.681   9.490   5.752  0.9249  0.0887 -0.9037
16509SOL    HW253059   1.799   9.395   5.756 -0.3859 -1.6174 -1.2628
16510SOL     OW53060   7.300   2.082   8.592  0.3138 -0.2135  0.1964
16510SOL    HW153061   7.266   2.031   8.519  2.7865 -2.2842  0.3572
16510SOL    HW253062   7.313   2.018   8.662  3.5805  0.4809  0.4092
16511SOL     OW53063   1.676   6.237   4.410  0.8993  0.9852  0.2744
16511SOL    HW153064   1.766   6.269   4.399  0.2074  3.0465  0.2400
16511SOL    HW253065   1.637   6.244   4.323  0.8485 -0.5180  0.1444
16512SOL     OW53066   8.856   4.040   2.850  0.5524  0.0867 -0.2424
16512SOL    HW153067   8.867   4.114   2.910  1.7330 -0.2644 -0.0014
16512SOL    HW253068   8.777   3.995   2.882 -0.2247  1.2750 -0.4462
16513SOL     OW53069   0.138   0.231   5.891  0.2534  0.0448  0.0904
16513SOL    HW153070   0.197   0.156   5.898  0.5288  0.2468 -0.0640
16513SOL    HW253071   0.194   0.308   5.900 -0.0367  0.2357  0.3089
16514SOL     OW53072   6.774   9.933   4.989  0.1944 -0.3874  0.5017
16514SOL    HW153073   6.721  10.004   4.953  1.3718 -0.4966 -1.6108
16514SOL    HW253074   6.788   9.873   4.915 -0.0389 -2.3948  2.0001
16515SOL     OW53075  10.101   3.857   1.964 -0.2489  0.2456  0.3093
16515SOL    HW153076  10.168   3.841   1.898  0.0238 -1.4511  0.9656
16515SOL    HW253077  10.028   3.800   1.940 -1.0289  1.2240  0.2610
16516SOL     OW53078   4.360   6.068   8.617 -0.2747  0.2379 -0.7362
16516SOL    HW153079   4.365   6.049   8.524 -0.6451  0.9302 -0.9081
16516SOL    HW253080   4.448   6.099   8.640  0.1837 -1.1300 -0.5625
16517SOL     OW53081   7.906   7.485   5.411 -0.1406  0.2957 -0.2504
16517SOL    HW153082   7.981   7.541   5.435  0.3534  0.2073 -1.4937
16517SOL    HW253083   7.836   7.547   5.392 -0.3410  0.3878  0.7212
16518SOL     OW53084   7.821   4.373   9.871 -0.0057  0.2848 -0.1959
16518SOL    HW153085   7.913   4.398   9.867 -0.3466  1.8597  0.8421
16518SOL    HW253086   7.773   4.452   9.848 -1.1283 -0.0563  0.8358
16519SOL     OW53087   2.568   2.504   1.046  0.0645 -0.2774 -0.2170
16519SOL    HW153088   2.520   2.445   1.104  0.4159 -0.0090  0.3560
16519SOL    HW253089   2.505   2.574   1.025 -0.1732 -0.5602 -0.4489
16520SOL     OW53090   4.315  10.056   2.774 -0.1662  0.0655 -0.3479
16520SOL    HW153091   4.323  10.098   2.688  0.0912  1.2795  0.2374
16520SOL    HW253092   4.403  10.060   2.811 -0.1196 -1.1073 -0.3073
16521SOL     OW53093  10.841  10.048   9.037 -0.0786  0.4264  0.0014
16521SOL    HW153094  10.931  10.042   9.070 -0.0372  1.8834  0.2097
16521SOL    HW253095  10.834  10.136   9.002 -0.6830 -0.4822 -2.3595
16522SOL     OW53096   3.221   7.503   6.223  0.2143 -0.9657 -0.2008
16522SOL    HW153097   3.137   7.488   6.180  0.0249  0.4116 -0.3498
16522SOL    HW253098   3.285   7.463   6.164 -0.2618 -1.3765 -0.4534
16523SOL     OW53099   8.381   1.675   1.878 -0.0133 -0.0178  0.3695
16523SOL    HW153100   8.448   1.638   1.820 -0.1735  1.0977 -0.5614
16523SOL    HW253101   8.298   1.646   1.841 -0.1008 -1.9081  1.8681
16524SOL     OW53102   4.308   5.687   0.436 -0.3417 -0.1861 -0.1279
16524SOL    HW153103   4.336   5.701   0.526 -3.9119  0.0324  1.1216
16524SOL    HW253104   4.346   5.760   0.387  1.5580 -0.2353  1.1812
16525SOL     OW53105   0.375   6.508   2.414  0.1423 -0.0623 -0.0993
16525SOL    HW153106   0.292   6.555   2.409 -0.5989 -1.2621  0.4501
16525SOL    HW253107   0.424   6.554   2.481  0.1036  0.9091 -0.7140
16526SOL     OW53108   7.287   6.979   7.866 -0.0622  0.5732  0.8619
16526SOL    HW153109   7.223   6.993   7.796 -0.7568  3.0981  1.9010
16526SOL    HW253110   7.295   6.884   7.872 -1.0710  0.2400 -1.6414
16527SOL     OW53111   7.563   9.730   5.262  0.4711 -0.4750  0.1373
16527SOL    HW153112   7.518   9.806   5.224 -0.3712 -1.0499 -0.0402
16527SOL    HW253113   7.655   9.745   5.242  0.0407 -1.0460 -2.6924
16528SOL     OW53114   2.692   5.590   1.940  0.4425 -0.2642 -0.1897
16528SOL    HW153115   2.780   5.626   1.938  0.9082 -1.2904  0.8273
16528SOL    HW253116   2.647   5.639   2.008  0.8146 -1.0012  0.5995
16529SOL     OW53117  10.076  10.979   4.791 -0.6092  0.2022 -0.1803
16529SOL    HW153118  10.015  11.006   4.722 -0.6017  1.2099  0.2025
16529SOL    HW253119  10.159  10.967   4.745 -1.0380 -1.0825 -0.6863
16530SOL     OW53120   0.020  10.044   7.987  0.3317 -0.5614  0.3076
16530SOL    HW153121   0.082  10.112   7.959 -0.7758  0.5706  0.4934
16530SOL    HW253122   0.067   9.993   8.053  1.0100  0.3651  0.5585
16531SOL     OW53123   1.372   4.608   5.424 -0.7497  0.1818  0.0877
16531SOL    HW153124   1.436   4.615   5.495  0.1040  0.7786 -0.7188
16531SOL    HW253125   1.424   4.603   5.344 -1.6831 -0.8723 -0.4929
16532SOL     OW53126   7.820   6.147   5.360 -0.2472 -0.2203  0.4876
16532SOL    HW153127   7.769   6.148   5.441 -1.4441  0.3705 -0.2484
16532SOL    HW253128   7.911   6.138   5.389 -0.5016  1.5608  1.9811
16533SOL     OW53129   8.318   1.921   9.779 -0.1400 -0.1462  0.4835
16533SOL    HW153130   8.273   1.854   9.830 -1.8590  1.7748  1.6582
16533SOL    HW253131   8.248   1.972   9.739  1.0274  1.7470  0.7317
16534SOL     OW53132   7.253   5.420   0.416  0.3305  0.7576 -0.4832
16534SOL    HW153133   7.344   5.403   0.444  0.8271  2.3975 -0.9848
16534SOL    HW253134   7.226   5.340   0.372  1.1802 -0.1383  0.5674
16535SOL     OW53135   1.089   4.585   5.438  0.2544  0.1144  0.3403
16535SOL    HW153136   1.091   4.508   5.381 -0.5108 -0.1589  0.6748
16535SOL    HW253137   1.181   4.601   5.460  0.3096 -1.6152  1.4891
16536SOL     OW53138   0.023  10.161   5.758 -1.1810  0.6468 -0.0992
16536SOL    HW153139   0.095  10.134   5.815 -2.1855 -0.6661  0.6120
16536SOL    HW253140   0.051  10.133   5.671 -0.9048 -0.0559  0.1987
16537SOL     OW53141   8.691  10.036   3.790 -0.1997 -0.1342 -0.3458
16537SOL    HW153142   8.641  10.027   3.708 -0.7139  2.5236 -0.4101
16537SOL    HW253143   8.632  10.083   3.848  1.6135  1.6723  0.1349
16538SOL     OW53144   5.819  10.410   1.308  0.3300  0.0797 -0.0074
16538SOL    HW153145   5.845  10.323   1.275  1.8016  0.4415  0.1236
16538SOL    HW253146   5.740  10.393   1.360  0.6178 -1.1921  0.0591
16539SOL     OW53147   3.088   0.627   1.514  0.0406  0.1254  0.2476
16539SOL    HW153148   3.152   0.694   1.537  2.2954 -1.4411 -1.1118
16539SOL    HW253149   3.109   0.553   1.571 -0.5421 -0.4386 -0.2502
16540SOL     OW53150   6.867   5.817   6.999  0.1890  0.7074 -0.1997
16540SOL    HW153151   6.920   5.890   6.965 -2.2706  2.9787  0.4543
16540SOL    HW253152   6.928   5.765   7.050  2.3239  1.6105 -1.6602
16541SOL     OW53153   8.364   7.124   7.620 -0.5058  0.1591 -0.0486
16541SOL    HW153154   8.439   7.072   7.591  0.1457 -0.9180  3.2082
16541SOL    HW253155   8.294   7.101   7.559  0.3614 -2.9369 -0.0173
16542SOL     OW53156   0.077   5.560  10.126  0.0047  0.3185 -0.0398
16542SOL    HW153157  -0.009   5.581  10.089  0.4017  0.9424 -0.6086
16542SOL    HW253158   0.124   5.643  10.128 -0.1862  0.4493  2.4206
16543SOL     OW53159   5.790   1.397   3.357 -0.0167 -0.8194  0.1535
16543SOL    HW153160   5.876   1.366   3.328 -0.5403  1.0567 -4.1799
16543SOL    HW253161   5.808   1.480   3.402  0.4741 -0.2119 -1.1265
16544SOL     OW53162   4.144   0.017  10.038  0.4403 -0.6209  0.3616
16544SOL    HW153163   4.145  -0.066   9.990  0.2688 -0.2669 -0.2617
16544SOL    HW253164   4.233   0.051  10.029 -0.1583  0.5592 -1.7022
16545SOL     OW53165   6.258   3.754  10.389 -0.5679  0.1289  0.1831
16545SOL    HW153166   6.250   3.757  10.485  0.6745 -1.1277  0.3698
16545SOL    HW253167   6.260   3.845  10.362 -2.1878  0.5062  1.2189
16546SOL     OW53168   5.423   3.177   8.764  0.0151  0.2683  0.5578
16546SOL    HW153169   5.483   3.229   8.712 -1.0086  0.3951 -0.5419
16546SOL    HW253170   5.381   3.118   8.702  0.3665 -1.1449  1.6158
16547SOL     OW53171   7.406   4.673   2.150  0.0178 -0.1365 -0.2153
16547SOL    HW153172   7.423   4.733   2.222  1.5990  0.0880 -0.7427
16547SOL    HW253173   7.396   4.730   2.073 -1.9947 -0.3434 -0.1818
16548SOL     OW53174   4.226  10.025  10.257  0.0664  0.6520 -0.1449
16548SOL    HW153175   4.313  10.055  10.231 -0.2419  1.0186 -0.7707
16548SOL    HW253176   4.196   9.970  10.185 -0.1553  0.3975  0.1409
16549SOL     OW53177  11.100   6.232   0.799 -0.0486  0.0182  0.4962
16549SOL    HW153178  11.122   6.285   0.721 -0.4930  1.3477  1.2458
16549SOL    HW253179  11.159   6.157   0.793 -0.7534 -0.4419 -1.6577
16550SOL     OW53180   1.960   0.680   3.016 -0.5799  0.0822 -0.1843
16550SOL    HW153181   1.942   0.624   3.091  1.8157  0.6642  0.9361
16550SOL    HW253182   2.055   0.676   3.006 -0.3452  3.4388 -0.4266
16551SOL     OW53183   1.074   5.554   4.278  0.2222 -0.0471 -0.0735
16551SOL    HW153184   0.995   5.591   4.240  0.3535  1.3023  0.9033
16551SOL    HW253185   1.126   5.630   4.305  2.0522 -0.8727 -1.0322
16552SOL     OW53186   8.024   5.766   6.101  0.1799  0.3172  0.4633
16552SOL    HW153187   8.116   5.788   6.115  0.7460 -1.6689  0.2136
16552SOL    HW253188   8.020   5.734   6.011 -1.1219  1.9281 -0.1060
16553SOL     OW53189   9.135   1.673  10.622 -0.3311 -0.1429  0.4320
16553SOL    HW153190   9.168   1.635  10.541  1.1806  0.7865  0.5681
16553SOL    HW253191   9.210   1.672  10.681 -1.1604  0.0275  1.5271
16554SOL     OW53192   6.394  10.445   5.211 -0.3761 -0.0750 -0.3598
16554SOL    HW153193   6.405  10.350   5.200 -0.6685 -0.1180 -0.2835
16554SOL    HW253194   6.482  10.481   5.196 -0.3824 -0.3059 -0.9553
16555SOL     OW53195   2.307  10.381   6.471 -0.0281  0.0006 -0.6603
16555SOL    HW153196   2.305  10.287   6.486  0.1633  0.3293  1.9074
16555SOL    HW253197   2.215  10.406   6.461 -0.1032 -0.4168 -1.0129
16556SOL     OW53198   4.374   4.875   6.667  0.0658 -0.0111  0.2584
16556SOL    HW153199   4.412   4.905   6.584 -1.3091 -1.4517 -0.9779
16556SOL    HW253200   4.437   4.810   6.699  0.2733  0.0325 -0.0483
16557SOL     OW53201  10.325   1.368   1.370  0.1716  0.0329 -0.4998
16557SOL    HW153202  10.314   1.368   1.465 -0.4922 -0.3464 -0.5683
16557SOL    HW253203  10.262   1.433   1.338  0.5994  0.3734 -0.6662
16558SOL     OW53204   3.059   9.086   4.458 -0.5204  0.2259 -0.3970
16558SOL    HW153205   3.065   9.045   4.371  1.7985 -0.5619  0.0596
16558SOL    HW253206   3.083   9.178   4.442  0.9856 -0.1547 -0.4791
16559SOL     OW53207   8.453   3.806   4.786 -0.7011  0.6012  0.4735
16559SOL    HW153208   8.424   3.714   4.782 -2.0543  1.0549 -1.3921
16559SOL    HW253209   8.431   3.833   4.875  0.1310 -0.9810  1.2162
16560SOL     OW53210   7.971  10.073   2.183  0.1440 -0.4221 -0.5863
16560SOL    HW153211   7.899  10.122   2.144  1.5638  0.4443 -2.2475
16560SOL    HW253212   7.989  10.003   2.120  1.5416  0.1359 -0.8554
16561SOL     OW53213   4.101   2.878   8.779 -0.1847  0.2356 -0.9370
16561SOL    HW153214   4.057   2.954   8.818  0.6420  0.3802 -0.2536
16561SOL    HW253215   4.148   2.914   8.703  0.7873  0.5728 -0.2064
16562SOL     OW53216   9.525  10.281   1.810  1.1002 -0.2224  0.0929
16562SOL    HW153217   9.571  10.365   1.805  1.0891 -0.2815 -1.7386
16562SOL    HW253218   9.530  10.246   1.722  0.2340 -1.6997  0.5979
16563SOL     OW53219   0.756   2.559   9.682 -0.0397  0.6164  0.5382
16563SOL    HW153220   0.734   2.591   9.595  0.4279  0.8035  0.4847
16563SOL    HW253221   0.689   2.493   9.702 -0.1874  0.6248  0.0701
16564SOL     OW53222   1.325   5.634   7.528  0.0717  0.1152  0.2405
16564SOL    HW153223   1.231   5.623   7.544  0.2915 -0.3734  1.2515
16564SOL    HW253224   1.333   5.625   7.433 -1.3289  3.6133 -0.3457
16565SOL     OW53225   0.680   6.061  10.836  0.4146 -0.5252 -0.0525
16565SOL    HW153226   0.745   6.131  10.837 -0.6412  0.4835 -0.0423
16565SOL    HW253227   0.663   6.045  10.744  0.1001 -0.2291 -0.0477
16566SOL     OW53228   2.099   8.673   0.061 -0.1214  0.3845 -0.2383
16566SOL    HW153229   2.176   8.665   0.005  0.0041  1.6684 -0.2778
16566SOL    HW253230   2.027   8.692   0.001 -0.0434  1.4618 -0.0050
16567SOL     OW53231   2.726   6.025   6.883  0.0655  0.3080 -0.0506
16567SOL    HW153232   2.658   6.018   6.816  0.0526  1.0709 -0.1304
16567SOL    HW253233   2.739   6.119   6.894  0.1422  0.1877  0.9501
16568SOL     OW53234   9.983   9.428   4.611  0.3649  0.7376 -0.4215
16568SOL    HW153235   9.974   9.384   4.695  2.6461  0.1232 -0.4325
16568SOL    HW253236   9.977   9.521   4.632  0.2974  0.5714  0.3263
16569SOL     OW53237   0.530  10.365   7.194 -0.0072  0.3307  0.1196
16569SOL    HW153238   0.517  10.272   7.212  1.3506  0.0394 -0.2620
16569SOL    HW253239   0.456  10.390   7.139 -1.1262 -0.1714  1.3480
16570SOL     OW53240   7.558   1.320   5.966 -0.0896 -0.0594  0.0928
16570SOL    HW153241   7.488   1.270   5.922 -0.7833  0.5720  0.4593
16570SOL    HW253242   7.562   1.282   6.054 -0.7049  0.6024  0.4126
16571SOL     OW53243   9.856   9.067   8.909 -0.3587 -0.3636  0.3085
16571SOL    HW153244   9.939   9.020   8.922 -0.7582 -0.5186  2.7921
16571SOL    HW253245   9.883   9.153   8.877  0.6315 -0.9602 -0.5413
16572SOL     OW53246   3.274  10.949   1.707  0.2580  0.4847  0.2526
16572SOL    HW153247   3.242  10.977   1.793  1.7428  0.0290  1.0059
16572SOL    HW253248   3.237  10.862   1.694 -0.1510  0.6476  0.3334
16573SOL     OW53249   6.459   8.401   7.360 -0.7884  0.5765  0.2832
16573SOL    HW153250   6.505   8.421   7.441 -1.2041 -0.6923  0.8639
16573SOL    HW253251   6.527   8.379   7.298 -0.5570 -1.3896  1.1610
16574SOL     OW53252   6.546  10.174   8.084  0.0341  0.3870 -0.6974
16574SOL    HW153253   6.520  10.175   8.176 -1.1926  0.0542 -1.0288
16574SOL    HW253254   6.591  10.090   8.073 -0.9098 -0.1380 -0.6807
16575SOL     OW53255   5.979   5.051   6.071 -0.0097  0.3913  0.6427
16575SOL    HW153256   6.053   5.111   6.067  0.4755 -0.1797  0.9969
16575SOL    HW253257   5.939   5.068   6.156 -0.2266  0.6201  0.4984
16576SOL     OW53258   2.426  10.743  10.985  0.2762  0.1983 -0.2156
16576SOL    HW153259   2.380  10.792  10.917  0.6029  0.7636 -0.0376
16576SOL    HW253260   2.361  10.679  11.017 -0.7184  1.5937  0.6862
16577SOL     OW53261   7.910   3.530   0.393 -0.2042 -0.0754  0.2673
16577SOL    HW153262   7.857   3.470   0.341  1.8613 -1.0489 -0.8443
16577SOL    HW253263   7.900   3.615   0.350 -1.3760 -0.0828  0.5040
16578SOL     OW53264   2.057   3.460   5.138  0.1189  0.1007  0.7836
16578SOL    HW153265   2.148   3.478   5.116 -0.0541  0.3265  0.2071
16578SOL    HW253266   2.029   3.537   5.188 -0.0143  0.4676  0.1564
16579SOL     OW53267   2.376   9.601   9.370  0.4260 -0.0386  0.1067
16579SOL    HW153268   2.381   9.509   9.395  0.4507 -0.0314  0.1286
16579SOL    HW253269   2.458   9.618   9.324  0.0794 -0.2283 -0.5884
16580SOL     OW53270   9.468   9.013   9.238 -0.0998 -0.2441  0.3963
16580SOL    HW153271   9.475   9.082   9.172 -1.7544  0.4065  0.8695
16580SOL    HW253272   9.547   8.961   9.225  0.6181  1.0484 -0.7431
16581SOL     OW53273   7.471   8.560   9.700  0.2823  0.3911 -0.1109
16581SOL    HW153274   7.488   8.640   9.651 -0.8020 -0.0740 -1.2895
16581SOL    HW253275   7.403   8.515   9.651  1.6216 -1.8029 -0.1031
16582SOL     OW53276   2.032   3.985   8.272 -0.0130  0.0416 -0.5028
16582SOL    HW153277   1.938   4.003   8.284 -0.6886 -2.8272 -0.6961
16582SOL    HW253278   2.056   3.936   8.351  1.9992  2.6249  0.6414
16583SOL     OW53279   5.169   0.861   0.712  0.5302  0.3720  0.2386
16583SOL    HW153280   5.220   0.865   0.632 -0.1593 -0.3385 -0.2499
16583SOL    HW253281   5.086   0.821   0.686  0.6428 -0.7417  1.4810
16584SOL     OW53282   9.415   7.664   7.227  0.3072  0.7962  0.8414
16584SOL    HW153283   9.443   7.728   7.291  1.3931  0.2889  0.8917
16584SOL    HW253284   9.449   7.580   7.259  2.0931  0.7092 -1.0525
16585SOL     OW53285   8.348   3.803   4.469  0.6944  0.2107 -0.2718
16585SOL    HW153286   8.387   3.763   4.392  2.1178  1.4968 -0.2800
16585SOL    HW253287   8.315   3.730   4.521  0.6159 -0.7360 -1.6087
16586SOL     OW53288   2.204   1.916   7.468  0.5996 -1.1564 -0.5135
16586SOL    HW153289   2.196   1.829   7.507  2.1454 -0.3137  1.8857
16586SOL    HW253290   2.204   1.976   7.543  2.2185  0.6915 -1.8934
16587SOL     OW53291   4.184   9.392   5.249 -0.0669 -0.0859 -0.2121
16587SOL    HW153292   4.216   9.345   5.327  0.6573  0.7062 -0.0245
16587SOL    HW253293   4.102   9.347   5.227  1.2615 -2.3660 -0.8892
16588SOL     OW53294   4.905   6.223   8.863 -0.4350 -0.5137  0.0238
16588SOL    HW153295   4.874   6.310   8.889  0.8024  0.4162 -1.4163
16588SOL    HW253296   4.999   6.235   8.848 -0.4622 -1.7735 -1.3859
16589SOL     OW53297  11.082   2.435   8.877  0.5103  0.0625 -0.1531
16589SOL    HW153298  10.998   2.419   8.834  1.1017  0.9355 -1.7237
16589SOL    HW253299  11.061   2.491   8.951 -0.2532  0.5862 -0.7561
16590SOL     OW53300   7.374   3.051   6.149  0.0286 -0.1195  0.2587
16590SOL    HW153301   7.423   3.117   6.100 -1.2106  0.1955 -0.6267
16590SOL    HW253302   7.440   3.004   6.200  1.1956  0.4325 -0.6930
16591SOL     OW53303   5.969   5.283  10.567 -0.0408 -0.4597 -0.4602
16591SOL    HW153304   6.040   5.273  10.502 -0.0672  1.2732 -0.7922
16591SOL    HW253305   5.890   5.295  10.514 -0.7694 -2.9498 -0.1034
16592SOL     OW53306   4.144   7.599   2.018  0.7438 -0.5692 -0.1242
16592SOL    HW153307   4.183   7.524   2.064  0.9292 -1.0761 -1.0819
16592SOL    HW253308   4.050   7.583   2.023  0.7541 -0.5461  0.1953
16593SOL     OW53309   2.889   5.522   6.571  0.6265 -0.0301 -0.3975
16593SOL    HW153310   2.926   5.610   6.574  1.8387 -0.4718 -1.3806
16593SOL    HW253311   2.797   5.535   6.550  0.5333  1.0436  0.6300
16594SOL     OW53312   2.621  10.904   5.336  0.5864  0.4748  0.0694
16594SOL    HW153313   2.598  10.820   5.373  2.7314  0.3420  1.3021
16594SOL    HW253314   2.667  10.883   5.254  0.8398  0.4420  0.2172
16595SOL     OW53315   7.954   3.990   7.407  0.6915 -0.0216 -0.5854
16595SOL    HW153316   7.866   3.965   7.379  0.0123  1.2429  0.3396
16595SOL    HW253317   7.950   3.989   7.503  2.2611 -1.8633 -0.4655
16596SOL     OW53318   1.856   6.943   5.054  0.3050  0.3985 -0.5151
16596SOL    HW153319   1.806   7.008   5.005 -0.6369 -0.5382 -0.8209
16596SOL    HW253320   1.895   6.993   5.126 -1.9214  1.0030  0.3663
16597SOL     OW53321   2.358   6.750   5.951  0.5654 -0.4203  0.2818
16597SOL    HW153322   2.356   6.816   6.020 -0.8356  1.3490 -1.3454
16597SOL    HW253323   2.399   6.795   5.876  1.1666 -1.9675 -0.3620
16598SOL     OW53324   3.794   7.678   6.107 -0.0006  0.2045 -0.6745
16598SOL    HW153325   3.789   7.585   6.087  1.1223  0.1897 -0.9620
16598SOL    HW253326   3.707   7.700   6.139 -0.3016 -0.9279 -0.6573
16599SOL     OW53327   4.226   7.093   4.716  0.2447  0.0920 -0.1871
16599SOL    HW153328   4.207   7.016   4.769 -0.0892  0.9131  0.9153
16599SOL    HW253329   4.203   7.066   4.627 -0.7101 -0.8022  0.3008
16600SOL     OW53330   7.780   9.046   8.499  0.2044  0.1432  0.6246
16600SOL    HW153331   7.731   9.128   8.495 -1.3304 -0.7704 -2.6628
16600SOL    HW253332   7.872   9.074   8.496 -0.2510  1.7566  0.4099
16601SOL     OW53333   1.531   7.288   4.757 -0.0729 -0.2908 -0.0124
16601SOL    HW153334   1.466   7.314   4.822  1.0468  0.6140  0.7900
16601SOL    HW253335   1.594   7.361   4.756 -0.0056 -0.3342 -2.0452
16602SOL     OW53336   8.847   3.984   9.608  0.0578  0.4900  0.0688
16602SOL    HW153337   8.808   4.019   9.528 -0.2154 -0.2660 -0.1413
16602SOL    HW253338   8.941   3.980   9.589  0.0993  1.1354  0.1144
16603SOL     OW53339   3.049   7.577   3.943 -0.7072 -0.3946 -0.2897
16603SOL    HW153340   3.091   7.542   4.021 -0.5762  0.1295 -0.1173
16603SOL    HW253341   2.957   7.586   3.968 -0.9599 -1.6839 -0.7180
16604SOL     OW53342   4.568   4.586   9.831  0.1785  0.2307 -0.5509
16604SOL    HW153343   4.619   4.556   9.756 -0.6772 -0.5878 -0.8251
16604SOL    HW253344   4.628   4.580   9.905  0.7823  0.2627 -1.0305
16605SOL     OW53345   9.827   1.114   4.778 -0.0142 -0.7535 -0.1515
16605SOL    HW153346   9.900   1.070   4.734  1.6408  1.7522 -0.1294
16605SOL    HW253347   9.841   1.096   4.871 -0.6149 -1.9270 -0.2762
16606SOL     OW53348   9.131   9.816   2.540 -0.1067 -0.1687 -0.0370
16606SOL    HW153349   9.072   9.742   2.553 -0.5559  0.0834 -0.6320
16606SOL    HW253350   9.214   9.776   2.512 -0.1301 -0.4868  0.3389
16607SOL     OW53351   0.636   2.802   9.177  0.3934 -0.1804  0.1425
16607SOL    HW153352   0.660   2.759   9.095 -0.1500 -0.9977  0.3943
16607SOL    HW253353   0.646   2.733   9.243 -0.4185  0.1057  0.5694
16608SOL     OW53354   9.748   8.035   0.181  0.7430  0.0623  0.3751
16608SOL    HW153355   9.775   7.946   0.205  3.9362  0.1268 -2.2144
16608SOL    HW253356   9.701   8.024   0.098  0.6925  0.7406  0.3116
16609SOL     OW53357   1.687   8.522   5.452  0.1329 -0.1782  0.1587
16609SOL    HW153358   1.599   8.500   5.423  0.3887  0.0252 -0.7975
16609SOL    HW253359   1.681   8.614   5.479 -0.6725 -1.0035  3.1104
16610SOL     OW53360   8.908   2.689   3.209  0.1303 -0.2194  0.1945
16610SOL    HW153361   8.946   2.772   3.179 -1.8233  0.1254 -1.5690
16610SOL    HW253362   8.814   2.699   3.194 -0.1217 -2.9323 -0.5204
16611SOL     OW53363   0.626   9.394   3.474  0.5302  0.4510  0.0081
16611SOL    HW153364   0.667   9.334   3.411 -1.4025  0.5211 -1.4306
16611SOL    HW253365   0.670   9.478   3.459  1.7653 -0.0803  0.5145
16612SOL     OW53366   8.395   2.004   9.401  0.7343  0.0508  0.3613
16612SOL    HW153367   8.431   2.064   9.467  2.4267  1.3951 -1.6171
16612SOL    HW253368   8.430   1.918   9.425  0.2794  0.2724  1.8911
16613SOL     OW53369   8.618   3.325   3.140 -0.3630 -0.1492  0.3213
16613SOL    HW153370   8.703   3.339   3.182  0.7036 -2.5936 -0.8372
16613SOL    HW253371   8.567   3.275   3.205  0.3814 -1.7189 -0.2535
16614SOL     OW53372   9.233   8.465   5.978  0.1126  0.0025  0.2664
16614SOL    HW153373   9.225   8.393   6.041 -0.7976 -0.3715 -0.2614
16614SOL    HW253374   9.143   8.488   5.956  0.4091  0.6318 -0.3391
16615SOL     OW53375   6.072   2.962   2.632  0.2675  0.2124 -0.2748
16615SOL    HW153376   6.117   2.914   2.562 -0.1309  2.0844 -1.9041
16615SOL    HW253377   6.142   3.006   2.680  0.3896  0.9549 -1.1144
16616SOL     OW53378  10.656   6.177   2.322  0.0991  0.0811 -0.7482
16616SOL    HW153379  10.684   6.229   2.397 -3.0054  2.4935 -1.0149
16616SOL    HW253380  10.730   6.180   2.261  2.0552 -0.5404  1.4862
16617SOL     OW53381   2.992   7.386   7.650 -0.0858  0.1765  0.1847
16617SOL    HW153382   2.902   7.406   7.622  0.5418  1.5614 -0.9533
16617SOL    HW253383   2.983   7.355   7.740 -1.4876  2.6710  1.0054
16618SOL     OW53384   6.811  11.119   0.763 -0.0694  0.4994  0.4364
16618SOL    HW153385   6.870  11.181   0.804 -0.0461  0.3045  0.6989
16618SOL    HW253386   6.836  11.120   0.670  0.6212  0.1179  0.6067
16619SOL     OW53387   6.847  10.844   9.289 -0.3015  0.4937 -0.3507
16619SOL    HW153388   6.873  10.933   9.265  2.5626  0.3510  1.7831
16619SOL    HW253389   6.848  10.843   9.384 -2.8722 -1.1875 -0.2367
16620SOL     OW53390   1.285   4.464  10.052 -0.8497  0.1840 -0.3700
16620SOL    HW153391   1.328   4.537  10.008  0.0744  0.1691  0.4673
16620SOL    HW253392   1.201   4.498  10.080  0.5037  1.7207  2.1338
16621SOL     OW53393   3.647  10.384   0.269 -0.3999  0.0928 -0.1883
16621SOL    HW153394   3.566  10.390   0.320 -0.1409  1.4877  0.1137
16621SOL    HW253395   3.618  10.394   0.178 -0.4060  3.7238  0.0435
16622SOL     OW53396   0.230   5.105   2.370  0.1607 -0.0986  0.1376
16622SOL    HW153397   0.263   5.167   2.434  0.2226  0.5565 -0.5152
16622SOL    HW253398   0.201   5.030   2.422  0.8767  0.1131  0.8682
16623SOL     OW53399   6.428   7.405   3.628  0.0769 -0.2471 -0.1451
16623SOL    HW153400   6.421   7.347   3.552 -0.1560  0.0542 -0.3584
16623SOL    HW253401   6.379   7.359   3.697 -0.7402  0.0300 -0.5228
16624SOL     OW53402   0.365   5.219   1.891 -0.3836  0.5571 -0.2004
16624SOL    HW153403   0.285   5.177   1.859  0.5258 -0.6694 -0.9587
16624SOL    HW253404   0.353   5.224   1.986 -1.0169 -0.3988 -0.2143
16625SOL     OW53405   2.679   6.292   1.677  0.1432  0.4499 -0.9097
16625SOL    HW153406   2.628   6.362   1.636  0.3721  1.8811  1.0754
16625SOL    HW253407   2.614   6.234   1.716 -0.0329  1.0005 -0.3636
16626SOL     OW53408   5.461   4.567   3.110  0.3385 -0.1385 -0.5344
16626SOL    HW153409   5.397   4.500   3.133 -0.3734  0.1481 -1.6237
16626SOL    HW253410   5.544   4.520   3.104  0.0411 -0.7106 -0.2011
16627SOL     OW53411   0.563  11.109  10.664 -0.0651  0.5294 -0.0760
16627SOL    HW153412   0.538  11.201  10.651  1.3337  0.9108 -0.2086
16627SOL    HW253413   0.655  11.113  10.690  0.2365 -0.8845 -0.8440
16628SOL     OW53414   3.543   5.324   4.382 -0.2871  0.1298  0.0423
16628SOL    HW153415   3.505   5.396   4.433 -0.0119  0.6345 -0.4583
16628SOL    HW253416   3.467   5.278   4.346 -0.4534  0.5527 -0.1539
16629SOL     OW53417   7.381   6.443   4.256 -0.6761  0.4276  0.4327
16629SOL    HW153418   7.303   6.402   4.218 -0.8366 -0.7930  1.9389
16629SOL    HW253419   7.373   6.425   4.350  2.8308 -2.3188  0.4115
16630SOL     OW53420   4.712  10.339   0.288 -0.6993  0.4966  0.5420
16630SOL    HW153421   4.745  10.337   0.199 -0.0032  1.1396  0.7781
16630SOL    HW253422   4.626  10.381   0.281 -0.5787  0.6870  0.2004
16631SOL     OW53423   7.069   9.986   4.440  1.0003 -0.7666  0.5430
16631SOL    HW153424   6.989   9.947   4.475 -0.1187  1.3707  0.4637
16631SOL    HW253425   7.063   9.973   4.345 -1.0178  2.3015  0.1175
16632SOL     OW53426   1.567   3.287   8.243  0.2059  0.4638 -0.0948
16632SOL    HW153427   1.491   3.345   8.246  0.6992  1.1032  0.2956
16632SOL    HW253428   1.607   3.295   8.329  0.2380 -0.5295 -0.0072
16633SOL     OW53429   0.245   3.552   9.612 -0.3989  0.4901 -0.4408
16633SOL    HW153430   0.338   3.568   9.626 -0.7833  1.8842  0.7603
16633SOL    HW253431   0.228   3.469   9.656  0.1737  0.5019 -0.1927
16634SOL     OW53432   3.547   1.298   5.495  0.4091  0.0448  0.5586
16634SOL    HW153433   3.638   1.328   5.490  0.2836  0.4692  0.7820
16634SOL    HW253434   3.514   1.334   5.577 -0.3227  0.9015 -0.0920
16635SOL     OW53435   7.087   1.184   9.459 -0.1663 -0.0225  0.3253
16635SOL    HW153436   7.093   1.248   9.530  0.5537  1.8998 -1.3386
16635SOL    HW253437   7.017   1.125   9.485 -1.3054  1.8292  1.6886
16636SOL     OW53438   5.854   6.020   4.313  0.0800 -0.2040 -0.2953
16636SOL    HW153439   5.835   6.109   4.344 -0.3576 -0.8434  1.3652
16636SOL    HW253440   5.822   6.019   4.223 -0.8318  1.0132 -0.0176
16637SOL     OW53441   1.189   4.304   6.855 -0.0344 -0.2328  0.1555
16637SOL    HW153442   1.172   4.245   6.928 -1.1654 -1.1777 -0.8249
16637SOL    HW253443   1.144   4.385   6.879 -1.9227 -1.1109 -0.2194
16638SOL     OW53444  10.718   3.564   3.132  0.2165  0.3892  0.1120
16638SOL    HW153445  10.721   3.469   3.119 -0.3481  0.5082 -1.0182
16638SOL    HW253446  10.742   3.576   3.224 -0.1808 -0.8764  0.4069
16639SOL     OW53447   5.223   1.645   2.350 -0.7154  0.8188 -0.1856
16639SOL    HW153448   5.259   1.599   2.426 -1.0609  0.4016 -0.2745
16639SOL    HW253449   5.289   1.712   2.330 -0.9431  1.3950  0.9151
16640SOL     OW53450   3.697   3.955   3.569 -0.3108 -0.2059  0.6863
16640SOL    HW153451   3.651   3.878   3.601 -0.0653 -0.8393 -0.4312
16640SOL    HW253452   3.643   3.988   3.497  1.0667 -1.1631 -0.8801
16641SOL     OW53453   1.167   1.086   2.342 -0.4146  0.1493  0.3390
16641SOL    HW153454   1.206   1.021   2.283 -0.2835 -0.8224  1.4761
16641SOL    HW253455   1.073   1.082   2.321 -0.0893  1.9708 -1.8798
16642SOL     OW53456   5.244   3.542   8.958  0.0063  0.2352 -0.3556
16642SOL    HW153457   5.338   3.550   8.943 -0.0716  0.4604 -0.7366
16642SOL    HW253458   5.209   3.511   8.874 -0.0647 -1.3656  0.2306
16643SOL     OW53459   4.032   5.806   1.459 -0.4383 -0.1595  0.1990
16643SOL    HW153460   3.943   5.824   1.430 -0.8721 -0.9165  1.0470
16643SOL    HW253461   4.045   5.862   1.535  0.0683  0.4668 -0.3322
16644SOL     OW53462   2.976  10.076  10.302 -0.2292  0.1594 -0.0301
16644SOL    HW153463   3.038  10.014  10.263  0.4972 -0.4540  1.9460
16644SOL    HW253464   3.015  10.162  10.286 -0.5679  0.0489 -1.6338
16645SOL     OW53465   8.497   0.711   7.242 -0.0350 -0.0412  0.3711
16645SOL    HW153466   8.574   0.743   7.289  0.5156 -0.3977 -0.2917
16645SOL    HW253467   8.482   0.624   7.278  0.5415 -0.4175 -0.2960
16646SOL     OW53468  10.319  10.121   1.551 -0.1458  0.1491  0.1841
16646SOL    HW153469  10.256  10.177   1.597  0.9588  1.2068  0.4749
16646SOL    HW253470  10.267  10.050   1.514 -0.8962 -2.3670  5.2052
16647SOL     OW53471   1.544   9.657   9.530 -0.4106  0.1565  0.3126
16647SOL    HW153472   1.606   9.695   9.591  0.0243 -0.0947  0.0348
16647SOL    HW253473   1.537   9.721   9.459  2.2152 -1.2537 -1.4023
16648SOL     OW53474  10.445   7.845   1.890  0.1307 -0.2002 -0.3235
16648SOL    HW153475  10.484   7.933   1.886 -0.2406  0.0324  0.7608
16648SOL    HW253476  10.351   7.861   1.892  0.0274 -0.6746 -0.9737
16649SOL     OW53477   5.262   5.784   3.246  0.3266  0.4511  0.4145
16649SOL    HW153478   5.243   5.836   3.324 -0.4576  0.6900  0.0718
16649SOL    HW253479   5.354   5.803   3.226  0.3164  0.9658  0.8423
16650SOL     OW53480   4.835  10.690   7.611  0.2357 -0.1280 -0.1811
16650SOL    HW153481   4.814  10.776   7.647 -1.4250 -0.7355  0.4015
16650SOL    HW253482   4.919  10.667   7.651 -0.1399  0.4868  1.0181
16651SOL     OW53483  10.919   2.794   6.571  0.4008  0.3890  0.0953
16651SOL    HW153484  10.862   2.759   6.502  1.6512  0.9120 -1.2466
16651SOL    HW253485  10.860   2.847   6.625 -0.8366 -0.9833  0.1610
16652SOL     OW53486   6.130  11.085   2.470 -0.4030 -0.0367 -0.3181
16652SOL    HW153487   6.051  11.062   2.519  0.5444 -1.3542  0.7013
16652SOL    HW253488   6.180  11.003   2.466  1.0836  0.8361 -0.5874
16653SOL     OW53489   4.732   0.211   7.686  0.6307  0.4101 -0.8576
16653SOL    HW153490   4.810   0.260   7.660  0.2000  0.2188 -2.6865
16653SOL    HW253491   4.665   0.277   7.699  0.7362  0.4800 -0.6686
16654SOL     OW53492   1.071   4.693   0.730 -0.0787 -0.6833  0.1636
16654SOL    HW153493   1.023   4.631   0.675 -0.9154 -0.5947  0.7716
16654SOL    HW253494   1.016   4.772   0.730  0.3496 -0.3816  0.4252
16655SOL     OW53495   9.631   1.074   9.711  0.2537 -0.2485  0.5300
16655SOL    HW153496   9.670   0.987   9.724 -0.8136 -0.9187 -0.5336
16655SOL    HW253497   9.539   1.056   9.690  0.0135  1.1492  0.2936
16656SOL     OW53498   3.748  10.372   1.406 -0.5298 -0.5046 -0.1480
16656SOL    HW153499   3.783  10.458   1.383 -2.9109  0.4205 -0.6029
16656SOL    HW253500   3.695  10.388   1.484  0.3101 -1.9286  0.7691
16657SOL     OW53501   4.481   4.082   1.137  0.3309 -0.2158  0.4921
16657SOL    HW153502   4.473   4.025   1.214  2.4614 -0.2519  0.7569
16657SOL    HW253503   4.498   4.021   1.065 -1.6887 -0.1844 -0.0734
16658SOL     OW53504   2.859   1.191  10.199 -0.1654  0.3298 -0.2517
16658SOL    HW153505   2.844   1.192  10.293  2.5324 -5.0376  0.5897
16658SOL    HW253506   2.787   1.140  10.163  0.6259 -0.6441 -0.5001
16659SOL     OW53507  10.056   6.412   2.245  0.2012 -0.1754  0.0205
16659SOL    HW153508  10.002   6.426   2.322 -0.0545 -0.5261 -0.0895
16659SOL    HW253509  10.139   6.379   2.279  0.4223  0.5644  0.2043
16660SOL     OW53510   7.863   6.650   6.976  0.1784 -0.0210  0.2190
16660SOL    HW153511   7.954   6.671   6.998  0.4727 -0.5421 -0.4599
16660SOL    HW253512   7.857   6.668   6.882 -0.8080  1.3323  0.5020
16661SOL     OW53513   5.956   7.406   5.518  0.0731 -0.2581  0.0512
16661SOL    HW153514   5.942   7.322   5.563 -0.4412  0.2309  0.8257
16661SOL    HW253515   5.870   7.429   5.482  0.2701 -0.1798 -0.3771
16662SOL     OW53516   0.580   2.324   9.740  0.1858 -0.4514 -0.0639
16662SOL    HW153517   0.582   2.231   9.763 -0.5495 -0.1554  1.2733
16662SOL    HW253518   0.496   2.355   9.772 -0.5983  0.1954 -2.5473
16663SOL     OW53519   6.276   8.896   2.619 -0.0021 -0.1089 -0.3420
16663SOL    HW153520   6.320   8.815   2.645 -1.2736 -0.2898  1.4943
16663SOL    HW253521   6.347   8.959   2.606  0.9227 -1.0951 -0.2033
16664SOL     OW53522   1.584   3.652   4.973  0.0517 -0.2560  0.4387
16664SOL    HW153523   1.551   3.575   4.926  0.5600 -0.6719  0.7505
16664SOL    HW253524   1.539   3.649   5.058 -0.3633  0.1212  0.2367
16665SOL     OW53525   1.946   7.487   2.980 -0.3716 -0.1370 -0.3360
16665SOL    HW153526   2.009   7.523   3.043 -1.3927  0.0733  0.5839
16665SOL    HW253527   1.933   7.557   2.916 -1.7398  0.8841  0.9988
16666SOL     OW53528   9.591   3.189   2.409  0.2976 -0.3369  0.5352
16666SOL    HW153529   9.614   3.281   2.425  0.3670 -0.3281  0.3927
16666SOL    HW253530   9.628   3.171   2.322 -1.1246 -0.0270 -0.1587
16667SOL     OW53531   0.947   3.626   5.963 -0.0123  0.2154  0.1076
16667SOL    HW153532   0.931   3.720   5.968  0.0339  0.1541  2.4899
16667SOL    HW253533   1.018   3.611   6.026  1.1575 -1.1949 -1.4721
16668SOL     OW53534   2.725   7.800   4.078 -0.5657 -0.4159 -0.8127
16668SOL    HW153535   2.674   7.725   4.049 -0.5292 -0.0325 -1.9235
16668SOL    HW253536   2.810   7.764   4.102 -1.0116 -0.9157  0.0417
16669SOL     OW53537   2.377   6.487   4.416 -0.3335  0.0323  0.3965
16669SOL    HW153538   2.312   6.520   4.478 -1.9743 -2.0249 -0.0959
16669SOL    HW253539   2.342   6.511   4.330 -0.1852 -0.6462  0.1445
16670SOL     OW53540   4.347   9.912   2.321 -0.0064 -0.1472 -0.5181
16670SOL    HW153541   4.283   9.975   2.354  0.0213 -0.3224 -0.1250
16670SOL    HW253542   4.396   9.884   2.398 -1.5641 -2.4229 -0.2393
16671SOL     OW53543   9.581   4.042   5.239 -0.4760 -0.4630  0.6028
16671SOL    HW153544   9.524   3.976   5.279 -0.2911 -0.0675  1.5554
16671SOL    HW253545   9.648   4.060   5.305  0.9383 -1.1077 -0.6046
16672SOL     OW53546   7.055   6.334   5.782 -0.5334  0.4636  0.0741
16672SOL    HW153547   7.054   6.312   5.689  0.3235  0.0476  0.1543
16672SOL    HW253548   7.088   6.255   5.825 -1.1542  0.5644  0.7630
16673SOL     OW53549   3.249   2.582   4.795  0.4308  0.4618 -0.8277
16673SOL    HW153550   3.166   2.540   4.818  1.1119  0.4031  1.9744
16673SOL    HW253551   3.304   2.511   4.763  0.8892 -0.5556  1.9172
16674SOL     OW53552   9.197   8.637   3.764 -0.0342 -0.0308 -0.5212
16674SOL    HW153553   9.108   8.624   3.796 -0.0250 -1.0986 -0.8992
16674SOL    HW253554   9.212   8.563   3.705  0.1637  1.5161 -2.5234
16675SOL     OW53555  10.336   8.186   5.607  0.0125 -0.4090 -0.0653
16675SOL    HW153556  10.427   8.210   5.588 -0.7127  1.8278 -1.0386
16675SOL    HW253557  10.295   8.267   5.637 -0.9792 -2.0173  3.4277
16676SOL     OW53558   1.499   9.064   2.366 -0.6712  0.3100  0.8462
16676SOL    HW153559   1.404   9.053   2.361 -0.6949 -0.4429  2.3403
16676SOL    HW253560   1.526   9.003   2.435  0.7173  1.4799  1.3788
16677SOL     OW53561   1.282   7.799  11.033  0.3646  0.4196  0.1238
16677SOL    HW153562   1.231   7.760  10.962 -1.0047  0.3392  1.1227
16677SOL    HW253563   1.302   7.887  11.002  0.3101  0.1866 -0.6072
16678SOL     OW53564   9.990   8.058  10.622  0.2683  0.0023  0.1366
16678SOL    HW153565   9.914   8.001  10.623 -0.0805  0.4683  0.7657
16678SOL    HW253566   9.970   8.124  10.555 -0.5743  1.0227  1.3476
16679SOL     OW53567   9.933   9.391   6.297  0.2819 -0.2349  0.5755
16679SOL    HW153568   9.944   9.400   6.391  0.8799 -0.0292  0.4913
16679SOL    HW253569  10.022   9.390   6.262  0.1465 -2.1628  0.1779
16680SOL     OW53570   5.939   5.298   7.510  0.4264  0.6553  0.0372
16680SOL    HW153571   5.970   5.372   7.458  0.4980 -0.7342 -1.9812
16680SOL    HW253572   6.002   5.228   7.494  0.1940  0.0149  1.6655
16681SOL     OW53573   1.178   0.864   1.812 -0.3924 -0.4221  0.0213
16681SOL    HW153574   1.151   0.954   1.790 -0.4274  0.3243  2.7436
16681SOL    HW253575   1.106   0.830   1.865  0.9858 -0.8567  1.7033
16682SOL     OW53576   5.143  10.675  10.956  0.1614 -0.0027 -0.0587
16682SOL    HW153577   5.096  10.686  11.039 -1.6710 -2.6972 -0.6078
16682SOL    HW253578   5.210  10.609  10.975  0.3134  0.0185 -0.5030
16683SOL     OW53579   9.485   1.010   2.614  0.0852  0.2004  0.1977
16683SOL    HW153580   9.428   0.952   2.563  1.6338 -0.6439 -0.6190
16683SOL    HW253581   9.573   0.993   2.581  0.6553  2.7133  0.2234
16684SOL     OW53582   0.906  10.340   7.611  0.1031 -0.0698  0.3855
16684SOL    HW153583   0.847  10.384   7.673  0.4276  1.0453 -0.0768
16684SOL    HW253584   0.972  10.299   7.666 -0.2002  0.0329  0.8323
16685SOL     OW53585  11.127   9.350   4.116 -0.5437 -0.4755  0.1406
16685SOL    HW153586  11.208   9.317   4.078 -1.0007 -1.3430 -0.1026
16685SOL    HW253587  11.127   9.316   4.205 -0.0554  0.5553  0.5488
16686SOL     OW53588   2.429   4.651   6.764  0.2544  0.0167  0.1293
16686SOL    HW153589   2.357   4.608   6.810  0.5561 -0.0981  0.5027
16686SOL    HW253590   2.432   4.739   6.803 -0.7037  0.5761 -1.0019
16687SOL     OW53591   7.119   1.156   8.674  0.5646  0.1676  0.5633
16687SOL    HW153592   7.060   1.209   8.727  1.2172  1.3705  0.1265
16687SOL    HW253593   7.069   1.078   8.652 -0.2345  0.3389  1.6742
16688SOL     OW53594   2.217  10.602   3.189  0.1240 -0.4079 -0.0987
16688SOL    HW153595   2.281  10.626   3.256  0.7676  0.5720 -1.0425
16688SOL    HW253596   2.134  10.635   3.223  0.4824  0.2788  0.1320
16689SOL     OW53597   1.664   3.705   5.580  0.5844 -0.5259  0.2825
16689SOL    HW153598   1.611   3.630   5.607 -0.0326 -0.2350 -0.0971
16689SOL    HW253599   1.692   3.745   5.662  0.3000 -0.7445  0.4908
16690SOL     OW53600   0.154   9.529   9.483 -0.1811  0.1463  0.3423
16690SOL    HW153601   0.200   9.479   9.551  0.8206  2.0293  1.1187
16690SOL    HW253602   0.164   9.476   9.404  2.0140 -0.2918  0.8340
16691SOL     OW53603   2.760   7.419   4.629  0.0998 -0.0444  0.1750
16691SOL    HW153604   2.783   7.512   4.629  1.0292 -0.2656  0.5412
16691SOL    HW253605   2.834   7.375   4.672  1.5200 -1.3917 -3.2926
16692SOL     OW53606   2.869   4.592   0.045 -0.2506 -0.3311  0.2044
16692SOL    HW153607   2.934   4.633  -0.012 -0.6617 -1.9814 -1.5899
16692SOL    HW253608   2.785   4.616   0.006 -0.5739 -1.0146  0.4660
16693SOL     OW53609   9.099   1.995   7.074  0.1224  0.3167 -0.5386
16693SOL    HW153610   9.143   2.016   7.156  1.3346 -0.3532 -0.9902
16693SOL    HW253611   9.009   1.974   7.099  0.6258 -0.4737  0.6935
16694SOL     OW53612   2.072  10.422   8.927 -1.2416  0.3043 -0.6688
16694SOL    HW153613   2.118  10.506   8.937  0.5284 -0.7329  0.5075
16694SOL    HW253614   1.986  10.446   8.892 -1.1871  2.6986  0.5972
16695SOL     OW53615   9.270   2.163   5.375 -0.3495 -0.2971  0.0812
16695SOL    HW153616   9.318   2.208   5.445 -1.9496  0.2492  0.8733
16695SOL    HW253617   9.338   2.132   5.315  0.9691  0.5447  1.0942
16696SOL     OW53618   8.893  10.566   2.822  0.1006  1.0182  1.1752
16696SOL    HW153619   8.964  10.627   2.843  0.1562  0.8930  1.3575
16696SOL    HW253620   8.813  10.615   2.843  0.1354  1.1297  1.0470
16697SOL     OW53621   2.054   4.093   9.265  0.0288 -0.4119  0.3992
16697SOL    HW153622   2.018   4.181   9.254  1.7980  0.3344  0.1197
16697SOL    HW253623   2.141   4.098   9.224  0.3161 -2.1866  0.7159
16698SOL     OW53624   5.094   6.339   3.510 -0.4469  0.0492  0.7286
16698SOL    HW153625   5.125   6.370   3.425 -0.6119 -0.6131  0.4156
16698SOL    HW253626   5.042   6.411   3.544  1.1716  1.0785  1.1389
16699SOL     OW53627   0.567  10.079   3.187 -0.3857 -0.0231  0.3015
16699SOL    HW153628   0.497  10.137   3.157 -0.2281 -0.6588 -1.4051
16699SOL    HW253629   0.527   9.992   3.190 -0.5841  0.0776  2.7201
16700SOL     OW53630   8.411   8.050   9.007 -0.0256 -0.6550 -0.3649
16700SOL    HW153631   8.438   8.117   8.944 -0.1717 -1.7760 -1.6995
16700SOL    HW253632   8.492   8.004   9.029 -0.2296 -1.5868 -1.4089
16701SOL     OW53633   2.451   4.631   0.941 -0.4278 -0.5364 -0.2930
16701SOL    HW153634   2.378   4.690   0.926  0.1608  0.9686  2.1304
16701SOL    HW253635   2.414   4.543   0.933 -2.7251  0.1652  1.5331
16702SOL     OW53636   5.561   2.598   4.286  0.3527  0.3333  0.1631
16702SOL    HW153637   5.591   2.644   4.365 -0.4625  0.8952  0.1577
16702SOL    HW253638   5.532   2.513   4.318 -1.6780  1.2015  0.7961
16703SOL     OW53639   4.313   3.363   0.614  0.2288  0.4892 -0.5856
16703SOL    HW153640   4.272   3.420   0.679 -0.8802 -1.3019  0.3922
16703SOL    HW253641   4.392   3.409   0.587 -0.7049  2.5363 -0.0092
16704SOL     OW53642   1.314   9.148   0.784  0.1098 -0.3525  0.1115
16704SOL    HW153643   1.230   9.166   0.825  0.0109 -0.6134  0.0206
16704SOL    HW253644   1.355   9.083   0.841  0.2233 -0.2760  0.1189
16705SOL     OW53645   6.515   7.861   2.053 -0.0820  0.0640 -0.2616
16705SOL    HW153646   6.604   7.848   2.020  0.6489  0.0112  1.5868
16705SOL    HW253647   6.475   7.774   2.049 -0.3277  0.2221 -1.7644
16706SOL     OW53648   8.240   3.692  10.941  0.5425  0.1813  0.0264
16706SOL    HW153649   8.316   3.737  10.904  0.4364 -1.1480 -2.0123
16706SOL    HW253650   8.168   3.753  10.927  1.1429  1.3927  1.8420
16707SOL     OW53651   9.392  10.620   5.653  0.0349  0.3589 -0.3434
16707SOL    HW153652   9.438  10.679   5.713 -0.0562 -0.0212  0.1094
16707SOL    HW253653   9.306  10.606   5.694 -0.3367  0.7456 -0.9777
16708SOL     OW53654   3.126   2.824   0.548  0.0786  0.1727  0.1606
16708SOL    HW153655   3.139   2.900   0.604 -0.5588  0.4414 -0.0340
16708SOL    HW253656   3.040   2.839   0.508 -0.9905 -1.6372  1.6597
16709SOL     OW53657   2.027   6.022   0.139 -0.7502 -0.0402 -0.3084
16709SOL    HW153658   2.005   6.058   0.225 -2.7799 -0.0670 -0.7514
16709SOL    HW253659   1.943   6.022   0.092  0.2822 -0.1699 -2.2350
16710SOL     OW53660   2.833   4.430   6.464 -0.4047  0.1500  0.0184
16710SOL    HW153661   2.740   4.431   6.487 -0.4903  2.5392 -0.1705
16710SOL    HW253662   2.877   4.467   6.540  0.2101  0.4875 -0.4902
16711SOL     OW53663   8.415   5.505   0.498 -0.0578  0.0831  0.0058
16711SOL    HW153664   8.496   5.550   0.474  0.2549 -1.4134 -2.0289
16711SOL    HW253665   8.443   5.424   0.539 -0.5587  0.0802  0.3592
16712SOL     OW53666   7.377   9.020   2.492 -0.0094 -0.1409  0.3812
16712SOL    HW153667   7.339   9.098   2.453 -1.5221 -0.8222  0.4351
16712SOL    HW253668   7.431   9.053   2.564 -0.4815  0.8649  0.2878
16713SOL     OW53669   2.525   9.507   3.172 -0.3304  0.2988  0.2095
16713SOL    HW153670   2.431   9.517   3.186 -0.4547 -0.5939  0.1184
16713SOL    HW253671   2.565   9.533   3.255 -0.6854  0.2945  0.3845
16714SOL     OW53672   2.309   2.513   2.466 -0.0534 -0.2336 -0.2247
16714SOL    HW153673   2.383   2.531   2.524 -0.1308 -0.9934  0.1206
16714SOL    HW253674   2.314   2.582   2.399  0.3909  0.2954  0.3378
16715SOL     OW53675   5.439   1.414   7.760 -0.2493 -0.1801 -0.2433
16715SOL    HW153676   5.438   1.482   7.693 -0.7918  0.1977  0.1361
16715SOL    HW253677   5.482   1.340   7.719  0.3589  0.3961 -0.6608
16716SOL     OW53678   0.124   0.848   9.885  0.7833 -0.2410  0.0504
16716SOL    HW153679   0.206   0.809   9.914  0.9103 -0.5786 -0.7354
16716SOL    HW253680   0.148   0.935   9.852  0.7442 -0.1312  0.3113
16717SOL     OW53681   8.290   5.532  10.029 -0.5984  0.5739 -0.7550
16717SOL    HW153682   8.247   5.452  10.058 -2.8908  2.0270  0.1915
16717SOL    HW253683   8.381   5.523  10.057 -0.8404 -1.6004 -0.5367
16718SOL     OW53684   7.264  10.924   7.717 -0.6478  0.1928 -0.0072
16718SOL    HW153685   7.272  11.005   7.767 -1.8813 -0.9091  2.1527
16718SOL    HW253686   7.170  10.916   7.700 -0.5543 -0.7941 -0.1282
16719SOL     OW53687   3.086   1.860   5.960 -0.1371  0.0810 -0.1303
16719SOL    HW153688   3.089   1.764   5.956 -1.4729  0.0415 -0.7138
16719SOL    HW253689   3.103   1.881   6.051 -1.8038 -0.8318  0.4314
16720SOL     OW53690   1.228  10.730   1.024 -0.1403  0.4057  0.2368
16720SOL    HW153691   1.259  10.696   0.940  0.8495  0.9467  0.3708
16720SOL    HW253692   1.176  10.659   1.061  1.7550 -0.9393  0.4512
16721SOL     OW53693   3.112   5.796   8.184 -0.2914 -0.2338 -0.2846
16721SOL    HW153694   3.082   5.814   8.273  0.7486 -0.9367  0.2254
16721SOL    HW253695   3.138   5.704   8.186 -0.5516 -0.3395 -1.4064
16722SOL     OW53696   8.504   0.126   6.772 -0.1226  0.0679 -0.2151
16722SOL    HW153697   8.534   0.197   6.829 -0.1132 -0.1153  0.0112
16722SOL    HW253698   8.582   0.100   6.723 -0.1999  0.4281 -0.5269
16723SOL     OW53699   5.456   2.991   7.445  0.0370 -0.1011 -0.0567
16723SOL    HW153700   5.491   2.989   7.355 -0.6065  0.0157 -0.3129
16723SOL    HW253701   5.389   3.059   7.443 -0.3682 -0.4860  0.3714
16724SOL     OW53702   0.786   1.720   1.456 -0.1732  0.1080 -0.0375
16724SOL    HW153703   0.848   1.767   1.400 -0.7322 -0.8129 -1.4892
16724SOL    HW253704   0.700   1.741   1.419 -0.5296 -0.8374  0.2296
16725SOL     OW53705   2.550   9.146   1.631 -0.6276 -0.4675 -0.3301
16725SOL    HW153706   2.616   9.085   1.597  0.2108  0.2847 -0.0860
16725SOL    HW253707   2.470   9.095   1.634  0.2246 -1.8102  0.6252
16726SOL     OW53708   6.295   5.357   9.598  0.1604 -0.3589  0.1513
16726SOL    HW153709   6.212   5.315   9.620 -1.2963  0.8697 -2.4083
16726SOL    HW253710   6.296   5.357   9.502  2.3441  1.1391  0.1144
16727SOL     OW53711   7.896   4.584  10.805 -0.0154 -0.2664 -0.2547
16727SOL    HW153712   7.989   4.569  10.788 -0.2638 -0.0224 -1.9566
16727SOL    HW253713   7.867   4.504  10.849  0.8281 -0.6603 -0.3887
16728SOL     OW53714   3.890   6.042   5.498  0.2332  0.2114  0.5348
16728SOL    HW153715   3.815   5.984   5.486 -1.8201  1.8066  3.9261
16728SOL    HW253716   3.907   6.078   5.411 -1.9472 -1.3619 -0.6448
16729SOL     OW53717   9.766   3.922  10.900 -0.1728  0.5699  0.6579
16729SOL    HW153718   9.773   3.881  10.986  0.5939  0.2107  0.4331
16729SOL    HW253719   9.835   3.881  10.848 -0.0860  1.3729  0.1126
16730SOL     OW53720   0.317  10.949   6.663  0.0791 -0.4493  0.3122
16730SOL    HW153721   0.223  10.944   6.678  0.0065 -1.2866 -0.3581
16730SOL    HW253722   0.340  10.864   6.625  0.7999  0.3655 -1.1514
16731SOL     OW53723   0.280   6.992   8.894 -0.2824  0.8652  0.2549
16731SOL    HW153724   0.247   7.082   8.888 -1.2623  0.4811 -0.2844
16731SOL    HW253725   0.228   6.952   8.964  0.0150  0.6560  0.3573
16732SOL     OW53726   5.567   6.743   1.630 -0.4394  0.6058  0.5777
16732SOL    HW153727   5.606   6.692   1.701 -1.2469 -2.6579 -1.1450
16732SOL    HW253728   5.480   6.706   1.619 -0.2677  0.8308 -2.2231
16733SOL     OW53729  10.152   2.951   0.202 -0.2041 -0.0506  0.1454
16733SOL    HW153730  10.160   2.857   0.210 -0.0790 -0.0679 -0.1531
16733SOL    HW253731  10.210   2.987   0.269 -1.1092 -0.1813  1.0293
16734SOL     OW53732   2.204   9.526  10.244  0.1026 -0.1426  0.4959
16734SOL    HW153733   2.246   9.454  10.198 -0.6186  0.7821 -1.7225
16734SOL    HW253734   2.270   9.557  10.306  0.2051 -3.0783  2.0304
16735SOL     OW53735   8.253   0.267   8.683 -0.6926  0.3843 -0.5036
16735SOL    HW153736   8.215   0.322   8.752 -1.0658  1.5107 -1.5660
16735SOL    HW253737   8.196   0.190   8.681 -0.0748 -0.1471  1.1082
16736SOL     OW53738   8.665   7.597   3.304 -0.3186 -0.2943  0.3128
16736SOL    HW153739   8.691   7.508   3.329  0.2341 -0.7109 -1.6125
16736SOL    HW253740   8.570   7.591   3.293 -0.6516 -0.0038  2.4887
16737SOL     OW53741  10.595   5.078  10.049 -0.1922 -0.2566  0.0294
16737SOL    HW153742  10.510   5.035  10.056 -0.3061 -0.1053 -0.3997
16737SOL    HW253743  10.614   5.108  10.138 -0.5045 -0.4483  0.1627
16738SOL     OW53744   9.848  10.932  10.408 -0.4402 -0.1270 -0.5888
16738SOL    HW153745   9.789  10.975  10.347  0.7580  2.4849 -0.0303
16738SOL    HW253746   9.927  10.915  10.357  0.7711  2.5675  0.2636
16739SOL     OW53747  10.141   2.116   3.422 -0.4852 -0.1465 -0.3986
16739SOL    HW153748  10.118   2.187   3.363  0.4984  0.0850 -0.5182
16739SOL    HW253749  10.218   2.148   3.470  1.3300 -1.9020 -1.9590
16740SOL     OW53750   3.691   5.426   0.845 -0.5216  0.0517 -0.7246
16740SOL    HW153751   3.715   5.508   0.888 -0.1083  0.3492 -1.5048
16740SOL    HW253752   3.766   5.406   0.789 -2.0003  0.9977 -3.2295
16741SOL     OW53753   8.598  10.599   4.324 -0.2530 -0.4384  0.5556
16741SOL    HW153754   8.528  10.539   4.299  1.3886 -2.4323  0.5496
16741SOL    HW253755   8.673  10.543   4.342  1.1033  1.5601  1.4874
16742SOL     OW53756   1.207   1.693   4.129 -0.9048  0.1503 -0.2765
16742SOL    HW153757   1.237   1.709   4.219 -0.4081  0.5228 -0.5031
16742SOL    HW253758   1.265   1.746   4.075  1.4546 -2.9660 -1.1589
16743SOL     OW53759   1.495   1.283   9.501 -0.2144 -0.0022 -0.4111
16743SOL    HW153760   1.417   1.276   9.446  0.2431  1.9805 -1.3716
16743SOL    HW253761   1.468   1.337   9.575 -0.4317 -1.5086  0.6760
16744SOL     OW53762   6.621   0.015   4.871  0.3735  0.1652 -0.0015
16744SOL    HW153763   6.595  -0.077   4.865  0.6441  0.0870  0.0367
16744SOL    HW253764   6.714   0.013   4.891  0.1053  0.4259  1.3906
16745SOL     OW53765   9.488   1.243   1.284 -0.1082  0.4334 -0.4531
16745SOL    HW153766   9.433   1.248   1.362 -1.7369  2.8559 -1.6628
16745SOL    HW253767   9.495   1.149   1.266  1.4179 -0.3713  3.2360
16746SOL     OW53768   7.822  10.510   2.932  0.3300  0.2686  1.0920
16746SOL    HW153769   7.785  10.595   2.908  0.4430  0.9004  2.9720
16746SOL    HW253770   7.894  10.531   2.991  2.9140 -1.0029 -1.3483
16747SOL     OW53771   9.400   5.247   2.056 -0.0919 -0.2380 -0.6935
16747SOL    HW153772   9.306   5.237   2.044 -0.1256 -0.6447 -0.1376
16747SOL    HW253773   9.436   5.159   2.045 -0.0049 -0.4393  0.8982
16748SOL     OW53774   0.330   7.917   4.910  0.1700 -0.0423  0.1457
16748SOL    HW153775   0.377   7.997   4.887  0.0652  0.4386  1.5229
16748SOL    HW253776   0.245   7.925   4.865  0.8107 -0.2409 -1.1648
16749SOL     OW53777   8.384   0.092   1.763  0.3029  0.4875  0.4789
16749SOL    HW153778   8.405   0.025   1.827  1.1652  0.3714  0.0790
16749SOL    HW253779   8.403   0.175   1.808 -1.6427  0.5495  1.3058
16750SOL     OW53780   9.568   6.237  10.548  0.1865 -0.7984  0.2654
16750SOL    HW153781   9.583   6.234  10.642 -1.2486 -0.9742  0.5087
16750SOL    HW253782   9.598   6.324  10.522 -0.7517 -0.1828  1.1498
16751SOL     OW53783   5.611   4.741   3.702  0.0338  0.3738 -0.0872
16751SOL    HW153784   5.700   4.773   3.717 -2.0161  6.0926  2.5765
16751SOL    HW253785   5.609   4.720   3.608  4.0131  0.0085 -0.2956
16752SOL     OW53786   2.679   7.909   6.412 -0.0536 -0.7713 -0.0526
16752SOL    HW153787   2.618   7.851   6.367 -2.2207 -0.4579  2.2468
16752SOL    HW253788   2.678   7.879   6.503  0.6284  1.3552  0.7247
16753SOL     OW53789   2.189   2.926   8.254 -0.2745 -0.4246 -0.6854
16753SOL    HW153790   2.100   2.899   8.229 -0.6733  1.7198 -1.8214
16753SOL    HW253791   2.246   2.879   8.194 -0.7971 -0.3387 -1.2625
16754SOL     OW53792   5.290   4.107   6.735  0.0209  0.0145  0.4900
16754SOL    HW153793   5.321   4.148   6.655  1.0799 -0.7367  0.4898
16754SOL    HW253794   5.296   4.175   6.802  4.1362 -0.6610  1.0554
16755SOL     OW53795   3.387  10.791   4.357 -0.0527  0.4244 -0.5123
16755SOL    HW153796   3.343  10.747   4.284 -1.4138 -0.8152  0.9672
16755SOL    HW253797   3.461  10.734   4.378  0.1773  0.6377 -0.7356
16756SOL     OW53798   8.625   5.117   9.993  0.1443  0.6255 -0.3600
16756SOL    HW153799   8.690   5.048  10.002  0.3942  0.9303  0.2203
16756SOL    HW253800   8.669   5.186   9.943 -0.4465 -0.0442 -1.8937
16757SOL     OW53801   2.396   2.889  10.029  0.2835  0.0699 -0.4218
16757SOL    HW153802   2.422   2.898   9.937 -0.1901 -0.1581 -0.5817
16757SOL    HW253803   2.312   2.936  10.034 -0.5717 -1.3980 -0.5170
16758SOL     OW53804   6.370   5.273   3.658 -0.7753 -0.0704 -0.1563
16758SOL    HW153805   6.294   5.223   3.687  0.1786 -0.1705  2.5132
16758SOL    HW253806   6.427   5.208   3.616 -1.2222 -0.4420 -0.1959
16759SOL     OW53807   4.058   8.831   8.612  0.3192  0.3748  0.0592
16759SOL    HW153808   4.083   8.799   8.526 -1.4447 -0.6693 -0.1280
16759SOL    HW253809   4.084   8.761   8.672  1.0504  0.8607  0.3193
16760SOL     OW53810   0.445   9.241   1.399 -0.6541 -0.0740  0.3261
16760SOL    HW153811   0.476   9.162   1.444 -1.2530 -0.4375  0.1119
16760SOL    HW253812   0.487   9.237   1.313 -1.1839 -0.5049  0.0790
16761SOL     OW53813   1.835   0.744   2.168 -0.7296 -0.0250 -0.4457
16761SOL    HW153814   1.891   0.673   2.198  0.4546  0.7964 -0.6225
16761SOL    HW253815   1.886   0.787   2.098 -0.6974  1.9282  0.7003
16762SOL     OW53816   5.008  10.647   2.330 -0.5412  0.0003 -0.0685
16762SOL    HW153817   5.093  10.653   2.373 -0.7059 -0.2576  0.3029
16762SOL    HW253818   5.010  10.563   2.284 -1.3634 -1.0751  1.6937
16763SOL     OW53819   2.678   9.480   3.844 -0.1416  0.1076  0.5218
16763SOL    HW153820   2.608   9.528   3.799  0.9249 -0.9295 -2.5001
16763SOL    HW253821   2.648   9.389   3.847  0.7290 -0.2252 -0.1869
16764SOL     OW53822   7.726   5.584   1.393 -0.1300 -0.0549  0.1646
16764SOL    HW153823   7.735   5.593   1.298  0.0346  1.1400  0.2820
16764SOL    HW253824   7.659   5.517   1.405  0.3796 -0.7634 -0.7862
16765SOL     OW53825   8.787  10.052   6.239  0.2983  0.1860 -0.7580
16765SOL    HW153826   8.692  10.047   6.236  0.2343  0.4224  0.4104
16765SOL    HW253827   8.806  10.095   6.323  1.4262  0.1888 -1.0005
16766SOL     OW53828   5.629   5.377   5.767 -0.0445 -0.0429  0.9346
16766SOL    HW153829   5.552   5.401   5.818  0.4767  2.7882  0.5315
16766SOL    HW253830   5.694   5.352   5.832 -0.5456 -0.1554  1.4038
16767SOL     OW53831   0.461  10.304  10.672  0.4349  0.3341 -0.2041
16767SOL    HW153832   0.455  10.222  10.721  0.1540  0.1935 -0.4651
16767SOL    HW253833   0.385  10.302  10.613 -0.5143  1.5418  0.9148
16768SOL     OW53834  10.294   9.009   8.734  0.4536 -0.3057  0.3391
16768SOL    HW153835  10.229   8.998   8.665 -0.4580  0.0678  1.1247
16768SOL    HW253836  10.378   9.002   8.689 -0.0985  1.7583 -1.1291
16769SOL     OW53837   7.746   3.740   2.442 -0.6322 -0.4801 -0.5468
16769SOL    HW153838   7.662   3.711   2.407 -1.3770 -2.0473  2.2272
16769SOL    HW253839   7.810   3.683   2.400 -0.7460  1.1807 -3.2124
16770SOL     OW53840  10.610   1.431   5.109 -0.4142  0.4231 -0.2995
16770SOL    HW153841  10.656   1.449   5.191 -0.5303 -2.0537  0.3808
16770SOL    HW253842  10.655   1.485   5.044  1.4063  0.4680  0.9172
16771SOL     OW53843   0.498   7.489   2.791  0.1315 -0.1418  0.0777
16771SOL    HW153844   0.453   7.554   2.846 -2.1679 -0.8682 -0.8045
16771SOL    HW253845   0.456   7.406   2.814  1.8542 -1.0769 -0.0158
16772SOL     OW53846   0.889   7.373   1.761  0.1886  0.1000 -0.4439
16772SOL    HW153847   0.815   7.371   1.700 -0.6789 -0.9108  0.5882
16772SOL    HW253848   0.950   7.307   1.729  0.0257  0.0126 -0.5732
16773SOL     OW53849   0.985   3.804   4.155  0.1635  0.1719  0.8001
16773SOL    HW153850   0.926   3.875   4.181 -0.2399  0.2831 -0.3495
16773SOL    HW253851   1.072   3.842   4.163  0.1800 -0.2520  3.3055
16774SOL     OW53852  10.011   3.091   8.018 -0.3255  0.0532 -0.1576
16774SOL    HW153853   9.953   3.032   8.067  1.6021 -0.6705  1.3730
16774SOL    HW253854  10.074   3.121   8.083 -0.4921  2.8850 -1.1822
16775SOL     OW53855   5.517   1.899   0.603  0.1394  0.4121  0.0386
16775SOL    HW153856   5.532   1.935   0.515  0.1162  1.9454  0.6366
16775SOL    HW253857   5.601   1.907   0.647  0.3921 -1.1762 -0.0899
16776SOL     OW53858   6.942   0.173   0.319 -0.0638  0.0377 -0.5149
16776SOL    HW153859   6.920   0.254   0.365 -0.3730 -0.5964  0.4899
16776SOL    HW253860   6.871   0.161   0.255 -0.9705 -0.3296  0.5238
16777SOL     OW53861   4.786   8.954  10.344 -0.2328 -0.5512 -0.2041
16777SOL    HW153862   4.737   8.872  10.356  0.1296 -0.7653 -0.1529
16777SOL    HW253863   4.848   8.934  10.273 -0.4777 -0.1669 -0.5227
16778SOL     OW53864   4.041   0.847   7.652  0.4945  0.3686  0.0528
16778SOL    HW153865   4.012   0.768   7.607 -1.3758  0.1610  1.4769
16778SOL    HW253866   3.971   0.911   7.635  1.8186  1.6624 -0.8239
16779SOL     OW53867   4.290   1.116   3.518 -0.5468 -0.5417  0.2516
16779SOL    HW153868   4.384   1.116   3.534 -0.5412  1.1390  0.4141
16779SOL    HW253869   4.255   1.178   3.582 -1.5876 -0.0513 -0.7574
16780SOL     OW53870   7.695   8.857   1.123  0.1827 -0.3944  0.0082
16780SOL    HW153871   7.724   8.948   1.122 -2.0996  0.5983  3.7652
16780SOL    HW253872   7.760   8.811   1.176  1.2075 -0.9801 -1.6917
16781SOL     OW53873   2.116   0.736   7.626 -0.2344  0.1159  0.1500
16781SOL    HW153874   2.111   0.696   7.540 -0.7363  2.3248 -0.9217
16781SOL    HW253875   2.025   0.741   7.656 -0.2328  0.8503  0.0504
16782SOL     OW53876   6.906   5.097   7.277  0.1473  0.0838  0.2892
16782SOL    HW153877   6.944   5.054   7.354  0.4242  0.3903  0.3251
16782SOL    HW253878   6.834   5.040   7.251  1.8819 -1.6279 -1.0280
16783SOL     OW53879   9.474   4.897  10.647 -0.3611  0.0053  0.8777
16783SOL    HW153880   9.422   4.883  10.726  0.2320  1.2853  1.5296
16783SOL    HW253881   9.563   4.871  10.671 -0.5560 -1.6335 -0.0568
16784SOL     OW53882   6.089   4.652   5.759  0.0061  1.1903 -0.4077
16784SOL    HW153883   6.150   4.677   5.828 -1.1496  2.6744  0.1430
16784SOL    HW253884   6.133   4.581   5.712  1.2394  0.8093  1.2310
16785SOL     OW53885   7.964   3.469   7.101  0.1376  0.1058 -0.0301
16785SOL    HW153886   8.000   3.486   7.014 -1.9843  0.3564 -0.9332
16785SOL    HW253887   7.946   3.556   7.137  0.8856 -0.0007  0.6087
16786SOL     OW53888   9.493   7.083   8.247 -0.4493  0.4371 -0.0422
16786SOL    HW153889   9.527   7.161   8.203 -0.0899  0.5767  0.4682
16786SOL    HW253890   9.399   7.098   8.253 -0.3206  1.0990  0.5439
16787SOL     OW53891  10.490   4.934   8.635 -0.5104  0.3090 -0.1367
16787SOL    HW153892  10.553   4.988   8.682 -1.1030  0.6553  0.2804
16787SOL    HW253893  10.453   4.992   8.569 -0.1487  0.0094 -0.6049
16788SOL     OW53894   2.277   7.797   0.327 -0.1177 -0.1461  0.5494
16788SOL    HW153895   2.240   7.858   0.263 -0.0398 -0.6847 -0.0188
16788SOL    HW253896   2.203   7.771   0.381 -0.6843 -1.4877 -0.7984
16789SOL     OW53897   0.025   4.351   1.137 -0.2484  0.1793  0.0281
16789SOL    HW153898   0.115   4.383   1.145  0.0872 -1.1924  3.2518
16789SOL    HW253899  -0.004   4.338   1.228 -1.9590 -4.0778 -0.9279
16790SOL     OW53900   4.189   2.018   3.220 -0.2675 -0.0444 -0.2868
16790SOL    HW153901   4.267   2.047   3.269 -1.9415  0.5242  2.2418
16790SOL    HW253902   4.168   2.092   3.163  0.3750  0.2794 -0.1177
16791SOL     OW53903  10.589   7.416   2.106  0.4409 -0.4117 -0.4365
16791SOL    HW153904  10.635   7.350   2.055  1.8766  0.8310 -0.8316
16791SOL    HW253905  10.539   7.466   2.041  0.8424  0.0447 -0.4027
16792SOL     OW53906   6.312  10.597   4.911  0.5215 -0.3007 -0.2581
16792SOL    HW153907   6.246  10.631   4.850  0.3593 -0.0686  0.0460
16792SOL    HW253908   6.270  10.604   4.997  1.5525  1.3664  0.1399
16793SOL     OW53909   1.057   9.633   6.177 -0.5690 -0.2729 -0.3257
16793SOL    HW153910   0.963   9.631   6.160 -0.3975 -0.0516 -1.3816
16793SOL    HW253911   1.096   9.655   6.092  0.2611  2.2908  0.6188
16794SOL     OW53912   3.020   6.028   8.413  0.3825 -0.0941 -0.3159
16794SOL    HW153913   3.089   6.095   8.403 -0.9167  1.5885  1.2343
16794SOL    HW253914   3.059   5.962   8.471 -0.0926  2.2919  3.0523
16795SOL     OW53915  10.707   8.594   2.525 -0.3526  0.1814  0.4324
16795SOL    HW153916  10.730   8.686   2.509 -1.0205  0.0954 -1.1698
16795SOL    HW253917  10.650   8.571   2.452  0.4768 -1.7572  0.3478
16796SOL     OW53918   7.545   7.705   8.420 -0.0035  0.5298 -0.0563
16796SOL    HW153919   7.502   7.790   8.420  1.1738  1.1672 -1.4496
16796SOL    HW253920   7.494   7.652   8.481 -1.4965  1.8554 -0.0954
16797SOL     OW53921   3.536   2.089   4.220 -0.0671  0.1593  0.1418
16797SOL    HW153922   3.500   2.070   4.133 -0.5728 -0.2983  0.4441
16797SOL    HW253923   3.622   2.127   4.202  0.1113 -0.5379 -0.5510
16798SOL     OW53924   3.934  10.482   0.883 -0.0071 -0.3596 -0.2608
16798SOL    HW153925   3.920  10.575   0.865 -0.3218 -0.2742  0.4085
16798SOL    HW253926   3.882  10.464   0.961 -0.1386 -1.1571 -0.5189
16799SOL     OW53927  10.131   0.374   8.988 -0.5848 -0.7579 -0.4270
16799SOL    HW153928  10.226   0.364   8.997 -0.5407  0.3503  0.5908
16799SOL    HW253929  10.101   0.288   8.959  0.7009 -1.1881 -0.5715
16800SOL     OW53930   6.757   7.303   6.580 -0.0447 -0.2144 -0.0443
16800SOL    HW153931   6.785   7.394   6.587  0.3160 -0.3088 -0.2605
16800SOL    HW253932   6.807   7.267   6.507  0.5060 -0.8417  0.6219
16801SOL     OW53933   5.207  10.320  10.408 -0.1548  0.3520 -0.1999
16801SOL    HW153934   5.242  10.394  10.459  1.7320 -0.7993  0.2767
16801SOL    HW253935   5.266  10.314  10.332  0.0253 -0.9476  0.0301
16802SOL     OW53936   0.982   1.895   0.870 -0.5884  0.6905  0.0011
16802SOL    HW153937   0.966   1.879   0.777 -0.9735 -2.2136  0.4838
16802SOL    HW253938   1.074   1.871   0.883 -0.2879  1.9022  0.2501
16803SOL     OW53939   4.837   9.608   0.007  0.3200 -0.0038  0.2292
16803SOL    HW153940   4.897   9.662  -0.045  0.2996  0.1102  0.3231
16803SOL    HW253941   4.799   9.669   0.070 -1.1978  0.3138 -0.9414
16804SOL     OW53942   7.539  10.491   9.524  0.5095 -0.2097  0.1171
16804SOL    HW153943   7.488  10.498   9.604  1.5120 -1.2462  0.8753
16804SOL    HW253944   7.474  10.488   9.454 -0.3801  0.8373  0.8546
16805SOL     OW53945   1.673   6.444   7.039 -0.2941 -0.3337 -0.3682
16805SOL    HW153946   1.751   6.422   7.090 -0.0295  0.4846 -0.4061
16805SOL    HW253947   1.607   6.465   7.106 -0.2453 -0.2397 -0.3496
16806SOL     OW53948   0.928   8.157   1.115 -0.2406 -0.1963  0.3119
16806SOL    HW153949   0.973   8.148   1.031 -2.1778  0.1864 -0.8211
16806SOL    HW253950   0.867   8.084   1.117  0.8318 -1.1174  2.1440
16807SOL     OW53951  10.628   1.083   6.193  0.0679  0.3009 -0.8566
16807SOL    HW153952  10.551   1.030   6.213 -0.5986  1.6770  0.4384
16807SOL    HW253953  10.652   1.058   6.103 -3.4836  1.5954 -2.3625
16808SOL     OW53954   9.242   7.176   8.266  0.0159 -0.4528 -0.4639
16808SOL    HW153955   9.210   7.150   8.179 -0.1380  1.2128 -0.9377
16808SOL    HW253956   9.187   7.250   8.290  0.8527 -0.1397  0.5298
16809SOL     OW53957   2.756   4.215   3.566 -0.0064 -0.6290  0.5988
16809SOL    HW153958   2.693   4.144   3.556  0.9747 -1.7648  1.9949
16809SOL    HW253959   2.771   4.247   3.477 -1.4753 -1.2565  0.0969
16810SOL     OW53960   1.611   8.141   0.553 -0.2408 -0.7525  0.3126
16810SOL    HW153961   1.634   8.171   0.640 -0.9932  2.0957 -0.3528
16810SOL    HW253962   1.694   8.135   0.506 -0.0461  0.6862  0.4251
16811SOL     OW53963   0.963   3.247   5.991 -0.0258 -0.0588  0.3480
16811SOL    HW153964   0.909   3.320   5.959  0.6458 -0.5352 -2.1497
16811SOL    HW253965   1.023   3.287   6.054  1.4953  2.0561 -2.2101
16812SOL     OW53966   2.918  10.341   2.216  0.1136  0.3484 -0.5768
16812SOL    HW153967   2.995  10.366   2.267 -0.5829 -1.3384  1.4604
16812SOL    HW253968   2.847  10.393   2.255 -0.2984 -0.3963 -0.3245
16813SOL     OW53969   4.664   7.898   9.791 -0.0540  0.2680  0.2484
16813SOL    HW153970   4.734   7.836   9.809  0.6843  1.3070  1.0454
16813SOL    HW253971   4.664   7.907   9.696  0.0287 -0.7028  0.1459
16814SOL     OW53972   9.876   8.119   9.922 -0.0812 -0.0927  0.1619
16814SOL    HW153973   9.876   8.024   9.926  1.6759 -0.0987  2.4650
16814SOL    HW253974   9.807   8.141   9.859 -0.6039 -2.8426 -0.3538
16815SOL     OW53975   0.911   0.745   2.695  0.2143 -0.2639  0.0256
16815SOL    HW153976   0.849   0.701   2.636 -0.8571  1.4078 -0.1599
16815SOL    HW253977   0.992   0.752   2.644 -0.4267  0.3555 -0.9405
16816SOL     OW53978   6.253   3.048   3.023 -0.4146 -0.0111 -0.0689
16816SOL    HW153979   6.185   3.077   3.083 -0.4464 -0.1051 -0.0600
16816SOL    HW253980   6.333   3.050   3.075 -0.5757 -0.9580  0.2377
16817SOL     OW53981  10.755   9.186   5.287  0.2720  0.1747 -0.1490
16817SOL    HW153982  10.795   9.232   5.213 -1.4829 -0.3724 -1.5224
16817SOL    HW253983  10.707   9.253   5.335 -0.2741  0.2116 -0.7310
16818SOL     OW53984   1.221   8.447   7.572 -0.1233 -0.5117  0.5172
16818SOL    HW153985   1.240   8.420   7.483  0.2952 -0.7206  0.6678
16818SOL    HW253986   1.247   8.372   7.626  0.6117  0.0033  0.9006
16819SOL     OW53987   4.963   0.249   5.002  0.2527  0.4565 -0.1193
16819SOL    HW153988   4.913   0.302   5.064  0.2099 -0.2678  0.4704
16819SOL    HW253989   5.054   0.269   5.022  0.3920 -2.0130  2.2771
16820SOL     OW53990   3.533   9.427   3.112  0.3302  0.1443 -0.1258
16820SOL    HW153991   3.565   9.337   3.110 -1.6254 -0.6262  0.2864
16820SOL    HW253992   3.536   9.451   3.205 -0.6107 -0.1093 -0.0120
16821SOL     OW53993   2.506   9.912   5.359  0.3160  0.8801  0.2549
16821SOL    HW153994   2.596   9.931   5.331 -0.6142  1.5807 -2.6337
16821SOL    HW253995   2.494   9.964   5.438  1.4950  3.3259 -1.0562
16822SOL     OW53996   3.009   1.440   9.417  0.2616 -0.2804  0.4298
16822SOL    HW153997   3.050   1.524   9.439 -0.8584  0.6319 -0.7370
16822SOL    HW253998   3.066   1.402   9.350  0.0476  0.2546 -0.0715
16823SOL     OW53999   4.032   5.457  10.899  0.2416 -0.1730  0.0175
16823SOL    HW154000   3.979   5.517  10.847 -0.4197 -0.5557  0.2483
16823SOL    HW254001   4.108   5.439  10.843  0.5373  0.9963  0.0139
16824SOL     OW54002   1.467   8.973   8.646  0.5826 -0.1504 -0.2620
16824SOL    HW154003   1.541   9.005   8.699  1.2066  0.5391 -1.4963
16824SOL    HW254004   1.441   9.049   8.594 -2.5095  0.3073  1.7191
16825SOL     OW54005   6.661   7.425   9.407 -0.0751 -0.4210 -0.2212
16825SOL    HW154006   6.586   7.423   9.347 -1.1154 -1.1263  1.0534
16825SOL    HW254007   6.710   7.346   9.387 -0.1785 -0.4338 -0.4293
16826SOL     OW54008   3.181   7.919   5.635 -0.0482  0.5332 -0.1706
16826SOL    HW154009   3.165   7.828   5.658 -3.2998  0.2669 -2.7491
16826SOL    HW254010   3.251   7.947   5.694 -0.5700 -2.8854  2.3650
16827SOL     OW54011   7.024   0.331   6.847 -0.5683  0.1325 -0.1763
16827SOL    HW154012   7.094   0.396   6.851  0.0712 -0.5343 -0.1378
16827SOL    HW254013   7.065   0.254   6.807 -1.4400 -0.0863 -0.6823
16828SOL     OW54014   3.016   8.140   0.782 -0.1677 -0.1990 -0.1403
16828SOL    HW154015   3.005   8.053   0.820  1.8557 -0.6756 -0.5191
16828SOL    HW254016   3.059   8.124   0.698  0.9274  1.1832  0.1157
16829SOL     OW54017   4.039   6.303   0.674 -0.0371 -0.9963 -0.2490
16829SOL    HW154018   4.123   6.267   0.646  1.0089  1.3668 -0.3696
16829SOL    HW254019   4.050   6.319   0.768 -0.1034 -0.0721 -0.3925
16830SOL     OW54020   5.369   8.491   6.194  0.1407  0.1732  0.6930
16830SOL    HW154021   5.460   8.519   6.205  0.7057 -1.4832  0.4359
16830SOL    HW254022   5.345   8.523   6.108  0.5120  0.5288  0.7150
16831SOL     OW54023   6.463   1.825   7.287  0.6603  0.3157  0.1613
16831SOL    HW154024   6.456   1.758   7.355 -1.7344 -0.6692 -0.9554
16831SOL    HW254025   6.477   1.776   7.207  2.8585  1.4355 -0.2248
16832SOL     OW54026   9.318  10.418   0.143  0.0904  0.1894 -0.3397
16832SOL    HW154027   9.348  10.494   0.094 -0.1431  0.2958 -0.3184
16832SOL    HW254028   9.226  10.437   0.165  0.6812  0.9553  1.6981
16833SOL     OW54029   2.519   0.222   6.667 -0.5898 -0.6807 -0.0791
16833SOL    HW154030   2.507   0.316   6.651  1.0478 -0.4772 -0.3350
16833SOL    HW254031   2.504   0.211   6.760  1.9137  0.3848  0.5342
16834SOL     OW54032   2.620  10.347   5.925  0.0556  0.8189 -0.3172
16834SOL    HW154033   2.674  10.273   5.950  0.6812  0.4447 -2.5458
16834SOL    HW254034   2.662  10.423   5.965 -0.4249  0.0614  1.7362
16835SOL     OW54035   6.352   2.318   8.999  0.3637  0.3268  0.3720
16835SOL    HW154036   6.445   2.326   8.977  0.0853  1.2888 -0.5582
16835SOL    HW254037   6.332   2.398   9.048 -0.2096  0.6537 -0.3723
16836SOL     OW54038   0.555   2.267   2.043 -0.7498  0.0812 -0.5961
16836SOL    HW154039   0.566   2.180   2.080  2.7631  0.6594  0.0896
16836SOL    HW254040   0.579   2.258   1.951  0.8589  0.4913 -0.2418
16837SOL     OW54041   5.574   3.512   8.439 -0.2558  0.3859  1.0031
16837SOL    HW154042   5.494   3.552   8.474 -0.4723 -0.7505  1.8564
16837SOL    HW254043   5.609   3.578   8.379  0.3024  2.6124  3.5573
16838SOL     OW54044   5.844   7.191   2.002  0.2233  0.6567  0.0012
16838SOL    HW154045   5.841   7.286   1.993 -1.3628  0.7189  0.7986
16838SOL    HW254046   5.874   7.160   1.917  1.1747  1.8827 -0.1386
16839SOL     OW54047   6.180   0.573   0.203  0.5749  0.1116  0.0198
16839SOL    HW154048   6.236   0.505   0.239  0.5352  0.0383 -0.0567
16839SOL    HW254049   6.176   0.554   0.109 -0.8945 -0.8678  0.2378
16840SOL     OW54050   3.951   6.239   9.399  0.4215 -0.1151  0.5283
16840SOL    HW154051   4.007   6.163   9.388  0.0880 -0.3903  0.7180
16840SOL    HW254052   3.941   6.248   9.494  0.5679  0.2415  0.5114
16841SOL     OW54053   7.121   5.206  10.542  0.2080  0.8148  0.5149
16841SOL    HW154054   7.102   5.191  10.635  1.4828 -1.1778  0.5007
16841SOL    HW254055   7.048   5.165  10.496  1.3095 -1.3623  0.6024
16842SOL     OW54056   4.565   8.621   4.708  0.1693  0.0142 -0.3072
16842SOL    HW154057   4.574   8.712   4.678 -1.1812 -0.1050 -1.1777
16842SOL    HW254058   4.650   8.582   4.693  0.3499  0.7485 -1.3355
16843SOL     OW54059   7.032   5.168   6.737  0.2113  0.0563 -0.3650
16843SOL    HW154060   7.093   5.209   6.677  0.6118 -0.1397 -0.0980
16843SOL    HW254061   7.083   5.100   6.781  0.0442  0.4829  0.5065
16844SOL     OW54062   7.481   9.377   5.005 -0.5089 -0.3807  0.8820
16844SOL    HW154063   7.495   9.461   4.962  0.1996 -1.2633 -0.7276
16844SOL    HW254064   7.515   9.389   5.094 -1.1991  1.2574  0.9623
16845SOL     OW54065   9.927   3.209   1.003  0.0211 -0.0297  0.0612
16845SOL    HW154066   9.915   3.162   0.920  0.0636 -0.3184  0.2187
16845SOL    HW254067   9.846   3.195   1.051 -0.0521  0.2413  0.0190
16846SOL     OW54068   6.161   3.007   4.632 -0.7844 -0.2134 -0.0110
16846SOL    HW154069   6.224   3.048   4.573 -0.1633 -0.0734  0.7275
16846SOL    HW254070   6.173   3.054   4.715  0.2441 -2.1365  0.9862
16847SOL     OW54071   5.456   2.420   8.769 -0.0672 -0.1449 -0.3830
16847SOL    HW154072   5.421   2.403   8.681  1.0236  0.5548 -0.9837
16847SOL    HW254073   5.520   2.490   8.756  1.2528 -1.0798  0.7148
16848SOL     OW54074   1.233   2.716   6.416  0.6110  0.0039  0.4237
16848SOL    HW154075   1.151   2.755   6.386  0.1247 -0.5389  1.0075
16848SOL    HW254076   1.213   2.623   6.425  1.7189 -0.3905 -0.8543
16849SOL     OW54077   3.604   0.795   9.492 -0.3910 -1.0808  0.3848
16849SOL    HW154078   3.650   0.733   9.436  1.5312  2.4649 -2.4430
16849SOL    HW254079   3.513   0.766   9.493 -0.1031 -2.4661 -2.9916
16850SOL     OW54080   1.653   9.018   6.494 -0.1999  0.7025  0.7847
16850SOL    HW154081   1.561   9.031   6.474 -0.2778  1.2097  1.4724
16850SOL    HW254082   1.657   9.008   6.589  0.2920 -0.6959  0.6378
16851SOL     OW54083   5.292  10.065   1.949 -0.3788 -0.3806  0.2013
16851SOL    HW154084   5.297  10.099   1.860  0.3156  1.4655  0.8844
16851SOL    HW254085   5.372  10.013   1.960 -0.5572 -0.7642 -0.3043
16852SOL     OW54086   5.178   6.108   5.482  0.8915  0.3344 -0.5071
16852SOL    HW154087   5.247   6.105   5.548  0.4084 -1.1384 -0.0378
16852SOL    HW254088   5.115   6.172   5.516  0.0692 -1.2267  1.1059
16853SOL     OW54089   8.876   3.455   1.630 -0.2794  0.3398 -0.1899
16853SOL    HW154090   8.899   3.512   1.703 -0.4129  1.0688 -0.6995
16853SOL    HW254091   8.827   3.383   1.670  0.4909  0.2104  0.5503
16854SOL     OW54092   1.138  10.663  10.123  0.2125 -0.5000  0.1997
16854SOL    HW154093   1.085  10.731  10.082  1.0450 -1.2162 -2.2040
16854SOL    HW254094   1.075  10.596  10.150 -0.2795 -0.5501 -1.0329
16855SOL     OW54095   0.375   8.151   0.302  0.9302  0.3089 -0.2699
16855SOL    HW154096   0.311   8.194   0.245  0.0698 -0.2290  0.2616
16855SOL    HW254097   0.340   8.062   0.314  0.9425  0.4867  1.2932
16856SOL     OW54098   7.158   3.566   9.788  0.2675 -0.2574 -0.3839
16856SOL    HW154099   7.244   3.529   9.808  0.8964  0.3265 -1.8617
16856SOL    HW254100   7.167   3.659   9.808  0.6312  0.1693 -2.3806
16857SOL     OW54101   7.454   2.987   7.082 -0.4522  0.0044  0.4616
16857SOL    HW154102   7.424   2.941   7.160 -0.3269  0.9688  1.1066
16857SOL    HW254103   7.492   2.920   7.027 -0.0550 -0.6202  1.4747
16858SOL     OW54104   6.096   0.246   5.645 -0.2133 -0.4091 -0.2989
16858SOL    HW154105   6.117   0.153   5.645  1.4278 -0.0827 -0.2507
16858SOL    HW254106   6.098   0.271   5.553  0.7027 -0.1784 -0.2319
16859SOL     OW54107   3.530   5.017  10.176  0.6279 -0.0309  0.1359
16859SOL    HW154108   3.437   4.997  10.180  0.6490 -0.4878 -1.1893
16859SOL    HW254109   3.550   5.057  10.261  0.1314 -3.7376  2.1956
16860SOL     OW54110   8.021   3.429   4.696 -0.5720 -0.7754  0.5347
16860SOL    HW154111   8.091   3.395   4.640  2.1896  1.0104  2.6478
16860SOL    HW254112   7.983   3.350   4.736 -2.3684 -2.0888 -3.2069
16861SOL     OW54113   1.326  10.183   0.136  1.0019 -0.1625 -0.0837
16861SOL    HW154114   1.390  10.253   0.127 -0.8660  1.6893  0.1392
16861SOL    HW254115   1.377  10.106   0.160  3.0192  1.4210  1.0199
16862SOL     OW54116   2.764   4.385   3.007  0.0943 -0.5644 -0.2262
16862SOL    HW154117   2.816   4.446   3.059 -1.1413 -0.4495  0.9251
16862SOL    HW254118   2.829   4.332   2.960  1.3593 -1.6012  2.4799
16863SOL     OW54119   0.465   6.237   2.518  0.0406 -0.0284 -0.1567
16863SOL    HW154120   0.373   6.226   2.541  0.3864 -2.0853  0.4708
16863SOL    HW254121   0.471   6.327   2.487 -1.5977  1.1351  2.5408
16864SOL     OW54122   1.931   1.697   6.511  0.2714  0.7090  0.0253
16864SOL    HW154123   1.859   1.633   6.508  1.5805 -0.8470  0.0813
16864SOL    HW254124   1.930   1.729   6.601 -0.6070  1.0196 -0.0885
16865SOL     OW54125   9.376   3.182   3.640  0.1517 -0.0353  0.5382
16865SOL    HW154126   9.416   3.099   3.665  0.0347  0.5357  2.9137
16865SOL    HW254127   9.288   3.158   3.610  0.4868 -0.8589  0.1989
16866SOL     OW54128   8.206   2.392   8.311 -0.0363  0.2412 -0.0179
16866SOL    HW154129   8.165   2.314   8.273 -1.0869  1.5954 -1.8090
16866SOL    HW254130   8.299   2.382   8.292 -0.1381 -0.6506 -0.0902
16867SOL     OW54131  10.228   3.095   8.186  0.1594  0.2892 -0.1760
16867SOL    HW154132  10.248   3.002   8.172  1.5016  0.6516 -0.8799
16867SOL    HW254133  10.246   3.110   8.279  1.5252  0.1780 -0.4004
16868SOL     OW54134   7.759   0.987   7.362 -0.4241 -0.3631  0.1471
16868SOL    HW154135   7.839   0.935   7.362  0.1602  0.5077 -0.6398
16868SOL    HW254136   7.785   1.071   7.401 -0.7321  0.2222 -0.8720
16869SOL     OW54137   3.952   4.012   7.666  0.3001  0.2810 -0.0753
16869SOL    HW154138   4.038   4.000   7.707 -0.6986 -2.8919  1.4160
16869SOL    HW254139   3.933   3.927   7.625 -0.5451  2.0624 -3.8583
16870SOL     OW54140   3.672   7.403   7.072 -0.2532  0.3210  0.2175
16870SOL    HW154141   3.713   7.441   6.994 -0.7368  0.4678  0.0284
16870SOL    HW254142   3.582   7.435   7.070 -0.8125 -1.1881 -0.1949
16871SOL     OW54143  10.710   3.045   4.087  0.3559 -0.0632 -0.2783
16871SOL    HW154144  10.639   3.082   4.034  0.0375  0.2930  0.3855
16871SOL    HW254145  10.786   3.044   4.029  0.4185  1.7652 -0.2968
16872SOL     OW54146   5.776  10.005   0.127 -0.1116  0.0340  0.6871
16872SOL    HW154147   5.707  10.027   0.064  0.0426 -0.1881  0.4394
16872SOL    HW254148   5.787   9.910   0.117 -0.2008 -0.0276  1.1618
16873SOL     OW54149  10.727   4.791   3.671  0.2374  0.3423  0.1151
16873SOL    HW154150  10.737   4.812   3.764  0.8340 -0.1576  0.1700
16873SOL    HW254151  10.716   4.696   3.669  0.7285  0.2914 -0.3601
16874SOL     OW54152   2.197   5.400   9.244  0.0489 -0.4976 -0.2327
16874SOL    HW154153   2.120   5.375   9.296 -0.8525  2.2364 -0.1046
16874SOL    HW254154   2.176   5.486   9.210  3.2726  0.5966  0.2103
16875SOL     OW54155   5.439   9.017   7.016 -0.2537 -0.4429 -0.3266
16875SOL    HW154156   5.497   8.955   6.970  0.2678 -0.2083  0.0021
16875SOL    HW254157   5.441   9.096   6.962 -0.1092 -0.3706 -0.2189
16876SOL     OW54158   0.113   3.313   9.489 -0.5204  0.6039 -0.2507
16876SOL    HW154159   0.145   3.304   9.578  1.5460 -0.5066 -1.0362
16876SOL    HW254160   0.171   3.378   9.449 -1.2695  0.9095 -0.8536
16877SOL     OW54161   7.345   5.324   1.909 -0.1736  0.1606  0.1255
16877SOL    HW154162   7.373   5.413   1.929 -0.4151  0.2929 -0.1179
16877SOL    HW254163   7.426   5.275   1.896 -0.0586  0.7073 -1.3189
16878SOL     OW54164   8.674   7.115   8.000 -0.5369 -0.3824 -0.1807
16878SOL    HW154165   8.597   7.157   8.039 -1.1593  0.8230 -2.5275
16878SOL    HW254166   8.711   7.063   8.071 -1.2266  2.1223  2.1840
16879SOL     OW54167   8.534   6.091   7.930  0.0065  0.1266 -0.3442
16879SOL    HW154168   8.561   6.181   7.948 -0.1135  0.6361 -2.4271
16879SOL    HW254169   8.440   6.090   7.946  0.3585 -0.3524  2.1189
16880SOL     OW54170   1.137   2.493   3.552  1.1504 -0.2150  0.4353
16880SOL    HW154171   1.158   2.586   3.564  1.1307 -0.2695  0.9162
16880SOL    HW254172   1.174   2.450   3.630  0.5839 -0.5210  0.5362
16881SOL     OW54173   7.175   6.200   5.551 -0.6191  0.0214 -0.3298
16881SOL    HW154174   7.264   6.209   5.517 -0.7187 -0.6131 -0.7783
16881SOL    HW254175   7.183   6.134   5.621 -0.8187 -0.4217 -0.7181
16882SOL     OW54176   4.567   7.709   2.624 -0.1140 -0.5989  0.2182
16882SOL    HW154177   4.546   7.626   2.582  0.9530  0.5044 -2.7979
16882SOL    HW254178   4.660   7.703   2.645 -0.0898 -0.2736  0.2129
16883SOL     OW54179   1.058   1.102   6.007  0.6467  0.0664  0.2280
16883SOL    HW154180   1.017   1.020   6.033  0.5999  0.0051 -0.0307
16883SOL    HW254181   1.079   1.089   5.914  0.1609  0.5414  0.0466
16884SOL     OW54182   7.548   6.347   3.695  0.3303 -0.0034 -0.4461
16884SOL    HW154183   7.601   6.401   3.753 -0.3024 -0.0870  0.2239
16884SOL    HW254184   7.570   6.257   3.718 -1.0284 -0.0618  0.7470
16885SOL     OW54185   6.018   6.996   5.884 -0.1317 -0.3593  0.2991
16885SOL    HW154186   6.069   7.077   5.886 -0.0684 -0.3788 -0.4268
16885SOL    HW254187   6.053   6.947   5.809 -1.5792 -0.1317 -0.5494
16886SOL     OW54188   9.275   7.753   0.056 -0.7035  0.1769  0.0674
16886SOL    HW154189   9.365   7.748   0.023 -1.3222 -0.7014 -1.6500
16886SOL    HW254190   9.244   7.840   0.030 -0.2590  0.5975  0.9342
16887SOL     OW54191   3.502   3.101   9.772 -0.3395 -0.5130  0.3365
16887SOL    HW154192   3.437   3.031   9.766 -0.0412 -1.0560  2.6183
16887SOL    HW254193   3.457   3.171   9.818 -0.9665  1.3444 -2.7913
16888SOL     OW54194   5.749   1.159   4.833  0.4140 -0.0133  0.1435
16888SOL    HW154195   5.748   1.195   4.745  0.5832  0.8930  0.4998
16888SOL    HW254196   5.789   1.072   4.824  0.5399  0.1249 -0.6446
16889SOL     OW54197   5.565   5.505   6.501 -0.1452 -0.1504 -0.3937
16889SOL    HW154198   5.620   5.578   6.530 -0.1757  0.8190 -2.5496
16889SOL    HW254199   5.626   5.431   6.491  0.3472  0.2702 -0.5180
16890SOL     OW54200  10.623   1.279   1.486 -0.1060 -0.2580  0.6152
16890SOL    HW154201  10.585   1.286   1.398  0.4003 -0.5738  0.3665
16890SOL    HW254202  10.548   1.283   1.545 -0.3347  1.9124  0.2782
16891SOL     OW54203  10.603   6.591   6.281  0.1796 -0.0176  0.0871
16891SOL    HW154204  10.674   6.541   6.322 -0.4219 -1.2839 -0.3692
16891SOL    HW254205  10.583   6.660   6.345  0.3492 -0.9741  1.2196
16892SOL     OW54206   4.904   8.293   3.560  0.1266  0.1804 -0.2018
16892SOL    HW154207   4.898   8.222   3.497 -0.6507 -0.8890  1.0215
16892SOL    HW254208   4.829   8.280   3.618  0.0791  1.8956  0.1777
16893SOL     OW54209  10.344   6.029   0.273 -0.1768 -0.4965  0.1964
16893SOL    HW154210  10.340   6.109   0.222 -2.3433 -0.8742 -0.3494
16893SOL    HW254211  10.422   6.038   0.328  1.7061  0.3484 -2.4467
16894SOL     OW54212   4.521   0.997   6.705  0.0366 -0.2143  0.1439
16894SOL    HW154213   4.430   0.983   6.679  0.1621  1.1724 -1.1645
16894SOL    HW254214   4.519   1.076   6.758  0.2033 -1.4580  2.1407
16895SOL     OW54215   5.822   2.716   5.661 -0.0870 -0.3018 -0.3346
16895SOL    HW154216   5.868   2.758   5.588 -0.5618  0.4784 -0.1958
16895SOL    HW254217   5.877   2.641   5.685  1.0449  0.5343 -0.2590
16896SOL     OW54218   6.838   9.125   3.182 -0.0770  0.0380 -0.1422
16896SOL    HW154219   6.933   9.136   3.184  0.1692 -1.7790 -0.0627
16896SOL    HW254220   6.803   9.206   3.218  1.4584  0.5235  0.3162
16897SOL     OW54221   3.128   3.787   6.249 -0.7910 -0.2343  0.1410
16897SOL    HW154222   3.218   3.798   6.279  0.1046 -1.1176 -2.0453
16897SOL    HW254223   3.075   3.801   6.327  1.2426 -0.0006  1.5520
16898SOL     OW54224   0.249   9.790   6.345 -0.0280  0.2389  0.2431
16898SOL    HW154225   0.316   9.724   6.325 -0.8985 -0.7541  0.5494
16898SOL    HW254226   0.256   9.852   6.272  2.2327  1.0003  1.0285
16899SOL     OW54227   5.842   7.963   4.602 -0.5380  0.0525 -0.9778
16899SOL    HW154228   5.767   7.949   4.659 -1.4929  0.2216 -2.1616
16899SOL    HW254229   5.862   8.056   4.611 -0.4674  0.0057 -0.6561
16900SOL     OW54230   7.718   2.566   8.725 -0.1599 -0.1412  0.3793
16900SOL    HW154231   7.706   2.530   8.813  0.0567 -0.6239  0.2150
16900SOL    HW254232   7.782   2.508   8.684 -0.0496  0.2472 -0.0024
16901SOL     OW54233   5.703   5.086   4.905  0.2022 -0.3224  0.4469
16901SOL    HW154234   5.682   5.081   4.812 -0.7571 -0.9969  0.6863
16901SOL    HW254235   5.799   5.079   4.908  0.1932 -0.9538 -0.4442
16902SOL     OW54236   1.621   5.578   9.388 -0.2051  0.0513  0.1577
16902SOL    HW154237   1.679   5.622   9.327  0.5289 -0.8349  0.1932
16902SOL    HW254238   1.592   5.499   9.342 -0.4750 -0.0876  0.5551
16903SOL     OW54239   2.870   6.812   9.735 -0.0997 -0.5687 -0.3385
16903SOL    HW154240   2.830   6.814   9.822 -0.9807 -0.3117 -0.7382
16903SOL    HW254241   2.798   6.791   9.676  0.3692 -0.1365 -1.0802
16904SOL     OW54242   2.354   4.346   4.262 -0.0871  0.3233  0.1148
16904SOL    HW154243   2.427   4.310   4.212 -0.0920  0.2111  0.1873
16904SOL    HW254244   2.347   4.289   4.338 -1.4542 -0.8299 -0.8172
16905SOL     OW54245   4.195   5.603   9.190 -0.3041  0.0805 -0.1725
16905SOL    HW154246   4.233   5.584   9.104 -0.3481 -1.4869  0.1273
16905SOL    HW254247   4.127   5.537   9.201  1.8203 -1.8808  2.4115
16906SOL     OW54248   3.360   0.937   2.000  0.7777 -0.5422 -0.0543
16906SOL    HW154249   3.285   0.878   2.013 -0.1752  0.8896  1.3103
16906SOL    HW254250   3.430   0.880   1.969 -0.5772 -2.1100 -0.3599
16907SOL     OW54251   1.113   9.123  10.905  0.3052 -0.1549 -0.2346
16907SOL    HW154252   1.101   9.216  10.888  0.4564 -0.5957 -3.5132
16907SOL    HW254253   1.189   9.117  10.962 -0.1421  1.7053  0.6243
16908SOL     OW54254   8.117  10.071   6.393  0.2610  0.0544 -0.2435
16908SOL    HW154255   8.104  10.060   6.487  1.2120 -1.5801 -0.2697
16908SOL    HW254256   8.031  10.097   6.359 -0.2694 -0.0719  0.9729
16909SOL     OW54257   6.654  10.332   3.474  0.3073  0.1618 -0.1209
16909SOL    HW154258   6.718  10.401   3.458 -0.5207  1.7690  2.7431
16909SOL    HW254259   6.681  10.293   3.557 -2.3906  0.9354  1.2164
16910SOL     OW54260   4.503   2.319   7.819  0.1758  0.5520 -1.1493
16910SOL    HW154261   4.595   2.300   7.803  0.2419 -0.9694  0.6810
16910SOL    HW254262   4.464   2.327   7.732  1.9131  0.6362 -1.9492
16911SOL     OW54263   2.786   6.851   4.472 -0.6752 -0.0003 -0.7175
16911SOL    HW154264   2.700   6.822   4.504 -0.7025 -1.4407 -1.9952
16911SOL    HW254265   2.778   6.946   4.465 -2.0117 -0.0663 -0.3943
16912SOL     OW54266   3.366   2.404   6.186  0.2957  0.0388  0.4135
16912SOL    HW154267   3.278   2.381   6.215  0.4181 -1.9844 -0.6516
16912SOL    HW254268   3.355   2.485   6.135 -1.1407 -0.7891 -0.6436
16913SOL     OW54269   0.728  10.209   0.286  0.4816 -0.0415  0.1570
16913SOL    HW154270   0.683  10.259   0.218  0.0768  1.3475  1.3889
16913SOL    HW254271   0.820  10.207   0.258 -0.1010 -2.0866 -1.8979
16914SOL     OW54272  10.624   1.631   8.331 -0.2653 -0.1423 -1.0705
16914SOL    HW154273  10.550   1.691   8.327  0.1993  0.4402 -0.9363
16914SOL    HW254274  10.620   1.594   8.420  2.0661  3.0899  0.5876
16915SOL     OW54275   6.251   2.064   4.066 -0.0212  0.0443  0.4729
16915SOL    HW154276   6.199   2.142   4.082 -1.4209 -0.5377 -0.9418
16915SOL    HW254277   6.190   1.991   4.079  0.7550 -0.7175 -0.0067
16916SOL     OW54278  10.010   8.477  10.242  0.3257 -0.5809  0.4985
16916SOL    HW154279   9.922   8.440  10.249 -1.0079  2.1586  0.0065
16916SOL    HW254280  10.029   8.476  10.148 -0.6774  1.7364  0.1993
16917SOL     OW54281   3.069   5.917   6.058  0.4232  0.1409 -0.3393
16917SOL    HW154282   2.994   5.869   6.094  1.5308 -0.8840  0.6817
16917SOL    HW254283   3.083   5.989   6.119  3.2309 -2.4301  2.4225
16918SOL     OW54284   4.057   3.495   6.806  1.3936 -0.1891  0.0687
16918SOL    HW154285   4.123   3.491   6.875  2.0235 -0.2230 -0.5247
16918SOL    HW254286   4.088   3.433   6.740  1.1771  0.3735 -0.5645
16919SOL     OW54287  11.017   8.242   5.262  0.3528  0.0878  0.1614
16919SOL    HW154288  11.024   8.159   5.310  0.6068  0.5682  0.9675
16919SOL    HW254289  10.993   8.306   5.329  1.5830  0.9419 -0.1911
16920SOL     OW54290   4.405   7.580   1.126 -0.1489  0.4366  0.0594
16920SOL    HW154291   4.318   7.575   1.087 -0.2809 -1.3113  0.4830
16920SOL    HW254292   4.435   7.489   1.130  1.2033  0.8843  1.0145
16921SOL     OW54293   6.391   9.175   5.132 -0.2042  0.5366 -0.3897
16921SOL    HW154294   6.379   9.081   5.116  0.4780  0.1832  1.0352
16921SOL    HW254295   6.398   9.213   5.044  0.4590 -0.8684 -0.9810
16922SOL     OW54296   9.972   5.394   5.449  0.4771  0.4484  0.0380
16922SOL    HW154297   9.976   5.387   5.354  0.1033 -1.0709  0.1074
16922SOL    HW254298  10.064   5.399   5.476  0.6504 -0.5018 -0.3355
16923SOL     OW54299   3.959   0.394   0.294 -0.9423 -0.0523  0.0106
16923SOL    HW154300   3.965   0.300   0.312  1.0112  0.3624  1.9644
16923SOL    HW254301   3.908   0.430   0.367 -0.4356  0.5856  0.0621
16924SOL     OW54302   3.169   5.523   5.600  0.7005  0.1822 -0.0673
16924SOL    HW154303   3.200   5.537   5.690 -0.5538  0.7954  0.3032
16924SOL    HW254304   3.203   5.438   5.575  1.3829  0.1701  0.8552
16925SOL     OW54305   1.935   0.580   2.367 -0.4148  0.3438  0.1841
16925SOL    HW154306   1.872   0.579   2.439  0.5845 -0.2007  1.0828
16925SOL    HW254307   2.016   0.612   2.407  0.4927 -1.1271 -0.3850
16926SOL     OW54308   8.068   0.057   2.296 -0.2682  0.4774 -0.2779
16926SOL    HW154309   8.044   0.093   2.382 -1.3899 -0.8598  0.0078
16926SOL    HW254310   8.061   0.131   2.236  0.1569  1.3466  0.7119
16927SOL     OW54311   5.708   9.670   1.994  0.1404 -0.1179  0.0371
16927SOL    HW154312   5.633   9.613   1.976 -0.0865  1.0199 -3.4689
16927SOL    HW254313   5.683   9.755   1.957  2.6757  0.6308 -0.1766
16928SOL     OW54314  10.057   1.290   8.820 -0.1545  0.6636 -0.1284
16928SOL    HW154315  10.060   1.385   8.807 -0.1263  0.4360 -2.1074
16928SOL    HW254316  10.148   1.264   8.833 -0.3528  1.1651  3.3271
16929SOL     OW54317   0.478   1.023  10.378  0.2657 -0.1254  0.3734
16929SOL    HW154318   0.571   1.039  10.361  0.2402 -0.2450  0.1238
16929SOL    HW254319   0.432   1.074  10.313  0.1801 -1.0198 -0.2893
16930SOL     OW54320   6.344   7.970   4.138 -0.0474 -0.0896 -0.5344
16930SOL    HW154321   6.385   7.921   4.209  0.3815  1.3697  0.2782
16930SOL    HW254322   6.265   8.007   4.178  0.3580  1.0027 -0.6878
16931SOL     OW54323   8.692   9.689   4.346 -0.3207 -0.1111  0.3179
16931SOL    HW154324   8.750   9.701   4.422 -0.1060 -0.0689  0.1490
16931SOL    HW254325   8.660   9.599   4.355 -0.5791  0.0140  0.6528
16932SOL     OW54326   5.282   0.060   8.420  0.1101 -0.2017  0.1657
16932SOL    HW154327   5.356   0.120   8.408 -0.1173  0.0969  0.2364
16932SOL    HW254328   5.322  -0.025   8.439  0.4913 -0.5318 -1.8516
16933SOL     OW54329   1.896  10.157   9.221  0.2604  0.4360 -0.2778
16933SOL    HW154330   1.910  10.166   9.315  0.9525  0.1591 -0.3476
16933SOL    HW254331   1.825  10.093   9.214 -1.2502  1.9919  0.0871
16934SOL     OW54332   7.613   5.522   6.244 -0.6806 -0.3987 -0.1575
16934SOL    HW154333   7.634   5.616   6.242 -1.4051 -0.1982  0.6907
16934SOL    HW254334   7.694   5.479   6.217 -0.2118  0.4601 -0.1756
16935SOL     OW54335   3.127   7.515   3.687 -0.5795  0.6933  0.3950
16935SOL    HW154336   3.093   7.524   3.776  0.8868 -0.1852  1.0951
16935SOL    HW254337   3.192   7.585   3.680  1.7826 -1.2459  1.3233
16936SOL     OW54338   1.504   7.593   8.550 -0.3067 -0.3997  0.0218
16936SOL    HW154339   1.517   7.645   8.629 -1.2445  0.5236 -0.4150
16936SOL    HW254340   1.454   7.649   8.492  0.8781 -0.8248 -1.4794
16937SOL     OW54341   2.727   9.251   1.427  0.0681 -0.4478 -0.8448
16937SOL    HW154342   2.648   9.218   1.470  0.9937 -0.9044  0.5599
16937SOL    HW254343   2.694   9.315   1.363 -1.3847 -0.0126  0.2700
16938SOL     OW54344   6.549   6.436   6.385  0.5054 -0.0115  0.1255
16938SOL    HW154345   6.581   6.368   6.445  0.5653  0.5689  0.7791
16938SOL    HW254346   6.503   6.498   6.442 -0.9594 -0.3245 -0.6771
16939SOL     OW54347   0.257   1.487   6.136 -0.2233 -0.2903 -0.1134
16939SOL    HW154348   0.262   1.483   6.041 -0.7748 -0.5284 -0.1365
16939SOL    HW254349   0.303   1.568   6.159  0.7454 -0.7171 -0.5069
16940SOL     OW54350   4.140   6.273   4.194  0.0575 -0.4967 -0.1677
16940SOL    HW154351   4.197   6.292   4.269 -0.5126 -0.2956  0.2268
16940SOL    HW254352   4.157   6.344   4.132  0.1589 -0.3833 -0.0096
16941SOL     OW54353   1.891  10.608   8.818  0.0415 -0.8571  0.7274
16941SOL    HW154354   1.869  10.609   8.725  1.4538 -0.8569  0.3757
16941SOL    HW254355   1.817  10.652   8.860  0.5952  1.5943 -0.6813
16942SOL     OW54356   3.983   2.353  10.681  0.3896  0.0570 -0.0304
16942SOL    HW154357   4.064   2.402  10.665  0.3025  0.5673  1.0000
16942SOL    HW254358   3.923   2.385  10.614  1.0469 -0.3650 -0.8418
16943SOL     OW54359   3.652   2.806   8.472 -0.2040 -0.3764  0.1194
16943SOL    HW154360   3.602   2.769   8.545  0.8414  0.7726  1.5025
16943SOL    HW254361   3.688   2.887   8.507  0.7045 -0.0037 -1.5628
16944SOL     OW54362   0.221  10.853   7.175 -0.1946 -0.2855 -0.0951
16944SOL    HW154363   0.241  10.768   7.213 -2.7425 -1.0485 -0.2813
16944SOL    HW254364   0.214  10.912   7.250  2.6657  0.1110 -0.0278
16945SOL     OW54365   3.283   8.903   1.724 -0.5941 -0.2337  1.1023
16945SOL    HW154366   3.204   8.874   1.770 -1.7328  1.8564  0.5591
16945SOL    HW254367   3.262   8.893   1.632  0.5316 -1.4686  0.9483
16946SOL     OW54368   5.190  10.811   2.886 -0.1493  0.2586  0.2279
16946SOL    HW154369   5.238  10.731   2.906 -0.2485  0.3956  1.0820
16946SOL    HW254370   5.209  10.869   2.961 -0.2103  0.9670 -0.2960
16947SOL     OW54371   3.527  11.035   4.264  0.1884  0.1161 -0.0235
16947SOL    HW154372   3.527  10.992   4.178  2.7879 -0.4193  0.1775
16947SOL    HW254373   3.507  10.964   4.325  0.7506 -0.0257 -0.0000
16948SOL     OW54374   0.717   6.264   4.980  0.4240  0.3561 -0.7282
16948SOL    HW154375   0.785   6.203   4.953  1.1723  1.3111 -1.0409
16948SOL    HW254376   0.737   6.345   4.933 -1.9537  0.1583 -2.2603
16949SOL     OW54377   1.585   0.247   2.248 -0.0748 -0.1652  0.3236
16949SOL    HW154378   1.527   0.275   2.319 -1.1744  0.0985 -0.6397
16949SOL    HW254379   1.671   0.238   2.289 -0.9001 -1.2125  1.9495
16950SOL     OW54380   2.512   6.429  10.196 -0.3433  0.2676 -0.7437
16950SOL    HW154381   2.541   6.408  10.108 -3.0247 -1.8435 -1.2583
16950SOL    HW254382   2.531   6.350  10.247 -1.9012  0.1416 -0.3045
16951SOL     OW54383   9.834   5.869   1.911 -0.6767 -0.1785 -0.0790
16951SOL    HW154384   9.921   5.897   1.939  0.4935 -2.1489 -1.5081
16951SOL    HW254385   9.780   5.879   1.989  1.2322 -0.5385  1.3758
16952SOL     OW54386   4.675   3.393   0.991 -0.8738 -0.3358  0.5174
16952SOL    HW154387   4.662   3.484   1.021 -0.7324  0.4978 -1.7877
16952SOL    HW254388   4.586   3.357   0.986 -0.9779 -0.1310  0.8206
16953SOL     OW54389   7.798   9.231   6.528  0.4209 -0.3955  0.1445
16953SOL    HW154390   7.782   9.229   6.622 -0.8661  2.1162  0.0688
16953SOL    HW254391   7.744   9.160   6.493  0.4672 -0.9819  1.2172
16954SOL     OW54392   9.106   1.336  10.767 -0.2809 -0.2637  0.0042
16954SOL    HW154393   9.050   1.273  10.722 -0.5147  0.3249 -0.5373
16954SOL    HW254394   9.160   1.374  10.697  0.4708 -0.4864  0.4493
16955SOL     OW54395   4.577   5.060   1.325 -0.4712 -0.1808  0.1370
16955SOL    HW154396   4.559   5.126   1.391  0.1322  0.1641 -0.0351
16955SOL    HW254397   4.516   4.989   1.344 -0.6232  0.1165  0.7691
16956SOL     OW54398   5.757   8.110   2.336  0.4124 -0.0079 -0.0150
16956SOL    HW154399   5.750   8.153   2.421  1.9432  0.1765  0.0440
16956SOL    HW254400   5.826   8.157   2.290  1.4260 -1.7241 -0.3471
16957SOL     OW54401   4.573   1.188   7.135  0.7121  0.0022 -0.1927
16957SOL    HW154402   4.655   1.179   7.185  0.3509 -0.6398  0.3031
16957SOL    HW254403   4.543   1.098   7.123  0.3509  0.2065 -0.8390
16958SOL     OW54404   2.120   0.856   2.645 -0.2622  0.0999  0.1258
16958SOL    HW154405   2.125   0.764   2.617  0.1809 -0.3421  1.5703
16958SOL    HW254406   2.095   0.903   2.566 -1.3342 -1.3669 -0.4642
16959SOL     OW54407   2.579   9.876   4.123 -0.2245  0.4117 -0.0340
16959SOL    HW154408   2.493   9.859   4.085 -0.2481 -0.2607  0.3124
16959SOL    HW254409   2.637   9.812   4.082  0.5601  2.0911 -1.7498
16960SOL     OW54410   5.167   6.980   9.962  0.3183 -0.0319  0.7630
16960SOL    HW154411   5.248   6.929   9.951 -0.4728 -1.1347 -0.2921
16960SOL    HW254412   5.122   6.972   9.878 -0.3737  1.5130  0.9537
16961SOL     OW54413   5.734   5.383  10.396 -0.2193  0.3190  0.1837
16961SOL    HW154414   5.702   5.473  10.398 -1.9558 -0.2799  0.6603
16961SOL    HW254415   5.676   5.338  10.335 -1.2223 -1.0978  2.0712
16962SOL     OW54416   3.147   1.933   1.220 -0.6347 -0.3640 -0.3574
16962SOL    HW154417   3.191   2.010   1.256 -1.7550  0.4678 -0.7019
16962SOL    HW254418   3.165   1.863   1.283 -0.8848  0.5628  0.7615
16963SOL     OW54419   0.383   7.433   6.409  0.5371  0.0665 -0.2438
16963SOL    HW154420   0.427   7.480   6.339  0.6521 -0.3125 -0.4315
16963SOL    HW254421   0.349   7.501   6.467 -2.0668  0.5560 -2.1474
16964SOL     OW54422   3.200   1.251   5.096 -0.5625  0.5268 -0.2245
16964SOL    HW154423   3.141   1.237   5.170 -0.1043 -0.8820 -0.0789
16964SOL    HW254424   3.283   1.277   5.135 -0.1872 -0.6641 -0.1713
16965SOL     OW54425   8.303   2.734   1.458  0.1842 -0.0229  0.3887
16965SOL    HW154426   8.311   2.765   1.368 -1.4793  1.1400  0.6095
16965SOL    HW254427   8.305   2.813   1.512 -0.2381 -0.5821  1.2588
16966SOL     OW54428   7.780   1.971   7.658  0.8527  0.0102 -0.4150
16966SOL    HW154429   7.768   1.910   7.585  0.4869 -0.5398  0.0987
16966SOL    HW254430   7.691   1.994   7.685  0.9716 -0.2555  0.2354
16967SOL     OW54431   4.521   4.714   0.862  0.5505 -0.4610  0.0250
16967SOL    HW154432   4.456   4.716   0.933  0.2697  1.7608 -0.2274
16967SOL    HW254433   4.577   4.638   0.883 -0.7258 -1.0531  1.4949
16968SOL     OW54434   7.926   5.295   7.542  0.5411  0.0034  0.1455
16968SOL    HW154435   8.011   5.253   7.558  1.7111  2.2947  0.3671
16968SOL    HW254436   7.932   5.327   7.452 -0.3254 -0.2894 -0.0233
16969SOL     OW54437   8.574   6.437  10.880 -0.0023  0.0637 -0.2742
16969SOL    HW154438   8.558   6.530  10.863 -0.9686  0.3514  1.8818
16969SOL    HW254439   8.662   6.435  10.919  1.1552 -0.3093 -2.6906
16970SOL     OW54440   0.595  11.017   2.936  0.5707  0.0130  0.4563
16970SOL    HW154441   0.556  11.099   2.908 -2.5688 -1.1135  1.0422
16970SOL    HW254442   0.591  11.020   3.032 -1.3989 -1.4798  0.4952
16971SOL     OW54443   1.245   7.143   5.747  0.8195  0.6853 -0.4284
16971SOL    HW154444   1.173   7.206   5.754 -1.1472 -1.3984 -0.6770
16971SOL    HW254445   1.282   7.159   5.660 -1.3057 -0.0966 -1.5465
16972SOL     OW54446  10.610   5.716   3.384  0.6923  0.7359  0.2570
16972SOL    HW154447  10.534   5.753   3.339 -0.6640  2.3507  3.5564
16972SOL    HW254448  10.661   5.793   3.410  2.2320 -0.2305  0.2025
16973SOL     OW54449   3.400   6.369   1.125 -0.3582  0.3730 -0.3968
16973SOL    HW154450   3.431   6.353   1.036  0.6238  0.7026 -0.1226
16973SOL    HW254451   3.425   6.290   1.174  0.6647  0.9091 -0.0261
16974SOL     OW54452   3.688  10.104   1.935  0.4162 -0.3282  0.1921
16974SOL    HW154453   3.742  10.166   1.984 -0.6919  0.3951  0.5401
16974SOL    HW254454   3.631  10.159   1.882 -0.9610 -1.0173  0.9136
16975SOL     OW54455   7.616   5.605   7.984 -0.2189 -0.1579 -0.2639
16975SOL    HW154456   7.581   5.690   8.012  0.7588  0.5388 -1.1212
16975SOL    HW254457   7.562   5.580   7.909 -0.1470 -0.0314 -0.3574
16976SOL     OW54458  10.646   1.150   8.414 -0.0422 -0.0678  0.2477
16976SOL    HW154459  10.656   1.117   8.503  0.4176 -1.1112 -0.1783
16976SOL    HW254460  10.667   1.075   8.358  2.1353  1.2081 -0.7602
16977SOL     OW54461   8.199   5.911   1.834  0.0619 -0.1498  0.1814
16977SOL    HW154462   8.125   5.861   1.801  0.2862  0.6682 -1.6921
16977SOL    HW254463   8.160   5.989   1.873 -0.1644 -0.8402  1.4091
16978SOL     OW54464   6.034   7.366  10.989  0.0780 -0.5669  0.1728
16978SOL    HW154465   5.963   7.431  10.986  0.1469 -0.4443  0.9201
16978SOL    HW254466   6.029   7.322  10.905  1.7093  2.1520 -1.5100
16979SOL     OW54467   4.931   6.590   3.540 -0.3423 -0.2557 -0.2268
16979SOL    HW154468   4.878   6.648   3.594  0.5637 -0.9567  1.4755
16979SOL    HW254469   4.984   6.649   3.486 -0.8093  0.4628  0.0816
16980SOL     OW54470  10.510   8.212   1.364 -0.3442 -0.5119  0.4317
16980SOL    HW154471  10.428   8.219   1.315 -0.5454 -0.8997  0.7041
16980SOL    HW254472  10.492   8.255   1.447 -0.1682 -0.3170  0.3703
16981SOL     OW54473   7.985   9.578   9.110  0.0683 -0.2775 -0.4184
16981SOL    HW154474   8.028   9.494   9.097 -0.5331 -0.6105 -0.2473
16981SOL    HW254475   7.931   9.567   9.188 -0.9869 -0.1287 -1.1035
16982SOL     OW54476   5.603   1.152   6.981 -0.5084  0.2093  0.0870
16982SOL    HW154477   5.691   1.116   6.995  0.0345  1.5837  0.2984
16982SOL    HW254478   5.573   1.110   6.900 -0.0065 -0.9027  0.4549
16983SOL     OW54479   5.834  10.205  10.287 -0.2371  0.0430  0.8832
16983SOL    HW154480   5.875  10.232  10.369 -0.1006  0.1640  0.7749
16983SOL    HW254481   5.853  10.276  10.226 -0.2439 -0.0982  0.7156
16984SOL     OW54482   5.139   0.393   4.294  0.6202  0.1876  0.1243
16984SOL    HW154483   5.216   0.360   4.248  0.9082  1.1768 -0.1211
16984SOL    HW254484   5.077   0.320   4.291  1.4063 -0.4923  0.0084
16985SOL     OW54485  10.560   5.181   5.464 -0.2231  0.5416 -0.4529
16985SOL    HW154486  10.627   5.217   5.407  1.2571  0.1970  0.9751
16985SOL    HW254487  10.604   5.110   5.511 -2.4065 -1.7104 -1.5670
16986SOL     OW54488  10.871   2.013   1.866 -0.4496  0.4240  0.2241
16986SOL    HW154489  10.798   2.036   1.808 -0.6358 -2.1237 -0.6618
16986SOL    HW254490  10.935   2.084   1.852 -1.3571  0.9770 -1.5231
16987SOL     OW54491   7.275   4.227  10.843  0.3177  0.5918 -0.0980
16987SOL    HW154492   7.301   4.182  10.762 -0.9757 -1.5464  0.5848
16987SOL    HW254493   7.356   4.265  10.876  1.0125  0.8670 -2.0035
16988SOL     OW54494   3.775   8.761   2.770 -0.3631  0.6538  0.3442
16988SOL    HW154495   3.805   8.793   2.855 -2.2354  1.9628  0.5867
16988SOL    HW254496   3.690   8.721   2.788 -0.8702  1.1107 -0.8976
16989SOL     OW54497   5.146   8.537   0.758 -0.3130  0.4281  0.0467
16989SOL    HW154498   5.177   8.489   0.681 -0.4183  1.8146 -0.8918
16989SOL    HW254499   5.212   8.604   0.773 -0.0178 -0.1475  1.5286
16990SOL     OW54500   2.653   5.432   0.609 -0.2994 -0.3516 -0.1767
16990SOL    HW154501   2.690   5.348   0.582  0.8680 -0.1935  0.8197
16990SOL    HW254502   2.576   5.410   0.660 -0.0056 -0.8192  0.0672
16991SOL     OW54503   6.430   8.465  11.001  0.2962  0.4969  0.2525
16991SOL    HW154504   6.476   8.483  11.083 -0.8417 -0.4419  1.1468
16991SOL    HW254505   6.397   8.375  11.012 -0.3209  0.5548 -1.0187
16992SOL     OW54506  10.353   4.813   3.724 -0.0655 -0.1612 -0.1346
16992SOL    HW154507  10.420   4.753   3.757 -0.7755 -1.0704 -0.3142
16992SOL    HW254508  10.383   4.899   3.752  0.9472 -0.5941  0.1817
16993SOL     OW54509   5.343   8.758   2.317 -0.2590 -0.2112 -0.1671
16993SOL    HW154510   5.425   8.731   2.276 -0.2418  1.2480 -1.1651
16993SOL    HW254511   5.356   8.742   2.411  0.0001 -2.8615 -0.5848
16994SOL     OW54512   1.627   4.099   7.229  0.1050 -0.9271  0.1801
16994SOL    HW154513   1.595   4.112   7.318  1.5731 -0.8690  0.7123
16994SOL    HW254514   1.628   4.004   7.218 -0.4344 -0.9247  0.0840
16995SOL     OW54515   3.670   8.886   2.038  0.5584 -0.1847  0.2920
16995SOL    HW154516   3.614   8.871   1.962  0.1548 -0.2536  0.5977
16995SOL    HW254517   3.759   8.886   2.003  0.3230  0.7997 -0.3345
16996SOL     OW54518   5.299   4.576   5.321 -0.9572  0.0819 -0.3073
16996SOL    HW154519   5.333   4.557   5.409  0.4533 -1.7673 -1.2038
16996SOL    HW254520   5.326   4.667   5.305  1.6370 -0.5524 -0.0317
16997SOL     OW54521   5.761   1.777   8.418  0.2982  0.2772 -0.3552
16997SOL    HW154522   5.749   1.855   8.363 -0.2583  1.1835  1.0074
16997SOL    HW254523   5.807   1.809   8.496 -2.7831 -0.0098  1.7658
16998SOL     OW54524   3.636   2.650   6.811  0.0431 -0.4936 -0.1465
16998SOL    HW154525   3.676   2.674   6.894  0.3469 -0.5174 -0.2857
16998SOL    HW254526   3.649   2.556   6.804  1.7594 -0.2148 -1.1302
16999SOL     OW54527   6.353   6.961   4.571  0.0958  0.2327  0.1698
16999SOL    HW154528   6.308   6.917   4.644  0.0901 -0.7259 -0.4001
16999SOL    HW254529   6.346   6.900   4.498  0.8083  0.8392 -0.4195
17000SOL     OW54530   2.625  10.267   6.933  0.4755 -0.3179 -0.1839
17000SOL    HW154531   2.601  10.197   6.872  0.0531  0.1589 -0.5721
17000SOL    HW254532   2.677  10.327   6.881 -0.8921  0.7104 -0.4097
17001SOL     OW54533   2.573   8.479   2.375  0.3209  0.2550 -0.2315
17001SOL    HW154534   2.573   8.572   2.398  4.3506  0.3597 -0.0468
17001SOL    HW254535   2.567   8.478   2.279 -1.8374  0.4954 -0.1556
17002SOL     OW54536  10.610   3.691   5.997 -0.3964  0.0669  0.0045
17002SOL    HW154537  10.642   3.622   5.939  0.3248  0.3855  0.0185
17002SOL    HW254538  10.519   3.667   6.014 -0.9638  0.5043 -2.0935
17003SOL     OW54539   2.269   5.894   4.712 -0.6031 -0.7343  0.6668
17003SOL    HW154540   2.296   5.837   4.640 -1.4596 -0.0889 -0.1827
17003SOL    HW254541   2.256   5.834   4.786 -0.6522 -1.5353  0.0269
17004SOL     OW54542   0.568   2.640   2.636  0.5024 -0.2684  0.2726
17004SOL    HW154543   0.622   2.589   2.576 -0.1020 -0.6602  0.0517
17004SOL    HW254544   0.562   2.587   2.715  1.6983  0.4623  0.8859
17005SOL     OW54545   6.677   4.456   8.013  0.0684 -0.1738  0.1056
17005SOL    HW154546   6.695   4.451   7.919 -0.5517 -1.6854  0.0514
17005SOL    HW254547   6.724   4.382   8.051  0.4306  0.5065  1.0343
17006SOL     OW54548   6.090   0.785   5.549 -0.3388 -0.1417  0.2252
17006SOL    HW154549   6.032   0.731   5.495 -0.8528  0.1769  0.4612
17006SOL    HW254550   6.032   0.845   5.595  0.1029 -0.3903  1.1155
17007SOL     OW54551   3.255   7.111   2.621  0.1282  0.0488 -0.2294
17007SOL    HW154552   3.205   7.192   2.624 -0.2128 -0.1778  0.4147
17007SOL    HW254553   3.217   7.062   2.548  1.6274  1.2655 -1.9375
17008SOL     OW54554   4.691   9.768   1.338  0.1624  1.0408  0.1904
17008SOL    HW154555   4.607   9.781   1.384 -0.0856 -2.1763  0.8723
17008SOL    HW254556   4.677   9.808   1.252 -2.0485  0.7065  0.3237
17009SOL     OW54557   5.742   2.207   1.022 -0.5841  0.2997  0.1352
17009SOL    HW154558   5.804   2.231   0.953 -2.2510  0.3917 -1.3966
17009SOL    HW254559   5.737   2.286   1.077  0.7328  0.2376  0.3885
17010SOL     OW54560   8.049   2.284   5.722 -0.1879  0.1332  0.2491
17010SOL    HW154561   8.141   2.281   5.749  0.0268  2.5314 -0.0563
17010SOL    HW254562   8.006   2.217   5.776  1.6557 -0.8521  0.5912
17011SOL     OW54563  10.715   4.402   2.492 -0.4553 -0.4607  0.6077
17011SOL    HW154564  10.675   4.315   2.488  1.1743 -1.2111 -0.8020
17011SOL    HW254565  10.696   4.433   2.580 -1.1277 -2.2425  1.1310
17012SOL     OW54566   4.317   2.707   7.869 -0.0812  0.0860  0.3268
17012SOL    HW154567   4.364   2.712   7.952 -1.0043  1.5039  0.7917
17012SOL    HW254568   4.227   2.688   7.893 -0.2345 -0.1519 -0.3989
17013SOL     OW54569   2.389   5.335   5.692 -0.2962  0.5976 -0.6220
17013SOL    HW154570   2.361   5.422   5.721  0.6008  0.7969 -0.3396
17013SOL    HW254571   2.484   5.335   5.702 -0.3530 -0.7064  0.2011
17014SOL     OW54572   8.212   4.105   4.186 -0.4311 -0.0880 -0.1484
17014SOL    HW154573   8.217   4.197   4.213 -1.1611 -0.3774  1.0491
17014SOL    HW254574   8.303   4.075   4.185 -0.3163  0.1562  1.2655
17015SOL     OW54575   1.997  11.124   8.086 -0.1092 -0.4991 -0.1750
17015SOL    HW154576   2.035  11.137   8.173  0.3040  2.1807 -0.6653
17015SOL    HW254577   1.951  11.041   8.092 -0.9272  0.0576  2.9092
17016SOL     OW54578   4.289   4.243  10.705 -0.0841 -0.2529  0.7093
17016SOL    HW154579   4.216   4.301  10.683 -0.6920 -0.7977  1.2365
17016SOL    HW254580   4.248   4.160  10.726  0.6527 -0.4463  1.4589
17017SOL     OW54581   7.160   0.591   6.303 -0.0692 -0.1311  0.0066
17017SOL    HW154582   7.209   0.549   6.372  1.6584  0.4821 -0.7840
17017SOL    HW254583   7.106   0.521   6.264  3.5842 -2.0732 -2.0810
17018SOL     OW54584   9.509   7.519   4.543 -0.6959 -0.0169  0.5563
17018SOL    HW154585   9.584   7.463   4.565 -0.3225 -0.5344 -1.7295
17018SOL    HW254586   9.533   7.606   4.573  1.0405 -0.1003 -0.4760
17019SOL     OW54587   1.218   4.505   4.738  0.5176 -0.4946  0.0534
17019SOL    HW154588   1.238   4.485   4.829  2.4750  1.6301  0.1931
17019SOL    HW254589   1.258   4.590   4.723 -1.0114 -0.0934 -2.4125
17020SOL     OW54590   7.738   9.326   8.598  0.3382 -0.1677  0.0213
17020SOL    HW154591   7.689   9.367   8.669 -0.5888 -0.5353 -0.3971
17020SOL    HW254592   7.829   9.354   8.612 -0.1770  1.5847  0.0591
17021SOL     OW54593   9.799  10.778   6.368  0.3954 -0.1552 -0.5497
17021SOL    HW154594   9.876  10.726   6.390  0.2937  0.3513  1.2372
17021SOL    HW254595   9.795  10.844   6.438 -1.8029 -0.3387 -0.4523
17022SOL     OW54596   3.227   4.119  10.877  0.0555  0.1817  0.1807
17022SOL    HW154597   3.305   4.090  10.924 -1.5421 -2.0379  1.7372
17022SOL    HW254598   3.169   4.152  10.946 -0.3982  1.8243 -0.9319
17023SOL     OW54599   3.830   0.946   9.609 -0.0760  0.4945  0.4782
17023SOL    HW154600   3.755   0.887   9.602  0.6832 -0.3533 -0.8500
17023SOL    HW254601   3.825   1.002   9.531  0.8991  0.1368  0.1398
17024SOL     OW54602   7.514   4.150  10.653  0.6377  0.3399 -0.1155
17024SOL    HW154603   7.564   4.172  10.575 -0.2030  0.6455 -0.5823
17024SOL    HW254604   7.530   4.223  10.713 -1.2322  1.7563 -1.2261
17025SOL     OW54605   1.661   6.945   8.632  0.4920 -0.2126  0.0604
17025SOL    HW154606   1.670   7.028   8.678  0.0231 -0.4409  0.5720
17025SOL    HW254607   1.650   6.880   8.701  0.9612 -0.7204 -0.3300
17026SOL     OW54608   4.168   2.943   3.488 -0.5629 -0.1910  0.1520
17026SOL    HW154609   4.091   2.989   3.520 -0.1459  0.2626  0.5149
17026SOL    HW254610   4.233   2.954   3.557 -0.4863 -1.4113  0.2831
17027SOL     OW54611   9.193   4.136   3.201  0.7694 -0.2958  0.4628
17027SOL    HW154612   9.284   4.141   3.230  0.1252  1.5056  2.5238
17027SOL    HW254613   9.188   4.197   3.128  1.3896 -1.1521 -0.3186
17028SOL     OW54614   2.961   6.260   8.205 -0.4539  0.6812  0.3050
17028SOL    HW154615   2.998   6.185   8.158  1.0690  1.4505  0.2003
17028SOL    HW254616   2.961   6.234   8.296 -0.8141  0.2014  0.1673
17029SOL     OW54617   7.132   8.625   5.715  0.2036  0.7136  0.2315
17029SOL    HW154618   7.082   8.670   5.647  1.4577  1.3226 -0.3044
17029SOL    HW254619   7.223   8.650   5.700  0.4061  1.9832  2.9573
17030SOL     OW54620   9.301  10.174   5.124  0.1005  1.1612  0.0297
17030SOL    HW154621   9.334  10.260   5.153  0.9333  1.5311 -1.8658
17030SOL    HW254622   9.379  10.118   5.124 -0.4913  0.2839  1.5153
17031SOL     OW54623  10.059   2.259   3.845  0.3653 -0.0160 -0.2204
17031SOL    HW154624  10.069   2.305   3.929  1.2981 -2.0534  0.8719
17031SOL    HW254625  10.148   2.234   3.820  0.0317  0.0363 -1.5280
17032SOL     OW54626   3.023   2.922   2.736  0.2554  0.7030 -0.5276
17032SOL    HW154627   3.028   2.949   2.828  1.7424  0.6966 -0.5712
17032SOL    HW254628   3.108   2.881   2.719 -0.2830  0.0275 -1.7032
17033SOL     OW54629  10.022   6.563   9.147  0.0922 -0.2738 -0.4118
17033SOL    HW154630   9.978   6.481   9.168 -0.3057  0.4260  1.7115
17033SOL    HW254631  10.105   6.560   9.195  0.0307  0.5883 -0.2313
17034SOL     OW54632   2.925   4.855   8.227 -0.0892 -0.0330  0.1542
17034SOL    HW154633   2.837   4.823   8.248  0.0029 -0.8456 -0.6092
17034SOL    HW254634   2.951   4.905   8.304 -1.3094  0.4187  0.2942
17035SOL     OW54635  10.312   6.585  10.975 -0.0974  0.0248  0.0099
17035SOL    HW154636  10.346   6.625  11.055 -1.5581 -1.1357  1.2680
17035SOL    HW254637  10.389   6.576  10.919  0.6046  2.9217  0.3153
17036SOL     OW54638  11.062   9.361   6.845  0.3668 -0.1190 -0.1307
17036SOL    HW154639  10.998   9.404   6.788  1.0899  0.2308 -0.7122
17036SOL    HW254640  11.107   9.433   6.888 -0.4801 -0.3977  1.2532
17037SOL     OW54641   2.037   8.201   0.675 -0.5073  0.2451 -0.8300
17037SOL    HW154642   1.977   8.169   0.742  0.7887  0.3645  0.4459
17037SOL    HW254643   2.047   8.295   0.695 -0.4239  0.3672 -1.4350
17038SOL     OW54644   9.074   2.383   9.646 -0.5782 -0.2884 -0.2209
17038SOL    HW154645   9.114   2.467   9.667  1.6780 -1.8314  2.3362
17038SOL    HW254646   9.125   2.349   9.572  0.8431 -0.8340  0.9592
17039SOL     OW54647  10.601   0.736  11.082  0.2552 -0.2068 -0.2715
17039SOL    HW154648  10.679   0.792  11.088  1.0140 -1.0098 -1.9233
17039SOL    HW254649  10.551   0.757  11.161  1.8729  0.7386  0.5770
17040SOL     OW54650   9.252   7.446   8.442 -0.3188 -0.7367  0.0836
17040SOL    HW154651   9.163   7.466   8.471 -0.4688  0.8894 -1.3526
17040SOL    HW254652   9.271   7.512   8.376  2.2871 -0.5295  0.9399
17041SOL     OW54653   4.762   1.357   0.653  0.0141  0.0978  0.0408
17041SOL    HW154654   4.812   1.299   0.711  1.0415 -1.1625 -1.9919
17041SOL    HW254655   4.674   1.322   0.653  0.7431 -1.8971 -1.5834
17042SOL     OW54656  10.257   7.534   2.421 -0.7189  0.4116 -0.4477
17042SOL    HW154657  10.314   7.563   2.493 -1.6595 -0.0268  0.5128
17042SOL    HW254658  10.296   7.572   2.342  1.6591 -0.9397 -0.0227
17043SOL     OW54659   3.617   2.328   7.074  0.0736 -0.8699  0.3317
17043SOL    HW154660   3.561   2.342   6.997 -1.1838  0.6046  1.4513
17043SOL    HW254661   3.705   2.351   7.043 -0.8847  3.3602  0.1459
17044SOL     OW54662   3.177   2.904   4.448  0.6133  0.2506  0.1598
17044SOL    HW154663   3.095   2.953   4.446  0.2056 -0.4230 -0.0816
17044SOL    HW254664   3.245   2.971   4.452  0.0987  0.8485 -0.7764
17045SOL     OW54665   6.501   9.542   5.530 -0.0852 -0.4237  0.5782
17045SOL    HW154666   6.591   9.538   5.499 -0.1753 -0.5507  0.3276
17045SOL    HW254667   6.448   9.516   5.454 -0.5474  2.6793 -0.3102
17046SOL     OW54668   9.591   8.404   7.371  0.0359 -0.2400 -0.5076
17046SOL    HW154669   9.594   8.474   7.436 -0.4468  0.9765 -1.7509
17046SOL    HW254670   9.638   8.439   7.296 -0.5928 -1.0771 -1.3158
17047SOL     OW54671   5.919   9.493   0.769  0.0094 -0.5141  0.0793
17047SOL    HW154672   5.954   9.579   0.747  1.6475 -0.7650  1.5239
17047SOL    HW254673   5.829   9.494   0.735  0.5832  1.0799 -1.5045
17048SOL     OW54674   0.032   7.133   0.874 -0.3017 -0.8395  0.2303
17048SOL    HW154675   0.073   7.058   0.917 -1.0847  0.1573  2.8802
17048SOL    HW254676   0.097   7.203   0.882 -1.1229 -0.1885  1.3416
17049SOL     OW54677   3.036   8.384   5.567 -0.1870 -0.3605 -0.6066
17049SOL    HW154678   2.942   8.400   5.569  0.0387  1.0814 -0.5421
17049SOL    HW254679   3.054   8.354   5.478 -0.8018 -1.3555 -0.4067
17050SOL     OW54680   8.634   4.587   7.086  0.0613  0.1020  0.2464
17050SOL    HW154681   8.630   4.598   6.991 -0.9864 -3.0901 -0.1874
17050SOL    HW254682   8.545   4.565   7.112  0.7676 -1.2691  1.6233
17051SOL     OW54683   4.875   8.679   6.337 -0.1209  0.3507 -0.2948
17051SOL    HW154684   4.867   8.764   6.294  0.4938  0.4657 -0.1821
17051SOL    HW254685   4.808   8.680   6.406 -0.8384  0.3196 -0.9829
17052SOL     OW54686   0.619   8.756   2.798 -0.4159  0.4178  0.0045
17052SOL    HW154687   0.531   8.791   2.783 -0.5727 -0.2869 -0.7655
17052SOL    HW254688   0.677   8.829   2.775 -0.7953  1.4222  2.0022
17053SOL     OW54689   2.843   8.515   6.514  0.2582  0.2988  0.1174
17053SOL    HW154690   2.916   8.509   6.575  0.6244  1.5204 -0.1795
17053SOL    HW254691   2.844   8.432   6.467  0.6097 -0.2395  1.0421
17054SOL     OW54692   5.683   4.381   2.798  0.2841 -0.0158 -0.5753
17054SOL    HW154693   5.593   4.352   2.783  0.4379  0.5861 -2.9279
17054SOL    HW254694   5.737   4.309   2.767  0.6700 -0.3729  0.8249
17055SOL     OW54695   7.501   6.434   8.030 -0.1672 -0.5053  0.0855
17055SOL    HW154696   7.554   6.448   8.108 -0.5214 -0.6608  0.3601
17055SOL    HW254697   7.412   6.421   8.064 -0.2360 -1.0863 -0.3040
17056SOL     OW54698  10.752   6.756   9.915 -0.0141 -0.2112  0.6364
17056SOL    HW154699  10.808   6.828   9.945  0.2374 -0.7998  1.6225
17056SOL    HW254700  10.805   6.678   9.926 -0.7287 -0.6874  0.7784
17057SOL     OW54701   1.185   6.542   8.483  0.3184 -0.3792  0.0905
17057SOL    HW154702   1.274   6.552   8.449  0.5021 -1.1814  0.3113
17057SOL    HW254703   1.195   6.491   8.563 -0.5079 -2.3219 -0.9443
17058SOL     OW54704   8.291   9.580   1.547  0.0023  0.2505 -0.3773
17058SOL    HW154705   8.204   9.573   1.587  0.8989 -0.7312  1.5815
17058SOL    HW254706   8.333   9.652   1.594  0.3503  0.5101 -1.0819
17059SOL     OW54707   5.945  10.864   3.259 -0.1296  0.1012  0.0203
17059SOL    HW154708   6.036  10.871   3.230  1.0467 -0.2090  3.2802
17059SOL    HW254709   5.942  10.782   3.309 -1.9264  0.6113  0.8430
17060SOL     OW54710   8.269   9.524   0.720  0.2925  0.2820 -0.0745
17060SOL    HW154711   8.338   9.589   0.724  0.6034 -0.0764  0.4052
17060SOL    HW254712   8.230   9.524   0.807  0.6594 -0.5681  0.0955
17061SOL     OW54713   4.733   1.813   8.231 -0.1199  0.0519 -0.7552
17061SOL    HW154714   4.661   1.819   8.294  0.0869 -3.1624 -0.0633
17061SOL    HW254715   4.695   1.843   8.148 -1.8382 -0.2317 -0.1034
17062SOL     OW54716   3.710   2.957   7.082  0.5361 -0.0278  0.0765
17062SOL    HW154717   3.749   2.872   7.063 -0.3087 -0.3945 -0.0787
17062SOL    HW254718   3.620   2.936   7.108 -0.2212  0.9294 -1.6001
17063SOL     OW54719   2.468   0.849  10.343  0.0900  0.0493  0.2859
17063SOL    HW154720   2.547   0.848  10.289 -0.4124  0.6624 -0.4787
17063SOL    HW254721   2.444   0.757  10.353  0.6295 -0.1112  0.1254
17064SOL     OW54722   3.876   5.845   8.986  0.0466  0.0671  0.7627
17064SOL    HW154723   3.907   5.936   8.983  1.0639 -0.2858 -0.1174
17064SOL    HW254724   3.926   5.806   9.058  1.4217 -0.3997 -0.4052
17065SOL     OW54725   6.797   1.128   2.803 -0.8658 -0.1381 -0.1500
17065SOL    HW154726   6.769   1.207   2.757 -1.7904  0.0387  0.6802
17065SOL    HW254727   6.794   1.059   2.737  0.4469  0.5996 -1.0090
17066SOL     OW54728   1.066   4.853   3.743  0.1832 -0.4840 -0.5969
17066SOL    HW154729   1.008   4.785   3.709  2.0993 -2.2758 -0.4889
17066SOL    HW254730   1.057   4.847   3.838 -0.7165  0.4540 -0.6004
17067SOL     OW54731   7.726   3.141   8.812 -0.3944 -0.2860  0.1748
17067SOL    HW154732   7.805   3.108   8.771 -0.2832  0.4537 -0.2066
17067SOL    HW254733   7.726   3.235   8.795 -0.2098  0.0948  2.0704
17068SOL     OW54734   7.801   9.183   7.021 -0.2673 -0.1160 -0.3191
17068SOL    HW154735   7.845   9.110   7.064  0.7265  1.3481  1.2931
17068SOL    HW254736   7.708   9.167   7.034 -0.0346 -0.6406  0.8537
17069SOL     OW54737   5.881   6.110   0.029 -0.0235 -0.2604 -0.1877
17069SOL    HW154738   5.822   6.037   0.048  0.3003 -0.1178  1.5344
17069SOL    HW254739   5.905   6.144   0.115 -0.8215  2.4233 -0.9352
17070SOL     OW54740   3.481   5.084   5.922 -0.6014  0.3929  0.3817
17070SOL    HW154741   3.557   5.088   5.979  0.5010 -1.4611 -0.8353
17070SOL    HW254742   3.464   5.174   5.897  0.4920  0.9486  1.5695
17071SOL     OW54743   9.778   7.261   3.366 -0.2529 -0.0926 -0.0874
17071SOL    HW154744   9.720   7.266   3.290 -0.7594 -0.3304  0.2735
17071SOL    HW254745   9.723   7.291   3.439  0.4066  0.7048  0.0893
17072SOL     OW54746   2.767   3.060   6.432  0.0881  0.1581  0.0489
17072SOL    HW154747   2.852   3.022   6.409 -0.4044 -2.3764  1.9441
17072SOL    HW254748   2.755   3.132   6.370  2.2245 -1.3200 -2.2578
17073SOL     OW54749   4.583  10.357   4.825 -0.5953  0.0799 -0.2423
17073SOL    HW154750   4.657  10.355   4.886 -1.1169  2.4561  0.5514
17073SOL    HW254751   4.525  10.288   4.857 -0.1423  0.2461  1.0008
17074SOL     OW54752   4.836   6.393   9.090 -0.5550  0.6867 -0.5400
17074SOL    HW154753   4.788   6.427   9.165 -0.7831  0.2612 -0.4958
17074SOL    HW254754   4.877   6.471   9.052  0.2755  0.8026  0.5255
17075SOL     OW54755   5.589   0.148   0.211  0.0163  0.4238 -0.5262
17075SOL    HW154756   5.638   0.074   0.176  2.3322  1.4660  0.3265
17075SOL    HW254757   5.536   0.111   0.281 -1.9906 -1.0616 -2.6526
17076SOL     OW54758   1.579   1.635   4.106  0.2371 -0.2357 -0.0549
17076SOL    HW154759   1.608   1.693   4.036  0.5641 -0.6760 -0.2861
17076SOL    HW254760   1.543   1.694   4.172 -0.8379  0.1329 -0.9378
17077SOL     OW54761   4.807   0.361   9.580 -0.0636  0.9838  0.7077
17077SOL    HW154762   4.839   0.272   9.593 -3.2572 -0.5148 -0.6824
17077SOL    HW254763   4.761   0.382   9.661 -1.3127  0.3647  0.1887
17078SOL     OW54764  10.214   1.341  10.544  0.3780  0.6747 -0.0808
17078SOL    HW154765  10.154   1.416  10.547 -0.0409  0.4913 -2.1409
17078SOL    HW254766  10.253   1.346  10.457  3.4022  0.7598  1.1530
17079SOL     OW54767   6.492   2.209   0.219 -0.4507  0.6019  0.3382
17079SOL    HW154768   6.568   2.216   0.277 -1.4276  1.2280  1.5829
17079SOL    HW254769   6.496   2.119   0.185  2.0111  1.2528 -1.3094
17080SOL     OW54770   9.511   4.679  11.014  0.0607  0.3147 -0.1338
17080SOL    HW154771   9.559   4.633  10.944 -0.4882  1.8433 -1.5609
17080SOL    HW254772   9.580   4.721  11.066  0.3763  1.1416 -1.1952
17081SOL     OW54773   7.687   0.478   8.869 -0.3965 -0.0049  0.5312
17081SOL    HW154774   7.662   0.479   8.962 -1.5036  0.8094  0.2516
17081SOL    HW254775   7.648   0.398   8.834 -2.9636  1.3459  0.0574
17082SOL     OW54776   8.616   9.878   0.412 -0.5103  0.2944 -0.6046
17082SOL    HW154777   8.647   9.818   0.345 -2.6535 -0.9064 -0.6005
17082SOL    HW254778   8.562   9.941   0.365  0.6618  1.4692 -0.4214
17083SOL     OW54779   8.319   4.911   3.063  0.2968 -0.5792  0.2377
17083SOL    HW154780   8.321   4.995   3.017 -1.3827 -0.7430 -0.1905
17083SOL    HW254781   8.411   4.888   3.073  0.7721 -0.3110 -2.6392
17084SOL     OW54782   1.145  10.671   3.125 -0.1541 -0.8196  0.1331
17084SOL    HW154783   1.173  10.736   3.060  0.9444 -0.8076  0.5999
17084SOL    HW254784   1.112  10.598   3.073 -0.4973 -0.2838 -0.4135
17085SOL     OW54785   1.416   0.541   3.929 -0.1429 -0.0323  0.2921
17085SOL    HW154786   1.379   0.481   3.995 -2.0735  0.0213 -0.6601
17085SOL    HW254787   1.427   0.624   3.976 -1.2576 -0.0629  0.6333
17086SOL     OW54788   9.276   1.102   0.508  0.1952 -0.2762  0.1710
17086SOL    HW154789   9.337   1.129   0.576 -0.7322  1.5354  0.3535
17086SOL    HW254790   9.254   1.183   0.462 -2.9981 -0.6014  0.9109
17087SOL     OW54791  10.929   9.849   6.257 -0.4424 -0.9615  0.0032
17087SOL    HW154792  10.981   9.927   6.276 -2.6186  0.1005  2.1089
17087SOL    HW254793  10.976   9.777   6.298 -0.4882 -0.0612  1.6979
17088SOL     OW54794   4.190   0.402   0.487 -0.5929 -0.1238  0.4098
17088SOL    HW154795   4.103   0.434   0.466 -0.1543  1.3267  0.6787
17088SOL    HW254796   4.229   0.380   0.402 -1.1301 -0.5665  0.2727
17089SOL     OW54797   8.641   5.686   1.296 -0.2278 -0.0083 -0.3300
17089SOL    HW154798   8.659   5.751   1.228 -0.7144  1.2151  0.6608
17089SOL    HW254799   8.654   5.733   1.378 -0.6651 -1.1618  0.4303
17090SOL     OW54800   0.636   5.945   8.442 -0.5057  0.1691 -0.2774
17090SOL    HW154801   0.714   6.000   8.450 -0.2425 -0.2701  0.2607
17090SOL    HW254802   0.593   5.976   8.363  0.6229 -0.0867 -1.0189
17091SOL     OW54803   5.486   2.744   7.559  0.0876  0.4005  0.3016
17091SOL    HW154804   5.478   2.831   7.520  1.6239 -0.8893 -3.3149
17091SOL    HW254805   5.431   2.688   7.505  0.0829 -1.1396  1.7952
17092SOL     OW54806   0.431   8.938   4.336  0.1750 -0.5146  0.0177
17092SOL    HW154807   0.454   8.859   4.286 -0.0420  0.1612 -1.1910
17092SOL    HW254808   0.468   9.010   4.285 -1.1003  0.2936  0.1797
17093SOL     OW54809   9.468   0.536   6.646 -0.3031  0.0508 -0.3558
17093SOL    HW154810   9.558   0.506   6.661  0.2683 -0.1734 -3.4191
17093SOL    HW254811   9.444   0.583   6.725  2.1653 -0.6974  0.9350
17094SOL     OW54812  10.150   7.868   0.353 -0.0742  0.1435  0.6610
17094SOL    HW154813  10.124   7.802   0.289 -1.3927  0.9074  0.3696
17094SOL    HW254814  10.141   7.825   0.437 -0.9259 -0.0590  0.4715
17095SOL     OW54815   8.710  11.059   1.543 -0.1307 -0.7049  0.2227
17095SOL    HW154816   8.696  11.125   1.611 -0.4718 -0.3797 -0.1562
17095SOL    HW254817   8.637  10.998   1.553  0.9139 -1.8252  1.4630
17096SOL     OW54818   9.228   8.229  10.667 -0.5403  0.0559  0.5574
17096SOL    HW154819   9.204   8.255  10.578 -0.9983  0.3810  0.7685
17096SOL    HW254820   9.144   8.227  10.714 -0.2554  0.3037  1.0857
17097SOL     OW54821   2.968   6.292  10.996 -0.1421 -0.0740  0.4869
17097SOL    HW154822   2.949   6.287  11.090  0.1685  2.4662  0.7589
17097SOL    HW254823   2.917   6.367  10.965  1.6694  0.6958 -0.8323
17098SOL     OW54824   6.357   8.776   4.732  0.1065 -0.0402 -0.0087
17098SOL    HW154825   6.437   8.819   4.763  0.3729 -1.3019  1.1644
17098SOL    HW254826   6.313   8.747   4.812  0.8268 -3.4726 -0.7038
17099SOL     OW54827   8.218   4.231   3.582  0.0706  0.6584  0.1738
17099SOL    HW154828   8.209   4.160   3.518  0.9700  0.5402  0.1682
17099SOL    HW254829   8.292   4.283   3.551  0.8722  0.2939  1.3896
17100SOL     OW54830  10.157   6.509   9.751 -0.3023  0.0609 -0.2473
17100SOL    HW154831  10.129   6.422   9.778 -0.4266 -0.0015 -0.5774
17100SOL    HW254832  10.248   6.515   9.779 -0.7726  0.4733  1.3643
17101SOL     OW54833  11.127   7.143   4.647 -0.6136 -0.1477  0.0528
17101SOL    HW154834  11.145   7.049   4.657 -0.4786 -0.1258  0.0163
17101SOL    HW254835  11.213   7.184   4.643 -0.5169 -0.3958 -3.5551
17102SOL     OW54836   4.117   4.491   1.958 -0.4485  0.1935  0.1163
17102SOL    HW154837   4.143   4.474   2.049  0.0987 -1.2611 -0.2821
17102SOL    HW254838   4.188   4.453   1.905 -0.9867  0.5950 -0.9240
17103SOL     OW54839   1.242   1.317   2.438  0.3237  0.4324 -0.0821
17103SOL    HW154840   1.206   1.233   2.408  0.0300 -0.9050  3.5151
17103SOL    HW254841   1.165   1.365   2.470  0.8740  0.4801  1.2361
17104SOL     OW54842   1.550   0.931  11.070  0.2748 -0.3481 -0.1519
17104SOL    HW154843   1.636   0.947  11.108 -0.0605 -0.6735  0.7639
17104SOL    HW254844   1.565   0.862  11.005  0.5987 -0.8369  0.4344
17105SOL     OW54845   3.760   4.343   2.942  0.2481 -0.3513 -0.4329
17105SOL    HW154846   3.695   4.347   2.872 -0.5377 -0.5228  0.2698
17105SOL    HW254847   3.843   4.327   2.897 -0.1616  0.0694 -1.3591
17106SOL     OW54848  10.663  10.608   3.782 -0.1567 -0.0327  0.5113
17106SOL    HW154849  10.672  10.586   3.690 -0.3810 -0.5127  0.5992
17106SOL    HW254850  10.659  10.523   3.827 -0.4366  0.1931  0.9204
17107SOL     OW54851   5.741   1.991   8.138 -0.3320  0.0808  0.7810
17107SOL    HW154852   5.776   2.047   8.069 -0.5905 -0.7745 -0.0650
17107SOL    HW254853   5.748   1.902   8.103 -1.1890 -0.3006  1.5335
17108SOL     OW54854   6.007   5.043   8.140 -0.0959 -0.4324 -0.2169
17108SOL    HW154855   6.032   4.957   8.104  2.9680  0.4180 -0.4312
17108SOL    HW254856   6.067   5.104   8.097 -1.8363  1.7858  0.3432
17109SOL     OW54857   4.889   0.363   6.595  0.7685 -0.0496 -0.1195
17109SOL    HW154858   4.930   0.426   6.535  3.6641 -0.6488  1.0525
17109SOL    HW254859   4.949   0.288   6.595 -0.4640 -1.0995  1.6178
17110SOL     OW54860   7.760   8.644   8.245 -0.9109  0.1901 -0.5385
17110SOL    HW154861   7.785   8.552   8.257 -1.2350  0.1400 -0.2295
17110SOL    HW254862   7.739   8.650   8.152  0.6511  0.3418 -0.9073
17111SOL     OW54863   9.970   5.511   0.610  0.0643 -0.4075 -0.2454
17111SOL    HW154864   9.890   5.478   0.652  2.0439 -3.5831  1.4061
17111SOL    HW254865   9.980   5.457   0.532  1.0370 -0.7232  0.0756
17112SOL     OW54866   4.611   1.068   4.854 -0.4313  0.9655 -0.2867
17112SOL    HW154867   4.525   1.060   4.812  0.1433 -1.3954 -1.2135
17112SOL    HW254868   4.597   1.036   4.943 -0.3971 -0.2258 -0.6855
17113SOL     OW54869   2.945   5.781   6.303 -0.1531  0.1053 -0.1640
17113SOL    HW154870   2.975   5.832   6.378 -0.1860 -1.8426  1.2381
17113SOL    HW254871   3.008   5.710   6.295 -1.8751 -1.5233  0.0367
17114SOL     OW54872   8.859  10.347   3.362  0.0985 -0.2251 -0.4359
17114SOL    HW154873   8.855  10.253   3.342 -0.6895 -0.1446 -0.6940
17114SOL    HW254874   8.822  10.354   3.450  1.1560 -0.2754  0.0233
17115SOL     OW54875  10.919  10.201   8.073  0.2530  0.2313 -0.4486
17115SOL    HW154876  10.991  10.154   8.030 -0.0044 -1.0802  0.4779
17115SOL    HW254877  10.957  10.230   8.157 -0.1269  0.0535 -0.2153
17116SOL     OW54878   1.583   9.228   2.162  0.0960 -0.3893 -0.3061
17116SOL    HW154879   1.601   9.177   2.083 -1.2002 -1.8748  0.2991
17116SOL    HW254880   1.569   9.162   2.231  2.3293  0.8581  1.4776
17117SOL     OW54881   0.291   3.832   1.587 -0.1379 -0.7090  0.0487
17117SOL    HW154882   0.326   3.761   1.532  0.5701 -0.0021 -0.4422
17117SOL    HW254883   0.311   3.912   1.537 -2.1933 -0.2428 -0.0920
17118SOL     OW54884   5.881   8.192   8.014  0.7165 -0.2931  0.3241
17118SOL    HW154885   5.947   8.189   8.084  2.8535 -0.1109 -1.5641
17118SOL    HW254886   5.931   8.179   7.933 -1.5761  0.0013 -1.2437
17119SOL     OW54887   4.199  10.081   0.472  0.0351 -0.3377 -0.0891
17119SOL    HW154888   4.190  10.024   0.396 -1.6185 -0.2518  0.0210
17119SOL    HW254889   4.146  10.039   0.540  0.5750  0.1886  0.6766
17120SOL     OW54890  10.541   6.584   4.334 -0.0142  0.3798 -0.0286
17120SOL    HW154891  10.465   6.549   4.289  0.4198 -0.6909  0.0549
17120SOL    HW254892  10.614   6.569   4.274  0.0997  1.7709 -0.2919
17121SOL     OW54893  10.910   8.320   7.017  0.3579  0.3465 -0.4003
17121SOL    HW154894  10.835   8.302   6.960 -0.7472 -0.5274  1.2546
17121SOL    HW254895  10.973   8.250   6.997  0.1808  0.3171 -0.8611
17122SOL     OW54896   5.136   8.505   7.731 -0.2118 -0.3687  0.2138
17122SOL    HW154897   5.092   8.533   7.651 -0.6396  1.3637  1.0029
17122SOL    HW254898   5.065   8.481   7.790 -0.2251  2.2742  1.4350
17123SOL     OW54899  10.721   8.265   2.711  0.2288  0.0583  0.3916
17123SOL    HW154900  10.659   8.269   2.638 -0.7917 -0.7509  1.1831
17123SOL    HW254901  10.703   8.181   2.753  0.0259  0.9678  2.2316
17124SOL     OW54902   9.806   6.447   0.951  0.3109  0.1870  0.3792
17124SOL    HW154903   9.836   6.427   1.039  0.9652  0.0463  0.1339
17124SOL    HW254904   9.781   6.363   0.913  3.1372 -0.2838 -0.6782
17125SOL     OW54905   1.879   7.390  10.688 -0.2501  0.0515 -0.1510
17125SOL    HW154906   1.920   7.383  10.602 -1.5345 -1.6501 -0.6644
17125SOL    HW254907   1.786   7.404  10.670 -0.5669 -0.5025  0.9426
17126SOL     OW54908   5.663   0.312   0.920  0.0058  0.6091  0.5247
17126SOL    HW154909   5.665   0.220   0.893  1.3319  1.1377 -1.3258
17126SOL    HW254910   5.749   0.327   0.960 -0.5097  0.8540  1.5773
17127SOL     OW54911   7.599  10.825   2.010 -0.1574  0.0748 -0.1246
17127SOL    HW154912   7.626  10.893   2.071  0.0025 -0.4333  0.3856
17127SOL    HW254913   7.526  10.863   1.962  0.0060  0.6446  0.0731
17128SOL     OW54914   4.016   5.783   2.039 -0.1861  0.6383  0.2828
17128SOL    HW154915   3.953   5.830   1.984 -0.9854 -0.1391  0.4981
17128SOL    HW254916   4.005   5.691   2.015  1.5707  0.5644 -0.3508
17129SOL     OW54917   6.840   4.029   7.659  0.2983 -0.1186 -0.2468
17129SOL    HW154918   6.895   4.076   7.597 -0.4006 -0.3798 -1.0914
17129SOL    HW254919   6.756   4.076   7.657  0.4817  0.2986  1.0401
17130SOL     OW54920   5.732   1.010   5.335  0.1313 -0.1352 -0.4556
17130SOL    HW154921   5.817   0.969   5.352 -0.0059  0.4139  1.9531
17130SOL    HW254922   5.705   0.976   5.250  1.6514 -2.2363 -0.1680
17131SOL     OW54923   2.681   0.082   3.975  0.1963  0.7907  0.2157
17131SOL    HW154924   2.665   0.121   3.889  1.8994  1.6400  0.2414
17131SOL    HW254925   2.711   0.155   4.030  4.3011 -0.4857  0.0431
17132SOL     OW54926   6.154   6.001   6.124 -0.4103 -0.0535 -0.4889
17132SOL    HW154927   6.207   5.922   6.111 -0.4781 -0.5607  1.9718
17132SOL    HW254928   6.112   5.989   6.209 -2.0486  1.7435 -0.9618
17133SOL     OW54929   0.576   6.454   2.224  0.1743  0.2656  0.2317
17133SOL    HW154930   0.523   6.412   2.156  2.9976 -0.1992 -1.8721
17133SOL    HW254931   0.514   6.505   2.275 -2.2040  0.1770 -2.3536
17134SOL     OW54932   3.965  10.021   9.589 -0.4015  0.1406  0.3315
17134SOL    HW154933   3.940  10.066   9.508  0.4285 -1.5182 -0.9317
17134SOL    HW254934   4.007   9.940   9.558 -1.6144 -1.3833  2.4603
17135SOL     OW54935   3.098   3.602   0.635 -0.3907  0.0404 -0.2997
17135SOL    HW154936   3.037   3.599   0.709 -0.7648 -0.4255 -0.6168
17135SOL    HW254937   3.082   3.687   0.594  0.4694  0.6945  0.6857
17136SOL     OW54938   9.662  10.398   5.752 -0.2021 -0.3634  0.1671
17136SOL    HW154939   9.601  10.380   5.823 -0.2924  0.3846  0.2838
17136SOL    HW254940   9.731  10.333   5.763 -0.3625 -0.4422  0.7577
17137SOL     OW54941   3.437   5.595  10.880 -0.1064  0.1378 -0.3779
17137SOL    HW154942   3.457   5.503  10.899 -0.5045  0.2583  0.6768
17137SOL    HW254943   3.495   5.644  10.938 -1.1160  0.5256  0.3138
17138SOL     OW54944   4.330   8.170   9.897  0.0855  0.4131  0.4678
17138SOL    HW154945   4.404   8.206   9.946 -0.5221  1.7146  0.4624
17138SOL    HW254946   4.360   8.084   9.867  1.5334  0.8545  0.6071
17139SOL     OW54947  10.302   3.911   4.756 -0.8238 -0.3458  0.0094
17139SOL    HW154948  10.357   3.894   4.833 -0.3955  0.3035 -0.1482
17139SOL    HW254949  10.342   3.859   4.686 -0.9215 -0.5443  0.0982
17140SOL     OW54950   8.492   1.486   0.514  0.3803 -0.0628 -0.0454
17140SOL    HW154951   8.566   1.546   0.508 -0.5120  1.1701  0.7034
17140SOL    HW254952   8.434   1.512   0.442  0.2876 -0.4462 -0.1098
17141SOL     OW54953   4.205  10.530   1.897 -0.0378 -0.2555  0.1167
17141SOL    HW154954   4.269  10.493   1.835 -0.1965 -0.7509  0.2443
17141SOL    HW254955   4.236  10.501   1.983 -0.1651 -0.0867  0.2190
17142SOL     OW54956   9.063   4.702   2.569 -0.4921 -0.0643 -0.1438
17142SOL    HW154957   9.109   4.772   2.615  0.9191 -1.0061 -0.0614
17142SOL    HW254958   9.078   4.625   2.623 -1.0995 -0.6557 -0.8044
17143SOL     OW54959   3.440   3.369   3.117 -0.0628 -0.6179 -0.4051
17143SOL    HW154960   3.433   3.461   3.142 -0.1258 -0.8368  0.4232
17143SOL    HW254961   3.482   3.327   3.192 -0.7504 -1.4048 -0.4470
17144SOL     OW54962   9.630   9.818   3.577  0.1238 -0.3394  0.0054
17144SOL    HW154963   9.557   9.872   3.608  1.1042  1.4316 -0.6419
17144SOL    HW254964   9.700   9.835   3.640  1.2875  1.2536 -1.6418
17145SOL     OW54965   0.690   0.264   0.276  0.3456  0.1375 -0.1713
17145SOL    HW154966   0.712   0.331   0.341 -1.8933  0.4817  0.3086
17145SOL    HW254967   0.719   0.301   0.193  0.2091  1.1929  0.2333
17146SOL     OW54968  10.143   9.625   0.634 -0.2125  0.4294  0.1477
17146SOL    HW154969  10.099   9.558   0.686 -1.8469  1.8919  0.7264
17146SOL    HW254970  10.162   9.696   0.696 -0.0916  1.2359 -0.7811
17147SOL     OW54971   5.414   8.999   1.633 -0.2280  0.4663 -0.5219
17147SOL    HW154972   5.365   8.920   1.611 -1.4093  1.3328 -1.0586
17147SOL    HW254973   5.493   8.994   1.579 -1.0395  0.4072 -1.7458
17148SOL     OW54974   9.195   4.464   8.234  0.0768  0.2003  0.0137
17148SOL    HW154975   9.143   4.534   8.273 -1.4408 -0.6095 -0.4634
17148SOL    HW254976   9.286   4.488   8.252 -0.2274  3.3420 -1.8059
17149SOL     OW54977   3.109   3.068   8.054 -0.7182  0.0148 -0.4983
17149SOL    HW154978   3.121   3.159   8.026  0.9862 -0.4460 -1.4428
17149SOL    HW254979   3.140   3.016   7.979  1.0379 -1.3070  1.0572
17150SOL     OW54980   1.059  10.226   0.163  0.1318  0.0137 -0.1615
17150SOL    HW154981   1.150  10.202   0.148  0.0575 -0.0789 -0.4665
17150SOL    HW254982   1.060  10.322   0.170  0.1780  0.0519 -0.6829
17151SOL     OW54983   2.583   2.596   6.544  0.1872  0.7762 -0.1513
17151SOL    HW154984   2.675   2.606   6.567  0.4720  2.5094 -1.7637
17151SOL    HW254985   2.537   2.654   6.605  0.1726  0.0319  0.5508
17152SOL     OW54986   3.598   9.631   0.452  0.1470 -0.2177 -0.7239
17152SOL    HW154987   3.564   9.544   0.477  0.7700 -0.4612 -0.6951
17152SOL    HW254988   3.652   9.657   0.526 -0.6285  0.5396 -0.4056
17153SOL     OW54989   5.006   2.555   8.106  0.1455 -0.3710  0.2322
17153SOL    HW154990   4.993   2.488   8.173  0.4079  1.5819  2.3427
17153SOL    HW254991   4.924   2.556   8.057 -0.2395 -1.5135  0.8102
17154SOL     OW54992   7.825   1.076  10.821 -0.3764 -0.4300 -0.0334
17154SOL    HW154993   7.737   1.073  10.784 -0.5716  0.3069  0.3600
17154SOL    HW254994   7.848   1.169  10.822  0.0866 -0.5441  0.6077
17155SOL     OW54995   8.172   1.811   5.152  0.7790 -0.0271  0.1774
17155SOL    HW154996   8.197   1.890   5.200  0.7963  0.4031 -0.5258
17155SOL    HW254997   8.254   1.779   5.114  0.3921  1.1938 -1.8471
17156SOL     OW54998   2.528   7.999   9.130  0.1125  0.0287 -0.3514
17156SOL    HW154999   2.551   8.067   9.067 -0.4477  0.3437 -0.2156
17156SOL    HW255000   2.547   7.917   9.084  0.4041  0.2657 -0.6608
17157SOL     OW55001   2.873   3.477   9.530 -0.8323  0.0689 -0.0955
17157SOL    HW155002   2.925   3.542   9.577  1.4421  0.6069 -3.0560
17157SOL    HW255003   2.865   3.403   9.591  1.0006  1.0986  1.4879
17158SOL     OW55004   9.398  10.610   9.280 -0.8968  0.6065  0.1883
17158SOL    HW155005   9.391  10.702   9.254  1.7510  0.8079 -0.0951
17158SOL    HW255006   9.449  10.570   9.210 -1.4146 -0.9350  0.6675
17159SOL     OW55007   5.923  10.427   3.952  0.0603  0.1210 -0.1883
17159SOL    HW155008   6.017  10.444   3.960 -0.1405  1.3285 -0.0821
17159SOL    HW255009   5.916  10.364   3.880  1.0199 -0.9007  0.5788
17160SOL     OW55010   7.880   3.752   3.691  0.1298  0.1434  0.6157
17160SOL    HW155011   7.956   3.810   3.688  0.2781 -0.0720 -0.3206
17160SOL    HW255012   7.850   3.755   3.781  0.5274  1.1755  0.7226
17161SOL     OW55013   7.799   9.388  10.467 -1.4340  0.1567  0.2752
17161SOL    HW155014   7.719   9.336  10.461 -1.0080 -0.4225 -0.8287
17161SOL    HW255015   7.857   9.337  10.523 -1.5580  0.1931  0.4372
17162SOL     OW55016   3.922   7.601   0.542  0.4723 -0.3892  0.3076
17162SOL    HW155017   3.899   7.565   0.627  0.4593 -1.6299 -0.1956
17162SOL    HW255018   3.847   7.582   0.486  0.7343 -0.1553 -0.1344
17163SOL     OW55019   8.052   8.061   8.771 -0.0662  0.3583 -0.3115
17163SOL    HW155020   8.059   7.976   8.729  0.4530 -0.3053  1.0590
17163SOL    HW255021   8.075   8.045   8.862  0.2869  2.0201 -0.0760
17164SOL     OW55022   4.597   1.150  10.970 -0.5379  0.0362  0.2878
17164SOL    HW155023   4.686   1.146  10.936 -0.7957 -2.2625 -0.2802
17164SOL    HW255024   4.579   1.062  11.002 -1.5628  1.2108  3.2703
17165SOL     OW55025   7.312   1.214   6.464  0.0341  0.8274  0.4800
17165SOL    HW155026   7.398   1.251   6.447 -0.1617  0.7909 -0.6517
17165SOL    HW255027   7.301   1.146   6.398 -0.0862 -0.4922  1.8181
17166SOL     OW55028   6.075   9.758   0.235  0.0553  0.1475  0.5890
17166SOL    HW155029   6.124   9.791   0.161  0.1860  0.9905  1.0393
17166SOL    HW255030   5.983   9.763   0.208  0.1565 -0.7743  0.0126
17167SOL     OW55031   2.490   6.260   5.870 -0.4992 -0.4362  0.0621
17167SOL    HW155032   2.487   6.329   5.937 -0.2476  0.1768 -0.5430
17167SOL    HW255033   2.425   6.286   5.806  0.6611  0.0732 -0.9459
17168SOL     OW55034  10.224   6.879   5.403 -0.3416  0.4387 -0.2081
17168SOL    HW155035  10.151   6.847   5.457 -0.6281  0.4336 -0.5923
17168SOL    HW255036  10.219   6.826   5.323  1.6997 -1.4334  0.8106
17169SOL     OW55037   0.785   4.320   3.455  0.0282  0.1145  0.4749
17169SOL    HW155038   0.746   4.408   3.455  0.3090  0.2413  0.5992
17169SOL    HW255039   0.757   4.282   3.372  1.6570  1.1297 -0.6114
17170SOL     OW55040   3.608   7.449   7.576 -0.5917 -0.4736 -0.1066
17170SOL    HW155041   3.648   7.408   7.499  0.1870 -0.1710  0.1255
17170SOL    HW255042   3.556   7.522   7.540 -1.5788 -1.3318 -0.4728
17171SOL     OW55043  11.002   9.832   4.757 -0.3359 -0.0552 -0.0670
17171SOL    HW155044  10.982   9.919   4.724  0.5257  0.2296  0.1367
17171SOL    HW255045  10.969   9.831   4.846 -0.4410  0.0197 -0.1051
17172SOL     OW55046   2.008   4.014   5.335 -0.1176 -0.4441 -0.0620
17172SOL    HW155047   2.079   4.074   5.311  0.1027 -0.2225  1.1139
17172SOL    HW255048   2.049   3.951   5.395 -0.6346 -1.0537 -0.3361
17173SOL     OW55049   1.407   4.321   3.986  0.3047  0.2929 -0.1771
17173SOL    HW155050   1.378   4.291   3.900  0.2260  1.6406 -0.6338
17173SOL    HW255051   1.452   4.403   3.969  0.8225  0.2729  1.0087
17174SOL     OW55052   4.660   0.777   5.816  0.0708 -0.3450 -0.3584
17174SOL    HW155053   4.664   0.753   5.723 -0.4679 -1.7967 -0.0315
17174SOL    HW255054   4.715   0.711   5.860 -1.4239 -1.0147  0.5758
17175SOL     OW55055   4.277   2.187  10.997  0.0045 -0.1633  0.5538
17175SOL    HW155056   4.241   2.261  11.045  0.6684  1.6902 -1.6594
17175SOL    HW255057   4.343   2.149  11.056  0.2694  1.5484  1.4039
17176SOL     OW55058   5.657   2.428   7.409 -0.6584  0.4426  0.1370
17176SOL    HW155059   5.625   2.424   7.499 -2.1253  0.9458 -0.3267
17176SOL    HW255060   5.585   2.390   7.357 -0.4962  1.5853 -0.9625
17177SOL     OW55061  10.066  10.858   9.809  0.1321  0.0980  0.1250
17177SOL    HW155062   9.999  10.815   9.862 -0.4966  0.4339 -0.3792
17177SOL    HW255063  10.145  10.807   9.825 -0.5013 -1.0139 -0.1548
17178SOL     OW55064   0.718   6.125   2.969  0.0401 -0.3414  0.1866
17178SOL    HW155065   0.705   6.098   2.878 -3.2338 -2.2438  1.0155
17178SOL    HW255066   0.803   6.089   2.993 -1.0163 -3.9872 -0.9046
17179SOL     OW55067   5.813   1.430  10.197  0.0132 -0.0686  0.3000
17179SOL    HW155068   5.750   1.441  10.125 -0.6937 -1.4527  0.6723
17179SOL    HW255069   5.898   1.424  10.153 -0.3008  0.0775 -0.3446
17180SOL     OW55070   8.551   4.983   9.690  0.0718 -0.4563 -0.4453
17180SOL    HW155071   8.556   4.908   9.749 -0.4231 -1.7682 -1.9843
17180SOL    HW255072   8.463   5.019   9.704 -0.2836 -1.1572 -0.7975
17181SOL     OW55073   7.930   4.837   7.941 -0.3397  0.4537  0.3374
17181SOL    HW155074   7.916   4.807   7.851  1.8548 -0.0709  0.1230
17181SOL    HW255075   8.001   4.782   7.974  3.8898  5.0224  0.0119
17182SOL     OW55076   5.947   9.702   2.489 -0.0114  0.1896  0.2638
17182SOL    HW155077   5.955   9.612   2.520  0.3733 -0.0313 -0.4573
17182SOL    HW255078   5.853   9.715   2.477 -0.0679 -0.1205  0.3508
17183SOL     OW55079   2.847  10.722   3.726  0.1449  0.0076 -0.2265
17183SOL    HW155080   2.836  10.723   3.821  0.9426  0.4878 -0.1296
17183SOL    HW255081   2.935  10.756   3.711 -0.0946  0.2712 -1.1570
17184SOL     OW55082   5.910   0.938   9.556 -0.9461 -0.2361 -0.6085
17184SOL    HW155083   6.001   0.922   9.580 -0.6847 -0.5580 -1.7507
17184SOL    HW255084   5.861   0.924   9.637  0.1801  1.8363  0.5387
17185SOL     OW55085   0.890   8.279   3.946 -0.2521  0.2956 -0.1011
17185SOL    HW155086   0.861   8.325   3.867 -1.6157  0.8565  0.7069
17185SOL    HW255087   0.972   8.321   3.969 -1.3804  2.2676  0.5214
17186SOL     OW55088  10.077   9.225   1.867  0.6704  0.0252 -0.2556
17186SOL    HW155089  10.039   9.267   1.790 -1.1181  0.6312  0.8922
17186SOL    HW255090  10.113   9.143   1.835 -1.0498 -0.2695 -1.5653
17187SOL     OW55091   2.670   1.483   9.543 -0.1890  0.1308  0.3089
17187SOL    HW155092   2.591   1.444   9.580 -0.4327  0.0816 -0.2477
17187SOL    HW255093   2.663   1.466   9.449 -0.1046  1.1461  0.1012
17188SOL     OW55094   9.560   1.210   6.909 -0.0673  0.0771 -0.0558
17188SOL    HW155095   9.547   1.134   6.853 -0.1783 -0.6573  0.9293
17188SOL    HW255096   9.472   1.240   6.931 -0.1318 -1.4091  2.0082
17189SOL     OW55097   9.780   5.150   0.668 -0.3015 -0.1582 -0.2719
17189SOL    HW155098   9.734   5.067   0.684 -0.4073  0.2052  1.5834
17189SOL    HW255099   9.802   5.181   0.756  1.2133  0.9621 -1.0210
17190SOL     OW55100   5.606   3.947   9.004 -0.4332  0.0815 -0.5020
17190SOL    HW155101   5.629   3.863   8.965  0.8516 -0.3050  0.9460
17190SOL    HW255102   5.672   4.008   8.971 -0.4307  0.1571 -0.3610
17191SOL     OW55103   3.132   3.249   4.487 -0.3765 -0.1464 -0.3946
17191SOL    HW155104   3.208   3.269   4.542 -0.6608  2.2329 -0.7596
17191SOL    HW255105   3.057   3.260   4.546 -0.6006  0.8668 -0.8646
17192SOL     OW55106  10.561   4.996   1.351 -0.2777  0.1542  0.1137
17192SOL    HW155107  10.582   5.074   1.403  0.5254  0.5702 -0.7916
17192SOL    HW255108  10.471   4.974   1.376 -0.7993  1.8247 -0.1442
17193SOL     OW55109   5.660   2.706   6.932 -0.4043 -0.1596 -0.1500
17193SOL    HW155110   5.686   2.676   7.019  1.2990 -0.4553 -0.7232
17193SOL    HW255111   5.587   2.648   6.907  0.9031 -1.9398 -0.0289
17194SOL     OW55112   1.367   6.046   9.199 -0.0135 -0.1016 -0.3189
17194SOL    HW155113   1.316   6.059   9.119  0.1414 -2.8455 -0.9776
17194SOL    HW255114   1.385   5.952   9.200 -1.0168 -0.4172  3.5491
17195SOL     OW55115   0.308   1.830   7.798  0.3793 -0.3513  0.4386
17195SOL    HW155116   0.337   1.741   7.778 -1.8664 -0.9186 -0.6118
17195SOL    HW255117   0.287   1.868   7.713 -0.5031  0.5047  1.0212
17196SOL     OW55118   2.909   6.223   4.678  0.6899 -0.3515  0.2011
17196SOL    HW155119   2.958   6.182   4.749  0.0724 -1.5223 -0.0162
17196SOL    HW255120   2.942   6.181   4.598 -0.8611 -1.4448  0.0774
17197SOL     OW55121   4.186   8.535   2.534  0.0867  0.1902  0.4291
17197SOL    HW155122   4.106   8.573   2.499  0.0371  0.6428  0.9999
17197SOL    HW255123   4.256   8.570   2.478 -0.1541 -0.6432 -0.4077
17198SOL     OW55124   1.919   9.374   7.034  0.2860  0.3813 -0.2694
17198SOL    HW155125   1.833   9.334   7.021 -0.0959  0.9395  0.4607
17198SOL    HW255126   1.981   9.303   7.019 -0.3732 -0.4940  0.9270
17199SOL     OW55127   4.589   9.069   5.449  0.7182  0.0273  0.3248
17199SOL    HW155128   4.578   9.002   5.517 -0.3120 -1.2796 -1.0450
17199SOL    HW255129   4.651   9.031   5.387 -0.6909 -0.2141 -1.0318
17200SOL     OW55130  10.372  10.907   4.911 -0.3671  0.1000  0.5217
17200SOL    HW155131  10.326  10.920   4.994 -0.9663 -1.3343  0.4535
17200SOL    HW255132  10.373  10.812   4.900  0.7799  0.2136 -0.5294
17201SOL     OW55133   5.281   8.257   6.690  0.5732  0.1765  0.2943
17201SOL    HW155134   5.281   8.313   6.768 -0.7524  1.4075 -0.5570
17201SOL    HW255135   5.256   8.315   6.618 -2.0362 -1.6867 -0.4570
17202SOL     OW55136   8.886   6.552   6.622  0.3204  0.4564 -0.1962
17202SOL    HW155137   8.904   6.643   6.598 -0.2262  0.4774 -0.5517
17202SOL    HW255138   8.916   6.545   6.713  1.3954  0.6790 -0.5215
17203SOL     OW55139   2.956   6.894   7.480 -0.6216 -0.0430 -0.5823
17203SOL    HW155140   3.014   6.969   7.493  0.0965 -0.2555 -2.1961
17203SOL    HW255141   2.883   6.909   7.539  0.1440  1.2404  0.0916
17204SOL     OW55142   3.474   8.045   5.726  0.1598 -0.0244 -0.4367
17204SOL    HW155143   3.412   8.116   5.744 -0.1769 -1.0298  2.8914
17204SOL    HW255144   3.560   8.087   5.732 -0.0835  0.5913 -1.0905
17205SOL     OW55145   9.863   8.892   2.207 -0.5252 -0.3882 -0.1117
17205SOL    HW155146   9.814   8.853   2.279 -0.2191  0.0723  0.3562
17205SOL    HW255147   9.818   8.862   2.128 -1.1489 -0.5203  0.2854
17206SOL     OW55148   1.700   0.864   6.300  0.0890 -0.2517  0.0319
17206SOL    HW155149   1.684   0.908   6.384 -1.0236  0.0275 -0.3116
17206SOL    HW255150   1.793   0.843   6.302 -0.2481 -1.9296  2.1375
17207SOL     OW55151   0.565   5.861   4.491 -0.0337 -0.7893  0.0847
17207SOL    HW155152   0.641   5.802   4.499 -0.2077 -0.8777  1.4008
17207SOL    HW255153   0.532   5.869   4.581 -1.7357 -0.9330 -0.4943
17208SOL     OW55154   9.897  10.875   8.120 -0.6423  0.0433  0.1607
17208SOL    HW155155   9.827  10.939   8.134  0.0529  0.8782 -0.1092
17208SOL    HW255156   9.912  10.838   8.207 -0.8832  0.4383  0.3762
17209SOL     OW55157   9.028   8.934   0.763 -0.2271 -0.2196  0.0756
17209SOL    HW155158   8.993   8.884   0.836  2.0161 -3.0291 -0.6008
17209SOL    HW255159   9.117   8.901   0.752  1.1850  3.4413 -0.9924
17210SOL     OW55160  10.322   9.666   0.209  0.1007  0.0329 -0.0855
17210SOL    HW155161  10.329   9.598   0.142 -0.5985 -0.5903  0.4577
17210SOL    HW255162  10.410   9.672   0.245  0.7459  1.0851 -1.7090
17211SOL     OW55163   6.040   2.779   8.126  0.6166  0.2300 -0.1043
17211SOL    HW155164   5.994   2.791   8.209  0.1773 -1.9747  0.0150
17211SOL    HW255165   6.122   2.735   8.150  1.6090  1.6968 -0.6230
17212SOL     OW55166  10.308  10.580   9.478  0.2603 -0.1518  0.0605
17212SOL    HW155167  10.257  10.531   9.413  0.3723 -1.3192  0.8039
17212SOL    HW255168  10.311  10.669   9.445 -1.9358 -0.1198 -0.2055
17213SOL     OW55169   3.204   3.768   0.266  0.6421 -0.0006  0.0885
17213SOL    HW155170   3.173   3.749   0.354 -0.4422 -0.1471 -0.3131
17213SOL    HW255171   3.270   3.701   0.249  0.4896 -0.2868  0.5948
17214SOL     OW55172   1.079   6.751  11.003 -0.3706 -0.0476 -0.4125
17214SOL    HW155173   1.063   6.706  10.920  2.3387 -1.9039 -0.0865
17214SOL    HW255174   1.164   6.794  10.990 -0.6797  0.9949  0.8917
17215SOL     OW55175   7.788   1.940   9.987 -0.1188  0.7289 -0.1865
17215SOL    HW155176   7.718   1.959  10.049 -0.0443  0.8960 -0.1529
17215SOL    HW255177   7.815   1.850  10.007 -1.5494 -0.0036 -1.3829
17216SOL     OW55178   3.360  10.431   8.760 -0.2846 -0.3111 -0.2656
17216SOL    HW155179   3.376  10.371   8.833 -0.1518  0.2981  0.2169
17216SOL    HW255180   3.408  10.511   8.784 -0.7865  0.1300 -0.7019
17217SOL     OW55181   2.341   6.133   7.768 -0.3073 -0.5003 -0.7397
17217SOL    HW155182   2.356   6.125   7.674  1.9890 -0.6845 -0.3952
17217SOL    HW255183   2.414   6.088   7.809 -0.0050  1.5331  1.1612
17218SOL     OW55184  10.024   0.961   4.702 -0.2744  0.5742 -0.6145
17218SOL    HW155185  10.066   0.918   4.628  1.3944  0.6171  0.2509
17218SOL    HW255186   9.988   0.890   4.755 -0.5923  0.4815 -0.9531
17219SOL     OW55187   2.087   5.843   1.044  0.2835 -0.0175  0.2131
17219SOL    HW155188   2.005   5.870   1.086  0.3250  1.1075 -0.3744
17219SOL    HW255189   2.060   5.795   0.966  0.1699  0.2659  0.0744
17220SOL     OW55190   4.810   8.828   9.041 -0.0485 -0.2913 -0.1918
17220SOL    HW155191   4.790   8.851   8.950  2.2762 -1.6465 -1.1207
17220SOL    HW255192   4.752   8.754   9.059  1.6149 -2.0850 -1.7298
17221SOL     OW55193   8.702   9.426   7.686  0.3981 -0.1659 -0.5319
17221SOL    HW155194   8.607   9.435   7.682  0.4461  0.2828 -0.7421
17221SOL    HW255195   8.717   9.331   7.680 -0.1241 -0.4335  1.6340
17222SOL     OW55196   6.682   6.903  10.292 -1.0623 -0.0824  0.1373
17222SOL    HW155197   6.689   6.909  10.197 -0.3701 -1.0445  0.1170
17222SOL    HW255198   6.752   6.960  10.325 -2.9892  2.4907  0.1602
17223SOL     OW55199   2.941   7.802   0.691  0.4290 -0.1308 -0.1110
17223SOL    HW155200   2.860   7.838   0.726 -0.0115 -1.8888  0.8405
17223SOL    HW255201   2.971   7.741   0.759  1.4851 -0.9832 -1.2968
17224SOL     OW55202   7.001   5.461  11.032  0.2343  0.1601 -0.3776
17224SOL    HW155203   7.087   5.465  11.074  0.2853  2.2689 -0.5743
17224SOL    HW255204   6.959   5.543  11.056 -0.6168  0.4323 -2.5926
17225SOL     OW55205   3.639   9.485   6.549 -0.3474  0.4524 -0.3361
17225SOL    HW155206   3.728   9.449   6.550 -0.5537 -0.0535  0.4837
17225SOL    HW255207   3.582   9.409   6.537 -0.7758  0.5065  1.2118
17226SOL     OW55208   4.315  10.497   3.764  1.0010 -0.0059 -0.2312
17226SOL    HW155209   4.363  10.473   3.843  0.4780 -0.2571  0.0156
17226SOL    HW255210   4.262  10.420   3.744 -1.6082  1.2535  1.2596
17227SOL     OW55211   4.193   1.220   8.987  0.0525  0.3623  0.2108
17227SOL    HW155212   4.131   1.202   8.917  0.0659  1.5366 -0.1160
17227SOL    HW255213   4.225   1.309   8.970 -0.0782  0.7458  1.8012
17228SOL     OW55214   7.091   0.570   9.255  0.0471  0.3031 -0.1089
17228SOL    HW155215   7.007   0.545   9.218  0.4029 -0.3188 -0.5342
17228SOL    HW255216   7.148   0.495   9.236  1.0214  1.2193 -0.9655
17229SOL     OW55217   4.151   1.230   6.273 -0.8164 -0.3679 -0.3778
17229SOL    HW155218   4.158   1.149   6.222  2.1356 -1.7562  1.8569
17229SOL    HW255219   4.115   1.202   6.357 -2.5398  1.2548 -0.5191
17230SOL     OW55220   9.354   1.085   9.620  0.1246 -0.0730 -0.0694
17230SOL    HW155221   9.299   1.012   9.589 -1.4541  0.9591  0.1795
17230SOL    HW255222   9.360   1.144   9.544 -1.6330  1.2288  0.7188
17231SOL     OW55223   3.100  10.362   2.468 -0.0218 -0.3593 -0.6135
17231SOL    HW155224   3.171  10.359   2.403  0.1791 -0.6126 -0.3863
17231SOL    HW255225   3.145  10.370   2.552 -0.2403 -0.9643 -0.4302
17232SOL     OW55226   0.204   4.553   3.129  0.5576  0.1764 -0.1347
17232SOL    HW155227   0.187   4.644   3.105 -1.3875  0.2013  1.1179
17232SOL    HW255228   0.157   4.502   3.063  0.8851  0.0934 -0.3059
17233SOL     OW55229   4.081   2.327   0.513 -0.1663 -0.0523 -0.1699
17233SOL    HW155230   4.017   2.374   0.460  0.4869  0.5444 -0.4336
17233SOL    HW255231   4.110   2.255   0.456 -1.9250 -1.4622  0.5962
17234SOL     OW55232   4.525   9.610   3.637 -0.4112  0.3094 -0.3491
17234SOL    HW155233   4.457   9.626   3.703 -0.2421 -0.1931 -0.0560
17234SOL    HW255234   4.568   9.530   3.665 -0.6539 -0.1779 -1.3342
17235SOL     OW55235   8.449   0.439   2.737 -0.1894  0.4406 -0.4452
17235SOL    HW155236   8.476   0.509   2.677  0.2913 -0.4270 -1.2616
17235SOL    HW255237   8.360   0.418   2.711 -0.1645  0.4208 -0.5133
17236SOL     OW55238   9.097   9.385   3.128 -0.5486 -0.4166 -0.0929
17236SOL    HW155239   9.110   9.293   3.152  1.2912 -0.2713 -0.3748
17236SOL    HW255240   9.059   9.425   3.206 -0.4437 -1.2118  0.3778
17237SOL     OW55241   4.045   9.233   1.229  0.0344  0.0779 -0.0188
17237SOL    HW155242   4.113   9.166   1.228  0.6387  0.6749  0.1307
17237SOL    HW255243   3.988   9.209   1.303  2.5547  1.9365  2.7477
17238SOL     OW55244  10.890   0.935   5.730  0.1110  0.4314  0.0432
17238SOL    HW155245  10.910   0.923   5.822 -1.7138  1.9345  0.6977
17238SOL    HW255246  10.943   1.010   5.703  2.1079 -1.1639 -0.7137
17239SOL     OW55247   1.924   5.402   8.529  0.4912  0.5413  0.0535
17239SOL    HW155248   1.837   5.402   8.488  0.1611 -1.7705  0.6151
17239SOL    HW255249   1.952   5.493   8.525 -2.6404  1.7138  1.3008
17240SOL     OW55250   0.931   4.479   1.830 -0.1728  0.1144  0.1080
17240SOL    HW155251   0.898   4.414   1.893  1.6639  0.7894  1.9051
17240SOL    HW255252   1.026   4.474   1.839  0.0393  2.6563 -0.0863
17241SOL     OW55253   6.716   0.884   0.554  0.4581 -0.4686 -0.0183
17241SOL    HW155254   6.803   0.909   0.521  0.8390 -1.7825 -0.0950
17241SOL    HW255255   6.675   0.966   0.580  1.9336  0.1334  0.5086
17242SOL     OW55256   6.445   9.123   6.311 -0.0669  0.6783  0.1143
17242SOL    HW155257   6.519   9.138   6.369 -0.0696  2.9971 -0.3660
17242SOL    HW255258   6.465   9.175   6.233 -0.0963 -2.2468 -2.0036
17243SOL     OW55259  11.112   7.034   6.492 -0.0254  0.2944 -0.6021
17243SOL    HW155260  11.080   6.964   6.549 -2.5107  0.8210 -1.2084
17243SOL    HW255261  11.073   7.014   6.406  0.5598  1.5367 -1.1810
17244SOL     OW55262  10.978   9.491   2.935 -0.0701  0.2451  0.4312
17244SOL    HW155263  10.896   9.536   2.952 -0.5818  0.0974 -1.3811
17244SOL    HW255264  10.987   9.492   2.840  2.1720  0.4865  0.5865
17245SOL     OW55265   1.107   2.486   6.884 -0.5279 -0.1257  0.2558
17245SOL    HW155266   1.149   2.451   6.962  0.2499 -3.1187 -1.3307
17245SOL    HW255267   1.178   2.524   6.833 -0.6030 -0.4202 -0.0760
17246SOL     OW55268   3.243   3.213   4.952 -0.3360 -0.1890 -0.2631
17246SOL    HW155269   3.318   3.159   4.930 -0.9397 -1.5194  0.7837
17246SOL    HW255270   3.168   3.164   4.919 -0.8090  0.7532 -0.6329
17247SOL     OW55271   5.364   2.899   9.269 -0.3582  0.3189  0.3918
17247SOL    HW155272   5.378   2.814   9.311 -2.5651 -1.4942 -2.2471
17247SOL    HW255273   5.446   2.916   9.223 -0.3585 -1.1181 -0.1991
17248SOL     OW55274   6.467  11.043   7.532 -0.1066 -0.0672 -0.2281
17248SOL    HW155275   6.410  11.070   7.459  0.7646  0.3771 -0.7654
17248SOL    HW255276   6.536  11.109   7.533  0.2343 -0.4287  0.6124
17249SOL     OW55277   7.083   0.681   1.244 -0.3761 -0.2871  0.1079
17249SOL    HW155278   7.140   0.758   1.253  1.9849 -1.6337 -1.9996
17249SOL    HW255279   7.135   0.608   1.278 -2.2892 -1.1067  1.4051
17250SOL     OW55280   3.932   1.673   8.569 -0.1366 -0.3851 -0.8533
17250SOL    HW155281   3.968   1.712   8.489  0.5913 -0.8219 -0.7494
17250SOL    HW255282   3.973   1.586   8.574  2.2614  0.7079  1.5596
17251SOL     OW55283   9.521   7.841   0.383  0.2212 -0.4165 -0.1340
17251SOL    HW155284   9.435   7.883   0.387  1.2126  1.7281  0.4881
17251SOL    HW255285   9.512   7.772   0.318 -1.7661  0.2443 -0.6189
17252SOL     OW55286   5.361   9.095   7.567 -0.0453  0.4045  0.4572
17252SOL    HW155287   5.297   9.030   7.594 -0.0635  1.0059  1.9939
17252SOL    HW255288   5.356   9.096   7.472 -1.1411 -0.7215  0.4754
17253SOL     OW55289  10.837   2.755   6.223  0.1311  0.3900  0.3532
17253SOL    HW155290  10.761   2.808   6.246 -0.4017 -0.0433 -0.3835
17253SOL    HW255291  10.816   2.668   6.258  0.2093  0.2310  0.0076
17254SOL     OW55292   3.741   4.956   6.873  0.1205  0.2338 -0.0573
17254SOL    HW155293   3.733   4.863   6.854 -0.5164  0.7242 -2.6772
17254SOL    HW255294   3.655   4.981   6.906 -0.3663  0.2260 -1.2654
17255SOL     OW55295   7.813   7.853  10.679 -0.5353  0.4093 -0.2612
17255SOL    HW155296   7.846   7.941  10.695  1.1591 -0.1872 -0.1750
17255SOL    HW255297   7.726   7.852  10.718  0.9197  0.9182  3.4787
17256SOL     OW55298   1.661   3.718   2.212 -0.1932 -0.0579 -0.4480
17256SOL    HW155299   1.692   3.640   2.167  0.0546  0.8561 -1.9369
17256SOL    HW255300   1.572   3.696   2.240  0.7078 -1.6842  1.3093
17257SOL     OW55301   2.233   3.551   4.077 -0.4863 -0.3693  0.1206
17257SOL    HW155302   2.262   3.559   4.168 -0.3181 -0.9315  0.1178
17257SOL    HW255303   2.214   3.458   4.065  2.0107 -0.7986 -1.1450
17258SOL     OW55304  10.452  10.817   0.292  0.5266  0.6928  0.8260
17258SOL    HW155305  10.544  10.821   0.265  0.6767  0.5007  1.2902
17258SOL    HW255306  10.425  10.728   0.270 -0.9002  1.9216 -3.4929
17259SOL     OW55307   9.447   0.872   8.511 -0.1219  0.4626 -0.4320
17259SOL    HW155308   9.426   0.887   8.603 -1.5482 -1.1709 -0.4325
17259SOL    HW255309   9.362   0.859   8.469  0.5801 -0.1491 -1.7277
17260SOL     OW55310   1.795   3.935  10.514  0.0969  0.2466 -0.1307
17260SOL    HW155311   1.844   3.950  10.433  0.1471  0.4925 -0.0535
17260SOL    HW255312   1.730   3.868  10.490  0.5006 -0.1159 -0.2210
17261SOL     OW55313  10.681   1.692   2.262 -0.3671 -0.2648  0.2389
17261SOL    HW155314  10.756   1.702   2.321 -0.6178 -1.1385  0.7220
17261SOL    HW255315  10.650   1.603   2.277 -1.9222  0.2938  0.5317
17262SOL     OW55316   5.527   6.293   5.926  0.1156  0.5847  0.2368
17262SOL    HW155317   5.543   6.199   5.941  0.1189  0.4329 -0.6565
17262SOL    HW255318   5.512   6.329   6.014 -0.4855 -0.3592  0.5385
17263SOL     OW55319   2.328   4.712   5.996  0.6870 -0.3714  0.3108
17263SOL    HW155320   2.314   4.652   6.070  2.5689 -0.6046  0.5235
17263SOL    HW255321   2.315   4.799   6.033  0.7396 -0.5219  0.6874
17264SOL     OW55322   4.373  10.625   6.188  0.7167 -0.6016  0.4643
17264SOL    HW155323   4.448  10.601   6.133  0.0432  0.0300 -0.7893
17264SOL    HW255324   4.385  10.575   6.268  2.9874  0.2357  0.7159
17265SOL     OW55325   8.501  10.182   8.312 -0.1760 -0.7274 -0.6844
17265SOL    HW155326   8.471  10.101   8.353  2.4123 -1.7248 -0.5253
17265SOL    HW255327   8.593  10.164   8.290  0.6430  2.3208 -0.1893
17266SOL     OW55328   4.071   1.872   0.763  0.3418  0.6492 -0.0049
17266SOL    HW155329   4.058   1.828   0.847 -0.0325 -0.0254 -0.4088
17266SOL    HW255330   4.157   1.913   0.771  0.2160  0.7805  0.7858
17267SOL     OW55331   1.110   7.064   9.669 -0.0048 -0.5815  0.7263
17267SOL    HW155332   1.179   7.127   9.648 -0.4673  0.7351  2.8004
17267SOL    HW255333   1.136   6.983   9.625  0.6727  0.9860 -1.9680
17268SOL     OW55334   9.483   9.222   0.855  0.1537  0.4105 -0.1174
17268SOL    HW155335   9.571   9.213   0.818  0.5106  1.3815  0.4835
17268SOL    HW255336   9.491   9.193   0.945 -0.6473 -1.6220 -0.6463
17269SOL     OW55337   7.060   3.388   5.976  0.2929 -0.1357  0.4715
17269SOL    HW155338   7.040   3.320   5.912 -2.1331 -0.7526  1.7696
17269SOL    HW255339   7.087   3.341   6.054 -2.0077  0.3021  1.5846
17270SOL     OW55340   7.782   2.630   1.086 -0.4408  0.5753  0.6377
17270SOL    HW155341   7.868   2.593   1.067 -0.4989  1.2524 -1.1601
17270SOL    HW255342   7.737   2.562   1.137  1.2269  0.3384  1.8782
17271SOL     OW55343   4.305   8.745   0.166 -0.0079  0.2488 -0.2030
17271SOL    HW155344   4.348   8.828   0.186  0.7870 -0.3893  0.8282
17271SOL    HW255345   4.369   8.679   0.190 -0.8628 -0.6799 -0.4431
17272SOL     OW55346   8.258   9.918   1.633  0.2242  0.0822 -0.3942
17272SOL    HW155347   8.231  10.005   1.603 -0.5274  0.3763  1.0527
17272SOL    HW255348   8.343   9.903   1.591 -0.3597  0.8401 -1.8983
17273SOL     OW55349   5.005   2.937   1.349 -0.5534  0.1606 -0.2486
17273SOL    HW155350   5.056   2.916   1.271 -0.8977  0.2627 -0.5065
17273SOL    HW255351   5.017   3.031   1.362  3.0170 -0.4628  2.3579
17274SOL     OW55352   5.905   0.812   4.211  0.1180 -0.2796 -0.0959
17274SOL    HW155353   5.859   0.756   4.148  0.7035 -1.1020  0.1917
17274SOL    HW255354   5.890   0.901   4.179 -1.4155 -0.5386 -0.1715
17275SOL     OW55355   2.637   0.917  10.938  0.0417 -0.5171 -0.1461
17275SOL    HW155356   2.557   0.950  10.897  0.7081 -0.5814 -1.5549
17275SOL    HW255357   2.618   0.825  10.957  0.0830 -0.7711 -1.3041
17276SOL     OW55358   0.280   7.247   9.143  0.2885 -0.7031 -0.1872
17276SOL    HW155359   0.371   7.268   9.124  0.3868 -1.0375 -0.0859
17276SOL    HW255360   0.237   7.246   9.058  0.3243 -0.2990 -0.2142
17277SOL     OW55361   0.623   5.541   1.200  0.0878 -0.2691 -0.1834
17277SOL    HW155362   0.562   5.584   1.140 -0.1847  1.3180  1.1403
17277SOL    HW255363   0.567   5.505   1.269  0.5012 -0.6836 -0.0630
17278SOL     OW55364   6.597   6.559  10.024  0.2726 -0.0385  0.0261
17278SOL    HW155365   6.623   6.617   9.953  0.8547  0.7582  0.8670
17278SOL    HW255366   6.636   6.598  10.103 -1.8534  0.1368  1.0743
17279SOL     OW55367   7.531   0.813   7.636 -0.5842  0.0369  0.1023
17279SOL    HW155368   7.438   0.834   7.629 -0.3738  1.2620  0.8169
17279SOL    HW255369   7.533   0.733   7.689 -1.2748 -0.7129 -0.9393
17280SOL     OW55370   7.392   1.656   7.583 -0.5587 -0.0599 -0.2084
17280SOL    HW155371   7.373   1.596   7.511  1.4945 -0.6929 -0.3049
17280SOL    HW255372   7.488   1.655   7.590 -0.6128  1.2915  1.4363
17281SOL     OW55373   7.109   2.886  10.025 -0.3410 -0.7278 -0.7953
17281SOL    HW155374   7.092   2.837  10.105  1.8083  1.2629  1.0221
17281SOL    HW255375   7.051   2.961  10.029  0.0919 -0.3849 -0.8507
17282SOL     OW55376  10.947   2.678  10.564 -0.1874  0.0319 -0.0834
17282SOL    HW155377  10.954   2.606  10.501  1.7450  0.6564 -0.6692
17282SOL    HW255378  10.891   2.644  10.634 -2.5406 -0.6362 -2.1455
17283SOL     OW55379   6.152  10.663  11.035  0.1869 -0.2449 -0.4585
17283SOL    HW155380   6.205  10.726  11.084  0.5481  1.0949 -2.4281
17283SOL    HW255381   6.063  10.695  11.042  0.3849  0.6310 -1.5568
17284SOL     OW55382   2.074   1.991   1.846  0.2627 -0.1243 -0.3261
17284SOL    HW155383   2.142   1.925   1.856 -0.5311 -1.0865 -1.1218
17284SOL    HW255384   2.099   2.060   1.908  0.9740 -1.2658  0.7058
17285SOL     OW55385   9.578  10.512   4.373  0.2113  0.0478  0.5869
17285SOL    HW155386   9.544  10.591   4.414  0.2161  0.2089  0.2878
17285SOL    HW255387   9.505  10.450   4.377  0.3918 -0.1216  1.3209
17286SOL     OW55388   3.312   2.564   0.173 -0.1032 -0.2765 -0.3234
17286SOL    HW155389   3.216   2.570   0.170 -0.3716 -3.0038 -0.1513
17286SOL    HW255390   3.336   2.600   0.258 -1.2019 -1.2365  0.4220
17287SOL     OW55391   4.772  10.616   8.030 -0.4496 -0.2250 -0.1843
17287SOL    HW155392   4.742  10.595   7.941 -3.3899 -2.6744  1.2361
17287SOL    HW255393   4.756  10.710   8.038 -0.6475 -0.0550 -2.0393
17288SOL     OW55394   4.408   6.846   2.351 -0.4787 -0.2246 -0.2500
17288SOL    HW155395   4.424   6.782   2.420  1.6628  0.1331 -0.3592
17288SOL    HW255396   4.318   6.829   2.323 -0.7372 -1.6328  1.3019
17289SOL     OW55397   0.366   0.308   5.250  0.6100 -0.0876 -0.1431
17289SOL    HW155398   0.444   0.364   5.256 -0.0945  1.3581 -2.8964
17289SOL    HW255399   0.397   0.221   5.275  2.7331  0.7338  0.3108
17290SOL     OW55400   2.032   9.356   1.323  0.0658  0.2177  0.6073
17290SOL    HW155401   1.937   9.350   1.338 -0.2428  2.3076 -0.1846
17290SOL    HW255402   2.067   9.274   1.358 -2.2479 -1.4568 -0.7163
17291SOL     OW55403   3.144   0.163   6.934 -0.3002  0.0126 -0.6253
17291SOL    HW155404   3.153   0.131   7.024 -0.4382 -0.6366 -0.8366
17291SOL    HW255405   3.232   0.192   6.910 -0.0343 -0.7528 -0.6211
17292SOL     OW55406   1.038   7.195   4.124 -0.7596  0.1173  0.0336
17292SOL    HW155407   1.039   7.235   4.037  0.6968  0.0855  0.0240
17292SOL    HW255408   1.025   7.269   4.184  1.2257  0.5691 -0.0327
17293SOL     OW55409   5.004   9.006   5.592 -0.2472 -0.3663 -0.4219
17293SOL    HW155410   5.060   9.083   5.598 -1.8603  0.7779  1.1055
17293SOL    HW255411   5.002   8.970   5.681 -1.1438 -0.9609 -0.6654
17294SOL     OW55412  10.361   2.099   8.574 -0.6572  0.3674 -0.4345
17294SOL    HW155413  10.333   2.008   8.585 -2.4594  0.7297 -1.6458
17294SOL    HW255414  10.359   2.135   8.663  0.4003 -0.8473  0.1020
17295SOL     OW55415   6.060   8.079   5.552  0.5564  0.5154 -0.2659
17295SOL    HW155416   5.965   8.077   5.536 -0.0357 -3.5088  2.2779
17295SOL    HW255417   6.068   8.097   5.646  2.3391  0.5546 -0.3889
17296SOL     OW55418   7.815   2.408   9.460 -0.2085  0.3673  0.5995
17296SOL    HW155419   7.724   2.435   9.466 -0.6597 -0.3578 -1.8692
17296SOL    HW255420   7.851   2.463   9.391  0.8833 -0.2591  0.6505
17297SOL     OW55421   0.079   0.354   9.262  0.4960  0.3381  0.5241
17297SOL    HW155422  -0.008   0.329   9.231  0.3078 -0.1648  1.4331
17297SOL    HW255423   0.102   0.431   9.210 -0.4329  0.3938  0.1813
17298SOL     OW55424   9.264   3.139   4.008  0.0548 -0.2862 -0.1642
17298SOL    HW155425   9.230   3.148   4.097  0.4046  0.3180 -0.0872
17298SOL    HW255426   9.357   3.162   4.016 -0.1077  0.6473 -0.8421
17299SOL     OW55427  10.938   3.574   1.738 -0.2332 -0.2344  0.0850
17299SOL    HW155428  10.853   3.536   1.761 -0.1797  0.1019  0.8686
17299SOL    HW255429  10.922   3.622   1.656 -1.8346  3.2310  2.1986
17300SOL     OW55430   7.285   1.293   2.205  0.6012  0.0161 -0.5626
17300SOL    HW155431   7.264   1.357   2.137 -0.3214  0.5482  0.1930
17300SOL    HW255432   7.311   1.214   2.157 -2.2220 -0.3890 -1.6137
17301SOL     OW55433   0.361   8.504   7.318 -0.0685 -0.3422 -0.5398
17301SOL    HW155434   0.338   8.532   7.407  0.5038 -0.3792 -0.3762
17301SOL    HW255435   0.302   8.553   7.262 -0.4148 -0.2933 -0.1394
17302SOL     OW55436   9.110   8.608   9.298  0.2191 -0.5932  0.0695
17302SOL    HW155437   9.204   8.591   9.294  0.4716  0.8609 -1.0834
17302SOL    HW255438   9.096   8.648   9.384  0.2006 -2.9805  1.2613
17303SOL     OW55439  10.455   9.577   1.752 -0.0350 -0.2545  0.1588
17303SOL    HW155440  10.397   9.552   1.824 -0.1751  0.0769  0.1638
17303SOL    HW255441  10.539   9.537   1.774 -0.4461 -1.3780 -0.2252
17304SOL     OW55442   9.640  10.927   5.214 -0.2147  0.5401  0.4749
17304SOL    HW155443   9.554  10.917   5.255 -0.5935  3.2835  0.5764
17304SOL    HW255444   9.701  10.936   5.287 -0.4367  2.2405  0.5067
17305SOL     OW55445   5.897   4.047   4.734  0.0239 -0.2601  0.3047
17305SOL    HW155446   5.931   4.125   4.689  1.2000 -1.0989 -0.3026
17305SOL    HW255447   5.906   4.068   4.827  1.1864 -0.0191  0.1468
17306SOL     OW55448   6.652   8.671  10.245  0.4610  0.5663  0.2212
17306SOL    HW155449   6.561   8.642  10.246  0.8593 -0.9011 -1.0058
17306SOL    HW255450   6.687   8.644  10.330 -0.8012  3.3667  1.7769
17307SOL     OW55451   4.717   6.821   1.648  0.1373  0.1377 -0.1766
17307SOL    HW155452   4.752   6.899   1.605  0.9291 -2.0398 -3.9210
17307SOL    HW255453   4.795   6.771   1.673 -0.3654  0.2379  1.7370
17308SOL     OW55454  11.056   1.616   2.800  0.4458  0.4106  0.2623
17308SOL    HW155455  10.965   1.630   2.773 -0.0443  0.1664  1.6835
17308SOL    HW255456  11.105   1.687   2.758 -0.0797 -0.4520 -1.9469
17309SOL     OW55457   2.474   7.996   7.386  0.4885 -0.1894 -0.5108
17309SOL    HW155458   2.518   7.955   7.460  0.3731 -0.9753 -0.8684
17309SOL    HW255459   2.506   8.087   7.386 -0.5793  0.2292  1.3469
17310SOL     OW55460   2.940   6.166   7.580 -0.4017 -0.0329  0.1573
17310SOL    HW155461   2.909   6.077   7.595 -1.2018  0.3565  0.8886
17310SOL    HW255462   2.877   6.204   7.518 -0.0259  0.0069 -0.2054
17311SOL     OW55463   7.620   0.111   7.711 -0.4937  0.2505  1.0949
17311SOL    HW155464   7.676   0.188   7.713 -0.5038  0.3179 -0.2819
17311SOL    HW255465   7.667   0.045   7.762  0.9940  0.2168 -0.2591
17312SOL     OW55466   2.202   2.287   0.942 -0.2765 -0.6487  0.4344
17312SOL    HW155467   2.139   2.326   0.881  2.4390 -1.0767 -2.9403
17312SOL    HW255468   2.170   2.198   0.956 -2.2799  0.2028  1.8178
17313SOL     OW55469   4.711   7.488   4.802  0.1208 -0.1313 -0.3397
17313SOL    HW155470   4.681   7.542   4.875  1.1769  0.2818 -0.1949
17313SOL    HW255471   4.633   7.438   4.776 -0.4629  0.2672  0.5718
17314SOL     OW55472   5.638   9.506   0.769  0.0312 -0.3665  0.2192
17314SOL    HW155473   5.563   9.449   0.783  0.9085 -1.8687 -0.8975
17314SOL    HW255474   5.607   9.593   0.794 -1.3525 -1.2998  1.9359
17315SOL     OW55475   3.237   2.856   4.750 -0.0069 -0.4813  0.1365
17315SOL    HW155476   3.233   2.766   4.781  0.5324 -0.2721  0.8622
17315SOL    HW255477   3.330   2.879   4.755  0.3594 -0.8625 -2.9828
17316SOL     OW55478   9.432   3.876   0.776 -0.6792  0.5360 -0.3279
17316SOL    HW155479   9.486   3.931   0.832 -1.0175 -1.0495  1.6491
17316SOL    HW255480   9.414   3.931   0.699 -0.5656  2.9656  1.2728
17317SOL     OW55481   4.511   0.324   8.850 -0.8983 -0.3666 -0.0953
17317SOL    HW155482   4.419   0.314   8.874 -0.9021 -1.2140 -0.4462
17317SOL    HW255483   4.537   0.238   8.818 -0.0651 -0.0503 -0.2854
17318SOL     OW55484   6.109   2.584   0.709 -0.2955  0.3897 -0.2986
17318SOL    HW155485   6.039   2.591   0.773 -0.3082  1.1751 -0.3957
17318SOL    HW255486   6.178   2.642   0.742  0.1303 -0.0353 -0.4336
17319SOL     OW55487   5.053   0.896   6.423 -0.1526  0.2050 -0.4057
17319SOL    HW155488   5.078   0.987   6.441  0.3107  0.4520 -2.1069
17319SOL    HW255489   5.101   0.844   6.487  1.3896  1.0095 -0.8700
17320SOL     OW55490   1.676  10.519   5.251 -0.9197  0.8930 -0.1144
17320SOL    HW155491   1.752  10.518   5.310 -1.4886  1.7270  0.6540
17320SOL    HW255492   1.698  10.585   5.185 -0.5414  0.3938 -0.4921
17321SOL     OW55493   0.093   4.662   5.331  0.1967  0.1919 -0.0791
17321SOL    HW155494   0.162   4.603   5.301  0.1481  0.3326 -0.4651
17321SOL    HW255495   0.123   4.749   5.307  0.6850  0.4265  1.2837
17322SOL     OW55496   1.833   1.897   2.389 -0.0520  0.2889  0.2673
17322SOL    HW155497   1.881   1.815   2.380 -2.3317 -0.8943 -4.1398
17322SOL    HW255498   1.794   1.893   2.476  2.8841 -1.4096  1.6538
17323SOL     OW55499  11.093   7.380   2.340  0.3472 -0.0398 -0.3747
17323SOL    HW155500  11.012   7.349   2.299  0.1561 -0.2194  0.1216
17323SOL    HW255501  11.143   7.300   2.357  0.4747  0.0429 -0.3612
17324SOL     OW55502   5.805   5.072   4.458  0.0437 -0.6726 -0.2022
17324SOL    HW155503   5.753   5.043   4.532 -0.0269  1.1841  0.5419
17324SOL    HW255504   5.747   5.129   4.408  0.7583 -0.1122 -0.4211
17325SOL     OW55505   9.822   1.183   9.394 -0.3903  0.0593 -0.1576
17325SOL    HW155506   9.835   1.109   9.454  0.7322  1.0197  0.8475
17325SOL    HW255507   9.789   1.254   9.451 -0.1858  0.7185 -0.8473
17326SOL     OW55508   4.812   3.438   3.765 -0.4357 -0.1615 -0.4529
17326SOL    HW155509   4.744   3.372   3.749 -0.7034  0.0126 -0.0335
17326SOL    HW255510   4.862   3.405   3.839 -0.0757 -0.2723 -0.7378
17327SOL     OW55511   8.002   0.299   3.364  0.2992  0.1240  0.1790
17327SOL    HW155512   8.078   0.303   3.305  0.5378  1.0246  0.5283
17327SOL    HW255513   8.029   0.349   3.441 -0.0360 -0.9863  1.0430
17328SOL     OW55514   4.016   4.920   2.406  0.2665 -0.5281 -0.2607
17328SOL    HW155515   4.010   4.960   2.319  2.7865  1.9093  0.5325
17328SOL    HW255516   4.083   4.852   2.396  0.3601 -0.4307 -0.3081
17329SOL     OW55517   4.162   5.664   4.268 -0.1443 -0.2720  0.2579
17329SOL    HW155518   4.240   5.636   4.220 -0.8787  0.2278 -1.3034
17329SOL    HW255519   4.186   5.749   4.306  0.5143 -0.7689  0.9645
17330SOL     OW55520   8.323   0.187  10.140  0.3977 -0.7260 -0.4116
17330SOL    HW155521   8.339   0.281  10.146  2.3492 -0.9334 -1.6677
17330SOL    HW255522   8.328   0.168  10.047  0.5095 -2.1550 -0.1275
17331SOL     OW55523   8.446   8.638   2.194 -0.3255  0.3525 -0.3993
17331SOL    HW155524   8.385   8.620   2.122 -0.2710 -2.0670  0.0722
17331SOL    HW255525   8.417   8.579   2.264  2.6961 -1.1111 -0.2513
17332SOL     OW55526   7.472   1.267   8.903  0.6704 -0.2986  0.3647
17332SOL    HW155527   7.447   1.216   8.826  1.7304 -1.1277  0.5394
17332SOL    HW255528   7.413   1.239   8.972  1.1425 -1.2026  0.4164
17333SOL     OW55529   9.754   6.890   2.156  0.3006 -0.3248  0.7501
17333SOL    HW155530   9.820   6.959   2.146 -0.9666  0.9193  0.5791
17333SOL    HW255531   9.770   6.830   2.083 -1.8386  2.6781 -2.5217
17334SOL     OW55532   0.478   4.946   5.114  0.0919  0.2704  0.5367
17334SOL    HW155533   0.431   5.029   5.114  0.0868  0.3203 -1.3370
17334SOL    HW255534   0.460   4.909   5.027  1.8668 -0.6487  0.5244
17335SOL     OW55535   5.972   8.764   2.183  0.7590  0.4022  0.4841
17335SOL    HW155536   5.885   8.785   2.150  0.2763 -0.3026  1.2801
17335SOL    HW255537   5.967   8.781   2.277  1.9749  1.9378  0.2978
17336SOL     OW55538   7.355   0.562   8.659  0.4727 -0.0577 -0.0094
17336SOL    HW155539   7.384   0.496   8.596 -0.2097  0.6572 -1.0981
17336SOL    HW255540   7.307   0.512   8.726  0.4784 -0.7229 -0.4912
17337SOL     OW55541   0.579   4.694   4.931  0.2040  0.3344  0.3467
17337SOL    HW155542   0.612   4.732   5.012  0.9121 -2.1231  1.3073
17337SOL    HW255543   0.657   4.663   4.885 -0.3750 -0.8707  0.1269
17338SOL     OW55544   0.032   1.214   7.477  0.1842  0.2161  0.1632
17338SOL    HW155545   0.085   1.285   7.441  0.2825  0.0998  0.0732
17338SOL    HW255546  -0.039   1.202   7.414  0.0550  0.3664  0.2800
17339SOL     OW55547   3.737   4.666   6.004  0.4172  0.2362  0.0329
17339SOL    HW155548   3.794   4.743   5.998  2.2752 -1.1143 -0.1579
17339SOL    HW255549   3.778   4.611   6.070  0.3839 -1.5982 -1.4016
17340SOL     OW55550   8.953   5.286   4.826 -0.0896 -0.0389  0.6504
17340SOL    HW155551   8.903   5.337   4.762  0.7451  0.0665  0.0559
17340SOL    HW255552   8.888   5.255   4.889 -0.8517  0.3221  0.0563
17341SOL     OW55553   4.719  11.104   1.671  1.2612 -0.3622 -0.0075
17341SOL    HW155554   4.709  11.198   1.681  1.6956 -0.3794  0.6759
17341SOL    HW255555   4.649  11.078   1.611  0.5699  0.2556  0.5254
17342SOL     OW55556   8.544   3.823   6.023  0.3194  0.3207  0.0745
17342SOL    HW155557   8.516   3.914   6.014 -0.1480  0.0940 -0.9606
17342SOL    HW255558   8.516   3.781   5.942 -2.6553 -1.5950  1.8914
17343SOL     OW55559   3.017   2.939   9.443 -0.3258  0.2250 -0.2041
17343SOL    HW155560   3.070   2.888   9.381  1.2826 -0.3196  1.5324
17343SOL    HW255561   2.973   2.873   9.496 -2.6933  0.6742 -1.4677
17344SOL     OW55562   4.749   6.214   1.119  0.4375  0.0890 -0.0117
17344SOL    HW155563   4.775   6.260   1.039 -0.7785  1.1125  0.1516
17344SOL    HW255564   4.697   6.140   1.089  0.8985 -0.1593 -0.2045
17345SOL     OW55565   5.636   9.123   4.267 -0.0911  0.1120  0.4996
17345SOL    HW155566   5.632   9.037   4.224 -1.4331  0.3524  0.1092
17345SOL    HW255567   5.726   9.129   4.298  0.3034 -1.0224 -0.3301
17346SOL     OW55568   8.725  10.506   1.906  0.1707 -0.7092  0.1845
17346SOL    HW155569   8.761  10.506   1.995  0.5306 -0.4515  0.0409
17346SOL    HW255570   8.652  10.567   1.910  0.2930 -0.5670  0.2615
17347SOL     OW55571   2.639   4.198   0.726 -0.0670  0.1712  0.3231
17347SOL    HW155572   2.700   4.136   0.766  1.1590  3.1187  3.4356
17347SOL    HW255573   2.562   4.196   0.783 -0.2408  1.0994  0.1343
17348SOL     OW55574   3.866   3.402   8.356  0.1035 -0.1528  0.2577
17348SOL    HW155575   3.928   3.419   8.285  1.5522 -1.0739  1.2374
17348SOL    HW255576   3.861   3.485   8.404  1.6116 -0.4187  0.9151
17349SOL     OW55577   4.331  11.050   2.101 -0.3070 -0.4230 -0.4739
17349SOL    HW155578   4.363  10.988   2.035 -0.2847  0.8837 -1.7380
17349SOL    HW255579   4.365  11.135   2.073 -0.4063  0.1945  1.1690
17350SOL     OW55580   9.956   9.609  10.788 -0.1185 -0.7693 -0.1059
17350SOL    HW155581   9.891   9.564  10.842  0.2459 -1.2771 -0.0757
17350SOL    HW255582   9.910   9.630  10.707  0.3073 -3.3876 -1.1370
17351SOL     OW55583   2.352  10.878   4.388 -0.2306  0.1732 -0.0157
17351SOL    HW155584   2.323  10.937   4.457  0.9799 -0.2797  0.9040
17351SOL    HW255585   2.428  10.922   4.349  0.6702 -0.7251  0.6671
17352SOL     OW55586   2.383   2.686   0.314  0.1585 -0.7616 -0.4605
17352SOL    HW155587   2.370   2.610   0.371 -1.5458 -0.0839  0.1047
17352SOL    HW255588   2.309   2.684   0.254 -0.2849  0.7941 -0.0135
17353SOL     OW55589   7.227   5.003   1.835 -0.3744  0.0211  0.6097
17353SOL    HW155590   7.287   5.005   1.760  1.2546  0.9808  1.8784
17353SOL    HW255591   7.155   5.062   1.809  0.7839  1.3377  0.2645
17354SOL     OW55592   0.697   0.979   4.825  0.2828  0.4101 -0.1516
17354SOL    HW155593   0.775   0.939   4.866 -0.9859 -1.5916  0.4561
17354SOL    HW255594   0.682   0.927   4.746 -0.9202  0.1980  0.1974
17355SOL     OW55595   7.893   9.523   7.459 -0.0521 -0.6734 -0.3654
17355SOL    HW155596   7.920   9.498   7.371 -0.5925  0.2805 -0.8171
17355SOL    HW255597   7.831   9.455   7.485  1.8624 -2.2990  0.2682
17356SOL     OW55598   9.021  10.484   1.651  0.6750 -0.1783  0.3226
17356SOL    HW155599   8.937  10.446   1.624  0.6867 -0.5894  0.8573
17356SOL    HW255600   9.078  10.471   1.575  0.3436 -0.1707  0.0678
17357SOL     OW55601   1.636   9.095   8.134 -0.2016 -0.5539  0.0695
17357SOL    HW155602   1.618   9.031   8.203  0.1120  0.4296  1.0847
17357SOL    HW255603   1.708   9.057   8.084  0.3700 -0.7418  1.0184
17358SOL     OW55604   6.089  10.674   4.154  0.0324 -0.2352  0.9346
17358SOL    HW155605   6.111  10.643   4.066 -2.0089  0.4429  0.1414
17358SOL    HW255606   6.033  10.606   4.191  0.5145 -0.3069  1.5528
17359SOL     OW55607  10.975  10.999   6.455  0.1272 -0.2429 -0.1937
17359SOL    HW155608  10.883  10.983   6.475  0.3424 -0.6744  0.4835
17359SOL    HW255609  10.988  11.092   6.471 -0.6435  0.2436 -2.1567
17360SOL     OW55610   6.049   6.431   2.754 -0.0335  0.3380  0.3470
17360SOL    HW155611   6.085   6.513   2.786  0.3693 -0.0796  0.9789
17360SOL    HW255612   6.047   6.373   2.831  0.6064 -0.5592 -0.2910
17361SOL     OW55613   1.581   0.312   0.766 -0.0228 -0.2280 -0.2553
17361SOL    HW155614   1.668   0.297   0.729 -0.0580 -1.9460  0.2443
17361SOL    HW255615   1.522   0.305   0.691  0.1934  0.0159 -0.4504
17362SOL     OW55616   0.271   9.464   3.815 -0.2962  0.0434  0.2914
17362SOL    HW155617   0.193   9.484   3.763  0.3676 -1.8470 -1.5527
17362SOL    HW255618   0.286   9.371   3.801  1.3554  0.0116  1.9399
17363SOL     OW55619   9.196   0.617   2.775 -0.3726 -0.3125  0.0864
17363SOL    HW155620   9.265   0.572   2.726  0.9912  0.0532  1.5619
17363SOL    HW255621   9.164   0.684   2.715 -1.0194 -1.8878 -1.4086
17364SOL     OW55622   0.454   0.213   5.721  0.3752 -0.0973  0.2204
17364SOL    HW155623   0.467   0.303   5.692 -1.6987  1.1040  2.6844
17364SOL    HW255624   0.394   0.176   5.656 -2.8898  2.0343  1.7276
17365SOL     OW55625   3.863   3.586   3.590  0.3724  0.1868 -0.3222
17365SOL    HW155626   3.816   3.666   3.615  0.2728  0.5672 -1.6603
17365SOL    HW255627   3.829   3.519   3.650  0.1755  1.0509  0.5622
17366SOL     OW55628   8.173  10.169   5.086  0.2734  0.4656 -0.2259
17366SOL    HW155629   8.245  10.135   5.032 -1.4179  1.3338 -3.2782
17366SOL    HW255630   8.097  10.116   5.062 -0.5587  0.8596  1.4021
17367SOL     OW55631   8.999   6.787   9.271 -0.3860 -0.1077 -0.3614
17367SOL    HW155632   9.054   6.833   9.208  1.2029 -1.7242 -0.2341
17367SOL    HW255633   8.993   6.698   9.237 -1.9276 -0.2726  0.2883
17368SOL     OW55634   3.611   6.968   3.675 -0.3535 -0.6315 -0.3143
17368SOL    HW155635   3.621   6.947   3.768 -0.7070 -2.2053 -0.6064
17368SOL    HW255636   3.554   7.045   3.674  2.1905  1.4253  0.8755
17369SOL     OW55637   1.812   1.569   6.901 -0.3478 -0.2082 -0.8714
17369SOL    HW155638   1.855   1.638   6.850 -0.5966 -0.0989 -0.9322
17369SOL    HW255639   1.773   1.614   6.975 -0.1181 -0.3481 -0.6643
17370SOL     OW55640   7.437   4.805  10.023  0.4624  0.4956  0.3464
17370SOL    HW155641   7.453   4.781   9.932  0.0135  2.1745 -0.2063
17370SOL    HW255642   7.503   4.871  10.043  0.0345  0.7475  0.9654
17371SOL     OW55643   2.148   5.625   7.848 -0.2073  0.6114 -0.5649
17371SOL    HW155644   2.107   5.577   7.776  0.6638 -0.6814 -0.2313
17371SOL    HW255645   2.237   5.589   7.853 -0.4064  0.3106  1.4814
17372SOL     OW55646   6.806   5.450   2.805  0.1720  0.6728 -0.6792
17372SOL    HW155647   6.899   5.469   2.792  0.6237 -1.0154 -0.1189
17372SOL    HW255648   6.777   5.413   2.721  0.5695 -0.8014 -0.1938
17373SOL     OW55649   5.692   9.498   5.454 -0.8999  0.6726 -0.1708
17373SOL    HW155650   5.759   9.564   5.436 -1.4102  0.8620 -1.4275
17373SOL    HW255651   5.742   9.417   5.468 -0.4030  0.6015 -2.0467
17374SOL     OW55652   0.479   6.082   8.237 -0.2536  0.0032 -0.2015
17374SOL    HW155653   0.384   6.080   8.225 -0.3644  0.5550  0.4790
17374SOL    HW255654   0.515   6.076   8.149 -0.9649  2.2842 -0.7161
17375SOL     OW55655   2.200   5.061   1.667 -0.7735  0.1314 -0.0160
17375SOL    HW155656   2.188   5.030   1.577 -0.0543 -0.0540 -0.0563
17375SOL    HW255657   2.208   4.982   1.720  0.4942  0.2142 -0.0413
17376SOL     OW55658   8.262   0.409   0.473  0.1792 -0.4703 -0.1127
17376SOL    HW155659   8.317   0.336   0.445 -1.2903 -1.5855 -0.2052
17376SOL    HW255660   8.225   0.443   0.392 -0.7199 -0.9510  0.0814
17377SOL     OW55661   7.213   3.047  10.428  0.2458  0.1383  0.4341
17377SOL    HW155662   7.223   2.963  10.383  2.5021  0.2587  0.5679
17377SOL    HW255663   7.275   3.042  10.501  0.7495  2.0707  0.1831
17378SOL     OW55664   8.856   8.924   2.015 -0.1952  0.4326  0.6893
17378SOL    HW155665   8.787   8.952   2.075  0.8730  0.8808  1.7497
17378SOL    HW255666   8.821   8.845   1.973 -1.5498  0.9500  0.8085
17379SOL     OW55667   1.417  10.717   2.629 -0.3815 -0.3512  0.3907
17379SOL    HW155668   1.360  10.750   2.560  0.0978  0.6515  0.4628
17379SOL    HW255669   1.501  10.762   2.616  0.4055 -1.7784  0.3071
17380SOL     OW55670   3.796   9.812   0.649  0.2888 -0.1316 -0.0337
17380SOL    HW155671   3.713   9.857   0.630 -0.0040 -0.8322 -0.4327
17380SOL    HW255672   3.798   9.805   0.745 -0.2716 -0.4023 -0.0372
17381SOL     OW55673  10.467  10.536   8.631 -0.2794  0.3737 -0.4556
17381SOL    HW155674  10.433  10.584   8.706  0.4352 -1.0922  0.8531
17381SOL    HW255675  10.395  10.480   8.603 -0.1895  0.1135 -0.1633
17382SOL     OW55676   5.068   5.026   6.310 -0.0872 -0.1518 -0.3832
17382SOL    HW155677   5.010   5.030   6.234  0.1374 -0.7202 -0.5862
17382SOL    HW255678   5.152   5.057   6.278 -0.2981  0.7967 -0.0563
17383SOL     OW55679   0.539   3.768   9.217  0.1671  0.3575 -0.2507
17383SOL    HW155680   0.461   3.720   9.246  0.0417  0.3969 -0.5222
17383SOL    HW255681   0.612   3.714   9.245  0.1373  1.3619  1.9713
17384SOL     OW55682   3.895   1.967   5.562 -0.0003 -0.1111  0.2577
17384SOL    HW155683   3.915   1.874   5.551  0.5484 -0.0813  0.9083
17384SOL    HW255684   3.809   1.968   5.604 -1.0407 -0.2610 -1.7600
17385SOL     OW55685   8.830   8.149   0.267  0.4653 -1.3015  0.8044
17385SOL    HW155686   8.781   8.204   0.328  1.5181 -1.8355  2.1817
17385SOL    HW255687   8.784   8.160   0.183 -1.1214 -0.6764  1.7010
17386SOL     OW55688   0.413   0.375   1.562  0.1380  0.6130 -0.3563
17386SOL    HW155689   0.391   0.463   1.593  0.8654  1.1367 -1.2737
17386SOL    HW255690   0.494   0.353   1.609  0.0973  0.5470 -0.3177
17387SOL     OW55691   8.242   9.566   7.082  0.1062  0.2946  0.2363
17387SOL    HW155692   8.214   9.503   7.015  0.0121  1.4603 -0.8554
17387SOL    HW255693   8.161   9.595   7.124  0.1678 -0.4594  0.8927
17388SOL     OW55694   2.099   8.481   2.327  0.4289  0.1524 -0.1136
17388SOL    HW155695   2.054   8.556   2.367  1.0265  0.7370 -0.5158
17388SOL    HW255696   2.052   8.466   2.245  0.5768  0.3604 -0.2360
17389SOL     OW55697   7.817   0.456   8.464  0.0633  0.1226 -0.1199
17389SOL    HW155698   7.872   0.418   8.395 -0.7216  0.9919 -1.2580
17389SOL    HW255699   7.804   0.547   8.438  1.4157  1.0994  2.2403
17390SOL     OW55700   7.072  11.121  10.855 -0.1254  0.2257 -0.6361
17390SOL    HW155701   7.030  11.159  10.778  1.2709 -0.3479 -1.7291
17390SOL    HW255702   7.161  11.153  10.852  0.3787 -1.0635 -0.1583
17391SOL     OW55703   4.890  10.876   3.803 -0.1195 -0.5096  0.2861
17391SOL    HW155704   4.966  10.818   3.815  0.6287  0.7593  2.1435
17391SOL    HW255705   4.925  10.964   3.816 -1.8411  0.1306  0.8227
17392SOL     OW55706   5.125   2.350   4.384 -0.2004  0.0661 -0.2855
17392SOL    HW155707   5.103   2.425   4.328  0.3897  0.6771  0.2720
17392SOL    HW255708   5.047   2.337   4.437 -1.5291 -1.7706 -2.5239
17393SOL     OW55709   5.491   2.454   0.306 -0.4298  0.0567 -0.0177
17393SOL    HW155710   5.500   2.517   0.377  2.0559  0.1003 -0.2797
17393SOL    HW255711   5.577   2.452   0.265 -1.2467 -1.4247 -1.8082
17394SOL     OW55712   1.143   0.315   7.336 -0.2740  0.6447 -0.0451
17394SOL    HW155713   1.079   0.257   7.295 -0.3849  2.1377 -2.1768
17394SOL    HW255714   1.188   0.356   7.263  2.4889  0.3865  1.4055
17395SOL     OW55715   4.329   0.597   2.690 -0.2774  0.0444 -0.2371
17395SOL    HW155716   4.234   0.602   2.702 -0.3148 -1.6248  0.4165
17395SOL    HW255717   4.364   0.593   2.779  0.2201 -1.5670 -0.4655
17396SOL     OW55718   4.489   8.939   2.072  0.1400 -0.0127  0.0106
17396SOL    HW155719   4.510   8.989   2.150  1.1062  0.1636 -0.3465
17396SOL    HW255720   4.448   8.859   2.104 -0.0442  0.3382  0.6554
17397SOL     OW55721   2.487   5.001  10.844 -0.2148 -0.4481  0.5897
17397SOL    HW155722   2.416   5.036  10.898 -0.1404  0.2777  0.2266
17397SOL    HW255723   2.552   4.969  10.908 -1.4412 -2.3929  0.9401
17398SOL     OW55724   6.142   4.844   0.771  0.4831 -0.3060 -0.5430
17398SOL    HW155725   6.177   4.923   0.812  0.4700 -0.0082 -1.0918
17398SOL    HW255726   6.063   4.824   0.821 -1.4089  1.9472 -2.3583
17399SOL     OW55727  10.034   9.279   9.113 -0.9350 -0.3874  0.1423
17399SOL    HW155728   9.991   9.229   9.182  0.7768 -1.0012  0.8164
17399SOL    HW255729  10.057   9.215   9.046 -1.5819  0.0348 -0.5137
17400SOL     OW55730   9.636   0.679   9.046  0.2311 -0.1973 -0.5018
17400SOL    HW155731   9.670   0.745   8.986  0.6465  1.6397  1.6340
17400SOL    HW255732   9.594   0.729   9.116 -2.5385 -2.2868 -0.4667
17401SOL     OW55733   1.511   8.811   3.528  0.2337  0.3530  0.2535
17401SOL    HW155734   1.559   8.819   3.446 -0.8550  1.1004 -0.3281
17401SOL    HW255735   1.481   8.900   3.548 -1.4531 -0.1881  0.2569
17402SOL     OW55736   5.173   5.454   6.848 -0.1093  0.6308 -0.0998
17402SOL    HW155737   5.213   5.498   6.773  0.7178 -0.9609 -0.6457
17402SOL    HW255738   5.217   5.492   6.924  0.4254  0.9057 -0.5393
17403SOL     OW55739   8.757  10.083  10.001 -0.5783 -0.0028 -0.2788
17403SOL    HW155740   8.696  10.153   9.979  0.1029  0.2656 -1.3782
17403SOL    HW255741   8.838  10.128  10.027 -0.7915 -0.3538  1.0914
17404SOL     OW55742   1.080  11.003   8.345  0.0020 -0.2285  0.5967
17404SOL    HW155743   1.037  11.087   8.357  0.4068  0.0488  0.1688
17404SOL    HW255744   1.167  11.015   8.384 -0.2448 -0.7316  1.3157
17405SOL     OW55745   0.814   6.801  10.223  0.2219 -0.5415 -0.2561
17405SOL    HW155746   0.765   6.755  10.155 -1.0053 -1.4093  1.1370
17405SOL    HW255747   0.765   6.883  10.237  0.0707 -0.6731  0.0159
17406SOL     OW55748   5.874   6.670  10.118 -0.6757 -0.0674  0.1618
17406SOL    HW155749   5.804   6.638  10.061  1.3006 -1.5766 -1.6231
17406SOL    HW255750   5.915   6.590  10.152  0.9173  0.7145  0.1668
17407SOL     OW55751   9.708   3.958   3.573  0.9988 -0.6217  0.0104
17407SOL    HW155752   9.697   3.880   3.518 -2.3384  0.2551 -0.8302
17407SOL    HW255753   9.622   3.971   3.612  1.1197  3.1677 -0.6604
17408SOL     OW55754  10.204   7.475   4.234 -0.0059 -0.1148 -0.0149
17408SOL    HW155755  10.249   7.535   4.293 -1.0854  0.3073  0.4127
17408SOL    HW255756  10.146   7.424   4.291  1.1746 -1.8733 -0.3097
17409SOL     OW55757   4.855   2.760   6.217  0.3646 -0.0812 -0.2683
17409SOL    HW155758   4.935   2.730   6.175  1.0235 -0.5575  1.2414
17409SOL    HW255759   4.789   2.695   6.194  0.4375  0.2210 -1.3741
17410SOL     OW55760   6.710   4.912   7.577 -0.7259 -0.2287  0.2960
17410SOL    HW155761   6.730   4.819   7.585 -0.7859 -0.4008 -1.1415
17410SOL    HW255762   6.678   4.938   7.663 -0.0307 -1.3642  0.9149
17411SOL     OW55763   9.937   6.503   2.460 -0.2816 -0.4262  0.1204
17411SOL    HW155764   9.902   6.592   2.455  0.5100 -0.0320  1.2456
17411SOL    HW255765   9.863   6.451   2.492 -1.4927 -0.6753 -2.7664
17412SOL     OW55766   3.134  10.991   5.881  0.6618  0.3998 -0.0185
17412SOL    HW155767   3.077  11.050   5.831  0.8117  0.9157  0.4172
17412SOL    HW255768   3.196  10.958   5.816 -0.2133 -0.2914 -0.5383
17413SOL     OW55769   2.597   4.604  10.026 -0.1580 -0.0833  0.2249
17413SOL    HW155770   2.568   4.691   9.996  0.9347  0.3101  0.2608
17413SOL    HW255771   2.623   4.618  10.117 -1.5390 -0.8345  0.7653
17414SOL     OW55772  10.398   1.455   7.491  0.5642  0.5233  0.2300
17414SOL    HW155773  10.365   1.445   7.580 -2.5588 -0.4533 -0.8857
17414SOL    HW255774  10.467   1.389   7.484  1.0800  0.8214  1.9806
17415SOL     OW55775   8.371   2.813   0.760  0.1707 -0.1267  0.3585
17415SOL    HW155776   8.391   2.724   0.790 -2.9803 -0.6147  1.3794
17415SOL    HW255777   8.377   2.867   0.839  0.7088  0.3510  0.0036
17416SOL     OW55778   1.036   8.788   2.594 -0.1448 -0.5583  0.1224
17416SOL    HW155779   1.073   8.792   2.681  1.2222 -1.1817 -0.4077
17416SOL    HW255780   0.949   8.749   2.606 -0.0400 -0.4569  1.2189
17417SOL     OW55781   7.509   6.356   5.654 -0.0921 -0.0480  0.3687
17417SOL    HW155782   7.449   6.336   5.726  0.0940 -1.3919  0.1765
17417SOL    HW255783   7.549   6.440   5.679 -0.0570 -0.4592  1.8190
17418SOL     OW55784   0.906   3.781   9.253  0.4739  0.4716 -0.3995
17418SOL    HW155785   0.941   3.857   9.206  0.3575  0.4212 -0.5693
17418SOL    HW255786   0.968   3.710   9.232  0.6989  0.5703 -0.0710
17419SOL     OW55787   4.090   9.682   0.157  0.2902  0.4263  0.3183
17419SOL    HW155788   4.128   9.765   0.186 -0.5225  1.5460 -1.6293
17419SOL    HW255789   3.998   9.703   0.141  0.0093 -0.9445  0.0804
17420SOL     OW55790   6.241   0.518   7.239 -0.1079 -0.4136  0.2410
17420SOL    HW155791   6.147   0.523   7.225 -0.5165  0.1665  2.8313
17420SOL    HW255792   6.252   0.454   7.309  1.6604 -2.1722 -1.5044
17421SOL     OW55793   0.294   0.457   8.249 -0.4641  0.0338  0.5893
17421SOL    HW155794   0.348   0.378   8.240 -1.4029 -0.5091 -0.6172
17421SOL    HW255795   0.250   0.446   8.333 -0.6993 -0.8100  0.3670
17422SOL     OW55796   2.189   4.951   6.372 -0.3247 -0.0379 -0.1376
17422SOL    HW155797   2.166   4.885   6.437  1.5720  0.4512  1.1124
17422SOL    HW255798   2.140   5.029   6.398 -0.3093 -0.1203  0.1396
17423SOL     OW55799   0.338   0.645   5.341 -0.3412  0.2314 -0.4418
17423SOL    HW155800   0.318   0.695   5.420 -0.0948 -2.4915  1.4877
17423SOL    HW255801   0.430   0.666   5.322 -0.1087  0.2289  0.6097
17424SOL     OW55802   8.293   8.604  10.441 -0.1298 -0.0312  0.0586
17424SOL    HW155803   8.244   8.578  10.519  0.6177 -1.7441 -0.0067
17424SOL    HW255804   8.282   8.530  10.381  2.0918 -0.2290 -0.1578
17425SOL     OW55805   0.281   4.097   5.182  0.0778  0.1134 -0.2906
17425SOL    HW155806   0.192   4.075   5.207  0.2052  0.9205  0.9117
17425SOL    HW255807   0.325   4.119   5.264  1.7582 -1.5453 -0.6687
17426SOL     OW55808   1.287   4.351   2.749 -0.2020 -0.6410  0.2238
17426SOL    HW155809   1.359   4.327   2.807 -0.2347 -1.9557 -0.2404
17426SOL    HW255810   1.227   4.277   2.754  0.3198 -1.3238 -2.2863
17427SOL     OW55811   6.577  10.146   6.861 -0.2334 -0.0498  0.0305
17427SOL    HW155812   6.652  10.090   6.845 -0.3608 -0.3479  0.4640
17427SOL    HW255813   6.615  10.232   6.878 -0.1019  0.4472 -2.3807
17428SOL     OW55814   9.384   5.620   5.546  0.2030 -0.0246  0.5185
17428SOL    HW155815   9.389   5.715   5.541 -0.2725 -0.0228 -0.0079
17428SOL    HW255816   9.451   5.590   5.484 -1.0355 -0.0125 -0.8919
17429SOL     OW55817   4.743   4.445   9.051  0.3056  0.0845  0.7817
17429SOL    HW155818   4.738   4.448   8.956  2.2744  0.0495  0.6218
17429SOL    HW255819   4.771   4.533   9.076  1.1818 -0.2877  1.1729
17430SOL     OW55820   8.672   5.524   2.485 -0.0173 -0.2554  0.1501
17430SOL    HW155821   8.646   5.558   2.570 -0.5348  2.4643 -1.0058
17430SOL    HW255822   8.755   5.568   2.465 -0.0676 -0.5898 -0.8993
17431SOL     OW55823   3.412   8.131   9.440 -0.5194  0.0089  0.1076
17431SOL    HW155824   3.415   8.216   9.483  1.4482 -0.5140  1.1217
17431SOL    HW255825   3.498   8.092   9.457 -0.4553 -1.1842 -2.3944
17432SOL     OW55826   1.438   8.170   9.839 -0.2103  0.0918 -0.1379
17432SOL    HW155827   1.527   8.178   9.805 -0.4326  0.8262 -0.5805
17432SOL    HW255828   1.390   8.123   9.771  0.2185 -1.8699  0.8472
17433SOL     OW55829   9.047   2.073  10.328  0.0094  0.0991  0.2615
17433SOL    HW155830   9.042   1.987  10.370  0.5888  0.1508  0.4483
17433SOL    HW255831   9.028   2.056  10.236  0.1158 -0.2280  0.2990
17434SOL     OW55832   7.749   5.806  10.009  0.1912 -0.3857 -0.1742
17434SOL    HW155833   7.655   5.793  10.010  0.3870 -1.9719  0.9074
17434SOL    HW255834   7.785   5.724  10.044  2.0353 -0.4081 -1.9457
17435SOL     OW55835   4.245   1.088   2.948 -0.1088  0.5783 -0.2096
17435SOL    HW155836   4.233   1.136   3.029  1.5950  2.3684 -0.9283
17435SOL    HW255837   4.267   0.999   2.976 -1.3726  0.6759  1.2073
17436SOL     OW55838   5.608   5.401   2.580 -0.0449  0.6350 -0.0141
17436SOL    HW155839   5.522   5.359   2.587 -0.1814  0.8423 -0.3966
17436SOL    HW255840   5.671   5.331   2.595 -0.2872  0.6543  1.1730
17437SOL     OW55841   5.607   9.922  10.582 -0.7252  0.3473  0.0987
17437SOL    HW155842   5.523   9.879  10.565 -0.3602 -0.8204  1.0890
17437SOL    HW255843   5.647   9.933  10.496 -1.6693  0.4589 -0.3377
17438SOL     OW55844   1.296   3.997   4.629  0.3327 -0.2053  0.4343
17438SOL    HW155845   1.378   3.967   4.590  0.3090  1.2043 -0.7497
17438SOL    HW255846   1.310   4.089   4.649 -1.2561  0.3173 -0.6594
17439SOL     OW55847   0.147   7.129   0.302 -0.6253  0.6258  0.3130
17439SOL    HW155848   0.079   7.195   0.290 -1.2783  0.1944  1.4631
17439SOL    HW255849   0.116   7.053   0.252 -0.4162  0.8078 -0.0998
17440SOL     OW55850  10.006   1.952   3.097 -0.5890 -0.2705 -0.0027
17440SOL    HW155851  10.070   1.904   3.044 -0.3288 -0.7541  0.7177
17440SOL    HW255852  10.034   2.043   3.092  0.3659 -0.5186  0.5651
17441SOL     OW55853   5.953   9.340   1.983  0.2339  0.4430 -0.0390
17441SOL    HW155854   5.981   9.310   1.897  1.2844  2.3295 -0.4095
17441SOL    HW255855   5.912   9.264   2.023  1.1511 -0.9202 -1.5853
17442SOL     OW55856   1.234   4.596   1.522 -0.1008  0.0197 -0.3312
17442SOL    HW155857   1.249   4.539   1.446 -2.3440 -0.4462 -0.4957
17442SOL    HW255858   1.237   4.685   1.486 -0.2259 -0.1552 -0.7846
17443SOL     OW55859   6.990   3.016   4.550  0.0837  0.3020 -0.2582
17443SOL    HW155860   7.024   3.086   4.494 -0.3408  0.2013 -0.6453
17443SOL    HW255861   6.929   2.968   4.494  1.1691 -1.0482 -0.3440
17444SOL     OW55862   3.075   0.139   0.307 -0.2954  0.0749  0.0073
17444SOL    HW155863   3.068   0.225   0.265 -0.4867  0.3969  0.6877
17444SOL    HW255864   3.158   0.104   0.276  0.4990  1.1401  0.8590
17445SOL     OW55865   7.832   8.350   0.461  0.5437  0.4934  0.4785
17445SOL    HW155866   7.766   8.379   0.398  1.9706  0.7386 -0.9619
17445SOL    HW255867   7.881   8.429   0.483  1.1020  0.1117  0.6276
17446SOL     OW55868   3.685   6.807   6.337  0.0022  0.2548 -0.2075
17446SOL    HW155869   3.620   6.747   6.373 -0.0406  0.4520  0.0387
17446SOL    HW255870   3.660   6.893   6.369 -0.1708  0.4649 -0.8868
17447SOL     OW55871  10.226   9.682   8.900 -0.1346  0.7908  0.2837
17447SOL    HW155872  10.193   9.667   8.988 -1.0885  0.5591 -0.1020
17447SOL    HW255873  10.317   9.708   8.912 -0.1173  0.2757  1.3011
17448SOL     OW55874  10.152   8.005   7.283 -0.1889 -0.0505  0.2662
17448SOL    HW155875  10.203   8.046   7.214  0.5024 -0.5902  0.4496
17448SOL    HW255876  10.216   7.958   7.336 -0.9221 -1.1273  0.2294
17449SOL     OW55877  10.665   6.060   6.547 -0.0835  0.1081  0.1287
17449SOL    HW155878  10.738   6.066   6.485 -0.1356 -0.7104 -0.0163
17449SOL    HW255879  10.602   6.002   6.505 -0.5460  0.3174  0.5282
17450SOL     OW55880   3.434   0.992   9.063 -0.1926  0.0642  0.6175
17450SOL    HW155881   3.385   0.948   8.993  0.5213 -2.1692  1.4393
17450SOL    HW255882   3.525   0.968   9.047  0.0249 -0.1317  2.0840
17451SOL     OW55883   2.464   4.281   5.406  0.0344 -0.5580  0.0967
17451SOL    HW155884   2.543   4.335   5.404  0.2976 -0.9224 -2.3353
17451SOL    HW255885   2.498   4.191   5.409 -0.2864 -0.6978 -0.4128
17452SOL     OW55886   1.225   6.260   5.321 -0.1257 -0.5042  0.1111
17452SOL    HW155887   1.275   6.212   5.255 -0.8355 -1.9979  0.6006
17452SOL    HW255888   1.180   6.191   5.371 -1.6788  0.7150  0.4678
17453SOL     OW55889   4.090   5.524   7.678  0.0659 -0.6170 -0.0867
17453SOL    HW155890   4.022   5.544   7.741 -0.2312 -2.7998  0.3561
17453SOL    HW255891   4.113   5.609   7.639  0.9823  1.0251  3.5921
17454SOL     OW55892   4.613   6.504   9.824  0.4515  0.1439  0.1592
17454SOL    HW155893   4.540   6.451   9.793  0.9343  0.3870 -1.5173
17454SOL    HW255894   4.667   6.444   9.875 -0.7629 -0.0930  1.2053
17455SOL     OW55895  10.237   5.181   5.950 -0.2296 -0.1232 -0.2324
17455SOL    HW155896  10.210   5.273   5.951 -0.7653 -0.2641 -1.1073
17455SOL    HW255897  10.262   5.164   5.859  0.1035 -0.7782 -0.0265
17456SOL     OW55898   5.054   6.043   7.026 -0.0478 -0.2268  0.1042
17456SOL    HW155899   5.065   6.009   7.115 -3.5100  0.0986  0.8286
17456SOL    HW255900   5.050   5.965   6.970  1.2031 -0.4759  0.3347
17457SOL     OW55901  10.762   4.083   5.544  0.6375  0.0243  0.1332
17457SOL    HW155902  10.832   4.019   5.538  0.1286 -0.4830 -0.4927
17457SOL    HW255903  10.706   4.066   5.468 -0.5684 -0.0846  1.0076
17458SOL     OW55904   0.133   7.456   6.622 -0.0564 -0.1462  0.3112
17458SOL    HW155905   0.066   7.442   6.688  0.3965  0.6744  0.9708
17458SOL    HW255906   0.215   7.454   6.670  0.5252 -2.2855 -0.6565
17459SOL     OW55907   8.356   9.694   1.836 -0.4523  0.0423 -0.3949
17459SOL    HW155908   8.338   9.725   1.925 -0.2591 -1.1862  0.1016
17459SOL    HW255909   8.270   9.680   1.798 -0.7676 -3.8965  1.2734
17460SOL     OW55910  10.644   9.707   8.338  0.5360  0.7190  0.0155
17460SOL    HW155911  10.709   9.762   8.294  1.3057  0.5598  0.9330
17460SOL    HW255912  10.639   9.629   8.283  1.3549  0.5998  0.0876
17461SOL     OW55913   8.282   7.772   2.100 -0.2124  0.8709 -0.3594
17461SOL    HW155914   8.298   7.805   2.012 -1.8736  2.6210 -0.0574
17461SOL    HW255915   8.288   7.849   2.157 -2.7370  0.4541  0.5807
17462SOL     OW55916   2.389   5.475   4.811  0.6659  0.2638  0.3767
17462SOL    HW155917   2.337   5.397   4.790  0.9242  0.4756 -1.1691
17462SOL    HW255918   2.438   5.493   4.731  2.0239  0.9356  1.3086
17463SOL     OW55919   8.049   2.909   5.056  0.0690  0.2746  0.1601
17463SOL    HW155920   8.075   2.943   4.970 -0.2307  2.6719  0.9474
17463SOL    HW255921   8.129   2.914   5.108  0.1590 -0.8303  0.1491
17464SOL     OW55922   3.528   7.190   7.638  0.4454  0.1110 -0.1310
17464SOL    HW155923   3.573   7.162   7.558  0.5199 -0.4300  0.0989
17464SOL    HW255924   3.496   7.278   7.617  4.4005  1.9645  0.7806
17465SOL     OW55925   2.889   8.871   7.930 -0.0427  0.1758  0.0081
17465SOL    HW155926   2.888   8.852   8.024 -0.4200 -1.8593 -0.3756
17465SOL    HW255927   2.810   8.923   7.915 -0.4906 -0.3134  0.6532
17466SOL     OW55928   5.516   3.257   9.561  0.4010  0.1345 -0.0119
17466SOL    HW155929   5.566   3.193   9.510  1.0787  0.0304  0.7602
17466SOL    HW255930   5.550   3.342   9.531  0.8486  0.0718  0.3017
17467SOL     OW55931   0.086   4.014   3.394  0.3993  0.1831 -0.1791
17467SOL    HW155932   0.082   3.955   3.319  1.2305 -0.1773  0.0453
17467SOL    HW255933   0.132   3.963   3.461  0.9795  1.0262  0.0764
17468SOL     OW55934   1.357   8.610   9.334 -0.5231 -0.6670  0.1791
17468SOL    HW155935   1.341   8.539   9.272  1.0991 -0.5320 -0.4458
17468SOL    HW255936   1.270   8.644   9.353 -1.2495 -2.1065 -0.3454
17469SOL     OW55937   4.440   6.595   2.479  0.5090  0.4943 -0.2038
17469SOL    HW155938   4.357   6.559   2.510  0.8764 -0.5915 -0.4257
17469SOL    HW255939   4.460   6.544   2.400  2.0422 -0.1768  0.5803
17470SOL     OW55940   7.494   2.537   0.516 -0.5214 -0.2063  0.4597
17470SOL    HW155941   7.509   2.607   0.452 -0.7853  0.1058  0.7346
17470SOL    HW255942   7.420   2.488   0.480  0.3199 -0.9913 -0.2643
17471SOL     OW55943   8.537   2.946   2.054 -0.5215 -0.5629 -0.7931
17471SOL    HW155944   8.557   2.856   2.078 -1.2816 -0.3812  0.5919
17471SOL    HW255945   8.442   2.952   2.061 -0.3728  0.7404  0.6858
17472SOL     OW55946  11.052  10.744   5.785 -0.1957 -0.5579 -0.2566
17472SOL    HW155947  11.144  10.751   5.760 -0.5710 -1.6474 -2.0740
17472SOL    HW255948  11.004  10.777   5.709 -1.3276  0.0183  0.6756
17473SOL     OW55949  10.472   5.118   9.661  0.0006  0.6295  0.0682
17473SOL    HW155950  10.421   5.121   9.742  0.2451  2.2796  0.1914
17473SOL    HW255951  10.559   5.091   9.688  0.4843  2.5965  0.6241
17474SOL     OW55952   8.581   1.224   4.638  0.9574 -0.1105  0.5536
17474SOL    HW155953   8.486   1.232   4.653  0.9575  1.8092 -0.1786
17474SOL    HW255954   8.610   1.314   4.622  2.7727 -0.7722 -0.0740
17475SOL     OW55955   6.232   5.662   3.277 -0.4400 -0.0295  0.1931
17475SOL    HW155956   6.234   5.738   3.335  1.9358 -0.9396  1.4268
17475SOL    HW255957   6.192   5.592   3.329  0.0189 -0.3638  0.1056
17476SOL     OW55958   2.457   6.819   6.726 -0.1023 -0.2000  0.5352
17476SOL    HW155959   2.413   6.766   6.660  1.0787 -1.0026  0.3517
17476SOL    HW255960   2.451   6.767   6.806 -0.9627  0.4742  0.9240
17477SOL     OW55961   1.877  10.208   8.724 -0.0901  0.0565  0.0132
17477SOL    HW155962   1.908  10.189   8.812  2.3685  1.8733 -0.3345
17477SOL    HW255963   1.878  10.124   8.678  0.6510 -0.5616  1.1370
17478SOL     OW55964   3.196  10.330   9.432 -0.0591 -0.1631 -0.5433
17478SOL    HW155965   3.164  10.419   9.423 -1.0228 -0.1951  1.8315
17478SOL    HW255966   3.117  10.275   9.435  0.4441 -0.9041 -0.3661
17479SOL     OW55967   7.049   5.496   2.704  0.1568 -0.0123 -0.5115
17479SOL    HW155968   7.015   5.502   2.615  0.7697  0.7561 -0.7110
17479SOL    HW255969   7.141   5.523   2.697 -0.0401  1.0350  0.4909
17480SOL     OW55970   4.489   2.638   4.005 -0.1435  0.1856  0.6168
17480SOL    HW155971   4.406   2.591   3.996 -0.1039  0.2053  0.1366
17480SOL    HW255972   4.531   2.629   3.920 -0.0180  0.8670  0.6029
17481SOL     OW55973   8.443   3.078   2.766 -0.1271  0.1198 -0.2090
17481SOL    HW155974   8.434   2.998   2.715 -2.9242  1.0835 -1.4323
17481SOL    HW255975   8.509   3.129   2.720  0.3436 -0.7009 -0.4689
17482SOL     OW55976   3.448   8.628   3.708 -0.1059 -0.2006 -0.1601
17482SOL    HW155977   3.524   8.650   3.762 -0.9540  1.0028  0.5806
17482SOL    HW255978   3.460   8.677   3.627 -0.3867  0.4673  0.1994
17483SOL     OW55979   0.252   4.277   0.509  0.1531  0.0599 -0.3383
17483SOL    HW155980   0.209   4.349   0.463  1.2539  0.7122 -0.3756
17483SOL    HW255981   0.226   4.289   0.601 -0.2103  0.0981 -0.4443
17484SOL     OW55982  10.751   4.542   6.452  0.1884  0.0033 -0.1497
17484SOL    HW155983  10.722   4.632   6.463 -0.6781 -0.3942  1.1191
17484SOL    HW255984  10.673   4.489   6.472  0.3294 -1.0148 -2.0764
17485SOL     OW55985   4.404   9.773   0.457  0.0934  0.0867  0.2412
17485SOL    HW155986   4.440   9.687   0.437  1.3752 -0.1040  2.9506
17485SOL    HW255987   4.477   9.822   0.496 -0.9493  1.9493  0.0038
17486SOL     OW55988  11.021   4.493   9.887  0.4325  0.8126 -0.8337
17486SOL    HW155989  11.038   4.430   9.817 -0.1173  1.1691 -1.2992
17486SOL    HW255990  11.054   4.450   9.966 -0.4017 -0.2785 -1.0565
17487SOL     OW55991   4.580   3.794   7.555  0.1314  0.1898  0.2918
17487SOL    HW155992   4.611   3.746   7.632  1.6630 -0.6423 -0.7992
17487SOL    HW255993   4.648   3.858   7.537  0.2880 -0.3082 -0.9603
17488SOL     OW55994   3.735   3.942  10.948 -0.2084 -0.3827 -0.0119
17488SOL    HW155995   3.780   3.862  10.921 -1.0940 -0.3968 -1.5860
17488SOL    HW255996   3.779   4.012  10.900  0.9969  0.2232  1.8572
17489SOL     OW55997   0.893   7.907   7.922  0.1602  0.2573 -0.3213
17489SOL    HW155998   0.964   7.842   7.927 -0.0946 -0.1831 -1.8047
17489SOL    HW255999   0.917   7.974   7.986  1.3337 -0.4401  0.0049
17490SOL     OW56000  10.380   6.386  10.599 -0.1475  0.5816  0.1473
17490SOL    HW156001  10.293   6.412  10.628 -0.1929  0.4918  0.0915
17490SOL    HW256002  10.440   6.426  10.663 -0.1457  1.7544 -0.5671
17491SOL     OW56003   7.625   7.016   2.526  0.5611  0.1920 -0.0744
17491SOL    HW156004   7.567   6.964   2.582  2.5954 -0.7196  1.3115
17491SOL    HW256005   7.638   7.098   2.574 -0.1671  0.7230 -0.7592
17492SOL     OW56006   3.719   4.644   6.796 -0.2899 -0.1791 -0.4006
17492SOL    HW156007   3.767   4.609   6.721  1.4933  0.9960  0.1197
17492SOL    HW256008   3.757   4.599   6.871 -0.6640  0.0796 -0.0551
17493SOL     OW56009   7.383  10.528  10.413  0.1203  0.5692  0.8470
17493SOL    HW156010   7.386  10.563  10.502 -0.0394  1.5153  0.4886
17493SOL    HW256011   7.427  10.443  10.419  0.7871  0.9577  1.6769
17494SOL     OW56012   1.563   0.495   1.699 -0.0013  0.5867  0.5499
17494SOL    HW156013   1.525   0.446   1.772  2.6154  0.1235  1.6877
17494SOL    HW256014   1.504   0.569   1.687 -0.5545  0.6481  3.0933
17495SOL     OW56015   7.021   7.631   4.537 -0.0590 -0.2847 -0.0980
17495SOL    HW156016   6.933   7.594   4.528 -0.8412  1.4028  0.2091
17495SOL    HW256017   7.046   7.657   4.448  0.2367 -0.9503 -0.2176
17496SOL     OW56018   8.245   9.829   2.680  0.0501  1.0739 -0.3951
17496SOL    HW156019   8.278   9.768   2.615  0.5479  0.0446  0.7769
17496SOL    HW256020   8.240   9.777   2.761 -4.6682  0.9929 -0.4537
17497SOL     OW56021   7.271   3.311   7.406 -0.1667 -0.0434  0.3769
17497SOL    HW156022   7.287   3.284   7.496 -1.1100  0.3689  0.6799
17497SOL    HW256023   7.349   3.282   7.358  0.7288  0.4788  1.4664
17498SOL     OW56024  10.653   4.927   7.173 -0.0048  0.1553  0.5041
17498SOL    HW156025  10.599   4.870   7.228  1.1062 -2.4518 -0.9738
17498SOL    HW256026  10.598   4.947   7.097 -0.1904  0.6311  0.7565
17499SOL     OW56027   2.799   9.661   9.061 -0.7426  0.2845  0.3251
17499SOL    HW156028   2.849   9.716   9.000 -1.0414  0.3850  0.1684
17499SOL    HW256029   2.777   9.583   9.009  1.0432 -0.7277  1.0076
17500SOL     OW56030   9.615   8.441   1.937 -0.0760 -0.2362 -0.1729
17500SOL    HW156031   9.596   8.521   1.889  0.5350  0.8169  1.2605
17500SOL    HW256032   9.710   8.443   1.949 -0.2926  0.0299  1.8422
17501SOL     OW56033   6.016  10.770   2.721 -0.0681  0.3008 -0.7490
17501SOL    HW156034   6.078  10.728   2.663  0.2365  2.1716 -1.8695
17501SOL    HW256035   6.052  10.755   2.809  1.4087  0.4290 -1.2958
17502SOL     OW56036   0.948   1.005   2.842  0.3812 -0.4366 -0.5143
17502SOL    HW156037   0.967   0.923   2.797  1.0439 -0.1799 -0.7209
17502SOL    HW256038   0.936   1.069   2.772 -1.2434 -0.5752 -0.3844
17503SOL     OW56039   2.681   9.925   7.357  0.2892 -0.3557 -0.3128
17503SOL    HW156040   2.605   9.968   7.320 -0.9372 -1.4565  0.8199
17503SOL    HW256041   2.754   9.950   7.300 -0.6894  1.6403 -0.7515
17504SOL     OW56042   4.663   5.489   4.832  0.1417 -0.1534  0.5412
17504SOL    HW156043   4.638   5.416   4.890 -1.0100 -1.0535 -1.0150
17504SOL    HW256044   4.728   5.538   4.882  0.7696 -2.1089  1.7608
17505SOL     OW56045  11.084   2.043   0.447  0.1759 -0.6747  0.4478
17505SOL    HW156046  11.053   2.127   0.412 -0.3511 -0.7381  0.7466
17505SOL    HW256047  11.129   2.001   0.374 -1.3865 -1.0603 -0.3402
17506SOL     OW56048   9.182   2.386  10.983 -0.2676  0.5049  0.1150
17506SOL    HW156049   9.174   2.463  10.927 -0.2625 -0.3767 -1.1349
17506SOL    HW256050   9.175   2.421  11.072 -4.3530  1.5540 -0.4117
17507SOL     OW56051   7.165  10.237   0.224 -0.1526  0.2255 -0.3516
17507SOL    HW156052   7.238  10.226   0.163 -0.4698  1.2957 -0.9494
17507SOL    HW256053   7.161  10.154   0.271  0.9016 -0.1666 -0.9044
17508SOL     OW56054   1.770   2.306   6.654 -0.1590  0.7066  0.3409
17508SOL    HW156055   1.735   2.374   6.713 -1.1524 -0.4015  1.0770
17508SOL    HW256056   1.694   2.251   6.635  0.6751 -0.2946 -0.1005
17509SOL     OW56057   0.085   9.716   0.333 -0.1225  0.6670 -0.1050
17509SOL    HW156058  -0.004   9.708   0.298  0.2963  0.4665 -1.1646
17509SOL    HW256059   0.105   9.810   0.328  0.4766  0.4872 -1.8670
17510SOL     OW56060   6.105  10.687   5.092 -0.5631 -0.1953 -0.2540
17510SOL    HW156061   6.140  10.769   5.129  2.1013 -0.8356 -1.0865
17510SOL    HW256062   6.032  10.715   5.037 -0.6810  1.4415  0.6578
17511SOL     OW56063   7.036   3.241   2.892 -0.1465  0.1577 -0.0556
17511SOL    HW156064   7.111   3.236   2.951 -0.7294  0.2067  0.7185
17511SOL    HW256065   6.961   3.219   2.948 -0.5343 -1.7089 -1.2022
17512SOL     OW56066   9.027  10.059  10.255 -0.5426 -0.0167  0.2818
17512SOL    HW156067   9.006  10.080  10.164  1.0974  2.1843  0.3379
17512SOL    HW256068   9.050  10.143  10.294  0.8803 -1.1995  2.1514
17513SOL     OW56069   0.946   4.170   9.933  0.5298 -0.5227 -0.0685
17513SOL    HW156070   0.974   4.121   9.856  0.6920 -0.2970 -0.1520
17513SOL    HW256071   0.944   4.261   9.905  0.1880 -0.4831  0.0742
17514SOL     OW56072   5.170  10.972  10.063  0.2026 -0.0107 -0.3910
17514SOL    HW156073   5.175  10.969  10.158  0.9172  3.1071 -0.2101
17514SOL    HW256074   5.083  11.007  10.044 -0.5036 -1.9751 -1.0215
17515SOL     OW56075   6.242   2.797   1.907  0.2692  0.2673 -0.0884
17515SOL    HW156076   6.171   2.738   1.883  0.5801  0.2820 -1.1126
17515SOL    HW256077   6.316   2.768   1.854  0.4354  1.5440 -0.6075
17516SOL     OW56078   1.004   7.070   2.432  0.4399 -0.3442  0.3900
17516SOL    HW156079   1.061   7.061   2.509  0.2681  0.8426  0.6691
17516SOL    HW256080   0.973   7.160   2.435  0.4514 -0.2641 -1.1040
17517SOL     OW56081   4.814   7.139   7.094  0.2609  0.3870 -0.0409
17517SOL    HW156082   4.722   7.132   7.070  0.7439  1.3123 -2.4000
17517SOL    HW256083   4.844   7.048   7.100 -0.5722  0.0884 -0.2949
17518SOL     OW56084   6.981   2.677   4.387 -0.1262 -0.3268  0.6436
17518SOL    HW156085   6.897   2.649   4.422 -0.9804 -0.8102 -1.6088
17518SOL    HW256086   6.961   2.755   4.336  0.6345 -0.9005 -0.5699
17519SOL     OW56087   5.590   6.092   0.498 -0.0158 -0.0944 -0.7695
17519SOL    HW156088   5.642   6.042   0.434  0.9368  1.0387 -0.9160
17519SOL    HW256089   5.638   6.174   0.508 -0.3111 -0.1153  1.1757
17520SOL     OW56090  10.215   6.741   0.600  0.4994  0.2149  0.2055
17520SOL    HW156091  10.185   6.828   0.572  0.4189  0.2467  0.3897
17520SOL    HW256092  10.224   6.749   0.695  0.9964  0.1792  0.1669
17521SOL     OW56093   8.922   8.587   3.850  0.2296  0.0267 -0.4881
17521SOL    HW156094   8.897   8.532   3.924 -0.7745  0.7400 -0.2739
17521SOL    HW256095   8.880   8.547   3.774  0.2828 -0.0333 -0.4861
17522SOL     OW56096   8.815  11.052   6.897 -0.1972  0.1747 -0.3159
17522SOL    HW156097   8.790  11.021   6.810 -0.6577 -0.0300 -0.1129
17522SOL    HW256098   8.842  10.973   6.944 -1.1568  0.0993  0.1285
17523SOL     OW56099  10.665   2.352   5.069  0.3414 -0.1709  0.2950
17523SOL    HW156100  10.737   2.296   5.097  0.8058  0.2801  0.0103
17523SOL    HW256101  10.706   2.436   5.049 -0.6322  1.1227  3.1819
17524SOL     OW56102   4.069   1.281  10.441  0.3470 -0.2533 -0.1597
17524SOL    HW156103   4.113   1.366  10.449 -0.6408  0.1783  1.0298
17524SOL    HW256104   4.128   1.219  10.482 -0.0229  0.2941  1.2646
17525SOL     OW56105   0.756  10.332  10.182 -0.2768 -0.3040 -0.2731
17525SOL    HW156106   0.699  10.327  10.105 -1.4981 -1.3669  0.6396
17525SOL    HW256107   0.709  10.282  10.249  1.8010 -1.3375  0.5008
17526SOL     OW56108   3.254   4.512   3.681  0.4513  0.1399  0.2216
17526SOL    HW156109   3.200   4.473   3.750 -0.7940  1.6286  0.1388
17526SOL    HW256110   3.309   4.575   3.726 -0.4202  1.1721 -0.1139
17527SOL     OW56111   1.261   9.452   7.520 -0.1003 -0.0497  0.2616
17527SOL    HW156112   1.193   9.390   7.547 -0.0165 -0.1896  0.1552
17527SOL    HW256113   1.341   9.400   7.519  0.2558  0.4201  1.6833
17528SOL     OW56114   6.879   0.367   7.087 -0.0059  0.7471  0.1981
17528SOL    HW156115   6.798   0.333   7.051 -0.4769  1.7973  0.2362
17528SOL    HW256116   6.946   0.342   7.024 -0.4961  0.6881 -0.3059
17529SOL     OW56117   5.760   2.319   5.039 -0.5736 -0.4619  0.1034
17529SOL    HW156118   5.803   2.273   5.111  2.5646 -1.4035 -2.1813
17529SOL    HW256119   5.731   2.250   4.980 -0.0013  0.3592 -1.1719
17530SOL     OW56120   1.135   1.247   6.215 -0.6618 -0.2363  0.6794
17530SOL    HW156121   1.133   1.246   6.119  0.2742  1.5540  0.5975
17530SOL    HW256122   1.049   1.213   6.241 -1.5425  0.7196 -0.8389
17531SOL     OW56123  10.174   2.500   5.806  0.8177 -0.1988  0.0663
17531SOL    HW156124  10.160   2.546   5.890 -0.0973 -1.2124  0.4974
17531SOL    HW256125  10.251   2.542   5.768  0.7899  0.8022  1.0576
17532SOL     OW56126   1.771   3.100   8.654  0.0788  0.4691 -0.1598
17532SOL    HW156127   1.834   3.168   8.679 -0.8179  1.6070 -0.9093
17532SOL    HW256128   1.720   3.084   8.734 -0.6645  1.7599 -0.3526
17533SOL     OW56129  10.907   8.661   1.369  0.2469  0.3025 -0.0999
17533SOL    HW156130  10.986   8.623   1.331 -0.2155  0.8664 -1.6881
17533SOL    HW256131  10.836   8.610   1.331 -0.2114  0.5226  0.4530
17534SOL     OW56132   8.874   0.623  10.066 -0.3878 -0.0301  0.2544
17534SOL    HW156133   8.878   0.696  10.128  0.5339  1.9198 -1.9692
17534SOL    HW256134   8.792   0.635  10.019 -0.3370 -0.5827  0.0130
17535SOL     OW56135   0.344   0.421   9.657 -0.4222  0.0890  0.5515
17535SOL    HW156136   0.284   0.350   9.682  0.0276  0.5795  3.4035
17535SOL    HW256137   0.290   0.481   9.605 -1.4588 -1.1031  0.1891
17536SOL     OW56138   1.438  10.597   0.549  0.2034 -0.1766  0.1203
17536SOL    HW156139   1.516  10.554   0.584  0.3947 -0.2002 -0.3213
17536SOL    HW256140   1.409  10.538   0.479 -1.1377 -0.9927  1.3037
17537SOL     OW56141   0.570   6.126   1.645  0.3759 -0.4304 -0.0122
17537SOL    HW156142   0.512   6.139   1.569  1.9960  1.6558 -0.9974
17537SOL    HW256143   0.517   6.153   1.720 -0.5638 -0.4151 -0.6634
17538SOL     OW56144   4.973   3.321   1.925  0.1229 -0.1802 -0.5693
17538SOL    HW156145   4.940   3.319   2.015 -1.6658 -0.3309 -1.1804
17538SOL    HW256146   4.927   3.395   1.884 -0.8076 -1.4658 -1.9444
17539SOL     OW56147   9.296   3.048  10.588  0.0116 -0.1627  0.5069
17539SOL    HW156148   9.326   3.026  10.676 -1.4550 -3.2501  0.3854
17539SOL    HW256149   9.350   2.995  10.530  0.4102  1.2269 -0.4601
17540SOL     OW56150   6.305   8.057   3.882 -0.5016 -0.5055 -0.7141
17540SOL    HW156151   6.312   8.029   3.973 -1.3849  2.0543  0.2545
17540SOL    HW256152   6.338   7.984   3.831 -0.0548 -2.0596  1.6536
17541SOL     OW56153   3.731   1.167   5.951  0.0047 -1.0966  0.1414
17541SOL    HW156154   3.648   1.213   5.936  1.0113  0.7524  0.0178
17541SOL    HW256155   3.704   1.082   5.986 -1.9581 -0.7014 -0.2611
17542SOL     OW56156  10.147   7.648   3.284  0.3053  0.1191  0.0043
17542SOL    HW156157  10.082   7.666   3.352  1.2087  2.9148  0.2783
17542SOL    HW256158  10.231   7.648   3.329  0.7157 -1.0172 -0.7065
17543SOL     OW56159   8.520   8.213   3.470 -0.1043  0.0816  0.1854
17543SOL    HW156160   8.531   8.275   3.541 -3.0309  0.2092  0.6397
17543SOL    HW256161   8.578   8.140   3.492  0.1639  0.7741  1.8886
17544SOL     OW56162   4.968   5.894   7.998 -0.3463 -0.2175 -0.7143
17544SOL    HW156163   4.925   5.826   7.946  0.5353 -0.6044 -0.9619
17544SOL    HW256164   5.003   5.847   8.074  1.7030 -0.4000 -1.6939
17545SOL     OW56165   4.684  10.873   0.819 -0.7907 -0.3825  0.4073
17545SOL    HW156166   4.697  10.961   0.853 -0.2013 -0.5979  0.7591
17545SOL    HW256167   4.655  10.822   0.895 -0.0734 -0.7256  0.4644
17546SOL     OW56168   7.460   3.110   6.653 -0.1190  0.3267  0.0677
17546SOL    HW156169   7.379   3.064   6.674  0.2071  0.6216  2.2223
17546SOL    HW256170   7.457   3.123   6.559 -2.1837 -0.3877 -0.0064
17547SOL     OW56171   1.723   0.477   5.460  1.0020 -0.5752  0.0550
17547SOL    HW156172   1.727   0.516   5.547 -1.7895  0.8640 -0.3519
17547SOL    HW256173   1.674   0.396   5.472  3.5694 -2.2023  0.2815
17548SOL     OW56174   9.476   5.797   6.072  0.0410 -0.2327  0.3201
17548SOL    HW156175   9.388   5.835   6.074 -1.1995 -2.8391 -0.9268
17548SOL    HW256176   9.497   5.789   5.979  0.7135 -1.5329  0.5633
17549SOL     OW56177   2.932   0.822   4.186 -0.7481 -0.3276  0.2471
17549SOL    HW156178   2.878   0.782   4.117 -1.1369 -0.3604  0.5626
17549SOL    HW256179   2.871   0.880   4.232 -0.4863 -0.2988  0.5545
17550SOL     OW56180   2.015   1.431   4.095  0.1040  0.2372 -0.1927
17550SOL    HW156181   2.057   1.476   4.021 -0.9294 -0.1273 -1.0292
17550SOL    HW256182   1.925   1.416   4.066 -1.2397  2.6221  2.2090
17551SOL     OW56183   3.831  11.122   9.904  0.1233 -0.4193  0.4663
17551SOL    HW156184   3.827  11.216   9.925 -0.5900 -0.5958  1.1254
17551SOL    HW256185   3.920  11.110   9.871  0.3873  0.3968  0.8352
17552SOL     OW56186   1.885   2.336   0.508 -0.3830 -0.8124 -0.1267
17552SOL    HW156187   1.860   2.428   0.501  1.5615 -0.3334 -2.0145
17552SOL    HW256188   1.929   2.317   0.425 -1.5929 -3.7634 -0.2245
17553SOL     OW56189   5.144  10.878   4.067  0.5124 -0.3685  0.1927
17553SOL    HW156190   5.094  10.837   4.138  0.7563 -1.4019 -0.2137
17553SOL    HW256191   5.115  10.833   3.988  2.0616 -0.9920 -0.0561
17554SOL     OW56192   7.981   4.142   7.122  0.0940  0.3384  0.2044
17554SOL    HW156193   7.921   4.216   7.127 -1.3858 -0.8532  0.7132
17554SOL    HW256194   7.999   4.118   7.213  1.0511  0.4320  0.0574
17555SOL     OW56195   2.714   0.870   8.602  0.4929  0.2069 -0.2954
17555SOL    HW156196   2.702   0.901   8.692  1.1674  0.1490 -0.1756
17555SOL    HW256197   2.797   0.823   8.605  0.3289 -0.1175 -0.8676
17556SOL     OW56198   6.286   8.876   5.875  0.1082  0.0240  0.8037
17556SOL    HW156199   6.286   8.967   5.907  0.9339  0.5537 -0.6327
17556SOL    HW256200   6.217   8.834   5.926 -0.8995  1.6718  0.8927
17557SOL     OW56201   4.698   5.973   8.121 -0.2615 -0.3023  0.5250
17557SOL    HW156202   4.619   5.927   8.095 -0.6006  1.0114 -0.9807
17557SOL    HW256203   4.761   5.952   8.052  0.3059 -0.3673  1.0612
17558SOL     OW56204   1.728   7.457   8.365  0.3766 -0.0292  0.4549
17558SOL    HW156205   1.814   7.499   8.359  0.1417  0.4114  0.0951
17558SOL    HW256206   1.677   7.515   8.422 -0.6844  1.5006 -1.8868
17559SOL     OW56207   9.070   6.871   5.919  0.1765 -0.1011 -0.3281
17559SOL    HW156208   8.990   6.855   5.869 -0.1784  0.0985  0.1576
17559SOL    HW256209   9.043   6.934   5.986  0.7518 -0.0038 -0.1857
17560SOL     OW56210   1.872   7.442   7.087  0.0171  0.4596  0.0020
17560SOL    HW156211   1.856   7.349   7.074 -0.1881  0.6051 -0.8696
17560SOL    HW256212   1.900   7.449   7.178 -3.1177 -0.0380  1.1389
17561SOL     OW56213   1.958   5.360   0.543  0.5455  0.0766  0.7641
17561SOL    HW156214   2.017   5.384   0.471  0.6441  0.4731  0.9757
17561SOL    HW256215   2.011   5.305   0.600  0.5851  0.0975  0.7470
17562SOL     OW56216   2.745   1.903  10.762  0.4809  0.2306  0.1187
17562SOL    HW156217   2.730   1.812  10.789 -0.9100  0.8434  1.5710
17562SOL    HW256218   2.690   1.915  10.686 -0.3978  0.2201  0.7368
17563SOL     OW56219   5.439   9.743   1.632  0.1440 -0.0243 -0.2090
17563SOL    HW156220   5.518   9.765   1.680  0.8089  2.5273 -2.2462
17563SOL    HW256221   5.471   9.705   1.550 -0.6652  1.4489 -1.2447
17564SOL     OW56222   4.794  10.942  10.347  0.0344  0.1914  0.2872
17564SOL    HW156223   4.826  10.918  10.434  0.2500 -2.9160 -0.5361
17564SOL    HW256224   4.699  10.948  10.357  0.2371  4.5887  1.6473
17565SOL     OW56225   9.644  10.457   4.728 -0.0925  0.4357  0.2184
17565SOL    HW156226   9.555  10.430   4.749  0.3973 -2.8842 -1.3028
17565SOL    HW256227   9.691  10.451   4.811  0.0362 -4.3958  0.0456
17566SOL     OW56228   3.052  10.096   4.599 -0.2160 -0.2533 -0.0664
17566SOL    HW156229   2.964  10.120   4.629  0.0537  1.5286 -0.5869
17566SOL    HW256230   3.088  10.043   4.669 -0.5892  1.5467  1.5729
17567SOL     OW56231   2.018   6.840   7.750  0.0141  0.0784  0.1002
17567SOL    HW156232   2.064   6.916   7.713 -0.1735  0.2324  0.1857
17567SOL    HW256233   2.088   6.786   7.787 -0.0737  1.8137  3.0373
17568SOL     OW56234   4.013  10.230   2.595 -0.0370 -0.4207 -0.5016
17568SOL    HW156235   3.945  10.186   2.644 -0.2828  0.7298  0.2365
17568SOL    HW256236   4.083  10.246   2.659  0.4254 -0.5422 -0.9671
17569SOL     OW56237   8.169   2.962   4.796 -0.4629 -0.0891 -0.0634
17569SOL    HW156238   8.221   2.906   4.738 -2.0445 -1.5642 -0.1359
17569SOL    HW256239   8.102   3.001   4.739  0.6017  1.9599 -0.0137
17570SOL     OW56240  10.227   2.906   3.713 -0.1710  0.0598 -0.0169
17570SOL    HW156241  10.190   2.989   3.742 -1.1658 -0.6299  0.7688
17570SOL    HW256242  10.319   2.926   3.694 -0.7394  1.6460 -1.2898
17571SOL     OW56243   8.704  10.817   7.102  0.5072 -0.0917  0.4855
17571SOL    HW156244   8.699  10.781   7.013 -0.5760  0.0224  0.4861
17571SOL    HW256245   8.648  10.759   7.153 -0.0341  0.7035  0.7969
17572SOL     OW56246  10.460   2.114   6.473 -0.0717 -0.2218  0.0004
17572SOL    HW156247  10.389   2.078   6.528  1.0474 -0.8978  1.0555
17572SOL    HW256248  10.449   2.209   6.480 -1.2232 -0.3096 -0.3434
17573SOL     OW56249  10.953  11.122   8.816 -0.2325 -0.0025 -0.2765
17573SOL    HW156250  10.985  11.171   8.741 -1.0883  0.3061 -0.4589
17573SOL    HW256251  11.029  11.072   8.848  0.6287  1.3422 -0.1631
17574SOL     OW56252   5.515   1.708   7.334  0.1684  0.0970 -0.2754
17574SOL    HW156253   5.599   1.664   7.345 -1.7641 -3.9018  0.1226
17574SOL    HW256254   5.498   1.706   7.240  0.0996  0.0725 -0.2628
17575SOL     OW56255   7.321   6.046   6.723  0.2832  0.0793 -0.3212
17575SOL    HW156256   7.330   5.987   6.798 -2.3587 -0.7921 -0.5770
17575SOL    HW256257   7.227   6.068   6.722  0.4884  1.0739 -2.6344
17576SOL     OW56258   2.903   3.542   7.419  0.9498  0.0709 -0.2413
17576SOL    HW156259   2.809   3.556   7.434  0.9376 -0.0746 -0.1828
17576SOL    HW256260   2.938   3.520   7.505  1.1356  0.6513 -0.1603
17577SOL     OW56261   7.748   3.666   6.521  0.0854 -0.2145  0.1053
17577SOL    HW156262   7.836   3.667   6.557  0.6243 -2.5158 -0.9641
17577SOL    HW256263   7.760   3.675   6.426 -0.8865  0.2012  0.0096
17578SOL     OW56264   6.267   3.899   3.265  0.1748 -0.6501  0.1733
17578SOL    HW156265   6.199   3.959   3.234 -1.6566 -1.6416  2.0482
17578SOL    HW256266   6.337   3.956   3.296 -2.0549  0.7498  3.1700
17579SOL     OW56267   8.139   9.901   9.582 -0.7400  0.0166  0.1106
17579SOL    HW156268   8.163   9.926   9.493  1.0516  0.0952  0.5928
17579SOL    HW256269   8.051   9.937   9.594 -0.1041  2.0074 -0.8402
17580SOL     OW56270   2.106   8.500  10.787  0.5343  0.5243 -0.0021
17580SOL    HW156271   2.163   8.516  10.861  2.0684 -0.1287 -1.0038
17580SOL    HW256272   2.019   8.488  10.826  1.4713 -0.9116  1.7872
17581SOL     OW56273   6.640   5.756   5.113  0.0009 -0.8142 -0.0124
17581SOL    HW156274   6.670   5.794   5.196  2.6069 -1.2239 -0.6884
17581SOL    HW256275   6.609   5.669   5.137  0.6861 -0.9116  0.5580
17582SOL     OW56276   7.543  10.105  10.054 -0.1501  0.0515 -0.4172
17582SOL    HW156277   7.557  10.172   9.988  2.5661  1.4734  1.3824
17582SOL    HW256278   7.595  10.030  10.023 -0.0905  0.1709 -0.6081
17583SOL     OW56279   7.507   9.696  10.912  0.3349 -0.1243  0.1510
17583SOL    HW156280   7.417   9.665  10.900  0.4252 -0.2154 -0.2837
17583SOL    HW256281   7.516   9.767  10.849 -0.1252  1.3503  1.6573
17584SOL     OW56282   4.762   5.168   7.201  0.3227  0.0339 -0.3749
17584SOL    HW156283   4.804   5.083   7.187  3.1023  0.9094  1.8065
17584SOL    HW256284   4.803   5.226   7.137  0.5888  0.3421  0.0686
17585SOL     OW56285   1.888   2.087   6.777 -0.2130  0.2533  0.1588
17585SOL    HW156286   1.806   2.047   6.807  0.2745 -0.4205  0.6297
17585SOL    HW256287   1.861   2.170   6.737 -0.9188  1.2659  2.5109
17586SOL     OW56288  10.933   3.517   5.914 -0.6438  0.2123  0.2363
17586SOL    HW156289  10.901   3.452   5.977 -2.3858  0.4772 -0.3223
17586SOL    HW256290  10.860   3.528   5.852  1.0862 -0.2259 -1.9965
17587SOL     OW56291   9.254   0.276   4.757  0.7243  0.4456  0.2379
17587SOL    HW156292   9.206   0.304   4.679  0.6544 -3.3122 -1.2502
17587SOL    HW256293   9.341   0.254   4.725  0.6910 -1.1794  1.1661
17588SOL     OW56294   0.179   3.651   0.705 -0.1722 -0.3292 -0.2113
17588SOL    HW156295   0.200   3.601   0.626 -0.0177 -1.9670  0.8373
17588SOL    HW256296   0.115   3.716   0.675  2.4838  1.4826 -2.4212
17589SOL     OW56297   9.855   0.522   0.625  0.4980 -0.2836  0.3208
17589SOL    HW156298   9.877   0.568   0.706 -1.6793 -0.3408  1.0112
17589SOL    HW256299   9.865   0.588   0.556 -0.6737  0.7227  1.0622
17590SOL     OW56300   7.599   0.488   6.903  0.2298  0.2457 -0.3608
17590SOL    HW156301   7.691   0.515   6.902  0.3020  0.0236 -1.4207
17590SOL    HW256302   7.577   0.474   6.810 -1.9099  3.8363 -0.6028
17591SOL     OW56303   6.153   7.629   1.723  0.7293 -0.0820 -0.1818
17591SOL    HW156304   6.158   7.713   1.769  1.6911  1.4567 -2.8816
17591SOL    HW256305   6.062   7.623   1.694  0.4750 -0.3732  0.6415
17592SOL     OW56306   3.623   7.138   0.563  0.0510 -0.7975  0.2273
17592SOL    HW156307   3.612   7.122   0.469 -0.6496 -1.3780  0.4009
17592SOL    HW256308   3.696   7.200   0.568  1.0483 -1.8362 -0.6298
17593SOL     OW56309   0.990   1.472   3.627 -0.1783 -0.5292 -0.1550
17593SOL    HW156310   1.081   1.461   3.655  0.1238 -1.2335 -1.3300
17593SOL    HW256311   0.947   1.391   3.653  0.3979 -1.7419 -2.6710
17594SOL     OW56312   2.864   7.803   1.776  0.7986  0.4475 -0.0628
17594SOL    HW156313   2.858   7.789   1.682  1.4554 -0.5591  0.0395
17594SOL    HW256314   2.804   7.876   1.793 -0.1418 -0.0581 -1.1007
17595SOL     OW56315  10.752   5.087   3.109  0.1310  0.4528  0.2546
17595SOL    HW156316  10.674   5.092   3.163  0.8606  1.4942  1.2639
17595SOL    HW256317  10.812   5.031   3.159 -0.3659 -1.4203 -1.1036
17596SOL     OW56318   2.954   8.655   5.721 -0.3360 -0.2242 -0.0984
17596SOL    HW156319   3.045   8.649   5.750 -0.1438 -0.2385 -0.6955
17596SOL    HW256320   2.938   8.749   5.711  0.1047 -0.2687 -1.4844
17597SOL     OW56321   7.196   2.786   4.154  0.0360 -0.6471  0.2765
17597SOL    HW156322   7.225   2.833   4.232 -0.1419  0.0307 -0.0628
17597SOL    HW256323   7.234   2.698   4.164  1.1988 -0.1497  0.4360
17598SOL     OW56324   8.343   7.453   3.670 -0.2954  0.0234 -0.1619
17598SOL    HW156325   8.289   7.388   3.625 -2.3761  0.1832  1.9133
17598SOL    HW256326   8.357   7.522   3.605 -2.1106 -0.3145 -0.9821
17599SOL     OW56327   4.515   4.155   7.602 -0.1564 -0.3406  0.0260
17599SOL    HW156328   4.475   4.238   7.627  1.6954  0.5511  0.2583
17599SOL    HW256329   4.486   4.140   7.513  0.9240  1.5579 -0.7119
17600SOL     OW56330   5.547   8.211   1.324  0.3117  0.2918 -0.2825
17600SOL    HW156331   5.458   8.244   1.338  0.7822  1.7504 -0.4811
17600SOL    HW256332   5.565   8.230   1.232  0.6104 -0.5884 -0.4158
17601SOL     OW56333   2.571   0.944   3.747 -0.1487 -0.1310  0.3804
17601SOL    HW156334   2.642   0.888   3.717  1.6226  2.4693 -0.6184
17601SOL    HW256335   2.492   0.891   3.737  1.3781 -2.3083 -0.7257
17602SOL     OW56336   2.695   6.574   6.148  0.3002 -0.0360  0.3854
17602SOL    HW156337   2.660   6.660   6.173  0.9198  0.5051 -0.5470
17602SOL    HW256338   2.783   6.592   6.116 -0.3563 -0.6823 -1.9939
17603SOL     OW56339   8.987  10.753   1.932  0.0421  0.6552 -0.0642
17603SOL    HW156340   8.969  10.777   2.023  0.3454 -3.0939  1.1281
17603SOL    HW256341   8.902  10.730   1.896  0.3352 -1.8072  0.6470
17604SOL     OW56342   9.226   7.675   3.752 -0.3487  0.6250 -0.3839
17604SOL    HW156343   9.231   7.734   3.827  0.7120  2.2343 -1.6382
17604SOL    HW256344   9.150   7.707   3.702 -0.1354  0.5348 -0.7644
17605SOL     OW56345   0.492   2.621   3.331  0.1935 -0.1739  0.0056
17605SOL    HW156346   0.500   2.710   3.366 -0.0174 -0.3609  0.5371
17605SOL    HW256347   0.408   2.590   3.364  0.9470 -1.1196  1.0819
17606SOL     OW56348   3.757   4.040   4.201 -0.0958 -0.8996  0.5899
17606SOL    HW156349   3.700   4.080   4.135 -0.6403  1.0874  2.1538
17606SOL    HW256350   3.845   4.055   4.169 -0.3630 -0.1213  0.1926
17607SOL     OW56351   6.530   2.179   7.009 -0.0018 -0.1510 -0.3370
17607SOL    HW156352   6.590   2.108   7.032 -1.1534 -0.5650  1.6058
17607SOL    HW256353   6.538   2.241   7.081  0.5368  1.4309 -1.7166
17608SOL     OW56354   7.212   6.529   3.974  0.0334  0.7267 -0.0385
17608SOL    HW156355   7.268   6.461   3.936 -0.6445  0.0843  0.0884
17608SOL    HW256356   7.241   6.611   3.933  1.4269  0.4858  0.4465
17609SOL     OW56357  10.044   7.230   2.919 -0.2262  0.0285  0.5377
17609SOL    HW156358   9.957   7.191   2.925 -1.3338  1.7313 -2.3484
17609SOL    HW256359  10.056   7.274   3.003 -2.6713  0.6710  0.6394
17610SOL     OW56360   7.032   3.208  10.600 -0.2462 -0.0625  0.7360
17610SOL    HW156361   6.948   3.207  10.553 -0.0607  0.5326  0.3807
17610SOL    HW256362   7.089   3.151  10.549 -0.9727 -2.0622  2.0382
17611SOL     OW56363   3.405   1.132   6.661  0.3426  0.1931  0.4072
17611SOL    HW156364   3.379   1.116   6.752 -1.6191 -0.1506 -0.1784
17611SOL    HW256365   3.334   1.185   6.625  0.7388 -0.2838 -1.1342
17612SOL     OW56366   7.678   8.721   6.969 -0.0916  0.4189  0.0130
17612SOL    HW156367   7.623   8.679   6.903 -0.8409  0.8229  0.3633
17612SOL    HW256368   7.695   8.808   6.933  3.4691 -0.8382 -1.8677
17613SOL     OW56369   2.955   3.769  10.433  0.6934 -0.2173 -0.1669
17613SOL    HW156370   2.883   3.787  10.373 -0.6244 -1.3309  1.0289
17613SOL    HW256371   3.027   3.822  10.400 -0.3513  0.1344 -2.0036
17614SOL     OW56372   5.892   7.607   4.768 -0.0962 -0.1734  0.1152
17614SOL    HW156373   5.955   7.542   4.798 -0.6436  0.5355  3.1666
17614SOL    HW256374   5.911   7.618   4.674  4.6717  0.3708  0.8762
17615SOL     OW56375   2.160   1.826   4.381  0.5408 -0.3326 -0.5693
17615SOL    HW156376   2.245   1.819   4.338  0.1973  1.7073 -1.7079
17615SOL    HW256377   2.112   1.891   4.329 -0.2553  1.5874  2.3316
17616SOL     OW56378  10.530   8.447   0.292  0.2130 -0.1369 -0.6056
17616SOL    HW156379  10.472   8.495   0.352  0.6686 -0.9375  0.5215
17616SOL    HW256380  10.617   8.481   0.311  0.3707 -0.4557 -0.7525
17617SOL     OW56381  10.901   7.531   7.346 -0.7904  0.2131  0.1647
17617SOL    HW156382  10.864   7.613   7.314 -1.4195  0.5784  1.7470
17617SOL    HW256383  10.914   7.478   7.267  1.1360  2.3777 -1.0795
17618SOL     OW56384   7.453   1.538   8.918  0.1640 -0.2567  0.1975
17618SOL    HW156385   7.358   1.549   8.922  0.0112 -1.6169  0.9032
17618SOL    HW256386   7.465   1.448   8.889  1.2590 -0.0258 -0.1117
17619SOL     OW56387   9.580  10.108   7.512  0.3406  0.1746 -0.5290
17619SOL    HW156388   9.648  10.090   7.578  0.0583 -1.2141 -0.6019
17619SOL    HW256389   9.627  10.150   7.441  0.9594  0.0972 -0.1756
17620SOL     OW56390   2.838   8.090   6.961  0.4841  0.0851 -0.0858
17620SOL    HW156391   2.860   8.183   6.968  0.8974 -0.0654  0.7358
17620SOL    HW256392   2.800   8.081   6.874  0.2204  1.0704 -0.0893
17621SOL     OW56393   3.635   8.390   0.923 -0.3201  0.1089 -0.2110
17621SOL    HW156394   3.689   8.456   0.967 -0.0665  0.3169 -0.8063
17621SOL    HW256395   3.692   8.315   0.912 -0.4298  0.0013 -0.0474
17622SOL     OW56396   0.629   5.727   3.076 -0.2952 -0.0436 -0.1036
17622SOL    HW156397   0.577   5.668   3.131 -1.5507 -0.3942 -1.5859
17622SOL    HW256398   0.627   5.686   2.989 -0.3030  1.6557 -0.9301
17623SOL     OW56399   9.395   4.665  10.136 -0.2083 -0.2153 -0.3127
17623SOL    HW156400   9.422   4.599  10.072 -1.2047 -1.4044  0.4487
17623SOL    HW256401   9.320   4.708  10.095  0.3625  0.3657 -0.7566
17624SOL     OW56402   5.133   5.964   1.666 -0.1720 -0.6414 -0.5108
17624SOL    HW156403   5.044   5.977   1.632  1.0366 -0.2601 -3.8855
17624SOL    HW256404   5.154   5.874   1.641  0.8306 -0.2981 -0.9203
17625SOL     OW56405   3.538   9.940   0.551 -0.7683  0.4837 -0.0089
17625SOL    HW156406   3.572   9.926   0.463 -0.2460 -0.3235  0.3068
17625SOL    HW256407   3.449   9.904   0.548 -0.6545  0.2067 -0.1363
17626SOL     OW56408   6.237  10.153   8.078  0.1446 -0.0366  0.3861
17626SOL    HW156409   6.330  10.162   8.060  0.0845  2.9236  1.1049
17626SOL    HW256410   6.197  10.138   7.992  1.1391  0.2045 -0.1322
17627SOL     OW56411   4.236   7.134   7.566 -0.3106 -0.1930  0.6346
17627SOL    HW156412   4.200   7.061   7.617 -0.3994  0.4830  1.5762
17627SOL    HW256413   4.299   7.093   7.508 -0.9049 -1.1130  0.6096
17628SOL     OW56414   4.698   3.622  10.003  0.1317 -0.3020 -0.2489
17628SOL    HW156415   4.780   3.642   9.958  0.0565  0.0723 -0.2197
17628SOL    HW256416   4.721   3.625  10.096  0.4001 -1.5489 -0.2576
17629SOL     OW56417   2.762   3.932   7.313 -0.0404 -0.5192 -0.1863
17629SOL    HW156418   2.812   3.894   7.241  0.5355 -1.2981  0.5980
17629SOL    HW256419   2.801   3.894   7.392 -1.0420 -0.1494  0.5104
17630SOL     OW56420   9.801   1.667   8.850  0.0170 -0.8910 -0.3824
17630SOL    HW156421   9.759   1.645   8.933  1.2400 -1.4698  0.1047
17630SOL    HW256422   9.741   1.729   8.808  0.3338  1.1047  1.8940
17631SOL     OW56423   9.187   8.797   9.485  0.2735 -0.2895  0.1673
17631SOL    HW156424   9.151   8.796   9.573  0.4519  0.4483  0.2551
17631SOL    HW256425   9.257   8.731   9.486 -0.0033 -0.5771  0.4534
17632SOL     OW56426  10.809  10.756   3.226  0.1570  0.1238 -0.5848
17632SOL    HW156427  10.805  10.840   3.179  1.6966  1.3865  1.3822
17632SOL    HW256428  10.901  10.729   3.219  0.2358 -0.0799  0.9323
17633SOL     OW56429   3.939   7.641   1.704 -0.0557  0.1961 -0.2829
17633SOL    HW156430   3.909   7.675   1.620 -1.0417  1.2671  0.4737
17633SOL    HW256431   4.005   7.575   1.681  0.6546  1.3889 -1.8450
17634SOL     OW56432   4.461  10.971   1.303  0.3860  1.0330 -0.0960
17634SOL    HW156433   4.369  10.947   1.304  0.9573 -1.4139  1.2961
17634SOL    HW256434   4.465  11.054   1.351 -1.0004  0.7292  0.5819
17635SOL     OW56435   1.840   9.787   0.441  0.1676 -0.0809  0.8103
17635SOL    HW156436   1.848   9.692   0.443  2.1840  0.0488  2.2221
17635SOL    HW256437   1.812   9.811   0.529  0.8460  0.6860  0.8321
17636SOL     OW56438   0.144   0.685   3.547  0.2901  0.3230  0.2344
17636SOL    HW156439   0.238   0.704   3.539  0.2621  0.4718  0.2595
17636SOL    HW256440   0.139   0.617   3.615  0.2714  1.2788  1.2141
17637SOL     OW56441  10.226   9.225   9.714 -0.4366 -0.4218  0.3898
17637SOL    HW156442  10.214   9.296   9.777  0.2473 -0.3945  0.4899
17637SOL    HW256443  10.137   9.205   9.684 -0.5448  1.1263 -0.3692
17638SOL     OW56444   0.941   9.260   5.531 -0.1138  0.1030 -0.0988
17638SOL    HW156445   0.985   9.190   5.580 -1.3146 -0.8818 -0.3489
17638SOL    HW256446   0.990   9.268   5.450  0.5087  0.1093  0.2727
17639SOL     OW56447   3.760   7.378   6.149 -0.3373  0.1559  0.2910
17639SOL    HW156448   3.727   7.312   6.088  1.7735  2.1053 -3.3042
17639SOL    HW256449   3.843   7.343   6.180 -1.8679 -1.3011  3.1726
17640SOL     OW56450   1.657   0.650   4.333 -0.2762 -0.3400 -0.5968
17640SOL    HW156451   1.570   0.622   4.306 -0.0022 -0.5217 -1.3144
17640SOL    HW256452   1.707   0.568   4.338 -0.1635 -0.2455 -0.1108
17641SOL     OW56453   8.798   2.049   9.805 -0.2719  0.3408 -0.0168
17641SOL    HW156454   8.707   2.036   9.831  0.0616  0.0941  1.1359
17641SOL    HW256455   8.799   2.132   9.758 -1.0848  0.3694  0.0048
17642SOL     OW56456   0.347   9.895   4.002 -0.1452  0.4228 -0.3746
17642SOL    HW156457   0.286   9.822   3.989 -0.6637  0.6809  0.5029
17642SOL    HW256458   0.409   9.888   3.930 -0.2723 -0.8100 -0.3851
17643SOL     OW56459  10.355   3.139  10.742  0.0575  0.2513 -0.6318
17643SOL    HW156460  10.350   3.235  10.751  0.9518  0.1487  1.7873
17643SOL    HW256461  10.276   3.107  10.786  1.0027 -0.1378  0.8693
17644SOL     OW56462   7.643   6.396  10.249 -0.1687  0.0385  0.0716
17644SOL    HW156463   7.591   6.468  10.285  1.2639  1.5036 -0.6233
17644SOL    HW256464   7.731   6.412  10.283  0.1176 -1.6134  0.1768
17645SOL     OW56465   0.802   2.198   5.560  0.0327  0.1954  0.8331
17645SOL    HW156466   0.803   2.269   5.496 -1.0732  0.9138  1.5747
17645SOL    HW256467   0.874   2.218   5.620 -1.2757  1.6416  1.9947
17646SOL     OW56468   8.387   4.841   5.605 -0.3824  0.0455  0.5488
17646SOL    HW156469   8.465   4.797   5.570 -0.1124 -0.1974  1.4331
17646SOL    HW256470   8.340   4.871   5.527  0.8157  0.5955  0.0163
17647SOL     OW56471   2.998   2.487   4.813  0.3306 -0.0293  0.0216
17647SOL    HW156472   2.926   2.460   4.757 -0.4590  1.7945  0.0798
17647SOL    HW256473   3.009   2.415   4.875  0.2135 -1.4089 -1.4965
17648SOL     OW56474   1.740   2.833  10.238  0.1917 -0.6388 -0.2055
17648SOL    HW156475   1.739   2.796  10.327 -2.8649  1.5225  0.8470
17648SOL    HW256476   1.655   2.810  10.202  0.0860  1.1993 -1.2827
17649SOL     OW56477   7.985   8.648   1.921  0.7288  0.2119 -0.1661
17649SOL    HW156478   7.972   8.619   2.012  2.0682  0.7236  0.2200
17649SOL    HW256479   8.041   8.582   1.882 -1.7638 -1.2945 -1.4079
17650SOL     OW56480   3.904   8.877   1.897  0.1865  0.0113 -1.0718
17650SOL    HW156481   3.995   8.904   1.907 -0.3703  2.5834 -2.1663
17650SOL    HW256482   3.896   8.853   1.804 -0.1667 -0.6879 -0.8739
17651SOL     OW56483   5.667   6.154   8.922 -0.0918 -0.4676  0.6467
17651SOL    HW156484   5.736   6.125   8.863 -0.1209 -0.4602  0.6093
17651SOL    HW256485   5.656   6.082   8.984  1.2218  0.2482  1.7755
17652SOL     OW56486  10.372   2.063  10.281 -0.1547  0.3727 -0.3162
17652SOL    HW156487  10.297   2.005  10.291  0.3747 -0.1116  1.2129
17652SOL    HW256488  10.445   2.014  10.319  0.6178  1.4296 -0.3890
17653SOL     OW56489   9.027   6.433   3.425  0.1233  0.1001  0.4308
17653SOL    HW156490   8.959   6.491   3.461 -0.1344 -0.1130  0.2944
17653SOL    HW256491   9.084   6.492   3.375  0.5727  0.4228  1.2957
17654SOL     OW56492   5.114   3.488   4.308 -0.2288 -0.1730 -0.5077
17654SOL    HW156493   5.049   3.420   4.289  0.1296 -0.9689  0.9452
17654SOL    HW256494   5.078   3.535   4.383  0.2708  0.1885 -0.4923
17655SOL     OW56495   4.568   3.051   8.308  0.0422  0.2365  0.1011
17655SOL    HW156496   4.557   3.109   8.233  2.1627  2.0403  1.0705
17655SOL    HW256497   4.629   3.097   8.366 -0.2922 -1.7774  2.2207
17656SOL     OW56498   5.284   7.159   9.440 -0.0614  0.6734  0.0105
17656SOL    HW156499   5.264   7.151   9.533 -0.4073 -0.6302 -0.1516
17656SOL    HW256500   5.375   7.130   9.432 -0.1388  0.4632 -0.1036
17657SOL     OW56501  10.202   4.753   8.973 -0.0352  0.2923 -0.5453
17657SOL    HW156502  10.137   4.686   8.955 -0.4639  0.5314  0.0755
17657SOL    HW256503  10.224   4.789   8.888  0.0822 -0.5236 -0.8707
17658SOL     OW56504   6.866   8.825   4.706 -0.0742  0.0593  0.3256
17658SOL    HW156505   6.915   8.751   4.671 -1.5787 -0.9360  0.1907
17658SOL    HW256506   6.919   8.858   4.778  1.4062 -0.0900 -0.6699
17659SOL     OW56507   1.345   8.681   4.063 -0.0811 -0.3887 -0.3477
17659SOL    HW156508   1.416   8.654   4.005 -0.2437 -0.5392 -0.4756
17659SOL    HW256509   1.342   8.613   4.130  0.5759  0.1484  0.2443
17660SOL     OW56510   2.498   8.746   1.886  0.3881  0.0143  0.1678
17660SOL    HW156511   2.432   8.815   1.877 -0.2229 -0.4818  0.7755
17660SOL    HW256512   2.554   8.776   1.957  0.4699  0.1655  0.0388
17661SOL     OW56513   6.560   8.866   9.054 -0.3182 -0.0536  0.2219
17661SOL    HW156514   6.492   8.913   9.005  0.0096  0.9861  0.7287
17661SOL    HW256515   6.617   8.830   8.986  0.9570  2.5776 -0.2440
17662SOL     OW56516   7.521   9.039   5.222  0.2808  0.0569  0.2255
17662SOL    HW156517   7.449   9.015   5.280  0.6482  0.5318  0.8875
17662SOL    HW256518   7.599   9.004   5.265  0.5923  0.6901  0.1869
17663SOL     OW56519   5.675   0.585   0.250 -0.0806  0.0529  0.2909
17663SOL    HW156520   5.770   0.582   0.259  0.1898  2.2505 -0.9359
17663SOL    HW256521   5.648   0.660   0.302 -1.0196  0.0136 -0.1101
17664SOL     OW56522  10.417   5.083   8.434 -0.6329 -0.0187 -0.6341
17664SOL    HW156523  10.470   5.159   8.408 -1.4482  1.2104  1.1161
17664SOL    HW256524  10.358   5.069   8.361 -0.2662  0.8425 -1.1102
17665SOL     OW56525   1.674   7.383   9.615  0.3178 -0.1811 -0.1470
17665SOL    HW156526   1.643   7.315   9.555  1.3124 -0.8016  0.0199
17665SOL    HW256527   1.656   7.348   9.702  0.1503  0.1074 -0.0628
17666SOL     OW56528   0.970   9.892   0.767 -0.6278  0.0686 -0.4630
17666SOL    HW156529   0.914   9.959   0.805 -0.7682 -0.4245  0.2214
17666SOL    HW256530   0.934   9.877   0.679 -1.8361 -0.5305  0.1101
17667SOL     OW56531   6.815   2.456   4.266  0.4278  0.1054  0.8315
17667SOL    HW156532   6.885   2.447   4.331  0.8023  0.6945  0.5221
17667SOL    HW256533   6.858   2.494   4.190  0.2970 -1.9228 -0.3220
17668SOL     OW56534   8.007   9.554   2.892  0.2154 -0.9729 -0.3586
17668SOL    HW156535   8.025   9.642   2.926 -0.9739 -0.5809 -0.6844
17668SOL    HW256536   8.006   9.566   2.797 -1.9938 -0.8813 -0.3622
17669SOL     OW56537   3.509   3.157   4.917  0.2802 -0.6838  0.0561
17669SOL    HW156538   3.583   3.146   4.858  0.3989 -1.3440  0.3118
17669SOL    HW256539   3.501   3.072   4.962  1.1476  0.2398  2.1087
17670SOL     OW56540   2.801   0.615   5.927 -0.1704  0.0232  0.3933
17670SOL    HW156541   2.713   0.612   5.964 -0.8776  1.2810 -1.0800
17670SOL    HW256542   2.808   0.535   5.874  0.3244 -1.0554  2.0301
17671SOL     OW56543   6.958   1.105   7.824 -0.1999  0.4197  0.0525
17671SOL    HW156544   6.949   1.195   7.791  0.5198  1.0311  1.4158
17671SOL    HW256545   6.960   1.051   7.746  0.6047  1.7163 -0.8669
17672SOL     OW56546  10.956   5.066   8.765  0.2837  0.3757 -0.1742
17672SOL    HW156547  10.899   5.078   8.690  0.3544  0.5713 -0.2005
17672SOL    HW256548  11.041   5.044   8.727  0.0621 -0.6324 -0.1120
17673SOL     OW56549   0.348   1.634   7.042  0.3343  0.0189 -0.0319
17673SOL    HW156550   0.414   1.573   7.074  1.0524  1.9126  2.4036
17673SOL    HW256551   0.380   1.720   7.068 -1.5045  1.3163 -1.7589
17674SOL     OW56552   8.856   1.927   9.201  0.8723  0.5861 -0.0370
17674SOL    HW156553   8.794   1.901   9.269  1.1981  1.0444  0.4331
17674SOL    HW256554   8.801   1.968   9.134  0.7685  1.8919  0.8261
17675SOL     OW56555   2.722   5.093   6.591 -0.5206 -0.0778 -0.4408
17675SOL    HW156556   2.791   5.028   6.606 -0.1259  0.3179 -0.5360
17675SOL    HW256557   2.642   5.041   6.585 -0.0039 -0.7478 -2.2082
17676SOL     OW56558   6.255   1.518   7.746 -0.0265  0.1724 -0.6099
17676SOL    HW156559   6.333   1.507   7.692  1.0453 -0.5337  1.0315
17676SOL    HW256560   6.182   1.510   7.684  0.9909 -3.8870 -1.5881
17677SOL     OW56561   8.151   6.736   0.698  0.5638 -0.2494  0.0506
17677SOL    HW156562   8.190   6.797   0.761 -1.2589 -0.9381  1.9495
17677SOL    HW256563   8.202   6.656   0.707  0.6260 -0.1839  0.2772
17678SOL     OW56564   3.553   2.708   5.993  0.2916 -0.1924  0.3634
17678SOL    HW156565   3.565   2.783   6.051 -2.3191  0.1878  0.5113
17678SOL    HW256566   3.537   2.746   5.907 -0.2049 -0.6127  0.2671
17679SOL     OW56567   3.025   0.149   8.388 -0.5430 -0.2589  0.2880
17679SOL    HW156568   2.985   0.111   8.467 -0.1022 -0.8816  0.2147
17679SOL    HW256569   3.118   0.156   8.410 -0.6445  1.0059  0.3879
17680SOL     OW56570   2.327   8.249   1.300  0.6793 -0.0223  0.2152
17680SOL    HW156571   2.420   8.228   1.306  0.7194  0.0900  0.0119
17680SOL    HW256572   2.282   8.171   1.332  0.7109 -1.8089 -3.5633
17681SOL     OW56573   0.583   4.588  10.189 -0.0084  0.3319  0.1521
17681SOL    HW156574   0.489   4.586  10.204 -0.1337 -0.6757 -0.6364
17681SOL    HW256575   0.593   4.563  10.097  0.9948  1.0423  0.0543
17682SOL     OW56576   0.524   7.893   1.547 -0.2877  0.1004 -0.1635
17682SOL    HW156577   0.616   7.894   1.574  0.0473 -0.0389 -1.2663
17682SOL    HW256578   0.481   7.958   1.604  0.0850 -1.1937  1.6956
17683SOL     OW56579   5.996   1.945   2.331 -0.3803  0.0744  0.0949
17683SOL    HW156580   5.943   2.024   2.316  1.1831  1.1178 -0.1873
17683SOL    HW256581   6.047   1.936   2.250  1.2035  0.1990  1.0432
17684SOL     OW56582   6.716   1.640   4.102 -0.1431 -0.0159  0.2681
17684SOL    HW156583   6.636   1.684   4.073 -0.1362 -0.2099 -0.0498
17684SOL    HW256584   6.784   1.708   4.099 -0.3346  0.1972  0.7264
17685SOL     OW56585   9.243   2.182   8.071  0.1304 -0.1097  0.2004
17685SOL    HW156586   9.178   2.134   8.121 -2.0462  2.0765 -0.3665
17685SOL    HW256587   9.286   2.239   8.135 -0.4733  0.4284  0.1385
17686SOL     OW56588   2.407   5.770   6.820  0.2323  0.5573  1.0411
17686SOL    HW156589   2.445   5.839   6.767 -1.7546  0.4714 -0.6452
17686SOL    HW256590   2.369   5.709   6.756 -1.7368  0.1187  2.5149
17687SOL     OW56591   7.084   0.939   8.234  0.1852  0.0488 -0.2573
17687SOL    HW156592   6.998   0.932   8.192 -0.6618 -1.6667  1.5836
17687SOL    HW256593   7.127   1.012   8.189 -1.4661 -0.2651 -2.5187
17688SOL     OW56594   3.091   0.343   6.268 -0.4409 -0.2077  0.1191
17688SOL    HW156595   3.016   0.393   6.237 -1.0462 -1.2584 -0.1725
17688SOL    HW256596   3.090   0.355   6.363 -1.4959 -0.8642  0.2171
17689SOL     OW56597   8.670   4.737   8.554  0.1003  0.6446  0.2847
17689SOL    HW156598   8.596   4.746   8.614  0.1708  1.2362  0.2845
17689SOL    HW256599   8.700   4.647   8.567 -1.0582  0.1544 -0.2171
17690SOL     OW56600   9.842   9.652   1.794  0.3009  0.3665  0.1260
17690SOL    HW156601   9.783   9.639   1.868 -1.5504  0.4799 -1.2415
17690SOL    HW256602   9.914   9.591   1.808 -1.8792 -2.4110  0.1584
17691SOL     OW56603   7.202   1.428  10.891  0.5261  0.4529  0.5392
17691SOL    HW156604   7.234   1.385  10.971  1.8805 -1.0462 -0.7473
17691SOL    HW256605   7.281   1.460  10.848 -0.0839  0.3640 -0.6848
17692SOL     OW56606   0.512  10.798   9.200  0.4465  0.1961  0.1412
17692SOL    HW156607   0.547  10.798   9.111 -0.2794  0.8988 -0.1564
17692SOL    HW256608   0.436  10.740   9.196  0.0941  0.6483  0.1649
17693SOL     OW56609   9.085   3.250   5.233  0.0959  0.0450  0.5838
17693SOL    HW156610   9.124   3.226   5.149  2.1082 -0.1844  1.5108
17693SOL    HW256611   9.148   3.312   5.271 -1.0920  0.6396  1.6450
17694SOL     OW56612   3.735  10.724   3.325 -0.5561  0.2864  0.0185
17694SOL    HW156613   3.696  10.795   3.273  0.6427  0.3173 -0.8722
17694SOL    HW256614   3.709  10.644   3.280  0.2374  0.2992 -0.4765
17695SOL     OW56615   3.023   0.560   0.308  0.3173 -0.4169 -0.3247
17695SOL    HW156616   3.086   0.505   0.355  2.1530  0.8253 -1.2115
17695SOL    HW256617   3.075   0.632   0.273 -1.9056  1.7233  0.4638
17696SOL     OW56618   1.387   5.356   8.358  0.4828 -0.4577 -0.1463
17696SOL    HW156619   1.294   5.376   8.367  0.5668 -0.7441  1.8956
17696SOL    HW256620   1.396   5.320   8.270 -0.8359  2.0398 -1.4211
17697SOL     OW56621   0.136   1.847   9.130  0.4831 -0.0152 -0.2792
17697SOL    HW156622   0.229   1.851   9.154 -0.2048  1.2227  2.5820
17697SOL    HW256623   0.135   1.864   9.036  3.0059  2.8825  0.0657
17698SOL     OW56624   0.950   1.852   7.507  0.8689  0.1368  0.3508
17698SOL    HW156625   0.943   1.842   7.602  0.3562  0.4369  0.3451
17698SOL    HW256626   0.956   1.946   7.493 -2.5590  0.3905 -0.1197
17699SOL     OW56627   6.848   7.575   2.064 -0.5310 -0.0133  0.0424
17699SOL    HW156628   6.911   7.502   2.059 -1.9471 -1.2047 -1.5031
17699SOL    HW256629   6.874   7.634   1.993 -1.5207 -0.8631 -1.0660
17700SOL     OW56630   5.799   2.582   0.717  0.3997  0.7673  0.1435
17700SOL    HW156631   5.841   2.571   0.632  0.8705 -1.3156  0.5740
17700SOL    HW256632   5.707   2.599   0.696  0.2031 -1.1586 -0.8452
17701SOL     OW56633   4.426   4.572   8.044 -0.1453 -0.1199  0.5761
17701SOL    HW156634   4.466   4.491   8.014  0.8667  0.4553  0.3240
17701SOL    HW256635   4.438   4.633   7.971 -0.0846  0.5094  1.1033
17702SOL     OW56636  10.930   2.426   3.214  0.6540 -0.1994 -0.2719
17702SOL    HW156637  11.007   2.466   3.175  0.7212 -0.7202 -0.6669
17702SOL    HW256638  10.856   2.468   3.170  0.7303 -0.8327 -1.0093
17703SOL     OW56639   1.640  10.338   8.047 -0.0426  0.1175 -0.2218
17703SOL    HW156640   1.727  10.362   8.078 -1.1316  1.9749  1.6503
17703SOL    HW256641   1.597  10.422   8.029 -1.6389 -0.7355 -0.5640
17704SOL     OW56642   9.814   9.442   9.029  0.1644  0.1181 -0.3148
17704SOL    HW156643   9.887   9.392   9.066 -0.7145 -0.2804  0.9774
17704SOL    HW256644   9.794   9.508   9.096 -1.1377 -0.2860 -0.2681
17705SOL     OW56645   2.791   3.660   6.938 -0.0762  0.0237  0.0500
17705SOL    HW156646   2.873   3.663   6.888 -0.1525  1.9871 -0.0146
17705SOL    HW256647   2.816   3.619   7.021  0.3513 -1.9413 -0.9712
17706SOL     OW56648   8.832   2.745   9.681  0.2481  0.8136 -0.1897
17706SOL    HW156649   8.832   2.680   9.751 -1.2490 -0.6236 -1.4435
17706SOL    HW256650   8.745   2.786   9.687 -0.1132  0.2748 -1.5331
17707SOL     OW56651   4.406   3.174   6.463 -0.3097  0.1110 -0.1592
17707SOL    HW156652   4.366   3.247   6.417  0.8345 -1.4257 -3.9148
17707SOL    HW256653   4.375   3.096   6.417  2.3278 -1.4716  0.5358
17708SOL     OW56654   9.614   4.396   9.559 -0.0661  0.1884 -0.2997
17708SOL    HW156655   9.660   4.335   9.501  1.1518  2.5799 -1.9915
17708SOL    HW256656   9.678   4.418   9.626  0.1946  1.0654 -0.8200
17709SOL     OW56657   0.284   5.104   7.389  0.0564 -0.0677  0.1605
17709SOL    HW156658   0.265   5.030   7.331 -0.1173 -1.2790  1.7086
17709SOL    HW256659   0.379   5.111   7.390  0.1442 -1.1964  1.0966
17710SOL     OW56660   8.867   9.050   0.570 -0.3148  0.2586  0.6570
17710SOL    HW156661   8.916   8.999   0.635  0.1283 -1.0415 -0.6356
17710SOL    HW256662   8.813   8.985   0.525 -1.1516  1.2515  0.1914
17711SOL     OW56663   5.169   0.792  10.155 -0.1533  0.0001 -0.0710
17711SOL    HW156664   5.174   0.885  10.175 -3.6767  0.5193 -1.0109
17711SOL    HW256665   5.224   0.751  10.222  1.5955  2.6892  0.3076
17712SOL     OW56666   6.973   9.006   0.135 -0.3188  0.1979 -0.1345
17712SOL    HW156667   7.024   9.086   0.144  1.2447 -0.6006 -1.3719
17712SOL    HW256668   7.031   8.936   0.166 -0.2847 -0.8398 -2.3375
17713SOL     OW56669   9.450  10.651   0.145 -0.3345  0.2628  0.0876
17713SOL    HW156670   9.475  10.743   0.151  0.3721  0.3738 -2.9424
17713SOL    HW256671   9.532  10.603   0.161 -0.4196  0.2038  0.3524
17714SOL     OW56672   9.441   5.734   1.703  0.0972 -0.1063  0.2913
17714SOL    HW156673   9.356   5.778   1.701  0.5510  0.8830  1.4109
17714SOL    HW256674   9.490   5.772   1.631 -0.4934 -0.9000 -0.5494
17715SOL     OW56675   8.778   4.211   3.570 -0.1403  0.1488  0.0810
17715SOL    HW156676   8.745   4.262   3.644  0.4526  0.0977  0.3882
17715SOL    HW256677   8.837   4.146   3.610  0.5047  0.3831 -0.4649
17716SOL     OW56678   4.107   2.095   8.462  0.4115  0.3592  0.2931
17716SOL    HW156679   4.137   2.005   8.452 -1.1612 -0.1610  0.0002
17716SOL    HW256680   4.187   2.145   8.478  1.5767 -0.7831 -1.5669
17717SOL     OW56681   7.897   8.109  10.723 -0.2408 -0.1228 -0.8538
17717SOL    HW156682   7.882   8.185  10.778  0.4499 -0.9061  0.4562
17717SOL    HW256683   7.872   8.138  10.635 -3.0142  0.6445  0.0868
17718SOL     OW56684   3.321   7.745   3.714  0.1357  0.0033  0.4737
17718SOL    HW156685   3.356   7.799   3.643 -0.4569  0.7728  0.7543
17718SOL    HW256686   3.371   7.772   3.791  0.1035 -0.1283  0.5409
17719SOL     OW56687   3.095   9.666   7.559 -0.1607  0.0010  0.1946
17719SOL    HW156688   3.164   9.640   7.499 -1.4367  0.5525 -1.5903
17719SOL    HW256689   3.014   9.646   7.512 -1.3613 -2.9131  3.1260
17720SOL     OW56690   5.662   4.821   6.717  0.2806 -0.1494  0.0272
17720SOL    HW156691   5.685   4.739   6.673  1.0825 -0.9933  1.8845
17720SOL    HW256692   5.743   4.872   6.716 -0.1583  0.5631 -0.9272
17721SOL     OW56693   3.890   8.192   7.798 -0.2008 -0.0024  0.4502
17721SOL    HW156694   3.896   8.136   7.720  3.0820 -1.5806  1.6654
17721SOL    HW256695   3.898   8.281   7.764 -1.2911 -0.4711 -1.1682
17722SOL     OW56696   3.242   1.566   2.455  0.4164 -0.5898  0.5894
17722SOL    HW156697   3.299   1.489   2.448 -0.7519 -1.3509 -1.1703
17722SOL    HW256698   3.156   1.535   2.425 -0.0792  1.4060 -0.1721
17723SOL     OW56699   1.567  10.847   8.212 -0.0646 -0.1334  0.1006
17723SOL    HW156700   1.476  10.867   8.192  0.0135 -0.5927 -0.7773
17723SOL    HW256701   1.599  10.923   8.259 -0.6083  0.4800 -0.5088
17724SOL     OW56702   1.809   4.896   6.479 -0.5065  0.1672  0.0530
17724SOL    HW156703   1.819   4.982   6.520 -2.6976  1.0664 -1.1148
17724SOL    HW256704   1.761   4.843   6.543  1.6633 -0.5860  1.1678
17725SOL     OW56705   1.908   1.179   9.461 -0.5196 -0.0364  0.3616
17725SOL    HW156706   1.852   1.104   9.481  2.3998 -2.3534  0.5720
17725SOL    HW256707   1.972   1.145   9.398  0.5471  2.4797 -0.0330
17726SOL     OW56708   6.048   5.202   1.757 -0.0120 -0.4769  0.1573
17726SOL    HW156709   6.022   5.285   1.717 -1.2647 -0.2086  1.4470
17726SOL    HW256710   6.139   5.190   1.731 -0.6392 -0.1716 -2.4697
17727SOL     OW56711   7.741   7.621   4.849  0.4262  0.1974  0.3474
17727SOL    HW156712   7.808   7.597   4.912 -0.0121 -0.0711  0.7183
17727SOL    HW256713   7.668   7.562   4.867  0.4348 -0.1424 -0.6612
17728SOL     OW56714   0.629   4.274   3.241  0.8444  0.3092  0.0992
17728SOL    HW156715   0.577   4.206   3.283  0.0984  0.4124 -0.6208
17728SOL    HW256716   0.581   4.355   3.257 -0.0009  0.2280 -1.7391
17729SOL     OW56717   4.634   3.033   1.892 -0.1065 -0.5589 -0.3200
17729SOL    HW156718   4.601   2.946   1.870 -1.2286  0.0857 -1.3265
17729SOL    HW256719   4.670   3.066   1.810  0.1102  0.0060 -0.0005
17730SOL     OW56720   8.424   2.174   4.253  0.7082 -0.0258 -0.5826
17730SOL    HW156721   8.370   2.214   4.185  0.7643  1.0434 -0.0070
17730SOL    HW256722   8.374   2.098   4.282 -0.2374  0.6488 -0.4261
17731SOL     OW56723   4.929   2.002   4.415  0.0899 -0.2366  0.0835
17731SOL    HW156724   4.916   1.992   4.509  1.5431 -1.2526  0.2127
17731SOL    HW256725   4.873   2.076   4.391 -1.5972 -1.0153  1.4255
17732SOL     OW56726   7.995   0.726   9.989 -0.5118  0.3502  0.1701
17732SOL    HW156727   7.941   0.747   9.913 -1.9557 -2.7615  0.1991
17732SOL    HW256728   7.933   0.722  10.062  0.0120 -1.5625  0.5478
17733SOL     OW56729   2.334   9.418  11.082  0.0903 -0.6946  0.5069
17733SOL    HW156730   2.296   9.482  11.021  0.0830 -0.3021  0.9111
17733SOL    HW256731   2.409   9.463  11.120 -1.0248 -0.1630  2.2313
17734SOL     OW56732   8.269   4.750   1.648  0.1379 -0.2999 -0.2987
17734SOL    HW156733   8.277   4.838   1.684 -1.7789  0.5604 -1.7817
17734SOL    HW256734   8.183   4.749   1.606  0.5873 -2.5141 -1.3157
17735SOL     OW56735   9.656   1.759   9.671  0.1586  0.0460 -0.2096
17735SOL    HW156736   9.570   1.772   9.709 -0.0380 -2.4298  0.3457
17735SOL    HW256737   9.711   1.729   9.743  0.7468 -1.0399 -1.0579
17736SOL     OW56738  10.130   7.593   5.773  0.0869 -0.1395  0.0885
17736SOL    HW156739  10.203   7.636   5.728  0.7852 -1.5802 -0.2037
17736SOL    HW256740  10.096   7.660   5.833 -0.3967  1.5950 -1.9902
17737SOL     OW56741   3.979   0.643   5.922 -0.1505  0.0993 -0.1413
17737SOL    HW156742   3.937   0.663   5.839  0.2995  0.3024 -0.3217
17737SOL    HW256743   4.072   0.652   5.905 -0.0909  1.1578  0.6454
17738SOL     OW56744   9.197   8.370   8.512 -0.5763 -0.3608  0.4826
17738SOL    HW156745   9.256   8.364   8.588 -1.2872  0.1558  1.0889
17738SOL    HW256746   9.163   8.282   8.501 -0.2702 -0.4952  0.6035
17739SOL     OW56747   8.289   4.315   8.786 -0.5831  0.1137  0.0044
17739SOL    HW156748   8.370   4.365   8.795 -0.5536  0.0552  0.0611
17739SOL    HW256749   8.271   4.316   8.692 -1.7388  2.0635  0.1980
17740SOL     OW56750   3.480   5.175   7.352  0.3042 -0.6396 -0.0781
17740SOL    HW156751   3.393   5.214   7.350  0.7215  0.3912  0.9106
17740SOL    HW256752   3.466   5.084   7.326 -1.0921 -0.5370  0.2372
17741SOL     OW56753   1.021   1.419   8.911 -0.2782  0.2528 -0.0123
17741SOL    HW156754   1.105   1.392   8.874 -0.0869 -0.9534  1.2434
17741SOL    HW256755   1.018   1.379   8.997 -1.7234  1.0943  0.3687
17742SOL     OW56756   5.555   3.220   8.209 -0.6981  0.7048  0.1796
17742SOL    HW156757   5.543   3.255   8.120  2.6737  1.9061  0.0922
17742SOL    HW256758   5.472   3.176   8.227 -2.1750  1.8927 -2.8691
17743SOL     OW56759   7.422   3.682   7.352  0.2346  0.0143 -0.4078
17743SOL    HW156760   7.478   3.699   7.428  1.1272  0.5213 -1.1420
17743SOL    HW256761   7.336   3.663   7.388  0.7775 -0.3094  0.7462
17744SOL     OW56762   9.798   8.747   6.121  0.8032  0.2980 -0.1083
17744SOL    HW156763   9.763   8.737   6.209 -0.0883  0.7678 -0.4038
17744SOL    HW256764   9.761   8.673   6.072  1.6624 -0.2304  0.0073
17745SOL     OW56765   7.087  10.825   5.324 -0.4470  0.0297  0.1777
17745SOL    HW156766   7.128  10.865   5.401 -0.0969  1.8514 -0.8945
17745SOL    HW256767   7.148  10.843   5.252 -0.1763 -2.6507 -0.3976
17746SOL     OW56768   7.207   7.583  10.078  0.1212 -0.0668  0.5859
17746SOL    HW156769   7.165   7.558   9.996 -0.7469 -0.8553  1.2520
17746SOL    HW256770   7.271   7.514  10.095  0.5890  0.3081  0.3763
17747SOL     OW56771   0.617   6.093   6.635 -0.1192 -0.0070  0.6891
17747SOL    HW156772   0.623   6.001   6.660  2.8068  0.4809  2.1541
17747SOL    HW256773   0.627   6.093   6.540 -1.1697 -1.2166  0.5486
17748SOL     OW56774   4.239  10.637   3.337 -0.4710 -0.2260 -0.4964
17748SOL    HW156775   4.158  10.683   3.316 -2.5300 -2.3420  2.0485
17748SOL    HW256776   4.217  10.545   3.327  1.6473 -0.8561  0.2321
17749SOL     OW56777   8.329   3.443   0.653 -0.3959  0.2413  0.1855
17749SOL    HW156778   8.371   3.405   0.576 -1.1173 -1.8755  0.7508
17749SOL    HW256779   8.287   3.368   0.696 -2.0926  1.7625  1.3056
17750SOL     OW56780  11.120   5.592   4.197  0.2035  0.5353 -0.1422
17750SOL    HW156781  11.077   5.525   4.250 -0.5915  1.6148  0.5982
17750SOL    HW256782  11.137   5.548   4.113 -0.1714 -0.6277  0.3657
17751SOL     OW56783   8.673   1.913   1.417  0.3420 -0.4206  0.3953
17751SOL    HW156784   8.580   1.914   1.441 -0.0234 -2.7855 -0.6423
17751SOL    HW256785   8.719   1.940   1.497 -1.2066  0.7030  0.9584
17752SOL     OW56786   1.538   2.205   7.733 -0.2909 -0.8229 -0.1890
17752SOL    HW156787   1.633   2.217   7.732 -0.5411  1.9752 -0.0149
17752SOL    HW256788   1.515   2.200   7.825 -0.4828  1.2624 -0.0647
17753SOL     OW56789   3.070   1.002  10.247  0.4252  0.1479 -0.0075
17753SOL    HW156790   3.140   1.065  10.263  1.8933 -1.1484 -1.0564
17753SOL    HW256791   2.990   1.055  10.248  1.4443  1.7630  0.6283
17754SOL     OW56792   8.347   9.897   4.389 -0.4382  0.3419 -0.0627
17754SOL    HW156793   8.441   9.909   4.398 -0.5833  0.5934  1.3310
17754SOL    HW256794   8.333   9.884   4.295  0.9500  0.5116 -0.3093
17755SOL     OW56795   1.102   0.600   0.839 -1.1226  0.4611  0.4314
17755SOL    HW156796   1.079   0.676   0.893 -0.4765  0.7434  0.3234
17755SOL    HW256797   1.066   0.620   0.753  0.1737  1.2780  0.0455
17756SOL     OW56798   7.822  10.717  10.704  0.2738  0.1007 -0.0619
17756SOL    HW156799   7.844  10.659  10.777  0.9745  1.2343  0.6651
17756SOL    HW256800   7.817  10.658  10.628  1.7271 -0.8311  0.4972
17757SOL     OW56801   5.918   0.700   5.012 -0.6633  0.5527  0.9534
17757SOL    HW156802   5.864   0.621   5.016  0.6257 -0.5486 -1.4861
17757SOL    HW256803   6.006   0.670   5.034  0.3650  0.6185 -2.5177
17758SOL     OW56804   5.611   3.446   1.379  0.4314 -0.4314  0.2964
17758SOL    HW156805   5.552   3.398   1.438  1.7355 -2.7587 -0.1884
17758SOL    HW256806   5.630   3.527   1.426 -0.8947 -0.8911  1.7356
17759SOL     OW56807  10.799   3.240   6.822  0.0036  0.1585 -0.4116
17759SOL    HW156808  10.865   3.172   6.808  1.5233  1.3027  0.9410
17759SOL    HW256809  10.848   3.321   6.829 -1.7360  1.3797 -1.4266
17760SOL     OW56810   0.207   3.746   8.839  0.1422 -0.6480  0.3252
17760SOL    HW156811   0.296   3.764   8.868  1.3543  0.4493 -3.4776
17760SOL    HW256812   0.173   3.831   8.811 -1.4359 -1.3225  0.0581
17761SOL     OW56813   5.358   5.192   0.791  0.3593 -0.2216  0.3969
17761SOL    HW156814   5.285   5.242   0.755  0.9981  1.9536  1.9409
17761SOL    HW256815   5.436   5.233   0.754  0.8758 -1.8790 -0.4468
17762SOL     OW56816   6.621   9.927   8.425  0.3969  0.0330  0.1386
17762SOL    HW156817   6.653   9.848   8.381  2.7555  0.2464  1.3348
17762SOL    HW256818   6.607   9.901   8.516  0.4657  0.8041  0.3833
17763SOL     OW56819   5.752  10.976   9.989 -0.3497  0.2917 -0.5027
17763SOL    HW156820   5.750  11.023  10.073 -2.8959  1.8873 -1.3491
17763SOL    HW256821   5.830  11.011   9.944  1.8341 -1.5412  1.5645
17764SOL     OW56822   7.140   3.963   4.151 -0.6019  0.0896 -0.3071
17764SOL    HW156823   7.191   3.885   4.131  0.1838  0.3345  0.6915
17764SOL    HW256824   7.049   3.937   4.136 -0.2945 -0.7760 -0.7054
17765SOL     OW56825   9.094   2.168   3.954  0.4788  0.1387 -0.2936
17765SOL    HW156826   9.109   2.085   3.999  0.3217 -0.4718 -1.3534
17765SOL    HW256827   9.080   2.231   4.025  0.7587 -0.6999  0.5232
17766SOL     OW56828   9.980   5.682  10.041  0.2577  0.3425 -0.7904
17766SOL    HW156829  10.069   5.689  10.008  1.2452  1.0590  1.7923
17766SOL    HW256830   9.989   5.648  10.130 -2.1630 -0.7177 -0.8597
17767SOL     OW56831   4.860   3.613   5.460  0.0010 -0.2321  0.5227
17767SOL    HW156832   4.898   3.527   5.444  1.9211  0.4009  1.4610
17767SOL    HW256833   4.855   3.620   5.556  1.2484  1.2294  0.5285
17768SOL     OW56834   3.611   1.646   9.063 -0.1945  0.4249 -0.4714
17768SOL    HW156835   3.643   1.563   9.100 -1.3491  0.4967  0.7652
17768SOL    HW256836   3.526   1.659   9.105 -0.6649  1.5416 -1.7121
17769SOL     OW56837   3.742   6.279   6.974  0.1024 -0.6089  0.0185
17769SOL    HW156838   3.749   6.370   6.946  1.5748 -0.1699  1.6426
17769SOL    HW256839   3.763   6.228   6.896  0.9282  0.4841 -0.5063
17770SOL     OW56840   7.740   4.805   8.149 -0.4622 -0.6673  0.0314
17770SOL    HW156841   7.784   4.839   8.071  1.1119  1.2678  1.6779
17770SOL    HW256842   7.666   4.865   8.162  0.0550 -0.1785  0.7570
17771SOL     OW56843  11.108   1.827   4.575 -0.0184 -0.3843  0.4180
17771SOL    HW156844  11.076   1.754   4.627  2.1963 -1.5784  0.1945
17771SOL    HW256845  11.129   1.789   4.490 -1.1202  1.0337 -0.5406
17772SOL     OW56846   8.093   3.803   5.655  0.2448  0.3661 -0.3286
17772SOL    HW156847   8.064   3.714   5.633 -1.3148  0.4353  1.2252
17772SOL    HW256848   8.187   3.801   5.641  0.1187 -1.2426 -1.2523
17773SOL     OW56849  10.484  10.404   8.880  0.5216 -0.5021  0.1758
17773SOL    HW156850  10.397  10.366   8.870  0.0246  0.6222  0.0899
17773SOL    HW256851  10.517  10.414   8.791 -0.3387  1.4393  0.0221
17774SOL     OW56852   7.558   6.146   0.704  0.3578  0.2167 -0.1509
17774SOL    HW156853   7.638   6.143   0.757  0.4269  1.1633 -0.1732
17774SOL    HW256854   7.581   6.103   0.622  0.9032  0.6198 -0.2161
17775SOL     OW56855  10.048   8.510   7.478  0.0533 -0.2938 -0.3594
17775SOL    HW156856   9.970   8.564   7.484  1.4334  1.9703 -1.5740
17775SOL    HW256857  10.065   8.501   7.385  1.4200 -0.4574 -0.1173
17776SOL     OW56858   9.644   3.583   3.686 -0.3732  0.1351 -0.3102
17776SOL    HW156859   9.730   3.570   3.725 -1.4493  0.8943  2.5226
17776SOL    HW256860   9.594   3.505   3.712 -0.8770  0.2300 -0.9739
17777SOL     OW56861   7.730   7.045  10.955 -0.2079  0.1132 -0.5054
17777SOL    HW156862   7.770   6.958  10.956 -1.3307 -0.4768 -1.9808
17777SOL    HW256863   7.801   7.105  10.978  0.1448 -1.2948  2.4716
17778SOL     OW56864   9.592   9.777   8.996 -0.0705  0.3670  0.4436
17778SOL    HW156865   9.621   9.845   8.935  1.6097 -0.4353  0.3070
17778SOL    HW256866   9.594   9.819   9.082  2.6172  0.0900  0.5926
17779SOL     OW56867   4.735   4.979   5.365  0.3105  0.7878 -0.2304
17779SOL    HW156868   4.780   4.943   5.442  1.9099 -0.7964 -1.8120
17779SOL    HW256869   4.681   4.907   5.333 -2.5747  2.2915  0.9176
17780SOL     OW56870   1.115   5.039   8.524 -0.3754 -0.0438  0.2246
17780SOL    HW156871   1.119   5.070   8.615 -0.2504 -1.0673  0.5847
17780SOL    HW256872   1.206   5.028   8.499 -0.4107  0.2126 -0.0305
17781SOL     OW56873   5.883   9.751   3.650  0.2358  0.1053 -0.0989
17781SOL    HW156874   5.877   9.663   3.613 -0.5291 -0.1553  0.6223
17781SOL    HW256875   5.975   9.774   3.640  0.5465 -0.9681  0.1260
17782SOL     OW56876   0.057   7.877   4.873 -0.2181  0.1270  0.0992
17782SOL    HW156877   0.060   7.786   4.842  0.1036 -0.3934  1.5569
17782SOL    HW256878   0.010   7.924   4.805 -1.9831 -1.4754  0.1349
17783SOL     OW56879   7.926   3.887   2.629 -0.3102 -0.1420  0.7481
17783SOL    HW156880   7.841   3.873   2.587 -0.6208  0.0012  1.3188
17783SOL    HW256881   7.949   3.801   2.665 -0.4642 -0.0669  1.0367
17784SOL     OW56882   8.036   1.507   6.681  0.0054 -0.0119 -0.3652
17784SOL    HW156883   7.944   1.517   6.707 -0.2180 -0.9778 -0.7347
17784SOL    HW256884   8.033   1.478   6.590  0.5673 -2.2929  0.2762
17785SOL     OW56885  10.236   0.233   6.949 -0.3384  0.0064 -0.2326
17785SOL    HW156886  10.168   0.170   6.923  0.4448 -0.5427 -1.0020
17785SOL    HW256887  10.229   0.238   7.044 -1.6232  0.1535 -0.3153
17786SOL     OW56888   7.382   5.321   7.646  0.1526  0.1454  0.0629
17786SOL    HW156889   7.356   5.300   7.556  0.6535 -2.1365  0.3960
17786SOL    HW256890   7.472   5.354   7.638  0.0244  0.4083 -0.3113
17787SOL     OW56891   8.976   8.854   8.126 -0.3220 -0.4541  0.4825
17787SOL    HW156892   8.921   8.776   8.120 -0.7367 -0.1546  0.2431
17787SOL    HW256893   8.933   8.917   8.068  0.6439 -0.4160 -0.2191
17788SOL     OW56894   4.595   3.045   1.579  0.6611 -0.3322 -0.2778
17788SOL    HW156895   4.595   3.138   1.560 -0.8432 -0.5199 -1.4137
17788SOL    HW256896   4.639   3.005   1.504  1.3122 -0.5425  0.2094
17789SOL     OW56897  10.459   3.305   0.189  0.3785  0.1187 -0.0267
17789SOL    HW156898  10.425   3.240   0.249  3.0368 -1.2419  0.1689
17789SOL    HW256899  10.521   3.357   0.241 -0.8158  2.1036 -0.4672
17790SOL     OW56900   9.334  10.066   8.121  1.0051 -0.6164  0.7955
17790SOL    HW156901   9.329  10.143   8.065  0.4055  0.5850  2.4037
17790SOL    HW256902   9.308   9.993   8.065 -0.6558  0.6720 -0.1936
17791SOL     OW56903   4.151   3.656   2.459 -0.5741 -0.2734 -0.0199
17791SOL    HW156904   4.167   3.736   2.510 -0.0259  0.3845 -1.1875
17791SOL    HW256905   4.236   3.635   2.420 -0.0453 -2.8774  2.2004
17792SOL     OW56906  11.055   9.089   2.947  0.1007 -0.2973 -0.2672
17792SOL    HW156907  11.098   9.011   2.982 -0.3072 -0.7123 -0.6805
17792SOL    HW256908  11.057   9.078   2.852  1.0061  0.7205 -0.3925
17793SOL     OW56909   6.631   4.692   9.615 -0.4856  0.4027  0.3884
17793SOL    HW156910   6.546   4.656   9.590 -0.2738  0.1387  0.0415
17793SOL    HW256911   6.624   4.785   9.596 -0.6417  0.3549  0.2099
17794SOL     OW56912   0.216   4.032  10.300 -0.1010 -0.3817 -0.3775
17794SOL    HW156913   0.174   4.067  10.221  0.8955 -1.5927 -1.4898
17794SOL    HW256914   0.307   4.060  10.293  0.3476 -1.8173 -0.4722
17795SOL     OW56915   3.031   6.342   5.926  0.2005 -0.0170  0.4498
17795SOL    HW156916   3.050   6.256   5.889 -0.7242 -0.0758  0.1060
17795SOL    HW256917   2.937   6.354   5.913  0.4258  1.3332 -0.1318
17796SOL     OW56918   6.074   1.203   4.952 -1.0311 -0.0555  0.5595
17796SOL    HW156919   6.020   1.135   4.992 -0.1362 -0.9878  0.2262
17796SOL    HW256920   6.057   1.195   4.858 -0.9372  0.2040  0.5201
17797SOL     OW56921   4.419   6.337   1.321  0.5161 -0.3864 -0.4702
17797SOL    HW156922   4.491   6.388   1.284  1.9451 -1.7667  0.2955
17797SOL    HW256923   4.449   6.313   1.408 -2.5631  2.4359  1.6485
17798SOL     OW56924   1.462   1.139  10.592 -0.2700 -0.7106 -0.1596
17798SOL    HW156925   1.476   1.232  10.611 -1.2168 -0.1758 -1.8722
17798SOL    HW256926   1.446   1.100  10.678  0.9146  0.5444  0.6881
17799SOL     OW56927   4.039   8.850   3.284 -0.2725  0.2026  0.8562
17799SOL    HW156928   4.023   8.758   3.305  1.5274 -0.9502 -2.2690
17799SOL    HW256929   4.104   8.879   3.348 -0.1046 -1.0181  1.2541
17800SOL     OW56930   8.177   6.573   2.012 -0.0121 -0.1573 -0.1362
17800SOL    HW156931   8.186   6.521   1.932 -0.2023  0.5822 -0.6463
17800SOL    HW256932   8.266   6.576   2.048  0.0929 -0.4122 -0.3690
17801SOL     OW56933   6.774   1.966   0.324 -0.0692  0.4174  0.0607
17801SOL    HW156934   6.765   2.057   0.353  1.7485  0.2018  1.5443
17801SOL    HW256935   6.837   1.969   0.252  0.3993  0.3044  0.4572
17802SOL     OW56936   1.348   8.189   3.319 -0.6703  0.5735  0.4855
17802SOL    HW156937   1.305   8.169   3.402  1.5839 -2.5289  1.1052
17802SOL    HW256938   1.424   8.242   3.344 -1.1809  1.5066  0.0905
17803SOL     OW56939   2.140   5.705   9.446 -0.6676  0.2920  0.2318
17803SOL    HW156940   2.100   5.781   9.488  1.2092  1.4338  0.1022
17803SOL    HW256941   2.145   5.729   9.353  2.8258  1.5345  0.5875
17804SOL     OW56942   9.845   9.862   3.779  0.6765  0.2832  0.2014
17804SOL    HW156943   9.935   9.849   3.749  0.1502  0.4309 -1.5762
17804SOL    HW256944   9.836   9.957   3.788  0.5458  0.3020 -0.1286
17805SOL     OW56945   7.722   2.118   4.433 -0.3347 -0.3046 -0.1923
17805SOL    HW156946   7.785   2.178   4.393 -0.6979  0.2676  0.0699
17805SOL    HW256947   7.754   2.106   4.523 -0.5211 -0.1188 -0.0995
17806SOL     OW56948   7.347   6.716   7.926 -0.1828  0.1781  0.5209
17806SOL    HW156949   7.390   6.665   7.857  2.2696  1.1320  1.2429
17806SOL    HW256950   7.348   6.658   8.002  0.6337  0.4776  0.7535
17807SOL     OW56951   3.086   9.217  10.629  0.4437 -0.0249  0.0717
17807SOL    HW156952   3.156   9.268  10.670 -0.3834  0.2884  1.1505
17807SOL    HW256953   3.085   9.246  10.538  0.9019  0.8704  0.3435
17808SOL     OW56954   1.959   7.123   6.871  0.3118  0.1525 -0.0510
17808SOL    HW156955   1.900   7.158   6.938  1.6682  0.4460  1.0257
17808SOL    HW256956   2.045   7.156   6.894  0.8538  0.1552 -1.8958
17809SOL     OW56957   4.131   2.680   8.075  0.4213 -0.4016 -0.3010
17809SOL    HW156958   4.169   2.766   8.087  2.2639 -0.9423 -1.7659
17809SOL    HW256959   4.130   2.641   8.163 -0.0718  0.9405  0.3030
17810SOL     OW56960   9.374  10.007   0.858 -0.0527 -0.2000 -0.2710
17810SOL    HW156961   9.294  10.013   0.806  0.3859  2.0192 -0.7892
17810SOL    HW256962   9.344  10.013   0.948 -0.5198  0.1170 -0.4405
17811SOL     OW56963   4.319   3.621   6.308  0.0086 -0.2538 -0.1190
17811SOL    HW156964   4.359   3.669   6.380 -0.1556  0.6729 -0.6360
17811SOL    HW256965   4.256   3.682   6.270 -2.0581 -1.7063  0.7683
17812SOL     OW56966   0.504   4.808   0.550  0.3083 -0.4843 -0.0470
17812SOL    HW156967   0.432   4.867   0.527  1.0337  0.3902 -0.1334
17812SOL    HW256968   0.490   4.788   0.642  1.5112  2.0236  0.7726
17813SOL     OW56969   0.261   5.464   5.055 -0.2702 -0.2027  0.7764
17813SOL    HW156970   0.180   5.481   5.006 -1.1196 -0.6444  1.9857
17813SOL    HW256971   0.324   5.526   5.019 -1.3167  0.5845  0.2323
17814SOL     OW56972   5.915   1.511   6.084  0.0726  0.0565 -0.4943
17814SOL    HW156973   5.961   1.428   6.097  0.9888  0.6213 -0.0110
17814SOL    HW256974   5.822   1.489   6.095  0.2098 -1.1003 -1.4599
17815SOL     OW56975   3.797  10.328   3.116  0.3233  0.4757 -0.2420
17815SOL    HW156976   3.826  10.317   3.206  0.2668  1.6976 -0.0556
17815SOL    HW256977   3.852  10.400   3.082 -1.5017  1.9229 -0.2936
17816SOL     OW56978   9.576   5.974   0.991 -0.1265  0.0648 -0.0311
17816SOL    HW156979   9.621   5.950   0.910 -0.5190  1.8422 -0.8348
17816SOL    HW256980   9.486   5.992   0.964 -0.7342 -1.0991  1.1420
17817SOL     OW56981  10.330   1.893   9.430  0.4177  0.0835 -0.2445
17817SOL    HW156982  10.386   1.965   9.400 -0.3019  1.2037  0.9989
17817SOL    HW256983  10.355   1.879   9.521  0.5398 -1.2632 -0.4619
17818SOL     OW56984   4.800   4.214   4.078 -0.3929  0.4672  0.1227
17818SOL    HW156985   4.721   4.197   4.026 -0.6659 -1.0813  1.0033
17818SOL    HW256986   4.792   4.157   4.154  1.9067 -0.2655 -0.1064
17819SOL     OW56987   4.700  11.084   8.997  0.2729 -0.0107 -0.7353
17819SOL    HW156988   4.674  11.137   9.072  1.4489  0.9004 -0.9333
17819SOL    HW256989   4.632  11.017   8.990 -0.8149  0.9683  0.0327
17820SOL     OW56990  10.911   2.944   5.536 -0.0594 -0.2139  0.6968
17820SOL    HW156991  10.869   2.939   5.622  0.0332  0.6119  0.7964
17820SOL    HW256992  10.965   3.023   5.540 -1.6386  0.9987 -0.8311
17821SOL     OW56993   7.189   6.625   1.739 -0.6184  0.3188  0.4833
17821SOL    HW156994   7.275   6.585   1.729  0.2568  1.9400  1.2078
17821SOL    HW256995   7.174   6.672   1.657  0.0875  1.6414  1.0837
17822SOL     OW56996   2.656   5.711   5.802 -0.1025 -0.0065 -0.0909
17822SOL    HW156997   2.672   5.684   5.712 -0.2488 -0.2995 -0.0317
17822SOL    HW256998   2.561   5.720   5.807 -0.1225 -0.3060  0.1190
17823SOL     OW56999  10.669   1.897   0.106  0.5432  0.2899 -0.1434
17823SOL    HW157000  10.581   1.878   0.141  0.8092  0.1322  0.4466
17823SOL    HW257001  10.722   1.822   0.133  0.6100 -0.1387 -1.4231
17824SOL     OW57002  10.073   3.668   9.896 -0.1308 -0.4227  0.4601
17824SOL    HW157003  10.114   3.581   9.893  0.2099 -0.2377 -1.1930
17824SOL    HW257004  10.029   3.676   9.812  0.6002  1.3646  0.2043
17825SOL     OW57005   2.847   3.834  10.692  0.1402  0.0982 -0.1721
17825SOL    HW157006   2.914   3.861  10.754 -0.5440 -2.4204  1.8419
17825SOL    HW257007   2.895   3.802  10.616  1.1835 -0.5429  0.7400
17826SOL     OW57008   6.161   9.331   7.326  0.2268 -0.1404  0.1000
17826SOL    HW157009   6.244   9.284   7.318 -1.2246 -2.5646 -2.6610
17826SOL    HW257010   6.134   9.347   7.235 -2.5525  0.0699  0.8788
17827SOL     OW57011   1.613   2.939   4.020 -0.1083 -0.2771  0.0443
17827SOL    HW157012   1.621   2.895   4.104  1.0343 -0.0871  0.0415
17827SOL    HW257013   1.670   3.016   4.027  1.1499 -1.0245 -1.4011
17828SOL     OW57014   6.881   2.182   4.606 -0.6965 -0.0540  0.3172
17828SOL    HW157015   6.799   2.133   4.617 -1.5180  1.1574 -0.1544
17828SOL    HW257016   6.949   2.116   4.611 -1.7764 -1.2841 -0.6003
17829SOL     OW57017   7.382   5.948   4.748 -0.0983 -0.0026  0.2523
17829SOL    HW157018   7.311   6.010   4.764 -0.7312 -0.7445  0.3544
17829SOL    HW257019   7.352   5.895   4.674  0.5052 -0.0858  0.0643
17830SOL     OW57020   9.963   2.431   9.006 -0.2769 -0.2905  0.7314
17830SOL    HW157021   9.913   2.389   8.936  0.8437 -1.8307  0.8075
17830SOL    HW257022  10.032   2.369   9.027  1.2927  1.4738  1.0905
17831SOL     OW57023   2.151   4.579   9.405  0.0870 -0.7539  0.2293
17831SOL    HW157024   2.147   4.641   9.478  0.2755  0.4424 -0.7410
17831SOL    HW257025   2.177   4.632   9.330  0.8902 -2.1324 -0.5186
17832SOL     OW57026   1.109   7.804   2.022 -0.9424  0.2218  0.1162
17832SOL    HW157027   1.015   7.824   2.027 -0.3892  3.1302  1.4935
17832SOL    HW257028   1.142   7.826   2.110  0.9492 -1.3421 -0.1433
17833SOL     OW57029  10.873   1.961   1.302 -0.1169  0.2660  0.0014
17833SOL    HW157030  10.779   1.978   1.292 -0.1730 -0.6783 -1.4447
17833SOL    HW257031  10.879   1.892   1.367 -0.2673  1.5965  1.4933
17834SOL     OW57032   3.977   4.491  10.466 -0.3610 -0.1408 -0.4812
17834SOL    HW157033   4.015   4.532  10.388 -0.9209 -0.7524 -1.0856
17834SOL    HW257034   3.923   4.560  10.505  0.9233  0.5790  0.1047
17835SOL     OW57035   2.264   8.644   7.205  0.0325 -0.2558 -0.4009
17835SOL    HW157036   2.241   8.724   7.159 -0.5978 -0.5461 -0.6036
17835SOL    HW257037   2.190   8.585   7.189  1.5420 -1.7438 -2.2709
17836SOL     OW57038   4.249   9.316  10.925 -0.1385  0.2038 -0.0458
17836SOL    HW157039   4.214   9.375  10.992  1.8876  0.3011  0.9829
17836SOL    HW257040   4.245   9.367  10.844 -1.8064  0.3927  0.1251
17837SOL     OW57041   5.568   1.161   9.043  0.0600 -0.1702 -0.4985
17837SOL    HW157042   5.510   1.106   8.989 -0.3738  0.0531 -0.2647
17837SOL    HW257043   5.546   1.251   9.017 -0.2463 -0.0562  0.1460
17838SOL     OW57044   6.352  10.007   3.955  0.4782  0.2455 -0.7943
17838SOL    HW157045   6.371   9.913   3.959  0.0306  0.1820  0.2296
17838SOL    HW257046   6.257  10.012   3.958  0.5307  0.7676  0.7425
17839SOL     OW57047   1.025   2.588   1.288 -0.1886  0.3011  0.4649
17839SOL    HW157048   1.100   2.599   1.347 -0.6829 -0.5910  1.3026
17839SOL    HW257049   0.954   2.559   1.346 -1.4411  1.9607 -0.1631
17840SOL     OW57050   7.215   6.608  10.596  0.0409 -0.4702 -0.0952
17840SOL    HW157051   7.141   6.630  10.539  0.5965 -0.4561 -0.8358
17840SOL    HW257052   7.287   6.589  10.535  1.1840  1.3387  0.6055
17841SOL     OW57053   4.400   3.573   6.721  0.4925 -0.2600  0.0387
17841SOL    HW157054   4.382   3.612   6.635 -0.6358  2.3149  1.3091
17841SOL    HW257055   4.489   3.602   6.742  0.2455  0.3248  0.3060
17842SOL     OW57056   7.553   6.498   5.384  0.5837 -0.2059 -0.5408
17842SOL    HW157057   7.486   6.497   5.452 -1.2750 -0.2330 -2.2711
17842SOL    HW257058   7.566   6.591   5.365  1.7545 -0.1541  0.4195
17843SOL     OW57059   5.136   7.801   9.077 -0.3124 -0.2490 -0.4800
17843SOL    HW157060   5.141   7.818   9.171  1.0125  0.8379 -0.6947
17843SOL    HW257061   5.160   7.885   9.037 -1.6507 -0.4654 -1.8030
17844SOL     OW57062   8.847   0.633   8.951  0.0904 -0.4698 -0.1537
17844SOL    HW157063   8.932   0.651   8.911 -1.1878  0.9161 -2.5055
17844SOL    HW257064   8.803   0.576   8.888 -0.5954 -1.5538  1.2533
17845SOL     OW57065   3.834  10.720   0.827  0.7866  0.2231 -0.1129
17845SOL    HW157066   3.872  10.807   0.822  0.3648  0.4212  0.0621
17845SOL    HW257067   3.739  10.735   0.824  0.7086 -0.3081 -1.6085
17846SOL     OW57068   0.734   3.841   0.464  0.4278  0.3358 -1.1477
17846SOL    HW157069   0.681   3.764   0.483  0.0278  0.8308 -0.1546
17846SOL    HW257070   0.767   3.868   0.549 -0.0313  1.6772 -1.3711
17847SOL     OW57071   5.088   3.899   7.068  0.1052 -0.0950  0.3011
17847SOL    HW157072   5.157   3.859   7.122  0.4318  1.6882  1.2685
17847SOL    HW257073   5.120   3.986   7.047 -0.8330 -0.0875 -1.2899
17848SOL     OW57074   2.912   5.337   6.779 -0.2111 -0.3334 -0.0986
17848SOL    HW157075   2.835   5.293   6.744 -1.1259  0.2434  1.1110
17848SOL    HW257076   2.935   5.402   6.712 -2.2704  1.1417  0.5127
17849SOL     OW57077   4.543   8.710   1.043  0.3294 -0.4227  0.2242
17849SOL    HW157078   4.525   8.695   1.136 -1.2875  0.6384  0.1240
17849SOL    HW257079   4.505   8.634   1.000 -1.3708  0.3735  0.2546
17850SOL     OW57080   5.918   1.758   2.605  0.8665 -0.0093  0.0259
17850SOL    HW157081   5.877   1.804   2.679  1.0229 -1.5326  1.1027
17850SOL    HW257082   5.859   1.773   2.532  1.0414  2.1164  0.2375
17851SOL     OW57083   7.583   9.977   5.454  0.4419 -0.4283  0.2272
17851SOL    HW157084   7.547   9.946   5.371  0.7930  0.2026 -0.1703
17851SOL    HW257085   7.635   9.903   5.486  2.5522  0.2046 -1.4833
17852SOL     OW57086   4.920   4.061   5.882  0.4689  0.1963  0.2438
17852SOL    HW157087   4.892   4.018   5.801  1.3046 -1.6477  0.8667
17852SOL    HW257088   4.983   4.000   5.920  0.7547  1.4388  1.8555
17853SOL     OW57089  10.225   5.261   5.113 -0.2186  0.7386  0.2253
17853SOL    HW157090  10.261   5.258   5.201  0.8849  1.8289 -0.1710
17853SOL    HW257091  10.166   5.337   5.113  0.1191  1.0075 -0.0845
17854SOL     OW57092   2.009   9.211  10.235 -0.8149  0.1740  0.2045
17854SOL    HW157093   1.942   9.173  10.179 -0.5190  1.1425 -0.8333
17854SOL    HW257094   2.037   9.290  10.190  1.5691 -0.5743  0.1996
17855SOL     OW57095   5.678   5.893   9.573 -0.7609 -0.2731  0.0851
17855SOL    HW157096   5.762   5.889   9.526 -0.3699  0.0295  0.7387
17855SOL    HW257097   5.689   5.966   9.635 -1.5646 -0.1316  0.0732
17856SOL     OW57098   6.424   4.465   7.330 -0.0580  0.1121  0.2904
17856SOL    HW157099   6.471   4.418   7.261 -0.9567 -1.4744  0.7181
17856SOL    HW257100   6.353   4.509   7.284 -1.0736 -1.5047  0.2410
17857SOL     OW57101   4.428  10.592  10.606  0.3356 -0.3751 -0.6583
17857SOL    HW157102   4.507  10.595  10.553  1.5615 -0.5779  1.0730
17857SOL    HW257103   4.364  10.545  10.551  0.2847  2.5669 -3.3867
17858SOL     OW57104   8.973   1.052   2.875  0.2891 -0.2412  0.4392
17858SOL    HW157105   8.892   1.001   2.882  0.3039 -0.2179  0.8044
17858SOL    HW257106   8.969   1.113   2.948  1.1364 -0.9645  1.1158
17859SOL     OW57107   9.498   3.864  10.892 -0.3143 -0.6101  0.3749
17859SOL    HW157108   9.590   3.876  10.869 -0.6374  2.8751  0.4854
17859SOL    HW257109   9.499   3.846  10.986  0.2220  2.5473  1.0820
17860SOL     OW57110   9.464   3.853   5.626  0.3260  0.7791  0.4576
17860SOL    HW157111   9.373   3.838   5.650  0.4180  0.7379  0.7966
17860SOL    HW257112   9.486   3.937   5.666  0.1531  1.2674 -0.4559
17861SOL     OW57113   1.154   1.849   9.653 -0.0568  0.2311  0.0093
17861SOL    HW157114   1.166   1.910   9.726 -0.8739  1.4196 -0.8130
17861SOL    HW257115   1.158   1.762   9.693 -1.1315  0.8671  1.5755
17862SOL     OW57116   5.544   2.759   5.210  0.5220 -0.0611 -0.5839
17862SOL    HW157117   5.570   2.717   5.128  1.1249 -0.5759 -0.1386
17862SOL    HW257118   5.449   2.767   5.204  0.7494  2.1674 -2.3792
17863SOL     OW57119   0.984   0.290   4.520 -0.1590 -0.1506  0.9958
17863SOL    HW157120   0.896   0.267   4.550 -0.2881 -0.8563  0.1494
17863SOL    HW257121   1.027   0.329   4.596 -1.1110 -0.0510  1.4957
17864SOL     OW57122   8.140   8.850   2.583  0.2097 -0.3298  0.1077
17864SOL    HW157123   8.114   8.896   2.504 -2.4493  0.7979  1.5087
17864SOL    HW257124   8.093   8.767   2.579 -0.1430 -0.1592  0.6124
17865SOL     OW57125   1.836   8.699   3.440  0.1773  0.4457 -0.0257
17865SOL    HW157126   1.766   8.743   3.393 -1.8194 -1.3019  1.1173
17865SOL    HW257127   1.882   8.647   3.373 -1.8933 -1.1157 -0.3270
17866SOL     OW57128   6.701   5.668   2.436  0.1679 -0.1747  0.0797
17866SOL    HW157129   6.641   5.624   2.376  1.5417 -1.6345 -0.2740
17866SOL    HW257130   6.768   5.706   2.379  0.4007  0.1643  0.5748
17867SOL     OW57131   2.323   9.204  10.895  0.1609  0.1105 -0.1202
17867SOL    HW157132   2.412   9.196  10.863  0.0975 -1.5377  0.0458
17867SOL    HW257133   2.320   9.289  10.940  1.6547  0.1328 -0.0444
17868SOL     OW57134  10.041   4.376   7.777 -0.1161  0.7989 -0.2149
17868SOL    HW157135   9.985   4.300   7.794 -0.2775  0.7728 -0.8352
17868SOL    HW257136  10.114   4.366   7.838  0.5781 -0.6019 -1.2210
17869SOL     OW57137   3.380   8.922   6.592  0.1217 -0.3346  0.4236
17869SOL    HW157138   3.368   8.981   6.517 -0.3176 -1.2848 -0.2684
17869SOL    HW257139   3.352   8.836   6.560  1.4934 -1.0867  1.1830
17870SOL     OW57140   4.963   9.476   6.286  0.1570 -0.5163  0.0429
17870SOL    HW157141   4.894   9.535   6.316  1.0301 -0.1003  1.3123
17870SOL    HW257142   4.949   9.469   6.192 -0.3333  1.2450 -0.0502
17871SOL     OW57143   0.771  10.818   2.859  0.3555 -0.1473  0.2403
17871SOL    HW157144   0.719  10.895   2.883 -0.4453 -0.5750 -0.0762
17871SOL    HW257145   0.829  10.850   2.789 -1.1375 -0.1912 -1.0867
17872SOL     OW57146   8.860   9.457   3.413  0.4655 -0.0584 -0.1689
17872SOL    HW157147   8.806   9.428   3.339 -1.2515  0.3087  0.8831
17872SOL    HW257148   8.877   9.549   3.395  1.6294 -0.4119 -0.9952
17873SOL     OW57149  10.595   3.677  10.465  0.3530  0.4472 -0.1408
17873SOL    HW157150  10.503   3.688  10.442 -0.6950 -2.0544  2.2976
17873SOL    HW257151  10.618   3.756  10.514 -0.2073  1.4274 -1.4086
17874SOL     OW57152   2.461   1.299  10.688 -0.3097  0.0579  0.0917
17874SOL    HW157153   2.527   1.230  10.685  0.2504  0.6057 -0.5959
17874SOL    HW257154   2.378   1.254  10.668  0.1062 -0.3483 -0.7589
17875SOL     OW57155   3.150   8.464   2.508  0.2153  0.2110 -0.3677
17875SOL    HW157156   3.196   8.391   2.467 -1.8463 -0.3973 -1.7621
17875SOL    HW257157   3.078   8.423   2.556 -0.1874  1.2335 -0.0689
17876SOL     OW57158   7.772  10.778   5.317 -0.4721 -0.2165 -0.5178
17876SOL    HW157159   7.846  10.771   5.377 -0.3434 -0.4604 -0.7018
17876SOL    HW257160   7.703  10.820   5.368 -0.2406 -0.0816 -0.3153
17877SOL     OW57161   0.136   0.621   7.482 -0.1098  0.3042  0.1120
17877SOL    HW157162   0.139   0.539   7.433 -3.7622 -0.3443  0.6734
17877SOL    HW257163   0.187   0.604   7.561 -0.0195 -1.1211 -0.2229
17878SOL     OW57164   3.915   3.715   6.707  0.5056  0.6591 -0.5999
17878SOL    HW157165   3.939   3.707   6.615  3.5860  1.7485 -0.0135
17878SOL    HW257166   3.954   3.639   6.749  1.1888  1.3968  0.1282
17879SOL     OW57167   0.131   4.017   5.947  0.5422  0.1398 -0.2800
17879SOL    HW157168   0.157   3.930   5.977  0.1520 -0.1939 -0.8708
17879SOL    HW257169   0.036   4.013   5.942  0.6064 -0.1872 -2.5139
17880SOL     OW57170   9.586   4.010   4.972  0.7489 -1.0456  0.2263
17880SOL    HW157171   9.582   4.025   5.066  0.7041 -0.4182  0.1303
17880SOL    HW257172   9.673   4.042   4.946  0.5226 -0.6320 -0.0366
17881SOL     OW57173   8.926   2.268   6.912 -0.0449  0.4954  0.4350
17881SOL    HW157174   8.917   2.261   7.007  0.3753  0.5660  0.4809
17881SOL    HW257175   8.942   2.179   6.882  2.4418  0.7947  0.7156
17882SOL     OW57176   3.999   2.222   2.795 -0.2505  0.3320  0.5133
17882SOL    HW157177   4.018   2.155   2.730  0.1578 -0.5302  1.4941
17882SOL    HW257178   4.034   2.303   2.758  0.2746 -0.2078 -0.1845
17883SOL     OW57179   3.761   8.944   4.329  0.4359 -0.2026  0.4227
17883SOL    HW157180   3.716   8.875   4.376  2.0378  0.0815  2.5308
17883SOL    HW257181   3.851   8.940   4.361  1.0682  1.5227 -0.9571
17884SOL     OW57182   1.295  10.449  10.946  0.1871 -0.1383  0.8453
17884SOL    HW157183   1.310  10.539  10.916  0.0060 -0.3308  0.1733
17884SOL    HW257184   1.203  10.448  10.973 -0.1638 -0.4403 -0.3116
17885SOL     OW57185   1.319   9.060   8.196 -0.8039 -0.5642 -0.5275
17885SOL    HW157186   1.366   8.987   8.154  2.1044  0.6426  0.3630
17885SOL    HW257187   1.326   9.132   8.134  0.1766  0.1428  0.3671
17886SOL     OW57188   2.303  11.069   7.963  0.1018  0.7435 -0.0740
17886SOL    HW157189   2.218  11.098   7.994  0.3757  0.4873  0.9609
17886SOL    HW257190   2.284  11.008   7.892 -0.5684  0.8144  0.0448
17887SOL     OW57191   1.390   4.739   3.824  0.0211  0.3342 -0.1778
17887SOL    HW157192   1.371   4.681   3.898  1.1641  1.0384  0.7039
17887SOL    HW257193   1.337   4.817   3.839  0.5207  0.6246  0.0971
17888SOL     OW57194   5.155   9.746   4.132  0.0822 -0.5140  0.3452
17888SOL    HW157195   5.184   9.692   4.058  2.6660  2.4756 -1.0325
17888SOL    HW257196   5.065   9.771   4.108  0.9938  0.7280 -2.1142
17889SOL     OW57197   3.840   8.473   8.806 -0.2131 -0.0341  0.6486
17889SOL    HW157198   3.839   8.551   8.752  1.7987 -1.5502 -1.8227
17889SOL    HW257199   3.778   8.413   8.765  0.9656 -1.0257  0.2263
17890SOL     OW57200   4.537   4.030   0.256 -0.2780 -0.4233 -0.6372
17890SOL    HW157201   4.557   4.116   0.220  1.5096  0.4993  2.2356
17890SOL    HW257202   4.620   3.984   0.256 -0.8790 -1.5362 -0.5574
17891SOL     OW57203   8.483   9.896   1.488 -0.2805  0.2527 -0.2790
17891SOL    HW157204   8.577   9.882   1.483 -0.3080  0.2458 -0.8141
17891SOL    HW257205   8.460   9.941   1.406 -0.7593  0.1441 -0.2108
17892SOL     OW57206  10.817   3.836   2.316 -0.2851 -0.1490  0.2333
17892SOL    HW157207  10.882   3.766   2.313  1.2962  1.2808 -0.9686
17892SOL    HW257208  10.864   3.912   2.351 -1.6404  0.6182  0.4830
17893SOL     OW57209   1.069   1.645  10.917 -0.4744  0.0755 -0.3246
17893SOL    HW157210   1.082   1.572  10.857  0.5665 -0.2269  0.2307
17893SOL    HW257211   1.150   1.696  10.910  0.8278 -1.3241  2.5754
17894SOL     OW57212   3.776   8.058  10.380 -0.1620 -0.1669  0.3056
17894SOL    HW157213   3.756   8.054  10.287 -0.2377 -0.8828  0.3483
17894SOL    HW257214   3.722   8.129  10.413 -0.6921 -0.3921 -0.0605
17895SOL     OW57215   7.267   0.029   5.501 -0.1015 -0.3388 -0.7984
17895SOL    HW157216   7.350   0.052   5.459  0.2305  1.1981  0.5917
17895SOL    HW257217   7.205   0.095   5.470 -0.0773  0.2543  0.3729
17896SOL     OW57218   1.945  10.922   7.860  0.2584  0.2938  0.0454
17896SOL    HW157219   1.908  10.834   7.871  0.1142  0.4114  0.5223
17896SOL    HW257220   1.873  10.974   7.825  0.6106  0.0108 -1.1654
17897SOL     OW57221   3.554  10.603   1.371  0.5668 -0.4498 -0.1367
17897SOL    HW157222   3.543  10.508   1.369  0.2102 -0.4318 -2.5695
17897SOL    HW257223   3.465  10.637   1.385  0.6716 -0.4794  0.5879
17898SOL     OW57224   5.754   8.877   7.338  0.3746 -0.2592  0.3287
17898SOL    HW157225   5.831   8.886   7.395 -0.0712 -2.0216  1.3072
17898SOL    HW257226   5.784   8.903   7.252  1.5866  0.7328  1.0230
17899SOL     OW57227   7.508   0.811  11.021  0.0328 -0.3576  0.0128
17899SOL    HW157228   7.569   0.769  11.081  0.1519  1.2937  1.0959
17899SOL    HW257229   7.426   0.763  11.032  0.7829 -1.8408 -0.5969
17900SOL     OW57230   2.644   2.317   7.489 -0.2173  0.5379  0.1451
17900SOL    HW157231   2.584   2.249   7.458  1.2860 -0.8299  0.1380
17900SOL    HW257232   2.603   2.350   7.568 -2.7469  2.1691 -1.6759
17901SOL     OW57233   0.926   1.791   3.253  0.0107  0.3383 -0.2336
17901SOL    HW157234   0.830   1.790   3.252 -0.0297  1.8044 -1.0356
17901SOL    HW257235   0.950   1.755   3.168  0.1564  0.4094 -0.2216
17902SOL     OW57236   1.013  11.085   4.985 -0.1869  0.1292  0.0332
17902SOL    HW157237   0.965  11.070   4.904 -0.4831  2.0145 -0.2059
17902SOL    HW257238   1.094  11.127   4.958 -0.1193  0.4276  0.6686
17903SOL     OW57239   4.577   2.470   1.869 -0.7884 -0.1805  0.6033
17903SOL    HW157240   4.559   2.378   1.886  0.2031 -0.9938 -2.1789
17903SOL    HW257241   4.671   2.478   1.885 -0.4338 -0.2495 -1.3077
17904SOL     OW57242   5.304   4.930  10.779 -0.2267 -0.3081  0.1984
17904SOL    HW157243   5.376   4.947  10.840 -0.6857 -2.5870  1.4931
17904SOL    HW257244   5.347   4.904  10.698  0.4340 -0.9763  0.7461
17905SOL     OW57245  10.740   4.477   9.896  0.3399 -0.4687  0.2709
17905SOL    HW157246  10.716   4.481   9.803 -0.0924  0.3413  0.4157
17905SOL    HW257247  10.832   4.451   9.895  0.2347 -0.8556 -0.3719
17906SOL     OW57248   3.556   6.574   4.290  0.2313  0.8012 -0.0857
17906SOL    HW157249   3.615   6.568   4.365  0.9313  0.8724 -0.6112
17906SOL    HW257250   3.468   6.576   4.327  0.4425 -1.4562  0.6277
17907SOL     OW57251   6.116   4.664   6.721 -0.4040 -0.2156 -0.5533
17907SOL    HW157252   6.110   4.590   6.782 -2.3130  0.1486 -0.2466
17907SOL    HW257253   6.208   4.690   6.724 -0.2228 -0.9403  1.2973
17908SOL     OW57254  10.875  10.732  11.061 -0.0726  0.0847 -0.0941
17908SOL    HW157255  10.862  10.718  11.154 -0.0009 -0.4312 -0.1609
17908SOL    HW257256  10.968  10.751  11.051  0.6290 -2.9978 -0.4138
17909SOL     OW57257   0.038   4.809   6.201 -0.1885  0.4313 -0.1442
17909SOL    HW157258   0.014   4.717   6.204 -0.1730  0.4242 -0.2556
17909SOL    HW257259   0.026   4.835   6.110 -0.5020  0.6236 -0.0487
17910SOL     OW57260   4.996   2.414   2.616  0.0247  1.0538 -0.7158
17910SOL    HW157261   4.972   2.499   2.653  2.2235  0.3373  2.7981
17910SOL    HW257262   5.089   2.421   2.598  0.0148 -0.3016 -1.3915
17911SOL     OW57263   6.364   0.647   4.257  0.0067 -0.6464  0.1012
17911SOL    HW157264   6.418   0.724   4.240 -1.0034  0.2990  1.0801
17911SOL    HW257265   6.344   0.613   4.170 -0.1236  0.6151 -0.3847
17912SOL     OW57266   0.320   7.433   0.073 -0.1174 -0.6293  0.1631
17912SOL    HW157267   0.264   7.460   0.000  0.5239 -1.4333 -0.6489
17912SOL    HW257268   0.289   7.485   0.148 -0.7523  0.2462 -0.6846
17913SOL     OW57269   0.262  10.477   5.458  0.6371 -0.0839 -0.1664
17913SOL    HW157270   0.317  10.462   5.535  1.6424  0.3118 -0.7865
17913SOL    HW257271   0.271  10.397   5.406  0.8771  0.1034 -0.4152
17914SOL     OW57272   9.169   5.860   1.686  0.6041  0.1030 -0.5576
17914SOL    HW157273   9.104   5.837   1.753  1.3315 -0.6189 -0.0960
17914SOL    HW257274   9.117   5.870   1.606 -0.2945  1.0839  0.1134
17915SOL     OW57275   9.001   4.880   3.986 -0.1723  0.0353  0.5127
17915SOL    HW157276   8.963   4.939   4.051  1.3411 -0.5349  1.9705
17915SOL    HW257277   8.943   4.804   3.985 -0.0439 -0.0811  1.4310
17916SOL     OW57278   0.559   3.521   9.905 -0.0060 -0.2250  0.1494
17916SOL    HW157279   0.501   3.460   9.950 -0.3232  0.5030  0.7348
17916SOL    HW257280   0.643   3.511   9.948  0.2611 -1.0905 -0.5287
17917SOL     OW57281   7.670   1.307   7.279 -0.2094  0.0251 -0.2188
17917SOL    HW157282   7.625   1.236   7.325  0.6960  0.0624  0.7699
17917SOL    HW257283   7.679   1.276   7.189  0.5630 -1.3191  0.2849
17918SOL     OW57284   6.001   9.999   9.777 -0.1213 -0.5091  0.0922
17918SOL    HW157285   5.959   9.994   9.691 -1.3558 -0.0417  0.6348
17918SOL    HW257286   6.067  10.068   9.769  1.3504 -1.9913 -1.0886
17919SOL     OW57287   5.379   7.197   0.563 -0.2657  0.3395  1.0233
17919SOL    HW157288   5.298   7.234   0.528 -0.0160 -1.2017 -1.4415
17919SOL    HW257289   5.358   7.177   0.655 -2.9244 -0.5661  0.3117
17920SOL     OW57290  11.080   5.008   3.648 -0.1040  0.4765 -0.0360
17920SOL    HW157291  11.119   4.982   3.731  1.0672  2.3131  0.0393
17920SOL    HW257292  11.070   4.926   3.599  4.3255 -0.1754 -0.2497
17921SOL     OW57293  10.812   3.386   6.483  0.1391 -0.4179  0.3966
17921SOL    HW157294  10.869   3.462   6.474 -0.5300  0.1908  1.0783
17921SOL    HW257295  10.724   3.422   6.472 -0.1393 -1.2528 -0.1396
17922SOL     OW57296   6.054   7.696  10.730 -0.6308  0.2887  0.0161
17922SOL    HW157297   6.111   7.620  10.719 -0.4913  0.4434 -0.3504
17922SOL    HW257298   5.976   7.676  10.678 -0.6247  0.3613 -0.0223
17923SOL     OW57299   9.860   0.958  10.853  0.1284  0.3371 -0.4420
17923SOL    HW157300   9.817   1.037  10.820 -1.0611  0.4978  1.3220
17923SOL    HW257301   9.815   0.886  10.810 -3.8199  0.3628  2.9791
17924SOL     OW57302  10.580   7.879   9.554 -0.5363  0.1495 -0.1270
17924SOL    HW157303  10.650   7.943   9.560  1.5946 -2.0138 -0.2371
17924SOL    HW257304  10.580   7.835   9.639 -2.8149  1.0233  0.4173
17925SOL     OW57305   6.306   4.998   7.942 -0.5097  0.2393 -0.1010
17925SOL    HW157306   6.253   5.015   7.864 -1.0520  1.4719  0.5274
17925SOL    HW257307   6.346   5.082   7.964  0.7107 -0.3811  0.1979
17926SOL     OW57308   5.902   4.732   3.708 -0.7999 -0.5875  0.3536
17926SOL    HW157309   5.969   4.664   3.709 -1.1375 -0.9230  0.4766
17926SOL    HW257310   5.907   4.770   3.621 -0.1549 -0.3129  0.5056
17927SOL     OW57311   7.080  10.931   9.074  0.1462 -0.9964  0.1728
17927SOL    HW157312   7.049  10.974   9.154 -0.3127  0.8762 -0.9637
17927SOL    HW257313   7.166  10.896   9.098  0.0628 -0.3863  1.4577
17928SOL     OW57314   3.016   7.966   6.734 -0.2288 -0.7374  0.2854
17928SOL    HW157315   3.044   7.950   6.824  0.2837  1.6950  0.6398
17928SOL    HW257316   2.947   8.032   6.743  0.1203 -0.1574 -1.1089
17929SOL     OW57317   7.910   9.326   3.280 -0.0463  0.3232 -0.9535
17929SOL    HW157318   7.959   9.402   3.311 -1.4495  1.5071 -1.5069
17929SOL    HW257319   7.958   9.250   3.313  2.1008  1.4073 -1.4394
17930SOL     OW57320   7.513   9.941   6.719 -0.2076  0.1478 -0.3656
17930SOL    HW157321   7.518  10.008   6.786  0.1342  0.1214 -0.3596
17930SOL    HW257322   7.458   9.979   6.651 -1.7308 -0.3672  0.5352
17931SOL     OW57323   8.615  10.034   1.287 -0.0317 -0.3590 -0.6719
17931SOL    HW157324   8.663  10.070   1.362 -0.0341 -0.3364 -0.6810
17931SOL    HW257325   8.680   9.980   1.241  0.0672 -0.0855 -0.8529
17932SOL     OW57326  10.537   1.009  10.831 -0.0242 -0.6407 -0.0962
17932SOL    HW157327  10.474   1.058  10.778 -0.0215 -0.6019 -0.0625
17932SOL    HW257328  10.483   0.957  10.891 -0.0114 -0.0211  0.4634
17933SOL     OW57329  10.474   0.566   8.077  0.2538 -0.1735 -0.1726
17933SOL    HW157330  10.554   0.618   8.067  0.5382 -0.8987 -2.0450
17933SOL    HW257331  10.476   0.504   8.004 -1.8655 -0.4275 -0.0882
17934SOL     OW57332   9.497  10.275   1.524 -0.3281 -0.3004  0.0428
17934SOL    HW157333   9.459  10.188   1.509 -1.6922  0.3597 -0.4377
17934SOL    HW257334   9.428  10.336   1.499  0.7423  0.9361  0.0378
17935SOL     OW57335   8.790  10.807   5.766  0.5235  0.2068  0.2044
17935SOL    HW157336   8.863  10.782   5.710  0.4070  1.5449 -0.5706
17935SOL    HW257337   8.828  10.864   5.833  0.0944  1.6235 -0.7123
17936SOL     OW57338   5.240   9.129   2.687 -0.3309 -0.7898 -0.6151
17936SOL    HW157339   5.249   9.224   2.675 -0.3531 -0.6487  0.4088
17936SOL    HW257340   5.309   9.091   2.634 -0.0515 -0.1760 -0.6974
17937SOL     OW57341   2.856   0.052   0.444  0.6719  0.4426  0.5732
17937SOL    HW157342   2.926   0.080   0.386  0.5082 -0.7641 -0.2447
17937SOL    HW257343   2.798   0.000   0.389 -1.0227  1.6392  1.1812
17938SOL     OW57344   1.222   6.712   9.306  0.3796 -0.1085 -0.3535
17938SOL    HW157345   1.257   6.623   9.296 -2.0807 -0.9726 -2.9011
17938SOL    HW257346   1.131   6.698   9.333 -0.5728  1.4565 -2.4663
17939SOL     OW57347   8.194   8.947   1.076 -0.1544  0.3047 -0.1239
17939SOL    HW157348   8.157   9.029   1.110  0.7091  0.8159 -0.3710
17939SOL    HW257349   8.143   8.930   0.996  1.9397  2.6336 -2.1666
17940SOL     OW57350   6.400   6.396   5.862 -0.1709  0.0606  0.5806
17940SOL    HW157351   6.488   6.374   5.894  0.1898 -0.6857 -0.8557
17940SOL    HW257352   6.343   6.332   5.904  0.4459 -1.6300 -1.0329
17941SOL     OW57353  10.701   6.875   0.234  0.1272 -0.4052  0.2146
17941SOL    HW157354  10.737   6.918   0.157  0.8657  1.2065  1.3930
17941SOL    HW257355  10.690   6.784   0.208  3.1540 -0.5639 -0.8985
17942SOL     OW57356   5.362   6.551   8.180 -0.6296  0.1417 -0.5763
17942SOL    HW157357   5.337   6.548   8.087 -0.6424  0.8904 -0.5986
17942SOL    HW257358   5.356   6.460   8.209 -0.2085 -0.1654 -1.4227
17943SOL     OW57359   0.973   8.157   6.853 -0.2517  0.0396 -0.5737
17943SOL    HW157360   0.916   8.161   6.776  0.3572  3.0406 -0.9839
17943SOL    HW257361   0.919   8.192   6.924 -0.7742 -2.6068  0.4607
17944SOL     OW57362   5.835   1.740   9.788 -0.1601 -0.4348 -0.1979
17944SOL    HW157363   5.861   1.653   9.757 -0.3464 -0.2465 -0.9059
17944SOL    HW257364   5.819   1.790   9.708 -2.3459 -0.4365  0.1795
17945SOL     OW57365   8.896   6.969   7.109 -0.3162  0.1923 -0.1971
17945SOL    HW157366   8.897   7.065   7.117  0.2096  0.1409  0.4832
17945SOL    HW257367   8.988   6.944   7.117 -0.5785 -0.4590  0.9376
17946SOL     OW57368   7.374   1.324   7.852 -0.3989  0.3379 -0.0689
17946SOL    HW157369   7.437   1.355   7.917  0.3962  0.0289 -0.6726
17946SOL    HW257370   7.411   1.242   7.820 -1.8558 -0.6421  0.6233
17947SOL     OW57371   1.606   4.305   3.737  0.4429 -0.7905 -0.2875
17947SOL    HW157372   1.622   4.342   3.650  0.2568  0.3502  0.1470
17947SOL    HW257373   1.530   4.248   3.726  0.4876 -0.7397 -0.8879
17948SOL     OW57374   9.731   0.263   1.812 -0.0950 -0.3000 -0.5628
17948SOL    HW157375   9.822   0.247   1.789  0.4381  1.0161  0.4913
17948SOL    HW257376   9.713   0.200   1.882  0.6912  0.8239  0.6930
17949SOL     OW57377  10.222   5.904  11.055 -0.2173 -0.1578 -0.0593
17949SOL    HW157378  10.281   5.949  10.995 -0.6697 -0.1896 -0.5329
17949SOL    HW257379  10.264   5.913  11.141  1.7388 -2.3071 -0.7017
17950SOL     OW57380   5.487   7.907   9.787 -0.4987  0.1094 -0.2224
17950SOL    HW157381   5.492   7.816   9.758 -2.1507  0.4025 -1.6340
17950SOL    HW257382   5.471   7.902   9.881  0.6458 -1.0060 -0.0683
17951SOL     OW57383   7.354  10.605   5.390  0.2533  0.2926  0.2306
17951SOL    HW157384   7.340  10.675   5.326 -1.7925  0.1094  0.4153
17951SOL    HW257385   7.286  10.541   5.370  0.7110 -0.6072  1.4736
17952SOL     OW57386   4.100   6.083   0.435  0.0807  0.4221 -0.1447
17952SOL    HW157387   4.023   6.123   0.392 -0.9595 -0.5755  0.7202
17952SOL    HW257388   4.064   6.043   0.515  1.3528 -0.8647 -0.1901
17953SOL     OW57389   2.317   1.360   6.471  0.6139  0.2988 -0.2081
17953SOL    HW157390   2.326   1.454   6.488 -4.2053  0.7054  1.6390
17953SOL    HW257391   2.306   1.320   6.557 -0.0891 -1.5251 -1.0786
17954SOL     OW57392   7.312   9.038  11.054 -0.4848 -0.2161 -0.0617
17954SOL    HW157393   7.366   9.029  10.975 -0.5371  0.5346 -0.1933
17954SOL    HW257394   7.223   9.021  11.025 -0.4515 -0.3841 -0.0683
17955SOL     OW57395   2.723  10.858   8.203 -0.6304 -0.2424  0.7633
17955SOL    HW157396   2.798  10.857   8.143 -0.7751  1.9406  0.4846
17955SOL    HW257397   2.649  10.829   8.149 -1.0871  3.2625 -0.7055
17956SOL     OW57398   0.166  10.333   4.474  0.3360 -0.1074  0.0500
17956SOL    HW157399   0.247  10.327   4.524 -1.1418 -2.5160  2.3957
17956SOL    HW257400   0.154  10.246   4.435 -0.7419  0.4383 -0.9172
17957SOL     OW57401   8.548   4.038   3.212 -0.0499  0.0931  0.1679
17957SOL    HW157402   8.546   3.972   3.281 -0.5007  1.7283  1.8034
17957SOL    HW257403   8.640   4.066   3.208 -0.1955  0.7058  0.8509
17958SOL     OW57404   1.562   1.637   2.914 -0.1199 -0.0197  0.0219
17958SOL    HW157405   1.615   1.570   2.956  0.9058  1.3049  0.9110
17958SOL    HW257406   1.605   1.652   2.830  0.2185  0.2122  0.2367
17959SOL     OW57407   2.913   8.807   8.656 -0.5650  0.2290 -0.3125
17959SOL    HW157408   2.992   8.794   8.604 -0.0662  0.0431  0.4714
17959SOL    HW257409   2.848   8.749   8.617 -0.4325  0.6496 -1.1912
17960SOL     OW57410   8.609   3.290   3.770 -0.1895 -0.0498  0.3070
17960SOL    HW157411   8.646   3.210   3.734  0.3662  0.0095  0.7395
17960SOL    HW257412   8.682   3.352   3.770 -0.4884  0.3029  0.4445
17961SOL     OW57413   6.789  10.887   3.918  0.5728 -0.0520  0.1103
17961SOL    HW157414   6.827  10.888   3.830  2.7460 -0.9576  0.9812
17961SOL    HW257415   6.827  10.963   3.962 -1.2959  1.0052  0.0169
17962SOL     OW57416   7.876   2.380   8.133  0.1096  0.0712  0.2440
17962SOL    HW157417   7.811   2.328   8.086 -0.9518 -0.1635  1.8714
17962SOL    HW257418   7.947   2.318   8.152 -0.4665 -0.4176  0.8538
17963SOL     OW57419  10.545  10.621   9.333  0.1513 -0.2351 -0.0813
17963SOL    HW157420  10.528  10.620   9.239  0.7727  1.4569 -0.2455
17963SOL    HW257421  10.472  10.571   9.371 -0.9914  0.4109 -1.3419
17964SOL     OW57422   3.155   9.126   9.130 -0.1825  0.2048 -0.1160
17964SOL    HW157423   3.097   9.051   9.120 -0.8785  0.8561 -1.1811
17964SOL    HW257424   3.096   9.200   9.146  0.4113  0.7132 -0.2326
17965SOL     OW57425   2.377   6.530   9.171  0.2966 -0.0278  0.5560
17965SOL    HW157426   2.343   6.615   9.198 -0.5709 -0.8816  2.3181
17965SOL    HW257427   2.299   6.478   9.151  0.6843 -1.0712  1.6496
17966SOL     OW57428   8.804   2.964   6.612  0.5636 -0.0978 -0.2593
17966SOL    HW157429   8.732   2.902   6.597 -1.3480  1.9135  0.2059
17966SOL    HW257430   8.821   2.959   6.706 -1.7344  2.2104  0.3681
17967SOL     OW57431   5.554   9.054   3.824 -0.3008 -0.3988  0.1114
17967SOL    HW157432   5.485   9.117   3.805 -0.6609 -0.7074  0.3716
17967SOL    HW257433   5.620   9.104   3.871  0.6591  0.4102 -1.9599
17968SOL     OW57434   2.935   7.986   9.248  0.3914  0.0732 -0.7269
17968SOL    HW157435   2.935   7.945   9.334  0.0359  1.3253 -0.0963
17968SOL    HW257436   3.018   8.034   9.245 -0.0216  0.8039 -0.6794
17969SOL     OW57437   3.282   3.370  10.266  0.2001  0.2340  0.3538
17969SOL    HW157438   3.368   3.339  10.239 -0.5012 -0.0369 -1.7140
17969SOL    HW257439   3.221   3.304  10.231 -1.2452  3.0421 -2.9625
17970SOL     OW57440   9.956   5.406   1.807 -0.1983  0.0785  0.1005
17970SOL    HW157441   9.979   5.493   1.839  0.3942  0.1590 -0.5269
17970SOL    HW257442  10.026   5.384   1.746 -0.2630 -0.9014  0.3654
17971SOL     OW57443   5.727   5.046   5.961 -0.0338  0.6895 -0.7855
17971SOL    HW157444   5.808   4.995   5.959 -1.8237 -2.5313  1.2294
17971SOL    HW257445   5.675   5.012   5.888 -0.6137  0.7825 -0.4233
17972SOL     OW57446   5.425   2.506  10.607  0.1599 -0.1990  0.0205
17972SOL    HW157447   5.449   2.598  10.614  0.4353 -0.2791  0.1395
17972SOL    HW257448   5.344   2.497  10.657 -0.0748  0.0543 -0.3079
17973SOL     OW57449   3.337   2.343   8.138 -0.0541  0.3430 -0.6458
17973SOL    HW157450   3.362   2.265   8.186  1.0527  0.1734 -1.4499
17973SOL    HW257451   3.404   2.408   8.161 -0.8733  1.0036 -0.1070
17974SOL     OW57452   4.519   5.441   1.795 -0.2641 -0.6459 -0.0632
17974SOL    HW157453   4.538   5.503   1.724  1.0424 -1.1913 -0.2172
17974SOL    HW257454   4.516   5.496   1.874  0.6892 -0.3460 -0.2232
17975SOL     OW57455  10.096   6.081   9.590 -0.0257 -0.1533 -0.2760
17975SOL    HW157456  10.147   6.006   9.560 -1.2779 -0.5443 -1.5745
17975SOL    HW257457  10.053   6.051   9.670  1.4388  0.0554  0.6148
17976SOL     OW57458   3.951   1.299   4.634  0.2065  0.0890  0.2153
17976SOL    HW157459   3.925   1.368   4.572 -0.6795 -0.8465 -0.4962
17976SOL    HW257460   4.015   1.247   4.586 -0.8966 -0.9743 -0.1801
17977SOL     OW57461   0.670   7.894   8.778 -0.4346 -0.8643  0.2118
17977SOL    HW157462   0.676   7.953   8.853 -2.1713 -0.8247  0.3691
17977SOL    HW257463   0.584   7.853   8.786 -0.4199 -1.3183 -1.4227
17978SOL     OW57464   0.783   3.339   2.653  0.3472 -0.4702  0.0181
17978SOL    HW157465   0.695   3.308   2.632 -1.9056  3.6324  2.0343
17978SOL    HW257466   0.829   3.341   2.569 -3.2287  1.8211 -2.1512
17979SOL     OW57467   9.942   7.837   4.592  0.0955 -0.2813 -0.0970
17979SOL    HW157468   9.969   7.869   4.678  0.9329 -0.9233 -0.0992
17979SOL    HW257469   9.852   7.866   4.582  0.4207  0.9619  0.4254
17980SOL     OW57470   0.307   0.742   0.731  0.2501 -0.3465 -0.2271
17980SOL    HW157471   0.368   0.673   0.705  0.0692 -0.6520  0.1318
17980SOL    HW257472   0.360   0.804   0.780 -0.0516 -1.6241  1.8623
17981SOL     OW57473   1.122   3.558   6.909 -0.4950 -0.1972 -0.0793
17981SOL    HW157474   1.165   3.637   6.877 -0.4341  0.2919  1.1455
17981SOL    HW257475   1.046   3.547   6.853  0.3558 -0.1795 -1.2753
17982SOL     OW57476  10.377   9.372   5.355 -0.5332  0.4870 -0.1319
17982SOL    HW157477  10.408   9.294   5.402 -2.4068 -1.0158 -1.2250
17982SOL    HW257478  10.433   9.377   5.278  0.0330  0.6535  0.2803
17983SOL     OW57479   3.855   9.803   9.174  0.7469 -0.3549  0.1318
17983SOL    HW157480   3.947   9.799   9.149  0.4761 -0.8255 -0.8261
17983SOL    HW257481   3.818   9.871   9.118  0.1019 -1.5204 -0.9038
17984SOL     OW57482   5.742   1.139   0.662  0.0605 -0.2163  0.2165
17984SOL    HW157483   5.767   1.078   0.592  1.4700  0.6665 -0.1002
17984SOL    HW257484   5.797   1.115   0.736 -0.6829 -0.4804  0.6935
17985SOL     OW57485   9.331   7.553   6.739 -0.2949  0.5832  1.1325
17985SOL    HW157486   9.317   7.560   6.645  0.7539  0.1954  0.9284
17985SOL    HW257487   9.283   7.627   6.776 -0.1892  1.1258  0.2241
17986SOL     OW57488   2.950   4.083   9.310  0.8598  0.0406 -0.1786
17986SOL    HW157489   2.947   4.139   9.387  0.2633 -2.2023  1.5457
17986SOL    HW257490   2.883   4.016   9.327  0.2699 -0.1739 -2.9622
17987SOL     OW57491   7.260   4.433   3.184 -0.3310  0.2425 -0.2002
17987SOL    HW157492   7.258   4.404   3.275 -0.2512  1.0486  0.0646
17987SOL    HW257493   7.208   4.513   3.183 -1.1040 -0.2548 -1.0486
17988SOL     OW57494   6.849   7.072  10.456 -0.0301 -0.1049  0.0957
17988SOL    HW157495   6.839   7.123  10.537  0.4326 -1.3315  0.9572
17988SOL    HW257496   6.940   7.044  10.457 -0.3626 -1.2381 -0.1720
17989SOL     OW57497   6.171   6.602   4.997  0.3650 -0.0185 -0.5190
17989SOL    HW157498   6.154   6.696   4.997  1.1683  0.1593  0.8052
17989SOL    HW257499   6.156   6.574   4.907 -0.1722  1.3182 -0.8619
17990SOL     OW57500   6.290   3.799   7.066  0.6630  0.1585 -0.9555
17990SOL    HW157501   6.361   3.859   7.043  0.4586 -0.3071 -2.9513
17990SOL    HW257502   6.267   3.823   7.156  2.0209  1.6153 -0.9499
17991SOL     OW57503  10.658   7.159   5.912  0.1342  0.0663  0.0441
17991SOL    HW157504  10.705   7.219   5.855 -0.9227  0.4976 -0.4009
17991SOL    HW257505  10.579   7.207   5.938 -1.2442 -1.4442 -1.1225
17992SOL     OW57506   5.264   4.550   7.665  0.1599  0.2286  0.4737
17992SOL    HW157507   5.241   4.639   7.693  1.8760  0.5808  0.8266
17992SOL    HW257508   5.283   4.503   7.746 -0.4697 -0.4083  0.2671
17993SOL     OW57509   4.789  10.334   0.025 -0.0347 -0.0936 -0.5427
17993SOL    HW157510   4.734  10.397  -0.023  1.6453  0.8119 -1.3825
17993SOL    HW257511   4.816  10.271  -0.042 -0.8768 -1.1670  0.0892
17994SOL     OW57512   4.010   6.961   5.564 -0.2676  0.2501 -0.2042
17994SOL    HW157513   4.074   7.026   5.594 -0.7034  0.2025  0.8712
17994SOL    HW257514   4.052   6.919   5.489  1.2130 -0.1585  0.8042
17995SOL     OW57515  10.702   1.593   9.795 -0.1299  0.5083  0.9924
17995SOL    HW157516  10.752   1.629   9.868 -0.7414  1.5399  0.9083
17995SOL    HW257517  10.618   1.569   9.832 -0.7190  1.7230  0.5045
17996SOL     OW57518   2.233  10.555   6.157 -0.3066 -0.1029  0.2215
17996SOL    HW157519   2.202  10.644   6.139  1.0721  0.4985  0.6265
17996SOL    HW257520   2.185  10.529   6.236 -0.4984  0.4139  0.2820
17997SOL     OW57521   3.765   6.741   6.771 -0.0693 -0.1956 -0.0638
17997SOL    HW157522   3.769   6.777   6.860 -2.5879  0.5053 -0.1553
17997SOL    HW257523   3.693   6.678   6.773 -0.9584  0.6859 -1.8594
17998SOL     OW57524   2.012   3.183   4.635  0.1728 -0.1795 -0.6764
17998SOL    HW157525   1.930   3.143   4.607 -0.6618  0.3382  0.9334
17998SOL    HW257526   2.010   3.178   4.730  1.7103  0.4438 -0.5882
17999SOL     OW57527   7.675   6.570   3.437  0.1370 -0.0165 -0.8311
17999SOL    HW157528   7.743   6.638   3.431  1.5521 -0.9423  2.4985
17999SOL    HW257529   7.609   6.609   3.494  1.1962 -1.4547  1.5220
18000SOL     OW57530   0.130   6.110   9.817 -0.2783  0.7207  0.0495
18000SOL    HW157531   0.054   6.154   9.780  0.4163  1.7457 -0.2143
18000SOL    HW257532   0.196   6.180   9.826  0.8211 -0.2526 -0.2709
18001SOL     OW57533   6.974   6.687   8.926  0.0205  0.4052 -0.2389
18001SOL    HW157534   7.025   6.618   8.967 -1.0043 -0.8725 -1.0488
18001SOL    HW257535   6.963   6.753   8.994  2.0156  0.3434  0.2026
18002SOL     OW57536  10.521   3.893   8.162  0.5624  0.0659  0.0023
18002SOL    HW157537  10.535   3.986   8.181 -0.7639  0.3387 -0.2459
18002SOL    HW257538  10.557   3.881   8.074 -1.9294  1.0995 -1.2561
18003SOL     OW57539   0.617   0.360   1.756 -0.1169  0.2885  0.3449
18003SOL    HW157540   0.629   0.280   1.808  1.1333 -0.4574 -1.0106
18003SOL    HW257541   0.698   0.368   1.705 -0.0596  2.6456  0.6949
18004SOL     OW57542   0.461   6.596   9.506 -0.4322 -0.3799  0.5467
18004SOL    HW157543   0.514   6.529   9.550 -1.7559 -1.3840  0.6604
18004SOL    HW257544   0.524   6.647   9.455  0.7345 -1.0663  1.2660
18005SOL     OW57545  11.019   1.167   0.409 -0.2447 -0.2016 -0.9472
18005SOL    HW157546  11.055   1.118   0.336 -0.1831 -0.9616 -0.4143
18005SOL    HW257547  11.019   1.106   0.483  0.0418  0.6512 -0.2079
18006SOL     OW57548  11.059   1.772   3.275  0.1779 -0.0514 -0.0794
18006SOL    HW157549  11.096   1.722   3.203 -2.0812 -1.4045 -0.4089
18006SOL    HW257550  11.072   1.718   3.352 -1.1579 -0.6282 -0.2276
18007SOL     OW57551   5.693   9.157   5.137  0.4355  0.2896  0.1752
18007SOL    HW157552   5.788   9.166   5.131  0.6826 -1.8001  0.1125
18007SOL    HW257553   5.672   9.081   5.082 -1.1180  0.0031  1.0854
18008SOL     OW57554   9.382   0.702   6.846  0.4188  0.3339  0.0132
18008SOL    HW157555   9.441   0.719   6.919  0.5870 -1.7760  0.4205
18008SOL    HW257556   9.295   0.720   6.882  0.6338  1.4759  0.0168
18009SOL     OW57557   7.507  10.187   3.494 -0.1422  0.6654 -0.4472
18009SOL    HW157558   7.507  10.192   3.589  0.4575 -1.0881 -0.3264
18009SOL    HW257559   7.415  10.172   3.471  0.0234 -1.5557  0.0838
18010SOL     OW57560   2.282   6.212   6.620 -0.1005  0.5673  0.2863
18010SOL    HW157561   2.298   6.180   6.531  2.1609  1.7921  0.1708
18010SOL    HW257562   2.298   6.136   6.676 -2.1527 -0.3804 -0.3260
18011SOL     OW57563  10.051  10.205   8.325 -0.1209 -0.1547  0.7036
18011SOL    HW157564  10.036  10.262   8.250 -0.4642  0.8411  1.5034
18011SOL    HW257565  10.107  10.136   8.291 -1.0706 -0.2831 -0.7188
18012SOL     OW57566   7.085   6.232   9.114  0.3393  0.5975  0.4708
18012SOL    HW157567   7.081   6.137   9.101  1.4309  0.6374 -0.2845
18012SOL    HW257568   7.178   6.252   9.115  0.2184  1.3669  3.0933
18013SOL     OW57569   4.360   6.095   0.990  0.2643 -0.0183  0.1839
18013SOL    HW157570   4.334   6.088   1.082 -2.3446 -2.1952 -0.5655
18013SOL    HW257571   4.450   6.062   0.988 -0.8491 -3.7071  1.5882
18014SOL     OW57572   6.132  10.377   1.128  0.0649  0.2888  0.2674
18014SOL    HW157573   6.218  10.417   1.119  1.0164 -1.6516  0.1937
18014SOL    HW257574   6.125  10.353   1.220 -0.4644  0.5786  0.3072
18015SOL     OW57575   7.367   8.553   5.330  0.0330 -0.1459  0.1319
18015SOL    HW157576   7.412   8.638   5.331  1.3600 -0.7799  2.1350
18015SOL    HW257577   7.416   8.501   5.267 -0.2249  0.3086 -0.4468
18016SOL     OW57578   7.433   2.128  10.089  0.5811  0.2062 -0.2720
18016SOL    HW157579   7.471   2.167  10.011  1.9125 -1.2777 -0.4235
18016SOL    HW257580   7.500   2.068  10.121 -0.2817  0.1075  1.5108
18017SOL     OW57581   8.134  11.128   0.814 -0.5370 -0.0017 -0.2243
18017SOL    HW157582   8.056  11.091   0.775 -0.0101 -0.7302 -0.6243
18017SOL    HW257583   8.202  11.117   0.748  0.1039 -0.2097  0.4465
18018SOL     OW57584   6.984  10.183   7.012 -0.5212  0.6964 -0.0861
18018SOL    HW157585   6.997  10.153   6.922 -0.1782 -2.6421  0.9524
18018SOL    HW257586   6.990  10.279   7.006  0.0177  0.5798 -3.4887
18019SOL     OW57587   1.317   5.085   3.031  0.5034 -0.6573 -0.1113
18019SOL    HW157588   1.405   5.117   3.053  0.2285 -0.4733  0.7619
18019SOL    HW257589   1.325   5.054   2.941  0.5919  2.6924 -1.4042
18020SOL     OW57590   4.509  10.101  10.187 -0.1638  0.2587 -0.4405
18020SOL    HW157591   4.519  10.111  10.092 -0.0209 -0.7955 -0.5459
18020SOL    HW257592   4.591  10.061  10.216  0.2771  1.6150  0.3207
18021SOL     OW57593  10.612   1.137   9.375  0.3068 -0.4520 -0.6571
18021SOL    HW157594  10.694   1.089   9.369  2.0738  2.4133 -1.9166
18021SOL    HW257595  10.620   1.207   9.309 -2.4065  1.0117  0.3637
18022SOL     OW57596   2.485  10.280   5.677  0.2532 -0.2771 -0.5373
18022SOL    HW157597   2.503  10.301   5.769  1.7616  0.7933 -1.0509
18022SOL    HW257598   2.395  10.246   5.678 -0.4050  1.3662  1.0752
18023SOL     OW57599   6.571   1.954   1.088  0.2273  0.0757  0.4355
18023SOL    HW157600   6.539   1.983   1.173  0.5997  0.1558  0.5506
18023SOL    HW257601   6.601   2.034   1.045 -0.2474  0.0792  0.1016
18024SOL     OW57602   3.028   4.745   5.367 -0.1269 -0.4619 -0.0796
18024SOL    HW157603   3.120   4.763   5.347 -0.4353 -0.4415 -1.5902
18024SOL    HW257604   3.012   4.793   5.448  1.3092 -0.8279  0.4542
18025SOL     OW57605   1.950   4.987   5.190 -0.1913  0.2744  0.1245
18025SOL    HW157606   1.875   5.045   5.205  0.3160  0.8335  0.5460
18025SOL    HW257607   1.983   5.012   5.104  0.0439  0.6315  0.3180
18026SOL     OW57608   4.155  10.516   0.171 -0.1434  0.3238 -0.0741
18026SOL    HW157609   4.165  10.426   0.142 -0.7738 -0.0346  0.7846
18026SOL    HW257610   4.106  10.559   0.100  2.7432  0.8206 -1.9312
18027SOL     OW57611   2.746   0.189  10.835 -0.2080  0.0214  0.5315
18027SOL    HW157612   2.806   0.156  10.901 -0.7686  0.0845  1.0782
18027SOL    HW257613   2.741   0.119  10.770  1.2128  0.4151 -0.0293
18028SOL     OW57614   6.181   2.638  10.846 -0.1347 -0.0086 -0.4368
18028SOL    HW157615   6.265   2.606  10.880 -1.7218 -1.4064  2.5332
18028SOL    HW257616   6.201   2.726  10.813  2.1742  0.4703  1.9040
18029SOL     OW57617   8.222   3.577   5.906  0.0740 -0.5371 -0.8119
18029SOL    HW157618   8.222   3.672   5.897 -0.8059 -0.3851  0.5208
18029SOL    HW257619   8.269   3.560   5.987  0.8425 -1.2916 -1.4054
18030SOL     OW57620   2.655   4.591   6.055  0.1153 -0.1087  0.3527
18030SOL    HW157621   2.571   4.587   6.010  0.0761  1.3772  0.2234
18030SOL    HW257622   2.719   4.556   5.993 -0.1435  0.5983 -0.3259
18031SOL     OW57623   2.398   3.608   5.257  0.1820  0.4284  0.0738
18031SOL    HW157624   2.335   3.654   5.203 -0.0888 -0.0632 -0.0339
18031SOL    HW257625   2.483   3.648   5.235  0.1014  0.1022 -0.8560
18032SOL     OW57626   2.622   7.651  10.282  0.4067 -0.3584 -0.0598
18032SOL    HW157627   2.630   7.741  10.313  0.0932 -0.6096  0.7798
18032SOL    HW257628   2.547   7.652  10.223  0.7600  0.0442 -0.5100
18033SOL     OW57629   3.287   6.411   5.795  0.3943  0.2201  0.2296
18033SOL    HW157630   3.245   6.359   5.725  0.6916  0.4192 -0.1003
18033SOL    HW257631   3.216   6.428   5.858 -0.4550  1.9152 -1.0857
18034SOL     OW57632   1.372   2.872   8.988  0.0823 -0.6013  0.2667
18034SOL    HW157633   1.356   2.950   8.934  1.1914 -1.5654 -1.5524
18034SOL    HW257634   1.433   2.819   8.936 -1.7948 -3.4200  0.7395
18035SOL     OW57635   9.908   3.462   7.706  0.0865 -0.4604  0.0053
18035SOL    HW157636   9.919   3.408   7.784 -1.5183 -0.3511  0.3247
18035SOL    HW257637   9.815   3.456   7.685  0.3102  0.3205 -1.3150
18036SOL     OW57638  10.201  10.780   9.319 -0.0519  0.2680 -0.1014
18036SOL    HW157639  10.107  10.792   9.330 -0.0728  0.5917 -0.5938
18036SOL    HW257640  10.235  10.868   9.304  0.1507  0.0309 -1.1599
18037SOL     OW57641   6.886   6.337   3.660  1.0687 -0.9769 -0.7879
18037SOL    HW157642   6.940   6.307   3.734  1.7990  1.1105 -0.4292
18037SOL    HW257643   6.805   6.366   3.701  1.3336 -0.1561 -0.8308
18038SOL     OW57644   2.666   9.576   1.681  0.2711 -0.3803  0.0474
18038SOL    HW157645   2.649   9.643   1.616 -0.5586 -1.3140 -0.7394
18038SOL    HW257646   2.605   9.505   1.659  0.5140 -1.0437  1.3612
18039SOL     OW57647   1.155   2.973   7.284 -0.2581 -0.2042 -0.6747
18039SOL    HW157648   1.127   2.955   7.195 -0.5921  0.3656 -0.6938
18039SOL    HW257649   1.228   3.034   7.275 -1.0994  0.8600 -0.5382
18040SOL     OW57650   6.235   0.498   1.895 -0.7218  0.0210  0.3155
18040SOL    HW157651   6.269   0.579   1.857 -0.5554 -0.1672  0.0605
18040SOL    HW257652   6.180   0.460   1.826  2.5077 -2.2500 -1.2971
18041SOL     OW57653   3.403   5.474   3.592  0.1236  0.6597  0.4266
18041SOL    HW157654   3.378   5.477   3.684 -0.1464 -3.2717  0.6417
18041SOL    HW257655   3.494   5.444   3.593 -0.2317 -0.5071 -0.5789
18042SOL     OW57656   5.229  10.204   0.549  0.8629  0.6336 -0.2747
18042SOL    HW157657   5.296  10.268   0.526  0.5466  1.1752  0.2726
18042SOL    HW257658   5.212  10.219   0.642  0.2518  0.2538 -0.3174
18043SOL     OW57659  10.061   7.897   0.860 -0.0602  0.3118  0.3095
18043SOL    HW157660  10.101   7.834   0.920 -0.4793  1.3318  1.7112
18043SOL    HW257661  10.126   7.967   0.851  0.5030 -0.3780 -1.4306
18044SOL     OW57662   5.169   2.270   8.661 -0.2884 -0.1456 -0.0655
18044SOL    HW157663   5.132   2.305   8.742 -0.7853 -1.6516  0.3974
18044SOL    HW257664   5.222   2.196   8.689 -2.0536 -1.9591 -1.1925
18045SOL     OW57665   7.385   2.604   4.634 -0.0027  0.0649 -0.2525
18045SOL    HW157666   7.346   2.685   4.600  0.9342  0.3858 -0.6202
18045SOL    HW257667   7.347   2.534   4.581 -0.6222  0.2956 -0.1119
18046SOL     OW57668   8.208   3.463   4.066 -0.5725  0.0086  0.2783
18046SOL    HW157669   8.210   3.546   4.020 -0.0295 -0.0846  0.1267
18046SOL    HW257670   8.277   3.411   4.025 -1.5168 -0.8554 -0.2594
18047SOL     OW57671   1.458   5.999   0.678 -0.0102 -0.3589 -0.7461
18047SOL    HW157672   1.483   6.091   0.669  3.6790 -1.1349 -0.3200
18047SOL    HW257673   1.394   5.985   0.609 -3.4552  3.2199  1.3064
18048SOL     OW57674   5.087  10.658   1.944 -0.1942  0.3151 -0.2488
18048SOL    HW157675   5.128  10.658   2.030 -2.4540 -0.6320  0.9124
18048SOL    HW257676   5.063  10.566   1.929 -1.8720  0.8066 -0.8139
18049SOL     OW57677   0.384   2.625   4.726 -0.1184  0.0016  0.0476
18049SOL    HW157678   0.387   2.714   4.690 -2.3500  0.6722  1.3057
18049SOL    HW257679   0.470   2.588   4.707  0.2686  1.7941 -2.0679
18050SOL     OW57680   3.020   8.288   9.972  0.1426 -0.2663  0.2521
18050SOL    HW157681   3.000   8.374  10.010  0.2048 -0.0367 -0.2334
18050SOL    HW257682   3.018   8.302   9.878  0.8183 -0.6488  0.1725
18051SOL     OW57683   4.581   2.126   3.785  0.0858  0.6096  0.6079
18051SOL    HW157684   4.499   2.175   3.790  0.0367  0.4103  2.2682
18051SOL    HW257685   4.556   2.039   3.755 -0.2158  0.7109  0.5639
18052SOL     OW57686   0.317   2.257   8.530  0.2929 -0.5075 -0.0785
18052SOL    HW157687   0.229   2.273   8.564  0.6587  0.6531  0.3477
18052SOL    HW257688   0.302   2.217   8.444 -0.6336 -1.2674  0.4214
18053SOL     OW57689   8.880   6.740   1.019  0.0849 -0.1859  0.2423
18053SOL    HW157690   8.872   6.733   0.924  1.5491 -0.6698  0.1307
18053SOL    HW257691   8.924   6.824   1.034  2.2960 -1.2713  0.2883
18054SOL     OW57692   5.211   3.612   0.015 -0.0660  0.7025 -0.0040
18054SOL    HW157693   5.155   3.537   0.033  0.5633 -0.0900 -1.2179
18054SOL    HW257694   5.290   3.575  -0.023  0.1278  1.9873 -0.9215
18055SOL     OW57695   0.306  10.363   6.403 -0.1514  0.4650  0.0820
18055SOL    HW157696   0.345  10.278   6.423 -0.9413 -0.0140 -0.3544
18055SOL    HW257697   0.287  10.359   6.309 -0.5422  0.9786  0.1336
18056SOL     OW57698   1.614   9.710   6.025  0.0833  0.3319  0.1825
18056SOL    HW157699   1.530   9.756   6.038  0.0950  0.7980 -1.2425
18056SOL    HW257700   1.591   9.617   6.032 -0.5602  0.4539 -0.1705
18057SOL     OW57701   2.642   0.836   6.434 -0.2595  0.1994  0.3203
18057SOL    HW157702   2.650   0.902   6.365  2.0425  0.7396  1.0334
18057SOL    HW257703   2.553   0.847   6.467 -1.2753  0.2176 -2.2239
18058SOL     OW57704   8.537   7.832   5.790  0.7531 -0.8065  0.0910
18058SOL    HW157705   8.520   7.755   5.736  2.5766 -1.5121  0.4296
18058SOL    HW257706   8.519   7.802   5.880  3.0851 -1.4678  0.4202
18059SOL     OW57707   0.191   2.555   8.754 -0.4436  0.0360  0.3694
18059SOL    HW157708   0.123   2.499   8.791 -1.3137  1.3156  0.7869
18059SOL    HW257709   0.174   2.641   8.793  0.8100  0.6051 -0.2976
18060SOL     OW57710   1.745   9.677   5.768  0.0300  0.4883 -0.0248
18060SOL    HW157711   1.689   9.704   5.841  0.2972  2.0740 -0.3681
18060SOL    HW257712   1.829   9.656   5.809  0.2338  1.5451  0.1242
18061SOL     OW57713   8.108   0.037   2.673  0.0037 -0.1677  0.2291
18061SOL    HW157714   8.195   0.060   2.705 -0.1161  0.3530  0.1853
18061SOL    HW257715   8.059   0.015   2.753 -0.1734  0.7201  0.3716
18062SOL     OW57716   1.561   8.994   1.045  0.1916  0.2310  0.0715
18062SOL    HW157717   1.520   8.953   0.970  1.1747 -0.4625 -0.1112
18062SOL    HW257718   1.641   9.033   1.011  1.2959 -1.1593  0.9329
18063SOL     OW57719   0.655   7.214  10.506 -0.0559  0.1108 -0.1005
18063SOL    HW157720   0.745   7.223  10.475 -0.1282  0.7737 -0.1259
18063SOL    HW257721   0.665   7.188  10.598  0.2108  2.8160  0.7128
18064SOL     OW57722   6.142   2.677   6.614  0.3391 -0.2054 -0.3235
18064SOL    HW157723   6.139   2.592   6.569  0.5357 -1.1194  1.3157
18064SOL    HW257724   6.051   2.695   6.638  0.2170  0.3407 -1.1609
18065SOL     OW57725   3.385   6.559   9.380 -0.0405 -0.2578 -0.3780
18065SOL    HW157726   3.454   6.619   9.349 -1.1306  0.9285 -0.6075
18065SOL    HW257727   3.339   6.609   9.447 -1.6053 -0.4271 -1.2786
18066SOL     OW57728   4.737   8.467  10.896 -0.0808  0.2505 -0.3242
18066SOL    HW157729   4.656   8.478  10.946 -0.6266 -2.8807 -0.3185
18066SOL    HW257730   4.805   8.502  10.953 -1.1438  0.5022  0.8406
18067SOL     OW57731   2.055   6.670   8.092 -0.1500  0.3637  0.3657
18067SOL    HW157732   2.065   6.589   8.141 -0.0423 -0.3978 -0.8695
18067SOL    HW257733   2.055   6.643   8.000  0.0114  1.7711 -0.0786
18068SOL     OW57734   0.936   8.704  10.592 -0.3825 -0.1698  0.5084
18068SOL    HW157735   0.939   8.798  10.613  0.9626 -0.4980  1.9532
18068SOL    HW257736   0.962   8.699  10.500 -0.8876  0.8909  0.2882
18069SOL     OW57737   4.921  10.614   9.917  0.7778  0.5436  0.0841
18069SOL    HW157738   4.995  10.580   9.967  1.1970  0.4952 -0.5575
18069SOL    HW257739   4.940  10.708   9.908  1.2802  0.3570 -0.9381
18070SOL     OW57740   5.579   7.628   9.733 -0.3958  0.0661 -0.3060
18070SOL    HW157741   5.668   7.652   9.761 -1.0909  1.2337  1.0436
18070SOL    HW257742   5.590   7.596   9.644  1.2942  0.8524 -0.4250
18071SOL     OW57743   6.519  10.241   7.793  0.2148  0.3066  0.5833
18071SOL    HW157744   6.605  10.249   7.835  0.1299 -0.8796  1.0098
18071SOL    HW257745   6.461  10.213   7.864 -0.1043 -0.8820 -0.1399
18072SOL     OW57746   7.290   5.585   8.814 -0.5232  0.8231  0.0095
18072SOL    HW157747   7.238   5.648   8.763  1.1212  1.6215 -0.7591
18072SOL    HW257748   7.297   5.508   8.757 -1.6591  0.3112  0.5257
18073SOL     OW57749   3.065   1.785   5.172 -0.0528  0.0637  0.2928
18073SOL    HW157750   3.016   1.716   5.216 -1.4948  0.6762 -0.2701
18073SOL    HW257751   3.058   1.764   5.079  1.5614 -0.3236  0.2298
18074SOL     OW57752   8.649   8.247   5.377  0.1163  0.4353  0.3250
18074SOL    HW157753   8.639   8.336   5.411  0.7995  1.4473 -1.9445
18074SOL    HW257754   8.723   8.252   5.316 -0.5996 -1.3926 -0.7855
18075SOL     OW57755   3.147   9.863  10.238  0.6705  0.0394  0.0759
18075SOL    HW157756   3.237   9.882  10.214  1.1961 -1.5565  0.6500
18075SOL    HW257757   3.120   9.795  10.177  0.2490 -0.3185  0.6549
18076SOL     OW57758   7.658   8.325  11.111  0.4406  0.0526 -0.8294
18076SOL    HW157759   7.582   8.295  11.162  0.4574 -1.5381 -1.6853
18076SOL    HW257760   7.715   8.367  11.175  0.0851 -1.1655  0.3266
18077SOL     OW57761   5.526   2.156   9.917 -0.2362  0.4265  0.0256
18077SOL    HW157762   5.447   2.198   9.951 -0.3244 -0.5230  1.0923
18077SOL    HW257763   5.597   2.197   9.966 -0.2592 -0.1075  0.5219
18078SOL     OW57764   4.213   5.205   1.542 -0.2684 -0.3119 -0.2427
18078SOL    HW157765   4.176   5.290   1.519 -2.0144 -1.3113 -1.3538
18078SOL    HW257766   4.230   5.163   1.458  0.5535 -1.0867  0.2880
18079SOL     OW57767   6.332   6.144   5.658  0.2260  0.7548  0.5714
18079SOL    HW157768   6.384   6.095   5.721  1.0242  0.9108  0.0522
18079SOL    HW257769   6.377   6.229   5.650  0.2011  0.6967 -0.2696
18080SOL     OW57770  10.808   3.664   2.595 -0.2505 -0.2900 -0.0708
18080SOL    HW157771  10.792   3.710   2.678  0.3366 -0.4686  0.1509
18080SOL    HW257772  10.731   3.682   2.542  0.2905  1.5923 -0.2809
18081SOL     OW57773   3.006   0.407   9.403 -0.6955  0.6296 -0.0556
18081SOL    HW157774   2.919   0.442   9.386 -1.0889 -0.1189  0.3784
18081SOL    HW257775   3.054   0.480   9.442 -1.4750  0.7200  0.7725
18082SOL     OW57776   9.357   6.477   2.745  0.0178 -0.4884  0.7401
18082SOL    HW157777   9.263   6.495   2.747  0.2457  1.2096 -0.7805
18082SOL    HW257778   9.375   6.454   2.654  1.4899  2.1478  0.2687
18083SOL     OW57779   3.399   0.910  10.422  0.6536  0.5247 -0.2241
18083SOL    HW157780   3.479   0.858  10.434  0.1188  0.0918  1.7226
18083SOL    HW257781   3.344   0.857  10.364  0.6868 -0.4472  0.6162
18084SOL     OW57782   0.884  10.173   8.063 -0.0486 -0.3216 -0.1969
18084SOL    HW157783   0.960  10.228   8.042 -0.5606  1.0825  1.3740
18084SOL    HW257784   0.922  10.093   8.099  0.7114  0.0114 -0.2333
18085SOL     OW57785   8.405  10.388   3.403  0.0002  0.2945  1.1152
18085SOL    HW157786   8.448  10.467   3.370 -1.0076  1.3290  2.1874
18085SOL    HW257787   8.349  10.359   3.331  0.5619  0.4003  0.6276
18086SOL     OW57788   5.845   9.367   4.217 -0.0594 -0.2676 -0.0315
18086SOL    HW157789   5.909   9.422   4.172 -0.2343  2.0073  2.2752
18086SOL    HW257790   5.893   9.329   4.290 -0.3709 -1.9855 -0.6595
18087SOL     OW57791   6.762   1.323  10.852  0.0601 -0.4889  0.8138
18087SOL    HW157792   6.710   1.286  10.780 -0.6113  0.7163  0.6672
18087SOL    HW257793   6.843   1.352  10.811 -0.1815 -0.1171  0.5946
18088SOL     OW57794   6.356   1.447   6.679  0.3472  0.0959  0.6982
18088SOL    HW157795   6.387   1.524   6.727  0.5374  0.4336  0.0372
18088SOL    HW257796   6.282   1.415   6.731  0.8402  0.1774  1.4699
18089SOL     OW57797   1.124   4.101   0.180  0.4254 -0.1020 -0.0662
18089SOL    HW157798   1.103   4.048   0.257 -0.3075 -0.4667 -0.5020
18089SOL    HW257799   1.103   4.045   0.106 -2.6832  1.5108 -0.6166
18090SOL     OW57800   7.289   1.889   6.262 -0.2298  0.4294  0.1296
18090SOL    HW157801   7.268   1.823   6.328  0.2924 -0.7633 -0.8673
18090SOL    HW257802   7.216   1.886   6.200 -0.3742  1.0510  0.2607
18091SOL     OW57803   0.741   6.049   0.126 -0.0002  0.1000  0.6112
18091SOL    HW157804   0.807   5.979   0.124  0.2700  0.3381  1.1000
18091SOL    HW257805   0.669   6.015   0.072  0.9241  0.2352 -0.7746
18092SOL     OW57806   0.113   7.422   7.111  0.3511  0.1167 -0.0129
18092SOL    HW157807   0.097   7.329   7.092  1.4770 -0.2362  0.6925
18092SOL    HW257808   0.060   7.469   7.047  2.8902 -0.9826 -3.1485
18093SOL     OW57809   3.060   4.389   4.386 -0.1451  0.0783 -0.5854
18093SOL    HW157810   3.009   4.325   4.437 -1.0577  0.3048 -1.1793
18093SOL    HW257811   3.103   4.443   4.452  0.4869 -1.0068 -0.0663
18094SOL     OW57812   7.189   0.800   3.096 -0.1343  0.0341  0.2040
18094SOL    HW157813   7.118   0.842   3.145 -0.8441  1.4116 -1.8733
18094SOL    HW257814   7.252   0.775   3.163 -1.0484  1.8103  1.8394
18095SOL     OW57815   9.858   1.105   1.360  0.2697  0.0069  0.4247
18095SOL    HW157816   9.917   1.033   1.384  0.8157  0.8219  1.6066
18095SOL    HW257817   9.780   1.060   1.326  1.7256 -1.0783 -1.7022
18096SOL     OW57818   8.032   7.445   1.396  0.2391  0.0059 -0.0356
18096SOL    HW157819   7.983   7.414   1.472 -0.3649 -1.2413 -0.8974
18096SOL    HW257820   8.122   7.420   1.413 -0.0590 -1.2227 -0.1811
18097SOL     OW57821  10.499   0.519   8.775  0.2832 -0.6909  0.1090
18097SOL    HW157822  10.521   0.612   8.777 -0.8423 -0.3563 -1.5700
18097SOL    HW257823  10.559   0.481   8.711  0.0779 -0.9167  0.0465
18098SOL     OW57824   7.172   0.074   2.785  0.4182  0.4215  0.1085
18098SOL    HW157825   7.178   0.009   2.855  0.9896  0.8271  0.4447
18098SOL    HW257826   7.143   0.154   2.829  0.1969  0.5222 -0.2172
18099SOL     OW57827   8.958   3.257   1.928  0.5292 -0.2113 -0.1251
18099SOL    HW157828   8.976   3.164   1.947  0.6541 -0.5530 -1.7924
18099SOL    HW257829   8.863   3.260   1.913  0.5482 -0.1030 -0.2235
18100SOL     OW57830   1.286   4.547   2.552  0.2923 -0.4330 -0.1288
18100SOL    HW157831   1.380   4.554   2.533  0.0083 -0.4651 -1.6729
18100SOL    HW257832   1.277   4.462   2.595  1.0726 -0.0750  0.7743
18101SOL     OW57833   9.230   6.205   6.665 -0.4105  0.1889 -0.0249
18101SOL    HW157834   9.160   6.140   6.652 -1.0668  0.2078  2.7508
18101SOL    HW257835   9.213   6.272   6.599 -2.0172 -0.6124 -0.4787
18102SOL     OW57836   0.782   8.157  10.592  0.1602 -0.4972 -0.2325
18102SOL    HW157837   0.777   8.100  10.515  3.1517  0.6084 -1.3731
18102SOL    HW257838   0.712   8.221  10.579  0.5466 -0.3908 -2.0240
18103SOL     OW57839   7.279   9.674   5.755 -0.5306  0.3717 -0.3088
18103SOL    HW157840   7.314   9.641   5.672  0.1760 -0.8232  0.4308
18103SOL    HW257841   7.230   9.600   5.791 -1.9353  1.2992 -0.2506
18104SOL     OW57842   0.276   0.013  10.600 -0.7260 -0.1971 -0.4023
18104SOL    HW157843   0.313   0.099  10.620  0.1353 -0.6516  0.0151
18104SOL    HW257844   0.273  -0.032  10.685  1.1529 -1.4533 -0.9327
18105SOL     OW57845   9.648   0.770   3.170  0.1129  0.4594 -0.3908
18105SOL    HW157846   9.635   0.786   3.263 -0.0924  2.1477 -0.6632
18105SOL    HW257847   9.561   0.749   3.137  0.3325 -1.0578 -0.0772
18106SOL     OW57848   8.072   6.736   6.774  0.8063  0.1421 -0.3526
18106SOL    HW157849   8.154   6.734   6.823 -0.3945  1.6850  1.8954
18106SOL    HW257850   8.028   6.815   6.804 -0.9806  0.0330 -2.4445
18107SOL     OW57851   0.558   8.332   1.135  0.4254  0.5537 -0.1041
18107SOL    HW157852   0.529   8.291   1.054  0.8015 -0.2456  0.1491
18107SOL    HW257853   0.565   8.425   1.115 -1.9973  0.7743 -0.2732
18108SOL     OW57854   8.884   4.095   5.504  0.5782 -0.3996 -0.2548
18108SOL    HW157855   8.904   4.173   5.453  1.9970 -1.5845 -1.5934
18108SOL    HW257856   8.791   4.080   5.490  0.9526 -0.7846 -2.7227
18109SOL     OW57857   0.078  10.849   4.518  0.3044 -0.1972  0.1037
18109SOL    HW157858   0.030  10.931   4.527  0.2360 -0.3886  1.6415
18109SOL    HW257859   0.015  10.781   4.542  1.0658 -0.5117  1.2824
18110SOL     OW57860   5.339   3.921   7.468 -0.1453 -0.3832 -0.6419
18110SOL    HW157861   5.429   3.911   7.501 -0.4046 -0.4347  0.0618
18110SOL    HW257862   5.284   3.890   7.540 -0.8309  1.9644 -0.0843
18111SOL     OW57863   6.943   4.568   4.591 -0.6217 -0.7910 -0.2785
18111SOL    HW157864   7.000   4.644   4.600 -3.6149  1.5057  0.7480
18111SOL    HW257865   6.930   4.559   4.496  1.3865 -1.4034 -0.5336
18112SOL     OW57866   0.522  10.618   4.778  0.2341 -0.1401  0.2435
18112SOL    HW157867   0.574  10.697   4.785  0.0763  0.1979 -1.6591
18112SOL    HW257868   0.470  10.631   4.698 -1.0435 -1.4430  0.8138
18113SOL     OW57869   0.292   5.023   4.904 -0.6690  0.6539  0.7194
18113SOL    HW157870   0.295   5.073   4.823  0.5706 -0.5666 -0.0252
18113SOL    HW257871   0.261   5.085   4.970 -2.8099  1.4043 -0.8609
18114SOL     OW57872   2.077   1.381   5.536  0.5343 -0.2107 -0.1500
18114SOL    HW157873   2.060   1.428   5.618  1.2059 -0.4818  0.1464
18114SOL    HW257874   1.999   1.399   5.482 -0.5837 -1.1994  1.0606
18115SOL     OW57875   6.760   0.682   8.736  0.2898  0.2083  0.0009
18115SOL    HW157876   6.810   0.628   8.797 -0.5405 -1.2605 -0.5494
18115SOL    HW257877   6.697   0.728   8.791 -1.0840 -1.8147  0.2539
18116SOL     OW57878   2.551   2.047   4.680 -0.2803 -0.4194 -0.0024
18116SOL    HW157879   2.574   2.081   4.767  0.5783 -3.5122  1.1105
18116SOL    HW257880   2.495   1.972   4.698  3.2323 -3.7856 -1.7080
18117SOL     OW57881   1.520   1.792   6.261 -0.4544  0.8022 -0.2170
18117SOL    HW157882   1.550   1.841   6.184 -0.9453  0.8302 -0.3941
18117SOL    HW257883   1.581   1.719   6.270  0.2928  1.4507  0.0531
18118SOL     OW57884   3.108   7.738   8.126 -0.8458  0.5691  0.2299
18118SOL    HW157885   3.058   7.724   8.207  0.5222 -0.3251  0.9744
18118SOL    HW257886   3.082   7.667   8.068 -0.8125  0.3953  0.4277
18119SOL     OW57887   5.900   5.048  10.045  0.1515  0.6722 -0.5816
18119SOL    HW157888   5.868   4.975  10.098 -0.9683  0.9847 -0.8075
18119SOL    HW257889   5.983   5.073  10.087 -0.9574  1.2628  1.3729
18120SOL     OW57890   6.833  10.302   7.849 -0.2099 -0.1134 -0.2357
18120SOL    HW157891   6.853  10.283   7.941  0.2272  3.0805  0.4607
18120SOL    HW257892   6.874  10.230   7.800 -1.2446 -2.4054  2.0568
18121SOL     OW57893   0.298   0.048   0.498 -0.1736 -0.0891 -0.0784
18121SOL    HW157894   0.375   0.054   0.554 -1.0201 -0.5415  1.1719
18121SOL    HW257895   0.271  -0.044   0.504 -2.2658  0.5563  1.5519
18122SOL     OW57896   1.483   5.355   2.059  0.8285 -0.3780 -0.2858
18122SOL    HW157897   1.556   5.295   2.069  2.1138  1.1479 -0.1044
18122SOL    HW257898   1.517   5.440   2.088 -1.5818  0.0490  1.6403
18123SOL     OW57899   9.205   3.336   9.800 -0.2461 -0.2866 -0.0343
18123SOL    HW157900   9.217   3.376   9.887  0.6909  0.6015 -0.5363
18123SOL    HW257901   9.126   3.284   9.807 -1.4163  1.5190  0.7465
18124SOL     OW57902   7.198   4.508   5.810 -0.1725  0.2603 -0.1643
18124SOL    HW157903   7.188   4.497   5.715  0.8398 -0.7592 -0.1688
18124SOL    HW257904   7.275   4.457   5.832 -0.5993  0.2036  1.2743
18125SOL     OW57905   9.384   4.989   3.462  0.2924 -0.5264 -0.1916
18125SOL    HW157906   9.375   5.084   3.455 -0.2350 -0.7202 -4.3112
18125SOL    HW257907   9.470   4.970   3.425 -0.8146 -1.7946 -2.2513
18126SOL     OW57908   9.866   1.976   6.812 -0.0497 -0.1534  0.3671
18126SOL    HW157909   9.920   1.942   6.883 -1.1068  0.3605  1.4423
18126SOL    HW257910   9.911   2.056   6.785  0.2502 -0.2434  0.5886
18127SOL     OW57911   7.375   4.248   7.515 -0.3148  0.1623 -0.6163
18127SOL    HW157912   7.383   4.325   7.571 -1.0102 -0.2031  0.0021
18127SOL    HW257913   7.280   4.241   7.498 -0.0899  0.5529 -2.2462
18128SOL     OW57914   9.227   1.298   4.061  0.0915 -0.2735 -0.2876
18128SOL    HW157915   9.184   1.285   4.146 -0.7561  1.6553 -0.3794
18128SOL    HW257916   9.319   1.307   4.082  0.0100 -0.7384  0.3173
18129SOL     OW57917   3.424   9.368   3.910  0.1911 -0.3221  0.0295
18129SOL    HW157918   3.456   9.409   3.830 -0.5654 -0.3627 -0.3045
18129SOL    HW257919   3.495   9.380   3.973  1.0152 -0.7404 -0.7835
18130SOL     OW57920   6.707   1.745   4.824 -0.1281  0.0012 -0.5912
18130SOL    HW157921   6.745   1.667   4.865 -0.6584  0.1653  0.2346
18130SOL    HW257922   6.619   1.751   4.860  0.5262  2.0547  0.8892
18131SOL     OW57923   1.282   8.593   7.891  0.3132 -0.0560  0.2362
18131SOL    HW157924   1.274   8.502   7.863  1.6152 -0.0905 -0.0456
18131SOL    HW257925   1.375   8.612   7.887 -0.0036  1.5144 -0.3933
18132SOL     OW57926   3.634   0.179   6.151  0.2923 -0.2646 -0.3107
18132SOL    HW157927   3.724   0.146   6.150  0.9490  1.4515 -0.9188
18132SOL    HW257928   3.640   0.265   6.193 -0.8587  0.3815 -1.3859
18133SOL     OW57929   4.905   6.130   7.824  0.1852 -0.3201 -0.9256
18133SOL    HW157930   4.944   6.076   7.893  3.1198 -1.2009 -3.0440
18133SOL    HW257931   4.955   6.212   7.827 -1.5143  0.7234 -0.3092
18134SOL     OW57932   8.921   7.243   7.677  0.1807  0.2673  0.7205
18134SOL    HW157933   8.921   7.254   7.772 -1.9327  0.7741  0.7111
18134SOL    HW257934   8.936   7.331   7.642  0.6921  0.1258  0.5700
18135SOL     OW57935   9.789   3.427   4.530 -0.7902  0.4482  0.2878
18135SOL    HW157936   9.728   3.371   4.578 -1.0630  0.2383 -0.2845
18135SOL    HW257937   9.867   3.431   4.584  0.1536 -2.4277 -0.7256
18136SOL     OW57938   4.457   9.889   8.204 -0.0788  0.3913  0.1239
18136SOL    HW157939   4.400   9.812   8.209  1.7137 -0.9670  1.1834
18136SOL    HW257940   4.435   9.942   8.280  0.0853 -0.1485  0.5523
18137SOL     OW57941   3.554   3.038   7.470 -0.5591  0.0160  0.1440
18137SOL    HW157942   3.487   3.091   7.427 -0.8094  1.0862  1.7600
18137SOL    HW257943   3.618   3.102   7.502 -1.5110 -0.4376  3.2832
18138SOL     OW57944  10.950   2.176   8.305 -0.4958 -0.4049  0.3180
18138SOL    HW157945  10.864   2.156   8.269 -0.6185  1.1469 -0.3509
18138SOL    HW257946  10.962   2.114   8.377 -1.4473 -1.7377 -0.6322
18139SOL     OW57947  10.591   0.239  10.983 -0.1111 -0.1237  0.4023
18139SOL    HW157948  10.611   0.232  10.889 -0.9658 -1.1793  0.2777
18139SOL    HW257949  10.609   0.151  11.017 -0.4957  0.0652  1.0971
18140SOL     OW57950   4.713   9.076   8.000 -0.1644 -0.2461 -0.6687
18140SOL    HW157951   4.683   8.987   7.983 -1.3325 -0.1480  0.6388
18140SOL    HW257952   4.659   9.105   8.073  3.2226 -0.0814  2.0311
18141SOL     OW57953  10.952   1.269   6.855 -0.3674 -0.4256  0.0175
18141SOL    HW157954  11.028   1.258   6.913  0.5163  0.8447 -0.8289
18141SOL    HW257955  10.946   1.186   6.808 -1.1691 -1.5309  1.9327
18142SOL     OW57956   7.267   5.715   2.241  0.0757  0.3228  0.6031
18142SOL    HW157957   7.271   5.630   2.284 -2.1845  0.6451  1.6601
18142SOL    HW257958   7.179   5.717   2.202  0.8573  1.3771 -1.1999
18143SOL     OW57959   1.819   2.725   0.302  0.6336 -0.2188 -0.5184
18143SOL    HW157960   1.833   2.819   0.296 -1.4959  0.1354 -0.8654
18143SOL    HW257961   1.893   2.692   0.352  2.5393  1.3184 -2.1375
18144SOL     OW57962  11.094   9.535   5.912 -0.3090 -0.1393  0.3262
18144SOL    HW157963  11.023   9.489   5.956 -1.7802  1.5316 -0.1572
18144SOL    HW257964  11.122   9.475   5.843 -0.7783 -1.1046  0.9495
18145SOL     OW57965  11.059   5.224   6.177 -0.4158 -0.4291 -0.2737
18145SOL    HW157966  11.145   5.266   6.180 -1.4969  1.9180 -0.1323
18145SOL    HW257967  11.049   5.185   6.264  0.5329 -0.8195 -0.3271
18146SOL     OW57968   0.454   4.165   0.102 -0.0001 -0.2178  0.2121
18146SOL    HW157969   0.528   4.163   0.042 -0.9467 -0.1987 -1.0058
18146SOL    HW257970   0.446   4.256   0.129 -0.7431  0.1683 -1.2061
18147SOL     OW57971   7.628   3.116   5.971  0.4271 -0.1050  0.2185
18147SOL    HW157972   7.651   3.174   5.898  0.6879 -0.4853 -0.0132
18147SOL    HW257973   7.642   3.168   6.049 -0.1332  0.4047 -0.0151
18148SOL     OW57974   3.487   8.056   8.791  0.3659  0.3908  0.0639
18148SOL    HW157975   3.435   7.987   8.833 -1.8666  2.2756  0.6243
18148SOL    HW257976   3.470   8.044   8.697  0.6406 -0.2622  0.0874
18149SOL     OW57977   7.566   1.908  10.208 -0.0262 -0.0053  0.3970
18149SOL    HW157978   7.486   1.858  10.194  0.8229 -1.3989  0.3128
18149SOL    HW257979   7.631   1.842  10.234  1.1761  1.0322  0.1170
18150SOL     OW57980   8.804   7.245   7.124  0.0559  0.8812 -0.4805
18150SOL    HW157981   8.710   7.233   7.138  0.2139 -0.4145 -0.4211
18150SOL    HW257982   8.834   7.293   7.201 -0.8557  2.9664 -1.3598
18151SOL     OW57983   4.168   7.546   5.182 -0.2970  0.0456 -0.5711
18151SOL    HW157984   4.180   7.555   5.276 -0.1737 -0.5910 -0.5211
18151SOL    HW257985   4.127   7.627   5.155 -1.1346 -0.1191  0.1666
18152SOL     OW57986  10.002   7.807   8.363 -0.7681  0.2445 -0.0782
18152SOL    HW157987  10.044   7.799   8.278 -0.9393  0.9689 -0.2409
18152SOL    HW257988   9.986   7.717   8.391  0.6085 -0.0356 -0.1387
18153SOL     OW57989   0.417   2.885   6.689  0.1543  0.2474  0.4215
18153SOL    HW157990   0.401   2.947   6.760  0.6241 -0.8319  1.4969
18153SOL    HW257991   0.343   2.824   6.694  0.0358  0.3379 -0.2067
18154SOL     OW57992   9.014   7.010   7.652 -0.3114 -1.0421 -0.0796
18154SOL    HW157993   8.989   7.102   7.656 -0.9445 -1.2537  1.7297
18154SOL    HW257994   8.941   6.966   7.609  0.2928 -0.6429 -1.5885
18155SOL     OW57995  10.329   2.322   0.129 -0.2766  0.5217  0.4373
18155SOL    HW157996  10.379   2.400   0.151 -0.2500  1.0516 -1.3672
18155SOL    HW257997  10.241   2.340   0.161 -0.4360  1.5949 -0.5652
18156SOL     OW57998   0.697   6.907   5.535  0.1916  0.1234 -0.2672
18156SOL    HW157999   0.770   6.846   5.542  0.1135 -0.1183 -1.3230
18156SOL    HW258000   0.738   6.994   5.535  0.4694 -0.0053 -0.6694
18157SOL     OW58001   7.807   5.926   9.599 -0.3062 -0.4307 -0.0179
18157SOL    HW158002   7.762   5.977   9.531  1.1566 -0.0295 -0.7455
18157SOL    HW258003   7.794   5.835   9.573 -1.8291 -0.3920  0.5522
18158SOL     OW58004   0.590   7.633   3.953  0.5541 -0.3084 -0.2602
18158SOL    HW158005   0.594   7.572   4.026  0.8470  0.3126  0.2610
18158SOL    HW258006   0.499   7.628   3.922  1.0458 -2.4429 -1.5185
18159SOL     OW58007   2.476   2.945   7.072 -0.2301  0.1566  0.1755
18159SOL    HW158008   2.519   2.868   7.111  1.3003 -0.2186 -2.0620
18159SOL    HW258009   2.542   3.014   7.079 -0.5103  0.4795 -0.3910
18160SOL     OW58010   1.142   8.650   8.803 -0.3161 -0.6483 -0.2570
18160SOL    HW158011   1.058   8.614   8.828 -1.2699  1.3704 -0.3504
18160SOL    HW258012   1.166   8.604   8.723 -2.1753 -0.0875 -1.1820
18161SOL     OW58013   7.846  10.054  10.904  0.5958 -0.5394  0.6875
18161SOL    HW158014   7.888   9.979  10.946 -0.3325 -0.4637  1.8130
18161SOL    HW258015   7.827  10.025  10.815  0.2242 -1.6625  1.1175
18162SOL     OW58016   0.243   2.223   0.540 -0.1848 -0.2674 -1.1976
18162SOL    HW158017   0.168   2.214   0.480  0.0650  1.2731 -1.7790
18162SOL    HW258018   0.226   2.304   0.588  0.8559 -0.1585 -0.9869
18163SOL     OW58019   5.380   0.851   9.139  0.4701 -0.5706 -0.0025
18163SOL    HW158020   5.329   0.775   9.169  0.9188 -1.1317 -0.6267
18163SOL    HW258021   5.389   0.838   9.044 -1.8858  1.7377 -0.6482
18164SOL     OW58022   3.281   0.355   2.771 -0.2116  0.4267 -0.2370
18164SOL    HW158023   3.347   0.412   2.732 -0.6423  0.3430 -1.1327
18164SOL    HW258024   3.279   0.379   2.863 -0.6371  2.1209 -0.6533
18165SOL     OW58025   6.542   8.236   5.182 -0.7954 -0.5811  0.2378
18165SOL    HW158026   6.579   8.263   5.098  0.9295 -0.5901  0.9409
18165SOL    HW258027   6.517   8.319   5.224 -1.0945 -0.5314 -0.0357
18166SOL     OW58028   2.988   6.738  10.360  0.3951 -0.0198  0.5373
18166SOL    HW158029   3.059   6.801  10.378  1.0963 -0.2558 -1.2069
18166SOL    HW258030   3.034   6.657  10.336 -0.4861 -0.5214  0.5314
18167SOL     OW58031   0.605   0.481   8.370  0.2294 -0.4041  0.2268
18167SOL    HW158032   0.543   0.409   8.354 -3.0803  2.3125 -0.4414
18167SOL    HW258033   0.663   0.480   8.294 -1.2827 -0.9610 -0.9818
18168SOL     OW58034   2.991   2.635   9.926  0.4032 -0.3632 -0.3775
18168SOL    HW158035   2.903   2.666   9.950  1.0215  0.7224  0.5862
18168SOL    HW258036   2.980   2.541   9.914 -0.7882 -0.3271  0.2261
18169SOL     OW58037  10.403   7.555   1.968 -0.4196 -0.1833  0.6613
18169SOL    HW158038  10.364   7.631   2.011 -0.4953 -0.7913  1.6912
18169SOL    HW258039  10.329   7.510   1.927 -0.4619 -0.0588  0.5981
18170SOL     OW58040   9.180   4.915   8.422  0.0683 -0.2169  0.0609
18170SOL    HW158041   9.268   4.951   8.430 -0.0257 -0.3584  2.1355
18170SOL    HW258042   9.134   4.978   8.365  1.6684 -0.5594 -1.7153
18171SOL     OW58043   0.736   3.569   0.954 -0.0992  0.1859  0.5664
18171SOL    HW158044   0.645   3.542   0.968 -0.6691 -0.8302 -3.7338
18171SOL    HW258045   0.780   3.491   0.923  2.0814  0.9124  1.6346
18172SOL     OW58046   8.064   3.228  10.511 -0.0359 -0.4401  0.2508
18172SOL    HW158047   8.127   3.265  10.572 -0.2552 -0.5163  0.5270
18172SOL    HW258048   8.116   3.202  10.435  0.1451  0.2468  0.1381
18173SOL     OW58049   1.296   3.528   0.195 -0.2787 -0.0474 -0.0789
18173SOL    HW158050   1.352   3.490   0.263  0.3626  0.1710 -0.4801
18173SOL    HW258051   1.221   3.469   0.190 -0.7874  0.4184  1.4595
18174SOL     OW58052   2.822   4.622   8.775  0.0111  0.2689  0.2209
18174SOL    HW158053   2.791   4.533   8.791 -3.1470  0.7758 -2.2816
18174SOL    HW258054   2.866   4.618   8.691 -0.9926  1.2046 -0.3761
18175SOL     OW58055   7.743   2.307   6.430  0.0051  0.2493 -0.2109
18175SOL    HW158056   7.836   2.323   6.446  0.0118  0.6061 -0.6027
18175SOL    HW258057   7.722   2.360   6.353 -0.4970  0.0845 -0.1914
18176SOL     OW58058   1.459   2.915   0.889  0.3829 -0.1151  0.1589
18176SOL    HW158059   1.394   2.845   0.896 -1.5581  1.1759 -2.9160
18176SOL    HW258060   1.513   2.890   0.814  0.0744  1.3171 -0.5703
18177SOL     OW58061   7.566   0.674   8.348  0.3416 -0.2881  0.1444
18177SOL    HW158062   7.635   0.675   8.282 -1.2356  1.6398 -1.6501
18177SOL    HW258063   7.544   0.767   8.361  0.2456 -0.6373  3.0777
18178SOL     OW58064   9.308   0.420   5.249 -0.4089 -0.1145 -0.4628
18178SOL    HW158065   9.307   0.417   5.345 -0.0066 -0.7014 -0.4737
18178SOL    HW258066   9.300   0.328   5.223 -0.7679  0.0669 -0.9954
18179SOL     OW58067   5.885   7.988   8.429 -0.3349  0.2814 -0.0833
18179SOL    HW158068   5.864   8.081   8.422  1.6010  0.7128 -0.7620
18179SOL    HW258069   5.917   7.978   8.518  1.5397  0.7697 -0.6666
18180SOL     OW58070   2.381   9.826   5.132  0.6252 -0.3443 -0.0284
18180SOL    HW158071   2.358   9.735   5.153 -3.0754  0.4584  0.0244
18180SOL    HW258072   2.439   9.853   5.203 -0.0986 -1.9499  1.2537
18181SOL     OW58073   2.744   3.316   5.892  0.2685 -0.3813 -0.2929
18181SOL    HW158074   2.732   3.251   5.822 -0.2657 -2.4654  1.6154
18181SOL    HW258075   2.655   3.346   5.912  0.5451  1.3814 -1.4631
18182SOL     OW58076   3.315   4.891   5.850 -0.8156  0.1486  0.1719
18182SOL    HW158077   3.355   4.975   5.873  1.9516 -0.4711 -1.8571
18182SOL    HW258078   3.371   4.826   5.893 -3.1378 -0.7610  2.0383
18183SOL     OW58079   3.528   3.743   3.651 -0.3576  0.3966  0.2928
18183SOL    HW158080   3.548   3.674   3.715  0.6873  1.1330  0.8044
18183SOL    HW258081   3.444   3.718   3.614 -0.5833 -0.5090  1.3517
18184SOL     OW58082   7.348   2.017   3.152 -0.2500 -0.1696 -0.2844
18184SOL    HW158083   7.299   1.944   3.114  0.9393 -1.6147  0.8152
18184SOL    HW258084   7.286   2.060   3.211 -0.5909 -1.1533  0.0931
18185SOL     OW58085  10.834  10.529  10.852  1.0080  0.1624 -0.2761
18185SOL    HW158086  10.871  10.602  10.802  0.6546 -0.2900 -1.2260
18185SOL    HW258087  10.817  10.566  10.939 -1.4489  1.9562 -1.3974
18186SOL     OW58088   6.767   2.764   8.057  0.6469 -0.8571  0.1810
18186SOL    HW158089   6.758   2.833   7.992 -0.3026  0.9685  2.1281
18186SOL    HW258090   6.764   2.809   8.141  4.0048 -2.8544  1.5633
18187SOL     OW58091   1.339   2.241   9.304  0.5570 -0.9589 -0.2424
18187SOL    HW158092   1.261   2.206   9.347 -1.0851  2.4646 -0.0843
18187SOL    HW258093   1.392   2.276   9.376  0.5633 -0.2574 -0.5838
18188SOL     OW58094  10.375   6.164   2.362  0.0621  0.0627 -0.2226
18188SOL    HW158095  10.470   6.175   2.361 -0.0355  2.0917  2.2100
18188SOL    HW258096  10.359   6.089   2.305  3.1835 -0.8681 -0.0702
18189SOL     OW58097   6.152  10.108   2.036 -0.0694 -0.9755 -0.1729
18189SOL    HW158098   6.167  10.014   2.041  0.7859 -0.8960 -1.0681
18189SOL    HW258099   6.056  10.117   2.039 -0.1413 -1.6896  2.2512
18190SOL     OW58100   6.565   5.215   6.504 -0.4775 -0.0310  0.4588
18190SOL    HW158101   6.543   5.176   6.419  1.3861  2.3898 -1.3199
18190SOL    HW258102   6.649   5.176   6.527 -0.1040  0.5937  0.2133
18191SOL     OW58103   1.727   1.911   0.666 -0.1797 -0.0134 -0.1737
18191SOL    HW158104   1.680   1.954   0.594 -1.3115  0.4512  0.8169
18191SOL    HW258105   1.673   1.927   0.743  0.7568 -0.9388  0.7039
18192SOL     OW58106   7.147   6.417   3.582  0.3958 -0.4457  0.1536
18192SOL    HW158107   7.054   6.419   3.602  0.3956  1.7453  0.2042
18192SOL    HW258108   7.159   6.339   3.527 -1.9869  0.6344 -2.1222
18193SOL     OW58109  11.036   8.454   8.826  0.1738 -0.5018  0.4996
18193SOL    HW158110  11.031   8.535   8.775  2.1119 -0.5610  0.1405
18193SOL    HW258111  11.010   8.385   8.765  0.5826 -0.3691  0.1777
18194SOL     OW58112   9.991   0.407  10.106  0.1543 -0.2802 -0.8967
18194SOL    HW158113   9.955   0.457  10.179 -1.8913 -0.5628 -1.6521
18194SOL    HW258114  10.025   0.474  10.046 -2.2205  0.2654 -1.7224
18195SOL     OW58115   3.044  10.492   1.470  0.4761  0.1809  0.3901
18195SOL    HW158116   2.952  10.475   1.488  0.5516  0.2559  0.8441
18195SOL    HW258117   3.070  10.559   1.533  0.3333  1.6336 -1.0211
18196SOL     OW58118   3.968   3.351  10.492  0.2974 -0.1406  0.1625
18196SOL    HW158119   3.915   3.430  10.485  1.1645  0.5408  1.1814
18196SOL    HW258120   4.058   3.381  10.480  0.7566 -0.7507  1.8369
18197SOL     OW58121   8.136   9.306   9.667  0.2463  0.3255  0.7249
18197SOL    HW158122   8.206   9.363   9.697 -1.0090  2.2510  0.1929
18197SOL    HW258123   8.059   9.363   9.663 -0.7824 -1.0757 -1.1479
18198SOL     OW58124   2.684   3.126   7.074 -0.2685  0.3288  0.6274
18198SOL    HW158125   2.617   3.179   7.116 -1.2812  0.2906 -0.8567
18198SOL    HW258126   2.736   3.189   7.023  0.9956  0.3879  1.9044
18199SOL     OW58127   9.577   3.100   7.532  0.2226  0.5998 -0.6117
18199SOL    HW158128   9.512   3.148   7.582  0.4123  0.1665  0.0586
18199SOL    HW258129   9.641   3.071   7.596 -0.4702 -1.5087 -0.8091
18200SOL     OW58130   8.785   9.071   7.397 -0.4404 -0.0553 -0.1254
18200SOL    HW158131   8.730   9.076   7.319 -0.4491 -0.7758 -0.1693
18200SOL    HW258132   8.835   8.990   7.386  0.1738  0.2708  0.2117
18201SOL     OW58133   5.503   4.172   7.699  0.2781  0.0526 -0.8687
18201SOL    HW158134   5.457   4.155   7.617  2.1540 -1.1759 -1.7303
18201SOL    HW258135   5.581   4.220   7.674  1.5108 -1.3943  0.0010
18202SOL     OW58136   9.008   8.513  10.733  0.5936 -0.0141 -0.2859
18202SOL    HW158137   8.946   8.582  10.754 -0.5671 -0.0792 -3.0224
18202SOL    HW258138   9.092   8.544  10.768 -0.6249  0.8346  2.0709
18203SOL     OW58139   4.772   7.978   1.598  0.0611 -0.0433 -0.1156
18203SOL    HW158140   4.773   7.951   1.690 -0.6397  0.9482  0.1910
18203SOL    HW258141   4.692   7.940   1.563  1.1127 -1.7746 -0.7595
18204SOL     OW58142   2.948   8.397   4.421  0.3422  0.0553  0.0905
18204SOL    HW158143   2.989   8.340   4.485  1.6095  1.9471  1.0399
18204SOL    HW258144   3.014   8.408   4.352  0.1635  0.4975 -0.0135
18205SOL     OW58145   7.064   6.010  10.143 -0.1673 -0.2136 -0.1722
18205SOL    HW158146   6.969   6.004  10.144 -0.1561 -1.3022 -1.6417
18205SOL    HW258147   7.093   5.937  10.198 -0.1663  0.4573  0.7375
18206SOL     OW58148   1.131   9.091   2.557  0.6204  0.1909  0.2148
18206SOL    HW158149   1.133   8.998   2.534  1.8615  0.3840 -0.5719
18206SOL    HW258150   1.191   9.098   2.632  1.5842  0.5496 -0.5735
18207SOL     OW58151   2.288   3.841  10.030  0.1784  0.3007  0.1338
18207SOL    HW158152   2.261   3.762  10.077 -0.2961  1.4214  1.8639
18207SOL    HW258153   2.383   3.833  10.021 -0.0064 -1.0323 -0.8571
18208SOL     OW58154   7.117   5.763  10.385  0.0894 -0.0876 -0.6536
18208SOL    HW158155   7.034   5.717  10.397  0.0158 -0.5888 -2.7563
18208SOL    HW258156   7.177   5.697  10.349  0.8632  0.7151 -0.8885
18209SOL     OW58157   9.241   3.145   8.356 -0.3898 -0.2763  0.4723
18209SOL    HW158158   9.232   3.086   8.430  0.4809 -1.1512 -0.1042
18209SOL    HW258159   9.282   3.223   8.393  0.2190 -0.7828  0.8821
18210SOL     OW58160   0.069   4.710   0.343 -0.2825 -0.3018  0.0190
18210SOL    HW158161   0.025   4.757   0.414  0.6735 -0.6168  0.8453
18210SOL    HW258162   0.046   4.619   0.357 -0.6751 -0.2858 -0.5128
18211SOL     OW58163   2.191   1.584   3.969 -0.4482  0.1342  0.0106
18211SOL    HW158164   2.271   1.603   4.017 -0.6069 -0.4066  0.4922
18211SOL    HW258165   2.130   1.653   3.995 -1.0498 -1.0030  1.8250
18212SOL     OW58166   4.049   5.916   0.673 -0.4067  0.2666  0.2505
18212SOL    HW158167   3.978   5.856   0.652  0.1609 -0.2659 -0.2057
18212SOL    HW258168   4.008   5.986   0.723 -1.1158 -0.3966  0.6097
18213SOL     OW58169   4.563   0.184   9.159 -0.5991 -0.3270  0.2202
18213SOL    HW158170   4.488   0.127   9.143 -0.8084  0.0664 -0.2259
18213SOL    HW258171   4.604   0.149   9.238 -1.8806  0.1169  1.1043
18214SOL     OW58172   0.710   7.458   5.820 -0.4515 -0.5341 -0.6598
18214SOL    HW158173   0.734   7.532   5.876  1.4738 -1.3246 -0.3564
18214SOL    HW258174   0.644   7.411   5.870  1.1101 -1.1286  0.9433
18215SOL     OW58175   4.648   1.541   4.513  0.6104  0.1039  0.0094
18215SOL    HW158176   4.716   1.522   4.578  2.2717  1.0121 -1.3668
18215SOL    HW258177   4.667   1.480   4.442  0.2100  0.6253 -0.5440
18216SOL     OW58178   3.009   4.573   4.802 -0.5858 -0.2658 -0.1437
18216SOL    HW158179   2.946   4.516   4.847 -1.1939  0.4209 -0.1047
18216SOL    HW258180   3.058   4.615   4.873  0.2032 -1.1037 -0.1816
18217SOL     OW58181   9.053   2.397   4.751  0.0464  0.6193 -0.4167
18217SOL    HW158182   9.000   2.372   4.676  0.0069  3.3060 -1.3974
18217SOL    HW258183   9.107   2.321   4.769 -1.5580 -0.8900 -1.7065
18218SOL     OW58184   5.374   7.075   5.454 -0.1067 -0.1179 -0.7685
18218SOL    HW158185   5.364   7.088   5.549 -0.1958  0.9185 -0.9082
18218SOL    HW258186   5.460   7.033   5.445  0.5490  1.0562 -0.3027
18219SOL     OW58187   2.525   5.833   2.226  0.7680  0.0784 -0.0487
18219SOL    HW158188   2.453   5.833   2.289  0.4354 -0.5915 -0.4214
18219SOL    HW258189   2.603   5.819   2.279  0.3805 -1.7333  0.1332
18220SOL     OW58190   3.293   9.076   2.584 -0.1954 -1.2509  0.0143
18220SOL    HW158191   3.352   9.140   2.624  0.8393 -2.5221  0.5887
18220SOL    HW258192   3.285   9.105   2.493 -0.4569  0.1812  0.4789
18221SOL     OW58193   2.445   7.077   6.649 -0.3669  0.5608  0.2633
18221SOL    HW158194   2.438   6.995   6.698  0.0536  0.8839  0.8723
18221SOL    HW258195   2.515   7.126   6.692  1.0091  0.2857 -1.5068
18222SOL     OW58196  10.744   6.755   8.218 -0.4382  0.1405 -0.3326
18222SOL    HW158197  10.766   6.803   8.298 -0.3942  0.7852 -0.7254
18222SOL    HW258198  10.665   6.705   8.240 -0.3635  0.2351  0.1433
18223SOL     OW58199   7.277   6.535   4.618 -0.0266  0.4270 -0.1140
18223SOL    HW158200   7.349   6.596   4.602 -0.3781  1.1223  0.8991
18223SOL    HW258201   7.280   6.517   4.712  0.7948 -2.0811 -0.5375
18224SOL     OW58202   0.884   9.696   9.288  0.0139 -0.0465  0.4448
18224SOL    HW158203   0.911   9.623   9.231  2.3993  2.2534 -1.6527
18224SOL    HW258204   0.955   9.705   9.351 -1.4399 -0.9762  2.3177
18225SOL     OW58205   0.311   8.567  10.016  0.3088 -0.0731 -0.0447
18225SOL    HW158206   0.330   8.537   9.927  0.6725  0.7534 -0.2528
18225SOL    HW258207   0.287   8.659  10.006 -0.0188 -0.0725  0.6720
18226SOL     OW58208   9.221   7.508   8.862 -0.3077 -0.1465  0.5654
18226SOL    HW158209   9.133   7.504   8.900 -0.2893 -0.1882  0.6047
18226SOL    HW258210   9.224   7.435   8.800 -0.0234 -0.6478  1.1532
18227SOL     OW58211   9.685   7.565   7.894 -0.3338  0.2909  0.2860
18227SOL    HW158212   9.629   7.487   7.891  0.4950 -0.2928 -1.1134
18227SOL    HW258213   9.770   7.534   7.863  0.3094  1.5368  0.7456
18228SOL     OW58214   2.548   6.309  10.706 -0.5166  0.3519  0.3349
18228SOL    HW158215   2.529   6.220  10.676 -0.1051  0.8931 -1.6672
18228SOL    HW258216   2.635   6.303  10.746  0.8080  0.3066 -2.3341
18229SOL     OW58217   3.512   6.915   1.674 -0.2649 -0.5739  0.1760
18229SOL    HW158218   3.482   7.000   1.640 -0.4200 -0.7139 -0.0348
18229SOL    HW258219   3.589   6.894   1.621 -1.5952 -1.6942 -1.3786
18230SOL     OW58220   3.000   9.814   7.042 -0.1521  0.2900 -0.7732
18230SOL    HW158221   2.981   9.880   6.975 -0.3108  0.0090 -1.0128
18230SOL    HW258222   2.961   9.734   7.007 -1.7691  0.4929  0.4488
18231SOL     OW58223   5.925   0.762   9.994 -0.0688 -0.1496  0.3068
18231SOL    HW158224   6.015   0.761   9.963 -0.2268  0.7123 -0.2207
18231SOL    HW258225   5.924   0.702  10.068  0.5008 -1.6853 -0.8751
18232SOL     OW58226   6.226   4.506  10.794  0.0593 -0.5640 -0.1383
18232SOL    HW158227   6.273   4.578  10.751 -0.0516  0.8741  2.0259
18232SOL    HW258228   6.291   4.467  10.853 -0.8442  0.0380  1.2800
18233SOL     OW58229   0.187   4.833   0.120  0.2629 -0.2803 -0.4489
18233SOL    HW158230   0.147   4.799   0.200  2.0805  0.1425  0.7074
18233SOL    HW258231   0.121   4.819   0.052 -2.9251  2.6860  1.6843
18234SOL     OW58232   5.875   2.532  10.502  0.3647 -0.2591  0.7340
18234SOL    HW158233   5.966   2.506  10.519  0.6825 -0.9668 -1.6468
18234SOL    HW258234   5.883   2.603  10.437 -0.7292 -2.8133 -2.4639
18235SOL     OW58235   3.549   7.943   7.951  0.5209 -0.4688  0.4638
18235SOL    HW158236   3.512   7.885   8.017  0.5035 -1.6292 -0.5140
18235SOL    HW258237   3.644   7.930   7.958  0.5193 -0.5973  0.2708
18236SOL     OW58238   1.845  10.625   7.558  0.2430 -0.3319 -0.1841
18236SOL    HW158239   1.756  10.626   7.591 -0.5048  0.5760 -2.1084
18236SOL    HW258240   1.857  10.537   7.522  1.1400 -1.4044  2.5171
18237SOL     OW58241   6.812   1.847   4.386 -0.0199 -0.0950 -0.0939
18237SOL    HW158242   6.746   1.789   4.425  0.2432 -0.0405  0.4378
18237SOL    HW258243   6.762   1.901   4.324 -0.3128 -0.7006 -0.4009
18238SOL     OW58244   4.926  10.009   9.577  0.5571  0.0161  0.0233
18238SOL    HW158245   4.951  10.023   9.485  1.0998 -0.0976  0.1515
18238SOL    HW258246   4.852   9.948   9.572  0.8184 -0.2791 -0.3248
18239SOL     OW58247   7.517   2.043   4.303  0.0317  0.0912  0.1519
18239SOL    HW158248   7.602   2.083   4.324  1.2110 -0.7640 -2.5204
18239SOL    HW258249   7.466   2.114   4.264  0.7230 -0.0430 -1.0743
18240SOL     OW58250   5.427   7.538   2.786 -0.2644  0.2558  0.0571
18240SOL    HW158251   5.448   7.623   2.824 -0.5325 -0.0226  0.8468
18240SOL    HW258252   5.369   7.497   2.850  2.7926 -2.0916  1.5249
18241SOL     OW58253   6.319   7.619   2.597 -0.0561  0.1630  0.9031
18241SOL    HW158254   6.286   7.692   2.649 -0.8170  0.6579 -0.2475
18241SOL    HW258255   6.381   7.574   2.656  0.4919  1.7633  1.6067
18242SOL     OW58256   4.259   5.814   8.338 -0.8240 -0.3507 -0.2444
18242SOL    HW158257   4.278   5.905   8.316 -2.3307 -0.5320 -2.6145
18242SOL    HW258258   4.166   5.816   8.364 -0.5052 -1.0376  1.0274
18243SOL     OW58259   0.533   6.890  10.492  0.2087 -0.6065 -0.6373
18243SOL    HW158260   0.528   6.804  10.449  0.9124 -0.6574 -0.6317
18243SOL    HW258261   0.592   6.876  10.566 -1.2933 -0.6122  0.6065
18244SOL     OW58262   6.161   7.640   6.021 -0.0994  0.0190  0.2854
18244SOL    HW158263   6.069   7.663   6.038  0.5168  1.9002  1.3584
18244SOL    HW258264   6.199   7.720   5.984  0.6275 -1.4328 -2.3668
18245SOL     OW58265   0.503   9.234   9.324  0.1938 -0.3276  0.2344
18245SOL    HW158266   0.553   9.195   9.395  1.4164 -0.1936 -0.5372
18245SOL    HW258267   0.547   9.317   9.305 -0.2712 -0.2367 -0.5065
18246SOL     OW58268   4.246   4.206   7.978  0.7911 -0.1575 -0.3754
18246SOL    HW158269   4.186   4.139   8.011  0.7447  1.1568  2.5999
18246SOL    HW258270   4.316   4.157   7.935 -0.3440 -1.9627 -0.2774
18247SOL     OW58271   9.515   4.779   9.677 -0.1911 -0.0426  0.1320
18247SOL    HW158272   9.508   4.869   9.708 -0.1222 -0.1942  0.5870
18247SOL    HW258273   9.578   4.737   9.737 -1.2764 -0.7792  0.7872
18248SOL     OW58274  10.778   8.273   9.901  0.2466 -0.2549 -0.5524
18248SOL    HW158275  10.706   8.273   9.838 -0.2904 -0.5642  0.0525
18248SOL    HW258276  10.821   8.188   9.888  0.8786  0.1580 -1.3122
18249SOL     OW58277   7.924   8.100   0.348  0.7754 -0.3199  0.1303
18249SOL    HW158278   7.887   8.176   0.394 -0.9727 -0.6080 -0.7267
18249SOL    HW258279   7.998   8.074   0.402 -0.2233  0.3495  1.9170
18250SOL     OW58280   9.791   5.203   5.186 -0.3381 -0.0151  0.2764
18250SOL    HW158281   9.789   5.163   5.099 -0.1862  0.0806  0.2268
18250SOL    HW258282   9.818   5.133   5.245  1.5336  0.3849 -0.0327
18251SOL     OW58283   3.064   0.983   6.813 -0.0628  0.2266 -0.2072
18251SOL    HW158284   3.124   1.056   6.822 -0.3552  0.5325 -0.6860
18251SOL    HW258285   3.100   0.930   6.743  0.1218 -0.0636  0.1048
18252SOL     OW58286   5.270   9.749   7.771 -0.2606 -0.2183  0.4515
18252SOL    HW158287   5.209   9.782   7.706  0.7338 -0.7299 -0.7851
18252SOL    HW258288   5.347   9.805   7.763 -0.0541 -0.4025  1.0699
18253SOL     OW58289   5.568   2.971   8.100  0.3031 -0.0934 -0.3957
18253SOL    HW158290   5.566   3.041   8.034 -1.5043  0.7460  0.4800
18253SOL    HW258291   5.524   3.008   8.176  2.6558 -0.9051  1.4891
18254SOL     OW58292   2.910  10.646   9.592 -0.3229 -0.5249 -0.1331
18254SOL    HW158293   2.892  10.739   9.579 -2.4585 -0.8538 -0.0248
18254SOL    HW258294   2.895  10.607   9.506 -0.8015 -0.9220  0.1245
18255SOL     OW58295   4.837   5.949   4.507  0.1132  0.1275  0.1897
18255SOL    HW158296   4.847   5.910   4.594  0.0379  1.5472  0.8636
18255SOL    HW258297   4.874   5.883   4.447  0.6618 -0.6506  1.3338
18256SOL     OW58298   1.304   6.743   5.329 -0.5273  0.4479  0.0859
18256SOL    HW158299   1.257   6.668   5.291  2.4423 -0.8319 -1.4293
18256SOL    HW258300   1.345   6.708   5.408  2.1558 -0.1587 -1.4381
18257SOL     OW58301  10.841   2.620   9.348 -0.1187  0.0738 -1.6182
18257SOL    HW158302  10.889   2.660   9.420  0.8755 -3.4427 -0.0946
18257SOL    HW258303  10.755   2.662   9.351 -0.1770  0.0278  1.7835
18258SOL     OW58304   1.875   3.867  10.256 -0.4632 -0.3038  0.1861
18258SOL    HW158305   1.938   3.799  10.230 -1.9713 -1.6152 -0.1513
18258SOL    HW258306   1.792   3.838  10.219 -1.4104  1.0509  1.1858
18259SOL     OW58307   8.133   2.428  10.540 -0.4790  0.4519 -0.2625
18259SOL    HW158308   8.086   2.351  10.572 -0.6281  0.5644 -0.2083
18259SOL    HW258309   8.218   2.424  10.585 -0.7671  0.7264  0.3217
18260SOL     OW58310  10.301   9.027   6.470 -0.6090  0.5469 -0.0933
18260SOL    HW158311  10.375   8.983   6.511 -1.3344  0.3674  1.0681
18260SOL    HW258312  10.241   8.957   6.445 -0.0891  0.6278 -1.7393
18261SOL     OW58313   9.050   1.223   0.956  0.1293 -0.2499 -0.2174
18261SOL    HW158314   8.981   1.158   0.967  0.4045 -0.3233  1.3128
18261SOL    HW258315   9.051   1.242   0.862 -1.3011 -0.9644 -0.3986
18262SOL     OW58316  10.384   0.716   7.344  0.1728  0.3150  0.0233
18262SOL    HW158317  10.397   0.807   7.371 -3.8754  1.0633  0.0582
18262SOL    HW258318  10.466   0.672   7.367  0.9637  3.1400  3.5175
18263SOL     OW58319   3.227   6.030   9.032  0.3332 -0.4826 -0.5707
18263SOL    HW158320   3.289   6.091   8.994  0.1107  1.1634  1.4851
18263SOL    HW258321   3.255   5.944   9.001  2.3981  0.3904 -1.3090
18264SOL     OW58322   3.607   2.072   2.794  0.1634 -0.0142  0.2733
18264SOL    HW158323   3.525   2.094   2.840 -0.3984  0.9472 -1.1351
18264SOL    HW258324   3.671   2.136   2.828 -0.4925  1.3429 -0.9200
18265SOL     OW58325   2.778  10.860   1.635  0.3925  0.5159  0.1253
18265SOL    HW158326   2.857  10.893   1.679  0.1643 -0.5095  1.3554
18265SOL    HW258327   2.706  10.904   1.679  0.2363  1.9321 -1.4112
18266SOL     OW58328   6.992   9.989   3.986 -0.1483 -0.3597 -0.0777
18266SOL    HW158329   7.027  10.077   3.975  1.7346 -1.0918 -0.2413
18266SOL    HW258330   7.033   9.956   4.065 -0.2552 -1.3618 -0.4286
18267SOL     OW58331   8.180   0.405   3.857 -0.1452 -0.0677  0.4790
18267SOL    HW158332   8.166   0.328   3.912  1.6771 -1.8096 -1.3197
18267SOL    HW258333   8.161   0.479   3.915 -0.3184 -1.8014  2.8099
18268SOL     OW58334   3.044   8.462   3.856  0.4743  0.5497  0.2791
18268SOL    HW158335   2.968   8.508   3.820  0.0477  0.3813  0.9490
18268SOL    HW258336   3.116   8.524   3.847 -0.3308  1.8747  2.2966
18269SOL     OW58337   8.040   2.521   1.097 -0.0713  0.5005  0.3924
18269SOL    HW158338   8.102   2.514   1.024 -1.3574  1.0472 -0.7975
18269SOL    HW258339   8.094   2.513   1.175  1.4473  0.5984 -0.6059
18270SOL     OW58340   7.539   8.428   1.050  0.6074  0.7384  0.0404
18270SOL    HW158341   7.493   8.351   1.082  0.1136  0.9102 -0.2455
18270SOL    HW258342   7.563   8.476   1.129  0.6728  0.4334  0.2073
18271SOL     OW58343   2.887   8.833  10.818 -0.1686 -0.2612  0.5414
18271SOL    HW158344   2.977   8.800  10.817 -0.5052 -1.3265 -1.8148
18271SOL    HW258345   2.897   8.928  10.821  1.2231 -0.2024 -2.2278
18272SOL     OW58346   3.371   3.787   5.994  0.2422 -0.1323 -0.1869
18272SOL    HW158347   3.322   3.786   5.912  0.2749  2.3096 -0.3370
18272SOL    HW258348   3.330   3.720   6.049 -1.2363 -0.2776 -1.4117
18273SOL     OW58349   0.962  10.306   0.996  0.2332 -0.4205 -0.0920
18273SOL    HW158350   0.925  10.231   0.950 -1.3747 -1.4190  2.6314
18273SOL    HW258351   0.898  10.377   0.984  0.1284 -0.4871  0.0691
18274SOL     OW58352   0.547  10.692   2.940  0.4366 -0.0042 -0.1943
18274SOL    HW158353   0.619  10.750   2.914 -0.7726  1.5822 -0.1375
18274SOL    HW258354   0.530  10.714   3.031  2.2080 -2.9483  0.9848
18275SOL     OW58355   8.936   5.797   2.735 -0.4651  0.3324  0.2560
18275SOL    HW158356   8.987   5.807   2.816 -1.2780 -0.3412  0.8726
18275SOL    HW258357   8.952   5.877   2.687 -0.8855  1.2706  1.6125
18276SOL     OW58358   0.831   5.907   2.606  0.2338 -0.1451 -0.5266
18276SOL    HW158359   0.840   5.913   2.511  1.9830 -0.1906 -0.4027
18276SOL    HW258360   0.779   5.984   2.630 -0.2308 -0.1365 -1.5047
18277SOL     OW58361   4.225   2.054   9.747 -0.0561  0.5818 -0.3816
18277SOL    HW158362   4.134   2.083   9.750 -0.3784 -0.3348 -0.9560
18277SOL    HW258363   4.252   2.070   9.657 -0.0433 -0.2727 -0.5418
18278SOL     OW58364   3.153   1.993   5.298 -0.4239 -0.0416  0.0705
18278SOL    HW158365   3.205   1.965   5.374  1.1858 -0.0638 -0.9745
18278SOL    HW258366   3.119   1.911   5.262 -0.1486 -0.1523  0.0568
18279SOL     OW58367   1.801   6.319   4.837 -0.0067 -0.0398 -0.3213
18279SOL    HW158368   1.840   6.287   4.918 -1.1660 -0.7971 -0.0453
18279SOL    HW258369   1.737   6.251   4.812 -0.7938  0.9241 -1.0126
18280SOL     OW58370   8.525   5.296   4.163  0.2186  0.1340 -0.2974
18280SOL    HW158371   8.611   5.327   4.135  0.3984 -1.1223 -1.2060
18280SOL    HW258372   8.517   5.208   4.125 -0.6084 -0.6148  1.4983
18281SOL     OW58373   9.212   1.713   0.823  0.1427  0.3240 -0.6064
18281SOL    HW158374   9.235   1.805   0.836  1.1149 -0.3420  4.8311
18281SOL    HW258375   9.296   1.667   0.823 -0.3353 -0.7967  2.1485
18282SOL     OW58376   0.786   6.716   5.183 -0.3675 -0.4978  0.3207
18282SOL    HW158377   0.825   6.745   5.265  0.5702 -0.9472  0.0401
18282SOL    HW258378   0.791   6.620   5.187  1.9531 -0.5164 -1.3130
18283SOL     OW58379   0.822   9.997   0.056  0.2654  0.2283  0.4532
18283SOL    HW158380   0.734  10.003   0.019 -0.0776 -0.9078  1.0496
18283SOL    HW258381   0.865  10.079   0.030 -0.9706  0.8041  0.1807
18284SOL     OW58382  10.707   7.705   5.708  0.7223  0.1085  0.2309
18284SOL    HW158383  10.743   7.693   5.620 -0.5312 -0.9708 -0.1713
18284SOL    HW258384  10.753   7.642   5.762  0.9272  0.2075  0.1718
18285SOL     OW58385   0.228   1.734   5.254 -0.0044  0.5832 -0.2539
18285SOL    HW158386   0.167   1.806   5.240 -1.2856 -0.0577  1.5755
18285SOL    HW258387   0.198   1.694   5.336  0.5465 -2.1403 -1.2939
18286SOL     OW58388   6.267   0.000   1.011  0.0335 -0.0975  0.4626
18286SOL    HW158389   6.221  -0.016   0.929  1.1797 -1.2220  0.0043
18286SOL    HW258390   6.344  -0.056   1.007  0.2760  0.0448  2.1876
18287SOL     OW58391   4.864   7.679   0.030  0.0453  0.0749  0.2513
18287SOL    HW158392   4.815   7.710   0.106  0.1688 -0.2267  0.4588
18287SOL    HW258393   4.890   7.758  -0.017 -0.6824  0.2351  0.1119
18288SOL     OW58394   6.272   0.758   3.786  0.5013 -0.7003 -0.2726
18288SOL    HW158395   6.182   0.783   3.808 -0.2536 -1.9445 -1.7097
18288SOL    HW258396   6.311   0.838   3.752 -0.3441 -0.3394 -0.4222
18289SOL     OW58397   2.989   1.479   8.738  0.0560  0.0630  0.5655
18289SOL    HW158398   2.956   1.558   8.697  1.3399 -0.4867 -1.6856
18289SOL    HW258399   2.912   1.421   8.743 -0.2245  0.2768 -0.8127
18290SOL     OW58400   6.901   8.964   2.535 -0.1359 -0.2273  0.2581
18290SOL    HW158401   6.820   8.957   2.485 -0.5190  0.6222  0.7293
18290SOL    HW258402   6.878   8.936   2.623 -0.5222  2.0834  0.9644
18291SOL     OW58403   4.435   1.123   4.046 -0.2271 -0.1893  0.0102
18291SOL    HW158404   4.431   1.051   4.109  2.2454  0.3255  0.8655
18291SOL    HW258405   4.445   1.202   4.099 -1.2737  0.6545 -0.9713
18292SOL     OW58406   0.293   7.651   1.275  0.7397  0.3593  0.2172
18292SOL    HW158407   0.262   7.611   1.194 -2.7805  0.7776  1.1963
18292SOL    HW258408   0.278   7.584   1.342  2.9957  0.2590  0.7068
18293SOL     OW58409   6.345   2.862   2.163 -0.6270  0.7680  0.1606
18293SOL    HW158410   6.309   2.809   2.092 -0.7102  0.4594  0.4318
18293SOL    HW258411   6.431   2.824   2.181 -1.0835  0.1124  1.0064
18294SOL     OW58412   3.801   5.628   1.304 -0.1594 -0.1337 -0.3447
18294SOL    HW158413   3.764   5.702   1.354  1.6196  0.7860 -0.3083
18294SOL    HW258414   3.892   5.654   1.287  0.1260 -1.7590 -1.4878
18295SOL     OW58415   8.628   7.197   8.666  0.1179  0.1373 -0.6773
18295SOL    HW158416   8.537   7.205   8.695  0.2672  0.9467 -0.4003
18295SOL    HW258417   8.653   7.108   8.689 -0.0466  0.4774  0.8924
18296SOL     OW58418   7.703   0.102   3.160 -0.3107 -0.5259 -0.7884
18296SOL    HW158419   7.769   0.152   3.113  0.0787 -0.9288 -0.6828
18296SOL    HW258420   7.622   0.115   3.110 -0.1142 -0.1599 -1.0107
18297SOL     OW58421   7.635  10.313   5.433  0.8281 -0.0964  0.8226
18297SOL    HW158422   7.568  10.257   5.393  2.5241 -0.7430 -1.3036
18297SOL    HW258423   7.664  10.370   5.362  3.7826 -1.0894  1.0995
18298SOL     OW58424   5.779  10.851   7.543  0.3271 -0.0512  0.2819
18298SOL    HW158425   5.861  10.800   7.539 -0.1331 -0.7448 -1.1248
18298SOL    HW258426   5.805  10.936   7.576  1.9282  0.2517 -1.5669
18299SOL     OW58427   0.210   0.845   9.101 -0.1203  0.2668  0.0151
18299SOL    HW158428   0.267   0.897   9.045 -0.4001  0.5710  0.0112
18299SOL    HW258429   0.147   0.908   9.137 -0.1208  0.0234  0.4409
18300SOL     OW58430   4.941   8.737   7.955 -0.2981  0.0811 -0.0209
18300SOL    HW158431   4.958   8.647   7.983 -0.5207  0.2721  0.7638
18300SOL    HW258432   4.921   8.784   8.037 -1.5777  0.5201 -0.5556
18301SOL     OW58433  10.577   2.952  10.884 -0.2676  0.8241  0.3201
18301SOL    HW158434  10.536   2.878  10.929  0.4194  0.4948  0.4149
18301SOL    HW258435  10.550   2.942  10.792 -0.6125  0.7641  0.4254
18302SOL     OW58436   1.182   4.235   2.468  0.0631 -0.3809 -0.6249
18302SOL    HW158437   1.128   4.204   2.541 -0.1457  2.3935  0.5526
18302SOL    HW258438   1.123   4.233   2.392 -1.0008  0.3789  0.1498
18303SOL     OW58439   7.065  10.641   9.224  0.3482 -0.1722  0.1154
18303SOL    HW158440   7.021  10.726   9.230 -0.4250 -0.6110  0.8887
18303SOL    HW258441   7.023  10.598   9.148  0.1199 -0.1995  0.2546
18304SOL     OW58442   4.758  10.574   1.285  0.3663 -0.0288  0.0895
18304SOL    HW158443   4.679  10.521   1.275  0.3394  0.1434 -0.7383
18304SOL    HW258444   4.726  10.659   1.313  0.2243  0.1114 -0.4751
18305SOL     OW58445   6.383  10.257   3.418 -0.2762 -0.0011  0.1309
18305SOL    HW158446   6.399  10.194   3.347 -1.2718  0.6991 -0.7510
18305SOL    HW258447   6.461  10.312   3.419  0.0308 -0.4264  0.0230
18306SOL     OW58448   0.289   1.330   5.107 -0.2905 -0.1607 -0.4591
18306SOL    HW158449   0.277   1.265   5.037 -0.5046 -0.1446 -0.4406
18306SOL    HW258450   0.321   1.408   5.063 -2.0571  0.4151 -0.8123
18307SOL     OW58451   3.679   3.802  10.599 -0.1667  0.2568 -0.2207
18307SOL    HW158452   3.619   3.875  10.586 -0.9185 -0.6934 -2.4805
18307SOL    HW258453   3.763   3.843  10.620 -1.2733  1.6353  1.9113
18308SOL     OW58454   1.672   8.879   4.132 -0.2002 -0.0237  0.2906
18308SOL    HW158455   1.607   8.949   4.127  0.0443  0.1168 -1.2504
18308SOL    HW258456   1.753   8.919   4.102  0.0918 -0.7962  0.0378
18309SOL     OW58457   8.303   2.952   8.811  0.2302 -0.0762 -0.1614
18309SOL    HW158458   8.291   3.040   8.847 -1.1590 -0.5947  0.7108
18309SOL    HW258459   8.324   2.966   8.719 -0.1067  1.1653 -0.0617
18310SOL     OW58460   2.577   4.289   3.173 -0.0546 -0.3076  0.6546
18310SOL    HW158461   2.641   4.305   3.103  1.5686 -3.7413  1.1230
18310SOL    HW258462   2.618   4.326   3.251  1.3611 -2.1450  0.8772
18311SOL     OW58463   9.622   3.724   3.438 -0.2020  0.2926  0.5667
18311SOL    HW158464   9.652   3.673   3.513  1.5896 -0.5025 -0.6239
18311SOL    HW258465   9.596   3.658   3.373  2.2217  0.7722 -1.0239
18312SOL     OW58466   9.831   2.504   9.226 -0.2286  0.6242 -0.5075
18312SOL    HW158467   9.879   2.481   9.147  0.2681  2.2275 -0.7203
18312SOL    HW258468   9.739   2.495   9.201 -0.0671  0.4998 -1.0787
18313SOL     OW58469   5.315   5.439   9.626  0.0243 -0.1699  0.3621
18313SOL    HW158470   5.397   5.435   9.675 -0.0360  1.0952  0.5956
18313SOL    HW258471   5.303   5.350   9.593  1.7308 -0.2823 -0.0620
18314SOL     OW58472   6.439   9.427   0.592  0.0023 -0.5437  0.1961
18314SOL    HW158473   6.348   9.456   0.582  0.5294  0.5774 -2.2437
18314SOL    HW258474   6.488   9.508   0.604  0.8414 -0.9806 -0.2199
18315SOL     OW58475   2.062   0.092   3.417  0.0191 -0.0324  0.2089
18315SOL    HW158476   2.006   0.103   3.339 -1.3247  1.9479  1.3453
18315SOL    HW258477   2.016   0.027   3.470  0.4699 -0.7159 -0.2153
18316SOL     OW58478   8.447   6.597   1.664 -0.3363 -0.2443  0.3652
18316SOL    HW158479   8.521   6.539   1.680 -0.7073 -1.0547 -0.7501
18316SOL    HW258480   8.480   6.662   1.601  0.0976  0.8336  1.6572
18317SOL     OW58481   3.719   8.771  10.701  0.3884  0.2282 -0.4201
18317SOL    HW158482   3.753   8.803  10.784 -0.7492 -0.1734  0.2257
18317SOL    HW258483   3.644   8.828  10.682  2.2377  2.1135 -2.6044
18318SOL     OW58484   5.175   1.037   1.545  0.5328  0.5998 -0.0209
18318SOL    HW158485   5.118   1.093   1.492  0.7052  0.4665 -0.3539
18318SOL    HW258486   5.199   0.965   1.486  0.1991  0.1016  0.4498
18319SOL     OW58487   4.791  10.768   2.230  0.3252 -0.2117 -0.2183
18319SOL    HW158488   4.767  10.749   2.140  1.7124  0.1328 -0.6867
18319SOL    HW258489   4.860  10.704   2.251  0.6494  0.2945  0.2917
18320SOL     OW58490   8.050   9.300   1.747  0.0928 -0.4463 -0.2182
18320SOL    HW158491   7.963   9.261   1.744 -0.8266  1.4620  0.2722
18320SOL    HW258492   8.095   9.254   1.818 -0.1611 -2.0695 -1.0630
18321SOL     OW58493   1.104   5.511   1.770 -0.3071  0.1283  0.4224
18321SOL    HW158494   1.132   5.465   1.691 -0.6125  0.6223  0.0224
18321SOL    HW258495   1.018   5.473   1.790 -1.0731  1.2575 -0.5430
18322SOL     OW58496   8.802   4.883   5.401 -0.0779  0.0046  0.3050
18322SOL    HW158497   8.847   4.812   5.355  1.1080  0.1558  1.1865
18322SOL    HW258498   8.852   4.961   5.378 -0.1177  0.2366  1.0100
18323SOL     OW58499   3.598   8.015   6.736 -0.4864  0.7542  0.3693
18323SOL    HW158500   3.687   8.026   6.770 -0.1446  1.4479 -0.6943
18323SOL    HW258501   3.590   8.082   6.668 -1.8920  0.8225  0.5727
18324SOL     OW58502  10.269   5.750   2.829  0.0148 -0.5342 -0.4059
18324SOL    HW158503  10.304   5.835   2.856  1.3631 -1.3296  0.5156
18324SOL    HW258504  10.175   5.764   2.818  0.4486  1.5389 -2.2203
18325SOL     OW58505   3.267  10.244   4.466 -0.1253 -0.7846  0.1914
18325SOL    HW158506   3.332  10.173   4.469 -0.3122 -0.9624  0.0363
18325SOL    HW258507   3.192  10.209   4.515 -0.6115 -1.0913 -0.7479
18326SOL     OW58508   6.831   9.314   6.277 -0.1162 -0.5057 -0.5121
18326SOL    HW158509   6.805   9.364   6.354 -1.4438 -0.1699 -1.1556
18326SOL    HW258510   6.837   9.379   6.207 -1.8583 -1.1965 -1.3587
18327SOL     OW58511   9.441   0.384   1.668  0.3455  0.0229 -0.1129
18327SOL    HW158512   9.523   0.430   1.687 -0.7108  2.3368 -0.8546
18327SOL    HW258513   9.422   0.405   1.577 -0.4893 -1.5117 -0.3401
18328SOL     OW58514   2.829  10.368   5.259  0.3030  0.0069  0.1034
18328SOL    HW158515   2.874  10.335   5.181  1.6018 -0.1919  0.9078
18328SOL    HW258516   2.842  10.300   5.324 -4.5704 -1.9872 -0.6246
18329SOL     OW58517  10.466  10.867  10.516  0.1573 -0.3061 -0.3777
18329SOL    HW158518  10.421  10.785  10.496  1.4779 -1.2286  0.3193
18329SOL    HW258519  10.548  10.862  10.467  0.1849  0.6779 -0.4496
18330SOL     OW58520   3.066   5.852   7.552  0.3785 -0.2102  0.5258
18330SOL    HW158521   2.981   5.869   7.593  0.5011 -1.7532  1.5241
18330SOL    HW258522   3.094   5.769   7.591  2.3504  0.2741  0.2130
18331SOL     OW58523   7.316   7.606   7.439 -0.1978  0.2582 -0.2799
18331SOL    HW158524   7.224   7.594   7.462 -0.2225 -1.5069 -1.1087
18331SOL    HW258525   7.353   7.654   7.513 -1.0035 -2.2922  1.9797
18332SOL     OW58526   5.268   2.000   8.774  0.5056 -0.3564 -0.2020
18332SOL    HW158527   5.281   1.905   8.775  1.6418 -0.2420 -1.4491
18332SOL    HW258528   5.315   2.032   8.851  0.8213 -0.7241 -0.2418
18333SOL     OW58529   3.624   0.511   8.578 -0.1593 -0.3002 -0.1875
18333SOL    HW158530   3.575   0.468   8.647  2.2613 -0.0333  1.8180
18333SOL    HW258531   3.688   0.446   8.549  0.6657  0.5108 -0.2187
18334SOL     OW58532   0.452   7.014  10.940 -0.2080 -0.2599  0.3959
18334SOL    HW158533   0.431   6.920  10.946 -0.1247 -0.1761  3.4193
18334SOL    HW258534   0.512   7.030  11.013 -1.2101  2.3976  0.7362
18335SOL     OW58535  10.528   9.680   8.811 -0.1185  0.3018 -0.4031
18335SOL    HW158536  10.591   9.736   8.856  1.7758 -2.3450  0.4546
18335SOL    HW258537  10.546   9.695   8.718  1.5954 -0.1580 -0.1769
18336SOL     OW58538   1.915  11.036   3.716  0.2797  0.0878  0.3351
18336SOL    HW158539   1.955  11.048   3.802  0.7285 -0.8473  0.2573
18336SOL    HW258540   1.875  10.949   3.719  3.4635 -1.6485 -1.5987
18337SOL     OW58541   5.336   1.969   0.797 -0.3752 -0.5439 -0.0295
18337SOL    HW158542   5.399   1.975   0.869  0.7251  0.8035 -1.0350
18337SOL    HW258543   5.389   1.945   0.721 -1.1319  0.1399 -0.8054
18338SOL     OW58544   1.011  10.390   9.164  0.7640 -0.5378  0.0549
18338SOL    HW158545   0.924  10.408   9.199  0.4368  0.7502 -1.2866
18338SOL    HW258546   1.060  10.352   9.237 -0.5782 -0.2199  1.1510
18339SOL     OW58547   5.221  10.263   6.656  0.6701  0.2651 -0.2324
18339SOL    HW158548   5.164  10.292   6.728  0.6422  0.0777 -0.1787
18339SOL    HW258549   5.167  10.272   6.578  0.5643  0.0849 -0.1814
18340SOL     OW58550   1.837   7.636   3.644  0.4706 -0.0978  0.5531
18340SOL    HW158551   1.910   7.575   3.645  0.1276 -0.5411  2.4004
18340SOL    HW258552   1.877   7.721   3.628  1.2677 -0.4664  0.5272
18341SOL     OW58553   2.033   6.601   1.599  0.8964 -0.2330  0.1373
18341SOL    HW158554   2.122   6.605   1.635  1.1149  1.2161 -0.4935
18341SOL    HW258555   2.026   6.680   1.545 -1.1129  0.2006  0.9593
18342SOL     OW58556   9.079   4.080   5.708 -0.3984 -0.0103  0.3994
18342SOL    HW158557   9.068   4.169   5.742  0.1486 -0.3090  1.3994
18342SOL    HW258558   9.015   4.074   5.637 -1.0532  0.8957  0.8835
18343SOL     OW58559   9.871  10.204   5.882 -0.1268  0.3826 -0.1211
18343SOL    HW158560   9.790  10.155   5.896 -1.0980  2.4307  2.1791
18343SOL    HW258561   9.929  10.175   5.952 -0.2271  1.5187  0.4465
18344SOL     OW58562   4.845   0.103   2.631 -0.7665 -0.3538  0.1858
18344SOL    HW158563   4.872   0.013   2.649  0.4434  0.1725  1.1840
18344SOL    HW258564   4.873   0.120   2.541 -0.2096 -0.7030  0.2874
18345SOL     OW58565   7.067   0.868   6.577 -0.0667 -0.0559  0.5488
18345SOL    HW158566   7.044   0.893   6.488 -1.6400  1.2358  1.2582
18345SOL    HW258567   7.053   0.773   6.580  1.2165 -0.3390 -0.8671
18346SOL     OW58568   8.855   2.615   8.837  0.4029 -0.0726  0.3636
18346SOL    HW158569   8.840   2.521   8.827  0.4135  0.1238 -2.3239
18346SOL    HW258570   8.946   2.622   8.866  0.1846 -0.8878  1.2978
18347SOL     OW58571   0.912   2.964   5.944  0.6856  0.4597  0.4248
18347SOL    HW158572   0.821   2.945   5.964  1.0204 -1.7768  0.1020
18347SOL    HW258573   0.920   3.059   5.952 -1.7733  0.7518 -0.0499
18348SOL     OW58574  10.727   2.924   8.819 -0.1561  0.1161 -0.1372
18348SOL    HW158575  10.672   2.998   8.794 -2.2965 -1.1160  0.6355
18348SOL    HW258576  10.766   2.893   8.737 -0.2215  1.3150 -0.6303
18349SOL     OW58577   2.110  10.993   3.151  0.0791 -0.5249 -0.1028
18349SOL    HW158578   2.087  11.068   3.096 -0.3513  0.6378  1.5866
18349SOL    HW258579   2.096  10.917   3.094 -0.5331  0.5991 -1.5260
18350SOL     OW58580   1.667   7.388   6.729 -0.4292  0.1701 -0.2966
18350SOL    HW158581   1.695   7.302   6.698  1.5154  0.4114  0.6601
18350SOL    HW258582   1.610   7.369   6.804  0.8348 -0.3140  0.5815
18351SOL     OW58583  10.438   1.114   0.026  0.0085  0.2331  0.3162
18351SOL    HW158584  10.514   1.160  -0.009  0.1820  0.5869  1.1429
18351SOL    HW258585  10.365   1.143  -0.028  0.2688  0.7888  0.2609
18352SOL     OW58586  10.158   9.736   9.711  0.3837  0.0152  0.1554
18352SOL    HW158587  10.155   9.718   9.617 -1.0282  2.0599 -0.2555
18352SOL    HW258588  10.190   9.826   9.717  1.4598 -0.4215  1.7352
18353SOL     OW58589   6.028   2.486   3.456  0.2332  0.1946 -0.3077
18353SOL    HW158590   6.114   2.455   3.485 -0.3001 -0.1239  1.0399
18353SOL    HW258591   6.039   2.580   3.443  0.4717  0.4229  1.2659
18354SOL     OW58592   2.788   2.472  10.141  0.3425  0.0515 -0.2288
18354SOL    HW158593   2.784   2.469  10.046 -1.2575 -0.0112 -0.1838
18354SOL    HW258594   2.702   2.440  10.170  0.6533  0.4500  1.2271
18355SOL     OW58595   2.255  10.831   3.338 -0.0400  0.0411 -0.0937
18355SOL    HW158596   2.200  10.876   3.274 -0.4598  1.0837  0.9678
18355SOL    HW258597   2.340  10.875   3.331  0.8028 -1.7036 -1.8786
18356SOL     OW58598   1.101   1.955   9.899 -0.0567  0.1217 -0.0083
18356SOL    HW158599   1.075   1.930   9.987 -1.9342  0.1019 -0.5366
18356SOL    HW258600   1.022   1.992   9.859  0.9937  1.0490 -1.3658
18357SOL     OW58601  10.216   5.630   0.129  0.0572 -0.2481 -0.3947
18357SOL    HW158602  10.213   5.696   0.197  0.8495 -0.9890  0.3920
18357SOL    HW258603  10.278   5.664   0.065  0.0205  0.0358 -0.2783
18358SOL     OW58604   2.295   9.634   1.590 -0.3846  0.2622  0.2766
18358SOL    HW158605   2.359   9.592   1.648  0.7140  1.0447 -0.3244
18358SOL    HW258606   2.217   9.580   1.598  0.1360 -0.3586  1.5334
18359SOL     OW58607   3.079   2.389   7.884  0.2345  1.0673 -0.5057
18359SOL    HW158608   3.146   2.449   7.852  2.0101 -0.5088  0.0518
18359SOL    HW258609   3.109   2.303   7.855 -0.0968  0.0046  2.0095
18360SOL     OW58610  10.398  10.459   8.301 -0.1350  0.0809  0.0752
18360SOL    HW158611  10.400  10.416   8.215 -1.2714  1.7601 -0.8431
18360SOL    HW258612  10.364  10.393   8.361  0.4869 -1.0609 -0.7984
18361SOL     OW58613   6.070   6.553   0.459 -0.3357 -1.1167  0.6437
18361SOL    HW158614   6.148   6.569   0.406 -0.4988 -1.4194  0.3059
18361SOL    HW258615   6.010   6.623   0.435  1.2999  1.6643  3.9207
18362SOL     OW58616   8.605  10.536   7.149  0.1209  0.1338 -0.1333
18362SOL    HW158617   8.641  10.458   7.193  2.4955  0.4299 -1.3906
18362SOL    HW258618   8.586  10.597   7.220  2.7810  0.1740  0.6516
18363SOL     OW58619   1.435   6.966   2.740 -0.3248  0.2672 -0.1921
18363SOL    HW158620   1.471   6.997   2.823 -0.1291  0.1638 -0.2381
18363SOL    HW258621   1.504   6.983   2.675 -0.3949  0.1585 -0.2968
18364SOL     OW58622  11.090   5.040   0.033 -0.2711  0.2350 -0.0480
18364SOL    HW158623  11.056   5.115  -0.017  0.0387  0.7519  0.5009
18364SOL    HW258624  11.184   5.039   0.012 -0.2104  0.2233  0.2217
18365SOL     OW58625   7.811   3.283   7.253 -0.2303  0.2010 -0.4832
18365SOL    HW158626   7.848   3.328   7.177  1.0579  0.1176  0.0584
18365SOL    HW258627   7.771   3.352   7.306  0.7331  0.5708 -0.2149
18366SOL     OW58628   8.998   1.244   7.216  0.5291  0.2214 -0.1273
18366SOL    HW158629   8.958   1.322   7.175  0.1365  0.5259  0.8178
18366SOL    HW258630   9.074   1.225   7.160 -0.5916 -0.0286 -1.6314
18367SOL     OW58631   7.481   6.779   7.056  0.3598 -0.1409 -0.5234
18367SOL    HW158632   7.538   6.772   7.132 -0.8099 -1.7747  0.2888
18367SOL    HW258633   7.509   6.708   6.998  0.4773  0.3426 -1.0630
18368SOL     OW58634   4.248   5.938   8.965 -0.4352 -0.4504  0.1982
18368SOL    HW158635   4.206   5.941   8.879  0.7466  0.2515 -0.3841
18368SOL    HW258636   4.331   5.984   8.953  0.4903 -1.7387  1.3080
18369SOL     OW58637  11.057   2.778   1.505 -0.1726  0.1274 -0.0782
18369SOL    HW158638  10.987   2.713   1.510  1.2363 -1.3772  0.8676
18369SOL    HW258639  11.063   2.814   1.594  0.8699 -0.4451  0.0961
18370SOL     OW58640   7.817   0.594  10.857 -0.2903  0.0054 -1.0025
18370SOL    HW158641   7.724   0.573  10.864 -0.2925 -0.8402 -2.9224
18370SOL    HW258642   7.859   0.511  10.833  0.7070  0.7374 -1.8687
18371SOL     OW58643   7.447   4.587   2.989  0.0549  0.0902  0.2649
18371SOL    HW158644   7.411   4.630   2.911  0.7662 -1.1943 -0.8170
18371SOL    HW258645   7.534   4.625   2.999 -0.2643  0.6898  0.8055
18372SOL     OW58646   1.726   5.843  10.333 -0.1542 -0.7666  0.1828
18372SOL    HW158647   1.721   5.749  10.346 -0.9767 -0.5106  1.9202
18372SOL    HW258648   1.665   5.880  10.396  0.0056  0.9354 -0.5903
18373SOL     OW58649  10.323   2.928   0.704 -0.4647 -0.0812  0.3636
18373SOL    HW158650  10.235   2.893   0.718 -0.2966 -0.6142  0.1502
18373SOL    HW258651  10.322   2.960   0.614 -0.4801  0.0333  0.4048
18374SOL     OW58652   7.218   7.830   4.275 -0.3486 -0.1879  0.9094
18374SOL    HW158653   7.130   7.807   4.246 -0.5125  1.1696  0.2327
18374SOL    HW258654   7.274   7.809   4.201 -0.5262  1.6105  0.2007
18375SOL     OW58655   2.838   1.570   6.330 -0.7695 -0.0709 -0.4668
18375SOL    HW158656   2.842   1.500   6.396 -2.7133 -0.2374 -0.4677
18375SOL    HW258657   2.758   1.618   6.351 -1.0278  0.3428 -2.2462
18376SOL     OW58658   2.760   6.323   5.823  0.1151  0.0299 -0.2247
18376SOL    HW158659   2.686   6.268   5.797  1.6412 -1.1740 -2.2360
18376SOL    HW258660   2.737   6.411   5.792 -1.2871  0.1173  0.9269
18377SOL     OW58661   4.288   1.272   0.440 -0.0545  0.2070 -0.4257
18377SOL    HW158662   4.340   1.233   0.510  1.2539  2.6020  0.0634
18377SOL    HW258663   4.316   1.227   0.360  0.2927 -0.8332  0.2714
18378SOL     OW58664   6.169   5.193   9.812 -0.1968  0.8171 -0.4725
18378SOL    HW158665   6.190   5.105   9.780 -0.9831 -0.3438  1.9354
18378SOL    HW258666   6.100   5.224   9.753  0.3736 -0.0018 -1.6019
18379SOL     OW58667   8.293   7.842   0.662  0.3139 -0.4180  0.4933
18379SOL    HW158668   8.213   7.894   0.650  0.7736  0.0992 -0.3973
18379SOL    HW258669   8.323   7.823   0.574  1.6555  0.1593  0.8045
18380SOL     OW58670   2.707   0.501   2.090  0.5111 -0.3363 -0.1851
18380SOL    HW158671   2.682   0.466   2.175  1.0584 -1.7409 -0.5796
18380SOL    HW258672   2.796   0.533   2.102  0.8360 -1.1508 -0.3930
18381SOL     OW58673   0.040   5.083   1.230  0.0579  0.1338 -0.1037
18381SOL    HW158674  -0.032   5.043   1.182  1.2883  0.1227 -2.0372
18381SOL    HW258675   0.100   5.116   1.162  1.5971  0.6485  1.4172
18382SOL     OW58676   6.241   3.224   7.385 -0.2131 -0.5181 -0.0694
18382SOL    HW158677   6.179   3.197   7.453 -1.7738  1.6484 -0.4931
18382SOL    HW258678   6.322   3.178   7.406 -1.1655 -1.3203  2.1739
18383SOL     OW58679  10.969   2.766   2.669  0.0352  0.1236  0.4374
18383SOL    HW158680  10.952   2.816   2.589  0.3874  2.4098  1.7102
18383SOL    HW258681  11.054   2.796   2.699 -0.5906  0.2132  2.2802
18384SOL     OW58682   7.767   3.277   8.248 -0.7071  0.2663  0.0048
18384SOL    HW158683   7.795   3.220   8.176 -1.0717  1.0252 -0.7607
18384SOL    HW258684   7.704   3.337   8.208 -0.0810  1.4383  0.6953
18385SOL     OW58685   2.487   9.818   0.408 -0.8129  0.0490  0.3068
18385SOL    HW158686   2.520   9.888   0.464 -1.3552 -0.2371  1.0065
18385SOL    HW258687   2.487   9.855   0.320  1.1204  0.1366  0.3091
18386SOL     OW58688   8.159   5.125   7.510  0.4345  0.3212  0.0644
18386SOL    HW158689   8.134   5.051   7.565 -1.2011  0.5083 -0.3844
18386SOL    HW258690   8.212   5.086   7.440  0.4588 -0.2646  0.4005
18387SOL     OW58691   3.722   1.321  11.119  0.7167  0.2743 -0.0946
18387SOL    HW158692   3.802   1.285  11.080  0.5450  0.5910 -0.7437
18387SOL    HW258693   3.709   1.269  11.198  0.9082 -0.5666 -0.6103
18388SOL     OW58694   6.307   2.756   0.533  0.0728  0.3905  0.0237
18388SOL    HW158695   6.289   2.824   0.598  0.1905 -1.0516  1.6150
18388SOL    HW258696   6.226   2.752   0.481 -0.3718  0.9338  0.6474
18389SOL     OW58697   4.399   1.726  10.323  0.1829  0.0802  0.0324
18389SOL    HW158698   4.453   1.750  10.399  1.2748 -1.7214 -0.1132
18389SOL    HW258699   4.310   1.748  10.349  0.7084  0.9424  1.2086
18390SOL     OW58700   7.142   8.125   6.916 -0.1658  0.2932  0.0787
18390SOL    HW158701   7.190   8.194   6.962  2.8566  0.0034 -2.2591
18390SOL    HW258702   7.190   8.045   6.936  0.6577  0.0144 -2.5744
18391SOL     OW58703   2.610   2.488   5.760  0.0845 -0.4782 -0.4315
18391SOL    HW158704   2.625   2.549   5.687  1.7158 -0.5406 -0.1823
18391SOL    HW258705   2.563   2.415   5.721  0.7410 -0.4079 -1.4004
18392SOL     OW58706   0.792   3.913  10.987  0.5575  0.0039 -0.1534
18392SOL    HW158707   0.842   3.890  10.908 -1.2781 -0.3798 -1.2599
18392SOL    HW258708   0.858   3.949  11.047  2.3865 -1.7124 -1.0096
18393SOL     OW58709   2.230   9.948   0.630 -0.1865  0.3410 -0.3328
18393SOL    HW158710   2.219   9.889   0.705  0.3546  0.2417 -0.3325
18393SOL    HW258711   2.251   9.890   0.557 -0.3636  0.4718 -0.4900
18394SOL     OW58712   8.276   7.026   2.667  0.5502  0.1479 -0.4228
18394SOL    HW158713   8.304   7.115   2.685  2.3612 -0.6303  0.9291
18394SOL    HW258714   8.184   7.034   2.643 -0.1987  2.0877  2.5566
18395SOL     OW58715   9.688   0.932   8.927 -1.1732  0.0285 -0.5992
18395SOL    HW158716   9.635   1.011   8.931 -0.7166  0.2937  2.4814
18395SOL    HW258717   9.778   0.963   8.914 -1.0597 -0.0028  0.0833
18396SOL     OW58718   0.885   4.386   9.319 -0.1705 -0.3764 -0.0895
18396SOL    HW158719   0.933   4.314   9.360  1.8439 -0.4695 -2.3563
18396SOL    HW258720   0.951   4.456   9.310 -0.6020 -0.1920 -2.5805
18397SOL     OW58721   6.006   1.586   0.422 -0.4311 -0.5198 -0.4079
18397SOL    HW158722   5.962   1.518   0.473  0.2860  0.7052  1.9712
18397SOL    HW258723   6.098   1.581   0.449 -0.4591  1.7259  0.2545
18398SOL     OW58724   0.636   9.658   8.296  0.4962  0.3558  0.4673
18398SOL    HW158725   0.699   9.726   8.274  1.1534 -0.6038 -0.7883
18398SOL    HW258726   0.570   9.702   8.349  1.2535  1.8018  0.2570
18399SOL     OW58727   4.312   3.608   8.359  0.3139  0.1602  0.7338
18399SOL    HW158728   4.298   3.530   8.412  0.8540  0.0305  0.6920
18399SOL    HW258729   4.360   3.576   8.282 -0.4978  0.3358  0.1412
18400SOL     OW58730   5.757   8.731   7.092 -0.0365 -0.5651 -0.1527
18400SOL    HW158731   5.682   8.771   7.047 -0.1280  1.1891  1.4083
18400SOL    HW258732   5.833   8.777   7.056  0.0363 -0.3506  0.2733
18401SOL     OW58733  10.348   8.807   0.666 -0.1719 -0.2514  0.3337
18401SOL    HW158734  10.429   8.762   0.692 -0.4920  0.2287  2.3525
18401SOL    HW258735  10.368   8.846   0.581  2.0838  0.7454  1.2616
18402SOL     OW58736  10.773   1.369   1.197  0.2405 -0.0328  0.8814
18402SOL    HW158737  10.784   1.403   1.285  0.3882  1.8854  0.1585
18402SOL    HW258738  10.689   1.323   1.199 -0.7323  1.7051  1.5251
18403SOL     OW58739  10.672   1.849   0.743 -0.2876 -0.5179  0.0164
18403SOL    HW158740  10.673   1.928   0.796  0.3912 -1.1969  1.0570
18403SOL    HW258741  10.580   1.824   0.737 -0.2962 -1.0451  1.8453
18404SOL     OW58742   5.116   7.895   5.743  0.1401 -0.4156  0.2118
18404SOL    HW158743   5.167   7.820   5.711  0.5152  1.2182 -3.4896
18404SOL    HW258744   5.174   7.938   5.807  1.5758 -1.0396 -0.6269
18405SOL     OW58745   4.555   6.096   2.517 -0.8120  0.4825  0.4928
18405SOL    HW158746   4.603   6.167   2.559 -3.3648  2.0743  0.9148
18405SOL    HW258747   4.562   6.114   2.423 -2.2649  1.9750  0.6174
18406SOL     OW58748  10.542   2.366   7.460  0.2114  0.2699  0.2909
18406SOL    HW158749  10.524   2.287   7.409  2.0572  0.1087 -0.2108
18406SOL    HW258750  10.580   2.333   7.542  1.8708  0.5914 -0.2980
18407SOL     OW58751   6.699   9.777   5.203 -0.2381 -0.4795  0.1566
18407SOL    HW158752   6.706   9.803   5.111 -0.6126  1.4721  0.6253
18407SOL    HW258753   6.789   9.776   5.234 -0.2358  1.7322  0.4300
18408SOL     OW58754   9.445   6.759   2.357 -0.2429  0.0840 -0.5321
18408SOL    HW158755   9.395   6.780   2.435  0.1148  0.0263 -0.2832
18408SOL    HW258756   9.383   6.716   2.299 -1.5934  3.5395 -1.9127
18409SOL     OW58757   1.625   5.366   9.941 -0.1531 -0.4005  0.8304
18409SOL    HW158758   1.606   5.343   9.850 -0.1402  0.5020  0.5881
18409SOL    HW258759   1.548   5.416   9.969  0.4303  0.4918  0.8725
18410SOL     OW58760   7.854   1.334   4.913  0.2560  0.0663  0.2515
18410SOL    HW158761   7.902   1.359   4.992  0.4734  1.8654 -0.4017
18410SOL    HW258762   7.891   1.389   4.844  0.1616 -1.5498 -1.1619
18411SOL     OW58763   0.504   4.849   3.427  0.0930  0.0099  0.2861
18411SOL    HW158764   0.597   4.873   3.432  0.0054  0.4314 -0.0518
18411SOL    HW258765   0.470   4.898   3.352 -0.9278  1.6212  1.7433
18412SOL     OW58766   9.438   9.005   2.086  0.3051 -0.3264 -0.5475
18412SOL    HW158767   9.397   9.081   2.044  1.4775  1.5040  1.4043
18412SOL    HW258768   9.518   8.990   2.036  1.0517  1.0364  0.1646
18413SOL     OW58769   9.715   7.841   7.580 -0.2035 -0.2812  0.3673
18413SOL    HW158770   9.768   7.919   7.595 -0.8160  0.1663  0.2313
18413SOL    HW258771   9.645   7.845   7.645 -0.8148 -0.1899 -0.2846
18414SOL     OW58772   9.286   3.084   2.583 -0.5334 -0.0654 -0.1522
18414SOL    HW158773   9.333   3.004   2.604  0.1420  0.8860  2.3124
18414SOL    HW258774   9.342   3.155   2.616 -1.3939  1.4087 -1.6772
18415SOL     OW58775   2.357   0.379   8.656  0.4041 -0.3683 -0.2714
18415SOL    HW158776   2.416   0.328   8.711 -1.0442  0.9221  2.6954
18415SOL    HW258777   2.395   0.467   8.654 -1.0784  0.3588  1.2948
18416SOL     OW58778   2.252   4.739   1.778 -0.0378 -0.0139  0.1496
18416SOL    HW158779   2.258   4.767   1.687  1.9430  1.1340  0.5626
18416SOL    HW258780   2.197   4.661   1.776 -0.4316  0.2583 -1.9484
18417SOL     OW58781   2.305   4.336   1.642  0.0876  0.3213 -0.4208
18417SOL    HW158782   2.232   4.385   1.681  0.5559  1.4046 -0.8578
18417SOL    HW258783   2.370   4.403   1.620  1.1590 -0.6096 -0.1831
18418SOL     OW58784  10.507   1.510  10.948  0.4239  0.3176  0.2613
18418SOL    HW158785  10.468   1.557  11.021 -0.6761  0.3793 -0.3451
18418SOL    HW258786  10.434   1.490  10.890  1.1648 -0.3819 -0.4667
18419SOL     OW58787   1.557   2.558   8.253  0.2896 -0.0252  0.0218
18419SOL    HW158788   1.489   2.578   8.318  0.5182 -0.6527  0.4617
18419SOL    HW258789   1.509   2.523   8.178  0.2059 -1.5608  0.7705
18420SOL     OW58790   8.971   8.354   0.599 -0.2221 -0.3302 -0.3971
18420SOL    HW158791   9.040   8.288   0.604 -1.5307 -1.7597 -0.7061
18420SOL    HW258792   8.953   8.378   0.690  1.7708  1.3089 -0.3480
18421SOL     OW58793   9.050  10.344   5.411 -0.1252 -0.3887 -0.0846
18421SOL    HW158794   9.106  10.310   5.341  1.1653  1.2028  0.1151
18421SOL    HW258795   8.982  10.393   5.365  2.0886  2.7649 -0.3474
18422SOL     OW58796   1.203   2.061   4.070 -0.2089  0.7941  0.1139
18422SOL    HW158797   1.226   1.969   4.083  0.0774  0.6275 -1.3692
18422SOL    HW258798   1.281   2.109   4.098  0.8799  0.3847 -1.9788
18423SOL     OW58799   1.670   9.391   1.857 -0.3904  0.0434  0.4398
18423SOL    HW158800   1.607   9.448   1.900 -1.1004 -0.0568 -0.4402
18423SOL    HW258801   1.623   9.354   1.783  0.3531 -0.9351  0.4252
18424SOL     OW58802   2.292  10.610  10.449  0.4117 -0.1044 -0.0545
18424SOL    HW158803   2.269  10.554  10.524 -1.5225 -0.1162 -0.6069
18424SOL    HW258804   2.264  10.560  10.372 -1.4104  1.5952 -0.5620
18425SOL     OW58805   5.357   7.884  10.403  0.1187  0.1296  0.0577
18425SOL    HW158806   5.304   7.910  10.479  1.4226 -0.1086  1.0927
18425SOL    HW258807   5.298   7.892  10.329 -1.4009 -0.2359  1.1728
18426SOL     OW58808   7.767   7.867   2.782 -0.6801 -0.2335 -0.0352
18426SOL    HW158809   7.691   7.813   2.802 -0.4294 -0.4673  0.3082
18426SOL    HW258810   7.737   7.957   2.796 -1.4920 -0.1712 -1.9036
18427SOL     OW58811   4.829   0.937   9.085 -0.3190  0.0989  0.2438
18427SOL    HW158812   4.882   0.866   9.050  3.7551  1.3432  3.1942
18427SOL    HW258813   4.852   1.013   9.032  0.4924  0.5153  1.1574
18428SOL     OW58814   7.816   4.828   9.108 -0.0295 -0.3066  0.2775
18428SOL    HW158815   7.818   4.858   9.017 -1.7063  0.4944  0.4768
18428SOL    HW258816   7.798   4.734   9.101 -0.9719 -0.1017 -0.2081
18429SOL     OW58817   1.509   3.406   4.288 -0.1916 -0.0318 -0.1629
18429SOL    HW158818   1.540   3.496   4.273  2.1533 -0.9047 -1.1044
18429SOL    HW258819   1.430   3.416   4.340 -0.0834  2.5893 -0.3715
18430SOL     OW58820   4.143   2.843   7.701  0.5882  0.2066 -0.4117
18430SOL    HW158821   4.224   2.806   7.735  0.3889 -1.5062 -1.6653
18430SOL    HW258822   4.098   2.769   7.660 -0.9456  1.4025 -0.9966
18431SOL     OW58823   7.464   8.820   4.549  0.8900 -0.3067 -0.1840
18431SOL    HW158824   7.381   8.774   4.538  0.8378 -0.4137  0.5997
18431SOL    HW258825   7.515   8.765   4.609  1.0011  0.4130  0.4074
18432SOL     OW58826   4.961   3.644   8.991  0.5236  0.2106 -0.0040
18432SOL    HW158827   5.035   3.584   9.003  1.3536  1.3054  0.4877
18432SOL    HW258828   4.948   3.648   8.896  1.5000  0.4918 -0.1294
18433SOL     OW58829   4.041   2.529   7.770 -0.5114 -0.0959 -0.0043
18433SOL    HW158830   4.037   2.504   7.863 -0.2272  1.7302  0.5432
18433SOL    HW258831   3.955   2.566   7.752  0.7240  3.7047  0.8927
18434SOL     OW58832   7.174   2.551   5.871  0.7856  0.1914 -0.0478
18434SOL    HW158833   7.267   2.562   5.851  1.2660 -0.6284  1.5775
18434SOL    HW258834   7.170   2.550   5.967 -0.6924 -1.4066 -0.0869
18435SOL     OW58835   5.264   8.221   3.925 -0.4761  0.3852 -0.0539
18435SOL    HW158836   5.227   8.243   3.839 -0.3490  0.4703 -0.0883
18435SOL    HW258837   5.297   8.132   3.915  0.1421  0.6319 -0.3006
18436SOL     OW58838   4.965   5.814   4.309 -0.2637  0.0542 -0.1318
18436SOL    HW158839   5.047   5.772   4.335  0.0258  0.7133  0.0363
18436SOL    HW258840   4.975   5.832   4.216  0.0879  0.7980  0.0407
18437SOL     OW58841   1.098   5.512   5.551  0.3454  0.8273 -0.3024
18437SOL    HW158842   1.173   5.532   5.606 -0.1091 -1.3314  1.2582
18437SOL    HW258843   1.114   5.560   5.470  3.0198  1.0238  0.2475
18438SOL     OW58844   4.088   8.165   7.979 -0.1927  0.5134 -0.2088
18438SOL    HW158845   4.020   8.165   7.911  0.5306  0.0185 -0.9514
18438SOL    HW258846   4.086   8.253   8.015 -2.5014  0.0094  1.0982
18439SOL     OW58847   1.599   8.196   2.320  0.3094 -0.2835  0.1471
18439SOL    HW158848   1.520   8.210   2.373 -1.3493  0.3421 -2.3158
18439SOL    HW258849   1.577   8.123   2.263  0.8695  0.8826 -1.6631
18440SOL     OW58850   6.398   2.902   5.729 -0.4180 -0.2544  0.4067
18440SOL    HW158851   6.323   2.843   5.722 -0.4994 -0.0196 -1.1430
18440SOL    HW258852   6.464   2.852   5.777 -0.3384 -1.7852 -1.1975
18441SOL     OW58853   3.178   0.194   9.386 -0.1129 -0.8254 -0.2642
18441SOL    HW158854   3.124   0.268   9.411 -0.8270 -0.9065 -1.4977
18441SOL    HW258855   3.156   0.126   9.450 -2.0511 -1.1056 -1.1644
18442SOL     OW58856   2.495   5.181   9.922 -0.4201 -0.1031  0.5522
18442SOL    HW158857   2.478   5.208  10.013  0.0602  2.0475  0.0578
18442SOL    HW258858   2.409   5.160   9.887 -0.5297 -1.7524  1.7100
18443SOL     OW58859   0.563   1.344   8.629 -0.1020  0.4402  0.3206
18443SOL    HW158860   0.557   1.428   8.675  0.6092 -0.2184  1.6677
18443SOL    HW258861   0.485   1.343   8.573 -1.2913  1.0829  1.8591
18444SOL     OW58862   3.924   8.720   4.098  0.3085  0.6007 -0.3753
18444SOL    HW158863   4.014   8.690   4.106 -0.3472 -1.2353  0.6517
18444SOL    HW258864   3.921   8.765   4.014  1.4402 -2.1186 -1.9753
18445SOL     OW58865   8.785   5.602   6.371  0.4940  0.0200 -0.5449
18445SOL    HW158866   8.760   5.542   6.300  1.2074 -2.5463  1.2264
18445SOL    HW258867   8.715   5.595   6.435 -0.2537  2.4886 -0.9692
18446SOL     OW58868   4.209   2.705   5.585  0.1939 -0.6283 -0.3579
18446SOL    HW158869   4.175   2.763   5.653  0.9726 -1.2493  0.5896
18446SOL    HW258870   4.157   2.625   5.593 -0.8077 -0.1416 -1.5924
18447SOL     OW58871   1.426   3.386   3.657 -0.0714 -0.1405  0.0541
18447SOL    HW158872   1.492   3.395   3.726  0.5478  0.6908 -0.6269
18447SOL    HW258873   1.351   3.345   3.700  0.2993  0.3887  1.2169
18448SOL     OW58874   1.009  10.848   1.362  0.3611  0.1510  0.4474
18448SOL    HW158875   0.983  10.827   1.452 -0.5057 -0.5957  0.0436
18448SOL    HW258876   1.043  10.766   1.327 -0.2483  0.1734 -0.2162
18449SOL     OW58877   4.813  10.365   3.610  0.4544  0.1974  0.5960
18449SOL    HW158878   4.851  10.355   3.696 -2.0797  0.6437  1.8765
18449SOL    HW258879   4.725  10.401   3.626 -0.3922 -0.3771 -2.0954
18450SOL     OW58880   8.436   1.459   5.928  0.2674 -0.2757  0.1268
18450SOL    HW158881   8.456   1.516   5.854  0.6331 -0.0991  0.3614
18450SOL    HW258882   8.392   1.516   5.991  1.5264 -0.0056  0.7867
18451SOL     OW58883   6.052   0.099   1.174 -0.0071  0.7459 -0.7566
18451SOL    HW158884   6.060   0.037   1.246 -1.4061  0.9752 -0.3689
18451SOL    HW258885   6.123   0.076   1.114  0.0493 -0.6488 -0.1868
18452SOL     OW58886   4.399   8.917   3.240 -0.3404  0.0184 -0.2136
18452SOL    HW158887   4.403   8.844   3.177 -0.3575 -0.3752  0.2361
18452SOL    HW258888   4.435   8.881   3.321  0.4649  0.7664 -0.2237
18453SOL     OW58889   0.589   9.665   5.278  0.0112 -0.0006  0.4918
18453SOL    HW158890   0.647   9.598   5.242  0.5964  0.6360  0.2200
18453SOL    HW258891   0.536   9.693   5.204 -0.0569  0.0090  0.5447
18454SOL     OW58892   1.841   3.390   1.886  0.6050  0.9165 -0.1776
18454SOL    HW158893   1.890   3.465   1.854  1.5802  0.6676  0.6860
18454SOL    HW258894   1.900   3.316   1.876 -0.3779  0.2239 -1.1050
18455SOL     OW58895   3.462   2.862  10.640  0.1543 -0.2276 -0.0994
18455SOL    HW158896   3.447   2.956  10.633  0.5739 -0.2436 -1.3639
18455SOL    HW258897   3.550   2.848  10.606  0.3575 -1.0023  0.7098
18456SOL     OW58898   7.835   7.419   9.465  0.3524 -0.0968  0.1320
18456SOL    HW158899   7.769   7.488   9.473  0.4839  0.2139 -1.1893
18456SOL    HW258900   7.802   7.348   9.518 -1.9795 -0.6148 -1.8300
18457SOL     OW58901   2.454   4.792   7.530 -0.6563  0.0232  0.0733
18457SOL    HW158902   2.419   4.722   7.584  1.0472 -0.9353 -0.0011
18457SOL    HW258903   2.452   4.757   7.441  1.6220 -0.5945  0.2143
18458SOL     OW58904   6.369   0.779   4.845 -0.5530  0.6935 -0.5553
18458SOL    HW158905   6.443   0.835   4.822  0.0587  0.3689  0.5308
18458SOL    HW258906   6.407   0.709   4.899 -1.6350  0.5000 -0.0037
18459SOL     OW58907   3.716   2.579   0.880  0.0999 -0.3729 -0.0031
18459SOL    HW158908   3.713   2.576   0.976 -0.7902  2.1267  0.1288
18459SOL    HW258909   3.791   2.524   0.857 -0.0448 -1.5544  2.0576
18460SOL     OW58910   7.981   5.068   0.693  0.4570 -0.3604  0.0219
18460SOL    HW158911   8.061   5.087   0.644  0.2120  1.7656  0.3507
18460SOL    HW258912   7.911   5.105   0.640 -0.3269 -2.0203 -0.1645
18461SOL     OW58913   4.364  11.036   0.340 -0.0095 -0.3044  0.3437
18461SOL    HW158914   4.390  11.125   0.315  1.5103 -0.5833  0.7840
18461SOL    HW258915   4.288  11.048   0.397 -1.4067  0.5336 -1.5788
18462SOL     OW58916  10.584   2.797   9.290 -0.5746 -0.3553 -0.1733
18462SOL    HW158917  10.489   2.792   9.280 -0.6887  1.9072 -0.7883
18462SOL    HW258918  10.618   2.790   9.200  0.0791 -3.3580  0.1812
18463SOL     OW58919   4.555   9.502   8.396  0.1615 -0.7052  0.1842
18463SOL    HW158920   4.462   9.495   8.419 -0.2698  1.6645 -0.5896
18463SOL    HW258921   4.591   9.564   8.460  0.8452 -0.3809 -0.5003
18464SOL     OW58922   1.473   7.776   0.810  0.1609  0.2104  0.0920
18464SOL    HW158923   1.391   7.730   0.833 -0.6251  1.2650 -0.5356
18464SOL    HW258924   1.449   7.833   0.737  1.1435  1.5105  0.7463
18465SOL     OW58925   6.626  10.380   7.575 -0.7336  0.6897  0.2753
18465SOL    HW158926   6.701  10.323   7.560 -0.6332  1.1649 -1.1769
18465SOL    HW258927   6.591  10.352   7.660 -1.0314 -1.8976 -0.6267
18466SOL     OW58928   7.075   7.338   5.990 -0.3444 -0.0129  0.0759
18466SOL    HW158929   6.993   7.327   5.941  0.4168  0.2616 -1.3016
18466SOL    HW258930   7.139   7.365   5.924  0.4294  1.6462  1.4540
18467SOL     OW58931   5.177  10.542   4.750 -0.3627 -0.3452 -0.2378
18467SOL    HW158932   5.098  10.570   4.702  2.9575  0.4370 -6.3346
18467SOL    HW258933   5.222  10.624   4.770 -0.1623 -0.8496  1.5139
18468SOL     OW58934   4.292   0.598  10.419 -0.3469 -0.4105 -0.0451
18468SOL    HW158935   4.246   0.582  10.502  0.3620 -0.3104  0.3822
18468SOL    HW258936   4.241   0.665  10.375 -1.4279 -1.3576 -0.2578
18469SOL     OW58937   9.107   3.636   5.511 -0.1298  0.1570 -0.1549
18469SOL    HW158938   9.131   3.687   5.589 -1.0132  0.8496 -0.3277
18469SOL    HW258939   9.080   3.701   5.447 -2.1701 -0.5383 -0.0763
18470SOL     OW58940   5.581   8.777   3.377 -0.2257  0.4948 -0.1750
18470SOL    HW158941   5.658   8.823   3.343  1.3788 -1.3850  0.7115
18470SOL    HW258942   5.574   8.805   3.468 -0.3103  0.3311 -0.1304
18471SOL     OW58943   1.842  10.231   9.983  0.5754  0.1342  0.1635
18471SOL    HW158944   1.807  10.274   9.905  1.1735  1.3106  0.5142
18471SOL    HW258945   1.775  10.167  10.007 -0.5042  1.0905 -0.2002
18472SOL     OW58946   3.286  11.112   2.243  0.0186 -0.3745 -0.4275
18472SOL    HW158947   3.343  11.037   2.260  0.7833  0.2174 -0.3012
18472SOL    HW258948   3.208  11.075   2.201  0.3807 -1.2330 -0.3485
18473SOL     OW58949   5.047   6.694   4.215 -0.3077  0.1920 -0.2618
18473SOL    HW158950   4.976   6.678   4.277  1.6258  0.2231  2.0989
18473SOL    HW258951   5.075   6.607   4.187  0.4119  0.0601  0.8452
18474SOL     OW58952   3.769   5.609   5.266 -0.2953 -0.1284  0.6051
18474SOL    HW158953   3.804   5.695   5.243  0.7264 -0.4896  0.7716
18474SOL    HW258954   3.697   5.596   5.205  0.6085  0.1188 -0.5505
18475SOL     OW58955   7.980   1.596   4.050  0.2623 -0.4209  0.3535
18475SOL    HW158956   7.919   1.545   4.104 -0.2156 -1.1521 -0.8352
18475SOL    HW258957   7.947   1.587   3.961 -0.2500  2.5774  0.1350
18476SOL     OW58958   5.698   3.901   0.104 -0.8332  0.3320  0.5728
18476SOL    HW158959   5.769   3.843   0.134 -1.1642 -0.1113  0.5110
18476SOL    HW258960   5.675   3.868   0.018 -0.3984  1.1402  0.1374
18477SOL     OW58961  10.682   2.026  10.661 -0.1988 -0.1964 -0.0111
18477SOL    HW158962  10.631   2.088  10.713  0.1017  1.0702 -1.1956
18477SOL    HW258963  10.755   2.077  10.626  0.4015 -1.3595 -0.5200
18478SOL     OW58964   3.964   8.691   6.380  0.3933 -0.7492 -0.1551
18478SOL    HW158965   3.957   8.596   6.368  3.3237 -0.9741 -0.8861
18478SOL    HW258966   3.970   8.726   6.291  0.3016  0.0380  0.1359
18479SOL     OW58967  10.105   3.642   6.609  0.0709 -0.3781  0.4497
18479SOL    HW158968  10.063   3.699   6.674 -0.5067 -0.6520  0.3203
18479SOL    HW258969  10.156   3.580   6.661 -1.4940 -1.4748  0.7204
18480SOL     OW58970   4.795   5.204   1.264  0.0587 -0.6936 -0.2822
18480SOL    HW158971   4.710   5.163   1.249 -0.0664 -0.1467 -1.1636
18480SOL    HW258972   4.844   5.140   1.315 -1.1881 -0.6544  1.0539
18481SOL     OW58973  10.149   2.523   8.750 -0.3498 -0.0756  0.4446
18481SOL    HW158974  10.131   2.590   8.684  1.4524 -0.8015 -0.8492
18481SOL    HW258975  10.082   2.456   8.734 -1.3157  0.7644  0.8620
18482SOL     OW58976   7.061   8.251  10.810  0.0635  0.4602  0.1407
18482SOL    HW158977   6.965   8.254  10.804  0.1443  0.2916 -2.1163
18482SOL    HW258978   7.089   8.342  10.797  0.2570  0.2239 -1.1894
18483SOL     OW58979   0.937   7.790   1.147  0.3331 -0.3024 -0.3054
18483SOL    HW158980   0.908   7.774   1.237  0.4465  2.1618  0.2273
18483SOL    HW258981   0.856   7.793   1.096  0.3065 -2.5576 -0.5283
18484SOL     OW58982   7.862   8.032   6.048  0.2328  0.3172  0.4551
18484SOL    HW158983   7.833   7.941   6.051  1.0594  0.0624  1.3972
18484SOL    HW258984   7.816   8.075   6.120  2.7941 -0.3289  2.6366
18485SOL     OW58985   7.181   4.878   8.363 -0.2211 -0.0868  1.0359
18485SOL    HW158986   7.165   4.800   8.416  0.1835 -1.5732 -0.9309
18485SOL    HW258987   7.099   4.893   8.316 -0.0304  0.1742  0.7800
18486SOL     OW58988   8.804   8.373   2.962  0.0385 -0.3907  0.8487
18486SOL    HW158989   8.812   8.393   2.869 -1.4432 -0.2042  0.7395
18486SOL    HW258990   8.719   8.329   2.970  0.2657 -0.6431  2.0789
18487SOL     OW58991   9.248   6.139   2.921  0.1558  0.2289 -0.2720
18487SOL    HW158992   9.303   6.217   2.908  1.7623 -0.6686  0.7382
18487SOL    HW258993   9.310   6.071   2.949 -1.6760 -0.3986  2.6570
18488SOL     OW58994   1.021   0.066   4.171  0.2324 -0.4532  0.4126
18488SOL    HW158995   0.936   0.035   4.202 -0.1008 -0.5025 -0.5176
18488SOL    HW258996   1.018   0.161   4.183  0.3023 -0.5183  0.9772
18489SOL     OW58997   4.639   8.722   9.999  0.3160 -0.6852 -0.0881
18489SOL    HW158998   4.558   8.685   9.966  0.4744 -1.0409 -0.0776
18489SOL    HW258999   4.631   8.718  10.094 -1.7563  3.7124  0.1657
18490SOL     OW59000   0.689   8.506   7.624  0.5530  0.5074 -0.1821
18490SOL    HW159001   0.730   8.430   7.665  0.7686  0.0774 -1.1831
18490SOL    HW259002   0.666   8.477   7.536 -0.3720  1.2636 -0.2084
18491SOL     OW59003   0.192   0.906   0.474  0.3462 -0.4959 -0.5725
18491SOL    HW159004   0.193   0.999   0.498 -1.0934 -0.3467 -1.0432
18491SOL    HW259005   0.208   0.860   0.557  0.5386  0.1495 -0.2445
18492SOL     OW59006   6.313   2.939  10.247 -0.3682  0.4781  0.3976
18492SOL    HW159007   6.240   2.921  10.306 -1.4307  0.4328 -0.8923
18492SOL    HW259008   6.359   2.855  10.240 -1.9121 -0.2968 -1.0375
18493SOL     OW59009   5.703   1.422   7.458 -0.9042 -0.0675 -0.2903
18493SOL    HW159010   5.709   1.419   7.553 -1.5080 -0.2320 -0.2554
18493SOL    HW259011   5.792   1.443   7.429 -0.5794 -0.6233  0.2826
18494SOL     OW59012   1.177   0.717   9.064  0.5094 -0.0156  0.2884
18494SOL    HW159013   1.216   0.640   9.107 -0.5602 -0.0446  1.2693
18494SOL    HW259014   1.084   0.696   9.058  0.3945  0.7034 -0.5729
18495SOL     OW59015   6.502   8.762   2.757  0.1528 -0.2572  0.1095
18495SOL    HW159016   6.456   8.746   2.840 -1.6440  0.7371 -0.6197
18495SOL    HW259017   6.494   8.679   2.709 -1.2673 -0.0105 -0.1372
18496SOL     OW59018   4.407   0.204   4.614  0.0919 -0.7037 -0.6425
18496SOL    HW159019   4.313   0.194   4.628  0.2171 -3.9658 -1.4297
18496SOL    HW259020   4.417   0.204   4.519  0.7954  1.8860 -0.6529
18497SOL     OW59021   5.619   1.632   2.856  0.1054 -0.0638  0.3438
18497SOL    HW159022   5.575   1.592   2.930 -1.2839  0.4294 -0.1857
18497SOL    HW259023   5.696   1.577   2.841 -0.1961 -0.8091  1.4373
18498SOL     OW59024   4.586   4.452   7.662 -0.3857 -0.2931  0.2775
18498SOL    HW159025   4.558   4.454   7.754 -0.5386  0.0060  0.2248
18498SOL    HW259026   4.655   4.518   7.656 -0.0887 -0.6010  0.2677
18499SOL     OW59027   8.875   3.315   7.073 -0.2476 -0.7756 -0.1404
18499SOL    HW159028   8.908   3.251   7.010 -1.0000  0.7333 -2.1682
18499SOL    HW259029   8.799   3.354   7.030 -1.1140 -0.0257  1.9421
18500SOL     OW59030   1.258   0.849   9.826  0.3710 -0.0424 -0.0236
18500SOL    HW159031   1.269   0.923   9.886  0.6558 -0.1759  0.0902
18500SOL    HW259032   1.325   0.787   9.852  0.5800 -0.0481 -0.5609
18501SOL     OW59033   9.603  10.130   2.790 -0.1237  0.0444 -0.6643
18501SOL    HW159034   9.668  10.153   2.856  0.3154 -2.4486 -0.1235
18501SOL    HW259035   9.597  10.208   2.734 -0.3111  2.1558  2.0522
18502SOL     OW59036   7.655  10.793   5.019  0.2961 -0.1557  0.4911
18502SOL    HW159037   7.647  10.888   5.013 -0.0544 -0.2456 -0.5266
18502SOL    HW259038   7.686  10.777   5.109 -0.6855  0.8430  1.0190
18503SOL     OW59039   6.044   1.362  10.881 -0.1945  0.0728 -0.5317
18503SOL    HW159040   6.005   1.427  10.823 -0.7455 -2.2969 -3.0331
18503SOL    HW259041   5.974   1.298  10.896  0.3871 -0.1278  1.6475
18504SOL     OW59042   4.914   2.502   6.608  0.7576  0.0897 -0.2226
18504SOL    HW159043   4.961   2.419   6.621 -0.0850 -0.4495 -0.5352
18504SOL    HW259044   4.983   2.566   6.592  1.4690 -0.4214  0.6613
18505SOL     OW59045   4.527   1.233   2.197 -0.4777  0.1552 -0.8013
18505SOL    HW159046   4.604   1.176   2.202 -0.9707 -0.4051  1.4625
18505SOL    HW259047   4.459   1.187   2.245 -2.0511  0.9753 -2.1315
18506SOL     OW59048   3.271   8.412   5.194 -0.6696 -0.6933 -0.7065
18506SOL    HW159049   3.188   8.456   5.211 -0.4967 -0.8409  0.5827
18506SOL    HW259050   3.292   8.367   5.276  1.2069  0.1922 -0.6539
18507SOL     OW59051   8.330   0.616   9.547  0.8461 -0.8405 -0.3550
18507SOL    HW159052   8.270   0.557   9.500 -0.4618  1.3565 -1.6428
18507SOL    HW259053   8.358   0.679   9.480  1.1783  0.7400  1.1950
18508SOL     OW59054   5.360   0.786   3.306  0.3947 -0.2382  0.8029
18508SOL    HW159055   5.351   0.691   3.308  1.5949 -0.4411 -0.7945
18508SOL    HW259056   5.454   0.801   3.301  0.2168  1.0286  0.9394
18509SOL     OW59057   4.349   6.910   5.540  0.7122  0.5209 -0.1399
18509SOL    HW159058   4.332   7.005   5.539 -0.7772  0.3269  1.3552
18509SOL    HW259059   4.335   6.885   5.631 -2.5945 -1.7100 -1.0808
18510SOL     OW59060   8.455   0.944   6.102 -0.4306 -0.0285 -0.3835
18510SOL    HW159061   8.370   0.950   6.145  0.6699  0.9422  1.8238
18510SOL    HW259062   8.461   1.023   6.048 -1.0320 -0.2630 -0.8072
18511SOL     OW59063   4.176   5.232  10.341 -0.3310 -0.3556 -0.0662
18511SOL    HW159064   4.131   5.201  10.420  0.2617  0.9011  0.8074
18511SOL    HW259065   4.153   5.325  10.336  2.7819  0.5968  0.9420
18512SOL     OW59066   6.917   8.863   7.800  0.2521  0.2649 -1.0275
18512SOL    HW159067   6.862   8.823   7.868  1.7918 -2.5160 -1.2755
18512SOL    HW259068   6.872   8.845   7.718  0.5756 -0.3823 -1.0736
18513SOL     OW59069  10.416   0.415   9.981  0.2153  0.0286 -0.4180
18513SOL    HW159070  10.359   0.350   9.941  0.3607  0.2403 -0.9792
18513SOL    HW259071  10.395   0.497   9.937 -2.8909  1.3540  2.9746
18514SOL     OW59072   0.155  10.506  10.649  0.5804 -0.2261 -0.2769
18514SOL    HW159073   0.167  10.411  10.649  1.8269 -0.1100  0.9781
18514SOL    HW259074   0.244  10.541  10.644  0.2326  0.8528  0.6180
18515SOL     OW59075   2.128   4.839   7.039  0.4094 -0.1617  0.2789
18515SOL    HW159076   2.119   4.770   7.104  0.4935  0.0973  0.5677
18515SOL    HW259077   2.061   4.819   6.974 -1.7755  1.2081  1.9325
18516SOL     OW59078   5.527   5.009   7.702  0.2680  0.0577 -0.0812
18516SOL    HW159079   5.559   4.927   7.740  0.6796  0.6840  0.9746
18516SOL    HW259080   5.436   4.992   7.679  0.4748 -0.8212 -0.2883
18517SOL     OW59081  10.780   2.903   5.783 -0.3039 -0.2533  0.1240
18517SOL    HW159082  10.686   2.925   5.781 -0.6420 -1.5306  0.5948
18517SOL    HW259083  10.801   2.903   5.877  0.0674 -0.3517  0.0382
18518SOL     OW59084   3.169  10.595   2.808 -0.5914 -0.3031  0.4703
18518SOL    HW159085   3.075  10.604   2.823 -0.9673 -2.2447 -0.3632
18518SOL    HW259086   3.205  10.569   2.893 -1.1173 -1.3180  0.3972
18519SOL     OW59087   1.403  10.850   1.842 -0.0046  0.2937  0.0005
18519SOL    HW159088   1.448  10.765   1.851  1.6259  1.0068 -0.9160
18519SOL    HW259089   1.457  10.898   1.779 -1.4852  1.6371 -0.2905
18520SOL     OW59090   3.414   0.776   5.641  0.8188  0.3817  0.1115
18520SOL    HW159091   3.380   0.824   5.716 -0.8327  0.9033 -0.9295
18520SOL    HW259092   3.466   0.840   5.592  2.0158  0.0043  0.8542
18521SOL     OW59093  10.052   6.600   2.831 -0.0339  0.3505 -0.4096
18521SOL    HW159094  10.044   6.584   2.925  4.1242  0.3692  0.1079
18521SOL    HW259095  10.007   6.684   2.818 -1.6039 -0.1433  1.2825
18522SOL     OW59096   1.299   9.463   6.608 -0.2861  0.2577  0.3294
18522SOL    HW159097   1.225   9.433   6.555  0.6474 -0.7198 -0.4502
18522SOL    HW259098   1.338   9.533   6.557 -1.1927  1.4308  1.1739
18523SOL     OW59099   2.592   3.635   6.161  0.1778  0.0067  0.6521
18523SOL    HW159100   2.519   3.627   6.223  0.0826  0.0039  0.5397
18523SOL    HW259101   2.655   3.693   6.205 -0.0861  0.3610  0.5668
18524SOL     OW59102   9.907   8.025   0.604  0.1422 -0.5563 -0.3972
18524SOL    HW159103   9.970   8.003   0.673  0.0087  0.5816  0.1045
18524SOL    HW259104   9.839   8.075   0.649 -0.5655 -0.8311 -1.1414
18525SOL     OW59105   3.079   5.554   6.211  0.1779  0.0505  0.2407
18525SOL    HW159106   3.064   5.464   6.180  0.2399  0.1535 -0.0924
18525SOL    HW259107   3.126   5.596   6.139  0.1251  0.3582  0.3863
18526SOL     OW59108   4.824   6.636   0.846 -0.3354 -0.2108  0.0590
18526SOL    HW159109   4.844   6.626   0.939 -0.1474  1.1100  0.1811
18526SOL    HW259110   4.821   6.547   0.812  2.2191 -0.6399  0.7640
18527SOL     OW59111   5.417  10.757   4.621  0.1501  0.2577  0.1740
18527SOL    HW159112   5.446  10.688   4.681 -0.3491 -1.8709 -1.9048
18527SOL    HW259113   5.321  10.759   4.632  0.1171  0.2747 -0.1121
18528SOL     OW59114   4.412   9.762   9.218  0.2408  0.2149  0.5527
18528SOL    HW159115   4.459   9.679   9.226  1.0227  0.5729 -0.1831
18528SOL    HW259116   4.361   9.769   9.299 -0.1948 -1.1930  0.4081
18529SOL     OW59117   7.336   4.184   3.053 -0.2531 -0.3006 -0.5000
18529SOL    HW159118   7.245   4.155   3.061  0.1864 -1.4791  0.5511
18529SOL    HW259119   7.386   4.120   3.103  1.0452  0.9769 -0.0862
18530SOL     OW59120   0.239   2.324   3.630  0.1156 -0.1521  1.0487
18530SOL    HW159121   0.164   2.329   3.688 -0.0694 -2.7126  1.1509
18530SOL    HW259122   0.208   2.274   3.554  0.9351  1.2914 -0.3025
18531SOL     OW59123   9.340   3.550   9.680  0.1493 -0.5266 -0.4799
18531SOL    HW159124   9.275   3.517   9.741  0.0068 -0.4754 -0.6043
18531SOL    HW259125   9.400   3.477   9.666  1.7131  0.2255  1.7688
18532SOL     OW59126   8.064   7.796   0.123 -0.5710 -0.0579  0.2449
18532SOL    HW159127   8.142   7.744   0.143 -0.9320 -0.2903  1.0716
18532SOL    HW259128   8.096   7.886   0.117 -0.1437 -0.2244 -0.0228
18533SOL     OW59129   3.981   5.453   5.544  0.2898  0.1073 -0.2008
18533SOL    HW159130   3.995   5.547   5.553  0.3629  0.0257  0.5601
18533SOL    HW259131   3.886   5.444   5.536  0.3792  0.3830 -2.1061
18534SOL     OW59132   0.328   3.608   2.715  0.4428 -0.2251  0.1337
18534SOL    HW159133   0.314   3.516   2.696 -1.7739 -0.4502  2.3461
18534SOL    HW259134   0.393   3.636   2.651 -0.5776 -2.6893 -2.1672
18535SOL     OW59135   7.576   6.238   8.304  0.3750 -0.5372  0.6659
18535SOL    HW159136   7.487   6.207   8.288  0.5720 -0.8530  0.1363
18535SOL    HW259137   7.597   6.207   8.393  0.9748 -3.0122 -0.2369
18536SOL     OW59138   2.021   0.580   2.013 -0.6818 -0.3478  0.5205
18536SOL    HW159139   1.966   0.585   1.935  1.2388 -1.9214 -1.0659
18536SOL    HW259140   1.986   0.506   2.062  0.3477 -1.8723 -0.8902
18537SOL     OW59141   9.346   6.822  10.077 -0.1195 -0.1232  0.7520
18537SOL    HW159142   9.401   6.783  10.145 -0.6408 -0.7322  0.8413
18537SOL    HW259143   9.367   6.915  10.080 -0.1261 -0.1345  1.7483
18538SOL     OW59144  10.344   3.611   0.021  0.5174 -0.1408  0.1785
18538SOL    HW159145  10.381   3.657  -0.054 -4.1248  1.1016 -1.6950
18538SOL    HW259146  10.336   3.520  -0.007  0.4513 -0.0515 -0.0899
18539SOL     OW59147   2.961   5.559   2.279 -0.4699 -0.1682 -0.3231
18539SOL    HW159148   2.969   5.464   2.267 -0.9544 -0.2099 -0.3394
18539SOL    HW259149   2.927   5.569   2.367 -2.8895 -0.1394 -1.1887
18540SOL     OW59150   2.012   4.625   6.376  0.3986  0.2423 -0.5787
18540SOL    HW159151   2.084   4.674   6.415 -0.1976 -0.2463  1.2625
18540SOL    HW259152   1.935   4.679   6.391  0.0339 -0.3410 -0.3064
18541SOL     OW59153   3.149   8.019   9.432 -0.0236  0.3903 -0.4627
18541SOL    HW159154   3.152   8.008   9.527 -0.7778  0.0182 -0.4672
18541SOL    HW259155   3.236   8.049   9.408  0.1141  0.6870  0.3723
18542SOL     OW59156   9.545   0.295   8.103 -0.5760 -0.1509 -0.4128
18542SOL    HW159157   9.452   0.287   8.085 -0.4929 -1.4587 -0.3510
18542SOL    HW259158   9.573   0.207   8.128  0.7060  0.1831 -0.5676
18543SOL     OW59159   3.477   9.980   3.455  0.4783  0.1805  0.0640
18543SOL    HW159160   3.571   9.990   3.443  0.7399 -0.4146  1.4047
18543SOL    HW259161   3.443  10.069   3.464  1.3828  0.3588  2.5350
18544SOL     OW59162   7.774   8.545   4.259 -0.0046 -0.9702 -0.0990
18544SOL    HW159163   7.736   8.632   4.243  1.3699 -0.6848 -2.3206
18544SOL    HW259164   7.717   8.485   4.211  0.0980 -1.0553 -0.1147
18545SOL     OW59165   0.552   4.158   1.928  0.5563  0.3728  0.1683
18545SOL    HW159166   0.502   4.165   1.847  0.2914 -1.5760  0.1312
18545SOL    HW259167   0.594   4.244   1.937  1.0809  0.4736 -2.3494
18546SOL     OW59168   2.488   7.054   4.131 -0.6165  0.2485 -0.6396
18546SOL    HW159169   2.418   6.992   4.152 -0.6460  0.7903  1.0046
18546SOL    HW259170   2.520   7.084   4.216 -0.0159  1.8409 -1.3863
18547SOL     OW59171   8.078   9.700  10.037 -0.1627 -0.2727 -0.5119
18547SOL    HW159172   7.999   9.754  10.044 -0.3899 -0.4961 -1.3024
18547SOL    HW259173   8.053   9.628   9.979  1.1921  0.7628 -2.5177
18548SOL     OW59174   9.039   3.823   3.006  0.2059  0.0168  0.7395
18548SOL    HW159175   8.986   3.745   2.990  1.1018 -0.9049  2.0189
18548SOL    HW259176   9.051   3.862   2.920 -0.9130 -0.8238  0.1737
18549SOL     OW59177   1.701   3.697   0.700 -0.4769  0.0446  0.0466
18549SOL    HW159178   1.796   3.688   0.690 -0.6243 -0.1804 -1.3192
18549SOL    HW259179   1.682   3.651   0.782  0.3406 -1.7642 -0.7105
18550SOL     OW59180   1.202   7.453   1.127 -0.3669 -0.3142 -0.0684
18550SOL    HW159181   1.208   7.454   1.032 -1.7015  1.6883 -0.1857
18550SOL    HW259182   1.204   7.360   1.151 -1.2554 -0.9080 -2.1286
18551SOL     OW59183   4.259   7.072   7.194  0.0037  0.1268  0.0014
18551SOL    HW159184   4.323   7.032   7.252  1.0922  0.0338 -1.2060
18551SOL    HW259185   4.217   7.140   7.247 -1.1266 -1.8192  1.7598
18552SOL     OW59186  10.368   8.308   4.786  0.1950 -0.0754 -0.4074
18552SOL    HW159187  10.410   8.311   4.871 -1.5521  1.0332  0.4811
18552SOL    HW259188  10.388   8.393   4.746 -0.0345 -0.0882 -0.5563
18553SOL     OW59189   9.585   1.752   7.217 -0.0086  0.0465  0.2781
18553SOL    HW159190   9.523   1.745   7.144  0.2334  1.9634 -0.1702
18553SOL    HW259191   9.632   1.834   7.201  1.1334 -0.2643  1.7778
18554SOL     OW59192   7.879  10.014   9.736 -0.3226  0.0936 -0.7822
18554SOL    HW159193   7.911  10.101   9.759  0.0767 -0.2156 -0.1318
18554SOL    HW259194   7.866   9.970   9.820 -0.1021 -0.6213 -1.1129
18555SOL     OW59195   0.991  10.144   5.817  0.0599  0.9797 -0.3057
18555SOL    HW159196   1.081  10.116   5.799 -0.3552 -0.7447  0.0762
18555SOL    HW259197   0.969  10.204   5.746  1.1546  0.6097 -0.9807
18556SOL     OW59198  11.051   3.042   5.876 -0.0970  0.3975 -0.2983
18556SOL    HW159199  11.023   3.083   5.958  0.9248 -0.3408  0.4500
18556SOL    HW259200  10.983   3.064   5.813 -2.1580 -0.9801  1.3177
18557SOL     OW59201   6.367   1.348   0.358 -0.1374  0.4334 -0.0484
18557SOL    HW159202   6.330   1.337   0.270 -1.0859 -0.2601  0.4183
18557SOL    HW259203   6.397   1.439   0.360 -1.4371  0.9084 -0.6102
18558SOL     OW59204   1.012   1.176   0.702 -0.3434 -0.5139  0.0852
18558SOL    HW159205   0.997   1.132   0.785  1.4611  0.4306  0.9658
18558SOL    HW259206   1.047   1.262   0.726  1.2965 -0.6346 -1.6359
18559SOL     OW59207   4.924   6.820   7.397 -0.2559 -0.2708 -0.3000
18559SOL    HW159208   4.968   6.800   7.480  0.6369 -0.9225 -0.9061
18559SOL    HW259209   4.989   6.870   7.348 -1.0516  0.7627 -0.3250
18560SOL     OW59210   6.122   3.262   7.688 -0.2139  0.0343 -0.5402
18560SOL    HW159211   6.063   3.193   7.717 -0.5004  0.5241  0.0652
18560SOL    HW259212   6.182   3.275   7.761 -0.7905  1.1096 -0.2332
18561SOL     OW59213   3.289  10.888   7.764 -0.3095  0.2853  0.3134
18561SOL    HW159214   3.196  10.862   7.771  0.3969 -2.3917  1.3250
18561SOL    HW259215   3.317  10.854   7.679  0.2190 -0.9236  0.9352
18562SOL     OW59216   2.944   6.682   7.728  0.9502 -0.1180 -0.0499
18562SOL    HW159217   2.946   6.753   7.663 -0.8563  2.1868  2.1791
18562SOL    HW259218   2.859   6.639   7.713  0.8252 -0.0078  0.3306
18563SOL     OW59219   0.296   0.218   0.034  0.5303  0.4938 -0.2011
18563SOL    HW159220   0.336   0.237   0.118  0.3362  0.8664 -0.1903
18563SOL    HW259221   0.228   0.154   0.053  1.8674 -1.0644 -0.3845
18564SOL     OW59222   2.073   7.511   3.692 -0.5351  0.1600  0.3433
18564SOL    HW159223   2.099   7.429   3.734  1.7840  1.9259  2.6319
18564SOL    HW259224   2.150   7.568   3.699 -1.6484  2.2173 -2.1844
18565SOL     OW59225   9.780   8.205   2.707  0.0061  0.7887  0.1546
18565SOL    HW159226   9.763   8.282   2.653  1.8172  0.8251 -0.4078
18565SOL    HW259227   9.774   8.131   2.647  0.5512  0.6947  0.2165
18566SOL     OW59228   7.746   3.089   4.580  0.0959 -0.3936  0.5834
18566SOL    HW159229   7.729   3.105   4.487  0.3488  0.2823  0.6517
18566SOL    HW259230   7.662   3.057   4.614 -0.5581  1.1823  0.5236
18567SOL     OW59231   0.759   6.013   3.853 -0.4833  0.2575  0.4323
18567SOL    HW159232   0.757   6.043   3.943  0.0614 -1.9904  1.2474
18567SOL    HW259233   0.852   6.009   3.831 -0.5732 -0.1985  0.1241
18568SOL     OW59234   5.525   8.712   9.141  0.0312 -0.4611  0.6069
18568SOL    HW159235   5.467   8.774   9.184 -1.6468 -2.7429  1.8632
18568SOL    HW259236   5.474   8.678   9.067  1.7523  1.1774 -1.4499
18569SOL     OW59237   3.477   0.956   5.077 -0.1029 -0.6602 -0.2556
18569SOL    HW159238   3.555   0.995   5.038 -1.0431  1.0599 -0.4951
18569SOL    HW259239   3.449   0.890   5.013  0.3617 -0.3096 -0.8292
18570SOL     OW59240   4.738   6.462   9.343  0.2559 -0.7903 -0.1827
18570SOL    HW159241   4.800   6.534   9.359 -0.9680  0.1960  0.2603
18570SOL    HW259242   4.770   6.391   9.400  2.1939 -1.0852 -1.5332
18571SOL     OW59243   3.827   5.322   3.418 -0.3200  0.1928 -0.3044
18571SOL    HW159244   3.785   5.236   3.417 -1.4434  0.7172 -0.8819
18571SOL    HW259245   3.813   5.354   3.507 -1.2971  0.4075 -0.5186
18572SOL     OW59246   2.770  10.761   6.955  0.0364  0.3039 -0.2741
18572SOL    HW159247   2.712  10.787   6.884 -0.0588 -0.3446 -0.4357
18572SOL    HW259248   2.782  10.841   7.006  1.2762  1.1743 -1.8238
18573SOL     OW59249   0.619   1.370  10.391  0.1415  0.2057 -0.0059
18573SOL    HW159250   0.579   1.358  10.477  1.4459  0.3495  0.6374
18573SOL    HW259251   0.582   1.452  10.358  0.4289  0.6955  0.8733
18574SOL     OW59252   5.373   8.223   0.838  0.1296  0.3361  0.0491
18574SOL    HW159253   5.293   8.188   0.797  0.8256 -0.5701 -0.5624
18574SOL    HW259254   5.393   8.302   0.787  0.6340 -0.4357 -0.9648
18575SOL     OW59255   0.218   1.397   2.564  0.4367 -0.3708  0.1493
18575SOL    HW159256   0.188   1.389   2.654  2.0852 -1.4533  0.6605
18575SOL    HW259257   0.139   1.389   2.511 -0.4324 -0.7891  1.4697
18576SOL     OW59258   9.405   1.179   2.816  0.2692 -0.1233  0.2060
18576SOL    HW159259   9.446   1.130   2.745  0.4746 -1.3725  1.1467
18576SOL    HW259260   9.410   1.120   2.892 -2.4789 -0.0385  0.5856
18577SOL     OW59261   9.462   4.418   6.088  0.4507  0.2209 -0.0851
18577SOL    HW159262   9.519   4.344   6.069  1.7519  0.6423  1.8880
18577SOL    HW259263   9.521   4.491   6.104 -0.7605  1.3913 -0.7217
18578SOL     OW59264   5.788  10.859   0.184  0.3258  0.4093  0.4475
18578SOL    HW159265   5.822  10.859   0.274  2.7159  0.7079 -0.3857
18578SOL    HW259266   5.695  10.880   0.194  0.9759  2.7907  2.7189
18579SOL     OW59267   9.293   3.390   0.999  0.7668  0.4652 -0.0764
18579SOL    HW159268   9.224   3.342   0.953  1.2283  0.7455 -1.0863
18579SOL    HW259269   9.370   3.381   0.943  1.4100  0.6336  0.7587
18580SOL     OW59270  10.295  10.242   5.692 -0.2903  0.7382 -0.0420
18580SOL    HW159271  10.292  10.179   5.621 -0.4837  0.5977  0.0904
18580SOL    HW259272  10.282  10.190   5.771 -0.1750  0.9060  0.0896
18581SOL     OW59273   6.348  10.466   2.412  0.0021 -0.0478  0.2374
18581SOL    HW159274   6.443  10.468   2.409  0.0018 -0.7272 -0.4517
18581SOL    HW259275   6.322  10.405   2.342 -0.9865  1.2901 -0.6372
18582SOL     OW59276   9.792   0.308   4.285  0.5384 -0.3264 -0.3266
18582SOL    HW159277   9.833   0.367   4.222 -2.5753  1.1309 -1.1492
18582SOL    HW259278   9.750   0.365   4.349 -0.7138 -1.6667  0.1081
18583SOL     OW59279  10.684   0.754   1.467 -0.0877  0.1160  0.0639
18583SOL    HW159280  10.617   0.782   1.405  1.8677  1.9747 -1.3518
18583SOL    HW259281  10.730   0.683   1.423 -0.7141 -0.7617  0.7885
18584SOL     OW59282   3.462  10.955   2.397 -0.3238  0.6574 -0.0726
18584SOL    HW159283   3.522  10.900   2.348 -0.6374  1.8736 -1.9205
18584SOL    HW259284   3.512  11.035   2.416 -0.0028 -0.0132  2.2124
18585SOL     OW59285   6.429   6.775  10.367 -0.3686  0.1430 -0.8991
18585SOL    HW159286   6.522   6.789  10.348  0.0301 -1.1181  0.0152
18585SOL    HW259287   6.391   6.863  10.367  0.8110  0.6726 -1.3115
18586SOL     OW59288   4.364   8.485  10.753  0.0106 -0.5336  0.2341
18586SOL    HW159289   4.457   8.491  10.732 -0.1678 -0.5651 -0.5970
18586SOL    HW259290   4.335   8.403  10.713 -1.3531  1.5713 -3.6278
18587SOL     OW59291   6.108   7.169   3.534 -0.7039 -0.0647 -0.6168
18587SOL    HW159292   6.081   7.102   3.471  0.0476 -0.5976 -0.3889
18587SOL    HW259293   6.201   7.182   3.516 -0.8974  1.1152 -0.8279
18588SOL     OW59294   6.979   8.702   0.959 -0.1040  0.1259 -0.1929
18588SOL    HW159295   7.056   8.689   1.014 -1.6598 -1.9696  1.6641
18588SOL    HW259296   6.988   8.791   0.925  2.4831  0.3678  0.9212
18589SOL     OW59297   1.224  10.387   3.352 -0.5338 -0.5221  0.1890
18589SOL    HW159298   1.317  10.386   3.375 -0.4627 -0.1988 -0.0816
18589SOL    HW259299   1.198  10.295   3.355 -0.2042 -0.6161  0.2560
18590SOL     OW59300   5.317   3.550   5.750  0.3370  0.1117 -0.1357
18590SOL    HW159301   5.289   3.521   5.663  0.6986 -2.0485  0.3986
18590SOL    HW259302   5.412   3.540   5.749  0.4326  0.9647  0.2049
18591SOL     OW59303   7.670   2.426   1.261  0.4802 -0.1878 -0.4211
18591SOL    HW159304   7.706   2.337   1.270 -0.5128 -0.4628  1.1659
18591SOL    HW259305   7.578   2.417   1.284 -0.0839  0.9503 -2.0754
18592SOL     OW59306   2.256   4.313   1.039  0.2707 -0.3107 -0.7471
18592SOL    HW159307   2.291   4.302   1.127  0.0337 -1.5930 -0.7805
18592SOL    HW259308   2.224   4.403   1.036 -2.9936 -1.1830  1.7128
18593SOL     OW59309   2.480   7.625   8.079 -0.1558  0.3432 -0.0772
18593SOL    HW159310   2.427   7.546   8.086  0.8795 -0.3553  0.2169
18593SOL    HW259311   2.418   7.696   8.062 -1.1963 -0.3823  0.6677
18594SOL     OW59312   8.978   1.703   8.510 -0.4942  0.5282 -0.1772
18594SOL    HW159313   8.903   1.668   8.463 -0.7291  0.9554 -0.1198
18594SOL    HW259314   9.005   1.632   8.569 -0.5917  0.2257 -0.4976
18595SOL     OW59315   3.491   6.673   6.549  0.6700  0.1761 -0.0798
18595SOL    HW159316   3.400   6.678   6.579  0.2128 -0.0535 -1.3450
18595SOL    HW259317   3.535   6.743   6.595  1.0371 -2.5363  4.2788
18596SOL     OW59318  11.069   4.794   8.484  0.1297 -0.3000 -0.2718
18596SOL    HW159319  10.976   4.784   8.504  0.4308 -0.5527  1.1493
18596SOL    HW259320  11.112   4.730   8.541  1.0546 -1.6324 -2.3606
18597SOL     OW59321   6.461   1.341  10.698 -0.0198  0.0522 -0.3825
18597SOL    HW159322   6.515   1.267  10.671  1.1838  0.2535  1.3327
18597SOL    HW259323   6.487   1.412  10.639 -0.1061 -0.4632 -1.0625
18598SOL     OW59324   0.267   4.759   8.193 -0.4168  0.5065 -0.3684
18598SOL    HW159325   0.187   4.809   8.177 -0.7493  0.2322  0.3888
18598SOL    HW259326   0.324   4.782   8.120 -1.2949  0.4715 -1.0903
18599SOL     OW59327   5.806   5.043   4.160  0.0318 -0.2570  0.1369
18599SOL    HW159328   5.894   5.045   4.197  0.7531 -0.4346 -1.4864
18599SOL    HW259329   5.819   5.028   4.066 -1.5997  2.0734 -0.5586
18600SOL     OW59330   7.240   2.565   3.449 -0.0033 -0.5355 -0.2572
18600SOL    HW159331   7.253   2.658   3.428 -2.0810 -0.6031 -2.2098
18600SOL    HW259332   7.145   2.555   3.457  0.2130 -2.3891  0.6117
18601SOL     OW59333   0.483   1.591   7.725  0.4152  0.7816 -0.3078
18601SOL    HW159334   0.537   1.632   7.792 -0.1842 -0.6062  1.0908
18601SOL    HW259335   0.447   1.513   7.768 -1.0707  0.5760 -1.8360
18602SOL     OW59336   1.843   8.893   0.666  0.3177 -0.4288  0.0429
18602SOL    HW159337   1.916   8.835   0.644 -0.5456 -1.1637 -1.0502
18602SOL    HW259338   1.854   8.968   0.607  1.6988  0.7979  1.7819
18603SOL     OW59339   7.468   4.553   1.124  0.2097  0.2509  0.4252
18603SOL    HW159340   7.499   4.599   1.202  0.1745 -0.4890  0.8798
18603SOL    HW259341   7.444   4.624   1.063  1.3715  0.8294  0.6155
18604SOL     OW59342   6.871   5.684  10.915 -0.1500  0.9263 -0.0940
18604SOL    HW159343   6.809   5.735  10.968 -2.4712  0.2915 -1.9948
18604SOL    HW259344   6.816   5.640  10.850  1.7603 -3.3112  0.7918
18605SOL     OW59345   7.743   6.430   3.883 -0.0936  0.1620 -0.2924
18605SOL    HW159346   7.679   6.410   3.952 -0.0974 -2.4432 -0.9378
18605SOL    HW259347   7.823   6.384   3.909  0.3941  0.4456 -1.2230
18606SOL     OW59348  10.118   7.108   5.525  0.2724  0.1846 -0.7132
18606SOL    HW159349  10.074   7.056   5.592 -0.0736  0.8478 -0.4074
18606SOL    HW259350  10.155   7.044   5.464  1.0050 -0.4570  0.3616
18607SOL     OW59351   5.930   6.240   1.610 -0.0847 -0.4378 -0.0079
18607SOL    HW159352   5.990   6.213   1.680  0.9217  1.9611  0.1380
18607SOL    HW259353   5.845   6.249   1.655 -0.7254 -3.9492 -0.2400
18608SOL     OW59354   0.654   9.800   5.714 -0.4033  0.1416 -0.3639
18608SOL    HW159355   0.663   9.705   5.721 -1.2141 -0.0154 -1.3255
18608SOL    HW259356   0.659   9.819   5.621 -0.3468  1.0436 -0.1954
18609SOL     OW59357   3.676  10.564   7.651  0.4977 -0.2836  0.6667
18609SOL    HW159358   3.703  10.472   7.658 -1.0099 -0.8852 -0.7467
18609SOL    HW259359   3.672  10.594   7.742 -0.0027 -1.9498  1.2411
18610SOL     OW59360   5.237   0.051   6.916  0.4452  0.4130 -0.1682
18610SOL    HW159361   5.261  -0.035   6.953 -1.3627 -0.2997 -0.5478
18610SOL    HW259362   5.320   0.098   6.910  1.3892 -1.0412  0.7379
18611SOL     OW59363   1.709   1.732   7.561 -0.4253 -0.0482 -0.6160
18611SOL    HW159364   1.663   1.810   7.594  0.2057  1.5792 -3.3234
18611SOL    HW259365   1.643   1.685   7.511 -0.2496 -0.0530 -0.8427
18612SOL     OW59366   9.309   0.437   8.819  0.0291  0.3013 -0.5418
18612SOL    HW159367   9.255   0.405   8.747  0.3576 -0.4825 -0.4590
18612SOL    HW259368   9.336   0.525   8.793 -2.2817  1.2379 -0.0204
18613SOL     OW59369   2.443   4.298   1.255  0.0072  0.3719 -0.2831
18613SOL    HW159370   2.510   4.367   1.253 -0.0489  0.6077  2.5974
18613SOL    HW259371   2.493   4.217   1.268 -0.0092 -0.1166 -2.6970
18614SOL     OW59372   6.766   9.207   8.134  0.4367  0.5026 -0.3671
18614SOL    HW159373   6.784   9.300   8.121 -2.3328  1.1392 -0.2335
18614SOL    HW259374   6.765   9.170   8.046 -0.7780  1.1257 -0.6340
18615SOL     OW59375   8.929   0.221   7.333  0.0224 -0.2254  1.0339
18615SOL    HW159376   8.838   0.231   7.306 -0.0954 -0.7870  1.2156
18615SOL    HW259377   8.977   0.283   7.278 -0.2083 -1.3528 -0.4899
18616SOL     OW59378   8.367   3.404   4.367  0.2345  0.1309  0.0272
18616SOL    HW159379   8.282   3.364   4.385 -0.4567  1.5298 -0.0122
18616SOL    HW259380   8.411   3.340   4.311 -0.9524 -0.4500 -0.2947
18617SOL     OW59381  10.611   3.687   5.179  0.9485  0.0852  0.4141
18617SOL    HW159382  10.630   3.593   5.169 -0.4450 -0.2347  0.5996
18617SOL    HW259383  10.691   3.730   5.151  1.1875 -1.1239 -0.8822
18618SOL     OW59384   5.836   5.611   2.459  0.5423  0.2506 -0.9583
18618SOL    HW159385   5.781   5.589   2.535  2.5014  0.3069  0.5554
18618SOL    HW259386   5.833   5.533   2.404 -0.1237 -0.1758 -0.3381
18619SOL     OW59387   1.479  10.418   6.054  0.0316 -0.3635 -0.1881
18619SOL    HW159388   1.384  10.412   6.061  0.1308 -1.9780  0.2591
18619SOL    HW259389   1.503  10.486   6.117 -0.7904 -0.2243 -0.0143
18620SOL     OW59390   8.167   4.488   1.569 -1.3135  0.3533 -0.1739
18620SOL    HW159391   8.243   4.443   1.532 -0.8009 -0.9669  2.3084
18620SOL    HW259392   8.202   4.567   1.609 -1.3988  0.2279  0.1491
18621SOL     OW59393   9.363   6.922   7.913 -0.3152  0.0564  0.2687
18621SOL    HW159394   9.422   6.969   7.972 -1.2604  1.1357  0.3796
18621SOL    HW259395   9.378   6.962   7.828  0.5837 -1.0722 -0.1366
18622SOL     OW59396   2.008   3.833   0.241  0.0046 -0.4907  0.2464
18622SOL    HW159397   1.976   3.744   0.227 -2.6395  0.3635  0.4220
18622SOL    HW259398   2.014   3.871   0.153 -2.5430  0.2789  0.3274
18623SOL     OW59399  10.527   6.102   6.226  0.0369  0.3825  0.1800
18623SOL    HW159400  10.519   6.182   6.174 -0.0847  0.0225 -0.3552
18623SOL    HW259401  10.600   6.055   6.187 -0.2534 -0.0357  0.1331
18624SOL     OW59402   1.424   8.704   8.999 -0.6458  0.1928  0.5969
18624SOL    HW159403   1.492   8.663   9.051  0.0841 -0.7963 -1.0407
18624SOL    HW259404   1.342   8.669   9.034 -0.1678 -0.5444  1.0073
18625SOL     OW59405   7.674   7.691   8.714 -0.4118 -0.3122 -0.0934
18625SOL    HW159406   7.755   7.662   8.672  0.5530 -0.8273  1.9631
18625SOL    HW259407   7.605   7.641   8.671  0.6143 -1.4349 -0.5007
18626SOL     OW59408   1.738   4.984   0.067 -0.2015  0.3722  0.3700
18626SOL    HW159409   1.750   4.939  -0.016 -1.7747  2.8037 -1.2973
18626SOL    HW259410   1.824   5.021   0.087  0.6794 -1.8044  0.9093
18627SOL     OW59411   0.168   0.387   7.337 -0.6821 -0.2756  0.4268
18627SOL    HW159412   0.099   0.320   7.336 -0.3250 -0.7243 -2.3805
18627SOL    HW259413   0.249   0.337   7.333 -0.1331  0.2782  2.9731
18628SOL     OW59414   8.232   8.595   9.249 -0.3668  0.2682  0.7108
18628SOL    HW159415   8.186   8.529   9.301 -0.0512 -0.4304  0.1369
18628SOL    HW259416   8.321   8.559   9.239 -1.0977 -0.9615 -2.4984
18629SOL     OW59417   0.373   5.566   5.287 -0.0744 -0.1458 -0.2524
18629SOL    HW159418   0.326   5.517   5.219 -0.6174 -1.8581  1.2696
18629SOL    HW259419   0.328   5.650   5.292 -0.0478  0.0033 -1.9427
18630SOL     OW59420   5.980   1.054   0.847  0.5666 -0.3429 -0.1321
18630SOL    HW159421   5.979   1.037   0.942 -1.2287  0.5644  0.0383
18630SOL    HW259422   6.073   1.068   0.827  0.9608 -0.3284  1.5307
18631SOL     OW59423   4.359   8.062   2.356  0.6474 -0.0289  0.5753
18631SOL    HW159424   4.434   8.024   2.402  0.4623 -0.8636  0.1918
18631SOL    HW259425   4.380   8.052   2.263  0.1686 -0.0510  0.4668
18632SOL     OW59426   3.987   6.358   7.650 -0.4235  0.1552  0.1091
18632SOL    HW159427   3.922   6.416   7.611 -2.2560 -1.3164  0.8566
18632SOL    HW259428   3.946   6.271   7.651  1.1068 -0.6323  1.6116
18633SOL     OW59429   5.185   4.132   7.558 -0.7567 -0.0041 -0.3930
18633SOL    HW159430   5.226   4.066   7.503  1.5612 -0.4277  1.6560
18633SOL    HW259431   5.242   4.209   7.552  0.0267 -0.3216  1.9002
18634SOL     OW59432   5.635   8.548   3.570  0.1211 -0.0460 -0.1641
18634SOL    HW159433   5.586   8.620   3.531 -0.0496  0.0446  0.2146
18634SOL    HW259434   5.569   8.495   3.615  0.1021 -0.9964 -1.2759
18635SOL     OW59435   4.674   8.370   9.141  0.2909 -0.2243  0.0342
18635SOL    HW159436   4.609   8.332   9.083 -0.3430  0.4574  0.2864
18635SOL    HW259437   4.748   8.309   9.138  0.0988 -0.4076 -1.1493
18636SOL     OW59438   5.596   9.447   5.707  0.1458  0.1150  0.3377
18636SOL    HW159439   5.559   9.360   5.690  3.1778 -1.4583  1.1204
18636SOL    HW259440   5.608   9.485   5.620  0.5708 -1.0890 -0.1535
18637SOL     OW59441   8.575   0.057   5.878  0.1349 -0.2519  0.2805
18637SOL    HW159442   8.602   0.149   5.873 -0.3205 -0.1820 -1.3102
18637SOL    HW259443   8.491   0.060   5.925 -0.4268  0.2829 -0.7286
18638SOL     OW59444   8.358   6.131   2.466 -0.1704 -0.3413  0.4133
18638SOL    HW159445   8.393   6.167   2.384 -0.7253  0.2217  0.4160
18638SOL    HW259446   8.318   6.206   2.510  2.9122  0.1474  2.7487
18639SOL     OW59447   4.579  11.111   9.335 -0.4335 -0.7743  0.3623
18639SOL    HW159448   4.579  11.017   9.318  2.3813 -0.8970  0.6434
18639SOL    HW259449   4.620  11.120   9.420 -0.0749  0.7384  0.0550
18640SOL     OW59450   7.558   6.355   4.043 -0.7442 -0.2925  0.0451
18640SOL    HW159451   7.508   6.388   4.117  0.9024 -0.6512  1.3927
18640SOL    HW259452   7.536   6.262   4.039 -0.1469 -0.4717  0.7004
18641SOL     OW59453  10.298   2.261  10.870 -0.4013 -0.1424 -0.2525
18641SOL    HW159454  10.275   2.329  10.808  1.1185  0.1920 -0.4766
18641SOL    HW259455  10.317   2.184  10.816  1.1424  0.2121 -0.2576
18642SOL     OW59456   1.208   0.208   5.224  0.6284 -0.0609  0.0406
18642SOL    HW159457   1.290   0.199   5.273  0.4829 -0.4252  0.2237
18642SOL    HW259458   1.140   0.197   5.290  0.4274 -1.0171 -0.3099
18643SOL     OW59459   4.443   7.542   5.479  0.2488 -0.9593  0.0091
18643SOL    HW159460   4.464   7.504   5.565  1.4137 -1.5760 -0.5240
18643SOL    HW259461   4.348   7.532   5.471  0.0558 -0.4514  1.4296
18644SOL     OW59462   5.981   3.224   5.651 -0.3540  0.0660  1.4665
18644SOL    HW159463   6.013   3.183   5.731 -0.6122 -0.8352  1.1157
18644SOL    HW259464   5.977   3.317   5.672 -0.2426 -0.1405  2.4431
18645SOL     OW59465   6.981   0.947   8.510  0.0506 -0.2513 -0.5130
18645SOL    HW159466   7.012   0.923   8.423  0.5006 -2.7499  0.2334
18645SOL    HW259467   6.892   0.981   8.495  0.4362  0.1753 -2.0113
18646SOL     OW59468   7.184   5.642   5.251 -0.3209 -0.2000 -0.0887
18646SOL    HW159469   7.160   5.696   5.326 -2.8373 -2.3805  0.8571
18646SOL    HW259470   7.106   5.589   5.234  1.7322 -3.1602 -1.2017
18647SOL     OW59471  10.470  10.322   8.070 -0.4595  0.2612 -0.2392
18647SOL    HW159472  10.388  10.285   8.038 -0.2678  0.7873 -1.3740
18647SOL    HW259473  10.506  10.253   8.127 -1.3766 -0.2202 -0.2204
18648SOL     OW59474   8.687   0.086   2.509  0.0154 -0.3614  0.3048
18648SOL    HW159475   8.634   0.123   2.438  0.3162  1.2038  0.8687
18648SOL    HW259476   8.626   0.031   2.558 -0.2352 -1.3453 -1.0495
18649SOL     OW59477   8.795   6.404   7.236  0.2379 -0.2894  0.2024
18649SOL    HW159478   8.741   6.332   7.270 -0.7355 -0.4896 -1.6385
18649SOL    HW259479   8.879   6.363   7.215  0.5527 -0.3392  1.4626
18650SOL     OW59480   9.613   7.969   8.934 -0.7624 -0.1225  0.2112
18650SOL    HW159481   9.616   7.957   9.029 -0.2322  3.1412  0.7279
18650SOL    HW259482   9.533   7.926   8.906 -2.6598  1.5354  2.6828
18651SOL     OW59483   7.628   3.219   0.388  0.1297  0.5477 -0.0001
18651SOL    HW159484   7.680   3.293   0.356  1.6818  0.6369  2.4821
18651SOL    HW259485   7.544   3.258   0.414 -0.0930  0.9193 -1.1964
18652SOL     OW59486   1.964   2.828   7.438 -0.1173 -0.8175 -0.5356
18652SOL    HW159487   1.898   2.808   7.371 -0.2794  0.1055 -0.6560
18652SOL    HW259488   1.975   2.923   7.434 -0.9371 -0.6115  1.5242
18653SOL     OW59489   0.588  10.624   5.574 -0.4081  0.3670  0.1946
18653SOL    HW159490   0.672  10.653   5.611 -0.8698 -0.0598  1.6310
18653SOL    HW259491   0.582  10.671   5.491  0.0007  2.5697  1.3114
18654SOL     OW59492   1.405   6.815  10.515 -0.2681 -0.2969 -0.0519
18654SOL    HW159493   1.434   6.881  10.452  2.3726 -0.8890  0.4141
18654SOL    HW259494   1.401   6.733  10.465 -0.4436 -0.3510  0.0485
18655SOL     OW59495   2.225   4.990   0.587 -0.3009 -0.4527 -0.0722
18655SOL    HW159496   2.230   4.904   0.546 -1.2927  0.1715 -1.6156
18655SOL    HW259497   2.289   5.043   0.539  0.6146 -0.4022  1.1499
18656SOL     OW59498   3.570   5.311   9.268 -0.6408 -0.4820  0.5628
18656SOL    HW159499   3.663   5.324   9.252 -0.8456  1.0656  0.4028
18656SOL    HW259500   3.543   5.390   9.317 -2.3422  0.3438 -1.5556
18657SOL     OW59501   4.314   2.944   2.003 -0.0431 -0.4467 -0.0703
18657SOL    HW159502   4.319   2.982   1.915  0.3984 -0.2783  0.0262
18657SOL    HW259503   4.228   2.971   2.036  0.1090  0.1533 -0.1531
18658SOL     OW59504   7.044  10.247   1.036  0.2352  0.2253 -0.2739
18658SOL    HW159505   7.095  10.186   0.982  0.3304 -0.0574  0.1360
18658SOL    HW259506   6.955  10.210   1.037  0.2719  0.1444 -0.0975
18659SOL     OW59507   8.242  11.120   8.930  0.6444 -0.3158 -0.1031
18659SOL    HW159508   8.330  11.104   8.895  0.6379  1.0288 -0.8081
18659SOL    HW259509   8.185  11.118   8.853  0.9036  4.9215 -0.8200
18660SOL     OW59510   1.932   4.471   4.121 -0.1504  0.0148  0.0015
18660SOL    HW159511   1.859   4.416   4.150  1.1547 -0.5511  2.5688
18660SOL    HW259512   1.980   4.417   4.059 -0.5236 -0.6106  0.2412
18661SOL     OW59513  10.322   5.289   4.850 -0.7309  0.2001 -0.2758
18661SOL    HW159514  10.377   5.221   4.809  0.4034  1.1374 -0.3638
18661SOL    HW259515  10.300   5.253   4.935 -1.4641 -0.9411 -0.9231
18662SOL     OW59516   7.701   8.228   4.183 -0.0642 -0.3837 -0.2037
18662SOL    HW159517   7.752   8.218   4.263 -0.3417 -0.1388  0.0085
18662SOL    HW259518   7.703   8.142   4.141  1.9744  0.0470 -1.0971
18663SOL     OW59519   5.444   1.850   1.834 -0.2546  0.0492 -0.2000
18663SOL    HW159520   5.379   1.887   1.775  0.3923  0.3454 -0.7318
18663SOL    HW259521   5.453   1.759   1.806  1.2143  0.5885 -1.6261
18664SOL     OW59522   1.348   3.260   9.743  0.1678  0.3043  0.9728
18664SOL    HW159523   1.440   3.275   9.763 -0.1118  1.4518  1.4573
18664SOL    HW259524   1.301   3.324   9.796 -0.8587  0.4145 -0.0390
18665SOL     OW59525   4.397   8.237   9.041  0.1327 -0.6039  0.3068
18665SOL    HW159526   4.349   8.320   9.031 -0.3513 -0.9229 -0.0737
18665SOL    HW259527   4.368   8.185   8.966  1.5770 -0.5589 -0.3096
18666SOL     OW59528   3.335   2.350   9.311 -0.0952  0.3076  0.4122
18666SOL    HW159529   3.414   2.405   9.312 -0.3807  0.8234 -1.4087
18666SOL    HW259530   3.263   2.413   9.302 -0.3984 -0.2873 -2.1644
18667SOL     OW59531   1.153   7.389   0.485 -0.4920 -0.8728  0.7121
18667SOL    HW159532   1.128   7.479   0.463  0.5319 -1.1061 -1.6535
18667SOL    HW259533   1.139   7.339   0.404  3.0562 -1.9170  0.5784
18668SOL     OW59534   6.231  10.409   0.712 -0.1160 -0.5078 -0.4649
18668SOL    HW159535   6.175  10.407   0.634  0.5222  0.6202 -0.9756
18668SOL    HW259536   6.320  10.414   0.677  0.1986 -0.4309  0.3361
18669SOL     OW59537   8.136   8.646   8.317  0.0391  0.5291  0.6086
18669SOL    HW159538   8.058   8.600   8.345 -0.6517  2.1046  1.4109
18669SOL    HW259539   8.167   8.692   8.395  1.7951 -0.0806  0.3153
18670SOL     OW59540   8.784   3.806   0.450 -0.0327  0.0942  0.0098
18670SOL    HW159541   8.856   3.754   0.414  0.5860  1.4404 -0.7654
18670SOL    HW259542   8.827   3.883   0.488 -1.1076  1.4179 -1.3525
18671SOL     OW59543   7.300   5.147  10.335  0.3653  0.2203  0.2834
18671SOL    HW159544   7.245   5.182  10.406 -0.2109 -0.9187  0.4117
18671SOL    HW259545   7.301   5.217  10.270 -4.8256 -1.0848 -1.7359
18672SOL     OW59546   9.927   5.668   7.723 -0.1444  0.2711  0.3435
18672SOL    HW159547  10.017   5.693   7.701  0.3353  0.5395  2.4307
18672SOL    HW259548   9.914   5.585   7.676  1.5793 -0.3201  0.8202
18673SOL     OW59549   0.579   5.599   7.795  0.0587  0.0115  0.7416
18673SOL    HW159550   0.660   5.570   7.754 -0.3685 -0.0132 -0.1183
18673SOL    HW259551   0.585   5.568   7.885  0.1090 -1.7672  0.1630
18674SOL     OW59552   1.272   2.618   1.432  0.0669 -0.3898  0.6331
18674SOL    HW159553   1.336   2.686   1.452 -0.0910 -1.0189  3.8402
18674SOL    HW259554   1.323   2.551   1.385  1.2608  0.0788  1.2133
18675SOL     OW59555   0.374   8.793   8.519  0.1393 -0.6477  0.5606
18675SOL    HW159556   0.407   8.875   8.482 -0.1300  0.1921  2.1238
18675SOL    HW259557   0.432   8.726   8.483  1.1606  0.3713  0.2551
18676SOL     OW59558   0.813   2.426   2.469  0.0987  0.0245  0.0242
18676SOL    HW159559   0.802   2.509   2.421 -0.4104 -0.4088 -0.6264
18676SOL    HW259560   0.754   2.365   2.425  1.1063 -0.9256 -0.0647
18677SOL     OW59561   8.237   4.956   6.332  0.2204  0.4685  0.0515
18677SOL    HW159562   8.263   4.991   6.247  1.1213  1.9618  0.8970
18677SOL    HW259563   8.269   4.866   6.333  0.5814  0.5767 -1.0146
18678SOL     OW59564   0.205   1.526   8.478 -0.0318 -0.0818  0.7698
18678SOL    HW159565   0.282   1.561   8.432  0.3058 -2.4147 -0.6177
18678SOL    HW259566   0.138   1.518   8.409 -1.4129  1.4492  1.8587
18679SOL     OW59567   8.756   9.295   8.320  0.1858 -0.0038  0.1078
18679SOL    HW159568   8.782   9.365   8.379 -0.2145 -0.5401  0.9290
18679SOL    HW259569   8.661   9.301   8.315  0.1216 -0.6658  0.4200
18680SOL     OW59570   0.337   8.194   1.987  0.6361  0.6341 -0.3992
18680SOL    HW159571   0.267   8.253   2.016  0.3511 -0.2746  0.8401
18680SOL    HW259572   0.293   8.110   1.975  1.5994 -0.0779  0.8956
18681SOL     OW59573   9.556   9.470   7.386  0.2131  0.1309  0.2874
18681SOL    HW159574   9.483   9.509   7.434  0.5646 -0.5716  1.4604
18681SOL    HW259575   9.632   9.523   7.412  0.2188  0.4995 -0.4673
18682SOL     OW59576   2.433   4.226  10.436 -0.6421  0.2834 -0.5960
18682SOL    HW159577   2.393   4.165  10.498  0.4096  2.8626  2.9213
18682SOL    HW259578   2.360   4.256  10.382 -1.6719 -1.8129 -0.4711
18683SOL     OW59579   8.074   4.119   8.518  0.4286  0.0092  0.5313
18683SOL    HW159580   8.080   4.104   8.424  2.5274 -0.2073  0.6602
18683SOL    HW259581   8.077   4.214   8.528  0.7534  0.0107  0.4123
18684SOL     OW59582  10.029  10.578   7.090 -0.0641  0.3622 -0.2431
18684SOL    HW159583  10.105  10.622   7.054  0.4605  0.3280  0.7997
18684SOL    HW259584  10.051  10.485   7.088 -0.5772  0.2393 -1.0548
18685SOL     OW59585  10.760   3.721   4.873  0.0269 -0.0277 -0.1164
18685SOL    HW159586  10.774   3.792   4.810  1.4142 -0.7605 -0.6779
18685SOL    HW259587  10.823   3.737   4.943 -0.5098 -0.0253  0.3717
18686SOL     OW59588   2.229   0.865   8.035  0.7147 -0.2777 -0.3297
18686SOL    HW159589   2.311   0.844   7.990  2.6417  1.5218  2.0107
18686SOL    HW259590   2.212   0.956   8.011 -0.0710 -0.3454 -0.0441
18687SOL     OW59591   6.365   8.632  10.287 -0.1900  0.1704 -0.2347
18687SOL    HW159592   6.348   8.725  10.277 -0.3415  0.3178  1.2348
18687SOL    HW259593   6.358   8.615  10.381 -0.3988 -1.3716 -0.4925
18688SOL     OW59594   5.070   5.263   5.182 -1.0915 -0.0488 -0.0670
18688SOL    HW159595   4.998   5.201   5.194 -0.5440 -0.6779 -0.0138
18688SOL    HW259596   5.102   5.246   5.093 -3.0140  2.3741 -1.3892
18689SOL     OW59597   7.296   0.237   8.333 -0.1068  0.1648 -0.5757
18689SOL    HW159598   7.242   0.284   8.397 -1.0754 -0.7894 -0.6652
18689SOL    HW259599   7.384   0.271   8.347 -0.6956  1.7241 -0.3805
18690SOL     OW59600   9.458   7.964   3.542 -0.1662  0.2658 -0.1809
18690SOL    HW159601   9.473   7.934   3.632 -0.4691 -0.3274 -0.3180
18690SOL    HW259602   9.368   7.997   3.543  0.8351  3.3187  0.5160
18691SOL     OW59603   2.872   7.687   0.347  0.2538  0.2958 -0.3963
18691SOL    HW159604   2.815   7.625   0.392 -1.2973  1.1543 -1.0804
18691SOL    HW259605   2.950   7.694   0.403 -0.1636 -1.1444  0.4140
18692SOL     OW59606   7.773   8.566   7.483 -0.2307  0.2217  0.6455
18692SOL    HW159607   7.829   8.567   7.406 -1.1085 -1.6123 -0.0807
18692SOL    HW259608   7.700   8.509   7.459 -2.1289  2.0276  1.7619
18693SOL     OW59609   1.449   8.281   5.408 -0.8717 -0.1212  0.4290
18693SOL    HW159610   1.487   8.255   5.324 -2.5817 -1.3993 -0.0003
18693SOL    HW259611   1.511   8.249   5.474  0.6244  1.1248 -0.3008
18694SOL     OW59612   1.757   7.597   2.365  0.4458  0.4849 -0.4016
18694SOL    HW159613   1.842   7.640   2.380  1.5510 -1.4914 -0.6326
18694SOL    HW259614   1.758   7.521   2.424 -0.8063 -0.0483 -1.0333
18695SOL     OW59615   8.979   4.675   2.267  0.2690  0.6997  0.2819
18695SOL    HW159616   8.971   4.580   2.262  2.3282  0.5333 -1.3181
18695SOL    HW259617   8.990   4.693   2.361  0.0409 -0.6560  0.5912
18696SOL     OW59618   5.050   7.817   6.125  0.4410  0.2175  0.5140
18696SOL    HW159619   5.112   7.755   6.086 -1.2170 -1.3787  0.2830
18696SOL    HW259620   5.040   7.786   6.216  0.3448  0.7652  0.6923
18697SOL     OW59621  10.791   9.363   1.556  0.2851  0.2146 -1.0567
18697SOL    HW159622  10.809   9.277   1.594  0.8131  0.7440 -0.0707
18697SOL    HW259623  10.874   9.391   1.517  0.5011  0.8784 -0.1391
18698SOL     OW59624   2.678   3.414   2.469 -0.1590  0.5226 -0.0310
18698SOL    HW159625   2.662   3.387   2.559 -0.5269  1.3980  0.1831
18698SOL    HW259626   2.613   3.484   2.454 -2.0020 -1.4396 -1.8654
18699SOL     OW59627   3.843   3.096   8.121 -0.2398 -0.5070  0.1130
18699SOL    HW159628   3.855   3.001   8.116  1.2861 -0.2873 -2.4500
18699SOL    HW259629   3.922   3.128   8.164 -0.4616 -0.3643  0.4134
18700SOL     OW59630   5.427   7.675   0.348 -0.1518  0.4009 -0.1639
18700SOL    HW159631   5.453   7.718   0.266 -1.5587  1.8944  0.1054
18700SOL    HW259632   5.340   7.710   0.366  0.0344 -0.0479  1.8604
18701SOL     OW59633   8.983  10.887   5.150  0.0345  0.6967  0.4700
18701SOL    HW159634   9.025  10.920   5.070  1.5215  0.6925  1.2249
18701SOL    HW259635   8.890  10.884   5.128  0.4924 -0.3173 -1.6292
18702SOL     OW59636   0.210   4.023   1.330 -0.5567 -0.1480 -0.0821
18702SOL    HW159637   0.212   4.115   1.355  0.9858  0.2175 -1.3347
18702SOL    HW259638   0.287   4.012   1.274 -0.5634 -2.2588  0.2214
18703SOL     OW59639   5.062   2.101   7.060 -0.0309 -0.1569  0.2412
18703SOL    HW159640   5.025   2.031   7.113 -3.0316  1.5142  0.5965
18703SOL    HW259641   4.986   2.149   7.027  1.8264  2.6116 -0.3970
18704SOL     OW59642   3.481   2.757   2.006  0.2744 -0.2469  0.6940
18704SOL    HW159643   3.410   2.816   1.980  0.5586 -0.5471 -0.8953
18704SOL    HW259644   3.451   2.719   2.089 -1.4046 -0.2900  0.1146
18705SOL     OW59645   8.817   5.197   8.933  0.5185  0.7356 -0.0085
18705SOL    HW159646   8.760   5.125   8.957  1.2821  0.1736  0.1738
18705SOL    HW259647   8.801   5.264   9.000  0.5705  0.3127  0.4304
18706SOL     OW59648   5.879   3.907   9.266  0.1142 -0.0909 -0.1001
18706SOL    HW159649   5.920   3.821   9.271  1.1395  0.3095 -1.1459
18706SOL    HW259650   5.899   3.938   9.178 -0.3440  1.1702  0.2174
18707SOL     OW59651   0.158   0.908   4.951  0.2343 -0.2137 -0.4262
18707SOL    HW159652   0.118   0.830   4.912  0.0361 -0.4000  0.1373
18707SOL    HW259653   0.252   0.887   4.954 -0.0667 -1.7388  2.4548
18708SOL     OW59654   7.575   1.446   1.104  0.0709  0.1258  0.2141
18708SOL    HW159655   7.616   1.531   1.121  2.6814 -1.2498  1.6325
18708SOL    HW259656   7.623   1.411   1.029  1.4822 -1.4115  1.7325
18709SOL     OW59657   9.198   1.703   9.750  0.4327  0.1447 -0.4075
18709SOL    HW159658   9.197   1.616   9.789  0.0445  0.0338 -0.6596
18709SOL    HW259659   9.118   1.745   9.783 -0.5200 -0.3534 -1.9674
18710SOL     OW59660   1.956   5.721   7.440  0.1780  0.2325 -0.3586
18710SOL    HW159661   2.009   5.769   7.376 -0.9453  1.5889 -0.3200
18710SOL    HW259662   1.903   5.661   7.387  2.5143 -2.0483 -0.3228
18711SOL     OW59663   2.827   1.291   0.327 -0.0662  0.6258  0.1168
18711SOL    HW159664   2.808   1.251   0.412 -2.5364  0.5300 -0.4003
18711SOL    HW259665   2.757   1.261   0.270  1.4471  0.7938 -1.9642
18712SOL     OW59666   4.483   8.278  10.103  0.2266  0.8171 -0.3043
18712SOL    HW159667   4.571   8.314  10.098  0.0502  1.8330  2.2063
18712SOL    HW259668   4.425   8.353  10.090 -0.2852  0.1868 -1.7800
18713SOL     OW59669   3.715   2.343   9.556 -0.3595 -0.5326 -0.0173
18713SOL    HW159670   3.676   2.378   9.636 -0.2013 -1.5766  0.5205
18713SOL    HW259671   3.778   2.277   9.585  0.0041 -0.6425 -0.9849
18714SOL     OW59672   6.409   6.416   6.803  0.2442 -0.0372 -0.1817
18714SOL    HW159673   6.313   6.414   6.804  0.2445 -1.7104 -0.5488
18714SOL    HW259674   6.432   6.448   6.890 -0.6553 -0.8920  0.3996
18715SOL     OW59675   8.917   4.256   6.614  0.1549  0.0175 -0.7593
18715SOL    HW159676   8.933   4.349   6.596 -3.1527  0.9062  0.1651
18715SOL    HW259677   8.836   4.255   6.666  1.3961 -3.2474  1.4720
18716SOL     OW59678   0.202   1.446   7.573  0.5976  0.4931  0.7899
18716SOL    HW159679   0.159   1.502   7.638  0.9501  0.9660  0.6198
18716SOL    HW259680   0.217   1.504   7.498 -0.0538 -0.1159  0.1801
18717SOL     OW59681   2.616   5.715   0.862  0.4104 -0.5118  0.6483
18717SOL    HW159682   2.541   5.680   0.812 -0.8394  1.9651  0.6357
18717SOL    HW259683   2.684   5.728   0.797 -0.7579  1.4389 -0.2950
18718SOL     OW59684   6.833   7.010   6.251 -0.0448 -0.1268 -0.0871
18718SOL    HW159685   6.910   6.989   6.198 -0.3872  0.3326 -0.7873
18718SOL    HW259686   6.851   7.097   6.287 -1.8814  1.9396 -3.5913
18719SOL     OW59687   2.835  10.190   8.622 -0.0092  0.2178 -0.3488
18719SOL    HW159688   2.792  10.227   8.699 -1.9286  2.4111 -2.3198
18719SOL    HW259689   2.915  10.243   8.612 -1.0927  1.7664 -1.2825
18720SOL     OW59690   1.800   7.252  10.161  0.8965 -0.0690  0.5490
18720SOL    HW159691   1.775   7.340  10.131 -0.2385 -1.3415 -2.6516
18720SOL    HW259692   1.730   7.195  10.131  1.6984 -2.1634  2.3747
18721SOL     OW59693   8.014   6.715   6.500  0.6439  0.3218 -0.7502
18721SOL    HW159694   8.060   6.726   6.583  0.3564 -0.3536 -0.4934
18721SOL    HW259695   7.922   6.732   6.520  0.5218 -0.2056 -0.8442
18722SOL     OW59696   7.820   9.036   6.110  0.2104  0.0656  0.1813
18722SOL    HW159697   7.781   8.952   6.087  0.6760 -0.0073 -0.3484
18722SOL    HW259698   7.763   9.101   6.068  0.5608 -0.0356 -0.4559
18723SOL     OW59699   8.692   0.627  10.428 -0.3302 -0.5164 -0.2787
18723SOL    HW159700   8.699   0.719  10.403 -0.8718 -1.0628 -2.6887
18723SOL    HW259701   8.770   0.586  10.392  0.1303 -0.9654  1.1556
18724SOL     OW59702   5.883   6.822   5.588 -0.3845 -0.1733 -0.4527
18724SOL    HW159703   5.886   6.727   5.598 -0.8254 -0.2399 -0.9163
18724SOL    HW259704   5.974   6.850   5.604 -0.6221 -0.4454  1.7033
18725SOL     OW59705   0.307   9.761   0.495 -0.8913 -0.0682  0.1128
18725SOL    HW159706   0.347   9.793   0.413  0.0289  0.3056  0.6897
18725SOL    HW259707   0.251   9.689   0.467 -0.3427 -0.1612 -0.8228
18726SOL     OW59708   3.123   5.279  10.679 -0.8328  0.2355 -0.3966
18726SOL    HW159709   3.122   5.352  10.618 -0.6396  0.8840  0.3610
18726SOL    HW259710   3.074   5.311  10.755 -1.7150 -0.8158 -0.4967
18727SOL     OW59711   7.049   7.974   4.805 -0.7334 -0.1313 -0.6542
18727SOL    HW159712   7.097   8.019   4.735 -0.3715 -0.5468 -0.6764
18727SOL    HW259713   7.075   7.882   4.796 -2.1188 -0.5037 -1.1609
18728SOL     OW59714   8.743   0.209   8.637 -0.4628  0.0777 -0.3372
18728SOL    HW159715   8.716   0.154   8.710  0.0048 -1.2828 -1.1490
18728SOL    HW259716   8.732   0.154   8.560 -2.4235  1.9471 -1.5329
18729SOL     OW59717   2.577   6.333   9.955  0.2148  0.6414  0.4723
18729SOL    HW159718   2.510   6.299   9.896  0.8555  0.5046 -0.1897
18729SOL    HW259719   2.650   6.356   9.898  2.0251 -2.2042  1.4118
18730SOL     OW59720  10.495   0.489   4.533  0.5160  0.0525  0.1969
18730SOL    HW159721  10.473   0.582   4.524  0.0643 -0.0221  0.5019
18730SOL    HW259722  10.431   0.455   4.595  0.5040 -0.5236 -0.1227
18731SOL     OW59723   5.222   8.385   1.014 -0.1060 -0.3076 -0.6038
18731SOL    HW159724   5.190   8.425   0.934 -1.1464 -0.3787 -0.2458
18731SOL    HW259725   5.316   8.375   1.001 -0.2240 -0.0665 -1.6938
18732SOL     OW59726   2.963   8.919   4.212 -0.0361 -0.3560 -0.8074
18732SOL    HW159727   2.907   8.916   4.290  2.1039  0.0318  0.8475
18732SOL    HW259728   2.941   8.838   4.165 -1.3852 -0.6165  0.1883
18733SOL     OW59729   2.609   0.147   2.718 -0.1637  0.9603 -0.2870
18733SOL    HW159730   2.630   0.054   2.707  0.6549  1.2325 -1.2282
18733SOL    HW259731   2.538   0.149   2.782 -2.0835 -0.4968 -2.2585
18734SOL     OW59732   3.662   7.364   3.120  0.3851 -0.6075 -0.6622
18734SOL    HW159733   3.720   7.313   3.063 -0.0242 -0.6982 -0.9980
18734SOL    HW259734   3.612   7.298   3.168  1.1132 -0.5423  0.2133
18735SOL     OW59735   9.574   9.820   0.012 -0.0492 -0.9328 -0.5201
18735SOL    HW159736   9.628   9.849  -0.062 -0.6932  2.5191  0.2012
18735SOL    HW259737   9.635   9.810   0.084  0.0278  0.2098 -0.4108
18736SOL     OW59738   8.956   6.869   1.819 -0.0749 -0.8573  0.0449
18736SOL    HW159739   8.862   6.859   1.805  0.0327 -0.6203 -0.8882
18736SOL    HW259740   8.996   6.815   1.751  0.4653 -0.8003  0.3149
18737SOL     OW59741   7.846   7.094   5.759  0.0680  0.4243  0.1392
18737SOL    HW159742   7.898   7.113   5.837  1.2710  1.9878 -0.9786
18737SOL    HW259743   7.853   7.173   5.705 -2.0927  0.0334 -0.8468
18738SOL     OW59744   9.181   3.531  10.832 -0.2685 -0.0749 -0.3521
18738SOL    HW159745   9.247   3.502  10.769 -0.7333  0.2035 -0.9814
18738SOL    HW259746   9.201   3.623  10.848  0.0885 -0.2510  0.2156
18739SOL     OW59747   6.045   6.149   8.775  0.4506 -0.0628  0.4469
18739SOL    HW159748   6.096   6.123   8.698 -0.0516  1.6740 -0.5397
18739SOL    HW259749   5.956   6.117   8.758 -0.1736  2.1015 -0.7804
18740SOL     OW59750   4.129  11.014   3.903  0.0534  0.0629 -0.0543
18740SOL    HW159751   4.106  11.100   3.866  0.3674  0.0186 -0.3597
18740SOL    HW259752   4.194  10.979   3.842 -0.2362 -0.4883 -0.0518
18741SOL     OW59753   3.416  10.337   5.482  0.2651  0.0954 -0.0476
18741SOL    HW159754   3.384  10.424   5.507  1.2686  0.1653  1.0826
18741SOL    HW259755   3.402  10.332   5.388  1.8360  2.2011 -0.4524
18742SOL     OW59756   1.286   0.361   1.875 -0.2966  0.2058 -0.4011
18742SOL    HW159757   1.253   0.276   1.904  0.9833 -0.2483 -0.2453
18742SOL    HW259758   1.338   0.393   1.949 -1.2808  1.4494 -0.1893
18743SOL     OW59759   5.295   7.356   5.305  0.2148  0.0795 -0.0453
18743SOL    HW159760   5.284   7.450   5.289 -0.4403  0.1462  0.7068
18743SOL    HW259761   5.377   7.349   5.353  0.2402  0.2771 -0.0595
18744SOL     OW59762   2.118  10.665   4.762 -0.7191  0.6386 -0.6371
18744SOL    HW159763   2.085  10.589   4.713  0.1535  0.4259 -0.9233
18744SOL    HW259764   2.199  10.688   4.716 -1.0598  1.8531 -0.6506
18745SOL     OW59765   0.935   9.074   9.817 -0.2686  0.1680  0.0542
18745SOL    HW159766   0.981   8.992   9.836  0.7317  0.8503  0.7034
18745SOL    HW259767   1.005   9.139   9.814 -1.1774  1.2141  0.8715
18746SOL     OW59768   5.702   0.733   5.709  0.1559  0.6858  0.5130
18746SOL    HW159769   5.633   0.757   5.647 -0.2556  0.3599  0.8389
18746SOL    HW259770   5.766   0.803   5.702  0.6134  0.1484 -1.0275
18747SOL     OW59771   3.176  11.101   2.952  0.4876  0.0324 -0.5116
18747SOL    HW159772   3.134  11.025   2.992 -0.6042 -0.4930 -2.5109
18747SOL    HW259773   3.252  11.119   3.007 -1.6477  0.2777  2.5721
18748SOL     OW59774  10.345   0.605   5.486 -0.2353 -0.0743  0.0360
18748SOL    HW159775  10.346   0.510   5.472  0.1770 -0.2896  1.3885
18748SOL    HW259776  10.400   0.618   5.563 -1.4967  1.0927  0.7885
18749SOL     OW59777   4.975   7.248   4.586 -0.0758 -0.3747 -0.4488
18749SOL    HW159778   4.997   7.314   4.651 -0.3635  0.1266 -0.8531
18749SOL    HW259779   4.879   7.246   4.586 -0.0711 -1.1009 -0.1377
18750SOL     OW59780   9.516   4.359   6.924 -0.0308  0.2178  0.0200
18750SOL    HW159781   9.535   4.310   7.004 -1.7792 -0.9797 -0.2443
18750SOL    HW259782   9.476   4.295   6.865  0.9786  1.1281 -1.7482
18751SOL     OW59783   9.246   8.371   3.674 -0.8968  0.1583 -0.1229
18751SOL    HW159784   9.269   8.297   3.618 -2.2354 -1.8866  1.8508
18751SOL    HW259785   9.305   8.364   3.749 -0.6352  1.4913 -0.1709
18752SOL     OW59786   8.483   8.384   9.353  0.0273 -0.2151 -0.3129
18752SOL    HW159787   8.513   8.372   9.443 -1.4382 -0.4682  0.1617
18752SOL    HW259788   8.431   8.306   9.335 -1.1110  0.6357 -0.7715
18753SOL     OW59789   3.911   3.934   3.890  0.0790  0.3320  0.1841
18753SOL    HW159790   3.948   3.956   3.975 -0.4853  0.6827  0.3385
18753SOL    HW259791   3.819   3.916   3.907  0.2442 -0.9130 -0.1378
18754SOL     OW59792   7.774   2.154   1.258 -0.1019  0.5726 -0.0415
18754SOL    HW159793   7.738   2.086   1.315 -0.0989 -0.6349 -1.4330
18754SOL    HW259794   7.745   2.130   1.170 -0.7169  2.7745 -0.5179
18755SOL     OW59795   9.621   9.439  10.617  0.6803  0.8340 -0.2343
18755SOL    HW159796   9.640   9.347  10.598  1.1378  0.4667  1.7806
18755SOL    HW259797   9.563   9.467  10.545 -1.2365 -1.6476  0.1956
18756SOL     OW59798   6.951   8.228   3.147 -0.0281  0.1364  0.5285
18756SOL    HW159799   7.035   8.241   3.192 -0.0556  1.5709  0.2237
18756SOL    HW259800   6.954   8.138   3.116  0.2098 -0.7510  2.9312
18757SOL     OW59801   5.939   7.209   7.566 -0.6597 -0.2202 -0.0063
18757SOL    HW159802   6.027   7.245   7.559 -0.2827 -1.0234  0.4464
18757SOL    HW259803   5.928   7.191   7.659 -1.0058 -0.8295 -0.1588
18758SOL     OW59804   7.464   6.499   2.611 -0.2660 -0.2816  0.0546
18758SOL    HW159805   7.468   6.529   2.520  1.4543  0.2446  0.2743
18758SOL    HW259806   7.457   6.404   2.605 -1.7925 -0.1575 -0.6156
18759SOL     OW59807   5.429   3.140   2.302  0.7445 -0.1740 -0.0303
18759SOL    HW159808   5.422   3.101   2.214  0.1525 -0.6703  0.2257
18759SOL    HW259809   5.345   3.119   2.344  1.5249 -1.1132  1.1242
18760SOL     OW59810   3.632   4.214   3.135 -0.2703 -0.0821 -0.6861
18760SOL    HW159811   3.672   4.255   3.059  1.0062  1.7786  0.8937
18760SOL    HW259812   3.650   4.120   3.125  0.1568  0.1627 -2.4624
18761SOL     OW59813   0.313   8.850   6.931  0.1354  0.6147 -0.5251
18761SOL    HW159814   0.392   8.871   6.980 -0.6424  2.1501  0.1386
18761SOL    HW259815   0.270   8.935   6.917 -0.9759 -0.0851 -1.6004
18762SOL     OW59816   1.547   3.998   2.943 -0.1859  0.1092  0.0473
18762SOL    HW159817   1.563   4.031   3.031  1.1058  0.5527 -0.3331
18762SOL    HW259818   1.542   4.076   2.888  0.6171 -0.2095 -0.5053
18763SOL     OW59819   2.872   0.231   2.102 -0.3661 -0.6814  0.1650
18763SOL    HW159820   2.868   0.149   2.150  1.0965 -0.1300  1.2978
18763SOL    HW259821   2.920   0.291   2.159 -2.0775  1.2449 -0.2729
18764SOL     OW59822   7.093   2.425   2.130  0.7130 -0.2200 -0.5887
18764SOL    HW159823   7.186   2.415   2.105  0.4040  0.4716 -2.1626
18764SOL    HW259824   7.088   2.511   2.171  0.8781 -0.5594  0.1652
18765SOL     OW59825   8.077   6.891   1.062  0.1042 -0.8054 -0.2481
18765SOL    HW159826   8.006   6.851   1.012 -0.3707 -0.6548  0.3003
18765SOL    HW259827   8.147   6.904   0.997 -0.6754 -0.1678 -0.9996
18766SOL     OW59828  10.468   8.968   8.124  0.3071 -0.7598  0.1583
18766SOL    HW159829  10.400   8.902   8.113 -1.9275  1.3667  0.4583
18766SOL    HW259830  10.445   9.037   8.062  0.8097  1.0829  1.9211
18767SOL     OW59831   8.619   3.467   0.793 -0.2241 -0.2457 -0.3907
18767SOL    HW159832   8.524   3.451   0.786 -0.2169  0.1809 -1.6961
18767SOL    HW259833   8.636   3.537   0.730  0.6086  1.3234  1.5051
18768SOL     OW59834   8.107   4.700   2.595 -0.2652 -0.1078 -0.0671
18768SOL    HW159835   8.036   4.645   2.628  0.2139 -0.7091 -0.0138
18768SOL    HW259836   8.074   4.789   2.603 -1.5393 -0.4234 -1.2784
18769SOL     OW59837   4.528  11.087   4.568  0.2834 -0.1856 -0.0308
18769SOL    HW159838   4.545  11.004   4.613 -2.1152 -0.6337  0.1736
18769SOL    HW259839   4.476  11.138   4.630 -0.8630  0.2265 -1.2740
18770SOL     OW59840   5.901   2.862   0.190 -0.3735 -0.0008  0.6567
18770SOL    HW159841   5.875   2.827   0.106 -0.4892 -0.2639  0.8015
18770SOL    HW259842   5.881   2.793   0.253 -0.9566  0.4599  0.9951
18771SOL     OW59843   6.851   0.179   4.183  0.1735  0.1369 -0.0298
18771SOL    HW159844   6.845   0.255   4.241 -0.5384 -0.7478  1.1035
18771SOL    HW259845   6.823   0.105   4.237  2.4695 -1.2321 -0.5507
18772SOL     OW59846   7.158   2.154   9.566 -0.0669  0.4377  0.3979
18772SOL    HW159847   7.214   2.143   9.490  1.1501  1.4992  1.1120
18772SOL    HW259848   7.088   2.089   9.553  1.4511 -1.1495 -0.3602
18773SOL     OW59849   1.080   3.192   1.161 -0.2036  0.3564 -0.0099
18773SOL    HW159850   1.010   3.136   1.195  0.9471  0.0596  2.0967
18773SOL    HW259851   1.120   3.141   1.091  0.2282 -1.1029  1.2473
18774SOL     OW59852  10.578   0.651   5.648  0.4614 -0.0406 -0.1229
18774SOL    HW159853  10.641   0.679   5.581  0.5691 -0.4710 -0.2064
18774SOL    HW259854  10.554   0.731   5.693  0.8707  0.1658 -0.2645
18775SOL     OW59855   2.550  10.690   6.467  0.7047 -0.5503  0.1552
18775SOL    HW159856   2.541  10.620   6.402 -2.2344 -0.6303  0.5082
18775SOL    HW259857   2.462  10.725   6.477  1.6375  1.5796  1.8292
18776SOL     OW59858   9.749   4.067   4.268  0.6605 -0.5612  0.0714
18776SOL    HW159859   9.759   3.988   4.216 -0.7218 -0.9829  0.4017
18776SOL    HW259860   9.765   4.038   4.358  0.7733 -0.3260  0.1273
18777SOL     OW59861   3.171   8.009  10.686  0.4648 -0.5674 -0.2448
18777SOL    HW159862   3.151   7.990  10.595  0.8260 -1.0915 -0.2223
18777SOL    HW259863   3.097   8.062  10.717 -0.1811 -1.2854 -0.5367
18778SOL     OW59864   2.378   0.256   5.115 -0.5715  0.3508  0.3330
18778SOL    HW159865   2.453   0.246   5.175  0.0683 -0.7067 -0.5955
18778SOL    HW259866   2.398   0.335   5.065 -0.1349  0.1600  0.1951
18779SOL     OW59867   4.027   4.278   9.579  0.1180  0.0861 -0.0093
18779SOL    HW159868   4.006   4.294   9.487  2.1007  0.3610 -0.4614
18779SOL    HW259869   3.999   4.358   9.624  1.1000  0.8891 -0.7541
18780SOL     OW59870   1.153  10.846   1.766 -0.9180 -0.7629  0.4184
18780SOL    HW159871   1.140  10.935   1.734 -1.3412 -0.9488  0.0678
18780SOL    HW259872   1.247  10.842   1.785 -1.0234 -0.0158  1.1453
18781SOL     OW59873   9.095   7.286   6.453 -0.3791  0.1470  0.1782
18781SOL    HW159874   9.105   7.324   6.541 -1.1328 -0.9297  0.7457
18781SOL    HW259875   9.011   7.241   6.456 -1.0667  1.2087 -1.5376
18782SOL     OW59876   8.746  10.292   8.590  0.7075  0.8221 -0.4329
18782SOL    HW159877   8.746  10.380   8.627  1.3257  1.1495 -1.1739
18782SOL    HW259878   8.664  10.253   8.619  1.8433  0.4697  2.5946
18783SOL     OW59879   8.434   3.191   7.711 -0.2575  0.2700  0.5209
18783SOL    HW159880   8.340   3.193   7.690  0.1037 -2.8749 -2.2852
18783SOL    HW259881   8.443   3.118   7.772  0.3178  0.9231  1.2257
18784SOL     OW59882   0.413   7.908   8.298  0.5214 -0.2707  0.4816
18784SOL    HW159883   0.336   7.960   8.275  0.5103 -0.1902  0.6988
18784SOL    HW259884   0.402   7.888   8.391  0.6205 -0.5026  0.4428
18785SOL     OW59885   0.565   6.399  10.829 -0.2353  0.1204  0.0526
18785SOL    HW159886   0.580   6.432  10.740 -1.0623 -0.6753 -0.3992
18785SOL    HW259887   0.628   6.446  10.883 -1.2949  2.4014 -0.5603
18786SOL     OW59888   3.207   0.761   9.148  0.2116 -0.1508 -0.1156
18786SOL    HW159889   3.176   0.673   9.129 -1.4249  0.6942 -1.6690
18786SOL    HW259890   3.274   0.779   9.082 -0.8842  0.4563 -1.0966
18787SOL     OW59891   0.882   1.010   8.841 -0.3813 -0.0596  0.3516
18787SOL    HW159892   0.960   1.042   8.886 -0.4187  1.2624 -0.4767
18787SOL    HW259893   0.878   0.917   8.863  2.6863 -0.7370 -1.3707
18788SOL     OW59894   1.138   7.628   9.672 -0.3181 -0.0334 -0.4336
18788SOL    HW159895   1.143   7.687   9.596 -0.8075 -1.3227 -1.5127
18788SOL    HW259896   1.224   7.586   9.675 -0.4652 -0.3581 -0.6161
18789SOL     OW59897   6.988   8.635   0.191  0.0470  0.0158  0.2334
18789SOL    HW159898   7.004   8.557   0.245  1.3440 -0.8862 -1.3605
18789SOL    HW259899   7.052   8.699   0.222  0.2558 -0.2136  0.2759
18790SOL     OW59900   9.788   8.794   7.106 -0.2507 -0.0341  0.4917
18790SOL    HW159901   9.854   8.851   7.144 -0.6857 -0.5851  2.1719
18790SOL    HW259902   9.760   8.839   7.026  0.0943  1.6213  1.2725
18791SOL     OW59903   2.066   9.922   1.517 -0.5068 -0.4811  0.1959
18791SOL    HW159904   1.982   9.902   1.477 -0.5493 -0.7857  0.4329
18791SOL    HW259905   2.061   9.884   1.605  0.2726 -1.4506 -0.1545
18792SOL     OW59906   1.067   8.082   4.552  0.0755 -0.1107 -0.3527
18792SOL    HW159907   0.998   8.022   4.580  0.3974 -0.2113  0.2589
18792SOL    HW259908   1.138   8.024   4.522 -0.5209 -0.0004 -2.0798
18793SOL     OW59909   9.632   9.850   8.268  0.2332  0.6675  0.0299
18793SOL    HW159910   9.628   9.792   8.192  1.2801 -0.1334  0.5533
18793SOL    HW259911   9.711   9.822   8.315 -1.4420 -0.2350  2.5045
18794SOL     OW59912  10.787   2.286   6.620  0.1260  0.1001 -0.2820
18794SOL    HW159913  10.752   2.303   6.708  1.0596  1.0485 -0.0804
18794SOL    HW259914  10.768   2.193   6.605 -0.7459  0.1108  0.5933
18795SOL     OW59915   3.814   8.886   2.268  0.0575 -0.2686 -0.0678
18795SOL    HW159916   3.758   8.914   2.340  0.5510  1.6757 -0.4038
18795SOL    HW259917   3.758   8.895   2.190  0.2206 -0.2540 -0.1822
18796SOL     OW59918   4.832  10.628   3.951 -0.3794 -0.6145 -0.1798
18796SOL    HW159919   4.917  10.584   3.957  0.9776  1.6562 -1.4691
18796SOL    HW259920   4.837  10.681   3.872 -2.4340  0.7738  0.5217
18797SOL     OW59921   0.439   4.166   7.730 -0.2328  0.1650  0.3963
18797SOL    HW159922   0.383   4.235   7.765  0.0269  0.5964 -0.0131
18797SOL    HW259923   0.481   4.127   7.807  0.6977  1.4186  0.5661
18798SOL     OW59924   5.021   1.429   7.167 -0.1745  0.5394  0.0767
18798SOL    HW159925   4.965   1.357   7.137  0.3768  0.1781 -0.0935
18798SOL    HW259926   4.987   1.506   7.121 -0.1593  0.2213 -0.4723
18799SOL     OW59927   6.048   2.616   1.860  0.2600  0.0010  0.0533
18799SOL    HW159928   6.120   2.556   1.839 -0.9599 -1.4157 -0.3109
18799SOL    HW259929   6.018   2.589   1.946 -0.6247 -0.2671 -0.3242
18800SOL     OW59930   6.996   2.088   2.415  0.5493 -0.7345  0.6644
18800SOL    HW159931   6.905   2.106   2.438  0.3163 -0.0983 -0.6807
18800SOL    HW259932   7.040   2.076   2.499 -0.4071  0.7630  1.4163
18801SOL     OW59933   0.426   0.377  10.381 -0.5569 -0.8446  0.3035
18801SOL    HW159934   0.359   0.437  10.414  1.0476  1.9178 -1.1122
18801SOL    HW259935   0.383   0.330  10.309 -1.2656  0.2214  0.0049
18802SOL     OW59936   8.833   7.992   8.602 -0.1421  0.3061 -0.0843
18802SOL    HW159937   8.796   8.009   8.515 -1.4099  0.4639  0.4533
18802SOL    HW259938   8.804   8.066   8.654 -0.7908 -0.5830  0.8615
18803SOL     OW59939   5.779   9.336  10.961  0.2917 -0.1118  0.1340
18803SOL    HW159940   5.843   9.264  10.968  0.0035 -0.4057 -0.1872
18803SOL    HW259941   5.761   9.341  10.867  3.6145  3.2785 -0.5866
18804SOL     OW59942   2.308  10.489   3.687  0.4565 -0.7736  0.2739
18804SOL    HW159943   2.347  10.487   3.600  0.2767 -0.8675  0.1933
18804SOL    HW259944   2.345  10.566   3.729  0.3171 -0.5605  0.0066
18805SOL     OW59945   7.478   2.139   2.016 -0.1919  0.6528 -0.4983
18805SOL    HW159946   7.522   2.107   1.937 -2.1669  0.1875 -1.4909
18805SOL    HW259947   7.445   2.059   2.059 -0.7841  1.0297 -0.2414
18806SOL     OW59948   4.086   3.815   0.722  0.2074 -0.0838 -0.2157
18806SOL    HW159949   4.138   3.863   0.786  1.7338  0.0740 -1.5117
18806SOL    HW259950   4.125   3.728   0.720  0.0103 -0.1646 -0.7372
18807SOL     OW59951   2.140   7.757   6.445 -0.1292  0.4474  0.1840
18807SOL    HW159952   2.165   7.813   6.518  1.4361 -2.8583  2.4197
18807SOL    HW259953   2.087   7.687   6.484 -0.7080 -0.5465 -2.1624
18808SOL     OW59954   6.933  11.062   7.388 -0.2671 -0.1449 -0.3051
18808SOL    HW159955   7.002  11.095   7.331 -0.8045  2.3734  0.3756
18808SOL    HW259956   6.926  10.969   7.366  1.0320  0.2505 -2.7200
18809SOL     OW59957   3.365   7.571   1.459 -0.2350 -0.5954 -0.1388
18809SOL    HW159958   3.401   7.499   1.510  1.2335  0.5597  0.5116
18809SOL    HW259959   3.273   7.576   1.486  0.0655 -1.1579  1.0313
18810SOL     OW59960   0.438   2.793   4.952  0.0893  0.3483  0.4958
18810SOL    HW159961   0.430   2.718   4.893  0.8835  0.6615 -0.0331
18810SOL    HW259962   0.371   2.779   5.018 -0.7399 -0.0844 -0.4097
18811SOL     OW59963  10.625  10.055   9.348  0.2383  0.8954  0.1227
18811SOL    HW159964  10.629  10.083   9.256  1.1715  2.8551  0.6893
18811SOL    HW259965  10.716  10.055   9.376 -0.1616  2.3882  1.5777
18812SOL     OW59966   7.561   8.071   8.363  0.2758  0.0161  0.2686
18812SOL    HW159967   7.582   8.126   8.439  0.5240  0.4680 -0.1163
18812SOL    HW259968   7.641   8.075   8.309 -0.6787  1.5953 -1.1343
18813SOL     OW59969   5.847   7.080   6.113  0.8176  0.0255  0.2330
18813SOL    HW159970   5.917   7.047   6.170  1.2249  1.0464  0.3432
18813SOL    HW259971   5.886   7.081   6.026  0.3065 -1.2031 -0.0387
18814SOL     OW59972   4.968   9.027   9.730 -0.4187 -0.0102  0.1083
18814SOL    HW159973   4.903   9.041   9.799  0.9519 -1.6921  1.8342
18814SOL    HW259974   4.931   9.072   9.654 -2.6139  0.8252  1.5499
18815SOL     OW59975   9.182   9.049   9.385 -0.0539 -0.6278  0.1399
18815SOL    HW159976   9.241   9.028   9.312  0.1946 -2.1167  0.7201
18815SOL    HW259977   9.172   8.966   9.432 -2.1866 -0.2772  0.3944
18816SOL     OW59978   9.947   5.151   8.540  0.3672 -1.0006 -0.4609
18816SOL    HW159979   9.933   5.241   8.512  1.1860 -1.1572 -1.4453
18816SOL    HW259980  10.008   5.157   8.614  0.7332 -0.7613 -0.7772
18817SOL     OW59981   2.713   5.787  10.347 -0.2958  0.4212  0.3421
18817SOL    HW159982   2.639   5.816  10.294 -0.4873  0.2023  0.4862
18817SOL    HW259983   2.787   5.785  10.287 -1.0588 -2.4760 -0.6473
18818SOL     OW59984   1.483  10.590   1.772 -0.2782  0.0500 -0.4919
18818SOL    HW159985   1.513  10.563   1.685  0.4389 -0.1821 -0.1827
18818SOL    HW259986   1.414  10.528   1.794 -0.6870  0.3123 -1.0338
18819SOL     OW59987   3.558   7.642   4.170 -0.3271 -0.0561 -0.2963
18819SOL    HW159988   3.637   7.662   4.119 -0.1898 -2.8912 -1.3879
18819SOL    HW259989   3.555   7.711   4.236  3.0746  0.2183 -0.2105
18820SOL     OW59990   9.269   5.147   9.853 -0.3836  0.1839  0.2742
18820SOL    HW159991   9.264   5.148   9.948  1.3645 -0.9406  0.4040
18820SOL    HW259992   9.253   5.238   9.827 -0.3162  0.6005  1.6605
18821SOL     OW59993   2.061   2.947   6.867  0.1261 -0.0162  0.8063
18821SOL    HW159994   2.092   2.878   6.926 -1.7996 -0.0455  1.8674
18821SOL    HW259995   2.105   3.026   6.897  0.5708 -0.3743  1.1020
18822SOL     OW59996   8.793   1.340   9.724 -0.0788 -0.2516 -0.3103
18822SOL    HW159997   8.722   1.289   9.685  1.0503 -0.5480 -2.0584
18822SOL    HW259998   8.853   1.275   9.759 -0.2034 -0.0175  0.3638
18823SOL     OW59999   9.713   2.491   5.868  0.2529 -0.2398  0.1282
18823SOL    HW160000   9.785   2.429   5.877  1.1201  0.8895  1.3021
18823SOL    HW260001   9.682   2.478   5.778  1.5055 -1.1899 -0.1962
18824SOL     OW60002   9.706   6.578   8.535 -0.2883  0.6187 -0.6054
18824SOL    HW160003   9.739   6.655   8.489  0.3340 -0.2081 -1.5887
18824SOL    HW260004   9.760   6.506   8.502 -1.1679 -0.3116 -0.0600
18825SOL     OW60005   1.061   5.384   0.878 -0.0808  0.3455 -0.2714
18825SOL    HW160006   1.017   5.383   0.962 -1.0065  1.6252 -0.7191
18825SOL    HW260007   1.022   5.311   0.829  1.2987 -1.1875  0.7540
18826SOL     OW60008   9.679   9.319   6.997  0.2169  0.0934 -0.0113
18826SOL    HW160009   9.766   9.310   6.959 -0.2208 -1.5795 -0.7148
18826SOL    HW260010   9.657   9.411   6.985  1.5994  0.3980 -0.4482
18827SOL     OW60011   9.586   6.088   4.257 -0.5012 -0.1134  0.0155
18827SOL    HW160012   9.540   6.170   4.270 -0.8743 -0.1005 -1.2359
18827SOL    HW260013   9.526   6.035   4.204  0.6687 -0.3078 -1.1661
18828SOL     OW60014   3.120   9.194   0.210 -0.1374  0.0978  0.4917
18828SOL    HW160015   3.191   9.256   0.226 -0.0330  0.6878 -1.8129
18828SOL    HW260016   3.060   9.242   0.153 -1.5732 -0.9423  1.0860
18829SOL     OW60017   8.791   4.333   7.064  0.1181  0.6507  0.3735
18829SOL    HW160018   8.773   4.427   7.071  0.4592  0.6498  1.5771
18829SOL    HW260019   8.710   4.295   7.031  0.2946  1.4730 -1.0807
18830SOL     OW60020   0.671  10.618   6.254 -0.4386 -0.5949  0.1050
18830SOL    HW160021   0.643  10.587   6.340 -0.3927 -0.5803  0.1255
18830SOL    HW260022   0.599  10.672   6.223  0.5886  1.5857  1.2784
18831SOL     OW60023   2.423   3.387   0.586  0.1314  0.2209  0.3109
18831SOL    HW160024   2.401   3.321   0.653 -2.8103  0.9085  0.1372
18831SOL    HW260025   2.414   3.471   0.632  0.5386  0.6233 -0.3386
18832SOL     OW60026   5.209  10.886   3.148 -0.1640  0.3022  0.5433
18832SOL    HW160027   5.127  10.841   3.164  0.0805 -1.2144 -1.9106
18832SOL    HW260028   5.277  10.823   3.171  0.2723  0.8954  0.8975
18833SOL     OW60029   3.154   1.929   0.362  0.3279  0.1409  0.8176
18833SOL    HW160030   3.082   1.889   0.313  1.6217  0.9431 -1.9262
18833SOL    HW260031   3.117   1.946   0.449 -3.3026  1.8256 -0.8173
18834SOL     OW60032   5.676   6.304   1.688 -0.2378 -0.0296 -0.0441
18834SOL    HW160033   5.632   6.368   1.743 -0.2309 -0.3639  0.3494
18834SOL    HW260034   5.610   6.277   1.624  0.0221  1.0318 -0.7787
18835SOL     OW60035   4.642   7.231   4.627  0.4291 -0.1651 -0.0107
18835SOL    HW160036   4.548   7.240   4.643  0.7554  3.3048  0.6172
18835SOL    HW260037   4.675   7.189   4.706 -0.3498  0.5482  0.7177
18836SOL     OW60038   9.166  11.033   0.011  0.4722 -0.3134  0.3201
18836SOL    HW160039   9.247  10.989  -0.016 -0.0104 -0.8175 -0.3532
18836SOL    HW260040   9.181  11.125  -0.011 -0.2160 -0.7965 -2.6423
18837SOL     OW60041   4.575   9.559   4.214  0.4729 -0.1657 -0.1979
18837SOL    HW160042   4.504   9.592   4.268 -0.4863  0.4464 -1.7636
18837SOL    HW260043   4.561   9.464   4.209 -0.6640  0.0280 -1.0470
18838SOL     OW60044   4.454   3.514   9.900 -0.0031 -0.3055 -0.2079
18838SOL    HW160045   4.536   3.560   9.921 -0.1414 -0.4679  0.7276
18838SOL    HW260046   4.390   3.548   9.962 -0.4070 -0.8904 -0.2902
18839SOL     OW60047   2.519   7.440   2.623 -0.1127  0.6170 -0.5427
18839SOL    HW160048   2.580   7.492   2.675  0.5844 -0.2720 -0.4653
18839SOL    HW260049   2.434   7.484   2.635  0.4576  1.7257 -0.4746
18840SOL     OW60050   9.848   3.862   9.162 -0.0300  0.3023  0.2402
18840SOL    HW160051   9.777   3.800   9.149 -0.4070  0.6549  0.5815
18840SOL    HW260052   9.926   3.816   9.132 -0.3455 -0.2281  0.2220
18841SOL     OW60053   9.245   7.019   9.170  0.0759  0.2611  0.2839
18841SOL    HW160054   9.228   7.072   9.248 -0.6277  0.7420 -0.1768
18841SOL    HW260055   9.162   7.021   9.122 -0.0031 -1.3458  0.2970
18842SOL     OW60056   6.631   9.291   2.098 -0.2993  0.4182  0.0515
18842SOL    HW160057   6.672   9.209   2.126  0.7951  1.1208  0.5570
18842SOL    HW260058   6.560   9.263   2.040  0.0700 -0.8813  0.1878
18843SOL     OW60059   4.192   8.670   0.400  0.0331 -0.0128 -0.1100
18843SOL    HW160060   4.211   8.706   0.313 -1.9318  0.7942 -0.2568
18843SOL    HW260061   4.183   8.576   0.384  2.2263 -0.2383 -0.2731
18844SOL     OW60062   8.223   3.661   6.824 -0.7391  0.1548 -0.1800
18844SOL    HW160063   8.133   3.629   6.822 -0.5762 -0.3478  0.3584
18844SOL    HW260064   8.242   3.684   6.734 -0.1971 -3.0892 -0.9858
18845SOL     OW60065   5.154   2.839   7.726  0.0048 -0.1201  0.3798
18845SOL    HW160066   5.168   2.934   7.723  0.4785 -0.1824  0.5706
18845SOL    HW260067   5.219   2.807   7.789 -1.3808 -0.3536  1.7279
18846SOL     OW60068   8.074   6.759   5.587 -0.2376  0.4674  0.1165
18846SOL    HW160069   8.009   6.812   5.540 -0.1183  0.8048  0.3271
18846SOL    HW260070   8.157   6.805   5.573  0.0910 -0.3734 -0.7821
18847SOL     OW60071   0.135   5.891   0.298  0.3058  0.6697 -0.5816
18847SOL    HW160072   0.077   5.893   0.221  1.6502  1.1620 -1.6198
18847SOL    HW260073   0.078   5.861   0.369 -0.5544 -1.8004 -2.1457
18848SOL     OW60074  10.752   7.752  10.441 -0.4485  0.9970  0.6114
18848SOL    HW160075  10.767   7.772  10.533 -1.0198 -0.7063  1.1289
18848SOL    HW260076  10.702   7.670  10.443  2.4418 -1.0069 -1.2246
18849SOL     OW60077   6.294   8.229   7.857  0.1899 -0.0404  0.1556
18849SOL    HW160078   6.296   8.294   7.928 -1.1959  0.5923 -0.3514
18849SOL    HW260079   6.204   8.231   7.825  0.6297 -0.7832 -1.2013
18850SOL     OW60080   5.026   6.730  10.362 -0.1571 -0.1328 -0.1774
18850SOL    HW160081   5.037   6.816  10.323 -0.1803  0.8247  1.8140
18850SOL    HW260082   5.111   6.711  10.403 -1.4396  1.2013  3.5452
18851SOL     OW60083   4.826   7.634   4.140 -0.5123 -0.0306 -0.1919
18851SOL    HW160084   4.740   7.596   4.120 -0.5222  0.3157 -0.8514
18851SOL    HW260085   4.853   7.591   4.221 -1.0314 -0.6047 -0.3104
18852SOL     OW60086   2.259   4.888   3.644  0.1446  0.3934 -0.3670
18852SOL    HW160087   2.295   4.801   3.660  0.1947  0.2777 -1.0818
18852SOL    HW260088   2.219   4.881   3.557 -2.3124  0.2720  0.6981
18853SOL     OW60089   4.958   7.372   9.693  0.0995 -0.4510 -0.7509
18853SOL    HW160090   4.918   7.381   9.779  0.6849  0.6965 -0.5900
18853SOL    HW260091   5.014   7.449   9.683  2.2407 -1.9423 -0.9965
18854SOL     OW60092   7.499   9.587   3.143  0.5780  0.2715 -0.5402
18854SOL    HW160093   7.469   9.675   3.165  1.9495  0.8163 -0.7501
18854SOL    HW260094   7.540   9.554   3.223  1.0801  0.2743 -0.7940
18855SOL     OW60095   1.531   6.162   8.417  0.3282 -0.1083 -0.5688
18855SOL    HW160096   1.507   6.135   8.328 -1.1887  2.0322 -0.8727
18855SOL    HW260097   1.622   6.189   8.410  0.9415 -2.0949 -0.9115
18856SOL     OW60098   4.651   9.446   4.547  0.5136 -0.4812 -0.4510
18856SOL    HW160099   4.703   9.518   4.583  1.0866 -0.5500 -1.1317
18856SOL    HW260100   4.586   9.428   4.615  2.1707 -1.2573  0.9893
18857SOL     OW60101   6.184  10.427   8.866  0.1520 -0.5880 -0.4048
18857SOL    HW160102   6.203  10.497   8.928  1.5412 -0.7317 -0.6509
18857SOL    HW260103   6.224  10.455   8.784 -1.0600 -0.7290 -1.0711
18858SOL     OW60104   8.637   6.292   0.811  0.5777 -0.0211  0.3310
18858SOL    HW160105   8.720   6.336   0.831  0.1615  1.1500 -0.4133
18858SOL    HW260106   8.571   6.343   0.857  0.2836 -1.2648  1.3620
18859SOL     OW60107   4.712   2.760   4.545  0.0351  0.4881 -0.2843
18859SOL    HW160108   4.791   2.813   4.532  0.1971  0.7171  1.4845
18859SOL    HW260109   4.667   2.764   4.460  2.3654 -0.4507 -1.6555
18860SOL     OW60110   3.548   5.172   3.181  0.5015  0.2673 -0.0839
18860SOL    HW160111   3.508   5.098   3.135  2.9646 -0.9645 -0.4090
18860SOL    HW260112   3.562   5.140   3.270  2.5917 -0.1221 -0.5142
18861SOL     OW60113   9.721   8.568   6.338 -0.3551  0.1176 -0.1411
18861SOL    HW160114   9.808   8.566   6.298 -0.0184  0.3976  0.5669
18861SOL    HW260115   9.700   8.476   6.354 -0.8129 -0.0655 -1.6020
18862SOL     OW60116   4.886   2.522  10.331  0.4582 -0.2505  0.7919
18862SOL    HW160117   4.811   2.551  10.279  0.5851 -0.9953  0.1765
18862SOL    HW260118   4.898   2.591  10.396  1.5561  1.7742 -1.3897
18863SOL     OW60119  10.215   6.203   9.875  0.2198 -0.9426 -0.1898
18863SOL    HW160120  10.163   6.271   9.917  0.0258 -1.3786  0.2807
18863SOL    HW260121  10.151   6.142   9.839  0.3950 -0.9693 -0.4668
18864SOL     OW60122   7.153   0.091   2.493  0.4380 -0.2371  0.0523
18864SOL    HW160123   7.099   0.071   2.570 -1.5186 -0.4369 -1.2873
18864SOL    HW260124   7.127   0.025   2.428  2.4213 -0.4031 -0.6486
18865SOL     OW60125   0.032   9.654   5.649  0.3790 -0.1020 -0.0940
18865SOL    HW160126   0.018   9.612   5.734 -1.0838 -0.2128 -0.3579
18865SOL    HW260127   0.124   9.677   5.649  0.7762 -1.5256  0.8743
18866SOL     OW60128  11.109  10.671  10.093 -0.7158 -0.4962 -0.0198
18866SOL    HW160129  11.168  10.664  10.018 -1.0757 -1.0636 -0.2596
18866SOL    HW260130  11.121  10.761  10.125 -0.0937 -0.4471 -0.3643
18867SOL     OW60131   0.447   4.750   4.646 -0.3140  0.2906  0.2514
18867SOL    HW160132   0.397   4.821   4.606 -0.7462 -0.5102 -0.6769
18867SOL    HW260133   0.486   4.703   4.572 -1.2344 -1.3181  0.7373
18868SOL     OW60134   6.365   0.326   2.981 -0.2264 -0.7203  0.5194
18868SOL    HW160135   6.294   0.290   3.034 -1.0159 -2.1467 -1.3678
18868SOL    HW260136   6.321   0.382   2.917  0.6614  0.6719  1.0771
18869SOL     OW60137   6.850   8.371   8.753 -0.3080  0.1799 -0.7154
18869SOL    HW160138   6.838   8.292   8.805  1.8335  0.7646  0.8211
18869SOL    HW260139   6.880   8.437   8.816  1.0675  1.3124 -2.4520
18870SOL     OW60140   4.884   7.761   2.379  0.2063 -0.1596 -0.0231
18870SOL    HW160141   4.843   7.680   2.411  1.3492 -0.5718  0.4469
18870SOL    HW260142   4.965   7.732   2.337  0.5618  0.7388  0.0213
18871SOL     OW60143   7.998   8.769   5.360 -0.2414 -0.0919  0.4859
18871SOL    HW160144   8.088   8.738   5.369 -0.5256 -1.1078 -0.1336
18871SOL    HW260145   8.007   8.863   5.345  0.6635 -0.0059  1.4245
18872SOL     OW60146   1.828   7.031   8.114  0.4257 -0.0378  0.4638
18872SOL    HW160147   1.833   7.107   8.173  0.7934  0.7288 -0.5395
18872SOL    HW260148   1.839   6.955   8.172 -0.7623  0.6127  1.6104
18873SOL     OW60149  10.246   1.904   3.638 -0.6657  0.0450  0.0001
18873SOL    HW160150  10.193   1.973   3.599 -1.9956 -0.7086  0.4199
18873SOL    HW260151  10.191   1.867   3.708  0.3645 -0.8379  0.3804
18874SOL     OW60152   8.178   0.750   6.865 -0.0486  0.4137  0.9273
18874SOL    HW160153   8.213   0.691   6.932  1.7064  1.0416  0.6103
18874SOL    HW260154   8.221   0.834   6.882  0.6625  0.5246 -1.1242
18875SOL     OW60155   7.784   2.855   6.845  0.4886  0.0113 -0.6509
18875SOL    HW160156   7.864   2.808   6.869  0.6795  0.6147 -0.0616
18875SOL    HW260157   7.725   2.842   6.919  0.7715  1.2013 -0.1947
18876SOL     OW60158   7.006  10.672   0.025  0.3631  0.4007  0.1662
18876SOL    HW160159   7.008  10.758   0.066  0.7860  1.3727 -1.7602
18876SOL    HW260160   6.955  10.618   0.086 -0.6759  2.2286  1.0290
18877SOL     OW60161   1.109   4.104   1.058 -0.0110 -0.0836  0.1052
18877SOL    HW160162   1.190   4.057   1.078 -0.0020  0.6903  2.2190
18877SOL    HW260163   1.133   4.196   1.062 -0.8228  0.1411 -0.0317
18878SOL     OW60164   6.889   9.450   8.072 -0.5871 -0.2139  0.4324
18878SOL    HW160165   6.867   9.540   8.098  2.4528  0.0201  2.8116
18878SOL    HW260166   6.966   9.459   8.017 -1.0284 -1.3375 -0.3976
18879SOL     OW60167   3.720   1.754  10.864 -0.1296 -0.1548 -0.3816
18879SOL    HW160168   3.703   1.683  10.802 -0.8315 -0.9906  0.7202
18879SOL    HW260169   3.815   1.759  10.871 -0.0565 -2.2005  0.8229
18880SOL     OW60170  10.460   7.875   4.137  0.2350  0.2633 -0.2824
18880SOL    HW160171  10.442   7.937   4.207  1.1981  1.1072 -0.7766
18880SOL    HW260172  10.480   7.793   4.183 -3.6526 -0.5441  0.3701
18881SOL     OW60173   9.634   3.574   6.139  0.0337  0.2224 -0.0051
18881SOL    HW160174   9.572   3.508   6.108  0.6494 -0.4793  0.2305
18881SOL    HW260175   9.600   3.600   6.224  0.3223 -0.5441  0.3613
18882SOL     OW60176   5.495   4.070   5.642 -0.5181  0.1164 -0.2897
18882SOL    HW160177   5.569   4.101   5.590  0.8586 -0.3790  1.2764
18882SOL    HW260178   5.430   4.042   5.578 -0.1312  2.2585 -1.7316
18883SOL     OW60179   1.543   5.833   6.759 -0.3682 -0.1967 -0.3950
18883SOL    HW160180   1.633   5.821   6.729 -0.0030  1.4761 -0.0651
18883SOL    HW260181   1.490   5.790   6.693  0.6594 -1.2106 -0.5948
18884SOL     OW60182   6.324   8.072   5.282 -0.0942  0.0058  0.5278
18884SOL    HW160183   6.413   8.088   5.251  0.3438 -0.2518  1.6007
18884SOL    HW260184   6.286   8.159   5.293  0.0954  0.1228  0.2546
18885SOL     OW60185   2.339   9.914   1.340 -0.3050  0.8134  0.2338
18885SOL    HW160186   2.373  10.001   1.362 -0.9979  0.5754  2.5334
18885SOL    HW260187   2.244   9.922   1.352 -0.4998  0.0588 -0.7497
18886SOL     OW60188   4.768   3.333   7.364  1.0895 -0.2759  0.1867
18886SOL    HW160189   4.860   3.358   7.354  0.6597  1.5792  0.4810
18886SOL    HW260190   4.767   3.239   7.351  2.9890 -0.2854 -0.1390
18887SOL     OW60191   0.396   1.534   3.197 -0.4578 -0.1160  0.2048
18887SOL    HW160192   0.401   1.612   3.142  0.0440 -0.7841 -0.7273
18887SOL    HW260193   0.392   1.461   3.134  1.2254 -0.9705  1.0515
18888SOL     OW60194   1.341   6.897   5.820  0.5634 -0.1877  0.1664
18888SOL    HW160195   1.316   6.990   5.817  0.6278 -0.1194  1.1290
18888SOL    HW260196   1.418   6.895   5.877  0.7065 -0.8070 -0.0409
18889SOL     OW60197   2.612   4.074   5.531 -0.0486 -0.1386 -0.5998
18889SOL    HW160198   2.670   4.081   5.606  0.8349  1.7575 -1.3987
18889SOL    HW260199   2.548   4.007   5.556 -0.1392  0.8334  2.0450
18890SOL     OW60200   1.636   3.088   8.900 -0.0245  0.1621 -0.5229
18890SOL    HW160201   1.695   3.041   8.959 -0.2163 -0.8130 -1.0825
18890SOL    HW260202   1.571   3.128   8.958  1.1259  1.2120  0.0954
18891SOL     OW60203   7.421   8.217   1.112  0.2552  0.2728 -0.6637
18891SOL    HW160204   7.383   8.154   1.051 -1.0456 -0.1301  0.5066
18891SOL    HW260205   7.346   8.249   1.163  1.1850  1.2171  0.1522
18892SOL     OW60206   1.266   5.975   6.862  0.1109 -0.4683  0.0875
18892SOL    HW160207   1.342   6.014   6.905  2.5427 -0.3731 -3.9099
18892SOL    HW260208   1.283   5.881   6.864 -0.2797 -0.5397  0.1517
18893SOL     OW60209  10.361   7.347   8.802  0.5834 -0.4755 -0.0557
18893SOL    HW160210  10.409   7.343   8.885 -2.4639  0.8845  1.9396
18893SOL    HW260211  10.364   7.439   8.776 -0.3002 -0.4911 -0.2614
18894SOL     OW60212   4.186   6.776   8.824 -0.0372  0.1244  0.4016
18894SOL    HW160213   4.211   6.763   8.915  0.1974  1.2531  0.5016
18894SOL    HW260214   4.092   6.760   8.823 -0.0649  0.2403  0.8637
18895SOL     OW60215  10.194   4.981   2.736  0.1409  0.6891  0.2901
18895SOL    HW160216  10.200   5.026   2.820  3.6602  0.6685  0.2232
18895SOL    HW260217  10.144   5.040   2.680  0.4775  2.2403  1.5413
18896SOL     OW60218   7.501   4.814   0.696 -0.0371  0.1499 -0.6213
18896SOL    HW160219   7.584   4.798   0.651  0.0795  0.8222 -0.6596
18896SOL    HW260220   7.479   4.905   0.674  0.3581  0.7210  1.1862
18897SOL     OW60221   5.621   2.772   4.486  0.4200  0.0555 -0.6234
18897SOL    HW160222   5.642   2.775   4.579  0.3501  1.1002 -0.6231
18897SOL    HW260223   5.540   2.823   4.478  0.8409  0.6306 -1.3528
18898SOL     OW60224   2.937   8.111  10.985 -0.2355  0.2776 -0.0815
18898SOL    HW160225   3.000   8.039  10.992 -0.0953  0.4475  0.5086
18898SOL    HW260226   2.949   8.145  10.897 -1.8448 -1.8262 -1.2029
18899SOL     OW60227   9.284   8.069   1.160 -0.0148 -0.4330 -0.1708
18899SOL    HW160228   9.233   8.121   1.223  1.1356  0.3765  0.1136
18899SOL    HW260229   9.327   8.002   1.213 -0.2649 -0.7286 -0.3306
18900SOL     OW60230   5.639  10.886   3.877  0.2194 -0.0759  0.3762
18900SOL    HW160231   5.562  10.875   3.821  0.1466  0.1197  0.4374
18900SOL    HW260232   5.668  10.797   3.896 -0.0904 -0.1542  0.4902
18901SOL     OW60233   7.994   9.907   7.344 -0.6220 -0.4179  0.2319
18901SOL    HW160234   7.947   9.875   7.266 -0.8938  1.5168 -0.4628
18901SOL    HW260235   8.086   9.899   7.321 -0.6961  0.8508 -0.6681
18902SOL     OW60236   3.115   8.607   9.139 -0.2757  0.6550 -0.3021
18902SOL    HW160237   3.039   8.662   9.125 -0.0979  0.8446 -0.5456
18902SOL    HW260238   3.168   8.618   9.060  0.3995  1.1687  0.2017
18903SOL     OW60239   3.544   2.683   7.284  0.5922  0.2422 -0.0438
18903SOL    HW160240   3.627   2.637   7.292  0.7755  0.4803 -0.5979
18903SOL    HW260241   3.479   2.619   7.314  0.7426 -0.7384 -1.7041
18904SOL     OW60242   8.768   8.820   3.787 -0.3227  0.4791  0.3235
18904SOL    HW160243   8.826   8.745   3.776 -1.7982 -0.4949 -1.3169
18904SOL    HW260244   8.690   8.783   3.831 -0.0520  1.6109  1.8548
18905SOL     OW60245   8.118  10.101   1.437  0.0836 -0.3961 -0.4125
18905SOL    HW160246   8.176  10.053   1.378  0.1730  0.5791 -1.1445
18905SOL    HW260247   8.033  10.098   1.393 -0.0379 -0.3686 -0.1778
18906SOL     OW60248   6.867   2.121  10.102 -0.0621 -0.4206  0.2486
18906SOL    HW160249   6.937   2.150  10.043 -0.5873 -1.2472 -0.8209
18906SOL    HW260250   6.911   2.102  10.185  0.9346 -0.6777 -0.3331
18907SOL     OW60251   5.673   6.946   9.041 -0.1342 -0.0073  0.0069
18907SOL    HW160252   5.620   6.942   8.962  0.5624 -0.7111 -0.4339
18907SOL    HW260253   5.761   6.968   9.011 -0.3359  2.2445  0.8275
18908SOL     OW60254   6.563   0.056   0.750  0.4003  0.2968 -0.5385
18908SOL    HW160255   6.646   0.018   0.778 -0.8087 -1.9128  0.2498
18908SOL    HW260256   6.527   0.097   0.828  0.9062  1.6154 -0.9773
18909SOL     OW60257   1.238   7.319   8.146 -0.3660 -0.4110 -0.4891
18909SOL    HW160258   1.319   7.293   8.102  0.5317 -0.1944  0.9598
18909SOL    HW260259   1.177   7.336   8.075  1.0805  0.1233 -1.6664
18910SOL     OW60260   3.285   5.234   6.372  0.0726 -0.1901 -0.1364
18910SOL    HW160261   3.224   5.250   6.300 -0.5005  0.4528  0.4841
18910SOL    HW260262   3.371   5.248   6.334 -0.1661 -0.9356 -0.9798
18911SOL     OW60263   2.245   7.239   2.167  0.2671  0.2782 -0.4403
18911SOL    HW160264   2.197   7.290   2.232 -0.2273  0.0394 -0.6120
18911SOL    HW260265   2.191   7.245   2.088  1.4945  1.6550 -1.2293
18912SOL     OW60266   6.671  10.873   1.293 -0.4830 -0.2367 -0.0808
18912SOL    HW160267   6.696  10.808   1.227 -0.1210  1.2468 -1.4572
18912SOL    HW260268   6.744  10.874   1.354 -0.7423 -1.5016  0.2772
18913SOL     OW60269   4.278  10.222  10.959  0.2176  0.1737 -0.1724
18913SOL    HW160270   4.350  10.175  11.002  1.0867  2.2973  0.8088
18913SOL    HW260271   4.321  10.294  10.913 -1.2250  1.1096 -0.1154
18914SOL     OW60272   0.346   3.397   0.794  0.0177 -0.1800 -0.0044
18914SOL    HW160273   0.326   3.490   0.809 -0.8376 -0.4948  0.9407
18914SOL    HW260274   0.430   3.398   0.747  0.8382  1.0403  1.3880
18915SOL     OW60275   5.116   9.439   1.324  0.1782 -1.0925  0.0431
18915SOL    HW160276   5.168   9.408   1.398 -0.3176 -0.3843  0.7108
18915SOL    HW260277   5.030   9.401   1.338 -0.9362  1.6917  1.7859
18916SOL     OW60278   8.413   2.559  10.945 -0.3740  0.4378 -0.2105
18916SOL    HW160279   8.343   2.533  11.004 -0.9784  3.8490  0.7590
18916SOL    HW260280   8.477   2.603  11.001  2.1913 -1.6984 -1.2275
18917SOL     OW60281   0.076   6.477   6.377 -0.0764 -0.0551 -0.2305
18917SOL    HW160282   0.123   6.486   6.294 -0.5061 -0.1736 -0.4905
18917SOL    HW260283   0.044   6.387   6.377  0.8560 -0.4015  0.5740
18918SOL     OW60284   2.310   9.967   5.960 -0.4497  0.1265  0.6278
18918SOL    HW160285   2.324   9.982   6.053  0.6254  0.8311  0.3709
18918SOL    HW260286   2.340   9.878   5.945  1.7833  0.8547  0.5164
18919SOL     OW60287   4.174   9.683  10.835  0.3779  1.0043 -0.9281
18919SOL    HW160288   4.212   9.720  10.915 -0.2269 -1.1100  0.4367
18919SOL    HW260289   4.080   9.681  10.851  0.3072 -0.1098 -1.3574
18920SOL     OW60290   9.336   9.609   7.079  0.0883 -1.0340  0.1796
18920SOL    HW160291   9.391   9.535   7.106  0.3934 -0.9685 -0.2379
18920SOL    HW260292   9.263   9.608   7.139 -0.1760 -1.9894 -0.1359
18921SOL     OW60293   5.753  10.885  10.788  0.0580 -0.1454 -0.2005
18921SOL    HW160294   5.691  10.819  10.758 -0.2342 -0.3759  0.8653
18921SOL    HW260295   5.839  10.850  10.764 -0.0987 -0.8839  0.2846
18922SOL     OW60296   2.306  10.926   1.985  0.1451  0.5438 -0.2960
18922SOL    HW160297   2.300  10.842   2.029 -1.2396  0.6147 -0.3166
18922SOL    HW260298   2.398  10.952   1.996  0.3153 -0.4027  0.7243
18923SOL     OW60299   6.148   9.654   3.978 -0.3727 -0.2396 -0.5098
18923SOL    HW160300   6.111   9.572   3.943 -0.3901  0.4223 -2.1648
18923SOL    HW260301   6.074   9.715   3.979  0.3323  0.7885 -2.8440
18924SOL     OW60302   6.674   6.738   7.744  0.6140  0.0091 -0.1045
18924SOL    HW160303   6.719   6.818   7.771 -0.0635  0.7028 -0.9530
18924SOL    HW260304   6.595   6.735   7.798 -0.6108  1.2605 -1.7375
18925SOL     OW60305   0.272   7.261   3.422 -0.1470  0.0727 -0.2381
18925SOL    HW160306   0.300   7.208   3.497  1.8844  1.4467  0.0433
18925SOL    HW260307   0.278   7.351   3.452 -2.7680  0.5682 -0.9726
18926SOL     OW60308   9.317   9.980   1.151 -0.1381 -0.6653  0.4304
18926SOL    HW160309   9.250   9.912   1.148 -0.3622 -0.4133 -0.5623
18926SOL    HW260310   9.387   9.943   1.205 -0.7611 -1.2121  0.8682
18927SOL     OW60311  11.016   0.098   4.021 -0.0566 -0.2723  0.1265
18927SOL    HW160312  11.107   0.122   4.036 -0.2307 -0.2988  1.2817
18927SOL    HW260313  11.003   0.019   4.074 -0.5054 -0.7904 -0.7329
18928SOL     OW60314   3.529   1.722  10.128  0.0701 -0.4555  0.8871
18928SOL    HW160315   3.515   1.637  10.087 -0.1639 -0.2371  0.5046
18928SOL    HW260316   3.468   1.780  10.084 -0.5402 -0.3148  1.8926
18929SOL     OW60317   2.107   8.593   5.477  0.7779  0.2733  0.2650
18929SOL    HW160318   2.133   8.525   5.540 -3.3710 -2.5328 -0.6320
18929SOL    HW260319   2.061   8.658   5.530  1.0973  0.1990  0.6380
18930SOL     OW60320   7.456  11.055  10.593 -0.5886  0.1866  0.3874
18930SOL    HW160321   7.534  11.004  10.619 -1.0151 -0.1131  1.1157
18930SOL    HW260322   7.492  11.135  10.554  0.0909 -0.0562  0.4927
18931SOL     OW60323   8.661   1.148   6.493 -0.3225 -0.3065  0.0241
18931SOL    HW160324   8.576   1.147   6.448 -2.0265  1.7212  2.8051
18931SOL    HW260325   8.651   1.086   6.565 -0.4773  1.6147  1.7896
18932SOL     OW60326   8.564   8.641   9.379 -0.1810 -0.2810  0.4143
18932SOL    HW160327   8.536   8.553   9.352  0.4996 -0.2104 -0.5838
18932SOL    HW260328   8.515   8.658   9.460  0.2028 -1.8556  1.0147
18933SOL     OW60329   5.871   2.872   1.939 -0.1317 -0.2795  0.0913
18933SOL    HW160330   5.929   2.798   1.957 -1.4609 -0.8247  2.4439
18933SOL    HW260331   5.931   2.944   1.916  1.3853 -1.2310  0.9088
18934SOL     OW60332   4.559   6.485   7.617 -0.0149  0.9289 -0.2579
18934SOL    HW160333   4.510   6.541   7.677  1.0269 -0.7064  2.3020
18934SOL    HW260334   4.638   6.534   7.596  0.1728  1.0695  0.7298
18935SOL     OW60335   8.699   8.978   4.725  0.4691  0.5250  0.0809
18935SOL    HW160336   8.729   8.903   4.673  1.2910  0.3456  0.7886
18935SOL    HW260337   8.623   9.012   4.677  1.1787  0.3459 -1.2217
18936SOL     OW60338   9.038   7.451   0.961 -0.1708  0.2102  0.0994
18936SOL    HW160339   9.020   7.503   0.883 -3.1013 -0.3495  0.2577
18936SOL    HW260340   9.045   7.516   1.032  0.0563  0.5980 -0.2757
18937SOL     OW60341   9.032   4.048   0.343  0.5233  0.1132 -0.4739
18937SOL    HW160342   9.115   4.046   0.391  0.8684 -1.6353 -1.0431
18937SOL    HW260343   8.965   4.050   0.411  1.0277 -0.3674  0.0514
18938SOL     OW60344   6.820   7.993   5.272  0.2680 -0.2769 -0.3297
18938SOL    HW160345   6.767   8.038   5.338  1.9654  1.6776 -0.1800
18938SOL    HW260346   6.893   8.053   5.256  1.1023 -1.7281 -2.3430
18939SOL     OW60347   3.948   5.480   4.851 -0.3609  0.4647  0.2361
18939SOL    HW160348   3.921   5.571   4.839  1.3406  0.8989 -0.6303
18939SOL    HW260349   3.944   5.467   4.946 -1.3537  1.1756  0.3146
18940SOL     OW60350  10.798   0.478   2.725  0.4420 -0.2511  0.4233
18940SOL    HW160351  10.714   0.509   2.693  0.9228  0.7158  0.0783
18940SOL    HW260352  10.860   0.499   2.655  1.3586  1.1265  1.5966
18941SOL     OW60353   4.460   6.978   7.798 -0.0121 -0.5097  0.0175
18941SOL    HW160354   4.452   6.916   7.870 -2.0040  0.1840  0.4738
18941SOL    HW260355   4.493   6.926   7.725  0.7600 -1.5264  1.0611
18942SOL     OW60356   8.047   6.167   4.269  0.8450 -0.2214 -0.1328
18942SOL    HW160357   8.091   6.246   4.301 -1.5898  0.0887  2.9600
18942SOL    HW260358   7.968   6.199   4.227  0.7012 -0.9433 -0.4258
18943SOL     OW60359   2.525   6.028  10.709 -0.1275 -0.3943 -0.0759
18943SOL    HW160360   2.571   6.032  10.793  0.9233 -0.8533 -0.6109
18943SOL    HW260361   2.464   5.955  10.719 -0.1521 -0.3222  0.3490
18944SOL     OW60362   8.333   2.565   2.159  0.5692  0.4364  0.5754
18944SOL    HW160363   8.345   2.475   2.128  3.0915 -0.1593  2.8455
18944SOL    HW260364   8.241   2.585   2.142 -0.0906 -2.5987  0.0826
18945SOL     OW60365   7.456   2.305   4.489 -0.6386  0.1757 -0.8748
18945SOL    HW160366   7.524   2.241   4.469 -1.0554 -0.6020  0.0736
18945SOL    HW260367   7.393   2.295   4.418  0.3458  1.1037 -1.9135
18946SOL     OW60368   8.528   7.637   4.464 -0.2674  0.0436 -0.0001
18946SOL    HW160369   8.563   7.595   4.543  0.4300  1.6811  0.6153
18946SOL    HW260370   8.434   7.640   4.478 -0.3660 -1.4634 -0.1661
18947SOL     OW60371   6.057   0.411   1.718 -0.3350  0.0754  0.7821
18947SOL    HW160372   5.975   0.363   1.729 -0.2335 -0.3655 -0.2273
18947SOL    HW260373   6.110   0.355   1.662  0.9523  0.0324  2.0141
18948SOL     OW60374   3.615   1.905   5.171 -0.0828  0.1577 -0.0814
18948SOL    HW160375   3.694   1.918   5.119  0.2002  0.0954  0.3246
18948SOL    HW260376   3.643   1.848   5.243 -1.1187 -2.2435 -1.4466
18949SOL     OW60377   1.104   7.980   7.329  0.2074  0.0983 -0.3250
18949SOL    HW160378   1.058   8.057   7.296 -0.4783 -0.5319 -0.8519
18949SOL    HW260379   1.036   7.929   7.373  0.9498  0.5599  1.4730
18950SOL     OW60380   8.544   7.660  10.377 -0.0668 -0.2216  0.4911
18950SOL    HW160381   8.462   7.614  10.360 -0.2618  0.1158  0.5038
18950SOL    HW260382   8.574   7.689  10.290  0.7038 -1.4476  0.3301
18951SOL     OW60383  10.568   9.877   2.019  0.2100 -0.3558  0.1935
18951SOL    HW160384  10.626   9.896   2.092 -0.3031 -0.0530  0.5298
18951SOL    HW260385  10.498   9.824   2.057 -0.0707 -0.1793 -0.0709
18952SOL     OW60386   4.318   6.274   7.873  0.1569  0.0472  0.0250
18952SOL    HW160387   4.343   6.316   7.955  1.2245 -0.7244  0.1192
18952SOL    HW260388   4.246   6.216   7.896  0.3289 -0.0235  0.3888
18953SOL     OW60389   5.124   1.562   3.861 -0.1115  0.5037 -0.5499
18953SOL    HW160390   5.135   1.468   3.846 -1.6363  0.6083 -2.9038
18953SOL    HW260391   5.212   1.594   3.880  0.2745 -1.5280  1.5778
18954SOL     OW60392   3.469   2.558   6.395 -0.4758  0.5744 -0.1459
18954SOL    HW160393   3.564   2.567   6.384 -0.3215 -0.6490  0.0423
18954SOL    HW260394   3.443   2.495   6.328 -1.1775  0.9640 -0.2509
18955SOL     OW60395   2.301   1.690   5.027  0.0789  0.7478  0.1018
18955SOL    HW160396   2.214   1.669   4.991  0.6562  0.3954 -1.1175
18955SOL    HW260397   2.334   1.606   5.058  0.5875  0.6184 -0.7813
18956SOL     OW60398   0.688   2.028   7.148 -0.1402  0.0264  0.3200
18956SOL    HW160399   0.717   2.112   7.113 -0.2912  0.1165  0.4091
18956SOL    HW260400   0.769   1.983   7.174 -0.0493  0.0798  0.1285
18957SOL     OW60401   7.044   6.565   8.405 -0.7333  0.3949 -0.1968
18957SOL    HW160402   7.045   6.626   8.479  0.6122 -0.0620  0.1969
18957SOL    HW260403   7.004   6.485   8.441 -0.1435  0.1962  0.0352
18958SOL     OW60404   2.025  11.113   7.004 -0.2860 -0.0286 -0.6731
18958SOL    HW160405   2.081  11.045   7.040 -0.7319  0.3270  0.7486
18958SOL    HW260406   2.067  11.195   7.029  0.1480  0.2691 -2.2146
18959SOL     OW60407   1.658   7.650   3.893 -0.0854  0.1191  0.0683
18959SOL    HW160408   1.727   7.656   3.828 -0.2515  0.4738 -0.0757
18959SOL    HW260409   1.646   7.556   3.907  0.3968  0.0569  0.0649
18960SOL     OW60410   5.665   9.841   5.869  0.0929 -0.0662  0.0497
18960SOL    HW160411   5.676   9.868   5.960 -1.7600 -0.9687  0.5808
18960SOL    HW260412   5.584   9.883   5.840 -0.5206 -1.5430 -0.4712
18961SOL     OW60413   0.002   6.724   6.933  0.1236  0.0208  0.5573
18961SOL    HW160414   0.096   6.714   6.949 -0.0271 -0.6743  1.0927
18961SOL    HW260415  -0.004   6.756   6.843  0.8647 -0.1918  0.4253
18962SOL     OW60416   9.848   0.089   1.163 -0.0447 -0.4334  0.3137
18962SOL    HW160417   9.918   0.098   1.227 -0.1013 -0.7372  0.4168
18962SOL    HW260418   9.828   0.179   1.137 -0.9429 -0.2154  1.7100
18963SOL     OW60419  10.523   5.330   0.822  0.0742  0.1054  0.3173
18963SOL    HW160420  10.495   5.376   0.901  0.8630 -0.5628  1.0067
18963SOL    HW260421  10.442   5.295   0.784 -0.4115  1.1552  0.3442
18964SOL     OW60422   6.229   0.043   9.507 -0.2961  0.0702  0.3322
18964SOL    HW160423   6.291   0.042   9.579 -1.5164 -0.5448  1.4308
18964SOL    HW260424   6.199  -0.048   9.501 -3.2292  0.8124  1.8339
18965SOL     OW60425   5.237   2.624   2.894  0.3086  0.0521 -0.2991
18965SOL    HW160426   5.288   2.703   2.911  0.8279 -0.0190 -1.3930
18965SOL    HW260427   5.199   2.639   2.807 -0.8086 -0.2726  0.1228
18966SOL     OW60428   1.987   6.820   8.334  0.1129  0.1033 -0.4083
18966SOL    HW160429   2.004   6.778   8.250 -0.2213 -3.3235  1.0505
18966SOL    HW260430   1.943   6.752   8.385 -0.0237  2.1636  2.4180
18967SOL     OW60431   3.912   1.760   1.028 -0.0460  0.0205 -0.0586
18967SOL    HW160432   3.967   1.682   1.029 -0.7125 -0.5142 -1.6851
18967SOL    HW260433   3.897   1.780   1.120  0.5107 -1.4971  0.3925
18968SOL     OW60434   4.420  10.666   8.064 -0.7629  0.4004 -0.9501
18968SOL    HW160435   4.460  10.710   7.989 -0.0052  0.9358 -0.2439
18968SOL    HW260436   4.435  10.573   8.048  1.9755  0.6251 -0.0559
18969SOL     OW60437   2.416   5.772   5.589 -0.4466 -0.4041  0.1581
18969SOL    HW160438   2.459   5.691   5.616  1.4549  0.5836  0.3224
18969SOL    HW260439   2.486   5.824   5.550 -2.0610  0.3087 -1.9525
18970SOL     OW60440   9.751   9.303   7.693 -0.1359 -0.0850  0.0230
18970SOL    HW160441   9.845   9.295   7.706 -0.0596  0.0655 -0.4257
18970SOL    HW260442   9.717   9.330   7.778 -0.0617 -2.4213  0.8633
18971SOL     OW60443   8.911   0.514   1.271 -0.0339 -0.6270 -0.0217
18971SOL    HW160444   8.865   0.430   1.279  0.4744 -0.8083  1.2065
18971SOL    HW260445   8.844   0.580   1.287  0.2314 -0.9050  2.5954
18972SOL     OW60446   4.744   8.415   4.744 -0.7452  0.4735 -0.3941
18972SOL    HW160447   4.660   8.370   4.752 -0.9746  0.4863 -2.1768
18972SOL    HW260448   4.760   8.454   4.830 -1.4541 -1.4153  0.6312
18973SOL     OW60449   6.794  10.373   8.867 -0.6323 -0.5513 -0.0843
18973SOL    HW160450   6.704  10.366   8.898 -1.0312 -0.4089 -1.1821
18973SOL    HW260451   6.844  10.318   8.927 -1.1488  0.7567  1.6287
18974SOL     OW60452  10.506   7.654   5.206 -0.0506 -0.3287  0.0733
18974SOL    HW160453  10.501   7.586   5.272 -0.7405  0.2247  0.6073
18974SOL    HW260454  10.550   7.613   5.132  0.6739 -0.9795  0.8436
18975SOL     OW60455   6.583   7.315   6.324 -0.1460 -0.1546  0.5134
18975SOL    HW160456   6.618   7.317   6.235 -1.2837 -0.0187  0.0510
18975SOL    HW260457   6.569   7.222   6.343  0.6399 -0.2275  0.7889
18976SOL     OW60458   7.059   2.514   6.833 -0.4197  0.6562 -0.1142
18976SOL    HW160459   7.099   2.600   6.841 -0.6809  0.7885 -0.2204
18976SOL    HW260460   6.982   2.528   6.778 -0.1057  0.2385 -0.6683
18977SOL     OW60461   7.467   6.743   4.643  0.0125 -0.3043 -0.0477
18977SOL    HW160462   7.422   6.786   4.570  0.0503 -2.3595 -1.3721
18977SOL    HW260463   7.495   6.815   4.700 -1.5346  1.2715 -1.1595
18978SOL     OW60464   8.017   4.363   9.686  0.3390 -0.6644  0.0300
18978SOL    HW160465   8.080   4.316   9.632  0.3469  0.0838 -0.6371
18978SOL    HW260466   7.932   4.339   9.650  0.3206 -0.5492 -0.0060
18979SOL     OW60467   9.984   6.743   5.024 -0.2312 -0.0602  0.3172
18979SOL    HW160468   9.990   6.838   5.034 -0.6331 -0.0803  0.8285
18979SOL    HW260469  10.054   6.721   4.964  0.6703  0.4158  1.1627
18980SOL     OW60470   8.389   9.643   5.064  0.4792  0.1670  0.9509
18980SOL    HW160471   8.389   9.547   5.065  3.4232  0.0614 -0.1403
18980SOL    HW260472   8.299   9.666   5.043 -0.1707 -2.3653  0.5828
18981SOL     OW60473   9.063   0.464   1.045 -0.0839 -0.0618 -0.3572
18981SOL    HW160474   9.091   0.373   1.059  2.3943  0.8065  0.9808
18981SOL    HW260475   9.004   0.483   1.118  0.2345 -0.3014 -0.0345
18982SOL     OW60476   9.553   6.823   2.949 -0.2444 -0.7522 -0.6517
18982SOL    HW160477   9.594   6.747   2.992 -1.9495 -1.7872 -0.7488
18982SOL    HW260478   9.461   6.799   2.942 -0.6329  0.9098 -1.6785
18983SOL     OW60479   2.257   0.318   6.347 -0.2605  0.0365 -0.3312
18983SOL    HW160480   2.344   0.279   6.339 -0.1757  0.1431  0.0672
18983SOL    HW260481   2.220   0.280   6.426 -0.4838  0.1705 -0.3683
18984SOL     OW60482   5.811   8.432   9.067 -0.0499 -0.1007  0.0767
18984SOL    HW160483   5.903   8.439   9.041 -0.0523  2.1423  0.4681
18984SOL    HW260484   5.774   8.518   9.046 -2.1704 -1.0847 -0.4327
18985SOL     OW60485   2.907   1.688   0.088  0.3243  0.0014  0.3300
18985SOL    HW160486   2.880   1.612   0.037  1.4096 -0.0294 -0.2110
18985SOL    HW260487   2.869   1.763   0.041  1.3983 -0.0177 -0.6076
18986SOL     OW60488   6.769   2.043   3.787  0.3231  0.1631  0.3739
18986SOL    HW160489   6.718   2.090   3.853 -0.4048  0.2219 -0.2145
18986SOL    HW260490   6.745   2.085   3.705  0.8032 -0.2691  0.0072
18987SOL     OW60491   6.981  10.375   5.090  0.2025 -0.2173  0.0889
18987SOL    HW160492   7.058  10.356   5.036  1.3239  1.8738  0.8287
18987SOL    HW260493   6.912  10.396   5.027  1.8598  3.6154 -0.7716
18988SOL     OW60494   2.933   7.129   6.116  0.0717  0.5103  0.7314
18988SOL    HW160495   2.888   7.045   6.108  2.3595 -0.8820  1.5446
18988SOL    HW260496   2.924   7.152   6.208  1.9671 -0.4505  1.2234
18989SOL     OW60497   1.047   3.418   1.322  0.1264 -0.1344 -0.4567
18989SOL    HW160498   1.055   3.356   1.249 -1.1896 -0.2990 -0.4887
18989SOL    HW260499   0.956   3.447   1.318  0.5464  1.3171 -0.0313
18990SOL     OW60500   4.875   2.276   6.901 -0.2307  0.3733  0.1564
18990SOL    HW160501   4.899   2.367   6.917  2.9841 -0.4927  1.0143
18990SOL    HW260502   4.875   2.267   6.806  0.1726  1.0732  0.0891
18991SOL     OW60503   7.408   9.174   0.136 -0.2844  0.2584  0.1430
18991SOL    HW160504   7.332   9.182   0.195 -0.3980  0.2921 -0.0069
18991SOL    HW260505   7.374   9.128   0.059  0.2595 -1.3479  0.8196
18992SOL     OW60506  10.207   9.528   1.240 -0.4192  0.3386  0.1059
18992SOL    HW160507  10.213   9.433   1.240 -1.0396  0.2858  1.2211
18992SOL    HW260508  10.297   9.558   1.256 -0.6749 -0.1523  3.0038
18993SOL     OW60509   9.435   7.823   2.780  0.3461 -0.2870 -0.3506
18993SOL    HW160510   9.510   7.795   2.728  0.3299 -1.0921  0.0414
18993SOL    HW260511   9.376   7.865   2.717  0.5706 -0.7539 -0.8794
18994SOL     OW60512  10.914   9.738   3.413  0.4534  0.4403 -0.0716
18994SOL    HW160513  10.877   9.779   3.336  1.2675  0.4863 -0.4499
18994SOL    HW260514  10.992   9.692   3.381  2.0109  2.1653  1.0298
18995SOL     OW60515   2.790   3.788  10.219 -0.1171  0.2710  0.4517
18995SOL    HW160516   2.743   3.764  10.140  1.2723  2.2335 -1.0496
18995SOL    HW260517   2.747   3.867  10.251 -0.2244 -0.1041  1.2687
18996SOL     OW60518   3.198   1.313   7.491 -0.3242 -0.1650  0.0322
18996SOL    HW160519   3.178   1.254   7.564 -0.3522 -1.6065 -1.0971
18996SOL    HW260520   3.197   1.256   7.414 -1.1571  1.4816 -1.2134
18997SOL     OW60521   7.064   4.263   3.980  0.5732  0.1220  0.1669
18997SOL    HW160522   7.140   4.205   3.976  0.6223  0.1879  0.1340
18997SOL    HW260523   7.004   4.220   4.040  0.0791 -0.5944 -0.8064
18998SOL     OW60524   6.967   0.907   7.641 -0.0337 -0.1419 -0.8076
18998SOL    HW160525   6.985   0.818   7.672  1.5474 -0.0223 -1.2584
18998SOL    HW260526   6.887   0.899   7.589 -0.4880 -1.0989  0.0159
18999SOL     OW60527   6.089   6.831   7.759 -0.1442 -0.1060  0.1290
18999SOL    HW160528   6.164   6.781   7.727 -0.1809 -0.2609  0.2823
18999SOL    HW260529   6.077   6.901   7.694 -2.6341 -2.6460 -2.4301
19000SOL     OW60530   1.010   7.488   8.285  0.0708  0.3496 -0.5854
19000SOL    HW160531   1.079   7.443   8.236 -0.8150  0.5719 -2.1132
19000SOL    HW260532   1.034   7.580   8.283  0.9705  0.1802  1.0181
19001SOL     OW60533   1.434   6.136   3.119 -0.5879 -0.6497 -0.3035
19001SOL    HW160534   1.439   6.041   3.125  2.0622 -0.4913  1.9428
19001SOL    HW260535   1.426   6.153   3.025  0.0912 -3.0627 -0.8731
19002SOL     OW60536   0.312   0.049   6.115 -0.0782  0.0296  0.1683
19002SOL    HW160537   0.219   0.067   6.106  0.1179  0.3744 -1.5417
19002SOL    HW260538   0.320   0.005   6.199 -2.0322 -1.6695 -0.4549
19003SOL     OW60539   3.596   1.717   4.041  0.0325  0.0964 -0.0194
19003SOL    HW160540   3.644   1.639   4.067  0.5788  0.1794 -0.7418
19003SOL    HW260541   3.655   1.763   3.981 -0.7567  0.4417 -0.5563
19004SOL     OW60542   7.611   9.172   7.442 -0.6527  0.5479 -0.4440
19004SOL    HW160543   7.640   9.083   7.462 -1.3596  0.4994  0.4517
19004SOL    HW260544   7.517   9.162   7.426 -1.3758  1.5001  2.5409
19005SOL     OW60545   5.772   3.023   4.572  0.2839 -0.2116 -0.3022
19005SOL    HW160546   5.789   3.063   4.658  1.1303 -1.9802  0.4148
19005SOL    HW260547   5.681   3.046   4.553 -0.0193 -0.0236  1.2241
19006SOL     OW60548   7.139   8.353   5.768 -0.2470  0.0932  0.4034
19006SOL    HW160549   7.184   8.368   5.851 -1.8081 -1.0329  1.5112
19006SOL    HW260550   7.128   8.441   5.730  0.9238  0.5723  1.1197
19007SOL     OW60551   3.579   7.046   8.390  0.0647 -0.2061  0.0163
19007SOL    HW160552   3.641   6.973   8.383 -0.3828 -0.5592 -0.4205
19007SOL    HW260553   3.600   7.103   8.316 -0.0268 -0.2538 -0.0479
19008SOL     OW60554   3.130  10.298   7.067  0.5255 -0.4859 -0.1902
19008SOL    HW160555   3.169  10.386   7.072  0.7476 -0.5383 -0.8675
19008SOL    HW260556   3.052  10.303   7.121  0.7250  0.0339  0.0548
19009SOL     OW60557   6.209   5.227   0.270  0.0785 -0.1636 -0.7836
19009SOL    HW160558   6.162   5.144   0.279 -0.4638  0.0395 -1.5785
19009SOL    HW260559   6.281   5.207   0.211  1.6657 -0.7193  1.2193
19010SOL     OW60560   7.243   7.865   0.307  0.6738 -0.0376 -0.0617
19010SOL    HW160561   7.238   7.960   0.296 -0.6744  0.1057  1.5070
19010SOL    HW260562   7.324   7.841   0.261  3.0201  2.3354  2.3876
19011SOL     OW60563   1.576   9.499   3.187 -0.4254  0.0085  0.3090
19011SOL    HW160564   1.666   9.528   3.177 -1.6035  3.3633 -2.9345
19011SOL    HW260565   1.528   9.577   3.214 -2.5222 -1.3874  0.9151
19012SOL     OW60566   2.291   5.239   4.704  0.1210 -0.4319  0.3622
19012SOL    HW160567   2.326   5.192   4.780 -1.6083 -1.5139  0.5425
19012SOL    HW260568   2.332   5.196   4.629  0.2342 -0.7610  0.6064
19013SOL     OW60569   3.283   5.101   2.091  0.2086  0.7393  0.1968
19013SOL    HW160570   3.376   5.079   2.102  0.0108  0.5113  1.7576
19013SOL    HW260571   3.249   5.032   2.034  1.0200  0.9014 -0.5090
19014SOL     OW60572   0.102   6.372   7.747  0.2994  0.3509  0.2501
19014SOL    HW160573   0.074   6.388   7.657 -0.4425  2.4313  0.7917
19014SOL    HW260574   0.195   6.395   7.748  0.4552 -0.2407 -0.0938
19015SOL     OW60575   7.429  10.255   6.294 -0.1576  0.2488 -0.1854
19015SOL    HW160576   7.480  10.198   6.236 -0.8913 -0.5903 -0.0341
19015SOL    HW260577   7.342  10.214   6.297 -0.0300  0.0291  1.8103
19016SOL     OW60578   7.940   3.990   3.280  0.1381 -0.3240  0.1968
19016SOL    HW160579   7.992   3.917   3.314 -0.1345 -0.3658  0.5333
19016SOL    HW260580   7.949   3.984   3.185  1.7845  0.4290  0.2641
19017SOL     OW60581   9.262   3.650   2.012  0.2805  0.2869  0.5163
19017SOL    HW160582   9.181   3.619   2.052  0.3069 -0.6119 -0.1151
19017SOL    HW260583   9.242   3.739   1.984 -0.9152 -0.3668 -0.8074
19018SOL     OW60584   0.717   1.936   1.200 -0.3142 -0.2161 -0.7458
19018SOL    HW160585   0.775   1.952   1.274 -1.1751 -0.3520 -0.0212
19018SOL    HW260586   0.653   1.872   1.233  1.5749 -3.4703 -2.7735
19019SOL     OW60587   4.200   5.668   5.747 -0.4987  0.0256 -0.6032
19019SOL    HW160588   4.149   5.637   5.822  1.2424  0.2619  0.7576
19019SOL    HW260589   4.256   5.737   5.783 -0.5206  1.0480 -2.4271
19020SOL     OW60590   1.171   8.023   0.631 -0.3184  0.4484  0.1771
19020SOL    HW160591   1.266   8.025   0.636 -0.2643 -0.3631 -0.3394
19020SOL    HW260592   1.151   7.938   0.591 -1.1870  1.2602 -1.1892
19021SOL     OW60593   0.058   4.879   8.058  0.0030 -0.1441 -0.5905
19021SOL    HW160594   0.117   4.953   8.071 -0.7499  0.8571 -2.4375
19021SOL    HW260595  -0.029   4.914   8.077 -0.2548 -0.8685 -0.4109
19022SOL     OW60596   7.837   2.023   1.733 -0.2702  0.0602  0.3488
19022SOL    HW160597   7.850   2.083   1.806 -0.8839  1.6675 -0.7885
19022SOL    HW260598   7.926   1.998   1.706 -0.0010  0.4580  0.8477
19023SOL     OW60599   3.307   7.737   3.183  0.1532 -0.2648  0.6083
19023SOL    HW160600   3.338   7.783   3.261 -1.5392  0.0649  1.1133
19023SOL    HW260601   3.271   7.806   3.127  1.8182 -0.4240 -0.7541
19024SOL     OW60602   1.527  10.856   8.534  0.1561 -0.4790 -0.1835
19024SOL    HW160603   1.465  10.916   8.577  1.1514 -0.2441  0.9715
19024SOL    HW260604   1.591  10.914   8.492  0.2025 -0.7268 -0.4567
19025SOL     OW60605   8.254   3.855   6.244 -0.8840 -0.1349 -0.6122
19025SOL    HW160606   8.347   3.870   6.226  0.1480 -2.0591  2.4366
19025SOL    HW260607   8.235   3.771   6.203 -0.6557 -0.7748  0.5661
19026SOL     OW60608   0.517   7.502   4.462  0.9169 -0.5456 -0.0511
19026SOL    HW160609   0.435   7.496   4.511  0.8540 -1.2886 -0.2366
19026SOL    HW260610   0.499   7.567   4.394  0.4088 -0.8570 -0.2213
19027SOL     OW60611   5.864   4.387   5.721  0.2020 -0.2015  0.0301
19027SOL    HW160612   5.947   4.344   5.698  0.6880  0.3369  0.7366
19027SOL    HW260613   5.886   4.443   5.796 -1.0672 -0.9497  0.9867
19028SOL     OW60614   0.866   2.066   4.330 -0.1787  0.0189  1.0367
19028SOL    HW160615   0.899   2.127   4.396 -0.4782  1.3317  0.0421
19028SOL    HW260616   0.803   2.119   4.279  0.7894 -0.6211 -0.9179
19029SOL     OW60617   0.999  10.325   9.840  0.1890 -0.5553  0.6523
19029SOL    HW160618   1.027  10.239   9.810 -0.0844 -0.4783  0.1595
19029SOL    HW260619   1.011  10.383   9.764 -0.9463 -0.4566  0.5192
19030SOL     OW60620   2.650   8.022   5.312 -0.4559  0.0000  0.1438
19030SOL    HW160621   2.643   7.959   5.383  0.9925 -0.4697 -0.1029
19030SOL    HW260622   2.736   8.062   5.324 -0.2292 -0.0191 -1.2853
19031SOL     OW60623   4.243   2.752   8.980 -0.1358  0.0405  0.2423
19031SOL    HW160624   4.332   2.781   8.957 -1.1019  4.4256  1.1057
19031SOL    HW260625   4.191   2.771   8.903 -0.7231 -0.1958  0.5763
19032SOL     OW60626   9.246   8.127  10.215  0.0227  0.0160 -0.4138
19032SOL    HW160627   9.337   8.111  10.190 -0.4678 -1.6089 -1.2654
19032SOL    HW260628   9.199   8.133  10.133 -0.7803 -0.0325  0.0346
19033SOL     OW60629   2.873   0.383   4.683 -0.2865 -0.6764 -0.4662
19033SOL    HW160630   2.957   0.366   4.725  0.2363  0.0370 -1.1897
19033SOL    HW260631   2.864   0.478   4.686 -0.6768 -0.6872 -1.1243
19034SOL     OW60632   8.788   0.307   5.523 -0.1208  0.8699  0.6580
19034SOL    HW160633   8.830   0.254   5.455  1.2326 -0.2029  2.2442
19034SOL    HW260634   8.808   0.398   5.498 -0.0664  0.5271 -0.6131
19035SOL     OW60635   8.510   5.838   4.635  0.1555 -0.9547  0.0531
19035SOL    HW160636   8.603   5.860   4.636  0.5774 -2.6045  1.6616
19035SOL    HW260637   8.483   5.843   4.726 -1.6770  0.6184 -0.4924
19036SOL     OW60638   8.401   4.505  10.810 -0.2228 -0.3571  0.7088
19036SOL    HW160639   8.483   4.540  10.844 -0.2348 -0.5030  0.8902
19036SOL    HW260640   8.426   4.423  10.766  0.0320  0.5841 -1.0139
19037SOL     OW60641   4.069   7.989   8.705  0.6845 -0.0126  0.5077
19037SOL    HW160642   3.988   8.029   8.673  0.4872  0.5258  1.6223
19037SOL    HW260643   4.114   8.061   8.750  0.5300 -0.9022  2.1872
19038SOL     OW60644   8.947   1.388   0.225 -0.0338  0.0820 -0.3184
19038SOL    HW160645   8.861   1.376   0.184 -0.2938  0.0461  0.2201
19038SOL    HW260646   8.962   1.306   0.272  1.0624 -0.5855 -1.7530
19039SOL     OW60647   7.168   9.129   9.984  0.0907  0.0207 -0.5306
19039SOL    HW160648   7.250   9.175  10.003  1.4436 -2.4276 -0.0019
19039SOL    HW260649   7.104   9.199   9.969  2.1503  2.0255 -0.5235
19040SOL     OW60650  10.625   4.218   0.670  0.8633 -0.0126 -0.1668
19040SOL    HW160651  10.530   4.216   0.674  0.8913  0.3288  1.0738
19040SOL    HW260652  10.654   4.155   0.736  1.5003 -0.0939 -0.5083
19041SOL     OW60653   7.324   6.659   0.811  0.2127  0.1511 -0.0763
19041SOL    HW160654   7.321   6.660   0.907 -0.6968  0.4480 -0.0932
19041SOL    HW260655   7.334   6.751   0.787  0.0126  0.1213 -0.2743
19042SOL     OW60656   8.635   5.184   5.320  0.1599  0.2247  0.0976
19042SOL    HW160657   8.592   5.155   5.400  1.2038  0.4707  0.7720
19042SOL    HW260658   8.611   5.276   5.312  2.6310  1.1400  1.9626
19043SOL     OW60659   7.539   5.120   6.866 -0.4563 -0.3399  0.1564
19043SOL    HW160660   7.611   5.178   6.846 -0.1793 -0.9674 -0.7441
19043SOL    HW260661   7.546   5.049   6.802 -1.8019 -0.4704  0.1103
19044SOL     OW60662   6.559   9.107   8.678 -0.2310 -0.1328  0.4822
19044SOL    HW160663   6.537   9.125   8.587  0.2300  1.3055  0.6347
19044SOL    HW260664   6.651   9.081   8.676 -0.0787  0.3897  0.5859
19045SOL     OW60665   8.837   2.716   0.034  0.0114  0.3029 -0.0411
19045SOL    HW160666   8.905   2.677   0.089 -0.1845 -0.0076 -0.0156
19045SOL    HW260667   8.881   2.736  -0.048  0.0400 -0.2873 -0.1783
19046SOL     OW60668   0.375  10.498   8.700  0.0817 -0.2964  0.5558
19046SOL    HW160669   0.388  10.495   8.795  1.0482  1.2840  0.5095
19046SOL    HW260670   0.335  10.414   8.679 -0.0947 -0.7104  2.3482
19047SOL     OW60671   4.311   4.200   8.886 -0.1684  0.7727 -0.1742
19047SOL    HW160672   4.265   4.270   8.933 -0.7744  1.3607 -1.6027
19047SOL    HW260673   4.401   4.204   8.920 -0.8885  0.2082  1.9902
19048SOL     OW60674   0.077   5.915   3.516 -0.7086 -0.3440  0.1380
19048SOL    HW160675  -0.018   5.910   3.501 -0.8934  0.8948  0.7421
19048SOL    HW260676   0.107   5.983   3.455 -0.6103  0.9351  1.5568
19049SOL     OW60677  10.742  10.456   3.525 -0.4294  0.2234  0.4028
19049SOL    HW160678  10.828  10.421   3.503 -0.7253 -1.0812  1.1872
19049SOL    HW260679  10.682  10.383   3.508 -1.0170  0.1161  2.6272
19050SOL     OW60680   2.251   3.130   9.158 -0.0149 -0.0240  0.0515
19050SOL    HW160681   2.194   3.117   9.234 -0.7325  0.8004 -0.3227
19050SOL    HW260682   2.304   3.207   9.180  0.7990 -0.6396  0.2944
19051SOL     OW60683   4.969   1.074   3.980 -0.3447  0.4507 -0.1005
19051SOL    HW160684   5.029   1.011   4.019 -1.4396 -0.1298  0.6889
19051SOL    HW260685   4.889   1.024   3.965 -1.8722  2.0560  2.2253
19052SOL     OW60686  11.108   6.657   1.393  0.2631 -0.0320 -0.6292
19052SOL    HW160687  11.154   6.580   1.358  0.7956  0.6468 -1.4528
19052SOL    HW260688  11.151   6.674   1.477 -2.2064 -2.7703  1.4032
19053SOL     OW60689   3.943   5.567   8.558 -0.0442 -0.2682 -0.3207
19053SOL    HW160690   3.977   5.595   8.473 -1.0386 -0.2816 -0.7303
19053SOL    HW260691   3.925   5.649   8.604 -0.0725 -0.2581 -0.3496
19054SOL     OW60692   2.347   5.019   7.996  0.1514  0.6272  0.0978
19054SOL    HW160693   2.412   5.040   7.929 -0.6354 -0.6945 -1.1640
19054SOL    HW260694   2.349   5.092   8.057  2.5125  0.8013 -0.1164
19055SOL     OW60695   6.179   5.765   3.629 -0.1221  0.5466  0.6139
19055SOL    HW160696   6.229   5.693   3.668 -0.8094  0.9201  2.2950
19055SOL    HW260697   6.236   5.800   3.561 -0.2676 -2.3764 -1.1612
19056SOL     OW60698   6.816   5.441   6.328 -0.1980  0.1994 -0.1922
19056SOL    HW160699   6.869   5.520   6.342 -2.0244  1.5600 -0.5808
19056SOL    HW260700   6.827   5.421   6.235 -0.2051  0.3761 -0.2321
19057SOL     OW60701   9.830   6.769   6.538 -0.2783 -0.3844  0.6065
19057SOL    HW160702   9.768   6.836   6.568 -0.1171  0.2425 -0.4463
19057SOL    HW260703   9.912   6.792   6.581 -0.3059 -0.1152  0.5147
19058SOL     OW60704   9.746   4.386   4.430 -0.3541  0.1477 -0.2912
19058SOL    HW160705   9.737   4.447   4.504  0.4799  0.2649 -0.2760
19058SOL    HW260706   9.839   4.387   4.410 -0.6566  0.6161 -1.7755
19059SOL     OW60707   2.496   7.715   6.083 -0.2369  0.2576  0.2609
19059SOL    HW160708   2.448   7.775   6.027 -2.1341 -1.1280  0.3288
19059SOL    HW260709   2.432   7.684   6.147  0.4624 -2.2514 -0.1203
19060SOL     OW60710   3.186   9.412   8.591  0.0580  0.7642  0.0150
19060SOL    HW160711   3.110   9.373   8.632 -0.2173  1.7745  0.4911
19060SOL    HW260712   3.169   9.506   8.593  0.6543  0.9197 -1.1866
19061SOL     OW60713   6.912   5.869   4.190  0.2710  1.2071  0.4148
19061SOL    HW160714   6.833   5.922   4.181 -0.4956  0.1185  0.5016
19061SOL    HW260715   6.891   5.787   4.145  1.3557  0.8939  0.4469
19062SOL     OW60716   0.933   6.441   0.471  0.1752 -0.3157  0.8980
19062SOL    HW160717   0.848   6.403   0.495 -0.1966 -0.3610 -0.3938
19062SOL    HW260718   0.911   6.528   0.438  0.3893 -0.9629 -1.0897
19063SOL     OW60719   3.832   8.241   6.085  0.1577  0.0182 -0.1060
19063SOL    HW160720   3.775   8.189   6.141  1.7846 -1.1444  0.5542
19063SOL    HW260721   3.874   8.178   6.027  2.1928  0.5174  0.7176
19064SOL     OW60722   0.401  10.795   2.681 -0.5045 -0.0609 -0.3386
19064SOL    HW160723   0.406  10.821   2.773  1.5593 -1.7546  0.0899
19064SOL    HW260724   0.371  10.705   2.682  0.3587 -0.3855 -1.2388
19065SOL     OW60725   0.058   4.104   5.324  0.4972  0.0413  0.3434
19065SOL    HW160726  -0.023   4.063   5.293  0.4696 -0.1285  0.6341
19065SOL    HW260727   0.060   4.084   5.417 -0.3212  2.0518  0.8254
19066SOL     OW60728   8.030   4.474   7.745  0.1318 -0.3487 -0.5514
19066SOL    HW160729   8.092   4.523   7.800  1.0171  0.5232 -2.2647
19066SOL    HW260730   7.949   4.474   7.796  1.0221  0.0726  0.9346
19067SOL     OW60731   3.508   7.411   3.409  0.4382 -0.7660 -0.8731
19067SOL    HW160732   3.539   7.390   3.497 -2.4700 -3.2149 -0.2655
19067SOL    HW260733   3.556   7.352   3.352  0.1112 -1.3663 -0.5322
19068SOL     OW60734   8.408   1.325   3.383 -0.1009 -0.2291 -0.0449
19068SOL    HW160735   8.450   1.400   3.341 -0.0159  0.5307  1.3543
19068SOL    HW260736   8.418   1.340   3.476 -1.6724 -1.0673  0.3088
19069SOL     OW60737   1.562   6.630   6.077  0.1768  0.6403 -0.3516
19069SOL    HW160738   1.566   6.573   6.154  0.5285  1.3448  0.1600
19069SOL    HW260739   1.502   6.700   6.101  0.3816  0.9296 -0.6678
19070SOL     OW60740   6.377   1.926   9.269  0.1629  0.2170  0.2135
19070SOL    HW160741   6.427   1.901   9.192  0.8689 -0.4625  0.8754
19070SOL    HW260742   6.347   2.015   9.250  0.7907  0.2683 -0.6090
19071SOL     OW60743   1.694   2.674   4.511  0.2184  0.0601 -0.6299
19071SOL    HW160744   1.666   2.583   4.511 -0.2141  0.1562  0.9610
19071SOL    HW260745   1.707   2.695   4.604  2.2656  1.0334 -1.0832
19072SOL     OW60746   0.309   2.251   9.847 -0.0225  0.2904 -0.3912
19072SOL    HW160747   0.234   2.308   9.829 -0.5374 -0.1132  0.3930
19072SOL    HW260748   0.301   2.181   9.782  0.1689  0.7030 -0.8614
19073SOL     OW60749   3.745   7.897   3.838  0.8224  0.0417 -0.2935
19073SOL    HW160750   3.651   7.888   3.824  0.9428 -0.0053 -1.0961
19073SOL    HW260751   3.754   7.980   3.885  0.3694 -0.0376 -0.0641
19074SOL     OW60752  10.110   8.584   9.136 -0.4274  0.4384 -0.0800
19074SOL    HW160753  10.135   8.614   9.224 -1.0786 -0.8202  0.5543
19074SOL    HW260754  10.015   8.591   9.135 -0.4094  0.5782 -0.7447
19075SOL     OW60755   0.930   7.688   6.326 -0.2471 -0.2204  0.1532
19075SOL    HW160756   0.922   7.723   6.237  0.6023 -1.2607 -0.3688
19075SOL    HW260757   0.871   7.612   6.327  1.6209 -1.7739 -0.4178
19076SOL     OW60758   7.149   9.354   6.521 -0.4208 -0.2588 -0.0052
19076SOL    HW160759   7.137   9.272   6.475 -0.3321 -0.7319  0.7876
19076SOL    HW260760   7.061   9.390   6.531 -0.8155 -1.6325  2.0680
19077SOL     OW60761   2.868   9.283  10.389  0.6579 -0.7050  1.1508
19077SOL    HW160762   2.824   9.343  10.328  0.1077 -1.8235  0.4113
19077SOL    HW260763   2.848   9.318  10.475 -0.4295 -0.3246  0.7655
19078SOL     OW60764   1.943   4.102   7.119 -0.2434 -0.2556  0.3921
19078SOL    HW160765   1.972   4.032   7.178 -0.2977 -0.0842  0.6216
19078SOL    HW260766   1.997   4.092   7.041 -1.0560 -1.3108 -0.0656
19079SOL     OW60767   5.417   8.368   1.777 -0.5569  0.8236  0.6958
19079SOL    HW160768   5.323   8.381   1.788 -0.7667 -0.7971  0.9219
19079SOL    HW260769   5.427   8.333   1.689 -0.2882 -0.1338  1.0959
19080SOL     OW60770   2.357   5.840   6.188 -0.2560 -0.0396  0.0816
19080SOL    HW160771   2.452   5.852   6.182 -0.2796  0.5263  0.7337
19080SOL    HW260772   2.345   5.746   6.201  0.2591  0.0024  0.8732
19081SOL     OW60773   6.972   3.783   4.521  0.0307 -0.3183 -0.3284
19081SOL    HW160774   7.034   3.823   4.461  0.7332  0.5634  0.9258
19081SOL    HW260775   7.026   3.739   4.586 -0.7254 -1.9633 -0.7672
19082SOL     OW60776   2.864   9.138   9.037  0.3666 -0.0755 -0.1209
19082SOL    HW160777   2.853   9.097   8.951 -0.6167  0.4869 -0.2746
19082SOL    HW260778   2.888   9.228   9.018 -0.3929  0.1981  0.1753
19083SOL     OW60779   8.605   7.139   0.451 -0.3716 -0.1032  0.0218
19083SOL    HW160780   8.596   7.046   0.434 -2.2677 -0.4966  2.5850
19083SOL    HW260781   8.528   7.162   0.503  1.7533  2.0630  2.5478
19084SOL     OW60782  10.994  10.730  10.426  0.6100 -0.3580 -0.1720
19084SOL    HW160783  10.917  10.695  10.469 -0.1171  1.9499  0.5606
19084SOL    HW260784  11.015  10.667  10.357 -1.1020 -1.6963  0.4827
19085SOL     OW60785  10.816   2.799  10.056  0.6117  0.4261 -0.8334
19085SOL    HW160786  10.833   2.707  10.076 -0.7221 -0.3213 -2.7937
19085SOL    HW260787  10.735   2.797  10.005  0.3037  2.7550 -0.5322
19086SOL     OW60788   6.019   0.025   3.251  0.7456  0.6661  0.7589
19086SOL    HW160789   5.999  -0.048   3.309 -0.4091 -0.3896 -0.8938
19086SOL    HW260790   5.967   0.009   3.172  0.0353  3.5350  0.5064
19087SOL     OW60791   4.190   2.440   2.158 -0.1154  0.1025  0.5318
19087SOL    HW160792   4.256   2.485   2.105  0.0164 -1.2563 -0.4919
19087SOL    HW260793   4.128   2.404   2.095 -1.0442  0.0882  1.4120
19088SOL     OW60794   2.906   4.001   0.411  0.3326  0.2863 -0.3470
19088SOL    HW160795   2.959   4.075   0.442 -0.2117  0.7211 -0.4354
19088SOL    HW260796   2.823   4.041   0.384  0.5152 -0.1796 -1.6715
19089SOL     OW60797  10.675  10.363   9.401  0.6210  0.1491  0.2596
19089SOL    HW160798  10.618  10.425   9.356  1.0486  0.0649 -0.4139
19089SOL    HW260799  10.616  10.303   9.445  0.1253 -0.9876 -1.8195
19090SOL     OW60800  10.953   8.222   2.516 -0.1632 -0.0623 -0.3521
19090SOL    HW160801  10.888   8.211   2.446 -1.4596 -1.2381  0.9548
19090SOL    HW260802  10.900   8.239   2.595  1.1851  0.0718  0.5546
19091SOL     OW60803  10.980   4.730   4.364 -0.0807  0.0274 -0.5214
19091SOL    HW160804  10.947   4.778   4.288  0.0433  0.2029 -0.4632
19091SOL    HW260805  10.920   4.655   4.372 -0.4703  0.3482 -0.4138
19092SOL     OW60806   9.125  10.837   5.358 -0.4707 -0.7883 -0.2422
19092SOL    HW160807   9.105  10.909   5.418 -0.5476 -1.2641  0.3120
19092SOL    HW260808   9.082  10.861   5.276  2.5758  1.6730 -1.3565
19093SOL     OW60809   6.020   3.513   7.162  0.1827  0.1094 -0.0386
19093SOL    HW160810   5.972   3.499   7.244  0.5749  0.3357  0.2340
19093SOL    HW260811   6.095   3.454   7.168  0.5745  0.6146  0.0685
19094SOL     OW60812   3.832  10.880   6.425 -0.0266  0.1864 -0.0492
19094SOL    HW160813   3.781  10.935   6.366  0.7245 -0.1976 -1.0878
19094SOL    HW260814   3.771  10.811   6.452 -1.0698  1.6769  1.5334
19095SOL     OW60815   2.182   0.073  10.896  0.3620 -0.7813  0.2357
19095SOL    HW160816   2.197  -0.019  10.874  1.8066 -0.5448  0.1008
19095SOL    HW260817   2.092   0.077  10.928  0.8877 -2.6052  2.1284
19096SOL     OW60818   1.818   5.518   4.225  0.0010  1.0116  0.5560
19096SOL    HW160819   1.790   5.591   4.169  0.0735 -0.6101 -1.7188
19096SOL    HW260820   1.741   5.496   4.277 -0.8505  1.0245 -0.6706
19097SOL     OW60821   8.384   4.169   5.761  0.7690 -0.1091  0.1907
19097SOL    HW160822   8.393   4.251   5.713 -0.2109  0.1560  0.4322
19097SOL    HW260823   8.431   4.104   5.709  0.8117  0.4357 -0.4530
19098SOL     OW60824   2.232   2.240   8.024 -0.2938  0.3979 -0.0994
19098SOL    HW160825   2.285   2.161   8.016  1.0851  1.3599 -0.8423
19098SOL    HW260826   2.163   2.217   8.087  0.1298 -1.3429 -0.2307
19099SOL     OW60827   8.222   3.436   8.142  0.4431  0.1508 -0.4961
19099SOL    HW160828   8.169   3.378   8.087  0.1642 -0.2580  0.1925
19099SOL    HW260829   8.237   3.514   8.087 -1.4157  0.5615 -0.4779
19100SOL     OW60830   4.862   1.881   3.250  0.3570 -0.9585 -0.6824
19100SOL    HW160831   4.801   1.955   3.254  1.4512 -0.0172 -0.7911
19100SOL    HW260832   4.834   1.831   3.173  0.4377  0.1261 -1.4386
19101SOL     OW60833   1.267   0.832   4.382  0.4509  0.1130 -0.7658
19101SOL    HW160834   1.274   0.739   4.404 -0.2794 -0.3592 -2.3933
19101SOL    HW260835   1.178   0.856   4.406  0.5839  0.3714 -0.5111
19102SOL     OW60836  10.032   6.167   3.246  0.8173 -0.5195 -0.3306
19102SOL    HW160837  10.021   6.128   3.159  0.4602 -0.6174 -0.2451
19102SOL    HW260838  10.126   6.180   3.255  0.7527  0.6862 -1.2466
19103SOL     OW60839   3.018   8.616   0.830  0.4626 -0.2247 -0.6135
19103SOL    HW160840   2.975   8.600   0.746  0.7453 -1.2117 -0.5854
19103SOL    HW260841   3.045   8.529   0.860  0.7909  0.1705  0.2717
19104SOL     OW60842   3.803   3.117  10.534 -0.5959 -0.0125  0.3587
19104SOL    HW160843   3.870   3.185  10.529  0.5986 -1.1485  0.4628
19104SOL    HW260844   3.763   3.116  10.447 -0.5695  0.7621  0.3329
19105SOL     OW60845   7.077   8.693   3.746  0.4548  0.3026 -0.4312
19105SOL    HW160846   7.120   8.764   3.698  0.5408 -0.5762 -1.6967
19105SOL    HW260847   7.142   8.623   3.750  0.4413  0.3447  0.9819
19106SOL     OW60848   2.706   7.845   0.467 -0.0468 -0.3300  0.0602
19106SOL    HW160849   2.738   7.875   0.552  0.3657  0.9684 -0.5275
19106SOL    HW260850   2.778   7.792   0.431  0.2047  0.0048  0.0678
19107SOL     OW60851   6.461   6.803   7.948 -0.4348 -0.0871  0.1925
19107SOL    HW160852   6.419   6.888   7.960 -0.5078 -0.0860 -0.0611
19107SOL    HW260853   6.388   6.741   7.943 -0.4139 -0.0715 -0.3638
19108SOL     OW60854   9.365   9.566   1.984  0.9675 -0.5026 -0.9040
19108SOL    HW160855   9.299   9.590   1.919  0.4796 -1.9928 -1.0059
19108SOL    HW260856   9.350   9.627   2.057 -0.6586 -0.9057 -0.8495
19109SOL     OW60857   5.581   2.118   5.255  0.0501  0.6721 -0.1186
19109SOL    HW160858   5.506   2.148   5.306 -0.6326 -0.7781 -0.2191
19109SOL    HW260859   5.547   2.108   5.166  1.1262  2.7740 -0.8266
19110SOL     OW60860  11.088   9.996   2.370 -0.5612  0.0934  0.5318
19110SOL    HW160861  11.089   9.909   2.410  2.1764  1.0248  2.8067
19110SOL    HW260862  11.023  10.045   2.421 -1.0404 -0.2097  0.2160
19111SOL     OW60863   1.773   9.074  10.077 -0.4954 -0.0436 -0.2942
19111SOL    HW160864   1.732   9.028  10.004 -0.5218  1.2186 -1.0981
19111SOL    HW260865   1.710   9.068  10.148 -1.6152  0.8904 -1.1692
19112SOL     OW60866   7.942   4.526   3.648  0.0613 -0.1309 -0.2111
19112SOL    HW160867   7.928   4.490   3.736 -0.0416  1.5747  0.5064
19112SOL    HW260868   7.857   4.516   3.604  0.0760 -0.8685 -0.0901
19113SOL     OW60869   6.305   8.334   4.291  0.9149  0.2314  1.0251
19113SOL    HW160870   6.376   8.279   4.323  1.1662  0.3433  0.6693
19113SOL    HW260871   6.302   8.317   4.197  0.5385  0.3045  1.0228
19114SOL     OW60872   9.776   0.629   6.405 -0.0054  0.1337  0.1551
19114SOL    HW160873   9.799   0.690   6.475  0.6451 -0.2879  0.3167
19114SOL    HW260874   9.685   0.649   6.384  0.4940  1.8475 -0.5016
19115SOL     OW60875   7.325   2.163   4.170 -0.0310 -0.2621 -0.0043
19115SOL    HW160876   7.301   2.254   4.154  1.2957  0.3258  1.1371
19115SOL    HW260877   7.361   2.133   4.086  0.3267  0.5449 -0.1459
19116SOL     OW60878   6.375   5.823   2.789  0.3594  0.1394 -0.5696
19116SOL    HW160879   6.324   5.840   2.867 -0.3994  0.3677 -1.1072
19116SOL    HW260880   6.434   5.898   2.782  1.2117 -0.4067  0.3739
19117SOL     OW60881   3.818   5.824  10.594  0.3592 -0.5534  0.3863
19117SOL    HW160882   3.814   5.731  10.617  1.5120 -1.0684 -1.3040
19117SOL    HW260883   3.727   5.848  10.576  0.1901 -1.6814 -0.3310
19118SOL     OW60884   6.002  10.398  11.007 -0.1771 -0.2404 -0.6620
19118SOL    HW160885   5.955  10.466  10.960 -2.5667 -0.6884  0.8854
19118SOL    HW260886   6.057  10.445  11.069  0.3007  0.2903 -1.4737
19119SOL     OW60887  10.963   5.184   1.411  0.6738  0.4861 -0.8123
19119SOL    HW160888  11.041   5.170   1.357  0.0509 -3.0233 -1.0453
19119SOL    HW260889  10.892   5.197   1.348  0.2823 -1.5768 -0.8536
19120SOL     OW60890   6.656   0.625   1.952 -0.3822  0.0607 -0.1875
19120SOL    HW160891   6.645   0.631   1.857  0.5824 -0.9549 -0.3773
19120SOL    HW260892   6.570   0.599   1.984 -1.0399  1.5802 -0.6455
19121SOL     OW60893   8.100   6.242   0.718 -0.1833 -0.1520 -0.4259
19121SOL    HW160894   8.080   6.302   0.646 -1.2488 -0.9977 -0.8779
19121SOL    HW260895   8.071   6.287   0.797  0.7554  0.6791 -0.5389
19122SOL     OW60896  10.231   2.995   7.053  0.5039  0.3609  0.1789
19122SOL    HW160897  10.211   3.065   7.115  1.6112  0.4940  0.4184
19122SOL    HW260898  10.159   2.933   7.062 -0.1220  1.1193  0.4917
19123SOL     OW60899   4.154   0.082   5.439 -0.5048 -0.5829  0.3503
19123SOL    HW160900   4.177   0.008   5.383 -0.0774  0.2072 -0.5294
19123SOL    HW260901   4.206   0.070   5.518 -0.5434 -1.2924  0.2718
19124SOL     OW60902   4.879   5.231   0.309  0.1552  0.0650 -0.0100
19124SOL    HW160903   4.861   5.246   0.216  1.7043  0.7629 -0.2183
19124SOL    HW260904   4.889   5.136   0.316 -1.0447 -0.1102 -0.3241
19125SOL     OW60905   8.476   8.927   1.864 -0.4810  0.0057  0.1196
19125SOL    HW160906   8.554   8.875   1.844  0.2890  0.1734  2.4048
19125SOL    HW260907   8.411   8.863   1.892 -0.1974  0.0944  0.9960
19126SOL     OW60908   1.573   1.071   1.051 -0.6002 -0.0287 -0.3945
19126SOL    HW160909   1.587   1.107   1.139  1.6958  0.6696 -0.9742
19126SOL    HW260910   1.551   0.979   1.066  3.7584 -1.1290  1.0011
19127SOL     OW60911   3.728   1.704   6.855 -0.5795  0.2119 -0.4210
19127SOL    HW160912   3.766   1.618   6.835  0.8835  0.4905  0.9337
19127SOL    HW260913   3.777   1.764   6.799  0.6016  0.4898  0.8434
19128SOL     OW60914   3.611   9.112   4.643  0.1740  0.4688 -0.0983
19128SOL    HW160915   3.592   9.112   4.736  2.5281 -3.6967  0.6372
19128SOL    HW260916   3.703   9.138   4.637  0.2516  0.0111 -1.1492
19129SOL     OW60917   3.354   9.231   4.580  0.6241 -0.3045 -0.9607
19129SOL    HW160918   3.433   9.179   4.571  3.2605  3.1853 -0.0989
19129SOL    HW260919   3.345   9.245   4.675 -0.6009 -0.0130 -1.1000
19130SOL     OW60920   4.771   2.395   8.161 -0.4674  0.2997  0.1708
19130SOL    HW160921   4.833   2.324   8.149  0.6285  1.3978 -0.9190
19130SOL    HW260922   4.686   2.356   8.141  0.1376 -0.6365 -0.6401
19131SOL     OW60923   4.056   0.255   9.766  0.3267  0.2757 -0.6288
19131SOL    HW160924   4.123   0.198   9.728  0.4608  0.5986 -0.8742
19131SOL    HW260925   3.977   0.237   9.714 -0.1768 -1.1599  0.5532
19132SOL     OW60926   3.633   5.964   0.667 -0.5640 -0.5937  0.3327
19132SOL    HW160927   3.568   5.955   0.597  0.5282 -0.6744 -0.7164
19132SOL    HW260928   3.703   6.015   0.627  0.4782 -1.3857  1.1078
19133SOL     OW60929  10.561   7.545   5.978 -0.2967  0.2849 -0.4915
19133SOL    HW160930  10.516   7.461   5.987 -1.3027  0.7625 -0.8870
19133SOL    HW260931  10.535   7.577   5.892  1.0039  0.4763 -0.8324
19134SOL     OW60932   9.138   8.859   4.201  0.2181  0.1688  0.4188
19134SOL    HW160933   9.128   8.782   4.257 -0.2228 -0.1996 -0.1640
19134SOL    HW260934   9.177   8.825   4.120  0.9658  0.7160  0.5349
19135SOL     OW60935   9.534   1.543   6.805  0.1826 -0.0467  0.2257
19135SOL    HW160936   9.583   1.624   6.799 -0.0855  0.0572 -0.5963
19135SOL    HW260937   9.594   1.475   6.774  0.3988 -0.1718  0.8907
19136SOL     OW60938  10.261   2.545   7.598 -0.7172  0.0704 -0.3866
19136SOL    HW160939  10.354   2.526   7.612 -0.8786 -0.4251  0.0277
19136SOL    HW260940  10.260   2.603   7.522 -0.2381 -1.7475 -1.8413
19137SOL     OW60941   5.857   9.992   9.996  0.2777 -0.2456  0.1917
19137SOL    HW160942   5.910   9.997   9.916  0.9399  0.1057  0.6422
19137SOL    HW260943   5.898   9.923  10.047  1.1342  0.9232  1.1266
19138SOL     OW60944   7.941   9.397   1.140 -0.1282 -0.3327  0.1249
19138SOL    HW160945   7.935   9.482   1.184 -0.9430 -0.1938 -0.2368
19138SOL    HW260946   7.991   9.416   1.060  2.3319 -0.7967  1.4405
19139SOL     OW60947  11.004   6.863   5.099 -0.7488  0.1238  0.0345
19139SOL    HW160948  10.963   6.798   5.041  0.4046 -2.4150  1.8473
19139SOL    HW260949  10.951   6.860   5.179  1.3847 -1.4275  1.5131
19140SOL     OW60950   7.911   0.450   6.255  0.0367  0.6493  0.1566
19140SOL    HW160951   7.899   0.491   6.341 -0.3787  2.3260 -0.6688
19140SOL    HW260952   8.005   0.434   6.249  0.0908  0.6561  0.8613
19141SOL     OW60953   6.545   9.869   8.925 -0.3507 -0.2293  0.4692
19141SOL    HW160954   6.624   9.911   8.891 -1.0091  0.7659  0.1189
19141SOL    HW260955   6.533   9.907   9.012 -0.8798  0.2494  0.1988
19142SOL     OW60956   5.111   7.316   1.945  0.3499 -0.1339 -0.0556
19142SOL    HW160957   5.183   7.364   1.904  0.2095  0.3135  0.2150
19142SOL    HW260958   5.032   7.351   1.904  0.2117  0.2823  0.5482
19143SOL     OW60959   3.091   2.116   6.905  0.4567  0.3584  0.3266
19143SOL    HW160960   3.157   2.051   6.929  0.1578  0.7498  2.3992
19143SOL    HW260961   3.035   2.072   6.842  1.8803 -0.4464 -0.4183
19144SOL     OW60962   8.621  10.598   1.125  0.4206 -0.2512  0.5154
19144SOL    HW160963   8.701  10.648   1.108  0.1068  0.4056  0.9745
19144SOL    HW260964   8.564  10.617   1.050  0.3921 -0.1027  0.5743
19145SOL     OW60965   7.705   3.311   3.566 -0.2810 -0.2662  0.2360
19145SOL    HW160966   7.697   3.228   3.518  0.4537  0.6156 -1.4876
19145SOL    HW260967   7.635   3.365   3.531  0.8170  0.6991 -0.5557
19146SOL     OW60968   4.212   6.601   1.399 -0.0145 -0.2412 -0.0263
19146SOL    HW160969   4.194   6.627   1.489 -1.1575  0.1508 -0.3509
19146SOL    HW260970   4.293   6.551   1.404 -1.2520 -2.2509  1.5517
19147SOL     OW60971   7.329   2.893   9.511  0.5959 -0.2971 -0.3432
19147SOL    HW160972   7.417   2.866   9.535  0.9681 -0.3350 -1.6575
19147SOL    HW260973   7.299   2.825   9.450 -0.7512 -0.8310  0.8364
19148SOL     OW60974   4.776   4.773   8.700 -0.4865  0.1766 -0.1460
19148SOL    HW160975   4.737   4.789   8.614  0.3879 -2.3049 -1.0864
19148SOL    HW260976   4.869   4.791   8.687 -0.1463 -1.4160 -0.1207
19149SOL     OW60977   1.963   2.657   9.208  0.4918  0.3814  0.0364
19149SOL    HW160978   1.982   2.727   9.270  0.7255  2.1182 -1.8589
19149SOL    HW260979   1.872   2.672   9.183  0.2025 -0.6887  0.4096
19150SOL     OW60980   5.077   5.857   6.786  0.0132  0.0689 -0.0660
19150SOL    HW160981   5.152   5.817   6.743  1.1363  0.1165  1.7343
19150SOL    HW260982   5.086   5.951   6.768  0.8471  0.1648  0.7513
19151SOL     OW60983   5.058   2.474   3.972  0.1532  0.4703 -0.2346
19151SOL    HW160984   5.062   2.565   3.943  0.3901  0.8510  0.9365
19151SOL    HW260985   4.975   2.467   4.018  0.2915  0.1911 -0.0206
19152SOL     OW60986   7.494   5.233   5.526 -0.1871 -0.2094  0.2742
19152SOL    HW160987   7.495   5.176   5.603 -0.8450 -0.7597 -0.1207
19152SOL    HW260988   7.584   5.264   5.519 -0.5354  1.6352  2.5752
19153SOL     OW60989   5.140   0.640   5.104  0.4821 -0.7691 -0.3813
19153SOL    HW160990   5.160   0.559   5.057 -0.9517 -0.4715 -1.5553
19153SOL    HW260991   5.058   0.622   5.150  0.1740  0.0029 -0.6155
19154SOL     OW60992   2.477   3.107   6.064 -0.3549 -0.9581 -0.5834
19154SOL    HW160993   2.397   3.054   6.070  0.1002 -1.5605  0.3951
19154SOL    HW260994   2.499   3.128   6.155  0.4826 -0.6131 -0.8520
19155SOL     OW60995   2.139  10.569   1.246  0.0123 -0.0384 -0.0180
19155SOL    HW160996   2.085  10.647   1.254  1.6456  1.1387  0.1024
19155SOL    HW260997   2.153  10.558   1.152  1.2592  0.9201  0.0317
19156SOL     OW60998   8.574   9.269   5.074  0.2474  0.3947  0.2158
19156SOL    HW160999   8.651   9.260   5.018 -0.4765  2.1423 -1.2017
19156SOL    HW261000   8.606   9.310   5.154  0.5578  3.3241 -1.2771
19157SOL     OW61001   7.761   3.039   0.550 -0.2066 -0.1230 -0.1124
19157SOL    HW161002   7.827   3.008   0.489 -1.1251  0.0727 -1.2372
19157SOL    HW261003   7.705   3.096   0.497 -0.4875  0.7974  1.1324
19158SOL     OW61004   3.496   8.069   1.707 -0.2599 -0.2229 -0.2020
19158SOL    HW161005   3.436   7.995   1.692 -0.5045  0.0377 -0.5213
19158SOL    HW261006   3.480   8.094   1.798  0.5378 -1.1935  0.2283
19159SOL     OW61007   0.894   8.735   8.397 -0.0181 -0.2834  0.7087
19159SOL    HW161008   0.983   8.724   8.362 -0.3321 -0.6141 -0.0249
19159SOL    HW261009   0.875   8.650   8.437 -0.0876 -0.2936  0.6536
19160SOL     OW61010   9.583   8.478   9.249  0.2858 -0.2589  0.1786
19160SOL    HW161011   9.539   8.404   9.291 -0.3286  0.2142  0.3784
19160SOL    HW261012   9.660   8.494   9.304 -0.6161  0.4903  1.2893
19161SOL     OW61013   0.159   7.918   0.914  0.4446  0.2824 -0.3706
19161SOL    HW161014   0.133   8.002   0.951  1.7549  0.6271 -0.1823
19161SOL    HW261015   0.079   7.865   0.914 -0.2254  1.2793  0.1829
19162SOL     OW61016  10.370   8.401   4.445 -1.1495  0.0878 -0.0142
19162SOL    HW161017  10.298   8.427   4.502 -0.2235  0.1135  1.1995
19162SOL    HW261018  10.337   8.325   4.397 -1.7513 -0.3359  1.0409
19163SOL     OW61019   5.163   6.027   7.536 -0.0202 -0.6700  0.0603
19163SOL    HW161020   5.226   6.010   7.606  0.2463 -0.7468 -0.1965
19163SOL    HW261021   5.083   5.984   7.565 -1.4347  3.0695  2.5703
19164SOL     OW61022   8.683   1.669   0.418  0.2381 -0.2426 -0.1223
19164SOL    HW161023   8.635   1.705   0.344 -0.5202  2.1791  1.4237
19164SOL    HW261024   8.769   1.710   0.413  0.3058 -0.3479  0.1516
19165SOL     OW61025   1.221  10.072   6.007 -0.0616  0.0528  0.0089
19165SOL    HW161026   1.180  10.100   6.089 -0.3284  0.5388 -0.2850
19165SOL    HW261027   1.271  10.148   5.977 -1.9747  0.7999 -1.5501
19166SOL     OW61028   7.712   9.430   0.263  0.0629 -0.5381  0.1729
19166SOL    HW161029   7.804   9.429   0.237 -0.4264 -1.1317 -1.6341
19166SOL    HW261030   7.664   9.455   0.184 -1.3021  0.6040  1.2844
19167SOL     OW61031  10.686  10.495   6.108 -0.0231 -0.0341 -0.5474
19167SOL    HW161032  10.755  10.506   6.043  1.7222 -0.7822  1.0736
19167SOL    HW261033  10.684  10.400   6.125 -0.9194  0.0625 -0.0130
19168SOL     OW61034   0.972   8.684   9.792  0.1002  0.1237  0.4812
19168SOL    HW161035   1.032   8.617   9.826  0.3122  0.4002  0.6584
19168SOL    HW261036   1.018   8.767   9.807  0.2792  0.2413 -0.6504
19169SOL     OW61037   3.931   9.148   0.813 -0.5760  0.1698 -0.0400
19169SOL    HW161038   3.940   9.150   0.717 -0.4076  1.5697 -0.0119
19169SOL    HW261039   3.991   9.079   0.841 -0.8880 -0.4990 -0.9654
19170SOL     OW61040   6.999   1.824   6.687 -0.0648 -0.3609  0.1547
19170SOL    HW161041   6.981   1.737   6.650 -0.0006 -0.2534 -0.1273
19170SOL    HW261042   6.942   1.829   6.764  0.4935 -0.9543  0.6073
19171SOL     OW61043   8.903   4.916   3.575 -0.1733  0.7649 -0.4564
19171SOL    HW161044   8.926   4.893   3.485 -0.7719  0.4755 -0.5417
19171SOL    HW261045   8.834   4.982   3.566 -1.0989 -0.1346 -0.2293
19172SOL     OW61046   3.457   2.369   8.889  0.1843  0.5494  0.6007
19172SOL    HW161047   3.362   2.360   8.903  0.1753 -0.0877  0.1892
19172SOL    HW261048   3.484   2.437   8.951 -0.2968 -0.3001  1.7980
19173SOL     OW61049   9.148   5.133   7.878 -0.8046  0.0326 -0.4803
19173SOL    HW161050   9.237   5.143   7.914 -0.4801 -0.6737 -1.0645
19173SOL    HW261051   9.162   5.122   7.784 -1.6209  1.5004 -0.7997
19174SOL     OW61052   6.656   8.125   2.806  0.0011  0.1831 -0.0505
19174SOL    HW161053   6.639   8.179   2.883  1.5041 -0.2843  0.6476
19174SOL    HW261054   6.670   8.188   2.735  0.0935  0.6598  0.3867
19175SOL     OW61055   1.026   3.057   4.412 -0.5241  0.0852 -0.1327
19175SOL    HW161056   1.041   3.108   4.332 -0.8599  0.6818  0.1825
19175SOL    HW261057   0.933   3.068   4.431  0.1948  2.9861  2.3581
19176SOL     OW61058   0.821   5.494   1.456  0.8075  0.5641 -1.2071
19176SOL    HW161059   0.808   5.400   1.453  0.1668  0.5152  1.0485
19176SOL    HW261060   0.822   5.515   1.549  0.5393  2.8428 -1.6574
19177SOL     OW61061   2.951   2.316   1.028  0.4189 -0.0985  0.1079
19177SOL    HW161062   2.972   2.365   0.948 -0.4673 -0.8661 -0.6191
19177SOL    HW261063   2.856   2.307   1.027  0.2722  0.8393  1.8511
19178SOL     OW61064   6.881   6.198   3.399  0.0562  0.1503  0.0246
19178SOL    HW161065   6.856   6.253   3.474  2.1036  0.8124  0.2717
19178SOL    HW261066   6.971   6.171   3.418  0.1712 -0.7248 -1.6039
19179SOL     OW61067   9.611   1.134   3.307  0.1676 -0.3676  0.0775
19179SOL    HW161068   9.633   1.205   3.368 -1.5881  0.2075  0.1024
19179SOL    HW261069   9.592   1.059   3.364  1.4792 -0.7259  0.0746
19180SOL     OW61070   7.735   7.695   8.213 -0.3434  0.1974  0.1790
19180SOL    HW161071   7.684   7.659   8.286 -1.8442  1.4192 -0.1979
19180SOL    HW261072   7.673   7.753   8.168  1.1507  1.0426 -0.8586
19181SOL     OW61073   4.023   6.725   3.646  0.1106 -0.5317 -0.1834
19181SOL    HW161074   4.077   6.702   3.570  0.5482  0.3553 -0.1585
19181SOL    HW261075   4.037   6.819   3.657  0.1324 -0.6599  1.0539
19182SOL     OW61076   4.651   4.862   7.052 -0.1242  0.1616 -0.1357
19182SOL    HW161077   4.657   4.954   7.027 -2.1136 -0.0954 -1.8972
19182SOL    HW261078   4.699   4.816   6.983 -0.9327 -0.2102 -0.4678
19183SOL     OW61079   1.201   8.085  10.617  0.1040  0.1266  0.3962
19183SOL    HW161080   1.160   8.153  10.563  0.7392  0.0362 -0.2205
19183SOL    HW261081   1.282   8.063  10.570  0.5004 -0.1995  1.2175
19184SOL     OW61082   4.316   0.972   6.340  0.0051  0.2967 -0.2068
19184SOL    HW161083   4.270   0.970   6.256  0.7668  0.6673 -0.6485
19184SOL    HW261084   4.402   0.934   6.321  0.4187  0.9773  0.2472
19185SOL     OW61085   1.953   1.857  10.604  0.6219 -0.2975 -0.4130
19185SOL    HW161086   1.992   1.941  10.627  0.0301 -0.2421  0.4103
19185SOL    HW261087   1.886   1.879  10.539  2.2955 -0.4568 -2.2827
19186SOL     OW61088   4.902   3.930   0.692  0.4660  0.3032  0.0929
19186SOL    HW161089   4.833   3.881   0.736  0.3462  1.1630  0.9162
19186SOL    HW261090   4.983   3.902   0.735  0.8838 -1.8964 -1.9437
19187SOL     OW61091   9.763  10.186   8.182  0.2929 -0.6363  0.3397
19187SOL    HW161092   9.683  10.237   8.195  1.0416  0.1062  2.5792
19187SOL    HW261093   9.736  10.110   8.131 -1.7091 -0.0813  0.5124
19188SOL     OW61094  10.717   5.448   7.364 -0.4664  0.2353  0.3802
19188SOL    HW161095  10.757   5.366   7.395 -0.1789  0.2037 -0.0711
19188SOL    HW261096  10.726   5.507   7.438 -0.9145 -0.2196  0.8073
19189SOL     OW61097   8.938  10.989   1.740 -0.4457 -0.3943  0.2869
19189SOL    HW161098   8.878  10.933   1.692  0.1989 -0.0938 -0.9092
19189SOL    HW261099   8.883  11.057   1.779 -0.9705 -0.5422 -0.1886
19190SOL     OW61100   7.141   5.737   3.837  0.0035 -0.3818 -0.0850
19190SOL    HW161101   7.120   5.814   3.785 -1.4000 -0.6925 -0.0196
19190SOL    HW261102   7.179   5.772   3.918  0.6146  0.1717 -0.6038
19191SOL     OW61103   1.320   5.942   5.640 -0.0340  0.5126 -0.2152
19191SOL    HW161104   1.318   6.038   5.643  3.2411  0.6754  0.4980
19191SOL    HW261105   1.393   5.918   5.698  0.4465 -2.2985 -1.8213
19192SOL     OW61106   0.731   6.376   7.895  0.4617 -0.4320 -0.0474
19192SOL    HW161107   0.774   6.348   7.814  2.1422  0.2551  0.5437
19192SOL    HW261108   0.699   6.464   7.875  0.5314 -0.4150 -0.0855
19193SOL     OW61109  10.226   4.951  11.050 -0.0841  0.1110 -0.0969
19193SOL    HW161110  10.278   4.943  11.130  0.1082  0.2124 -0.2108
19193SOL    HW261111  10.216   5.045  11.037  1.3775  0.1613 -1.1464
19194SOL     OW61112   3.782   1.875   9.030  0.8902 -0.0709 -0.9121
19194SOL    HW161113   3.721   1.803   9.045 -0.7319  0.1492 -5.0608
19194SOL    HW261114   3.727   1.946   8.996  3.0146  1.5232 -1.2554
19195SOL     OW61115   0.377   2.038   3.008  0.3545  0.1496 -0.0243
19195SOL    HW161116   0.356   2.126   3.040  1.2150  0.2410  0.3150
19195SOL    HW261117   0.461   2.018   3.048 -0.3891 -1.3344  0.8792
19196SOL     OW61118   0.650   2.580  10.078 -0.0945  0.1674  0.2546
19196SOL    HW161119   0.616   2.549  10.162 -2.9478  3.2509  0.4509
19196SOL    HW261120   0.572   2.605  10.028  1.6762  2.0415 -1.7982
19197SOL     OW61121   4.788   2.163   4.197  0.5063 -0.2561 -0.0898
19197SOL    HW161122   4.737   2.158   4.278 -1.0338 -1.0282 -1.0539
19197SOL    HW261123   4.787   2.256   4.173  2.2210  0.2281  1.4783
19198SOL     OW61124   9.241  10.417   3.892  0.0923  0.0100  0.0432
19198SOL    HW161125   9.189  10.339   3.910  1.0575 -0.7733 -0.4520
19198SOL    HW261126   9.246  10.462   3.976 -0.8440 -0.2216  0.2367
19199SOL     OW61127   0.605  10.478   1.503  0.0621  0.0519 -0.2386
19199SOL    HW161128   0.636  10.389   1.519 -0.2264  0.0726  0.4692
19199SOL    HW261129   0.514  10.468   1.475 -0.9564  0.2303  2.6378
19200SOL     OW61130   2.271   4.402   2.244 -0.0357 -0.3332  0.8142
19200SOL    HW161131   2.242   4.481   2.199  1.6403  0.3864  0.9601
19200SOL    HW261132   2.190   4.352   2.257 -0.5715 -1.0318 -3.6761
19201SOL     OW61133  10.522   4.856   4.478 -0.2098  0.4886  0.1075
19201SOL    HW161134  10.470   4.786   4.520 -1.5730  0.8469 -0.9064
19201SOL    HW261135  10.515   4.930   4.539 -0.4747  0.3691  0.2268
19202SOL     OW61136   7.103   8.695   1.829  0.3888 -0.4398 -0.1979
19202SOL    HW161137   7.126   8.657   1.913  0.5993  1.0955  0.4659
19202SOL    HW261138   7.089   8.619   1.771  0.2580 -1.5089  1.1892
19203SOL     OW61139   1.183   6.006   7.527  0.0766  0.1085  0.5482
19203SOL    HW161140   1.224   5.977   7.445  0.9230 -1.3096  1.4279
19203SOL    HW261141   1.141   5.927   7.561 -0.5234  0.7551  1.3284
19204SOL     OW61142   5.966   5.016   0.193  0.0919  0.6320  0.5285
19204SOL    HW161143   6.024   4.971   0.131  0.0503  0.8523  0.3261
19204SOL    HW261144   5.992   4.983   0.279  1.8051  2.0857  0.6372
19205SOL     OW61145   4.914   1.685   1.483  0.1424  0.4884  0.2141
19205SOL    HW161146   4.980   1.704   1.550 -0.8438  0.3124  1.2735
19205SOL    HW261147   4.867   1.768   1.472 -1.6852 -0.2249  2.0379
19206SOL     OW61148   0.518  10.266   4.128 -0.3449  0.1841 -0.2148
19206SOL    HW161149   0.525  10.353   4.168  1.8686  0.0703 -0.2268
19206SOL    HW261150   0.506  10.284   4.035 -0.8843  0.4655 -0.0948
19207SOL     OW61151  10.884   4.790   9.835 -0.3085 -0.1381 -0.5543
19207SOL    HW161152  10.979   4.777   9.829 -0.3816 -2.1133  1.3086
19207SOL    HW261153  10.848   4.722   9.778 -0.6583  1.1026 -1.8805
19208SOL     OW61154  10.687   7.181   9.065 -0.3829  0.3349 -0.1078
19208SOL    HW161155  10.771   7.179   9.111 -0.5389  0.9452  0.2188
19208SOL    HW261156  10.642   7.101   9.095 -1.0405  1.3883  1.9298
19209SOL     OW61157   1.808   0.315   9.036 -0.2170 -0.1835 -0.1859
19209SOL    HW161158   1.749   0.267   9.093 -2.0206  1.1424 -0.8344
19209SOL    HW261159   1.885   0.333   9.090 -1.2733 -0.1612  1.3701
19210SOL     OW61160   1.790   8.019   4.071 -0.1983 -0.4221  0.2928
19210SOL    HW161161   1.804   7.929   4.101  0.2383 -0.5216 -0.2047
19210SOL    HW261162   1.759   8.010   3.981  1.0511 -0.0364 -0.1913
19211SOL     OW61163   5.748   5.810   7.437  0.2470  0.3588  0.1588
19211SOL    HW161164   5.751   5.903   7.418 -1.5956  0.3338 -0.4408
19211SOL    HW261165   5.788   5.768   7.361 -1.3471  0.5655 -0.8412
19212SOL     OW61166   9.529  10.090   0.629 -0.3542 -0.0331 -0.7672
19212SOL    HW161167   9.496  10.094   0.719 -2.0009  1.0477 -1.3792
19212SOL    HW261168   9.465  10.036   0.583  0.7618 -1.0215 -1.2190
19213SOL     OW61169   9.375   3.169   7.046  0.4985  0.0739  0.1496
19213SOL    HW161170   9.430   3.185   7.123 -0.8670 -0.8170  1.3510
19213SOL    HW261171   9.416   3.095   7.002  1.2292  0.5259  0.0401
19214SOL     OW61172  10.167   1.421   6.452 -0.7536 -0.4625  0.2144
19214SOL    HW161173  10.098   1.472   6.410  0.2849  0.6428 -0.2194
19214SOL    HW261174  10.130   1.394   6.536 -1.9812 -0.5745 -0.3470
19215SOL     OW61175  10.368   6.965   3.569  0.1044 -0.1033 -0.4640
19215SOL    HW161176  10.323   7.032   3.622  0.2644 -0.0757 -0.3627
19215SOL    HW261177  10.394   6.898   3.632  3.5030  1.5647  0.1695
19216SOL     OW61178   7.063   8.943  10.647  0.0780  0.2966 -0.0890
19216SOL    HW161179   7.111   8.896  10.579 -0.6312  2.3933 -2.1818
19216SOL    HW261180   7.116   9.020  10.665 -1.2489  1.3946 -0.6630
19217SOL     OW61181   3.304   6.935   5.578 -0.1458 -0.7800  0.2109
19217SOL    HW161182   3.307   7.001   5.648 -2.9973 -0.6789  0.3806
19217SOL    HW261183   3.244   6.868   5.612 -0.3823 -1.4938 -1.5265
19218SOL     OW61184   9.304   4.594   4.468  0.3748  0.0086 -0.6046
19218SOL    HW161185   9.274   4.518   4.517  0.7902 -0.5496 -1.2058
19218SOL    HW261186   9.235   4.659   4.481  0.6791  0.0356  1.0653
19219SOL     OW61187   1.087  10.470   3.645  0.0635  0.5276 -0.0501
19219SOL    HW161188   1.136  10.423   3.712 -0.9239 -1.2443 -0.4811
19219SOL    HW261189   1.123  10.438   3.562 -2.4444 -1.7468 -0.4157
19220SOL     OW61190   8.470   6.960   1.125 -0.3342 -0.2474 -0.4419
19220SOL    HW161191   8.468   6.954   1.030  1.0284 -0.3178 -0.4871
19220SOL    HW261192   8.391   6.915   1.154 -1.7204  1.3187 -1.5778
19221SOL     OW61193   6.998   7.726   1.872  0.1418  0.3541  0.1495
19221SOL    HW161194   7.040   7.676   1.802 -0.1184 -2.9855  2.1269
19221SOL    HW261195   7.069   7.743   1.935 -0.1520  0.7871  0.3675
19222SOL     OW61196   0.471   3.412   2.390 -0.3200  0.5922  0.2779
19222SOL    HW161197   0.517   3.496   2.391 -0.8456  0.9307 -1.3731
19222SOL    HW261198   0.511   3.363   2.319  0.2974 -0.7733  1.5255
19223SOL     OW61199   0.935   0.556   7.036  0.7282  0.6031  0.8465
19223SOL    HW161200   0.898   0.474   7.004 -0.8463  1.1957  1.0757
19223SOL    HW261201   1.024   0.557   7.001 -0.1066  0.0844 -1.4295
19224SOL     OW61202   3.715   8.111   8.213 -0.3025 -0.4923 -0.0378
19224SOL    HW161203   3.810   8.112   8.219 -0.2071 -0.7032 -1.2143
19224SOL    HW261204   3.697   8.069   8.128 -1.4168  0.5862 -0.3585
19225SOL     OW61205   2.060   2.301   3.542  0.4078  0.7847 -0.4704
19225SOL    HW161206   2.067   2.378   3.486 -0.7139 -0.3309 -2.2531
19225SOL    HW261207   2.074   2.227   3.483 -4.7029 -0.6733 -0.3362
19226SOL     OW61208   6.381   7.417   0.845 -0.0043  0.0638 -0.4345
19226SOL    HW161209   6.358   7.353   0.777 -0.2401  0.1835 -0.4697
19226SOL    HW261210   6.299   7.431   0.892 -1.1408  3.5245 -3.0474
19227SOL     OW61211   2.496   4.022   8.942 -0.3065 -0.3178 -0.1616
19227SOL    HW161212   2.430   4.006   8.874 -0.5767  0.1783 -0.0234
19227SOL    HW261213   2.566   4.070   8.897 -0.4484 -0.0611 -0.1143
19228SOL     OW61214   2.253   3.544   9.297 -0.1128 -0.2265  0.3150
19228SOL    HW161215   2.166   3.524   9.263 -0.1622  1.3269 -0.5408
19228SOL    HW261216   2.312   3.485   9.249 -0.4567  0.2416 -0.6942
19229SOL     OW61217   1.906   9.516  10.649  0.0315  0.8964  0.1428
19229SOL    HW161218   1.956   9.439  10.622 -1.1049 -1.1995  3.4722
19229SOL    HW261219   1.972   9.583  10.665  1.2913 -0.1624 -0.3852
19230SOL     OW61220   3.171   2.005   3.469 -0.6475 -0.3609  0.1410
19230SOL    HW161221   3.188   1.951   3.391 -1.3069 -1.0496  0.4591
19230SOL    HW261222   3.150   2.091   3.434 -1.1912 -0.7298 -0.4756
19231SOL     OW61223   5.672   1.304   6.594 -0.2785  0.6716 -0.2172
19231SOL    HW161224   5.653   1.394   6.567 -0.4573  0.2501 -1.5873
19231SOL    HW261225   5.763   1.305   6.622 -0.1842  1.2234 -0.5361
19232SOL     OW61226   1.214   6.355   0.914  0.9796 -0.2596  0.1078
19232SOL    HW161227   1.164   6.326   0.990  1.9482 -0.9802  0.4864
19232SOL    HW261228   1.148   6.391   0.854  0.0204 -1.1324  0.6159
19233SOL     OW61229   4.998   4.094   5.599  0.2461  0.4291 -0.1861
19233SOL    HW161230   5.067   4.139   5.551  0.2507  2.2104  1.3349
19233SOL    HW261231   5.040   4.016   5.635  0.4989 -0.3659 -2.1368
19234SOL     OW61232   8.030   8.199   4.090 -0.8564  0.3885 -0.0321
19234SOL    HW161233   7.947   8.151   4.088 -0.0026 -1.2735 -3.8139
19234SOL    HW261234   8.092   8.138   4.130 -1.2631  1.4660  2.3884
19235SOL     OW61235   8.189   3.258   6.196 -0.1372  0.2253 -0.0445
19235SOL    HW161236   8.249   3.248   6.270 -2.0893  2.3264  1.9614
19235SOL    HW261237   8.214   3.341   6.155 -0.3160  0.0391 -0.5430
19236SOL     OW61238   2.026   5.778   5.908 -0.0919  0.0885 -0.8423
19236SOL    HW161239   2.113   5.817   5.898 -0.3024  0.6520 -0.5346
19236SOL    HW261240   2.042   5.692   5.945  0.3747 -0.0641 -1.3942
19237SOL     OW61241   9.756   4.776   7.387 -0.2536  0.5144 -0.0859
19237SOL    HW161242   9.841   4.800   7.352 -0.5217  0.6249 -0.6666
19237SOL    HW261243   9.775   4.743   7.475  0.5857 -1.0975 -0.8280
19238SOL     OW61244   7.088   4.037   3.133 -0.0719 -0.0552 -0.2069
19238SOL    HW161245   7.054   4.022   3.045  0.4054  0.7768 -0.5454
19238SOL    HW261246   7.050   4.121   3.159  1.4647  0.7775 -0.4944
19239SOL     OW61247   6.072   6.092   8.137  0.1192  0.2985 -0.0646
19239SOL    HW161248   6.103   6.183   8.138  0.2407  0.2759 -0.9882
19239SOL    HW261249   5.991   6.094   8.188  0.7616  0.6799  0.9575
19240SOL     OW61250   2.824   2.974   4.686 -0.0280  0.0427 -0.0127
19240SOL    HW161251   2.788   2.891   4.718  0.3889 -0.0958  0.1021
19240SOL    HW261252   2.862   2.952   4.601  0.3819  0.0429  0.1698
19241SOL     OW61253   1.051   8.565   1.035 -0.4811  0.6042 -0.0426
19241SOL    HW161254   0.966   8.520   1.040 -0.2735  0.2093 -0.0309
19241SOL    HW261255   1.038   8.645   1.085 -0.5301  0.0258  0.9059
19242SOL     OW61256   4.326   4.306   4.042  0.7144 -0.3977 -0.1700
19242SOL    HW161257   4.314   4.352   3.959  0.0069  1.2391  0.8009
19242SOL    HW261258   4.239   4.300   4.080  0.9407 -1.6929  0.1916
19243SOL     OW61259   8.502   5.735   2.667 -0.7049 -0.5911  0.0104
19243SOL    HW161260   8.536   5.748   2.755 -0.9758 -1.8668  0.3153
19243SOL    HW261261   8.413   5.701   2.680 -1.2523  0.4703 -0.7707
19244SOL     OW61262   6.632   4.750   9.077 -0.4277 -0.3037  0.0097
19244SOL    HW161263   6.572   4.747   9.002 -0.3530  0.5134 -0.0846
19244SOL    HW261264   6.577   4.771   9.152 -0.5152 -1.2001  0.2072
19245SOL     OW61265   9.455   8.760   8.395  0.3253 -0.0376  0.7637
19245SOL    HW161266   9.441   8.836   8.452  0.4944  0.3632  0.2783
19245SOL    HW261267   9.417   8.785   8.311  0.0602 -0.6351  0.7012
19246SOL     OW61268   2.100   2.467   6.884  0.0510 -0.0666  0.3487
19246SOL    HW161269   2.008   2.484   6.907 -0.2896 -1.9030  0.5226
19246SOL    HW261270   2.125   2.542   6.831 -1.8482  0.0480 -0.4840
19247SOL     OW61271  10.583   5.849   6.748 -0.3623  0.7538  0.5901
19247SOL    HW161272  10.576   5.897   6.665 -0.0826  0.5464  0.4432
19247SOL    HW261273  10.674   5.859   6.773 -0.5354  1.1379  1.0748
19248SOL     OW61274   7.185   1.255  11.123 -0.3120 -0.4876 -0.2024
19248SOL    HW161275   7.237   1.178  11.099 -0.4143 -0.6244  0.0224
19248SOL    HW261276   7.096   1.234  11.094 -0.9115 -1.5645  2.2216
19249SOL     OW61277   6.991   7.033   6.694 -0.6648 -0.1892 -0.2741
19249SOL    HW161278   7.057   7.090   6.734  0.1608 -2.3207  1.6377
19249SOL    HW261279   7.030   7.006   6.610  0.3023 -0.3441  0.2151
19250SOL     OW61280  10.972   7.803   7.661  0.3638 -0.6511  0.2728
19250SOL    HW161281  11.004   7.806   7.570  1.0709  0.8428  0.5363
19250SOL    HW261282  10.947   7.893   7.680 -1.1836 -1.2357  1.1012
19251SOL     OW61283   5.726   2.669   9.060 -0.3877  0.3409  0.3456
19251SOL    HW161284   5.775   2.625   9.130  1.6871  1.4622 -0.3021
19251SOL    HW261285   5.730   2.609   8.986  3.6137  1.8933 -0.9777
19252SOL     OW61286  10.660   1.047   2.019  0.1198 -0.2998 -0.2249
19252SOL    HW161287  10.596   0.976   2.029 -0.7039  0.2247 -1.5272
19252SOL    HW261288  10.655   1.071   1.926  2.3311 -0.3375 -0.4073
19253SOL     OW61289   8.192   0.021   6.311  0.1812  0.2870  0.2780
19253SOL    HW161290   8.114  -0.001   6.363 -0.0487  1.4139  0.4434
19253SOL    HW261291   8.260  -0.037   6.344 -0.3738 -0.1182  0.7321
19254SOL     OW61292   6.881   4.336   2.072 -0.1059 -0.6738 -0.1656
19254SOL    HW161293   6.934   4.387   2.010 -0.9935  1.9360  1.0753
19254SOL    HW261294   6.944   4.304   2.136  0.2559  0.6325  0.1576
19255SOL     OW61295   5.142   5.173   1.395  0.5272  0.0495 -0.0551
19255SOL    HW161296   5.230   5.140   1.375 -0.3889 -1.5048 -1.7760
19255SOL    HW261297   5.117   5.127   1.475  0.7896 -0.4911 -0.2756
19256SOL     OW61298   2.368   0.044   7.614  0.2685  0.6383 -0.2211
19256SOL    HW161299   2.321   0.125   7.632  1.0048  0.9112  0.5648
19256SOL    HW261300   2.335  -0.018   7.679  1.2433  0.9451  0.5945
19257SOL     OW61301   0.311   4.571  10.219  0.2752  0.1465  0.4663
19257SOL    HW161302   0.320   4.576  10.314 -1.1601 -1.3079  0.7150
19257SOL    HW261303   0.231   4.620  10.200 -1.5251 -2.5924  0.4891
19258SOL     OW61304   5.202   3.283  10.689 -0.4294  0.3177  0.6459
19258SOL    HW161305   5.271   3.223  10.718 -1.5825 -0.2346  2.4530
19258SOL    HW261306   5.120   3.237  10.710 -1.4027  0.8250 -1.6556
19259SOL     OW61307  10.771   8.289   7.454  0.3060  0.1483 -0.6271
19259SOL    HW161308  10.740   8.300   7.543  0.2132  0.2603 -0.6739
19259SOL    HW261309  10.797   8.377   7.426 -0.6279  0.2950 -1.0707
19260SOL     OW61310   7.722   8.495   4.520  0.1275  0.2721 -0.6683
19260SOL    HW161311   7.693   8.513   4.431  0.9617 -1.6712 -1.3645
19260SOL    HW261312   7.779   8.569   4.542 -0.2526  0.8711 -1.6490
19261SOL     OW61313   6.571   0.354  10.212  0.1993 -0.8703 -1.0767
19261SOL    HW161314   6.660   0.321  10.206 -0.6635 -3.1604 -2.5165
19261SOL    HW261315   6.529   0.299  10.278 -0.1414  0.3007 -0.2870
19262SOL     OW61316   9.012   0.171   6.968 -0.3081  0.1229 -0.3109
19262SOL    HW161317   9.096   0.138   6.937  1.2913  3.3094  0.2675
19262SOL    HW261318   8.999   0.130   7.053  0.7003 -0.3361 -0.3745
19263SOL     OW61319   9.888   8.022   2.260 -0.3122 -0.3619 -0.1437
19263SOL    HW161320   9.930   8.023   2.173  2.8316  0.2734  1.2119
19263SOL    HW261321   9.913   7.938   2.298  1.1100  0.6318  1.2599
19264SOL     OW61322   7.547   4.109   2.188 -0.1934 -0.5990  0.0742
19264SOL    HW161323   7.608   4.060   2.243  2.0691 -0.5211 -2.2147
19264SOL    HW261324   7.586   4.196   2.179 -1.0371 -0.2870 -0.8106
19265SOL     OW61325  10.739  11.075   8.993  0.4016  0.4663  0.0292
19265SOL    HW161326  10.797  11.092   8.918  0.0440 -0.5578 -0.4989
19265SOL    HW261327  10.729  10.980   8.994 -0.3169  0.5422  0.8457
19266SOL     OW61328   5.080   1.210   4.587  0.2934  0.1413  0.5191
19266SOL    HW161329   5.154   1.176   4.637 -0.3720 -1.1033  0.6950
19266SOL    HW261330   5.074   1.302   4.612  0.4722 -0.2628  2.1175
19267SOL     OW61331   8.402   8.909   4.333  0.0200  0.6584 -0.4943
19267SOL    HW161332   8.425   8.816   4.327  1.7859  0.9915  0.3663
19267SOL    HW261333   8.486   8.954   4.340 -0.8408  2.2188  0.3844
19268SOL     OW61334   3.618   2.137   8.971 -0.0005 -0.3348 -0.3130
19268SOL    HW161335   3.581   2.215   8.930 -1.1978 -2.0904 -2.8272
19268SOL    HW261336   3.570   2.127   9.053 -1.3508  0.3745 -0.9939
19269SOL     OW61337   0.685   3.480   9.052  0.0657 -0.3893  0.0214
19269SOL    HW161338   0.768   3.439   9.028 -0.1618 -2.5116  2.4591
19269SOL    HW261339   0.645   3.505   8.969  3.0639  0.6599 -1.2284
19270SOL     OW61340   7.288   7.449   5.363 -0.2599  0.1387 -0.2267
19270SOL    HW161341   7.207   7.421   5.322 -0.8902  0.0500  1.0165
19270SOL    HW261342   7.306   7.383   5.430  0.9585  0.0444 -0.6235
19271SOL     OW61343   6.601   8.884   4.839  0.7273 -0.4812 -0.0712
19271SOL    HW161344   6.689   8.846   4.843  0.6197 -0.6670  0.5294
19271SOL    HW261345   6.612   8.973   4.871  0.5268 -0.8146  0.9585
19272SOL     OW61346   2.930   8.651  10.361 -0.0113 -0.0667  0.1595
19272SOL    HW161347   2.934   8.729  10.417 -0.1693  0.7737 -0.9413
19272SOL    HW261348   2.838   8.624  10.365 -0.3389  0.8202 -0.7235
19273SOL     OW61349   7.702   7.491  10.698 -0.3421  0.1134 -0.0586
19273SOL    HW161350   7.738   7.479  10.785  1.5092  0.6005 -0.7119
19273SOL    HW261351   7.634   7.558  10.709  1.7161  2.2282  0.6370
19274SOL     OW61352   2.223   4.267  10.283  0.2202  0.3911  0.2951
19274SOL    HW161353   2.153   4.202  10.294 -0.8213  1.3653 -0.3523
19274SOL    HW261354   2.184   4.336  10.229  2.7328 -0.5818 -3.0475
19275SOL     OW61355   3.694   3.654   7.854  0.4408  0.2618  0.2157
19275SOL    HW161356   3.602   3.647   7.877  0.3508  0.5701 -0.0407
19275SOL    HW261357   3.706   3.746   7.830  0.8108  0.2213  0.2403
19276SOL     OW61358   4.778   4.337   7.290 -0.3497  0.0885  0.3506
19276SOL    HW161359   4.829   4.314   7.367  0.9506  0.6987 -0.3045
19276SOL    HW261360   4.689   4.349   7.323 -0.4042 -2.3329  1.2914
19277SOL     OW61361   0.857   6.867   2.789 -0.5075  0.7387  0.0478
19277SOL    HW161362   0.816   6.789   2.825  0.7475 -0.5784 -1.2702
19277SOL    HW261363   0.787   6.933   2.789 -1.4589 -0.2191  1.5949
19278SOL     OW61364  10.662   7.940   0.638  0.3038  0.0189 -0.1524
19278SOL    HW161365  10.624   7.949   0.551  0.0625 -0.6771 -0.1288
19278SOL    HW261366  10.586   7.926   0.696  0.2985  2.1672  0.4450
19279SOL     OW61367  10.953  10.691   4.471 -0.1571  1.0386  0.3136
19279SOL    HW161368  10.867  10.729   4.453 -0.8773  0.1949  1.7764
19279SOL    HW261369  10.940  10.639   4.551  1.5010  0.1708  0.0601
19280SOL     OW61370   5.648   6.962   5.794  0.3191  0.6581 -0.9179
19280SOL    HW161371   5.689   6.880   5.823  1.2347  0.8638 -1.5958
19280SOL    HW261372   5.675   6.972   5.703  0.3810  1.8085 -0.7906
19281SOL     OW61373   5.951  10.059   2.878  0.1043 -0.4503 -0.0311
19281SOL    HW161374   6.013  10.073   2.949 -0.4983 -1.6479  0.7742
19281SOL    HW261375   5.998  10.007   2.813  0.4191  0.0003 -0.1687
19282SOL     OW61376   5.570   7.436   8.277  0.4154  0.2073  0.1902
19282SOL    HW161377   5.627   7.508   8.251  2.0558 -1.2176 -0.3749
19282SOL    HW261378   5.627   7.359   8.275 -1.1861 -1.0583  1.1105
19283SOL     OW61379   5.442   1.054   2.111  0.3255  0.0258 -0.6066
19283SOL    HW161380   5.455   1.055   2.016 -0.1387 -3.0973 -0.7884
19283SOL    HW261381   5.349   1.036   2.122  0.5001 -0.2710  0.4317
19284SOL     OW61382   5.725   6.458   8.159  0.2532 -0.0879  0.1368
19284SOL    HW161383   5.696   6.409   8.082  2.7035 -1.5055 -0.0005
19284SOL    HW261384   5.698   6.404   8.233  1.2653 -0.7532  0.0554
19285SOL     OW61385   3.151   4.083   3.812 -0.0851 -0.2689  0.0354
19285SOL    HW161386   3.106   4.010   3.853  0.8076 -0.6383  0.3891
19285SOL    HW261387   3.243   4.070   3.834  0.3269 -0.0633 -1.4863
19286SOL     OW61388   2.419  11.113   9.321  0.7533 -0.2016  0.1809
19286SOL    HW161389   2.372  11.189   9.355 -1.1794 -1.6456  0.9405
19286SOL    HW261390   2.465  11.076   9.396 -0.6416 -1.3459  0.5448
19287SOL     OW61391   7.824   3.366  10.319 -0.1239  0.1313  0.5406
19287SOL    HW161392   7.813   3.436  10.255 -0.5857  0.2319  0.7209
19287SOL    HW261393   7.734   3.336  10.337  0.0578 -0.3943  0.5869
19288SOL     OW61394   5.665  10.936   3.182  0.4393 -0.2843  0.3713
19288SOL    HW161395   5.737  10.894   3.229  0.4905  0.4527  0.9695
19288SOL    HW261396   5.707  10.978   3.106 -0.0080 -4.1569 -2.3315
19289SOL     OW61397   8.599   6.432   8.453  0.5684  0.1418 -0.2614
19289SOL    HW161398   8.672   6.464   8.506  0.9715  0.1061 -0.7919
19289SOL    HW261399   8.530   6.415   8.517  0.4530  1.7118  0.0873
19290SOL     OW61400   0.990   1.517   4.974  0.2430 -0.6745  0.0065
19290SOL    HW161401   0.996   1.513   5.069 -0.5573  0.4404  0.1231
19290SOL    HW261402   1.056   1.455   4.943  0.7070 -0.8432  1.2813
19291SOL     OW61403   8.316   5.008   0.887  0.7709  0.0232 -0.4174
19291SOL    HW161404   8.308   4.980   0.796  1.9800  1.0619 -0.8583
19291SOL    HW261405   8.240   4.968   0.931 -0.7215  0.7885 -2.1760
19292SOL     OW61406   6.837   6.045   0.388 -0.4078 -0.3379  0.2741
19292SOL    HW161407   6.897   6.079   0.321  1.5356 -2.9206  0.5467
19292SOL    HW261408   6.837   6.113   0.456  1.5875  0.1342 -0.1275
19293SOL     OW61409   7.558   7.576   2.579 -0.7686  0.2457 -0.2339
19293SOL    HW161410   7.581   7.655   2.530 -0.0235  0.1282 -0.0787
19293SOL    HW261411   7.600   7.505   2.531 -0.2220  0.1032  0.4442
19294SOL     OW61412   4.714   9.653   7.065 -0.2458 -0.1511  0.4224
19294SOL    HW161413   4.690   9.627   7.154 -0.3488  1.7154  0.9877
19294SOL    HW261414   4.640   9.625   7.011 -1.0212  0.3094  1.2208
19295SOL     OW61415   1.556   1.877   6.544  0.2560  0.0409  0.0333
19295SOL    HW161416   1.574   1.819   6.618  1.1903 -0.5886 -0.6530
19295SOL    HW261417   1.520   1.819   6.477 -3.1614  1.0333  0.8489
19296SOL     OW61418   0.729   3.439  10.125 -0.0375 -0.1296  0.2763
19296SOL    HW161419   0.801   3.481  10.172 -0.0212 -0.9092  0.9679
19296SOL    HW261420   0.677   3.397  10.194  1.2985 -3.3602 -0.4758
19297SOL     OW61421   9.482   3.745   3.826  0.3422  0.4752 -0.0397
19297SOL    HW161422   9.531   3.686   3.770  0.2365  0.7245 -0.4022
19297SOL    HW261423   9.521   3.735   3.913 -0.6761 -1.2702  0.2552
19298SOL     OW61424   6.362   9.538   3.758  0.3079 -0.2974 -0.5320
19298SOL    HW161425   6.372   9.620   3.807  0.9632 -0.1674 -0.8641
19298SOL    HW261426   6.269   9.519   3.761 -0.2627  1.7320 -2.4683
19299SOL     OW61427   5.894   3.338   2.073  0.3101  0.1713  0.2337
19299SOL    HW161428   5.971   3.393   2.084 -0.5130  1.9904 -2.2030
19299SOL    HW261429   5.915   3.283   1.996 -0.4009 -0.0963  0.2248
19300SOL     OW61430   4.548   9.259   8.620 -0.1583  0.2529 -0.2444
19300SOL    HW161431   4.570   9.352   8.631  1.6799 -0.0751 -0.7497
19300SOL    HW261432   4.453   9.257   8.618 -0.2844  1.9440  1.3231
19301SOL     OW61433   2.367   0.223   1.617 -0.3393 -0.1047  0.2632
19301SOL    HW161434   2.393   0.289   1.681  2.2460 -0.5372 -0.2152
19301SOL    HW261435   2.301   0.266   1.563  1.3043  2.1492 -0.0863
19302SOL     OW61436   6.423   5.591   9.707 -0.3133  0.0810 -0.1931
19302SOL    HW161437   6.398   5.498   9.712 -1.1172  0.3255  0.6202
19302SOL    HW261438   6.342   5.635   9.681  0.0282  0.5760 -0.4107
19303SOL     OW61439   6.399   0.342   2.656 -0.2345  0.3907  0.4937
19303SOL    HW161440   6.374   0.334   2.563  1.3870 -1.6072  0.1387
19303SOL    HW261441   6.335   0.402   2.693 -3.0449 -1.3363 -1.1848
19304SOL     OW61442   7.169   6.950   7.598  0.0670 -0.2110 -0.7647
19304SOL    HW161443   7.138   7.028   7.553 -1.2740 -0.0584  0.3514
19304SOL    HW261444   7.098   6.886   7.588 -0.0761 -0.3224  0.6971
19305SOL     OW61445   8.771   4.134   9.380  0.5233 -0.3293 -0.4373
19305SOL    HW161446   8.676   4.136   9.365  0.5972 -0.7959 -1.0314
19305SOL    HW261447   8.805   4.076   9.311  1.2174 -0.3330 -0.1054
19306SOL     OW61448   2.202   1.758   8.193  0.1101  0.4649  0.3331
19306SOL    HW161449   2.198   1.806   8.110 -1.0585 -1.9623 -1.1209
19306SOL    HW261450   2.120   1.710   8.197  1.3639 -1.7371  1.4522
19307SOL     OW61451   8.175   7.008   6.363  0.2281  0.4255  0.2435
19307SOL    HW161452   8.227   7.026   6.285 -0.7979 -0.0552 -0.5788
19307SOL    HW261453   8.219   7.057   6.433  2.2313 -0.6007 -0.2304
19308SOL     OW61454   1.356   0.643   7.402 -0.3112 -0.1087  0.0222
19308SOL    HW161455   1.314   0.725   7.429  0.2480 -0.1535  1.0972
19308SOL    HW261456   1.284   0.589   7.369 -0.6558  0.8808 -0.8877
19309SOL     OW61457  10.646   0.884   5.987  0.0610  0.0217 -0.2178
19309SOL    HW161458  10.727   0.834   5.981  0.4638  0.6949 -0.4739
19309SOL    HW261459  10.601   0.848   6.063  1.6454  1.1644  1.3054
19310SOL     OW61460   3.307   7.980   4.783 -0.2796 -0.4402  0.5095
19310SOL    HW161461   3.302   8.050   4.717 -0.9655 -1.4043 -0.5062
19310SOL    HW261462   3.290   8.024   4.866  0.0023  0.7131 -0.0174
19311SOL     OW61463  10.009  10.872  10.211 -0.0188  0.2147 -0.0433
19311SOL    HW161464  10.097  10.840  10.192 -0.3424  0.1941 -1.6605
19311SOL    HW261465   9.960  10.856  10.130 -0.5689  3.4316 -0.4699
19312SOL     OW61466   5.874   8.737   4.647  0.0981  0.3989  0.2745
19312SOL    HW161467   5.932   8.786   4.706  0.0998  0.5644  0.1388
19312SOL    HW261468   5.810   8.696   4.704 -0.8582  1.8486  0.2745
19313SOL     OW61469   3.503   0.751   4.901  0.3281 -0.7006  0.3410
19313SOL    HW161470   3.501   0.783   4.811  2.3779 -1.5501 -0.0568
19313SOL    HW261471   3.558   0.672   4.897 -0.5822 -1.4814  2.1234
19314SOL     OW61472   6.528   6.959   8.588  0.2704  0.6941  0.2739
19314SOL    HW161473   6.497   6.960   8.678  1.1408  1.3992  0.5827
19314SOL    HW261474   6.622   6.942   8.595 -0.2554 -3.9654 -0.7699
19315SOL     OW61475   0.396   3.789   2.203  0.5720 -0.0409  0.3794
19315SOL    HW161476   0.328   3.847   2.167 -0.2008 -1.5101 -0.6547
19315SOL    HW261477   0.478   3.822   2.165 -0.1085 -0.9746 -2.1469
19316SOL     OW61478   9.748   2.570   4.594  0.0943 -0.1083  0.0391
19316SOL    HW161479   9.731   2.631   4.522 -0.5072  0.2363  0.4645
19316SOL    HW261480   9.681   2.502   4.584 -0.5212  0.3717  0.7370
19317SOL     OW61481  11.003  11.008   1.975  0.4335 -0.0847  0.3792
19317SOL    HW161482  11.061  11.018   2.051  0.6687 -2.8012  0.6705
19317SOL    HW261483  11.063  10.999   1.901  0.2779 -0.0525  0.2488
19318SOL     OW61484   9.072   5.873   3.274  0.0040  0.7459  0.0427
19318SOL    HW161485   8.994   5.928   3.277  0.3375  1.2144  2.9661
19318SOL    HW261486   9.131   5.911   3.339  0.5258 -2.6453  1.7716
19319SOL     OW61487   8.234   3.029   9.103  0.2327 -0.1452 -0.7334
19319SOL    HW161488   8.139   3.032   9.090 -0.2076  1.5671  2.1729
19319SOL    HW261489   8.266   3.109   9.062  0.0476  0.5479  0.4295
19320SOL     OW61490   4.008   6.984   7.601  0.0745  0.8171 -0.0897
19320SOL    HW161491   4.019   6.916   7.667 -2.1087  0.0073 -0.4510
19320SOL    HW261492   3.966   7.056   7.649  1.0330  1.3324 -0.0197
19321SOL     OW61493   5.619   0.071   0.613 -0.2474 -0.2893  0.0620
19321SOL    HW161494   5.707   0.104   0.596 -0.7611  1.3397  0.3879
19321SOL    HW261495   5.615   0.061   0.708 -0.0439 -1.5259 -0.0409
19322SOL     OW61496   1.515   8.591   7.579  0.1552  0.9018 -0.0654
19322SOL    HW161497   1.497   8.680   7.546  0.9881  1.0175 -0.2161
19322SOL    HW261498   1.430   8.560   7.610 -0.3201  1.4165 -0.8207
19323SOL     OW61499   7.652   7.093   8.449 -0.1415 -0.0618  0.1452
19323SOL    HW161500   7.589   7.156   8.484 -1.2423 -0.7096 -0.5854
19323SOL    HW261501   7.612   7.007   8.466  1.8747 -0.7073  2.2279
19324SOL     OW61502   3.707  10.327   2.853  0.8267  0.6824  0.3152
19324SOL    HW161503   3.691  10.344   2.946  0.6487  1.1366  0.2023
19324SOL    HW261504   3.757  10.245   2.852 -0.5744 -0.2227  0.7366
19325SOL     OW61505   1.122  10.087  10.784 -0.2999  0.3089 -0.0969
19325SOL    HW161506   1.165  10.073  10.699 -2.1665  1.7643 -1.3822
19325SOL    HW261507   1.194  10.102  10.845  1.0894  1.8958 -1.9932
19326SOL     OW61508   0.975  10.026   5.439  0.4642 -0.1275 -0.5648
19326SOL    HW161509   1.054   9.981   5.408 -0.4412 -1.6420 -0.7383
19326SOL    HW261510   0.976  10.013   5.534  1.6743  1.9861 -0.2064
19327SOL     OW61511  10.778   4.666   0.814  0.2420  0.4682  0.8049
19327SOL    HW161512  10.860   4.628   0.845  0.0356 -0.8509 -0.1867
19327SOL    HW261513  10.790   4.676   0.720 -1.6366 -2.2876  0.1510
19328SOL     OW61514   9.137   0.242   8.674  0.2212  0.5193 -0.1063
19328SOL    HW161515   9.176   0.166   8.718 -2.3657 -1.0026 -0.2201
19328SOL    HW261516   9.128   0.214   8.583 -0.2163  1.1664 -0.2660
19329SOL     OW61517   1.948   3.929   3.539 -0.0902  0.2560  0.1907
19329SOL    HW161518   1.962   3.924   3.444  1.0821 -0.0746  0.3601
19329SOL    HW261519   2.007   3.999   3.568 -0.4876  0.3966  0.6687
19330SOL     OW61520   5.724   0.780   6.994 -0.2159 -0.0671  0.1390
19330SOL    HW161521   5.670   0.823   6.928 -0.5862 -1.0655 -0.2213
19330SOL    HW261522   5.665   0.719   7.038  0.0257  0.5869  1.4115
19331SOL     OW61523   3.716   8.339   5.495 -0.5546 -0.5616  0.0894
19331SOL    HW161524   3.793   8.396   5.489  1.4619 -2.7156  2.4620
19331SOL    HW261525   3.644   8.390   5.459  1.6310  2.2964 -0.5810
19332SOL     OW61526   9.431   0.696   8.820 -0.9977  0.4742  0.2532
19332SOL    HW161527   9.445   0.651   8.904  1.5817 -0.3711 -0.5409
19332SOL    HW261528   9.464   0.784   8.833 -1.1037  0.5106  0.2770
19333SOL     OW61529  10.332   3.099   8.731 -0.2591 -0.1059 -0.4241
19333SOL    HW161530  10.342   3.004   8.738  0.4970  0.0498  1.2478
19333SOL    HW261531  10.238   3.113   8.726 -0.4520 -0.9032  0.5704
19334SOL     OW61532   7.366   7.138  10.606 -0.3369  0.1660  0.3847
19334SOL    HW161533   7.282   7.105  10.573 -0.9405  0.4545  1.5701
19334SOL    HW261534   7.407   7.061  10.647 -0.2190  0.1306  0.2035
19335SOL     OW61535   2.854   7.405   2.565  0.1556 -0.3626  0.0084
19335SOL    HW161536   2.871   7.491   2.527 -2.3693  0.1680 -0.0577
19335SOL    HW261537   2.814   7.423   2.650 -0.5806 -1.4552 -0.0859
19336SOL     OW61538   4.878   8.247   4.584 -0.2024 -0.3157  0.3079
19336SOL    HW161539   4.838   8.325   4.623 -0.8308 -0.5421  0.1194
19336SOL    HW261540   4.943   8.282   4.523 -2.7927  0.2313 -2.4241
19337SOL     OW61541   1.330   7.121   1.932 -0.2251 -0.7154  0.3204
19337SOL    HW161542   1.313   7.202   1.980  0.6923  0.6880 -1.5811
19337SOL    HW261543   1.243   7.086   1.913 -0.6758  0.3675  0.3233
19338SOL     OW61544   9.680   1.438   7.525 -0.0686  0.6636 -0.2514
19338SOL    HW161545   9.704   1.423   7.616  0.2337  4.9928  0.6183
19338SOL    HW261546   9.593   1.400   7.516  0.5212 -1.2084  1.3303
19339SOL     OW61547   4.934   7.648   1.726 -0.0302 -0.1352 -0.2071
19339SOL    HW161548   4.880   7.677   1.653 -0.9397  0.5021  0.6809
19339SOL    HW261549   4.980   7.727   1.754 -1.9241  0.3989  1.7269
19340SOL     OW61550   8.392  10.441   0.105 -0.1477  0.1814 -0.3735
19340SOL    HW161551   8.482  10.424   0.134 -0.8568 -0.5278  1.5793
19340SOL    HW261552   8.338  10.416   0.179 -1.9140  1.7370 -1.0571
19341SOL     OW61553   5.635   1.416   9.723 -0.0094 -0.3851  0.1743
19341SOL    HW161554   5.612   1.326   9.745  0.9898 -0.3010  1.7380
19341SOL    HW261555   5.728   1.423   9.742 -0.3149  1.3039  1.3462
19342SOL     OW61556   0.219   8.062   9.986 -0.7770  0.0030 -0.2508
19342SOL    HW161557   0.269   7.986  10.017  0.6510  0.7384 -0.6645
19342SOL    HW261558   0.127   8.036   9.994 -0.3133 -1.9434 -0.8345
19343SOL     OW61559   3.760   9.697   3.944 -0.4492 -0.6550  0.3180
19343SOL    HW161560   3.761   9.715   3.849 -1.7029 -1.3154  0.1616
19343SOL    HW261561   3.781   9.781   3.984  1.9078 -0.7556 -0.5657
19344SOL     OW61562  10.331  10.726   8.773 -0.0253 -0.4508  0.3896
19344SOL    HW161563  10.398  10.792   8.759  0.2644 -0.6258  0.9192
19344SOL    HW261564  10.290  10.751   8.856  1.0215 -1.6978  1.3263
19345SOL     OW61565   9.864  10.376   3.404  0.2511 -0.4057 -0.3199
19345SOL    HW161566   9.845  10.394   3.496  0.2967 -0.3807 -0.3151
19345SOL    HW261567   9.949  10.417   3.389  0.7552 -1.3331 -0.0828
19346SOL     OW61568  10.653   1.493   6.801 -0.1580 -0.4261  0.4086
19346SOL    HW161569  10.651   1.484   6.705 -2.9429  0.1795  0.3366
19346SOL    HW261570  10.687   1.409   6.832  0.1279 -0.8866 -1.0707
19347SOL     OW61571   7.490   5.577   3.720  0.3149  0.2588  0.6631
19347SOL    HW161572   7.486   5.669   3.747 -2.3591  0.2043  0.7181
19347SOL    HW261573   7.448   5.530   3.791  0.2948 -0.8326 -0.0574
19348SOL     OW61574   4.161   9.518   4.134  0.2998  0.6621  0.5551
19348SOL    HW161575   4.156   9.452   4.203  1.0721  0.8888  0.8402
19348SOL    HW261576   4.212   9.589   4.172  1.5550  0.3930 -0.5474
19349SOL     OW61577   4.958   3.699   9.908  0.1769 -0.9092  0.2408
19349SOL    HW161578   5.007   3.746   9.841  0.0551 -0.2829  0.5887
19349SOL    HW261579   4.980   3.743   9.990 -1.4141 -0.2234  0.3408
19350SOL     OW61580   6.844   9.735   2.531 -0.0947  0.7187  0.1168
19350SOL    HW161581   6.785   9.742   2.606  0.3371 -0.6044  0.6031
19350SOL    HW261582   6.786   9.724   2.456 -0.5217 -1.9094  0.7419
19351SOL     OW61583   2.692   1.388   1.144  0.4577 -0.5293 -0.1264
19351SOL    HW161584   2.728   1.303   1.118  0.8168 -0.5201  0.3201
19351SOL    HW261585   2.757   1.423   1.205  0.2698  0.0304 -0.2484
19352SOL     OW61586   3.931  10.442  10.199 -0.2343 -0.2038  0.0874
19352SOL    HW161587   3.957  10.369  10.143 -1.1085 -0.7984  0.4359
19352SOL    HW261588   3.930  10.405  10.287 -0.5740  0.2651  0.2820
19353SOL     OW61589  10.721   9.746   5.497  0.5401  0.7010 -0.5440
19353SOL    HW161590  10.695   9.672   5.442 -0.5156  1.1974 -0.7352
19353SOL    HW261591  10.670   9.736   5.577  1.7097  0.2584  0.1870
19354SOL     OW61592   3.208   5.489   4.231 -0.1660  0.6903 -0.1857
19354SOL    HW161593   3.139   5.542   4.190 -1.3035  0.2324  1.0550
19354SOL    HW261594   3.189   5.494   4.325  1.3976  0.3834  0.1757
19355SOL     OW61595   0.170   9.091   4.314 -0.4016 -0.4441 -0.1722
19355SOL    HW161596   0.111   9.023   4.347  0.6942 -0.9837  0.7201
19355SOL    HW261597   0.258   9.056   4.328  0.1577 -0.1424 -2.5224
19356SOL     OW61598   7.431   1.530  10.757  0.0225  0.2928  0.5455
19356SOL    HW161599   7.498   1.493  10.814  0.2036 -0.4686 -0.1441
19356SOL    HW261600   7.476   1.603  10.713  0.2338  0.1461  0.5133
19357SOL     OW61601   8.845  10.479   9.235  0.2425 -0.2507 -0.8432
19357SOL    HW161602   8.801  10.441   9.158 -0.6911 -3.1583  0.9568
19357SOL    HW261603   8.773  10.511   9.290  0.4657 -2.3037  0.7596
19358SOL     OW61604  10.449   1.835   8.332  0.4174 -0.0447 -0.0615
19358SOL    HW161605  10.409   1.828   8.419 -1.4822  0.5618 -0.8207
19358SOL    HW261606  10.436   1.926   8.307 -0.0880 -0.4545 -1.4064
19359SOL     OW61607   0.841  10.806  10.872 -0.3541  0.3333  0.1901
19359SOL    HW161608   0.812  10.739  10.811 -0.5144  1.1547 -0.6569
19359SOL    HW261609   0.764  10.824  10.926 -0.3035 -0.1713  0.4370
19360SOL     OW61610   7.549   6.666   3.139  0.2065  0.8189 -0.3476
19360SOL    HW161611   7.512   6.592   3.091 -0.8802  1.0887  0.0403
19360SOL    HW261612   7.603   6.625   3.207 -2.5819  0.1827  1.6948
19361SOL     OW61613   0.746   8.605   4.175  0.3630 -0.3460  0.7648
19361SOL    HW161614   0.774   8.553   4.100 -1.4147 -1.2319  0.6484
19361SOL    HW261615   0.796   8.686   4.169 -0.4618  0.0721 -2.0161
19362SOL     OW61616   6.258  10.767   6.056  0.1206  0.1157 -0.2850
19362SOL    HW161617   6.205  10.820   6.117  2.4773  0.8008  1.2947
19362SOL    HW261618   6.243  10.807   5.970 -1.4537  0.6152  0.1860
19363SOL     OW61619   9.321   4.150   5.552 -0.4950 -0.7511  0.5514
19363SOL    HW161620   9.368   4.233   5.540 -3.6017  0.8793 -2.1005
19363SOL    HW261621   9.275   4.161   5.635 -1.0585  0.3515  0.1149
19364SOL     OW61622   9.800   6.984   2.972  0.4563 -0.2506 -0.5248
19364SOL    HW161623   9.785   7.075   2.997  0.6721 -0.1288 -0.8376
19364SOL    HW261624   9.713   6.948   2.957  0.2157 -0.6724  1.5909
19365SOL     OW61625   8.527   5.192   5.579  0.1776 -0.4505  0.3457
19365SOL    HW161626   8.593   5.259   5.598 -0.8703  0.8013 -0.2351
19365SOL    HW261627   8.542   5.124   5.644  0.1462  1.1629  2.1154
19366SOL     OW61628   5.574   7.564   4.389 -0.2965  0.7303 -0.5925
19366SOL    HW161629   5.570   7.485   4.443 -1.3997  1.4141  0.3695
19366SOL    HW261630   5.641   7.545   4.323 -1.0146 -1.2722 -0.8231
19367SOL     OW61631   9.645   2.867   1.040 -0.0233 -0.2822 -0.3054
19367SOL    HW161632   9.673   2.783   1.004  1.1998  0.8171 -2.0939
19367SOL    HW261633   9.690   2.873   1.125 -2.0990 -2.4477  1.0488
19368SOL     OW61634   8.756   8.777   0.548 -0.2858  0.2769  0.6093
19368SOL    HW161635   8.851   8.782   0.551 -0.3343  0.7124  1.9891
19368SOL    HW261636   8.735   8.688   0.574 -0.2559  0.0732 -0.0418
19369SOL     OW61637   3.588   6.824   5.679 -0.1706 -0.0330  0.0615
19369SOL    HW161638   3.504   6.870   5.678  0.1247  0.5126  0.0025
19369SOL    HW261639   3.629   6.853   5.761  1.9409  3.3640 -1.9598
19370SOL     OW61640  10.478   5.900   6.424 -0.2602 -0.2518  0.1147
19370SOL    HW161641  10.479   5.970   6.359  0.1145 -1.1484 -0.8690
19370SOL    HW261642  10.478   5.820   6.373  2.7562 -1.0510  1.1538
19371SOL     OW61643   6.351  11.046   3.755  0.2783  0.4169  0.0893
19371SOL    HW161644   6.391  11.132   3.763 -3.0574  2.3555 -1.7586
19371SOL    HW261645   6.259  11.064   3.733 -0.4956 -3.6204 -0.7938
19372SOL     OW61646  10.407  10.942  10.861  0.1974  0.1998 -0.3323
19372SOL    HW161647  10.494  10.905  10.878  0.6001  1.2599 -0.0213
19372SOL    HW261648  10.386  10.913  10.772  0.2213 -1.2866  0.1299
19373SOL     OW61649   1.090   6.036   8.363 -0.6061 -0.5715  0.1215
19373SOL    HW161650   1.089   5.967   8.297  0.5217 -0.0808 -0.4317
19373SOL    HW261651   1.096   5.988   8.446 -0.6673 -1.1571 -0.2001
19374SOL     OW61652   7.820   2.682   2.241  0.2428  0.3256  0.0032
19374SOL    HW161653   7.753   2.647   2.300  0.8388 -1.2750 -0.2110
19374SOL    HW261654   7.830   2.614   2.175  2.1020  0.5113  0.0618
19375SOL     OW61655   2.468   9.244   3.065  0.2318  0.5620 -0.1092
19375SOL    HW161656   2.436   9.227   2.976  0.6689  0.5324 -0.2598
19375SOL    HW261657   2.493   9.336   3.064 -0.5890  0.8006  0.2396
19376SOL     OW61658   9.146  10.491   7.301 -0.0956 -0.8639 -0.1410
19376SOL    HW161659   9.171  10.583   7.315 -0.5383 -0.7518 -0.0695
19376SOL    HW261660   9.057  10.485   7.335 -0.5655 -1.0014 -1.3190
19377SOL     OW61661   8.581   3.542   8.412 -0.5078 -0.3530 -0.3455
19377SOL    HW161662   8.617   3.454   8.401 -1.1528 -0.6762  0.0881
19377SOL    HW261663   8.597   3.585   8.328  1.2006 -0.3600 -0.0507
19378SOL     OW61664   0.802   0.435   5.145  0.0633 -0.1846  0.1696
19378SOL    HW161665   0.880   0.486   5.165  0.4660 -0.5707 -0.3798
19378SOL    HW261666   0.833   0.344   5.141 -0.2822 -0.2770 -0.6790
19379SOL     OW61667   3.993   5.080  10.193 -0.8444  0.1533 -0.2173
19379SOL    HW161668   4.021   4.990  10.206 -0.5692  0.3876  0.9378
19379SOL    HW261669   4.059   5.133  10.238 -1.2598  0.8982 -0.4664
19380SOL     OW61670   9.927  10.400   1.108  0.6064  0.5753  0.0122
19380SOL    HW161671   9.886  10.316   1.128  1.5053  0.2779  0.7303
19380SOL    HW261672   9.869  10.465   1.146  1.0366  0.1362  1.4994
19381SOL     OW61673   9.843  10.493   6.640 -0.4474  0.7905  0.3798
19381SOL    HW161674   9.806  10.558   6.580  0.6118 -1.2552 -2.7585
19381SOL    HW261675   9.883  10.428   6.582 -0.1235 -1.8834  3.3624
19382SOL     OW61676   8.502   9.737   8.321  0.3579 -0.3175 -0.3085
19382SOL    HW161677   8.496   9.680   8.398 -0.3615  0.1599  0.0010
19382SOL    HW261678   8.547   9.684   8.255 -0.1814 -1.2015  0.0155
19383SOL     OW61679  10.445   8.863   1.955  0.1330 -0.1041 -0.4248
19383SOL    HW161680  10.518   8.886   2.011  0.5100 -1.2595 -0.4193
19383SOL    HW261681  10.400   8.793   2.001 -1.9555  1.6253  0.3464
19384SOL     OW61682   7.558  10.091   3.191 -0.0034 -0.4690  0.4090
19384SOL    HW161683   7.536  10.137   3.109 -1.4481 -1.3308  0.2632
19384SOL    HW261684   7.635  10.039   3.169  0.9809  0.9904  0.2626
19385SOL     OW61685   8.433   3.928   2.725 -0.4530 -0.0708 -0.2943
19385SOL    HW161686   8.373   3.855   2.708  0.2153 -0.2211 -2.3171
19385SOL    HW261687   8.417   3.989   2.653  0.9792  0.4199 -0.2358
19386SOL     OW61688   6.306   5.160   4.295 -0.0915 -0.3277 -0.4725
19386SOL    HW161689   6.363   5.085   4.312 -0.6141 -1.3869 -2.9459
19386SOL    HW261690   6.312   5.173   4.200  0.5023  3.2402 -0.0771
19387SOL     OW61691   6.798   3.228   9.790 -0.1279 -0.3714  0.0897
19387SOL    HW161692   6.830   3.168   9.723  0.4761  1.3304 -1.2429
19387SOL    HW261693   6.705   3.209   9.798 -0.2977 -0.3617 -1.5485
19388SOL     OW61694   3.865   5.763   4.521  0.8266 -0.2009  0.2227
19388SOL    HW161695   3.861   5.687   4.464 -1.1096  0.2233 -0.2971
19388SOL    HW261696   3.850   5.838   4.463  1.4374  0.4638  0.8997
19389SOL     OW61697   9.870   9.913   1.288 -0.1056 -0.2747 -0.1235
19389SOL    HW161698   9.842   9.866   1.366  1.3003  0.2364  0.7182
19389SOL    HW261699   9.924   9.851   1.240 -0.8378 -0.5357 -0.6290
19390SOL     OW61700   4.034   1.937   2.236  0.1834 -0.4592 -0.1969
19390SOL    HW161701   3.973   1.967   2.168 -0.3898 -0.2658  0.3862
19390SOL    HW261702   4.002   1.850   2.259 -2.8179  1.2817  3.3281
19391SOL     OW61703   2.917   0.479   8.748  0.1000 -0.1517  0.6919
19391SOL    HW161704   2.954   0.394   8.769  2.4485  0.3066 -1.1243
19391SOL    HW261705   2.907   0.523   8.832  2.9476 -0.7074  1.4378
19392SOL     OW61706   4.805   1.509   5.309  0.2122  0.2664  0.2053
19392SOL    HW161707   4.716   1.491   5.338 -0.0237  0.4489 -0.4053
19392SOL    HW261708   4.814   1.459   5.228  0.7306  0.0982  0.3598
19393SOL     OW61709   2.941   7.934   7.767  0.5108  0.7829 -0.3177
19393SOL    HW161710   2.957   7.868   7.699 -0.2090  0.4807 -0.2013
19393SOL    HW261711   3.024   7.941   7.814  0.5297 -0.1974 -0.1947
19394SOL     OW61712   6.184   2.730   6.349  0.4332 -0.1276 -0.1098
19394SOL    HW161713   6.167   2.747   6.442  1.7103  1.0405 -0.0462
19394SOL    HW261714   6.189   2.635   6.343 -3.0014 -0.4505  0.3346
19395SOL     OW61715   2.214  10.646   2.733 -0.3818  0.1863 -0.0180
19395SOL    HW161716   2.218  10.716   2.798 -0.9936  0.1706  0.0384
19395SOL    HW261717   2.126  10.650   2.697 -0.1074  0.0759 -0.7262
19396SOL     OW61718   3.789   6.814  10.086  0.2266  0.0743  0.3232
19396SOL    HW161719   3.833   6.865  10.018  3.3904 -2.9412 -0.1759
19396SOL    HW261720   3.834   6.837  10.167  0.5915 -0.6848  0.3509
19397SOL     OW61721   2.494   1.054   8.543  0.1483  0.3344  0.4251
19397SOL    HW161722   2.526   0.997   8.613 -1.7961  0.0132  1.1049
19397SOL    HW261723   2.468   1.135   8.587 -1.3461  0.0310  0.1731
19398SOL     OW61724   2.141   4.302   3.171  0.5112 -0.3887  0.1038
19398SOL    HW161725   2.207   4.371   3.178 -0.5134  0.4691  2.1236
19398SOL    HW261726   2.075   4.339   3.112  0.0016  0.3752  1.1183
19399SOL     OW61727   5.837   1.569   0.103  0.0813  0.9625 -0.4148
19399SOL    HW161728   5.815   1.491   0.153  0.4513  0.8811 -0.3743
19399SOL    HW261729   5.931   1.581   0.118 -0.1640  1.9992  0.4004
19400SOL     OW61730  10.250   7.806  10.919 -0.7590 -0.9181  0.3104
19400SOL    HW161731  10.243   7.851  11.003  1.1941 -0.2845  0.1709
19400SOL    HW261732  10.318   7.740  10.931 -0.0739 -0.4783 -0.8922
19401SOL     OW61733   9.093   4.095   6.725 -0.5290 -0.2360 -0.2557
19401SOL    HW161734   9.068   4.022   6.781  1.3859 -2.1712 -1.7372
19401SOL    HW261735   9.011   4.121   6.682 -0.9597 -3.2799 -1.5775
19402SOL     OW61736   2.413   5.616   0.730  0.5132 -0.8151  0.3738
19402SOL    HW161737   2.374   5.546   0.782  0.5632 -1.0212  0.1357
19402SOL    HW261738   2.390   5.595   0.640 -2.8329  1.5154  0.4891
19403SOL     OW61739   1.106   9.777   5.581  0.4971  0.3276  0.3548
19403SOL    HW161740   1.036   9.838   5.607  0.0729  1.1243 -2.3510
19403SOL    HW261741   1.069   9.728   5.508  2.3557 -0.0869 -0.3609
19404SOL     OW61742   8.699   8.254   1.242 -0.2133 -0.0960  0.3879
19404SOL    HW161743   8.669   8.293   1.160  0.2964  0.3628  0.4135
19404SOL    HW261744   8.669   8.314   1.310 -0.3135 -0.2803  0.5070
19405SOL     OW61745   9.633   6.010   7.961 -0.3328 -0.1861 -0.5258
19405SOL    HW161746   9.583   5.935   7.993 -0.3320  0.6472  1.5671
19405SOL    HW261747   9.585   6.040   7.884 -1.6152 -0.9393 -0.0538
19406SOL     OW61748   9.877   0.202   9.949 -0.1575 -0.4078  0.3189
19406SOL    HW161749   9.924   0.123   9.973  1.1137 -0.1463 -1.1683
19406SOL    HW261750   9.922   0.272   9.996 -1.0593 -0.4723  1.3471
19407SOL     OW61751   8.601   1.421   2.938  0.3504 -0.2370  0.0594
19407SOL    HW161752   8.583   1.337   2.979  0.1301 -0.8544 -1.2579
19407SOL    HW261753   8.520   1.471   2.947  1.3291  0.9821  3.3709
19408SOL     OW61754   6.280   5.786   6.730 -0.3125 -0.1697 -0.5246
19408SOL    HW161755   6.230   5.848   6.783 -1.8876 -2.2211  0.5078
19408SOL    HW261756   6.224   5.709   6.723  2.2932 -2.2705 -0.1134
19409SOL     OW61757   6.728   3.833   5.207 -0.0929  0.2396 -0.5658
19409SOL    HW161758   6.669   3.825   5.282  1.5356  0.1626  0.7467
19409SOL    HW261759   6.723   3.747   5.164 -0.8475  0.2085 -0.4417
19410SOL     OW61760   8.945   4.587   2.812 -0.5622  0.0965  0.3283
19410SOL    HW161761   8.918   4.582   2.904 -1.7801  1.0134  0.0513
19410SOL    HW261762   8.880   4.645   2.771 -1.3954 -2.0157 -1.5935
19411SOL     OW61763  10.931   8.896   9.796 -0.3798 -0.4121 -0.2951
19411SOL    HW161764  10.841   8.899   9.831  0.3710 -1.8684  2.0066
19411SOL    HW261765  10.984   8.940   9.862  0.7069 -0.1231 -1.3267
19412SOL     OW61766   1.565   8.807  10.781  0.2608 -0.3530  0.2885
19412SOL    HW161767   1.557   8.897  10.813 -1.2351 -0.1194 -0.6670
19412SOL    HW261768   1.655   8.801  10.750  0.3526  0.8489  0.2749
19413SOL     OW61769   4.396   8.111   5.938  0.1127 -0.0581 -0.2506
19413SOL    HW161770   4.464   8.167   5.975 -0.4598 -0.5083  1.5721
19413SOL    HW261771   4.316   8.163   5.945  0.0720  0.0723 -1.4484
19414SOL     OW61772   3.285   0.597   9.953 -0.4056  0.7559 -0.2080
19414SOL    HW161773   3.293   0.568   9.863 -1.7947  1.1587 -0.4823
19414SOL    HW261774   3.352   0.548  10.001 -1.5984 -1.6762 -0.9217
19415SOL     OW61775   0.324   5.211   7.824 -0.2583  0.1239  0.0336
19415SOL    HW161776   0.271   5.255   7.759 -0.4262 -0.8315 -0.4944
19415SOL    HW261777   0.378   5.150   7.774  0.9144  0.6513  0.6164
19416SOL     OW61778   6.681   5.393   8.825  0.3342  0.9523  0.0750
19416SOL    HW161779   6.690   5.486   8.847  1.9607  0.7600  0.3938
19416SOL    HW261780   6.749   5.377   8.760  0.9408 -0.2828  0.9708
19417SOL     OW61781  10.327   4.913   0.174 -0.1012 -0.2154 -0.3978
19417SOL    HW161782  10.318   4.976   0.246  1.0846  1.3897 -1.6151
19417SOL    HW261783  10.246   4.862   0.178 -2.3972  3.0886 -0.9643
19418SOL     OW61784   0.790   2.210   8.224 -0.1503  0.4367 -0.0515
19418SOL    HW161785   0.757   2.213   8.134  0.7871 -1.9415 -0.5532
19418SOL    HW261786   0.863   2.272   8.225 -0.0308  0.3186 -1.0047
19419SOL     OW61787   1.083  10.555   0.634 -0.3557  0.7346  1.2111
19419SOL    HW161788   0.988  10.548   0.644 -0.4318  2.6530  2.2942
19419SOL    HW261789   1.097  10.641   0.596  0.9517  0.4117  0.9128
19420SOL     OW61790   6.513   8.750   5.917  0.2937 -0.6378 -0.0751
19420SOL    HW161791   6.546   8.728   5.830 -1.2466  0.1052 -0.8858
19420SOL    HW261792   6.431   8.797   5.901 -0.2047 -0.7738  1.7894
19421SOL     OW61793   4.980   3.712   8.737  0.6906  0.0508 -0.1527
19421SOL    HW161794   4.925   3.745   8.666 -2.4313 -1.4992  1.3785
19421SOL    HW261795   4.977   3.617   8.728 -0.5996 -0.2390  2.5554
19422SOL     OW61796   0.968   6.744   4.151 -0.0006  0.1002 -0.2129
19422SOL    HW161797   0.882   6.702   4.145 -0.2372  0.6623 -1.0245
19422SOL    HW261798   0.951   6.827   4.194  0.0915  0.3258 -0.6099
19423SOL     OW61799   5.175  10.842   4.721 -0.3310  0.2751 -0.0136
19423SOL    HW161800   5.103  10.834   4.658 -0.9177  0.5958  0.6117
19423SOL    HW261801   5.193  10.936   4.725 -0.8362  0.3455  0.8839
19424SOL     OW61802   0.666   9.001   9.168 -0.3284  0.0937 -0.4530
19424SOL    HW161803   0.646   8.932   9.104  0.7265  1.1770 -2.0156
19424SOL    HW261804   0.632   8.967   9.251  2.5210 -3.6150 -0.5338
19425SOL     OW61805   5.940   1.741  10.056  0.3528 -0.7691  0.2805
19425SOL    HW161806   5.923   1.734   9.963 -1.9675 -0.5657  0.6346
19425SOL    HW261807   5.985   1.660  10.079  0.8173 -0.8754 -0.9700
19426SOL     OW61808   9.484   6.367   1.515  0.1066 -0.5613  0.1806
19426SOL    HW161809   9.544   6.380   1.442  0.6065  0.7925  0.7970
19426SOL    HW261810   9.429   6.294   1.488 -0.4706  0.6026 -2.0376
19427SOL     OW61811  11.052   3.223   5.435  0.0200 -0.3177 -0.3189
19427SOL    HW161812  11.106   3.217   5.514  0.0874 -0.2958 -0.3629
19427SOL    HW261813  11.111   3.259   5.369 -0.6975  2.0833  0.2581
19428SOL     OW61814   6.428   2.048   6.539  0.0441  0.4220 -0.4026
19428SOL    HW161815   6.409   1.962   6.504  0.5273 -0.2222  0.8490
19428SOL    HW261816   6.489   2.032   6.611  0.6577  1.8664 -0.5611
19429SOL     OW61817  10.023   4.582   0.431  0.1074  0.0643  0.1558
19429SOL    HW161818  10.082   4.616   0.499 -0.2547 -0.3761  0.6985
19429SOL    HW261819   9.951   4.542   0.479 -0.2463 -0.0990 -0.4954
19430SOL     OW61820  10.119   1.676   9.953 -0.3505  0.1428 -0.4620
19430SOL    HW161821  10.102   1.681  10.047 -1.2493  2.6992 -0.6792
19430SOL    HW261822  10.046   1.722   9.912 -1.0584 -2.6099 -2.6367
19431SOL     OW61823   2.114   0.532   3.688 -0.3172  0.2040  0.2542
19431SOL    HW161824   2.115   0.476   3.611 -0.9946  0.4385  0.0610
19431SOL    HW261825   2.203   0.529   3.722 -0.2641 -0.7160  0.0562
19432SOL     OW61826   1.773   8.380   6.226 -0.8124 -0.2706 -0.1905
19432SOL    HW161827   1.748   8.288   6.221 -0.3645 -0.5158  1.5303
19432SOL    HW261828   1.698   8.423   6.269 -1.9758  0.6251 -2.8697
19433SOL     OW61829   9.071   9.930   5.607 -0.2923 -0.7273  0.4115
19433SOL    HW161830   9.047  10.022   5.617 -0.8009 -0.7633 -0.4201
19433SOL    HW261831   9.160   9.932   5.573 -0.4239 -0.5390  0.0805
19434SOL     OW61832   4.658   6.304   8.378 -0.8262  0.4925  0.2746
19434SOL    HW161833   4.606   6.376   8.342 -0.2381 -0.6980 -3.3974
19434SOL    HW261834   4.749   6.329   8.363 -0.5295 -0.0150  1.1314
19435SOL     OW61835   9.582   7.827   2.023 -0.4473  0.1444  0.0853
19435SOL    HW161836   9.535   7.744   2.019  1.2430 -0.8257 -1.5100
19435SOL    HW261837   9.531   7.887   1.969 -0.5457 -0.5175 -0.5713
19436SOL     OW61838   7.683   0.781   2.238  0.5696 -0.4004  0.1567
19436SOL    HW161839   7.776   0.768   2.221  0.6477  0.6266 -0.2826
19436SOL    HW261840   7.671   0.876   2.232 -0.0334 -0.2456  2.6277
19437SOL     OW61841   1.581   9.510   4.968  0.0251  0.0206 -0.2175
19437SOL    HW161842   1.516   9.439   4.972  0.0653 -0.0372 -0.5150
19437SOL    HW261843   1.566   9.561   5.047 -0.5122  0.1182 -0.3773
19438SOL     OW61844  10.356   1.154   2.217 -0.5351 -0.0589  0.2442
19438SOL    HW161845  10.332   1.215   2.147  0.1102  1.6848  1.4848
19438SOL    HW261846  10.300   1.077   2.202  0.4719 -0.3172 -2.9041
19439SOL     OW61847   9.365   0.672   6.079 -0.2746  0.0255 -0.2701
19439SOL    HW161848   9.280   0.712   6.061  0.2274  1.1658 -0.1710
19439SOL    HW261849   9.378   0.609   6.007 -1.0953  0.0016 -0.3987
19440SOL     OW61850   3.303   9.165   3.575 -0.3422 -0.2130 -0.0832
19440SOL    HW161851   3.397   9.184   3.568 -0.2526 -0.2226  0.9259
19440SOL    HW261852   3.299   9.082   3.622 -0.8742  1.1148  2.4297
19441SOL     OW61853   5.111   5.409   1.060  0.5615 -0.2393 -0.2269
19441SOL    HW161854   5.022   5.375   1.065  0.0344  1.1152  3.7985
19441SOL    HW261855   5.115   5.455   0.977 -2.3077 -0.8149 -0.7889
19442SOL     OW61856   4.940   0.403   1.976  0.1415  0.0599  0.2981
19442SOL    HW161857   4.873   0.470   1.964  0.2169 -0.2935 -3.3133
19442SOL    HW261858   5.023   0.449   1.957  0.4207 -0.5135  0.1139
19443SOL     OW61859   9.165   6.932   6.299  0.6059  0.3830  0.3206
19443SOL    HW161860   9.131   6.979   6.223 -0.3651  1.6692  1.5160
19443SOL    HW261861   9.244   6.979   6.323 -1.0619  2.3475  2.3201
19444SOL     OW61862   1.760   5.419   2.754  0.5265  0.0927 -0.4884
19444SOL    HW161863   1.797   5.421   2.666  1.8154 -0.0245  0.0219
19444SOL    HW261864   1.794   5.337   2.792 -0.7386 -0.3026 -0.1774
19445SOL     OW61865   4.647   6.158   2.198 -0.4881 -0.3678  0.4670
19445SOL    HW161866   4.667   6.078   2.151  1.7422 -0.5165  1.5316
19445SOL    HW261867   4.732   6.201   2.210 -1.5806  2.0331  0.1590
19446SOL     OW61868   7.087   9.186   8.203  0.3153 -0.3584  0.2010
19446SOL    HW161869   7.027   9.260   8.188 -0.2574 -0.5266  1.4942
19446SOL    HW261870   7.059   9.150   8.288  1.9312 -0.7617  0.5875
19447SOL     OW61871   7.651   2.168   7.119 -0.0139  0.5872 -0.4409
19447SOL    HW161872   7.627   2.226   7.048 -1.0486  0.5012 -0.1785
19447SOL    HW261873   7.580   2.103   7.123  1.0569 -0.6421 -0.6686
19448SOL     OW61874   7.704   7.204   4.572  0.5306  0.0670 -0.2041
19448SOL    HW161875   7.625   7.162   4.537  0.6815 -0.4777  0.0820
19448SOL    HW261876   7.732   7.144   4.642  1.1387  0.3126 -0.2404
19449SOL     OW61877   6.315   7.476   8.633 -0.1070  0.2627  0.7883
19449SOL    HW161878   6.296   7.383   8.620 -2.4092  0.8903 -1.0222
19449SOL    HW261879   6.260   7.502   8.707  1.4902 -0.0222  2.1349
19450SOL     OW61880   3.140   4.207   6.184  0.1487  0.0579 -0.1274
19450SOL    HW161881   3.200   4.157   6.129  1.7385  2.5636 -0.8290
19450SOL    HW261882   3.079   4.248   6.123  1.4142  2.1892 -0.0783
19451SOL     OW61883   0.935   7.821   5.511  0.3159 -0.1411  0.7750
19451SOL    HW161884   0.913   7.746   5.566  2.7813  0.5760  2.9386
19451SOL    HW261885   1.024   7.803   5.481 -0.5790 -0.0373 -2.3604
19452SOL     OW61886   2.017   9.952   4.928  0.0373 -0.1679 -0.0147
19452SOL    HW161887   1.930   9.923   4.955  0.6774 -1.7064  0.5307
19452SOL    HW261888   2.041   9.893   4.857  0.7753 -0.0106  0.0964
19453SOL     OW61889   9.211   6.972   6.602  0.1711  0.2139 -0.4687
19453SOL    HW161890   9.283   6.939   6.549 -0.7127 -0.9002 -1.0101
19453SOL    HW261891   9.224   7.067   6.605  0.9868  0.1456 -1.5418
19454SOL     OW61892  10.756   7.682   4.529 -0.3216  0.0033  0.4161
19454SOL    HW161893  10.824   7.741   4.498 -0.3514 -0.6421 -0.9522
19454SOL    HW261894  10.765   7.682   4.625  2.2548 -0.8204  0.2389
19455SOL     OW61895   4.363   4.086   3.361  0.7674 -0.5457 -0.7201
19455SOL    HW161896   4.423   4.123   3.297  0.1778  0.6036 -0.6427
19455SOL    HW261897   4.277   4.090   3.319 -0.0840  2.7645  1.0441
19456SOL     OW61898   5.414  10.059   1.119 -0.2188  0.4855 -0.0948
19456SOL    HW161899   5.435   9.990   1.182  0.2669 -0.0026 -0.7780
19456SOL    HW261900   5.339  10.026   1.071 -0.0856  0.5029 -0.3148
19457SOL     OW61901  10.441   9.572   4.011  0.3493  0.4856  0.3736
19457SOL    HW161902  10.390   9.493   3.993 -0.1816  0.5925  1.3726
19457SOL    HW261903  10.529   9.540   4.029 -0.1508 -0.0365  2.1078
19458SOL     OW61904   7.307   8.131  10.819 -0.2930 -0.6488  0.2746
19458SOL    HW161905   7.223   8.176  10.825 -0.4091 -0.8937  0.4891
19458SOL    HW261906   7.302   8.081  10.737  0.8092  1.7008 -1.3512
19459SOL     OW61907   0.163   1.765   4.020  0.1163 -0.0278  0.5833
19459SOL    HW161908   0.255   1.778   3.997 -0.2489 -0.9796 -1.6248
19459SOL    HW261909   0.160   1.679   4.061  0.4903  0.9396  2.8130
19460SOL     OW61910   2.386   4.696   8.066  0.0705 -0.2976  0.4749
19460SOL    HW161911   2.329   4.730   7.996 -0.3053 -0.3529  0.7487
19460SOL    HW261912   2.475   4.705   8.031 -0.1272 -0.5895 -0.1294
19461SOL     OW61913   7.060   5.968   3.210 -0.2702 -0.3252  0.2437
19461SOL    HW161914   7.080   5.934   3.123 -1.7584 -0.0361 -0.2430
19461SOL    HW261915   6.968   5.946   3.224  0.0376 -0.6950  1.9114
19462SOL     OW61916   6.598   5.838   8.308  0.4709 -0.2607 -0.0473
19462SOL    HW161917   6.673   5.817   8.253  0.5906 -1.2126  0.4596
19462SOL    HW261918   6.522   5.820   8.252  0.6018 -0.2332 -0.2363
19463SOL     OW61919  11.000   6.040   1.483 -0.0898  0.9564 -0.4673
19463SOL    HW161920  10.908   6.025   1.462 -0.9056  1.3817  2.3261
19463SOL    HW261921  11.043   5.957   1.464 -1.3280  0.3178 -0.5983
19464SOL     OW61922   6.925   1.858  10.230  0.0430 -0.2736 -0.4466
19464SOL    HW161923   6.935   1.772  10.188 -0.8186 -0.6734  0.1415
19464SOL    HW261924   6.925   1.920  10.157 -6.0507 -1.2136 -1.8027
19465SOL     OW61925   3.994  10.455   0.589 -0.1405  0.4214  0.5009
19465SOL    HW161926   3.968  10.364   0.600 -1.1151  0.5873 -0.2951
19465SOL    HW261927   4.003  10.489   0.678  0.1500 -0.4200  0.8005
19466SOL     OW61928   7.215   6.359   8.003  0.1368 -0.2904  0.3589
19466SOL    HW161929   7.166   6.420   8.058  0.1877  0.0475  0.0404
19466SOL    HW261930   7.162   6.352   7.923  2.1130  2.6484 -1.4149
19467SOL     OW61931  10.970   5.107   2.557 -0.1260 -0.5871 -0.3821
19467SOL    HW161932  10.929   5.107   2.644 -1.7415  2.3220 -1.0226
19467SOL    HW261933  11.059   5.137   2.572 -0.5469  0.3809  0.2340
19468SOL     OW61934   2.673   7.893   5.543  0.3827  0.2533  0.1931
19468SOL    HW161935   2.711   7.805   5.547  2.7520  1.2272  0.5073
19468SOL    HW261936   2.712   7.940   5.616 -1.9973  1.2001  0.9461
19469SOL     OW61937   7.193   0.699  10.667 -0.2609 -0.0009 -0.0422
19469SOL    HW161938   7.129   0.770  10.677 -0.1396  0.6701 -3.1165
19469SOL    HW261939   7.276   0.738  10.693 -0.5823  0.1634  0.7641
19470SOL     OW61940   2.701   7.115  10.044 -0.4813 -0.1614 -0.1316
19470SOL    HW161941   2.751   7.197  10.040 -2.9121  1.4723  0.8518
19470SOL    HW261942   2.741   7.067  10.117 -1.6044  2.0926  2.1277
19471SOL     OW61943   6.404   6.115   4.593  0.3320 -0.2806  0.6501
19471SOL    HW161944   6.437   6.093   4.680 -0.1073 -0.9529  0.6590
19471SOL    HW261945   6.353   6.038   4.567  0.0351  0.1234  0.0134
19472SOL     OW61946   5.367   6.109   5.703 -1.1454 -0.0998 -0.6445
19472SOL    HW161947   5.409   6.023   5.714 -0.8630  0.1505  0.3379
19472SOL    HW261948   5.386   6.155   5.784  0.8269  1.8224 -2.0787
19473SOL     OW61949   6.382   8.710   3.332 -0.1803  0.1059 -0.1674
19473SOL    HW161950   6.445   8.721   3.261  0.5302 -0.6949  0.3107
19473SOL    HW261951   6.407   8.775   3.398 -0.6259  0.6148 -0.4934
19474SOL     OW61952   8.845   6.180   4.494 -0.2424  0.1813  0.1829
19474SOL    HW161953   8.892   6.223   4.566  0.4215 -1.7030  0.9250
19474SOL    HW261954   8.914   6.153   4.434 -0.7168  0.7743 -0.6462
19475SOL     OW61955   5.176   3.842  10.329 -0.8685  0.4480  0.2303
19475SOL    HW161956   5.226   3.896  10.390 -1.2302 -0.1906  1.1048
19475SOL    HW261957   5.242   3.800  10.274 -0.5617  1.4014 -0.1516
19476SOL     OW61958   4.486   9.863   1.708  0.0245 -0.1636  0.3086
19476SOL    HW161959   4.498   9.865   1.803 -0.3737 -2.4322  0.4509
19476SOL    HW261960   4.520   9.948   1.678  1.3517  0.0861  2.3179
19477SOL     OW61961   7.834   5.485   4.297  0.0222  0.0638  0.1737
19477SOL    HW161962   7.917   5.481   4.248  0.4008  0.1386  0.7909
19477SOL    HW261963   7.845   5.560   4.356 -0.5248  0.1276  0.1922
19478SOL     OW61964   8.862   0.920  10.582 -0.1342 -0.0593  0.5365
19478SOL    HW161965   8.944   0.967  10.570  1.1667 -2.2153  0.3139
19478SOL    HW261966   8.888   0.827  10.585 -2.5692 -0.8223  0.4131
19479SOL     OW61967   1.485   8.046   3.048 -0.0101 -0.2918 -0.4335
19479SOL    HW161968   1.451   8.093   3.124  0.1574  1.3363 -1.3236
19479SOL    HW261969   1.576   8.025   3.072 -0.7011 -2.1536  0.8205
19480SOL     OW61970   6.814   2.241   7.479  0.1828  0.1724  0.5776
19480SOL    HW161971   6.775   2.321   7.443  0.4207 -0.5520 -1.3932
19480SOL    HW261972   6.792   2.173   7.416 -1.0272 -1.6265  2.7837
19481SOL     OW61973   0.635   1.225   8.345 -0.4131  0.5008  0.2315
19481SOL    HW161974   0.696   1.210   8.273  0.5970  0.5853  1.0599
19481SOL    HW261975   0.549   1.232   8.302  0.1700  0.5649 -0.9597
19482SOL     OW61976  10.861   4.189   8.639  0.2586  0.3224 -0.4092
19482SOL    HW161977  10.855   4.103   8.681 -1.1330  0.6114  0.0109
19482SOL    HW261978  10.945   4.224   8.669  0.1667 -0.2854  0.6001
19483SOL     OW61979   8.148   4.618   6.436 -0.1158  0.0532  0.3584
19483SOL    HW161980   8.080   4.554   6.417 -0.0397 -0.4909  1.7690
19483SOL    HW261981   8.104   4.703   6.426 -0.5377 -0.2446 -0.3690
19484SOL     OW61982   8.027   9.894   8.861  0.0494  0.4301 -0.3837
19484SOL    HW161983   8.023   9.901   8.957 -1.3024 -2.1703 -0.1663
19484SOL    HW261984   8.098   9.831   8.845 -1.7355 -1.5936 -0.8198
19485SOL     OW61985   1.500   9.915   8.246  0.4982  0.2405 -0.1436
19485SOL    HW161986   1.591   9.898   8.222  0.3323 -2.0918  0.6286
19485SOL    HW261987   1.472   9.835   8.290 -0.9813  2.0743  2.5050
19486SOL     OW61988   3.917   4.747   7.775 -0.9382  0.0547  0.0028
19486SOL    HW161989   3.904   4.830   7.821 -0.0650  0.5456 -0.6162
19486SOL    HW261990   3.865   4.755   7.695  0.7439  0.8539 -1.0568
19487SOL     OW61991   5.930   6.711   7.944  0.7680  0.1357 -0.6048
19487SOL    HW161992   5.914   6.631   7.893 -0.0987  0.1604 -0.3898
19487SOL    HW261993   5.987   6.764   7.889 -1.5488  0.9438 -2.3863
19488SOL     OW61994  10.377   8.229   8.679  0.3057  0.2181  0.4851
19488SOL    HW161995  10.460   8.221   8.631  0.3600  2.7657  0.0118
19488SOL    HW261996  10.337   8.142   8.672  2.0915 -0.5648 -0.8511
19489SOL     OW61997   5.008   5.257   6.719  0.0183 -0.2865 -0.1550
19489SOL    HW161998   5.040   5.168   6.733 -0.0832 -0.6082 -1.8200
19489SOL    HW261999   5.074   5.312   6.762  0.6027 -1.1144  0.0484
19490SOL     OW62000   9.631  10.320   2.586 -0.1199  0.2934  0.2313
19490SOL    HW162001   9.635  10.407   2.626  0.5924 -0.7229  2.5195
19490SOL    HW262002   9.692  10.324   2.513 -0.3739  1.7954  0.0727
19491SOL     OW62003   1.439   0.605   5.089  0.3740 -0.5311  0.1721
19491SOL    HW162004   1.396   0.609   5.174 -1.3047 -1.7195 -0.5834
19491SOL    HW262005   1.527   0.572   5.109 -0.1558 -1.2793  1.4135
19492SOL     OW62006   7.286   2.090   5.515  1.0274 -0.0449 -0.6322
19492SOL    HW162007   7.302   2.153   5.444  0.2963 -0.0311 -0.7885
19492SOL    HW262008   7.200   2.053   5.496  2.0734 -2.2395 -1.4023
19493SOL     OW62009   1.948   9.342   6.275  0.2011 -0.1649  0.3868
19493SOL    HW162010   2.005   9.345   6.198 -1.3379  1.9986 -0.7708
19493SOL    HW262011   1.997   9.387   6.343  0.7571 -0.2526  0.0480
19494SOL     OW62012   7.928   8.095   9.746 -0.1124 -0.5726  0.3327
19494SOL    HW162013   8.015   8.060   9.728  1.1552  1.6644  1.6767
19494SOL    HW262014   7.944   8.180   9.787 -2.9046 -0.8627  2.3323
19495SOL     OW62015   2.987  11.026   7.230  0.2670  0.1196  0.5075
19495SOL    HW162016   2.930  11.039   7.155  1.3291  0.6660 -0.2403
19495SOL    HW262017   2.934  10.977   7.293 -1.1143  0.8978 -0.0074
19496SOL     OW62018   7.081   0.467  11.101 -0.7176 -0.0884  0.1645
19496SOL    HW162019   7.079   0.414  11.021  1.4725  1.4985 -1.0420
19496SOL    HW262020   7.032   0.546  11.079  0.1683  0.4966  0.2691
19497SOL     OW62021   3.321   4.967   8.456  0.5471 -0.2594 -0.5944
19497SOL    HW162022   3.306   5.059   8.435 -0.4316  0.2584  1.9756
19497SOL    HW262023   3.415   4.955   8.445  0.9132  1.4326  0.2619
19498SOL     OW62024   4.057   4.728   8.871 -0.5299 -0.2281  0.1481
19498SOL    HW162025   4.077   4.715   8.964 -1.8231  1.9017  0.7959
19498SOL    HW262026   4.123   4.789   8.841  0.0876 -1.1684 -0.4610
19499SOL     OW62027   6.365   2.393   9.455 -0.1549 -0.2530 -0.3392
19499SOL    HW162028   6.375   2.302   9.483 -0.2427  0.5373  2.5823
19499SOL    HW262029   6.275   2.416   9.480 -0.4296  0.4179 -1.8300
19500SOL     OW62030   8.509   6.224   2.266  0.5509 -0.2966  0.4443
19500SOL    HW162031   8.587   6.278   2.248  1.6416 -1.7833  0.4941
19500SOL    HW262032   8.528   6.141   2.223 -1.2701 -0.5375  0.0314
19501SOL     OW62033   0.981   7.157   4.473 -0.2484 -0.1806 -0.3779
19501SOL    HW162034   0.899   7.197   4.445  0.7097  1.6951 -0.6679
19501SOL    HW262035   1.037   7.231   4.495  1.3682 -1.4137 -0.1987
19502SOL     OW62036   1.696   1.758   3.904 -0.1189 -0.1168 -0.5109
19502SOL    HW162037   1.679   1.832   3.845  1.0051 -1.2678 -2.3816
19502SOL    HW262038   1.771   1.713   3.865 -0.0531 -1.6075  1.2067
19503SOL     OW62039   8.126   0.001   1.968 -0.4062 -0.9153 -0.3379
19503SOL    HW162040   8.219  -0.019   1.972 -0.6336 -2.0936 -0.7716
19503SOL    HW262041   8.113   0.068   2.036  0.5050 -1.7225  0.6644
19504SOL     OW62042   3.530   0.763   1.879  0.2135  0.0647  0.8102
19504SOL    HW162043   3.506   0.677   1.846 -2.6653  0.7827  0.7368
19504SOL    HW262044   3.608   0.748   1.932  1.3091 -2.1093 -1.2477
19505SOL     OW62045   0.201   1.083   1.830 -0.2039  0.3750 -0.4260
19505SOL    HW162046   0.156   1.095   1.746  0.3192 -0.4397 -0.8284
19505SOL    HW262047   0.132   1.098   1.896 -1.1412 -1.0736 -1.0332
19506SOL     OW62048  10.705  10.828   7.509 -0.9638 -0.1688  0.0206
19506SOL    HW162049  10.665  10.915   7.517 -2.3312 -0.8256  0.7213
19506SOL    HW262050  10.769  10.824   7.580 -0.8093  0.3077 -0.0907
19507SOL     OW62051   6.186   0.740   9.947 -0.1547 -0.6004  0.2367
19507SOL    HW162052   6.181   0.663  10.004 -0.5245 -0.1573  0.8122
19507SOL    HW262053   6.273   0.775   9.962 -1.2094  1.2366  2.8544
19508SOL     OW62054   5.024   5.007   8.306  0.3925 -0.4332  0.4332
19508SOL    HW162055   5.051   4.939   8.244 -0.3382 -0.1738 -0.1883
19508SOL    HW262056   4.969   5.066   8.254  0.4384  0.2485  1.1347
19509SOL     OW62057   6.115   3.598   6.046 -0.0225 -0.0725 -0.3079
19509SOL    HW162058   6.046   3.613   5.981 -0.3291  3.0133  0.5988
19509SOL    HW262059   6.178   3.668   6.031  0.6270 -0.1488  1.8012
19510SOL     OW62060   5.271   9.084   1.279 -0.0878  0.2218 -0.7875
19510SOL    HW162061   5.284   8.995   1.313 -0.5081  0.2000 -0.6754
19510SOL    HW262062   5.180   9.104   1.299  0.6400  1.6584  1.4758
19511SOL     OW62063   7.805   6.052   9.029  0.0683  0.1367  0.5287
19511SOL    HW162064   7.852   6.039   9.112  0.3052  3.7124  1.1251
19511SOL    HW262065   7.865   6.106   8.977 -1.2239  0.2944 -0.8455
19512SOL     OW62066   5.889   9.704  10.561  0.1076  0.1913  0.6658
19512SOL    HW162067   5.860   9.771  10.499 -0.5908 -0.1126  0.6575
19512SOL    HW262068   5.946   9.751  10.622  1.2195  0.3982 -0.4824
19513SOL     OW62069   0.579   3.950   0.780 -0.1046  0.3847 -0.6967
19513SOL    HW162070   0.545   4.002   0.708 -0.9911  1.2801  0.3328
19513SOL    HW262071   0.618   4.013   0.840 -0.2802 -0.2200  0.0827
19514SOL     OW62072   2.973   1.705   8.324  0.3322 -0.8050 -0.3531
19514SOL    HW162073   2.917   1.717   8.248 -0.6343 -1.2965  0.2677
19514SOL    HW262074   3.060   1.735   8.295  0.4282 -2.7008 -2.2232
19515SOL     OW62075   0.425   7.924   9.140 -0.9817 -0.5814  0.7451
19515SOL    HW162076   0.458   7.974   9.064 -1.8327 -0.6290  0.3327
19515SOL    HW262077   0.483   7.849   9.146  0.0893  0.2495  1.1354
19516SOL     OW62078   1.622   3.323   0.922  0.3079 -0.0511 -0.0585
19516SOL    HW162079   1.549   3.272   0.959 -1.1303  2.2187  0.4860
19516SOL    HW262080   1.692   3.260   0.908 -0.6078 -1.7910  2.5470
19517SOL     OW62081   3.278   2.245   1.638  0.2997  0.4725  0.1521
19517SOL    HW162082   3.215   2.192   1.589  0.0954  1.3745 -0.5882
19517SOL    HW262083   3.292   2.322   1.584  1.4515  0.6623  0.6764
19518SOL     OW62084   4.487  10.489   0.242  0.5255  0.1997 -0.0557
19518SOL    HW162085   4.459  10.541   0.167  1.1234 -0.2599 -0.6141
19518SOL    HW262086   4.414  10.430   0.259  0.9064 -0.6080 -1.1393
19519SOL     OW62087   3.483   3.367   0.355  0.6714  0.3028  0.0430
19519SOL    HW162088   3.394   3.361   0.391  1.0095 -1.4438  0.6520
19519SOL    HW262089   3.495   3.461   0.339 -0.4361  0.8730  2.1145
19520SOL     OW62090   2.037  10.402   1.850  0.8183 -0.3920  0.0332
19520SOL    HW162091   1.947  10.385   1.822  0.0697 -0.7945  2.4431
19520SOL    HW262092   2.089  10.334   1.807 -0.1925 -0.8468 -0.4927
19521SOL     OW62093   3.555   4.543   4.237 -0.0523 -0.4179 -0.5889
19521SOL    HW162094   3.483   4.584   4.284  0.8815  0.4566  0.1218
19521SOL    HW262095   3.564   4.593   4.156 -0.0222 -0.3019 -0.5138
19522SOL     OW62096   8.941   1.139   9.817 -0.1150  0.2871 -0.2970
19522SOL    HW162097   8.898   1.056   9.837 -0.5181  0.8840  1.4347
19522SOL    HW262098   9.032   1.126   9.842 -0.2746  0.5027  0.4122
19523SOL     OW62099   6.641   2.903   7.814  0.0686  0.2326 -0.1026
19523SOL    HW162100   6.575   2.969   7.798  0.5673  0.6067 -0.6703
19523SOL    HW262101   6.621   2.833   7.752 -0.1985  0.0432  0.1961
19524SOL     OW62102   0.171   8.034   4.454 -0.2976  0.2776  0.3899
19524SOL    HW162103   0.208   7.952   4.422 -0.1877 -0.1512  1.5650
19524SOL    HW262104   0.243   8.076   4.501 -0.7490  0.3538  1.0324
19525SOL     OW62105   7.980   4.137   9.496  0.1471  0.0427  0.4624
19525SOL    HW162106   8.074   4.150   9.508  0.3558 -2.3531  2.1850
19525SOL    HW262107   7.974   4.077   9.422 -0.1027  0.7001 -0.0629
19526SOL     OW62108   5.377   9.054  11.125  0.1194 -0.2893  0.2999
19526SOL    HW162109   5.351   8.968  11.092 -0.2959 -0.1168  0.1726
19526SOL    HW262110   5.400   9.104  11.047 -0.4263 -0.0259  0.3045
19527SOL     OW62111   9.099   0.363   2.044  0.6349  0.6403 -0.4518
19527SOL    HW162112   9.155   0.405   2.108 -0.3975  0.7254  0.4210
19527SOL    HW262113   9.084   0.430   1.977  0.4980  1.0442 -0.0135
19528SOL     OW62114   4.282   2.441   7.129  0.4094 -0.3422  0.2212
19528SOL    HW162115   4.262   2.357   7.088  0.9134 -0.6278  0.5525
19528SOL    HW262116   4.298   2.500   7.055  0.8310 -0.7316 -0.0091
19529SOL     OW62117   1.093   3.109   2.364 -0.3196  0.5744 -0.3894
19529SOL    HW162118   1.122   3.020   2.380  2.0920  1.4334  0.5461
19529SOL    HW262119   1.103   3.122   2.270  1.6261  0.5294 -0.2259
19530SOL     OW62120   4.146   6.092   4.516 -0.9890 -0.6342  0.0027
19530SOL    HW162121   4.223   6.146   4.533 -1.8253 -0.0419  2.2195
19530SOL    HW262122   4.072   6.144   4.548 -2.4070 -1.0109 -2.4361
19531SOL     OW62123   4.885   2.024   9.895  0.2292 -0.2376  0.1294
19531SOL    HW162124   4.945   1.988   9.960  1.4776  0.5303 -0.5523
19531SOL    HW262125   4.863   2.111   9.930 -3.6002 -1.8543  2.3036
19532SOL     OW62126   1.576   8.836   2.530  0.1434  0.3907  0.1803
19532SOL    HW162127   1.578   8.775   2.604 -0.5465 -2.7659 -2.1551
19532SOL    HW262128   1.668   8.855   2.513  0.3453  0.4924  1.3033
19533SOL     OW62129  10.738   9.853   3.243 -0.5306  0.1655 -0.0210
19533SOL    HW162130  10.789   9.924   3.204  1.0528 -1.3777 -0.9178
19533SOL    HW262131  10.668   9.897   3.292  0.5722  2.3174 -0.2740
19534SOL     OW62132   3.236   0.517   1.796  0.3557  0.2478 -0.3418
19534SOL    HW162133   3.226   0.467   1.715 -0.9280  0.0487 -0.0822
19534SOL    HW262134   3.290   0.462   1.852  2.3978  0.9533 -1.4895
19535SOL     OW62135   5.826   5.090   8.716 -0.0134 -0.0974  0.8188
19535SOL    HW162136   5.831   5.174   8.669  2.0380 -0.1120  0.9192
19535SOL    HW262137   5.811   5.025   8.647  1.9158 -0.0007  0.2685
19536SOL     OW62138   0.032   7.846  10.347  0.4373  0.5924  0.0880
19536SOL    HW162139   0.016   7.775  10.285  2.0389 -0.0489  0.3432
19536SOL    HW262140  -0.055   7.875  10.374 -0.2580 -0.6181 -0.7651
19537SOL     OW62141   5.769   9.407   6.479 -0.2442  0.6994 -0.6920
19537SOL    HW162142   5.760   9.413   6.384  0.3012 -0.4396 -0.8322
19537SOL    HW262143   5.688   9.365   6.508  0.0847 -0.0396 -0.8037
19538SOL     OW62144   2.258   0.754   5.473  0.1128  0.1567 -0.2330
19538SOL    HW162145   2.297   0.670   5.449 -0.9756 -0.9533  1.5567
19538SOL    HW262146   2.211   0.782   5.395 -1.0054 -1.8587 -0.3646
19539SOL     OW62147   5.801   3.815   7.338  0.1111  0.2553  0.4186
19539SOL    HW162148   5.814   3.907   7.362 -0.1446  0.4618 -0.2178
19539SOL    HW262149   5.886   3.774   7.354  0.3215  0.6749  0.3849
19540SOL     OW62150   5.423   1.336   5.473  0.2175 -0.0501 -0.0175
19540SOL    HW162151   5.419   1.263   5.536 -0.9852  1.4990  1.8055
19540SOL    HW262152   5.464   1.407   5.521  0.1404  0.9078 -1.3128
19541SOL     OW62153  10.996   6.611   0.315 -0.1208 -0.4959  0.7604
19541SOL    HW162154  10.955   6.558   0.383  0.8372  0.5105  2.1946
19541SOL    HW262155  11.081   6.637   0.353  0.2270  0.4948 -0.6205
19542SOL     OW62156   0.387   7.310   8.521 -0.1933  0.2743  0.2062
19542SOL    HW162157   0.333   7.389   8.515 -2.2131 -1.0894 -0.7028
19542SOL    HW262158   0.438   7.310   8.440 -0.4861  0.4459  0.0198
19543SOL     OW62159  10.102   3.829   0.410  0.0833 -0.2407 -0.0320
19543SOL    HW162160  10.066   3.859   0.493  2.2304  0.6267  0.6398
19543SOL    HW262161  10.160   3.899   0.382  1.1763 -1.5173 -1.0961
19544SOL     OW62162   7.851   1.709   5.603 -0.3954 -0.4471  0.7881
19544SOL    HW162163   7.772   1.750   5.567  0.0637 -0.6766 -0.5442
19544SOL    HW262164   7.923   1.746   5.552  0.0517 -2.7749 -0.4025
19545SOL     OW62165   4.679   6.968   7.350 -0.1430 -0.3841  0.1480
19545SOL    HW162166   4.765   6.927   7.362  0.2021  0.2117 -0.2934
19545SOL    HW262167   4.684   7.049   7.400 -0.5672 -0.5036  0.3901
19546SOL     OW62168   0.913   8.173   6.523 -0.1264  0.2164 -0.6891
19546SOL    HW162169   0.841   8.111   6.539  0.0615  0.0759 -0.3840
19546SOL    HW262170   0.979   8.121   6.477 -0.0071  0.2165 -0.5151
19547SOL     OW62171   4.368   9.717   3.188 -0.0263 -0.0637  0.2711
19547SOL    HW162172   4.403   9.744   3.273 -0.1176  1.7589 -0.2196
19547SOL    HW262173   4.273   9.719   3.198 -0.0762  1.5997 -0.2400
19548SOL     OW62174   8.492   0.424   1.266  0.5813 -0.3500  0.1230
19548SOL    HW162175   8.579   0.404   1.232  1.4886  1.5726  1.1513
19548SOL    HW262176   8.439   0.443   1.188  1.3912 -0.4283 -0.4502
19549SOL     OW62177   1.348   6.421   4.301  0.1635  0.0203  0.0057
19549SOL    HW162178   1.268   6.473   4.298 -0.5871 -1.1000 -0.3461
19549SOL    HW262179   1.394   6.450   4.379 -1.0792 -0.0039  0.7647
19550SOL     OW62180  10.250   7.770   9.807  0.2334  0.0108  0.1195
19550SOL    HW162181  10.214   7.751   9.720  2.4378  0.0370 -0.8600
19550SOL    HW262182  10.244   7.686   9.853 -0.5451 -0.1195 -0.1843
19551SOL     OW62183   3.855  10.097   2.765  0.2704 -0.1665 -0.3626
19551SOL    HW162184   3.793  10.024   2.763  1.5103 -1.3721  1.7438
19551SOL    HW262185   3.930  10.064   2.815  1.3814  2.1792 -0.3292
19552SOL     OW62186   8.040  10.498   1.499  0.2813 -0.1241 -0.3720
19552SOL    HW162187   8.051  10.409   1.534  0.3595  0.9476  2.6075
19552SOL    HW262188   8.064  10.555   1.572 -0.5017  2.3708 -1.9584
19553SOL     OW62189  10.187  10.375   3.153 -0.5787  0.0998 -0.2245
19553SOL    HW162190  10.093  10.362   3.140 -0.9975  1.4234  1.1574
19553SOL    HW262191  10.220  10.399   3.066 -1.0324 -2.6657 -1.2587
19554SOL     OW62192   2.625  10.721   8.412  0.8307  0.4701 -0.6448
19554SOL    HW162193   2.680  10.743   8.336  0.6846 -0.8315 -1.1491
19554SOL    HW262194   2.682  10.672   8.470  0.9380  1.4655  0.1046
19555SOL     OW62195   4.972   0.034  10.792 -0.4211  0.5626  0.2182
19555SOL    HW162196   4.916   0.009  10.866  0.5692 -2.9959 -0.0529
19555SOL    HW262197   5.050   0.071  10.833  0.5399 -2.2597  1.1909
19556SOL     OW62198   8.071   6.321   7.105 -0.1313 -0.2049 -0.5398
19556SOL    HW162199   8.158   6.331   7.066 -1.3984  0.3355 -3.5818
19556SOL    HW262200   8.040   6.236   7.074 -1.1428  0.1508 -0.5555
19557SOL     OW62201   3.629   1.732   7.250 -0.3066 -0.0558 -0.1806
19557SOL    HW162202   3.663   1.812   7.289  1.6514 -1.4333  1.1441
19557SOL    HW262203   3.672   1.661   7.299 -3.1777 -1.9668 -0.1376
19558SOL     OW62204   8.941   6.864   8.314 -0.0432  0.4467 -0.2600
19558SOL    HW162205   8.917   6.828   8.399  0.9673 -3.0932 -1.3004
19558SOL    HW262206   8.916   6.957   8.319 -1.1968  0.0924  3.3656
19559SOL     OW62207   3.603  10.521   5.123 -0.5091  0.3583  0.5139
19559SOL    HW162208   3.519  10.559   5.095 -1.1606 -0.8640  0.7271
19559SOL    HW262209   3.579  10.436   5.159  0.9809 -0.6251 -0.6978
19560SOL     OW62210   9.374   1.892  10.462 -0.5006  0.1726  0.2440
19560SOL    HW162211   9.391   1.801  10.485 -1.6313  0.2335  1.4398
19560SOL    HW262212   9.319   1.888  10.384 -3.2442 -0.3326  2.0666
19561SOL     OW62213   3.812   0.408   8.776  0.3970 -0.5783  0.7740
19561SOL    HW162214   3.778   0.318   8.777  0.2899 -0.5543  0.0527
19561SOL    HW262215   3.873   0.409   8.701 -0.6911  0.3261 -0.1339
19562SOL     OW62216   0.178   3.966   0.569 -0.3337 -0.1331 -0.1468
19562SOL    HW162217   0.177   4.056   0.536  1.9842  0.0173  0.0425
19562SOL    HW262218   0.196   3.912   0.492 -2.6226 -0.6026 -0.4375
19563SOL     OW62219   4.376   0.641   0.170  0.0256 -0.0013 -0.0085
19563SOL    HW162220   4.327   0.723   0.177  0.6967  0.5936 -1.7594
19563SOL    HW262221   4.332   0.594   0.098 -0.3002 -1.1582  0.9210
19564SOL     OW62222   6.535   4.584   1.705 -0.3420  0.2027 -0.1944
19564SOL    HW162223   6.493   4.532   1.774 -1.7723 -0.5430 -1.5476
19564SOL    HW262224   6.598   4.639   1.751  0.1172 -1.6159  1.4774
19565SOL     OW62225   8.002   9.495   8.637  1.1267  0.2161  0.7662
19565SOL    HW162226   7.973   9.581   8.664  0.5776  0.5200 -0.6741
19565SOL    HW262227   8.073   9.473   8.697  0.6209  1.2409  1.7574
19566SOL     OW62228   1.633   2.219   4.409  0.5650  0.4018 -0.0728
19566SOL    HW162229   1.675   2.151   4.462  1.0484 -1.0901 -2.2184
19566SOL    HW262230   1.682   2.299   4.429  1.6303 -0.3982  0.6603
19567SOL     OW62231   2.108   3.192   0.137 -0.5722  0.1780  0.3087
19567SOL    HW162232   2.203   3.194   0.136 -0.5643  2.0979 -0.9954
19567SOL    HW262233   2.085   3.107   0.100  0.6301 -0.2193  0.4513
19568SOL     OW62234   1.353   6.799   8.593  0.5330 -0.9743 -0.0618
19568SOL    HW162235   1.293   6.815   8.520  0.2485 -0.1559  0.3289
19568SOL    HW262236   1.416   6.871   8.588  0.1981 -0.5964  0.7911
19569SOL     OW62237   0.760   1.924   8.625 -0.1759  0.2153  0.0920
19569SOL    HW162238   0.741   1.854   8.563 -2.5989  1.4617 -0.6903
19569SOL    HW262239   0.684   1.926   8.684  0.0580  1.8187  0.4018
19570SOL     OW62240   5.980   2.594   0.952 -0.2220 -0.2320  0.5065
19570SOL    HW162241   5.984   2.661   1.020  1.3752  0.9304 -0.6559
19570SOL    HW262242   5.887   2.585   0.932 -0.5625  0.7623  1.5376
19571SOL     OW62243   1.340   2.586   8.443  0.3010 -0.1484  0.0338
19571SOL    HW162244   1.305   2.514   8.391 -1.0559 -0.6343  1.5294
19571SOL    HW262245   1.299   2.575   8.529  0.9413  1.7638  0.6250
19572SOL     OW62246   0.350   3.683   4.354 -0.0899  0.4791  0.0301
19572SOL    HW162247   0.441   3.670   4.378 -0.6616 -1.6625  1.3366
19572SOL    HW262248   0.319   3.596   4.329 -1.6209  1.2771 -0.9939
19573SOL     OW62249   3.657   2.436   2.310  0.1934  0.5148 -0.2457
19573SOL    HW162250   3.739   2.388   2.325 -0.5535 -0.2659  1.7055
19573SOL    HW262251   3.634   2.417   2.219  1.8286  0.2301 -0.6359
19574SOL     OW62252   9.058   8.687   0.616 -0.0095 -0.1187 -0.0301
19574SOL    HW162253   9.104   8.611   0.650 -1.6649 -0.3414  1.9110
19574SOL    HW262254   9.001   8.715   0.688  0.1128  2.6092 -0.8697
19575SOL     OW62255   2.347   5.825   7.560  0.6259 -0.5749 -0.8847
19575SOL    HW162256   2.417   5.829   7.626 -0.7257  1.6622  0.5739
19575SOL    HW262257   2.375   5.886   7.492  0.2502  0.1212 -0.4279
19576SOL     OW62258   7.020   7.497   4.268 -0.4706 -0.0541  0.2239
19576SOL    HW162259   7.057   7.451   4.192 -1.6811 -1.8002  0.6364
19576SOL    HW262260   7.091   7.496   4.332 -0.5285 -1.6498  0.3167
19577SOL     OW62261   8.275   5.103   6.106  0.4694 -0.0114  0.2918
19577SOL    HW162262   8.309   5.185   6.070  0.8668  0.3646  1.4705
19577SOL    HW262263   8.181   5.106   6.085  0.0082  1.8747  2.2581
19578SOL     OW62264   0.127   6.899   0.994  0.4799  0.2718  0.0629
19578SOL    HW162265   0.158   6.942   1.074 -0.3838  0.8699  0.1019
19578SOL    HW262266   0.185   6.824   0.983 -0.9671 -1.4148  2.7365
19579SOL     OW62267  10.117   8.989   2.184  0.5820 -0.3682  0.1120
19579SOL    HW162268  10.031   8.961   2.215  0.0786  1.1296  0.1532
19579SOL    HW262269  10.176   8.967   2.256 -0.2192  1.0198  1.2502
19580SOL     OW62270   0.242   8.989   2.616  0.3791 -0.1016 -0.0644
19580SOL    HW162271   0.296   9.014   2.542  2.6846 -1.5755  1.0072
19580SOL    HW262272   0.240   9.067   2.672 -1.4405  1.0443 -1.5731
19581SOL     OW62273   5.484   7.818   9.026 -0.2583 -0.4497 -0.0370
19581SOL    HW162274   5.556   7.755   9.031  0.0695 -0.0788 -0.0785
19581SOL    HW262275   5.425   7.781   8.960  0.2036 -0.4402 -0.4653
19582SOL     OW62276   7.434   6.878   0.701  0.4272  0.2680  0.2078
19582SOL    HW162277   7.527   6.897   0.693  0.0942  2.2772  0.5813
19582SOL    HW262278   7.392   6.964   0.710 -1.3282 -0.6310  1.3331
19583SOL     OW62279  10.772   6.647   3.751 -0.2216 -0.2271  0.6540
19583SOL    HW162280  10.789   6.673   3.661  3.1131 -1.5673  0.7493
19583SOL    HW262281  10.791   6.726   3.802 -0.6184  0.0993  0.3020
19584SOL     OW62282  10.883   2.960   4.756  0.3209 -0.2575 -0.0400
19584SOL    HW162283  10.963   2.908   4.762  0.6018  0.1339 -0.3372
19584SOL    HW262284  10.844   2.955   4.843  0.9009 -0.0852  0.2375
19585SOL     OW62285   0.921   0.545   2.099 -0.3521 -0.0440 -0.1098
19585SOL    HW162286   0.849   0.489   2.127 -0.2177 -0.9156 -1.4725
19585SOL    HW262287   1.000   0.494   2.118 -0.0040  1.0977  1.8298
19586SOL     OW62288   9.877   6.691   5.732  0.0970  0.5230 -0.8772
19586SOL    HW162289   9.786   6.669   5.748  0.3793  0.8515  1.5393
19586SOL    HW262290   9.915   6.614   5.690 -1.4319  0.6847 -2.6557
19587SOL     OW62291   2.536  10.039   3.211 -0.8274 -0.3524 -0.1684
19587SOL    HW162292   2.462   9.979   3.212 -0.4986 -0.7782 -0.7979
19587SOL    HW262293   2.609   9.985   3.180  0.1801 -0.4542  2.1354
19588SOL     OW62294   1.894   9.235   4.354 -0.1931  0.2770 -0.1405
19588SOL    HW162295   1.901   9.317   4.305  0.4158 -0.0949 -0.6910
19588SOL    HW262296   1.967   9.182   4.322  1.0858  0.5350  2.1839
19589SOL     OW62297   8.291   7.411   5.010 -0.0499  0.3481 -0.2544
19589SOL    HW162298   8.376   7.383   5.044  0.0479 -1.3859 -1.7427
19589SOL    HW262299   8.288   7.505   5.027  2.8876  0.7988 -1.5356
19590SOL     OW62300   3.323   8.651   4.159 -0.4796 -0.4126 -0.2539
19590SOL    HW162301   3.304   8.577   4.218  0.1392  0.5116  1.1742
19590SOL    HW262302   3.284   8.727   4.203 -2.1428 -0.0110 -2.2827
19591SOL     OW62303   0.409   1.301   9.915  0.1100  0.3557  0.1066
19591SOL    HW162304   0.361   1.297   9.832  0.4646 -0.4561 -0.0703
19591SOL    HW262305   0.367   1.372   9.964 -0.5184  0.4174 -0.5104
19592SOL     OW62306   3.020   6.841   4.901 -0.0379 -0.6765  0.1789
19592SOL    HW162307   2.958   6.901   4.943  1.9585  0.8671  1.0906
19592SOL    HW262308   3.047   6.886   4.821  0.4535 -0.9809  0.1671
19593SOL     OW62309   1.741   9.619   9.713  0.1002 -0.0030 -0.0143
19593SOL    HW162310   1.740   9.710   9.743 -0.8925 -0.4035  1.2663
19593SOL    HW262311   1.725   9.568   9.792 -1.5521 -1.1778 -1.0297
19594SOL     OW62312   2.767   9.660   6.887  0.4839 -0.0687 -0.2177
19594SOL    HW162313   2.689   9.665   6.941  1.0825  0.2716  0.6390
19594SOL    HW262314   2.792   9.567   6.888  0.6808 -0.0144  0.3811
19595SOL     OW62315   8.759   5.098   6.008 -0.0040  0.4491 -0.0482
19595SOL    HW162316   8.787   5.178   6.053 -1.2770 -0.7358  3.1864
19595SOL    HW262317   8.823   5.086   5.938  0.4617  4.0271 -0.4509
19596SOL     OW62318   6.714   4.638   7.328  0.2630 -0.4884 -0.6746
19596SOL    HW162319   6.701   4.545   7.309 -1.1789 -0.5406  0.3421
19596SOL    HW262320   6.629   4.667   7.361  0.7225  1.1761 -0.8873
19597SOL     OW62321   8.972   7.806   8.205 -0.2582 -0.4166 -0.2563
19597SOL    HW162322   9.019   7.860   8.141  0.7965  0.2474  1.0187
19597SOL    HW262323   8.965   7.720   8.163 -0.8647  0.3571 -1.8187
19598SOL     OW62324   4.855  10.125   9.129  0.8614  0.1605 -0.5342
19598SOL    HW162325   4.853  10.101   9.036  0.8760 -1.2812 -0.1871
19598SOL    HW262326   4.924  10.192   9.135  0.2261  0.9655 -1.6925
19599SOL     OW62327   8.948   9.005   4.285 -0.0730  0.0020 -0.2441
19599SOL    HW162328   9.019   8.949   4.254  1.7752  0.5457  2.6555
19599SOL    HW262329   8.890   8.946   4.334 -0.3915 -0.0376 -0.6603
19600SOL     OW62330   8.172   2.648   9.985 -0.1289  0.0106 -0.1953
19600SOL    HW162331   8.252   2.697  10.006 -0.3095  0.1441  0.1878
19600SOL    HW262332   8.139   2.690   9.905  0.2452 -0.1232 -0.4249
19601SOL     OW62333   9.015   0.041  10.663 -0.3330  0.3173  0.0556
19601SOL    HW162334   9.013   0.033  10.568 -1.9188  1.1995 -0.0271
19601SOL    HW262335   9.032  -0.048  10.695 -3.6263 -0.8382 -1.0151
19602SOL     OW62336   5.279   7.853   2.755  0.1154  0.4051  0.0051
19602SOL    HW162337   5.297   7.799   2.678  2.5635  0.2764  0.5678
19602SOL    HW262338   5.184   7.861   2.758 -0.1312 -1.1374 -1.9570
19603SOL     OW62339   4.009   9.190   8.974  0.9529  0.2946 -0.3539
19603SOL    HW162340   4.015   9.135   8.896  2.0649 -2.2485  1.3852
19603SOL    HW262341   3.920   9.178   9.006  0.8086  0.5385 -0.6599
19604SOL     OW62342   0.073   6.640   0.494  0.0799 -0.0005  0.1760
19604SOL    HW162343   0.099   6.710   0.553  2.7223  0.2670 -1.1109
19604SOL    HW262344   0.109   6.561   0.534  0.1925 -0.0827 -0.0803
19605SOL     OW62345   7.529   9.040   7.838  0.1640  0.0651  0.0490
19605SOL    HW162346   7.531   9.045   7.933 -0.8103  0.4061  0.0610
19605SOL    HW262347   7.619   9.060   7.811  0.4175  0.0880  0.8852
19606SOL     OW62348   5.262   3.579   2.784  0.1782 -0.3245 -1.0232
19606SOL    HW162349   5.235   3.669   2.769 -1.0959 -0.8429 -2.0305
19606SOL    HW262350   5.349   3.573   2.743  1.6439  1.1710  1.6252
19607SOL     OW62351   9.384   6.078   3.377 -0.4482  0.1774  0.3493
19607SOL    HW162352   9.416   6.165   3.398 -0.7790  0.3717  0.0502
19607SOL    HW262353   9.461   6.033   3.340 -0.4378  0.5468 -0.0947
19608SOL     OW62354   2.930   3.647   0.877  0.0833 -0.6765  0.0912
19608SOL    HW162355   2.878   3.722   0.903 -4.3652 -2.8133 -1.6295
19608SOL    HW262356   2.947   3.600   0.959 -0.4341  0.2515  0.7481
19609SOL     OW62357   7.759   6.791   4.175 -0.5264 -0.2074 -0.4637
19609SOL    HW162358   7.750   6.721   4.241 -0.1085  1.7789  1.8331
19609SOL    HW262359   7.853   6.805   4.167 -0.6053  0.0607 -0.9760
19610SOL     OW62360   5.816   4.058   2.414  0.1288  0.9140 -0.2303
19610SOL    HW162361   5.774   4.021   2.336  0.9941 -1.9552  0.5705
19610SOL    HW262362   5.905   4.077   2.386  0.2522  0.5070 -0.1123
19611SOL     OW62363   2.546   8.800   3.632  0.0209  0.2407  0.6006
19611SOL    HW162364   2.512   8.779   3.545 -0.0977 -1.9427  1.1189
19611SOL    HW262365   2.608   8.872   3.617 -0.4652  0.3341 -1.1779
19612SOL     OW62366  10.810   2.834   7.877  0.0070  0.5088 -0.1970
19612SOL    HW162367  10.885   2.883   7.911  0.0338  0.4906 -0.2293
19612SOL    HW262368  10.831   2.819   7.785  1.2070 -1.8098  0.3882
19613SOL     OW62369   4.448   8.571   7.013  0.1430  0.6146  0.0323
19613SOL    HW162370   4.381   8.503   7.019 -0.7868  1.4906 -0.2846
19613SOL    HW262371   4.418   8.629   6.943  1.5981  0.6299 -0.6230
19614SOL     OW62372   3.216   9.484   5.067  0.4037 -0.5370 -0.4080
19614SOL    HW162373   3.252   9.529   4.991  1.5011  0.7534  0.8174
19614SOL    HW262374   3.185   9.554   5.124 -1.5304 -1.5188 -0.1505
19615SOL     OW62375   9.584   2.153   9.429  0.1934  0.1332  0.0764
19615SOL    HW162376   9.607   2.076   9.481  1.8687 -0.5709 -1.5840
19615SOL    HW262377   9.501   2.130   9.388  0.1476 -0.3580  0.4296
19616SOL     OW62378   0.236   0.910   6.760  0.0924  0.5954  0.1736
19616SOL    HW162379   0.223   0.980   6.824 -0.2817  0.8347 -0.1662
19616SOL    HW262380   0.225   0.829   6.810 -2.0279  0.7666  0.0558
19617SOL     OW62381   6.693   9.918   8.077  0.1056  0.0859  0.0936
19617SOL    HW162382   6.767   9.900   8.019  0.6682 -0.3875  0.9435
19617SOL    HW262383   6.701   9.854   8.147  1.0835  2.3529  2.2053
19618SOL     OW62384   0.865   8.905   5.893 -0.0070 -0.1955 -0.3346
19618SOL    HW162385   0.909   8.879   5.973  0.9422 -0.4194 -0.9161
19618SOL    HW262386   0.880   8.832   5.832 -0.7081 -0.0295 -0.7241
19619SOL     OW62387  10.295   2.180   4.362 -0.5275 -0.6561 -0.1768
19619SOL    HW162388  10.255   2.267   4.370  1.3971  0.3848 -1.0557
19619SOL    HW262389  10.346   2.171   4.442  1.6664  0.4086 -1.3631
19620SOL     OW62390   5.489  11.118   3.071 -0.0588  0.2683 -0.6360
19620SOL    HW162391   5.514  11.102   2.981  2.9041  1.7513 -0.1896
19620SOL    HW262392   5.513  11.038   3.118 -1.9270 -0.6437 -1.1145
19621SOL     OW62393   6.740  10.983   3.395  0.3412  0.5617  0.0071
19621SOL    HW162394   6.795  11.028   3.331  0.3847  0.5049  0.0056
19621SOL    HW262395   6.652  11.017   3.377  0.4021  0.7920  0.1312
19622SOL     OW62396   7.763   5.712   9.432  0.7338  0.2719 -0.6206
19622SOL    HW162397   7.694   5.666   9.385 -0.8065  1.5102  0.3296
19622SOL    HW262398   7.844   5.686   9.388 -0.3327 -1.1638 -1.8113
19623SOL     OW62399   0.882   9.783   8.818 -0.1749  0.4655  0.7001
19623SOL    HW162400   0.846   9.714   8.873 -0.0606 -2.9386 -3.0357
19623SOL    HW262401   0.977   9.778   8.829 -0.2338  1.1430  1.5833
19624SOL     OW62402   5.083   3.368   2.788 -0.1908 -0.0305  0.1397
19624SOL    HW162403   5.140   3.444   2.799  0.0492  0.1192 -1.6896
19624SOL    HW262404   5.015   3.379   2.854  1.0978  0.5405  1.4130
19625SOL     OW62405   5.952   8.128   3.018 -0.1262  0.1822  0.1845
19625SOL    HW162406   6.014   8.057   3.003  0.1444  0.7149 -1.3330
19625SOL    HW262407   5.885   8.090   3.075  0.3411 -1.1024 -0.1038
19626SOL     OW62408   0.276  10.380   8.379  1.1710 -0.0240  0.2903
19626SOL    HW162409   0.303  10.297   8.339  0.4205  0.0407 -0.3830
19626SOL    HW262410   0.323  10.447   8.330  0.0649  0.0700 -0.6863
19627SOL     OW62411   2.308   8.889   7.915  0.6374 -0.8760  0.1542
19627SOL    HW162412   2.365   8.965   7.906 -1.4001  0.6742 -0.7185
19627SOL    HW262413   2.350   8.821   7.863  2.4645 -0.3434  0.8555
19628SOL     OW62414   5.726   9.800   8.639 -0.3229 -0.3757  0.3780
19628SOL    HW162415   5.750   9.891   8.655  2.2180 -0.8237 -0.5172
19628SOL    HW262416   5.698   9.767   8.724  1.3855  0.5133  1.3346
19629SOL     OW62417   7.222   9.571   5.203 -0.1168  0.7978  0.5679
19629SOL    HW162418   7.228   9.624   5.124 -1.1423  0.9510  0.5838
19629SOL    HW262419   7.191   9.631   5.270  1.2035  0.7869  1.2250
19630SOL     OW62420   0.760   7.119   8.941  0.3359  0.0027  0.9845
19630SOL    HW162421   0.744   7.144   8.850  2.7954 -0.1451  0.4349
19630SOL    HW262422   0.681   7.071   8.967 -0.4852  0.1683 -1.0085
19631SOL     OW62423   4.905   0.577   8.646 -0.4630  0.2224 -0.0298
19631SOL    HW162424   4.941   0.491   8.627  0.5234  0.1233  2.0564
19631SOL    HW262425   4.814   0.560   8.672  0.5140 -0.6373  3.2548
19632SOL     OW62426   2.813   3.422   1.720  0.1179  0.1941  0.2105
19632SOL    HW162427   2.811   3.442   1.626 -1.0539  0.4679  0.2808
19632SOL    HW262428   2.880   3.354   1.728 -1.7869 -2.0414 -1.3078
19633SOL     OW62429   9.350   0.967   2.342 -0.2062  0.6064  0.0265
19633SOL    HW162430   9.306   1.051   2.329 -2.1198 -0.5029 -1.0738
19633SOL    HW262431   9.279   0.903   2.351  1.1747 -0.8033  1.8618
19634SOL     OW62432   3.461   3.411   6.723  0.3224  0.2034 -0.2418
19634SOL    HW162433   3.547   3.388   6.759  0.3401  0.6401 -0.0082
19634SOL    HW262434   3.479   3.482   6.662 -0.1231  1.7232  1.3183
19635SOL     OW62435   2.679   0.916   0.302  0.1504 -0.0490  0.2624
19635SOL    HW162436   2.765   0.880   0.279 -0.1343 -0.5620 -0.0064
19635SOL    HW262437   2.681   1.005   0.268 -0.1778 -0.7070 -1.6008
19636SOL     OW62438   2.589   3.958   1.954 -0.1416  0.6175  0.0249
19636SOL    HW162439   2.638   3.922   1.880 -0.0746 -0.0234  0.3768
19636SOL    HW262440   2.642   3.936   2.031 -0.6915  0.4280  0.3515
19637SOL     OW62441   9.725   5.510   3.732 -0.2067 -0.6014 -0.0557
19637SOL    HW162442   9.756   5.518   3.641 -0.5556 -1.0563 -0.2187
19637SOL    HW262443   9.755   5.424   3.760 -0.1523 -0.4836  0.2448
19638SOL     OW62444   1.190   3.567  10.121 -0.3161 -0.3416  0.1897
19638SOL    HW162445   1.240   3.637  10.080  0.7725 -0.6210  0.9872
19638SOL    HW262446   1.122   3.612  10.171 -0.0911  0.1047  0.0987
19639SOL     OW62447   7.779   6.450   2.345  0.2145  0.1101  0.3627
19639SOL    HW162448   7.805   6.472   2.255  1.3717 -0.3824  0.5582
19639SOL    HW262449   7.703   6.394   2.335 -2.2258  3.1967 -0.1912
19640SOL     OW62450   5.010   0.893   7.845 -0.3850 -0.1931  0.6959
19640SOL    HW162451   5.030   0.937   7.928 -3.1756 -0.1597  1.4401
19640SOL    HW262452   4.915   0.895   7.839 -0.2902 -0.4149 -2.4394
19641SOL     OW62453   8.951   3.031   0.331  0.2795 -0.6620  0.3458
19641SOL    HW162454   8.998   2.978   0.267 -1.0139 -1.9264  0.3814
19641SOL    HW262455   8.883   2.972   0.365  0.2880  0.2957  2.1310
19642SOL     OW62456   2.854   9.545   8.342  0.4209  0.2395  0.0377
19642SOL    HW162457   2.826   9.561   8.252  0.1120  0.9513  0.2527
19642SOL    HW262458   2.886   9.455   8.342 -1.1823 -0.3553 -0.3828
19643SOL     OW62459   0.295   2.305   1.938  0.3061  0.3215 -0.1103
19643SOL    HW162460   0.361   2.289   2.006 -0.0276  0.5273  0.2668
19643SOL    HW262461   0.212   2.306   1.985  0.2499  2.7480 -0.1278
19644SOL     OW62462   5.389   2.851   2.896  0.0025 -0.1969  0.1514
19644SOL    HW162463   5.392   2.883   2.987  0.2658  0.1873  0.0151
19644SOL    HW262464   5.444   2.914   2.848  0.2946 -0.7003 -0.1802
19645SOL     OW62465   8.513  10.326   9.644 -0.1527 -0.2610  0.1231
19645SOL    HW162466   8.559  10.374   9.712 -0.9639  1.4384 -0.4789
19645SOL    HW262467   8.576  10.320   9.572  0.5528 -1.6830  0.8151
19646SOL     OW62468   0.510   6.299   9.116  0.0313  0.3833  0.2637
19646SOL    HW162469   0.466   6.214   9.117 -0.9418  0.8730  0.5751
19646SOL    HW262470   0.441   6.361   9.095  1.2998  0.8240 -3.0985
19647SOL     OW62471   0.194   0.720   2.734  0.1990 -0.2118 -0.0262
19647SOL    HW162472   0.222   0.791   2.792  1.0299 -0.2543 -0.3619
19647SOL    HW262473   0.275   0.672   2.715 -0.2773 -0.9537 -0.2010
19648SOL     OW62474   0.491   1.351   1.557 -0.4260  0.2530  0.1477
19648SOL    HW162475   0.455   1.438   1.571 -2.2686 -0.5649  0.8158
19648SOL    HW262476   0.420   1.291   1.579  0.1741 -1.4216 -2.0183
19649SOL     OW62477   4.036   0.021   8.552 -0.1485 -0.7579 -0.0337
19649SOL    HW162478   4.104  -0.042   8.575  3.0611  2.5903  0.5460
19649SOL    HW262479   4.062   0.055   8.466 -1.5418  0.1219 -0.1493
19650SOL     OW62480   6.319   5.292   8.260  0.3488  0.2915 -0.6067
19650SOL    HW162481   6.289   5.348   8.331 -0.6367 -0.4517 -0.4086
19650SOL    HW262482   6.347   5.211   8.303 -0.1748 -0.1337 -1.0439
19651SOL     OW62483   7.829   3.054   9.584  0.0180 -0.4824 -0.2666
19651SOL    HW162484   7.752   3.110   9.596  0.5658  0.2042  0.1629
19651SOL    HW262485   7.815   3.011   9.500 -0.3020  0.5144 -0.7418
19652SOL     OW62486   5.930   5.404   1.150 -0.2745 -0.2069  0.2459
19652SOL    HW162487   5.913   5.439   1.062 -1.4725 -1.5864 -0.1272
19652SOL    HW262488   5.880   5.460   1.208  0.5524  0.7395  0.0664
19653SOL     OW62489   4.532   2.608  10.698  0.0609  0.0149 -0.1668
19653SOL    HW162490   4.485   2.537  10.742 -0.1292  0.0462 -0.3185
19653SOL    HW262491   4.624   2.582  10.703 -0.1326 -1.0590 -1.6712
19654SOL     OW62492   2.668   3.841   4.438 -0.6043  0.0661  0.3182
19654SOL    HW162493   2.711   3.766   4.396 -2.6763 -1.4695  0.7631
19654SOL    HW262494   2.737   3.883   4.489  0.5743 -1.7604  0.3219
19655SOL     OW62495   7.814  10.805   8.589  0.2192  0.1936  0.8716
19655SOL    HW162496   7.882  10.824   8.525 -0.1740 -0.2311  0.3185
19655SOL    HW262497   7.752  10.878   8.581 -0.3672 -0.3779  0.0152
19656SOL     OW62498   3.822   1.617   0.015 -0.1144  0.4724  0.1396
19656SOL    HW162499   3.841   1.678  -0.055 -0.9420  0.9993  0.3654
19656SOL    HW262500   3.783   1.541  -0.029 -2.4955  1.6038  0.1821
19657SOL     OW62501   7.859   7.057   8.732  0.1460  0.0825 -0.0313
19657SOL    HW162502   7.770   7.022   8.736  0.7841 -1.5350  1.5059
19657SOL    HW262503   7.848   7.151   8.726 -1.6677 -0.0949  0.0525
19658SOL     OW62504   6.743   4.138   5.365  0.0066 -0.0910 -0.6510
19658SOL    HW162505   6.737   4.113   5.273 -0.1001  0.4174 -0.7853
19658SOL    HW262506   6.800   4.215   5.365  0.2456 -0.2637 -0.2569
19659SOL     OW62507   6.565  10.338   7.137  0.1039 -0.2981 -0.3507
19659SOL    HW162508   6.527  10.250   7.146 -2.7930  0.7580 -1.2080
19659SOL    HW262509   6.586  10.364   7.227 -1.6338 -0.8218  0.2406
19660SOL     OW62510   1.282   3.583   2.431  0.0639  0.6469  0.4986
19660SOL    HW162511   1.257   3.675   2.424  1.3063  0.9593 -0.2057
19660SOL    HW262512   1.340   3.580   2.507  2.7765  1.1720 -1.3836
19661SOL     OW62513   9.546   4.444   2.046 -0.0270  0.1782 -1.0766
19661SOL    HW162514   9.494   4.425   2.124 -2.1274 -0.0214 -2.4282
19661SOL    HW262515   9.619   4.498   2.077 -0.8676  0.1947  0.9843
19662SOL     OW62516   6.991   8.829   6.669 -0.5761 -0.3422 -0.3389
19662SOL    HW162517   6.977   8.783   6.586  1.7359  0.1894 -1.0791
19662SOL    HW262518   7.078   8.868   6.661 -1.4329  2.0767  1.2629
19663SOL     OW62519   8.937   0.788   0.987  0.0801 -0.0239  0.2770
19663SOL    HW162520   8.877   0.715   0.972 -0.4068  0.2264  0.9513
19663SOL    HW262521   9.024   0.750   0.979 -0.1695 -0.7802  1.0668
19664SOL     OW62522   7.252   1.677   5.210  1.0110 -0.3314  0.5847
19664SOL    HW162523   7.252   1.698   5.116 -1.7714 -0.6197  0.4605
19664SOL    HW262524   7.240   1.583   5.214 -0.2390 -0.1674  1.2030
19665SOL     OW62525   9.408   8.261   7.226 -0.6624  0.5075  0.0710
19665SOL    HW162526   9.447   8.176   7.204  0.6562  1.3382 -0.8507
19665SOL    HW262527   9.458   8.291   7.302  0.2787  1.4076 -0.8884
19666SOL     OW62528   7.717   2.195   8.005  0.4190  0.6907 -0.0037
19666SOL    HW162529   7.682   2.253   7.938 -0.2433  0.2241 -0.0758
19666SOL    HW262530   7.785   2.144   7.959 -0.9247 -0.5471 -0.6916
19667SOL     OW62531   3.084  10.454   0.985 -0.4027 -0.3346 -0.4643
19667SOL    HW162532   3.137  10.443   1.064  0.4682 -0.2888 -1.0242
19667SOL    HW262533   3.132  10.407   0.917  1.1623  3.0022 -1.9405
19668SOL     OW62534   1.421   8.874   0.851  0.6739 -0.4689  0.4100
19668SOL    HW162535   1.335   8.834   0.856  0.9955 -1.0616  1.5034
19668SOL    HW262536   1.453   8.851   0.764 -0.7539  0.8387 -0.5221
19669SOL     OW62537   7.658   4.703   7.736  0.1377  0.3304  0.0588
19669SOL    HW162538   7.654   4.682   7.829  2.4532  2.2685  0.6939
19669SOL    HW262539   7.749   4.726   7.720 -0.4543  1.3653 -2.3937
19670SOL     OW62540   8.499   3.583   2.702 -0.4601  0.0859  0.0391
19670SOL    HW162541   8.490   3.675   2.676 -1.7724  0.1039  0.4639
19670SOL    HW262542   8.475   3.533   2.624  0.4559  0.1043 -0.2531
19671SOL     OW62543   7.309   5.626   0.717  0.1803 -0.2086 -0.3820
19671SOL    HW162544   7.237   5.565   0.737  1.1308 -1.1898  0.1427
19671SOL    HW262545   7.279   5.710   0.754 -0.8148 -0.5211 -0.4292
19672SOL     OW62546   2.574   4.828   8.561 -0.1016 -0.4359  0.1999
19672SOL    HW162547   2.597   4.791   8.476 -0.0897 -0.6754  0.3075
19672SOL    HW262548   2.504   4.772   8.593 -1.5278  0.8313 -0.5475
19673SOL     OW62549   6.465   0.092   5.269 -0.1881 -0.2936 -0.3687
19673SOL    HW162550   6.425   0.111   5.184 -1.9664 -1.3864  0.1860
19673SOL    HW262551   6.524   0.018   5.251 -0.7483 -0.6849 -0.6050
19674SOL     OW62552   7.001   8.761   8.479 -0.5758  0.1097  0.7077
19674SOL    HW162553   6.992   8.856   8.470  1.3871  0.2041 -1.1911
19674SOL    HW262554   7.074   8.749   8.539  1.6635 -0.0167 -1.8564
19675SOL     OW62555   9.698   2.105   9.036  0.3109 -0.1854 -0.1736
19675SOL    HW162556   9.723   2.058   9.116  1.1038 -0.4762 -0.5768
19675SOL    HW262557   9.679   2.194   9.064 -0.0970 -0.4581  0.4349
19676SOL     OW62558   3.936   7.279   8.265  0.3981  0.3565 -0.0289
19676SOL    HW162559   3.983   7.241   8.339 -0.7693  0.0737  0.5905
19676SOL    HW262560   4.005   7.318   8.211  1.2736  0.5628  1.1831
19677SOL     OW62561   5.151   3.866   0.822 -0.1931 -0.2169  0.5057
19677SOL    HW162562   5.225   3.915   0.787 -0.5788  0.6192  0.8161
19677SOL    HW262563   5.122   3.918   0.898 -0.9343 -0.6564  0.5335
19678SOL     OW62564   4.544   7.027   2.169  0.1682 -0.4135 -0.2494
19678SOL    HW162565   4.501   6.969   2.231  0.0733 -2.6146 -2.2371
19678SOL    HW262566   4.633   6.992   2.160  1.3638  1.9796  1.1591
19679SOL     OW62567   3.326   6.208   8.105 -0.2108 -0.3981  0.2180
19679SOL    HW162568   3.421   6.194   8.099 -0.0370  0.9934 -0.6865
19679SOL    HW262569   3.316   6.264   8.182  0.2964  3.5171 -2.2743
19680SOL     OW62570  10.059   6.879  10.444 -0.5649  0.0689 -0.1740
19680SOL    HW162571  10.007   6.924  10.377  1.6744 -0.8236 -2.6967
19680SOL    HW262572  10.044   6.786  10.428 -0.5431 -0.1746  1.0892
19681SOL     OW62573   2.428   0.578  10.407 -0.2288 -0.1060  0.2306
19681SOL    HW162574   2.335   0.561  10.396 -0.4223  0.3278  1.1309
19681SOL    HW262575   2.449   0.545  10.495  0.2473  0.6563  0.4160
19682SOL     OW62576   8.280   3.964   0.005  0.3739 -0.2891  0.4947
19682SOL    HW162577   8.309   3.873   0.001 -0.1229 -0.4047 -1.2364
19682SOL    HW262578   8.361   4.015   0.011  0.6601 -0.8367  1.3427
19683SOL     OW62579   9.216   7.972   2.643 -0.3691 -0.0517  0.0169
19683SOL    HW162580   9.177   7.932   2.566 -1.6403 -1.0195  1.1071
19683SOL    HW262581   9.259   8.051   2.611 -0.0701 -0.9149 -1.7985
19684SOL     OW62582   0.538   3.797   7.603 -0.2384 -0.3846 -0.3360
19684SOL    HW162583   0.613   3.854   7.618 -0.4579 -0.1566 -0.0945
19684SOL    HW262584   0.467   3.857   7.580 -1.1806 -0.2877  2.5102
19685SOL     OW62585   8.033   8.307   4.661  0.0597  0.3852 -0.2892
19685SOL    HW162586   8.018   8.222   4.621  2.2416 -0.4002  0.4206
19685SOL    HW262587   8.030   8.369   4.588 -1.5099 -0.2594 -0.8163
19686SOL     OW62588   7.926   1.213   2.808 -0.0443 -0.6293  0.0769
19686SOL    HW162589   7.861   1.274   2.844 -2.6188 -1.7918 -2.1633
19686SOL    HW262590   7.964   1.260   2.733 -0.1589 -0.8345 -0.1115
19687SOL     OW62591   7.812   2.721   8.445  0.0731  0.4934  0.4575
19687SOL    HW162592   7.748   2.762   8.503 -0.5109 -1.4195  1.2422
19687SOL    HW262593   7.768   2.642   8.413  1.6277 -0.2710  0.1280
19688SOL     OW62594  10.108  10.151   2.093 -0.0193 -0.7120 -0.0243
19688SOL    HW162595  10.042  10.115   2.033  0.7104  1.0898 -2.0434
19688SOL    HW262596  10.192  10.127   2.052  0.5619 -0.8852  1.2169
19689SOL     OW62597   8.262   7.260  10.873  0.2572  0.5761  0.4435
19689SOL    HW162598   8.308   7.326  10.924  1.7165 -0.5909  0.7050
19689SOL    HW262599   8.245   7.189  10.935  0.0932  0.0596 -0.1790
19690SOL     OW62600  10.461  10.067  10.393  0.5201  0.2341 -0.2647
19690SOL    HW162601  10.417  10.151  10.394  0.7484  0.4079 -2.0181
19690SOL    HW262602  10.390  10.003  10.381  0.4091  0.1916  0.5073
19691SOL     OW62603   8.461   3.190   0.798 -0.2295 -0.4612  0.4345
19691SOL    HW162604   8.423   3.116   0.847  0.1876 -1.1652 -0.2825
19691SOL    HW262605   8.553   3.191   0.823 -0.2778 -0.0342  0.6107
19692SOL     OW62606   8.607   7.196  11.094 -0.1127  0.1264 -0.5350
19692SOL    HW162607   8.524   7.230  11.125  0.8631  1.6703  0.5542
19692SOL    HW262608   8.643   7.266  11.039  1.1671  0.1686  0.3043
19693SOL     OW62609   0.003   0.470   0.565 -0.3813 -0.4193  0.9104
19693SOL    HW162610   0.039   0.386   0.537 -1.1696 -0.4617 -0.0153
19693SOL    HW262611  -0.092   0.459   0.560 -0.4947  0.9010 -0.4038
19694SOL     OW62612   6.521   4.405   4.111 -0.3456  0.0814  0.7977
19694SOL    HW162613   6.604   4.371   4.078 -1.0529  0.9257 -2.0830
19694SOL    HW262614   6.464   4.328   4.117 -0.5884  0.0267 -1.3742
19695SOL     OW62615   4.103   2.898   9.843  0.3987  0.0485  0.2610
19695SOL    HW162616   4.125   2.991   9.848  1.4218 -0.0432 -1.6579
19695SOL    HW262617   4.183   2.856   9.811 -0.4753 -1.3056 -0.2255
19696SOL     OW62618   0.584   8.316   5.811  0.1997  0.9650 -0.0346
19696SOL    HW162619   0.519   8.350   5.750  0.1094  1.8228  0.5115
19696SOL    HW262620   0.603   8.390   5.869  0.4237  0.2338  0.8520
19697SOL     OW62621   9.093   0.706   1.351 -0.7809  0.5816 -0.3518
19697SOL    HW162622   9.038   0.775   1.389  1.2715  1.4044  1.3289
19697SOL    HW262623   9.032   0.636   1.328 -2.4399  0.9811  2.4487
19698SOL     OW62624   9.209   6.562   5.886 -0.2359 -0.2677  0.2461
19698SOL    HW162625   9.166   6.556   5.972  2.0434  1.4191  1.6205
19698SOL    HW262626   9.225   6.471   5.861 -1.4816 -0.8214  1.3159
19699SOL     OW62627   9.921   6.556   6.381  0.2953  0.1515 -0.0231
19699SOL    HW162628   9.885   6.636   6.420  0.6830 -0.2165  1.1489
19699SOL    HW262629   9.878   6.485   6.430  0.1204 -0.3589 -0.9001
19700SOL     OW62630   0.089   6.434   5.530 -0.5267  0.0367  0.3338
19700SOL    HW162631   0.039   6.462   5.606  0.4554  2.2450  0.2360
19700SOL    HW262632   0.117   6.345   5.552 -4.8242 -1.6341  0.1413
19701SOL     OW62633   5.778  10.798   3.525 -0.2951  0.7144 -0.6494
19701SOL    HW162634   5.872  10.792   3.545 -0.0019  2.8736 -1.0794
19701SOL    HW262635   5.757  10.890   3.539 -2.3515  0.2863 -0.6716
19702SOL     OW62636   8.397   5.522   5.438 -0.7305 -0.1533 -0.4422
19702SOL    HW162637   8.468   5.464   5.409 -1.0241 -0.1251 -1.2692
19702SOL    HW262638   8.372   5.489   5.524  2.2166  1.6334  1.2242
19703SOL     OW62639   4.130   7.658   1.001 -0.1654 -0.9768 -0.0936
19703SOL    HW162640   4.067   7.648   1.072  0.4916  2.0918  1.0489
19703SOL    HW262641   4.094   7.728   0.946  1.3971 -0.3296 -0.3487
19704SOL     OW62642   4.942  10.816   8.485 -0.1733 -0.0144  0.7835
19704SOL    HW162643   4.991  10.737   8.461  1.1464  0.7191  0.9439
19704SOL    HW262644   4.975  10.883   8.425 -1.6992  0.3066  0.2598
19705SOL     OW62645   5.614   3.012   5.297  0.2995 -0.1174 -0.4397
19705SOL    HW162646   5.601   2.920   5.275  2.2029 -0.2680 -1.1436
19705SOL    HW262647   5.698   3.015   5.341  0.7455  1.4028 -1.3240
19706SOL     OW62648   7.621   0.724   7.942 -0.4257  0.9594  0.8905
19706SOL    HW162649   7.563   0.789   7.982 -0.3145  1.4593  0.2508
19706SOL    HW262650   7.564   0.673   7.885 -0.2024  1.6522  0.0188
19707SOL     OW62651   1.655   1.402   7.578  0.7677 -0.2030  0.1224
19707SOL    HW162652   1.590   1.472   7.579  1.2419  0.2459  0.6205
19707SOL    HW262653   1.715   1.426   7.507 -0.2096 -1.1991 -1.0742
19708SOL     OW62654   6.810   6.450   7.937  0.4362 -0.0915  0.1267
19708SOL    HW162655   6.757   6.513   7.987 -0.4899  0.3742 -1.3893
19708SOL    HW262656   6.893   6.495   7.922  1.4878 -0.9305  2.7624
19709SOL     OW62657   3.897   1.097   2.123 -0.2797 -0.6453 -0.6578
19709SOL    HW162658   3.843   1.091   2.044  0.7742 -0.9213 -1.3876
19709SOL    HW262659   3.846   1.151   2.183 -1.8490 -1.7772 -0.8939
19710SOL     OW62660   1.835   6.962  10.581 -0.2042 -0.1389  0.8497
19710SOL    HW162661   1.819   6.960  10.487  0.1025 -0.0820  0.7960
19710SOL    HW262662   1.885   7.042  10.595  1.8339 -1.3109  0.7257
19711SOL     OW62663   1.624   7.212   9.854  0.4008 -0.1387 -0.6189
19711SOL    HW162664   1.712   7.177   9.863  0.1950 -0.0862  2.3617
19711SOL    HW262665   1.566   7.136   9.858  0.2104  0.0144 -0.4390
19712SOL     OW62666  10.388   0.332   7.676  0.1911 -0.2305  0.3024
19712SOL    HW162667  10.417   0.300   7.590  0.2124 -0.1139  0.2658
19712SOL    HW262668  10.467   0.364   7.718  0.3254 -1.0935  0.7184
19713SOL     OW62669   1.805   6.053   0.012  0.3864 -0.3642  0.0746
19713SOL    HW162670   1.765   6.026  -0.071 -0.5795  0.8137  0.1295
19713SOL    HW262671   1.755   6.130   0.038  1.2946 -0.1677  1.2861
19714SOL     OW62672   6.638   3.623   5.917  0.4930 -0.2265 -0.3409
19714SOL    HW162673   6.596   3.707   5.936 -0.2150 -0.4874 -0.7389
19714SOL    HW262674   6.731   3.640   5.930  0.4624  0.9025 -1.4279
19715SOL     OW62675   9.618   5.840   0.507  0.1115  0.2868 -0.5041
19715SOL    HW162676   9.666   5.768   0.467  2.5978  0.8749  1.2124
19715SOL    HW262677   9.656   5.919   0.468  0.8041  0.7777  1.0778
19716SOL     OW62678   1.085   7.786   7.608 -0.3289  0.1373 -0.1691
19716SOL    HW162679   1.094   7.726   7.534  1.0686 -0.0621  0.1262
19716SOL    HW262680   1.011   7.841   7.585 -0.6053 -0.6244 -1.2131
19717SOL     OW62681  11.104  10.067   6.276 -0.7086 -0.8328 -0.0646
19717SOL    HW162682  11.033  10.124   6.306  0.1085 -0.4215  1.1846
19717SOL    HW262683  11.165  10.126   6.232  1.1482 -0.2308  2.9847
19718SOL     OW62684   7.576   9.302   2.379 -0.2967  0.3022  0.1567
19718SOL    HW162685   7.568   9.389   2.418 -1.8403  0.6673 -0.8725
19718SOL    HW262686   7.487   9.280   2.351  0.3653 -0.8427 -1.1853
19719SOL     OW62687   4.502   6.689   0.513  0.6032 -0.3102 -0.3218
19719SOL    HW162688   4.539   6.601   0.506 -0.2403 -0.6617 -0.5418
19719SOL    HW262689   4.532   6.722   0.598  0.8439 -0.8511 -0.1977
19720SOL     OW62690   4.325   5.283   5.692 -0.0071  0.4138 -0.0457
19720SOL    HW162691   4.393   5.217   5.708 -1.0980 -1.0005 -1.0758
19720SOL    HW262692   4.302   5.314   5.780  1.0180 -0.0452  0.4102
19721SOL     OW62693   5.895   7.498   2.660  0.0778  0.4708 -0.4861
19721SOL    HW162694   5.973   7.486   2.714  0.3200  1.2342 -0.6473
19721SOL    HW262695   5.846   7.416   2.669  1.1404 -0.2137 -0.7784
19722SOL     OW62696  10.911   8.085   7.314 -0.6798 -0.0096 -0.5345
19722SOL    HW162697  10.879   8.167   7.351 -0.5810  0.2656 -1.0461
19722SOL    HW262698  10.931   8.106   7.223 -0.0700 -0.4435 -0.5088
19723SOL     OW62699   0.854   8.469   0.251 -0.0496 -0.0051 -0.3044
19723SOL    HW162700   0.796   8.432   0.184 -0.8452  0.3342  0.1901
19723SOL    HW262701   0.922   8.402   0.263 -1.1682 -1.0827  0.1907
19724SOL     OW62702   1.111   8.291   9.691  0.1157 -0.7546  0.1950
19724SOL    HW162703   1.034   8.344   9.715  0.3042 -0.6870  0.6631
19724SOL    HW262704   1.076   8.223   9.634 -0.1690 -0.2694 -0.2178
19725SOL     OW62705   3.988   1.826   5.898 -0.4430  0.0205 -0.3120
19725SOL    HW162706   3.893   1.821   5.908 -0.3514 -0.7516  0.3321
19725SOL    HW262707   4.011   1.745   5.852 -0.1083  0.2699 -0.5891
19726SOL     OW62708   0.271  10.206   7.933  0.9072 -0.1210  0.2067
19726SOL    HW162709   0.249  10.298   7.919 -1.9224 -0.5479  1.2566
19726SOL    HW262710   0.282  10.170   7.845 -0.8956  0.6183 -0.3625
19727SOL     OW62711   5.879   1.844   5.371 -0.2835 -0.2548  0.2677
19727SOL    HW162712   5.837   1.927   5.391  0.2591  0.5194 -1.5235
19727SOL    HW262713   5.829   1.779   5.419 -0.2607  1.1711  2.3294
19728SOL     OW62714   3.974  10.115   8.680 -0.1653  0.4737  0.0977
19728SOL    HW162715   3.939  10.055   8.746 -0.4395 -0.1810 -0.6246
19728SOL    HW262716   3.996  10.194   8.729 -0.9964  0.2513  0.8692
19729SOL     OW62717   6.132   1.953   8.657 -0.0365  0.0094  0.1399
19729SOL    HW162718   6.130   1.991   8.745 -2.2993 -2.4964  1.2943
19729SOL    HW262719   6.043   1.921   8.643  0.0015  1.0831 -3.4808
19730SOL     OW62720   6.545   7.094   4.404 -0.2128 -0.8401 -0.1668
19730SOL    HW162721   6.521   7.171   4.457  0.8719 -0.3087 -0.4215
19730SOL    HW262722   6.488   7.024   4.437 -1.5531  0.1687 -0.2453
19731SOL     OW62723  11.076   1.516   6.007 -0.7076 -0.5350  0.0281
19731SOL    HW162724  11.008   1.549   6.065  1.4325 -0.2768  2.5285
19731SOL    HW262725  11.145   1.581   6.011 -0.2894 -0.7046 -2.5779
19732SOL     OW62726   4.119   4.012   1.295  0.3633 -0.1973  0.0329
19732SOL    HW162727   4.030   4.038   1.271  0.5514  1.8933  1.3533
19732SOL    HW262728   4.111   3.918   1.316 -1.1920 -0.4071 -1.2409
19733SOL     OW62729   5.958   4.269   1.330  0.2997  0.1667  0.0630
19733SOL    HW162730   5.903   4.196   1.299  0.4045  0.5151 -0.9772
19733SOL    HW262731   5.910   4.347   1.303  2.1028  0.5195 -2.5068
19734SOL     OW62732   5.662   6.291   4.177 -0.2713 -0.3214  0.3385
19734SOL    HW162733   5.572   6.309   4.204 -0.2061  1.6614 -0.5525
19734SOL    HW262734   5.706   6.264   4.257 -1.5825 -1.0544  0.8437
19735SOL     OW62735   9.944   1.033   8.864  0.5691 -0.1826 -0.0108
19735SOL    HW162736  10.017   1.046   8.803 -0.7208  1.0683 -1.3895
19735SOL    HW262737   9.959   1.097   8.933  0.0506  1.1361 -1.0655
19736SOL     OW62738   9.857   9.452   7.956 -0.1323  0.5366 -0.3742
19736SOL    HW162739   9.919   9.429   8.025  0.5659  0.3401 -1.0518
19736SOL    HW262740   9.786   9.389   7.965  0.2442  0.1310 -0.2126
19737SOL     OW62741   8.540   5.641   8.247  0.0676  0.3254  0.2177
19737SOL    HW162742   8.497   5.723   8.222  2.7399  1.5630 -0.6383
19737SOL    HW262743   8.588   5.662   8.327  0.3443 -0.5669  0.3044
19738SOL     OW62744   4.935   9.905  10.770 -0.0061  0.0854 -0.5110
19738SOL    HW162745   4.840   9.904  10.785  0.1270  2.2782  1.0253
19738SOL    HW262746   4.945   9.917  10.676 -1.3098  1.0485 -0.5532
19739SOL     OW62747   4.477   1.083   0.510 -0.2020 -0.5056  0.3058
19739SOL    HW162748   4.457   1.011   0.571  0.0316  1.0657  2.3467
19739SOL    HW262749   4.569   1.103   0.527 -0.3325  0.4371 -0.0386
19740SOL     OW62750   2.779   5.145   8.409  0.3721  0.4257  0.5244
19740SOL    HW162751   2.741   5.160   8.495 -0.1521  1.1998  0.1645
19740SOL    HW262752   2.706   5.154   8.348  0.3577 -1.8743  0.1011
19741SOL     OW62753   9.964   3.260   2.553  0.2284  0.3656  0.1799
19741SOL    HW162754   9.956   3.240   2.460 -1.7165  0.8065  0.2055
19741SOL    HW262755   9.996   3.350   2.556  0.8275  0.1661 -0.0363
19742SOL     OW62756   1.950   1.283   1.994  0.6322  0.1247  0.4058
19742SOL    HW162757   1.911   1.368   1.975  0.1157 -0.3257 -0.6559
19742SOL    HW262758   1.987   1.254   1.911 -0.8763 -1.5155  0.2333
19743SOL     OW62759   8.610   8.009   9.713  0.4599 -0.3986 -0.3560
19743SOL    HW162760   8.594   7.915   9.726  1.8935 -0.6914 -0.4842
19743SOL    HW262761   8.604   8.022   9.619  0.0392 -0.3152 -0.3178
19744SOL     OW62762   8.085   5.200   8.707 -0.2154  0.3930 -0.5064
19744SOL    HW162763   8.019   5.166   8.646 -0.0453 -1.0495  0.0523
19744SOL    HW262764   8.167   5.197   8.657  0.2552 -2.4806  0.2200
19745SOL     OW62765   2.872   9.761   0.679 -0.3611  0.4879 -0.2169
19745SOL    HW162766   2.930   9.693   0.714  1.4499  1.6781 -0.7164
19745SOL    HW262767   2.798   9.763   0.738  0.3480 -0.7727  0.7727
19746SOL     OW62768   8.007   4.976   2.577  0.3454 -0.6984 -0.4718
19746SOL    HW162769   8.054   4.979   2.494 -1.4784  3.4027 -1.6560
19746SOL    HW262770   7.919   4.945   2.555 -0.7471  2.1956 -0.6451
19747SOL     OW62771  10.315   2.417   4.218 -0.1549 -0.2618 -0.3465
19747SOL    HW162772  10.252   2.453   4.155  1.7594  2.3409 -0.9460
19747SOL    HW262773  10.312   2.477   4.292  1.7720  0.1187 -0.5196
19748SOL     OW62774   0.931   2.785  11.038  0.2317  0.0748 -0.2056
19748SOL    HW162775   0.939   2.737  11.120  0.7133  1.5493  0.6506
19748SOL    HW262776   0.939   2.877  11.063 -0.1672  0.5903 -1.8408
19749SOL     OW62777   6.733   7.828   6.631  0.3160  0.2804  0.2738
19749SOL    HW162778   6.745   7.788   6.717  0.3919 -0.4618 -0.0706
19749SOL    HW262779   6.822   7.832   6.594  0.4443  1.6262  0.6573
19750SOL     OW62780   8.904   8.629   3.193 -0.7624  0.0491 -0.3430
19750SOL    HW162781   8.839   8.666   3.254 -0.5840  0.0287 -0.1385
19750SOL    HW262782   8.853   8.604   3.116 -0.7837  1.4244 -0.8073
19751SOL     OW62783   3.636   7.909   5.140 -0.4024 -0.2161  0.5743
19751SOL    HW162784   3.611   7.996   5.110  1.3125  0.8283  1.9626
19751SOL    HW262785   3.554   7.868   5.166 -1.1437  1.4094  0.9129
19752SOL     OW62786   3.509   3.478   9.424  0.6582 -0.0874 -0.4898
19752SOL    HW162787   3.604   3.472   9.421  0.7698  1.3386 -0.5761
19752SOL    HW262788   3.490   3.524   9.506 -0.0183 -1.1221 -0.0426
19753SOL     OW62789   5.673   6.215   9.827  0.2436  0.0938 -0.0865
19753SOL    HW162790   5.603   6.164   9.786  0.4879  1.3718 -2.2898
19753SOL    HW262791   5.748   6.156   9.830 -0.2344 -0.5159 -0.0230
19754SOL     OW62792   6.971   0.323   0.686  0.3675 -0.1968 -0.6037
19754SOL    HW162793   6.885   0.333   0.644 -0.1023 -3.3284 -0.6279
19754SOL    HW262794   7.033   0.355   0.621 -0.6341 -0.1627 -1.5847
19755SOL     OW62795   1.544  10.037   9.418 -0.5275 -0.5037 -0.1335
19755SOL    HW162796   1.630  10.016   9.381 -0.5606 -0.1373 -0.4293
19755SOL    HW262797   1.562  10.051   9.511 -0.3103 -0.6903 -0.1468
19756SOL     OW62798   2.131   6.124   3.624  0.0531  0.8955 -0.2685
19756SOL    HW162799   2.137   6.066   3.699  1.0475  0.4463 -0.6844
19756SOL    HW262800   2.098   6.207   3.660 -0.8217  0.2656  0.4150
19757SOL     OW62801   2.339   7.318   7.727  0.0965 -0.7536 -0.4253
19757SOL    HW162802   2.297   7.262   7.792 -0.3092 -2.4493 -2.0804
19757SOL    HW262803   2.433   7.301   7.738  0.0895 -0.3450  0.3055
19758SOL     OW62804   5.105   8.869   0.061  0.1084 -0.0999 -0.1674
19758SOL    HW162805   5.170   8.806   0.027 -0.5209 -0.7865 -0.1169
19758SOL    HW262806   5.157   8.945   0.086  0.7619 -0.1385 -1.3117
19759SOL     OW62807   3.221   0.373   7.150 -0.3484  0.3587 -0.1458
19759SOL    HW162808   3.253   0.424   7.225 -0.4827  0.4974 -0.1821
19759SOL    HW262809   3.137   0.338   7.180 -0.4825  0.5542 -0.2923
19760SOL     OW62810   3.505   5.808   6.583 -0.1755 -0.4064 -0.1285
19760SOL    HW162811   3.524   5.892   6.624  0.0216 -0.6261  0.2365
19760SOL    HW262812   3.589   5.775   6.552 -0.0940 -0.9131  0.5950
19761SOL     OW62813   4.070   6.616  10.155 -0.2042  0.1137 -0.2380
19761SOL    HW162814   4.134   6.671  10.200 -0.1895  1.0700 -1.3830
19761SOL    HW262815   4.042   6.552  10.221  1.6741 -0.1231  0.3782
19762SOL     OW62816   2.404   8.866   4.320  0.0133 -0.2823  0.0895
19762SOL    HW162817   2.375   8.922   4.392 -2.5263 -0.2584 -0.8469
19762SOL    HW262818   2.422   8.926   4.248 -1.0798 -0.5179 -0.4005
19763SOL     OW62819  10.963   9.900   7.559 -0.0459 -0.8736 -0.1107
19763SOL    HW162820  10.929   9.824   7.512 -0.0879 -0.5789 -0.5572
19763SOL    HW262821  10.971   9.870   7.650  2.0172 -2.1339 -0.6398
19764SOL     OW62822  11.027   5.899   4.318 -0.1503 -0.0754 -0.6412
19764SOL    HW162823  10.965   5.836   4.355 -0.9454  0.3321 -1.2302
19764SOL    HW262824  11.085   5.847   4.263  0.5767 -0.5793  0.5645
19765SOL     OW62825   5.504  10.226   5.207  0.1883 -0.5010  0.2002
19765SOL    HW162826   5.537  10.268   5.287  1.6426 -0.0579 -0.5922
19765SOL    HW262827   5.433  10.282   5.177 -0.7330 -0.9639  1.4631
19766SOL     OW62828   0.513   4.474   4.144 -0.1261  0.0901  0.3501
19766SOL    HW162829   0.488   4.389   4.106 -0.3570  0.1149  0.4465
19766SOL    HW262830   0.439   4.498   4.200  0.1349  0.1429  0.6749
19767SOL     OW62831   2.539   0.041   8.076  1.0112  0.1977 -0.7030
19767SOL    HW162832   2.595  -0.003   8.012  0.6494 -1.2242 -0.0654
19767SOL    HW262833   2.450   0.028   8.043  0.9251  0.8629 -0.7447
19768SOL     OW62834  11.075   1.386  10.789  0.2444 -0.5917 -0.1964
19768SOL    HW162835  11.125   1.345  10.859 -0.9035  1.5973  2.0812
19768SOL    HW262836  10.985   1.359  10.805 -0.0924  0.2705 -0.5379
19769SOL     OW62837   6.220   2.597   3.229  0.2637 -0.6598 -0.1162
19769SOL    HW162838   6.199   2.597   3.135 -0.7839 -0.9915  0.1064
19769SOL    HW262839   6.271   2.517   3.242  0.2115 -0.7335 -0.3632
19770SOL     OW62840   6.587   7.818   6.212 -0.4712  0.1929  0.2445
19770SOL    HW162841   6.644   7.837   6.286 -0.3778  0.1454  0.1857
19770SOL    HW262842   6.508   7.781   6.251  0.2234 -1.3939  0.2288
19771SOL     OW62843   9.750   5.136   4.915  0.0447  0.7718  0.2031
19771SOL    HW162844   9.680   5.074   4.933  1.5254 -1.0256  0.0979
19771SOL    HW262845   9.705   5.214   4.882 -1.8495 -0.5854 -0.6113
19772SOL     OW62846  10.017   6.418   7.333 -0.2506  0.1441  0.0563
19772SOL    HW162847  10.034   6.466   7.414  1.4029 -0.2330 -0.0268
19772SOL    HW262848  10.079   6.455   7.269  0.4309 -1.4335 -0.2488
19773SOL     OW62849   2.911   7.681   4.533 -0.2373 -0.0240  0.0745
19773SOL    HW162850   2.973   7.723   4.593 -0.1070 -0.4277  0.2273
19773SOL    HW262851   2.826   7.719   4.556 -0.5236 -1.5665  1.8733
19774SOL     OW62852   3.447   4.798   0.036 -0.1498  0.0179 -0.3859
19774SOL    HW162853   3.386   4.741  -0.012  0.4110  0.5224 -1.7581
19774SOL    HW262854   3.516   4.739   0.066 -0.9826 -0.4570  0.6436
19775SOL     OW62855   2.442   3.066   1.611 -0.6940  0.7635  0.4695
19775SOL    HW162856   2.518   3.113   1.645 -0.5460 -0.2551  1.6072
19775SOL    HW262857   2.375   3.133   1.603  0.0819  1.5272  0.2250
19776SOL     OW62858   4.979   0.837   1.651 -0.0236  0.3557  0.1782
19776SOL    HW162859   4.998   0.928   1.674 -0.4868  0.8359 -1.1683
19776SOL    HW262860   4.981   0.836   1.555  1.4172 -1.3968  0.1734
19777SOL     OW62861   2.219   8.449   7.000  0.3808  0.1292 -0.7179
19777SOL    HW162862   2.127   8.462   6.976  0.4476  1.8301 -0.1742
19777SOL    HW262863   2.268   8.467   6.920  0.2855 -0.0235 -0.8110
19778SOL     OW62864   4.742   3.640  10.524  0.2286  0.7502  0.2815
19778SOL    HW162865   4.691   3.626  10.603 -0.8997  0.7525 -0.4241
19778SOL    HW262866   4.832   3.620  10.549 -0.4804 -2.2726  0.7918
19779SOL     OW62867   5.491   2.292   1.296  0.2025  0.1928 -0.2670
19779SOL    HW162868   5.474   2.368   1.240  0.1229  0.4296  0.0692
19779SOL    HW262869   5.534   2.228   1.239 -0.1704  0.3020 -0.6763
19780SOL     OW62870   8.158   8.542   1.714  0.5568  0.3075 -0.3039
19780SOL    HW162871   8.196   8.485   1.648 -1.0735 -0.2024 -0.8523
19780SOL    HW262872   8.097   8.486   1.762  0.0182  1.2244  0.1248
19781SOL     OW62873  10.034   0.861   8.197  0.5360 -0.1030  0.8633
19781SOL    HW162874   9.971   0.789   8.209  0.4374 -0.6954 -2.3937
19781SOL    HW262875  10.120   0.820   8.211  0.4132 -0.5758  0.2942
19782SOL     OW62876   3.358   5.464   8.533 -0.4957 -0.4367 -0.3865
19782SOL    HW162877   3.328   5.478   8.622 -1.6213  0.6006 -0.8875
19782SOL    HW262878   3.393   5.550   8.506  0.5419 -0.9384 -0.6910
19783SOL     OW62879   6.360   3.315   3.975  0.0969 -0.1903 -0.4954
19783SOL    HW162880   6.399   3.241   4.021  0.2387  1.0572  1.4829
19783SOL    HW262881   6.345   3.282   3.886 -0.7921 -2.9125  0.5616
19784SOL     OW62882   1.790  10.316  10.919  0.3745 -0.0862  0.2613
19784SOL    HW162883   1.748  10.230  10.923  0.2694 -0.1094 -1.0497
19784SOL    HW262884   1.810  10.337  11.011 -1.1035 -0.7491  0.7745
19785SOL     OW62885   2.436   0.270   8.195 -0.1007 -0.7311 -0.0838
19785SOL    HW162886   2.485   0.302   8.271  1.4903 -0.2582 -1.2703
19785SOL    HW262887   2.484   0.192   8.167  0.7850  0.4565 -2.0299
19786SOL     OW62888   2.169   0.805   1.895  0.5448  0.1379  0.3098
19786SOL    HW162889   2.254   0.793   1.854  0.1433  0.2418 -0.5942
19786SOL    HW262890   2.162   0.735   1.959  1.7442  0.7656  1.1680
19787SOL     OW62891   2.982   6.725   6.733  0.4639  0.5892  0.3765
19787SOL    HW162892   2.996   6.682   6.649  1.9828  1.4020  0.1879
19787SOL    HW262893   2.905   6.781   6.719  1.8818  2.2878 -1.1545
19788SOL     OW62894  10.629   9.112   7.540 -0.2776 -0.3213  0.2882
19788SOL    HW162895  10.689   9.120   7.466 -0.7882 -1.0066 -0.2088
19788SOL    HW262896  10.673   9.051   7.599  1.2046  1.9300  1.6691
19789SOL     OW62897   8.097  10.481   3.606 -0.3417  0.2387  0.0525
19789SOL    HW162898   8.051  10.423   3.545 -2.3694 -0.1348  1.7841
19789SOL    HW262899   8.176  10.508   3.560 -1.2124 -0.9081 -2.2570
19790SOL     OW62900   0.511   0.652   0.393 -0.0372  0.2841 -0.3014
19790SOL    HW162901   0.492   0.652   0.487  0.8646 -0.1698 -0.1005
19790SOL    HW262902   0.430   0.622   0.352 -0.4062  0.3738  0.3405
19791SOL     OW62903   9.443   8.422   4.832  0.5929  0.3210  0.1220
19791SOL    HW162904   9.483   8.432   4.918 -0.9778 -1.1443  1.0872
19791SOL    HW262905   9.512   8.444   4.770  1.4952  2.3503  1.7445
19792SOL     OW62906   8.414  10.884  10.385 -0.2067 -0.4653  0.5264
19792SOL    HW162907   8.459  10.846  10.309  3.4830  0.5492  2.0193
19792SOL    HW262908   8.361  10.954  10.348  0.8462 -0.5314 -1.2322
19793SOL     OW62909   0.072   8.208   2.592  0.0041 -0.1117  0.0123
19793SOL    HW162910   0.064   8.278   2.657  0.4751 -0.4948  0.4918
19793SOL    HW262911  -0.008   8.214   2.541  0.1510  0.9526 -0.1283
19794SOL     OW62912  10.816   9.098   1.841  0.2210 -0.5979  0.1138
19794SOL    HW162913  10.860   9.015   1.823  0.9023  0.0663 -1.3911
19794SOL    HW262914  10.725   9.082   1.816  0.5637 -0.5846 -1.1846
19795SOL     OW62915   7.448   9.506   9.536  0.3199 -0.2998 -0.5035
19795SOL    HW162916   7.390   9.436   9.507  2.5542 -2.2489 -0.5689
19795SOL    HW262917   7.527   9.496   9.482  0.9244  1.9900 -0.1664
19796SOL     OW62918   5.596   7.232   8.844  0.0970  0.0656  0.8892
19796SOL    HW162919   5.682   7.193   8.832 -0.4317 -0.8790  0.0447
19796SOL    HW262920   5.535   7.158   8.849 -0.9132  0.7356 -0.6653
19797SOL     OW62921   2.834   0.801   7.464  0.1108 -0.1524  0.7542
19797SOL    HW162922   2.771   0.754   7.518  1.5931 -0.9023  1.9170
19797SOL    HW262923   2.847   0.884   7.509 -0.1414  0.0503  0.4520
19798SOL     OW62924   0.407   7.118  10.398  0.1239 -0.3288 -0.8283
19798SOL    HW162925   0.437   7.033  10.430 -0.9999 -0.6342 -0.5242
19798SOL    HW262926   0.478   7.179  10.419  0.5890 -1.0430 -0.3017
19799SOL     OW62927   1.799   5.872   4.550 -0.9087 -0.2966 -0.0697
19799SOL    HW162928   1.881   5.903   4.587 -0.1320 -1.3373 -0.8501
19799SOL    HW262929   1.803   5.899   4.458 -0.3502 -2.3362 -0.6900
19800SOL     OW62930   5.268   1.003   6.074 -0.3846 -0.6376 -0.3154
19800SOL    HW162931   5.183   0.971   6.045  0.5128 -1.5141 -2.1841
19800SOL    HW262932   5.326   0.928   6.066  0.5176 -0.1498  1.2751
19801SOL     OW62933   8.423   8.159   0.565  0.0669  0.4714 -0.4457
19801SOL    HW162934   8.513   8.127   0.561  0.1786  0.6955  0.2336
19801SOL    HW262935   8.370   8.088   0.530  0.3460 -0.3204  0.6928
19802SOL     OW62936   9.482   5.544   4.448  0.0835 -0.2221  0.3539
19802SOL    HW162937   9.571   5.569   4.423 -0.3526  1.2197  0.2040
19802SOL    HW262938   9.474   5.453   4.417  0.8072  0.2863 -1.4509
19803SOL     OW62939   1.146   0.607   6.884  0.1396 -0.2110  0.0676
19803SOL    HW162940   1.171   0.526   6.839 -0.2340  0.1377 -0.7882
19803SOL    HW262941   1.080   0.646   6.827  1.2539  1.3597 -0.2047
19804SOL     OW62942  10.633   4.516   8.438  0.2318  0.2906 -0.2072
19804SOL    HW162943  10.625   4.476   8.525  1.4529 -0.9874 -0.6486
19804SOL    HW262944  10.703   4.581   8.449 -0.1162  0.6497 -0.0736
19805SOL     OW62945   9.588   2.068   4.623  0.1879  0.5555 -0.1534
19805SOL    HW162946   9.674   2.041   4.592  0.4022  0.3896  0.5706
19805SOL    HW262947   9.556   1.994   4.675 -0.6471  0.3775 -0.8997
19806SOL     OW62948   1.870   0.346   7.759 -0.4872 -0.0976  0.0785
19806SOL    HW162949   1.778   0.321   7.762 -0.8326  1.2134  2.0676
19806SOL    HW262950   1.912   0.292   7.827 -0.3877  1.3308  1.2061
19807SOL     OW62951   0.813   4.627   7.116 -0.5528 -0.1994  0.2871
19807SOL    HW162952   0.783   4.617   7.206 -0.0453 -1.2382  0.3547
19807SOL    HW262953   0.755   4.571   7.065  1.0471 -2.0552  0.3908
19808SOL     OW62954   9.639   0.348   6.351  0.8695  0.2924  0.4309
19808SOL    HW162955   9.548   0.376   6.351  0.0953 -2.0840 -0.1914
19808SOL    HW262956   9.689   0.429   6.338 -1.1521  1.5507  0.1716
19809SOL     OW62957   1.609   1.993   8.403 -0.0155 -0.2138  0.4496
19809SOL    HW162958   1.634   2.025   8.490 -1.1371  0.6865  0.4633
19809SOL    HW262959   1.600   1.899   8.414  1.3084 -0.3052  0.9292
19810SOL     OW62960  11.078   5.512   8.115 -0.1077 -0.1543 -0.7351
19810SOL    HW162961  10.983   5.504   8.104 -0.0163 -0.8037 -1.1218
19810SOL    HW262962  11.115   5.454   8.048  0.5582  0.0148 -0.5203
19811SOL     OW62963   5.634   9.104  10.520 -0.0230  0.1747  0.2984
19811SOL    HW162964   5.550   9.071  10.489 -0.3023  0.2354  0.9606
19811SOL    HW262965   5.684   9.025  10.542 -0.2470  0.1583  0.7580
19812SOL     OW62966   6.147   3.740  10.932 -0.2362  0.1448 -1.0363
19812SOL    HW162967   6.149   3.807  11.000  1.3111 -2.1662  1.4063
19812SOL    HW262968   6.056   3.709  10.932  0.0886 -1.0444  1.4137
19813SOL     OW62969   8.507   7.425   7.781 -0.8278 -0.0393 -0.2946
19813SOL    HW162970   8.523   7.339   7.819 -0.3206  0.1358 -0.1033
19813SOL    HW262971   8.412   7.433   7.779 -0.8806 -0.6390 -0.4009
19814SOL     OW62972   9.023   7.104   6.116 -0.3224  0.5856  0.2296
19814SOL    HW162973   9.055   7.181   6.162  0.6567 -0.2040  0.9163
19814SOL    HW262974   8.928   7.105   6.130 -0.2458  1.3284  0.7484
19815SOL     OW62975   1.199   6.064   8.758  0.4464 -0.3248  0.6530
19815SOL    HW162976   1.283   6.070   8.713  1.0450 -0.4308  1.7251
19815SOL    HW262977   1.159   5.984   8.724  1.0956 -0.6604  0.6655
19816SOL     OW62978   9.364   2.453   3.846 -0.2745  0.2336  0.1973
19816SOL    HW162979   9.358   2.363   3.813  0.5928 -0.1963  1.1743
19816SOL    HW262980   9.399   2.445   3.934  0.0275  1.5554  0.2270
19817SOL     OW62981   1.951   5.105   8.072 -0.6644 -0.7450  0.6200
19817SOL    HW162982   1.932   5.181   8.017 -1.2866 -0.2322  1.5136
19817SOL    HW262983   1.902   5.033   8.032  0.5442 -0.8988 -0.6865
19818SOL     OW62984   3.577   7.175   6.970  0.3354 -0.1010 -0.2907
19818SOL    HW162985   3.632   7.246   7.004  0.1040 -0.6818  1.4104
19818SOL    HW262986   3.638   7.120   6.920  0.9748  0.1574  0.1808
19819SOL     OW62987  10.878   8.040   1.137  0.1099 -0.1080  0.2664
19819SOL    HW162988  10.817   8.113   1.123 -0.3570 -0.3602  0.9421
19819SOL    HW262989  10.906   8.049   1.228 -1.0462 -1.5710  0.8072
19820SOL     OW62990   0.995   9.280   6.138 -0.2923  0.1417 -0.3804
19820SOL    HW162991   0.991   9.238   6.052 -1.1745 -1.9530  0.6040
19820SOL    HW262992   0.904   9.306   6.156 -0.1387  0.4414 -0.0326
19821SOL     OW62993   3.824   3.515   9.023  0.6715 -0.2406 -0.2273
19821SOL    HW162994   3.777   3.437   8.994  0.5222  0.2312 -1.2995
19821SOL    HW262995   3.787   3.536   9.109 -1.6220  0.5409 -1.3370
19822SOL     OW62996   5.541   1.966   6.357 -0.0729 -0.1798  0.1638
19822SOL    HW162997   5.611   1.995   6.298  1.6381 -2.6699  0.8251
19822SOL    HW262998   5.544   1.871   6.354 -2.0333 -0.3847  1.9080
19823SOL     OW62999   5.873   1.099   7.534 -0.4393 -0.0313  0.4390
19823SOL    HW163000   5.918   1.146   7.605 -0.6046  0.4336  0.2388
19823SOL    HW263001   5.942   1.078   7.472 -0.5204  0.8950  0.0144
19824SOL     OW63002   2.153   5.206   0.710 -0.3467  0.9728 -0.0322
19824SOL    HW163003   2.166   5.131   0.652 -1.9136  0.6914 -0.0486
19824SOL    HW263004   2.239   5.247   0.714  0.3917 -0.4396 -0.5487
19825SOL     OW63005   0.108   9.771   8.625  0.0100 -0.1209 -0.1273
19825SOL    HW163006   0.026   9.806   8.660 -0.2753 -2.1252  1.3622
19825SOL    HW263007   0.095   9.771   8.530 -2.5045 -2.0432  0.1112
19826SOL     OW63008   1.345  10.121   2.316  0.3792  0.3522 -0.1227
19826SOL    HW163009   1.404  10.194   2.333 -0.4465  0.8453  0.6889
19826SOL    HW263010   1.299  10.107   2.398 -1.5392  0.8160 -1.0431
19827SOL     OW63011   3.975   2.892   6.874 -0.0115 -0.4007 -0.7261
19827SOL    HW163012   4.048   2.846   6.915  0.0607 -0.1797 -0.6062
19827SOL    HW263013   3.976   2.979   6.914 -0.7398 -0.6044 -0.2375
19828SOL     OW63014   2.559   8.550   1.172  0.3625 -0.3211 -0.1225
19828SOL    HW163015   2.560   8.455   1.163 -0.5524 -0.6469  2.4171
19828SOL    HW263016   2.626   8.569   1.238  2.5587  1.1725 -2.5586
19829SOL     OW63017   1.882   4.135   2.079 -0.2018 -0.4258 -0.6767
19829SOL    HW163018   1.838   4.116   1.995 -0.3077 -0.6499 -0.5716
19829SOL    HW263019   1.836   4.080   2.142  1.4771 -2.1591 -0.8788
19830SOL     OW63020   3.111   3.982   1.193  0.6297  0.2805  0.1233
19830SOL    HW163021   3.159   3.993   1.111  0.1747 -0.8840 -0.3297
19830SOL    HW263022   3.117   4.067   1.236 -1.9640  2.0785 -2.6645
19831SOL     OW63023  10.724   5.919  10.473  0.3315  0.0064  0.1933
19831SOL    HW163024  10.747   5.991  10.414  0.0164  0.2133  0.3135
19831SOL    HW263025  10.795   5.916  10.537  0.3185  0.2513  0.2196
19832SOL     OW63026   8.658   6.610   0.706 -0.3440 -0.5469  0.5646
19832SOL    HW163027   8.615   6.555   0.641 -0.8096 -0.2861  0.6438
19832SOL    HW263028   8.593   6.621   0.775  0.3764 -1.3790  1.4073
19833SOL     OW63029   0.791  10.860   4.527 -0.0286 -0.6580 -0.3945
19833SOL    HW163030   0.712  10.818   4.562  1.1664 -2.4538  0.3167
19833SOL    HW263031   0.835  10.790   4.478  1.2021  0.2518 -0.6146
19834SOL     OW63032   1.209   3.067   2.758 -0.4954 -0.1293  0.0968
19834SOL    HW163033   1.233   3.050   2.849 -1.8817 -2.2539  0.1390
19834SOL    HW263034   1.119   3.100   2.763 -0.5725 -0.2387 -0.4948
19835SOL     OW63035   7.821   0.093   7.350  0.0916  0.0377  0.3510
19835SOL    HW163036   7.727   0.087   7.370  0.6010 -1.8500  2.6610
19835SOL    HW263037   7.850   0.172   7.397 -0.4653  1.2713 -1.2769
19836SOL     OW63038   5.036   4.529   2.747  0.6693  0.9093  0.1082
19836SOL    HW163039   4.966   4.587   2.718  1.1068  0.8937 -0.9891
19836SOL    HW263040   5.089   4.514   2.670  1.0173 -0.3269  0.5629
19837SOL     OW63041  10.667   5.979   2.955 -0.3598  0.3299  0.2857
19837SOL    HW163042  10.758   5.960   2.975  0.4035  0.6530 -2.4128
19837SOL    HW263043  10.639   5.906   2.899 -0.9053  1.4645 -0.9946
19838SOL     OW63044   1.378   5.629   4.997 -0.0916 -0.2261  0.0841
19838SOL    HW163045   1.301   5.661   5.042  1.1936  0.0239  2.2363
19838SOL    HW263046   1.355   5.634   4.904 -2.9825 -1.1202  0.6474
19839SOL     OW63047  10.072   4.964   5.114 -0.2883 -0.4410 -0.1347
19839SOL    HW163048  10.088   4.934   5.204  0.0748 -1.4972 -0.5336
19839SOL    HW263049  10.107   5.053   5.112 -0.3604 -0.3775  0.7846
19840SOL     OW63050   1.860   0.639   8.881  0.2390 -0.0958 -0.3958
19840SOL    HW163051   1.851   0.733   8.896  1.3554 -0.2133  1.4255
19840SOL    HW263052   1.771   0.605   8.887 -0.0129  0.6713  0.6140
19841SOL     OW63053   7.057  10.559   6.721  0.3332  0.1240  0.2833
19841SOL    HW163054   6.986  10.577   6.658 -0.3367 -1.6642  0.4680
19841SOL    HW263055   7.098  10.479   6.688  0.8937 -0.0369  1.3581
19842SOL     OW63056   2.320   5.042   2.768  0.3525  0.1742 -0.2007
19842SOL    HW163057   2.332   4.951   2.743  1.9102  0.0284  0.8592
19842SOL    HW263058   2.279   5.084   2.693 -2.0685 -1.7527 -0.0342
19843SOL     OW63059   5.966   9.853   8.962 -0.1290  0.2581  0.2603
19843SOL    HW163060   5.985   9.802   9.041 -2.0771 -0.6565  0.2203
19843SOL    HW263061   5.871   9.866   8.965 -0.0012  1.7372 -1.0466
19844SOL     OW63062   4.197   0.241   6.942 -0.2405 -0.4537  0.1490
19844SOL    HW163063   4.122   0.277   6.895  0.2980  0.9679  0.3254
19844SOL    HW263064   4.273   0.266   6.888  0.1230 -1.7919  0.0148
19845SOL     OW63065   9.017   2.069   8.192  0.3424  0.7432 -0.1096
19845SOL    HW163066   8.993   2.041   8.280  1.0038 -1.3271 -0.5259
19845SOL    HW263067   8.938   2.112   8.159  0.0054  1.3421  1.3865
19846SOL     OW63068   8.829   4.084   6.410 -0.0051 -0.0570 -0.0822
19846SOL    HW163069   8.912   4.045   6.384  0.9248  2.4676 -1.2530
19846SOL    HW263070   8.852   4.146   6.479 -0.3049  2.8470 -2.4069
19847SOL     OW63071   9.492   3.475   4.186  0.2668 -0.0045  0.0145
19847SOL    HW163072   9.432   3.493   4.113  2.0740 -0.2921 -1.6238
19847SOL    HW263073   9.444   3.505   4.264 -1.2972  1.3967 -1.3885
19848SOL     OW63074   2.027   1.997   4.209 -0.5246  0.3567 -0.0370
19848SOL    HW163075   2.031   2.077   4.156  0.9617 -1.2365 -2.5674
19848SOL    HW263076   1.994   2.026   4.294 -0.9360  3.4763 -1.1210
19849SOL     OW63077   8.868   3.204   8.154  0.2436 -0.1946 -0.5104
19849SOL    HW163078   8.909   3.120   8.177  1.2832 -0.0880 -1.8837
19849SOL    HW263079   8.844   3.195   8.062 -0.4500  0.7086 -0.4336
19850SOL     OW63080  10.558   2.812   3.035 -0.0469  0.0956 -0.3309
19850SOL    HW163081  10.543   2.727   2.995  2.3925 -0.9219  0.7212
19850SOL    HW263082  10.555   2.874   2.962 -0.5678 -1.0388 -1.3076
19851SOL     OW63083   6.018   4.723   8.467  0.3169 -0.0020  0.5129
19851SOL    HW163084   5.968   4.804   8.455  0.7853  0.2805  0.4721
19851SOL    HW263085   6.006   4.676   8.384 -1.2792 -0.7195  1.1105
19852SOL     OW63086   3.775   0.264   8.277 -0.1483  0.2628  0.1010
19852SOL    HW163087   3.741   0.255   8.366 -1.6193 -1.4687 -0.5448
19852SOL    HW263088   3.803   0.175   8.253 -1.6207  0.2295 -1.7852
19853SOL     OW63089   3.826   9.960   4.131 -0.1132  0.3103  0.2708
19853SOL    HW163090   3.902   9.936   4.079 -0.0130  2.3890 -0.6513
19853SOL    HW263091   3.863   9.988   4.215 -0.0061 -0.0989  0.3634
19854SOL     OW63092  10.637  10.122   5.862 -0.0203 -0.5301  0.0462
19854SOL    HW163093  10.601  10.121   5.773  0.8672 -2.0489 -0.3204
19854SOL    HW263094  10.728  10.150   5.850  0.1966 -1.0639  0.4347
19855SOL     OW63095  10.052   6.434   4.366  0.6067 -0.3864  0.1587
19855SOL    HW163096  10.069   6.342   4.345 -0.5197 -0.3870 -0.8229
19855SOL    HW263097   9.973   6.456   4.316  1.5195  1.4541 -0.5454
19856SOL     OW63098   3.133   4.024   0.744 -0.7622 -0.2863  0.1938
19856SOL    HW163099   3.182   4.026   0.826  0.5880  0.5618 -0.5866
19856SOL    HW263100   3.155   4.106   0.701 -0.3653 -1.2666 -1.5890
19857SOL     OW63101   3.017   6.571  11.126  0.0776 -0.1195  0.1594
19857SOL    HW163102   2.956   6.642  11.103  0.2612  0.0443  0.1796
19857SOL    HW263103   2.960   6.499  11.153 -0.0940  0.5029  1.5624
19858SOL     OW63104  10.915  10.605   8.973  0.1339  0.1624 -0.1547
19858SOL    HW163105  10.822  10.582   8.979  0.1165  0.3088  0.1380
19858SOL    HW263106  10.951  10.541   8.911 -0.1369  0.0328 -0.1818
19859SOL     OW63107   8.090   8.768   8.081 -0.7661  0.0428  0.1361
19859SOL    HW163108   7.999   8.769   8.051 -1.0942  0.5408  1.1066
19859SOL    HW263109   8.091   8.703   8.151  0.1308 -1.5834 -1.2998
19860SOL     OW63110   4.773   2.359   8.686  0.0278 -0.0282  0.4737
19860SOL    HW163111   4.775   2.364   8.782  0.7985  1.3633  0.4121
19860SOL    HW263112   4.787   2.449   8.658 -0.4284 -0.3889 -0.9576
19861SOL     OW63113   0.261   9.394   6.111  0.2231 -0.1570 -0.1458
19861SOL    HW163114   0.329   9.368   6.048  1.2204 -1.4846  1.4194
19861SOL    HW263115   0.180   9.360   6.073  1.1469 -3.3327  0.5097
19862SOL     OW63116   0.410   1.835   2.343 -0.3046 -0.5502 -0.3542
19862SOL    HW163117   0.449   1.775   2.280  1.6793 -0.4970  0.7284
19862SOL    HW263118   0.382   1.779   2.415  0.4687 -0.3268  0.1370
19863SOL     OW63119   4.901   0.090   4.755 -0.9934 -0.0646 -0.2139
19863SOL    HW163120   4.889   0.146   4.831 -3.8926  0.1587 -0.7327
19863SOL    HW263121   4.896   0.149   4.680  3.9955  0.0807 -0.7429
19864SOL     OW63122   0.680   5.108   4.376  0.5450 -0.0252 -0.0139
19864SOL    HW163123   0.760   5.060   4.399  0.4692 -0.2202 -0.1511
19864SOL    HW263124   0.707   5.165   4.304  0.5203 -0.2246 -0.1842
19865SOL     OW63125   5.222   2.208   2.468 -0.0943 -0.0673  0.2037
19865SOL    HW163126   5.253   2.290   2.506  0.3349  0.0412 -0.3577
19865SOL    HW263127   5.294   2.180   2.411 -1.0904  0.2970 -1.2970
19866SOL     OW63128   1.063   7.205   1.605  0.0878  0.7688 -0.1490
19866SOL    HW163129   1.043   7.121   1.647 -0.0719  1.1419  0.5425
19866SOL    HW263130   1.141   7.237   1.652 -0.9575  1.8853  0.8973
19867SOL     OW63131   2.149  10.109  10.216 -0.0448  0.0247  0.2320
19867SOL    HW163132   2.163  10.160  10.136 -0.8496 -0.0371  0.0440
19867SOL    HW263133   2.208  10.149  10.281  2.1331 -1.1738 -0.8869
19868SOL     OW63134   4.850   5.363   1.029  0.3463 -0.2992 -0.4419
19868SOL    HW163135   4.798   5.347   0.950  0.5134 -3.3732 -0.0677
19868SOL    HW263136   4.822   5.294   1.089  0.9536  1.3552  1.8246
19869SOL     OW63137   2.250  10.592   2.378 -0.1486 -0.2197  0.1616
19869SOL    HW163138   2.191  10.530   2.421 -1.9025  1.7228  0.7421
19869SOL    HW263139   2.330  10.591   2.431 -0.5001 -1.2977  0.6892
19870SOL     OW63140  10.751   1.980   6.856 -0.0709  0.1238  0.3780
19870SOL    HW163141  10.836   1.978   6.900 -0.0467  1.3598  0.4125
19870SOL    HW263142  10.690   2.012   6.923 -0.4377 -0.0782  0.1440
19871SOL     OW63143  10.583   3.712   2.439  0.2428 -0.0730  0.2867
19871SOL    HW163144  10.644   3.767   2.389 -0.4998  0.8933  0.4034
19871SOL    HW263145  10.535   3.663   2.372 -0.4639  0.9130  0.0333
19872SOL     OW63146  10.271   3.273   6.392  0.6859 -0.2101  0.6420
19872SOL    HW163147  10.222   3.246   6.470  2.2485  2.2397  2.6197
19872SOL    HW263148  10.210   3.326   6.342 -0.3806 -1.9218  0.0298
19873SOL     OW63149   2.756  10.117  10.733 -0.0011 -0.3202 -0.0150
19873SOL    HW163150   2.804  10.182  10.681 -0.3670 -0.1976 -0.1999
19873SOL    HW263151   2.685  10.167  10.773  0.6222 -0.2876  1.0846
19874SOL     OW63152   8.328   6.766   6.885  0.0102  0.0810  0.4681
19874SOL    HW163153   8.328   6.823   6.962  0.8940  1.7990 -0.7393
19874SOL    HW263154   8.381   6.691   6.910 -0.6379  0.0661  1.8822
19875SOL     OW63155   8.681   7.412   6.549 -0.0594 -0.4240  0.0640
19875SOL    HW163156   8.717   7.475   6.611  0.5343  0.7349 -1.3959
19875SOL    HW263157   8.590   7.438   6.537 -0.2934 -0.9098  0.7544
19876SOL     OW63158   2.273   1.931   9.917  0.1900 -0.0971 -0.4069
19876SOL    HW163159   2.254   1.888   9.833 -1.0801  0.5049 -0.4627
19876SOL    HW263160   2.280   1.858   9.980 -2.1478 -0.4665 -0.4539
19877SOL     OW63161   4.308   8.279   1.058  0.1157  0.6716  0.0689
19877SOL    HW163162   4.320   8.331   1.138 -0.8258  2.2829 -0.7879
19877SOL    HW263163   4.235   8.320   1.013 -1.6820 -2.2809 -0.0140
19878SOL     OW63164   1.469   3.335  10.795 -0.0627 -0.4328  0.2003
19878SOL    HW163165   1.500   3.404  10.854  1.0455 -0.1496 -0.6719
19878SOL    HW263166   1.414   3.280  10.850 -1.7315  1.6285  0.7422
19879SOL     OW63167   9.716  10.102   5.177 -0.3008 -0.1097 -0.0704
19879SOL    HW163168   9.678  10.075   5.094  1.1716 -0.2606 -0.7213
19879SOL    HW263169   9.806  10.128   5.156 -0.8622  3.0272  0.9058
19880SOL     OW63170   9.072   1.662   0.194 -0.0267  0.4810 -0.0576
19880SOL    HW163171   9.053   1.573   0.223  2.2431 -0.2063 -0.4700
19880SOL    HW263172   9.051   1.662   0.100  0.5528  0.1954 -0.1874
19881SOL     OW63173   8.566   1.742   9.249 -0.5683 -0.3884  1.0300
19881SOL    HW163174   8.621   1.786   9.315 -0.5986 -0.7713  1.3136
19881SOL    HW263175   8.487   1.718   9.297 -1.0905  0.3587  0.5687
19882SOL     OW63176   7.171   3.373   0.456  0.0138  0.2756 -0.1070
19882SOL    HW163177   7.176   3.332   0.370  0.4381 -1.5633  0.7496
19882SOL    HW263178   7.111   3.317   0.505 -0.6042  1.5727  0.6730
19883SOL     OW63179   9.640   7.271   0.554  0.1580 -0.6678  0.4939
19883SOL    HW163180   9.546   7.256   0.547  0.1817 -0.3966 -0.4929
19883SOL    HW263181   9.672   7.199   0.608 -0.1654 -2.5331 -1.6446
19884SOL     OW63182   8.279   9.127   4.320  0.0882  0.2327  0.0000
19884SOL    HW163183   8.256   9.156   4.409  3.6668  1.1154  0.7761
19884SOL    HW263184   8.327   9.046   4.334 -1.7127 -1.1796 -1.4656
19885SOL     OW63185   7.652   6.208   4.392 -0.3082  0.6653  0.0509
19885SOL    HW163186   7.568   6.227   4.435 -0.2777  1.7447 -0.3332
19885SOL    HW263187   7.658   6.273   4.322  0.3259 -0.1447 -0.6583
19886SOL     OW63188   3.551   5.021   9.274  0.2978  0.1185  0.6085
19886SOL    HW163189   3.553   5.112   9.246  2.2061  0.1141  0.6067
19886SOL    HW263190   3.530   5.025   9.367 -1.0010  0.4498  0.3169
19887SOL     OW63191   3.100   9.131   6.914 -0.1819 -0.3276 -0.4124
19887SOL    HW163192   3.112   9.226   6.916  1.4300 -0.4462 -1.5873
19887SOL    HW263193   3.117   9.103   7.004 -1.6775  0.5569  0.1808
19888SOL     OW63194   1.790   8.134   1.978  0.1130 -0.3654  0.0287
19888SOL    HW163195   1.828   8.209   1.932 -2.7265  1.0430 -0.1899
19888SOL    HW263196   1.843   8.126   2.057  1.3181  1.0036 -0.5909
19889SOL     OW63197  10.349   1.270   4.440 -0.3336 -0.0962 -0.1343
19889SOL    HW163198  10.394   1.208   4.382 -0.0133  0.8985 -0.9917
19889SOL    HW263199  10.260   1.235   4.448  0.1621 -1.2963  0.3827
19890SOL     OW63200   6.638   7.687   5.446  0.9365  0.0869 -0.1460
19890SOL    HW163201   6.697   7.692   5.521 -0.6202  2.2269  1.0505
19890SOL    HW263202   6.570   7.752   5.464 -0.2913 -0.3208 -2.7629
19891SOL     OW63203   6.816   3.507   0.438 -0.2130  0.2955 -0.1334
19891SOL    HW163204   6.838   3.452   0.512  3.0416  1.3435 -0.1200
19891SOL    HW263205   6.877   3.480   0.369  0.2669  2.5820 -0.7076
19892SOL     OW63206   8.743   3.499   8.047  0.3643  0.4265  0.5770
19892SOL    HW163207   8.665   3.482   7.994  0.6474 -0.5127  0.4540
19892SOL    HW263208   8.775   3.412   8.072  1.8037  0.7588 -0.0040
19893SOL     OW63209   6.843  10.901   1.513  0.3470  0.0176  0.6827
19893SOL    HW163210   6.851  10.818   1.558  0.3614  0.2990  1.2068
19893SOL    HW263211   6.931  10.918   1.478 -0.0042 -0.9054 -0.7393
19894SOL     OW63212   1.512   6.984   6.396 -0.5330 -0.6481 -0.0063
19894SOL    HW163213   1.601   7.006   6.369 -1.2078  0.1134 -1.7185
19894SOL    HW263214   1.470   7.068   6.414 -2.2179 -0.5139 -3.6722
19895SOL     OW63215   5.462   3.511   1.999 -0.1846  0.6648  0.1931
19895SOL    HW163216   5.551   3.535   1.975 -0.3946  1.7706  0.4610
19895SOL    HW263217   5.428   3.464   1.923  1.0097 -0.8538  0.5505
19896SOL     OW63218   5.096   3.157   3.694 -0.6131 -0.2294 -0.2019
19896SOL    HW163219   5.021   3.146   3.636  0.1080 -1.1622 -0.9727
19896SOL    HW263220   5.159   3.092   3.665  1.5476  2.1512 -1.1999
19897SOL     OW63221   9.384   5.124   5.201  0.5973 -0.0343 -0.0792
19897SOL    HW163222   9.459   5.153   5.252  1.2899 -0.1586 -1.0009
19897SOL    HW263223   9.390   5.028   5.202 -0.6610 -0.1320  1.4493
19898SOL     OW63224   0.691   7.048  10.274 -0.0661  0.9042  0.3840
19898SOL    HW163225   0.685   7.100  10.355  0.8889 -0.2193  1.1976
19898SOL    HW263226   0.718   7.111  10.208 -1.3694  1.9566  0.8047
19899SOL     OW63227  10.242   4.109   1.832  0.2517  0.3662 -0.2336
19899SOL    HW163228  10.302   4.035   1.839  0.1520  0.3603  0.7923
19899SOL    HW263229  10.294   4.185   1.860 -0.3070  0.3010  1.0626
19900SOL     OW63230   2.700   7.682   7.907  0.1573  0.3293  0.4252
19900SOL    HW163231   2.684   7.650   7.818  1.6532  0.4043  0.0929
19900SOL    HW263232   2.624   7.653   7.957 -0.7981  0.4264 -0.9004
19901SOL     OW63233   0.448   3.475   5.404 -0.6184  0.3860  0.5309
19901SOL    HW163234   0.516   3.409   5.420  0.2853  1.2479  0.3167
19901SOL    HW263235   0.432   3.470   5.309  0.4468  1.3942  0.2736
19902SOL     OW63236   7.016   5.858  10.677 -0.1338  0.0267 -0.2472
19902SOL    HW163237   7.008   5.764  10.661  0.9631 -0.2980  0.9457
19902SOL    HW263238   7.089   5.886  10.623  0.1766 -0.0177  0.1425
19903SOL     OW63239   3.382   2.751   8.029 -0.3222 -0.7086 -0.3388
19903SOL    HW163240   3.327   2.798   7.966 -1.0394 -1.9106 -0.6418
19903SOL    HW263241   3.395   2.813   8.100 -0.8248  0.1215 -0.9466
19904SOL     OW63242   5.340   6.756   5.367 -0.0467  0.7608 -0.0594
19904SOL    HW163243   5.258   6.724   5.329  1.3701 -2.6520 -0.6597
19904SOL    HW263244   5.400   6.759   5.293  1.0588  0.4798  0.8031
19905SOL     OW63245   9.915   1.833   1.060 -0.5912  0.0698 -0.0158
19905SOL    HW163246   9.975   1.887   1.111 -1.1771 -0.0042  0.7704
19905SOL    HW263247   9.906   1.753   1.112  0.2142 -0.7719 -1.1349
19906SOL     OW63248   9.957   6.394   6.727 -0.2538  0.3286  0.1261
19906SOL    HW163249  10.042   6.438   6.736 -0.8834  1.8266 -0.9401
19906SOL    HW263250   9.903   6.432   6.796 -0.0666 -0.7148  0.8831
19907SOL     OW63251   1.273   4.375   9.672 -0.5207 -0.1898  0.3205
19907SOL    HW163252   1.349   4.420   9.711  0.2457 -0.9134 -0.3024
19907SOL    HW263253   1.301   4.283   9.665 -0.5939 -0.0727 -2.0291
19908SOL     OW63254   2.994   9.898   3.698 -0.8249  0.1868 -0.3377
19908SOL    HW163255   2.953   9.814   3.678  0.1203 -0.4101  0.1473
19908SOL    HW263256   3.023   9.931   3.613  0.0275 -0.6494 -0.3899
19909SOL     OW63257   6.969  10.419   5.907 -0.0117 -0.2486  0.6908
19909SOL    HW163258   6.929  10.447   5.825  0.3290 -1.8983 -0.0892
19909SOL    HW263259   6.896  10.384   5.958  0.0482 -1.0171  0.2671
19910SOL     OW63260   4.532   9.839   7.597  0.3175  0.7769 -0.2753
19910SOL    HW163261   4.455   9.825   7.653  0.6494  0.3443  0.0779
19910SOL    HW263262   4.603   9.860   7.658  0.1963  2.5322 -0.6813
19911SOL     OW63263   8.058   9.102   0.491  0.4715 -0.1922  0.1060
19911SOL    HW163264   8.080   9.009   0.491  1.0083 -0.0705  0.0512
19911SOL    HW263265   7.968   9.106   0.523  0.9816 -0.6261  1.7058
19912SOL     OW63266  10.902   7.509   9.604  0.6696  0.7046 -0.0288
19912SOL    HW163267  10.825   7.510   9.661  2.6972  0.5889  2.9406
19912SOL    HW263268  10.959   7.443   9.643  3.1670  2.2654 -0.8258
19913SOL     OW63269   8.659   0.378  10.028 -0.0474  0.1006  0.4105
19913SOL    HW163270   8.722   0.439  10.066 -0.8093  1.0003  0.2624
19913SOL    HW263271   8.583   0.432  10.008 -0.5773 -0.8257 -0.1243
19914SOL     OW63272   0.301   8.813   3.493 -0.1504 -0.5519  1.1233
19914SOL    HW163273   0.380   8.777   3.533 -0.5293 -1.3038  1.2058
19914SOL    HW263274   0.260   8.864   3.563  0.7052  0.6021  0.8312
19915SOL     OW63275   9.559   5.958  10.222  0.3551  0.4023 -0.4833
19915SOL    HW163276   9.549   5.867  10.248 -0.4019  0.5690 -0.1665
19915SOL    HW263277   9.638   5.988  10.267 -1.3115  0.9049  2.3362
19916SOL     OW63278   1.716   7.584   4.851  0.0682 -0.2088  0.2954
19916SOL    HW163279   1.723   7.649   4.920  0.8967 -0.9544  0.9355
19916SOL    HW263280   1.622   7.574   4.837 -0.0726  1.2366  0.0583
19917SOL     OW63281  10.606   2.963   0.076  0.1454 -0.1720  0.3586
19917SOL    HW163282  10.668   2.948   0.005  0.7350 -0.7401  0.9765
19917SOL    HW263283  10.621   3.054   0.102  2.1105 -0.8067  1.7516
19918SOL     OW63284   0.457  10.630  10.034  0.4875 -0.3538  0.1689
19918SOL    HW163285   0.413  10.667   9.957 -0.6997 -0.0223  0.9755
19918SOL    HW263286   0.410  10.669  10.108  0.2780 -2.2274  1.0580
19919SOL     OW63287   8.661   8.033   2.535 -0.2995 -0.1525  0.0862
19919SOL    HW163288   8.600   8.059   2.604  0.6184  0.6202  0.6357
19919SOL    HW263289   8.740   8.005   2.582 -0.3804 -1.6354 -0.5912
19920SOL     OW63290   4.589   9.099   7.032 -0.0906  0.3170 -0.3931
19920SOL    HW163291   4.643   9.096   7.111  0.9635  0.7282 -1.0714
19920SOL    HW263292   4.651   9.120   6.962 -1.1948  1.1344 -1.1511
19921SOL     OW63293   0.151   8.518   8.944 -0.1183 -0.3565  0.0442
19921SOL    HW163294   0.076   8.476   8.901 -0.5811 -0.1145  0.6069
19921SOL    HW263295   0.117   8.602   8.974  0.9653  0.7663 -1.6808
19922SOL     OW63296   5.543   6.955   3.730 -0.4038 -0.2442 -0.1064
19922SOL    HW163297   5.453   6.927   3.716 -0.2945 -0.4998 -0.3132
19922SOL    HW263298   5.540   7.050   3.723 -0.1237 -0.3628 -3.5712
19923SOL     OW63299   1.542   3.257   7.133 -0.1205  0.9685  0.3902
19923SOL    HW163300   1.523   3.351   7.126 -0.5088  0.8137 -0.9916
19923SOL    HW263301   1.625   3.252   7.181  0.4598  2.0827 -0.4531
19924SOL     OW63302  10.909   8.466   2.671 -0.3259 -0.7180  0.4325
19924SOL    HW163303  10.829   8.419   2.696 -0.2220 -1.0069  0.2405
19924SOL    HW263304  10.887   8.508   2.588 -0.4769 -0.2755  0.6953
19925SOL     OW63305   2.281  10.830   5.625  0.4549  0.3590  0.0796
19925SOL    HW163306   2.339  10.758   5.602 -2.2838 -1.4645 -1.7333
19925SOL    HW263307   2.315  10.863   5.708  2.1887 -2.6801  0.7228
19926SOL     OW63308   7.434   7.450   5.077  0.1435 -0.0947  0.0673
19926SOL    HW163309   7.400   7.517   5.136 -1.6315 -1.8019  1.1155
19926SOL    HW263310   7.442   7.494   4.992 -0.8431  1.4669  0.7324
19927SOL     OW63311  10.033   7.796   2.970  0.2565 -0.0601  0.0399
19927SOL    HW163312  10.022   7.855   2.896 -0.5072 -0.7165 -0.3808
19927SOL    HW263313  10.127   7.799   2.989  0.1991  1.4484  0.1820
19928SOL     OW63314   3.818   8.215   1.665  0.1190 -0.1443  0.3548
19928SOL    HW163315   3.826   8.198   1.759 -0.3968  0.2062  0.4685
19928SOL    HW263316   3.773   8.138   1.631  1.0721 -0.6625  0.2462
19929SOL     OW63317   8.966   9.025   8.829 -0.5728  0.3128 -0.0627
19929SOL    HW163318   8.889   9.010   8.773  1.0303  1.1651 -2.6250
19929SOL    HW263319   9.019   8.946   8.818 -0.3071  0.4205  0.4067
19930SOL     OW63320   3.263   6.719   6.714  0.0658 -0.0750  0.1693
19930SOL    HW163321   3.295   6.632   6.742  0.6384 -0.4172 -1.4645
19930SOL    HW263322   3.177   6.727   6.756  0.7629 -0.6571  1.7897
19931SOL     OW63323   2.761   3.523   9.254  0.4038 -0.5162 -0.7751
19931SOL    HW163324   2.726   3.611   9.245  0.5064 -0.4253 -0.3480
19931SOL    HW263325   2.804   3.523   9.340  2.7716 -0.1661 -1.8642
19932SOL     OW63326   6.166   9.976   7.880  0.7945 -0.7213  0.0799
19932SOL    HW163327   6.235   9.957   7.817  1.9030 -1.4252  1.4501
19932SOL    HW263328   6.194   9.933   7.960 -2.1550 -2.6633  0.2182
19933SOL     OW63329   4.692   9.210   6.043  0.3626 -0.4795  0.3704
19933SOL    HW163330   4.639   9.206   6.122 -0.6989  0.7925 -0.2494
19933SOL    HW263331   4.653   9.146   5.984 -0.5629  0.5013 -0.1094
19934SOL     OW63332   6.559   5.198   9.885  0.3627  0.0687  0.0716
19934SOL    HW163333   6.630   5.254   9.917  1.6641 -1.4684 -0.0190
19934SOL    HW263334   6.480   5.236   9.924  1.2618  1.5600  0.5444
19935SOL     OW63335   7.659   1.265   1.877  0.6735 -0.1915  0.3503
19935SOL    HW163336   7.666   1.258   1.972  1.5693  1.1020  0.4099
19935SOL    HW263337   7.750   1.265   1.846  0.3775 -2.5404 -0.7019
19936SOL     OW63338   2.520   0.901   8.299 -0.2408  0.4822 -0.3382
19936SOL    HW163339   2.449   0.843   8.326  0.6995 -0.7775 -0.5108
19936SOL    HW263340   2.546   0.946   8.379  0.6842 -1.1990  0.3522
19937SOL     OW63341   2.838   1.269   5.449 -0.1063 -0.5621  0.3317
19937SOL    HW163342   2.745   1.282   5.468  0.1563 -0.7088  1.7806
19937SOL    HW263343   2.841   1.258   5.354 -1.5223 -0.1790  0.2199
19938SOL     OW63344   4.554   4.227   6.388 -0.1194  0.6389  0.8537
19938SOL    HW163345   4.460   4.247   6.382 -0.2518 -0.0352  0.5617
19938SOL    HW263346   4.595   4.283   6.323 -0.6206 -0.8118 -0.7881
19939SOL     OW63347   0.489   8.164   2.405  0.8235 -0.4242  0.0681
19939SOL    HW163348   0.421   8.098   2.414 -1.4914  1.8836  0.6570
19939SOL    HW263349   0.495   8.205   2.492  1.1057  1.1002 -0.6304
19940SOL     OW63350  10.407   7.139   8.639 -0.3931 -0.0016 -0.1639
19940SOL    HW163351  10.383   7.222   8.682  0.7368 -0.4502  1.4425
19940SOL    HW263352  10.404   7.074   8.710  0.2567 -1.0512 -1.0659
19941SOL     OW63353   7.968   6.230   8.017  0.1936  0.2179  0.4083
19941SOL    HW163354   7.977   6.309   7.963  1.1435  0.6171  1.1142
19941SOL    HW263355   7.969   6.158   7.954 -0.2207  0.7444 -0.2129
19942SOL     OW63356   8.716   5.157   1.641  0.5579  0.2008 -0.1617
19942SOL    HW163357   8.779   5.209   1.592  1.4175 -1.5318 -0.9895
19942SOL    HW263358   8.770   5.098   1.694 -0.3609 -0.3141  0.2281
19943SOL     OW63359   7.418   9.159   6.699 -0.2433  0.0691 -0.6395
19943SOL    HW163360   7.388   9.237   6.746 -0.6533 -1.3727  1.5943
19943SOL    HW263361   7.513   9.170   6.692 -0.1373  0.1633  0.8275
19944SOL     OW63362   6.492  10.037  10.136 -0.0195  0.4463 -0.3465
19944SOL    HW163363   6.422  10.086  10.092  1.0548  2.1156 -0.2886
19944SOL    HW263364   6.498  10.077  10.223 -1.6158 -2.3164  1.1426
19945SOL     OW63365   5.721   7.894   7.853  0.0190  0.0917  0.0201
19945SOL    HW163366   5.677   7.922   7.773  0.7259 -1.2628 -0.8938
19945SOL    HW263367   5.673   7.816   7.880  0.9416 -0.5902 -0.2124
19946SOL     OW63368   7.789  10.408   4.049  0.2363  0.3744  0.1177
19946SOL    HW163369   7.754  10.331   4.094 -0.9673  1.8131  1.7656
19946SOL    HW263370   7.876  10.420   4.086 -0.3745  0.9771  1.4006
19947SOL     OW63371   9.391   4.897   9.428 -0.6196  0.9759  0.1017
19947SOL    HW163372   9.472   4.849   9.447 -0.9505  0.0010 -0.8364
19947SOL    HW263373   9.322   4.841   9.465 -0.8857  1.8128  0.9207
19948SOL     OW63374  10.326  10.487   5.180  0.7057  0.0257  0.8886
19948SOL    HW163375  10.299  10.395   5.180  0.3494  0.0740 -1.2706
19948SOL    HW263376  10.245  10.536   5.167  1.0206  0.5675  0.9440
19949SOL     OW63377   2.656   5.239   0.337  0.0503  0.2660  0.0420
19949SOL    HW163378   2.705   5.210   0.414  0.1073  0.4311  0.0677
19949SOL    HW263379   2.669   5.334   0.335  0.7373  0.1690 -0.6488
19950SOL     OW63380   6.361   8.278  10.564  0.3982  0.3498 -0.3470
19950SOL    HW163381   6.379   8.343  10.632 -0.9126  0.8945 -0.5032
19950SOL    HW263382   6.276   8.303  10.528  0.2790 -0.9357 -1.0174
19951SOL     OW63383   0.991   8.737   6.688 -0.1245 -0.1539 -0.3438
19951SOL    HW163384   1.055   8.691   6.743 -0.9310 -1.4991 -0.5065
19951SOL    HW263385   1.037   8.817   6.661  0.9064 -0.3008  0.8591
19952SOL     OW63386   8.391   1.920   3.613 -0.4413  0.2696  0.7203
19952SOL    HW163387   8.371   1.826   3.606  0.8811  0.0525 -0.5274
19952SOL    HW263388   8.358   1.945   3.700  0.5551 -1.7072  1.7349
19953SOL     OW63389   8.573   7.229  10.373  0.1147 -0.4069  0.0640
19953SOL    HW163390   8.544   7.276  10.451 -0.8711 -0.1878 -0.4183
19953SOL    HW263391   8.553   7.137  10.391  1.3466 -0.5836  0.6942
19954SOL     OW63392   5.621   1.264   2.218 -0.3966  0.1080 -0.1524
19954SOL    HW163393   5.555   1.199   2.196 -0.6806  0.8332 -1.5106
19954SOL    HW263394   5.700   1.213   2.236 -1.0852 -0.7054  0.6143
19955SOL     OW63395   9.117   0.338   6.604  0.0157 -0.3237  0.4917
19955SOL    HW163396   9.086   0.247   6.611 -1.0650 -0.0476 -0.4161
19955SOL    HW263397   9.039   0.387   6.577  0.3310  1.0474  1.9611
19956SOL     OW63398   4.377   0.514   7.152 -0.0125 -0.2450  0.2598
19956SOL    HW163399   4.410   0.550   7.070 -0.5547  0.8491  0.5009
19956SOL    HW263400   4.382   0.419   7.140 -0.1477 -0.1078 -1.0593
19957SOL     OW63401   7.473  10.831   0.349  0.2704  0.0529  0.3612
19957SOL    HW163402   7.495  10.805   0.260  0.1756  1.4833 -0.0980
19957SOL    HW263403   7.477  10.927   0.348 -2.0477  0.2209  1.2748
19958SOL     OW63404   7.809   7.305   5.987 -0.1358 -0.1169  0.0945
19958SOL    HW163405   7.733   7.336   5.939 -1.3678 -2.2234  0.5058
19958SOL    HW263406   7.772   7.265   6.067  1.5972  0.7761  1.4197
19959SOL     OW63407   4.948   7.621   8.142 -0.0042  0.6778 -1.2141
19959SOL    HW163408   4.968   7.560   8.071  0.3471 -0.0523 -0.5003
19959SOL    HW263409   5.005   7.594   8.214  1.6077  3.0293 -1.4650
19960SOL     OW63410  10.882   6.603   9.040  0.3333  0.2198 -0.6211
19960SOL    HW163411  10.820   6.584   8.969 -0.0495 -1.4867  0.1100
19960SOL    HW263412  10.842   6.563   9.117  2.5187 -1.3370 -0.1968
19961SOL     OW63413   2.924   7.124   7.214 -0.3620 -0.0608 -0.1061
19961SOL    HW163414   2.911   7.033   7.189 -0.8704 -0.2646  0.8773
19961SOL    HW263415   2.997   7.153   7.159 -0.5341 -0.8957 -0.8020
19962SOL     OW63416   5.827   8.636   3.939 -0.0765  0.2244 -0.3297
19962SOL    HW163417   5.741   8.620   3.901  0.4726 -0.0031 -1.5065
19962SOL    HW263418   5.839   8.565   4.002 -0.6276  0.0935 -0.3711
19963SOL     OW63419   8.373   5.638   7.314  0.6023  0.5462 -0.3765
19963SOL    HW163420   8.389   5.703   7.382 -1.0942  1.5061 -0.8196
19963SOL    HW263421   8.368   5.689   7.233 -0.6256 -0.1179 -0.7543
19964SOL     OW63422   3.990   6.533   6.663 -0.0071 -0.6875  0.2087
19964SOL    HW163423   3.968   6.621   6.696  1.5957  0.3907 -1.3771
19964SOL    HW263424   4.016   6.484   6.741 -0.3321  0.4488  1.0630
19965SOL     OW63425   0.153   7.084   1.936 -0.2281  0.6613 -0.1776
19965SOL    HW163426   0.177   7.037   1.857 -3.9701 -1.2186 -0.4396
19965SOL    HW263427   0.135   7.016   2.001 -1.3579  1.9286  0.9296
19966SOL     OW63428   5.907   4.481   2.207 -0.0496 -0.5621  0.3459
19966SOL    HW163429   5.846   4.488   2.280 -1.8612  1.4694 -1.2197
19966SOL    HW263430   5.954   4.565   2.207 -1.5044  0.3627 -1.8811
19967SOL     OW63431   5.341   2.401   6.576 -0.5666 -0.0255  0.0387
19967SOL    HW163432   5.276   2.391   6.507  0.3851 -0.6505 -0.7866
19967SOL    HW263433   5.290   2.422   6.654 -1.8373 -1.4436 -0.3702
19968SOL     OW63434   4.392  10.146   2.063 -0.0367  0.0442 -0.0108
19968SOL    HW163435   4.347  10.067   2.094 -1.9347  0.8109 -0.6611
19968SOL    HW263436   4.453  10.168   2.134 -0.5165 -1.1750  0.8192
19969SOL     OW63437   5.576   1.285  10.410  0.0443 -0.2733  0.3056
19969SOL    HW163438   5.547   1.293  10.319 -0.6090  0.4685  0.5710
19969SOL    HW263439   5.636   1.358  10.423 -0.3648  0.0161  0.6435
19970SOL     OW63440   8.151  10.808   9.020  0.4802 -0.0289  0.0748
19970SOL    HW163441   8.131  10.798   9.113  2.3415  1.0099  0.6372
19970SOL    HW263442   8.247  10.802   9.015  0.4446  0.2501 -1.7400
19971SOL     OW63443   3.716  11.048   3.411  0.4910 -0.3915 -0.3420
19971SOL    HW163444   3.766  10.976   3.450 -0.0903  0.7094  2.7191
19971SOL    HW263445   3.773  11.124   3.417  0.0611 -0.0019 -0.9533
19972SOL     OW63446  11.048   7.443   8.374 -0.0982  0.6946 -0.3985
19972SOL    HW163447  10.962   7.462   8.411 -0.2530 -0.4513 -0.1388
19972SOL    HW263448  11.041   7.354   8.340  1.4587 -0.1001  1.1575
19973SOL     OW63449   8.338   3.499   6.186 -0.7838  0.0723 -0.1013
19973SOL    HW163450   8.432   3.509   6.172 -0.8555  0.2764 -0.4305
19973SOL    HW263451   8.326   3.513   6.280 -0.3606 -0.8757  0.1131
19974SOL     OW63452   6.237   5.623  10.089 -0.5478  0.1155 -0.2855
19974SOL    HW163453   6.187   5.611  10.008 -1.0979  1.1985 -0.1350
19974SOL    HW263454   6.214   5.712  10.118  0.8392  0.3332  0.2307
19975SOL     OW63455   5.595   4.208  10.040 -0.0269 -0.1118 -0.2593
19975SOL    HW163456   5.591   4.243  10.129 -0.8950  1.6204 -0.9394
19975SOL    HW263457   5.683   4.232  10.010 -0.4948  1.3065 -0.6029
19976SOL     OW63458   2.176   2.681   6.732  0.4062 -0.6017  0.1199
19976SOL    HW163459   2.271   2.688   6.722  0.3383 -1.6917 -1.7759
19976SOL    HW263460   2.146   2.771   6.744  1.8102 -0.3899  2.8792
19977SOL     OW63461   4.092   9.683   3.067 -0.0401  0.8933  0.4968
19977SOL    HW163462   4.069   9.677   3.160 -0.6274 -1.8290  0.2515
19977SOL    HW263463   4.011   9.711   3.024 -0.0457  1.1652  0.6766
19978SOL     OW63464   1.773   6.955   3.706  0.2163 -1.0497 -0.4799
19978SOL    HW163465   1.804   7.044   3.688 -0.2109 -0.6900  0.5016
19978SOL    HW263466   1.747   6.921   3.620  2.0250 -0.8737 -1.1270
19979SOL     OW63467   7.279  10.190   3.778 -0.1528  0.3333  0.1053
19979SOL    HW163468   7.201  10.205   3.832 -1.3732  2.0792 -1.9598
19979SOL    HW263469   7.328  10.272   3.785  0.9589 -0.3552  0.5165
19980SOL     OW63470   6.093   5.575   9.856 -0.6760  0.4067 -0.1288
19980SOL    HW163471   6.112   5.610   9.769 -1.1876  1.7191  0.2654
19980SOL    HW263472   6.001   5.548   9.851 -1.0947  1.6764  0.3578
19981SOL     OW63473   8.300   0.078   5.143  0.2544  0.1061 -0.2008
19981SOL    HW163474   8.315   0.011   5.211 -0.9783  0.4176  0.4040
19981SOL    HW263475   8.367   0.145   5.161  0.9453 -0.5412 -0.2773
19982SOL     OW63476   8.508   8.394   3.662 -0.0132  0.0775 -0.3677
19982SOL    HW163477   8.542   8.329   3.723  1.9338 -0.4655 -1.9387
19982SOL    HW263478   8.421   8.415   3.696 -0.3502 -2.6490  0.7336
19983SOL     OW63479   2.787   1.357   7.403 -0.5299  0.2780  0.0573
19983SOL    HW163480   2.875   1.387   7.380 -0.7899  0.8006 -0.2477
19983SOL    HW263481   2.738   1.437   7.420 -1.6731  0.1715 -2.3421
19984SOL     OW63482   5.511   3.469   5.125  0.3110  0.4539  0.7776
19984SOL    HW163483   5.433   3.425   5.160 -0.0095 -2.3190 -2.8864
19984SOL    HW263484   5.477   3.530   5.060  1.1428  0.8769  0.7252
19985SOL     OW63485  10.173   7.102   9.175  0.2059 -0.0173 -0.6270
19985SOL    HW163486  10.100   7.163   9.190  1.0422  0.7687  0.4315
19985SOL    HW263487  10.251   7.153   9.195  1.0626 -0.8569 -1.7143
19986SOL     OW63488   5.592   0.252  11.040  0.1414 -0.3819 -0.8195
19986SOL    HW163489   5.635   0.222  10.960  0.7507  0.0019 -0.6424
19986SOL    HW263490   5.605   0.180  11.103 -1.5436 -1.2936 -1.4565
19987SOL     OW63491  10.788   2.572   3.438  0.3663  0.9794  0.0376
19987SOL    HW163492  10.789   2.632   3.364 -1.1599  2.5658  1.2308
19987SOL    HW263493  10.781   2.485   3.398 -0.5280  1.7970 -1.6787
19988SOL     OW63494   2.001   5.877   9.829  0.0634 -0.4105  0.1467
19988SOL    HW163495   1.943   5.804   9.852 -0.0467 -1.3253 -2.6589
19988SOL    HW263496   2.089   5.839   9.830  0.0871 -0.3933 -0.4673
19989SOL     OW63497  10.651   3.921  10.593 -0.5461 -0.2036  0.9347
19989SOL    HW163498  10.562   3.956  10.587 -0.6918 -0.8489 -3.4182
19989SOL    HW263499  10.706   3.988  10.554  0.0005 -2.0067 -1.6318
19990SOL     OW63500   1.964  10.515   4.375 -0.2867  0.2361  0.3171
19990SOL    HW163501   2.027  10.541   4.442  1.6246 -0.9108 -0.9553
19990SOL    HW263502   2.017  10.495   4.298 -2.0823 -1.8289 -0.4915
19991SOL     OW63503   7.667   9.431   2.067  0.5305 -0.2949  0.4040
19991SOL    HW163504   7.721   9.398   2.139 -1.2086 -2.0847  1.0043
19991SOL    HW263505   7.606   9.492   2.110  2.3591  2.2547 -0.3715
19992SOL     OW63506   6.889   1.801   9.110  0.0896  0.1748  0.3013
19992SOL    HW163507   6.829   1.788   9.036  0.4647  1.1389 -0.1921
19992SOL    HW263508   6.831   1.812   9.185 -0.3661  0.8481 -0.1307
19993SOL     OW63509   2.636   5.578   5.525  0.0124 -0.4224  0.3616
19993SOL    HW163510   2.570   5.550   5.461  0.6689  0.6107 -0.8177
19993SOL    HW263511   2.707   5.615   5.472  1.0735 -0.5368  1.6508
19994SOL     OW63512   6.718   1.713   1.051 -0.3364 -0.4072 -0.3382
19994SOL    HW163513   6.698   1.682   0.963 -0.9387 -1.3834  0.1224
19994SOL    HW263514   6.667   1.793   1.061  2.1227  1.5107 -1.9623
19995SOL     OW63515   6.438  10.403   0.489  0.4845 -0.5375 -0.0542
19995SOL    HW163516   6.457  10.495   0.475  0.0042 -0.4100  0.1126
19995SOL    HW263517   6.377  10.380   0.419 -1.8215  0.0678  1.6324
19996SOL     OW63518   2.001  10.555   7.062  0.1912  0.3954  0.0601
19996SOL    HW163519   1.954  10.638   7.055  1.1203  0.8612 -1.0240
19996SOL    HW263520   2.031  10.551   7.152  0.1416  1.2456  0.1214
19997SOL     OW63521   6.770   0.090   6.517 -0.0409  0.2980 -0.1881
19997SOL    HW163522   6.786   0.055   6.605 -0.3052  0.1855 -0.1827
19997SOL    HW263523   6.741   0.014   6.466  0.8670  0.1951 -0.5839
19998SOL     OW63524  10.083   9.156  11.091 -0.2219  0.3047  0.3639
19998SOL    HW163525  10.126   9.172  11.007 -2.0794  0.3600 -0.6352
19998SOL    HW263526  10.110   9.068  11.116  0.9132  0.5593  0.0732
19999SOL     OW63527  10.179   2.300   7.423 -0.2254 -0.0651 -0.5119
19999SOL    HW163528  10.252   2.240   7.441 -0.6012  0.1241  2.0729
19999SOL    HW263529  10.212   2.386   7.447 -1.1154  0.0937  0.1994
20000SOL     OW63530  10.990   1.965   0.031  0.5026 -0.1797 -0.1256
20000SOL    HW163531  10.911   1.938  -0.018 -0.4419  1.6002  0.3453
20000SOL    HW263532  11.044   2.010  -0.034  1.5010 -1.9853 -0.6122
20001SOL     OW63533   6.649   9.707   1.984 -0.1502 -0.5551  0.1181
20001SOL    HW163534   6.671   9.650   1.911 -2.5116 -1.1393 -0.1930
20001SOL    HW263535   6.631   9.792   1.943  1.5317 -0.0130  0.3986
20002SOL     OW63536   0.179   2.726   0.176 -0.0684 -0.0742  0.2510
20002SOL    HW163537   0.183   2.646   0.123 -0.3771 -0.1437  0.3333
20002SOL    HW263538   0.106   2.776   0.138 -1.6525 -1.0430  1.8875
20003SOL     OW63539   9.979   4.964   4.333 -0.5130 -0.5025  0.1538
20003SOL    HW163540  10.034   4.902   4.380  0.9591  0.4701 -0.2090
20003SOL    HW263541  10.012   5.050   4.360  0.5505  0.1150 -2.7647
20004SOL     OW63542   4.536   0.998   7.894  0.7521  0.0235  0.4907
20004SOL    HW163543   4.459   1.012   7.839  0.7595  0.3791  0.5691
20004SOL    HW263544   4.514   1.040   7.977  0.0464 -1.9564  1.3693
20005SOL     OW63545   0.456   4.886   2.063 -0.4191  0.2390 -0.2203
20005SOL    HW163546   0.377   4.869   2.113 -0.3706 -0.2421 -0.3048
20005SOL    HW263547   0.428   4.880   1.971  0.0615 -1.7238 -0.2846
20006SOL     OW63548   6.629   1.909   8.661  0.0440 -0.3741 -0.3673
20006SOL    HW163549   6.605   1.994   8.697  0.3831  0.0207 -1.0594
20006SOL    HW263550   6.547   1.871   8.630 -0.0156 -0.0176 -0.6482
20007SOL     OW63551   8.492   6.563   6.981 -0.6568  0.3374 -0.3571
20007SOL    HW163552   8.567   6.602   6.935 -0.7177  0.6206 -0.2171
20007SOL    HW263553   8.519   6.560   7.072 -0.3592 -0.6408 -0.4673
20008SOL     OW63554   7.349   3.677   2.931  0.0261  0.5790 -0.4816
20008SOL    HW163555   7.259   3.652   2.911  0.1674  1.8718 -3.1392
20008SOL    HW263556   7.343   3.729   3.011 -1.2807 -0.9455  0.4727
20009SOL     OW63557   7.190   6.045   8.525  0.0213  1.3716  0.0676
20009SOL    HW163558   7.249   6.111   8.488  1.1585 -0.0499 -0.7940
20009SOL    HW263559   7.221   6.033   8.614 -0.7247  2.5626  0.5131
20010SOL     OW63560   5.026   9.076   2.471  0.3476  0.4359  0.0705
20010SOL    HW163561   4.958   9.143   2.481 -0.1996 -0.4460  3.5969
20010SOL    HW263562   5.101   9.111   2.520  0.9366 -0.4513 -0.1716
20011SOL     OW63563   7.347   4.713   6.297 -0.3048  0.0956  0.5514
20011SOL    HW163564   7.256   4.710   6.326 -0.5141 -1.4102 -0.1916
20011SOL    HW263565   7.364   4.626   6.262  1.2307  0.5590  0.0778
20012SOL     OW63566   4.587   0.482   9.053  0.1869  0.7846 -0.0650
20012SOL    HW163567   4.583   0.429   8.973  0.4618  1.2433 -0.3906
20012SOL    HW263568   4.541   0.430   9.119 -1.3251  1.0079 -0.8799
20013SOL     OW63569   9.286   2.197   1.637 -0.1196  0.0295 -0.0539
20013SOL    HW163570   9.297   2.124   1.578 -1.4492 -0.2240 -0.0177
20013SOL    HW263571   9.335   2.269   1.597 -0.8750 -0.1797 -1.3845
20014SOL     OW63572   8.324  10.854   0.162  0.2842 -0.0764  0.1440
20014SOL    HW163573   8.296  10.923   0.102 -1.3831 -0.2810  0.6125
20014SOL    HW263574   8.341  10.778   0.106 -1.9191 -0.4743 -0.1042
20015SOL     OW63575   2.752   7.527   2.780 -0.2566  0.2399  0.1536
20015SOL    HW163576   2.763   7.620   2.757 -0.7707  0.2065 -0.2524
20015SOL    HW263577   2.804   7.516   2.860  0.3795  0.7098 -0.1838
20016SOL     OW63578   2.317   2.659   3.720 -0.2113 -0.2573  0.3785
20016SOL    HW163579   2.354   2.582   3.678 -0.0353 -1.0315  1.9018
20016SOL    HW263580   2.238   2.628   3.764  0.1640  0.2918  1.4813
20017SOL     OW63581   4.756   0.859   8.607 -0.5568 -0.7327  0.7333
20017SOL    HW163582   4.793   0.784   8.652 -0.3630 -1.0516  0.0531
20017SOL    HW263583   4.681   0.885   8.661  0.1606 -0.5819  1.6766
20018SOL     OW63584   5.714   8.841   8.936 -0.1078  0.4998  0.4998
20018SOL    HW163585   5.672   8.799   9.011  0.3181 -0.9640 -0.0427
20018SOL    HW263586   5.803   8.859   8.965  0.6442 -1.7874 -0.1973
20019SOL     OW63587   1.551   5.928   5.779  0.2660 -0.1938 -0.4581
20019SOL    HW163588   1.567   6.004   5.834  0.9594  0.5081 -1.5886
20019SOL    HW263589   1.621   5.866   5.802 -0.2495 -0.4818  0.3992
20020SOL     OW63590   4.405   3.639   0.827  0.6155 -0.0342 -0.3214
20020SOL    HW163591   4.317   3.601   0.823  0.4257  0.3871 -0.1811
20020SOL    HW263592   4.460   3.574   0.785  0.5602 -1.2347  1.3253
20021SOL     OW63593   3.131   6.773   3.665 -0.0972 -0.5297  0.0485
20021SOL    HW163594   3.086   6.849   3.628 -0.9839 -1.7588 -1.5703
20021SOL    HW263595   3.197   6.810   3.723 -1.8463  1.4078  0.9608
20022SOL     OW63596   8.961  10.696   0.791 -0.0879  0.4264 -0.4093
20022SOL    HW163597   8.956  10.712   0.885  0.2946  1.1584 -0.5099
20022SOL    HW263598   9.043  10.736   0.763 -0.3841  0.5748 -1.1153
20023SOL     OW63599   3.424   5.747   4.365  0.1399  0.1824 -0.2937
20023SOL    HW163600   3.403   5.709   4.279  0.2714  0.9664 -0.6820
20023SOL    HW263601   3.438   5.671   4.422  0.5501 -0.3556 -1.0907
20024SOL     OW63602   8.717  10.059   8.238  0.3856  0.0246 -0.2266
20024SOL    HW163603   8.724  10.101   8.152  1.8721  1.8722  0.7193
20024SOL    HW263604   8.804  10.022   8.254 -0.1855 -1.2544  0.0607
20025SOL     OW63605   2.382   3.497   6.738  0.6811  0.0426 -0.5637
20025SOL    HW163606   2.342   3.553   6.672  0.6028  0.8021  0.1018
20025SOL    HW263607   2.308   3.454   6.781  0.6223  0.6434 -0.0358
20026SOL     OW63608   6.093  10.341   4.424 -0.0254 -0.1483 -0.0716
20026SOL    HW163609   6.090  10.396   4.502 -2.5561 -1.3939  0.8129
20026SOL    HW263610   6.079  10.252   4.456  0.6152 -0.9220 -1.7936
20027SOL     OW63611   2.016   5.150   4.335  0.2383  0.1778 -0.7031
20027SOL    HW163612   1.993   5.188   4.250 -0.5979  0.1837 -0.4881
20027SOL    HW263613   1.997   5.220   4.398 -0.5542 -0.3237 -0.3800
20028SOL     OW63614  10.817   5.568   2.976  0.4960  0.1790  0.0490
20028SOL    HW163615  10.749   5.554   3.042 -0.7319 -0.3126 -1.2483
20028SOL    HW263616  10.861   5.483   2.969  1.5774  0.6162  1.1995
20029SOL     OW63617   0.855   6.949   0.901 -0.2517 -0.6869 -1.0108
20029SOL    HW163618   0.771   6.965   0.858 -1.1587 -1.9304  0.1808
20029SOL    HW263619   0.844   6.863   0.943  1.2604 -0.4061  0.0428
20030SOL     OW63620  10.782   0.460   2.997 -0.2787  0.3306  0.0434
20030SOL    HW163621  10.777   0.469   2.902  0.8049  0.0168 -0.0573
20030SOL    HW263622  10.865   0.416   3.012 -1.8702 -2.6711  0.9351
20031SOL     OW63623   6.775   2.322   6.217 -0.6174 -0.1506 -0.8398
20031SOL    HW163624   6.766   2.314   6.312  0.3534  0.1234 -0.7138
20031SOL    HW263625   6.740   2.239   6.183 -2.6489  0.4675 -0.3833
20032SOL     OW63626  10.146   3.620   2.362  0.0801 -0.3354  0.4484
20032SOL    HW163627  10.096   3.573   2.429  1.0792  0.3031  1.7050
20032SOL    HW263628  10.149   3.560   2.288 -0.6040 -1.3044  1.1718
20033SOL     OW63629   9.018   9.463   5.169  0.4503 -0.3168 -0.1846
20033SOL    HW163630   8.948   9.526   5.151  0.1945 -1.2201 -2.8681
20033SOL    HW263631   8.973   9.388   5.208 -0.2066 -0.9111 -1.9380
20034SOL     OW63632   9.408   2.678   2.158  0.8849 -0.5377  0.2497
20034SOL    HW163633   9.450   2.755   2.196  2.2763 -1.1639  0.0393
20034SOL    HW263634   9.458   2.661   2.078 -1.0945 -0.0892 -1.1393
20035SOL     OW63635   3.373   8.127   2.919 -0.0026 -0.0986 -0.4915
20035SOL    HW163636   3.433   8.201   2.911  0.9018 -0.7679 -0.0124
20035SOL    HW263637   3.295   8.154   2.870  0.7107  0.7511 -1.1841
20036SOL     OW63638   8.690   8.795   3.012  0.0103  0.3951  0.1382
20036SOL    HW163639   8.688   8.876   3.062  2.2094 -0.5843  1.9569
20036SOL    HW263640   8.631   8.736   3.059  0.5198  0.1046  0.4210
20037SOL     OW63641   5.671   0.361   7.159 -0.0995 -0.2746 -0.1215
20037SOL    HW163642   5.582   0.338   7.135  0.3890 -0.1587 -2.2423
20037SOL    HW263643   5.664   0.447   7.201 -1.0480 -0.6296  0.4673
20038SOL     OW63644   8.572   7.748   5.020 -1.1848 -0.3235  0.1674
20038SOL    HW163645   8.569   7.689   4.945 -0.2180  0.5633 -0.5956
20038SOL    HW263646   8.665   7.758   5.039 -1.3595  0.5692  0.5853
20039SOL     OW63647   3.649   2.199   3.863  0.4176 -0.0053  0.4317
20039SOL    HW163648   3.580   2.138   3.889 -0.9437  1.6225  0.8352
20039SOL    HW263649   3.628   2.280   3.911  1.3514  1.2141 -1.1351
20040SOL     OW63650   7.030   4.928   2.614  0.2235 -0.4819  0.5332
20040SOL    HW163651   7.011   4.882   2.695  0.9857 -0.8566  0.5050
20040SOL    HW263652   7.089   4.999   2.639  0.4281 -0.5725  0.3191
20041SOL     OW63653   8.138   3.754   9.573 -0.3176 -0.0503 -0.4994
20041SOL    HW163654   8.073   3.698   9.531 -1.4568 -0.2623  1.3792
20041SOL    HW263655   8.205   3.694   9.605 -0.5217 -0.1446 -0.2347
20042SOL     OW63656   9.275  10.134   0.255 -0.1398  0.0308  0.1210
20042SOL    HW163657   9.353  10.184   0.232  0.6913 -0.7105  1.2063
20042SOL    HW263658   9.215  10.149   0.183  1.6103 -0.6725 -1.5755
20043SOL     OW63659   5.584   3.822   7.549 -0.3368 -0.0612 -0.0463
20043SOL    HW163660   5.625   3.801   7.633  0.1720  0.2673 -0.2112
20043SOL    HW263661   5.656   3.848   7.492 -0.3981 -2.0347 -1.1544
20044SOL     OW63662  10.351   8.201   3.273 -0.6113  0.1495 -0.4602
20044SOL    HW163663  10.394   8.226   3.354 -1.0223  2.3676 -0.8642
20044SOL    HW263664  10.422   8.181   3.212 -0.3061 -1.7823  0.4735
20045SOL     OW63665   5.170   4.903   4.703 -0.7459 -0.0504  0.3063
20045SOL    HW163666   5.094   4.955   4.729 -1.2876 -0.7816  0.2063
20045SOL    HW263667   5.161   4.821   4.751 -0.2361 -0.3037 -0.0222
20046SOL     OW63668   9.396   8.623   7.887 -0.0705 -0.0446  0.0970
20046SOL    HW163669   9.392   8.717   7.872  0.0439 -0.0190  0.2311
20046SOL    HW263670   9.343   8.585   7.817  2.0256 -0.0521 -1.5823
20047SOL     OW63671   9.574   4.067   2.902  0.6985  0.4110 -0.5732
20047SOL    HW163672   9.607   3.979   2.917  0.2028  0.3189  0.0377
20047SOL    HW263673   9.573   4.077   2.807  0.1461 -0.4865 -0.6751
20048SOL     OW63674   9.467   0.186   6.646 -0.1486  0.0271 -0.4563
20048SOL    HW163675   9.431   0.256   6.590  0.6751  1.0892  0.2948
20048SOL    HW263676   9.510   0.127   6.585  0.6104  1.0920 -0.9934
20049SOL     OW63677   2.342   1.943   4.969  0.1045  0.9025  0.3980
20049SOL    HW163678   2.325   1.852   4.994  1.6841 -0.0917 -1.8759
20049SOL    HW263679   2.424   1.965   5.013  1.8581 -0.2045 -2.1020
20050SOL     OW63680   0.137   2.243   4.075  0.5720 -0.1963 -0.6024
20050SOL    HW163681   0.188   2.230   4.155  0.0961  0.2343 -0.2227
20050SOL    HW263682   0.092   2.160   4.062 -0.7797  0.2890  0.6202
20051SOL     OW63683   2.382   7.975   5.632  0.2911  0.0623 -0.0174
20051SOL    HW163684   2.304   7.938   5.591  0.4741 -1.9099  1.2756
20051SOL    HW263685   2.455   7.941   5.580  0.3643  0.7719 -0.3899
20052SOL     OW63686   0.619   8.154   4.448  0.5976 -0.0321 -0.0333
20052SOL    HW163687   0.672   8.185   4.375  1.0512 -0.0848  0.2691
20052SOL    HW263688   0.554   8.095   4.408 -0.8703  1.9550 -0.7577
20053SOL     OW63689   2.263   8.646   8.866 -0.2949  0.1099  0.2443
20053SOL    HW163690   2.223   8.695   8.939  0.1198 -0.0345  0.5740
20053SOL    HW263691   2.196   8.645   8.798 -0.4749  0.7508  0.4066
20054SOL     OW63692  10.394   9.297   0.989  0.3383  0.6317  0.3628
20054SOL    HW163693  10.358   9.312   1.076 -0.6543  1.8981 -0.2291
20054SOL    HW263694  10.357   9.214   0.961  1.1945 -0.1133  1.3933
20055SOL     OW63695  10.212   7.266   2.707  0.2036 -0.1370 -0.0060
20055SOL    HW163696  10.245   7.349   2.742 -1.6424  1.4954 -1.8361
20055SOL    HW263697  10.158   7.230   2.777  0.6648  0.4401  0.6524
20056SOL     OW63698   2.231   6.673   7.830 -0.3657  0.1507 -0.4073
20056SOL    HW163699   2.318   6.662   7.870 -0.9628  2.2221  1.6597
20056SOL    HW263700   2.231   6.611   7.756  1.9285 -1.7095  1.0040
20057SOL     OW63701   0.434   9.304   5.916 -0.1797 -0.1062  0.5919
20057SOL    HW163702   0.488   9.284   5.840 -0.2619 -1.1799  0.8023
20057SOL    HW263703   0.439   9.225   5.970  0.2687  0.8070  1.9367
20058SOL     OW63704   8.408   2.645   1.864  0.8424  0.2650 -0.5678
20058SOL    HW163705   8.415   2.550   1.876  0.6744  0.4178  0.9650
20058SOL    HW263706   8.477   2.666   1.802  0.6667 -0.8973 -1.1964
20059SOL     OW63707   1.873   4.952  10.733  0.0398 -0.0129 -0.3315
20059SOL    HW163708   1.925   4.886  10.687 -0.6554 -1.5346  0.9647
20059SOL    HW263709   1.935   5.023  10.752  1.1561 -0.9179 -0.5172
20060SOL     OW63710   2.033   6.884   3.711 -0.4380 -0.2877  0.4681
20060SOL    HW163711   1.950   6.932   3.721 -0.2103 -0.0060  1.0611
20060SOL    HW263712   2.007   6.797   3.681 -1.0220 -0.4761  1.4855
20061SOL     OW63713   0.708  10.416   7.796 -0.3213  0.1192 -0.3739
20061SOL    HW163714   0.736  10.502   7.766 -0.8298  0.5002  0.1963
20061SOL    HW263715   0.614  10.413   7.775 -0.2017 -0.5057 -0.8538
20062SOL     OW63716   7.517   8.030   9.188  0.8534  0.1859  0.5006
20062SOL    HW163717   7.592   8.076   9.224  1.0124  0.7097 -0.4737
20062SOL    HW263718   7.502   8.071   9.102  1.7233 -2.2599 -0.9379
20063SOL     OW63719  10.939   8.083   6.087 -0.7407  0.6814  0.5499
20063SOL    HW163720  10.935   8.154   6.150  0.7251  2.1933 -0.9490
20063SOL    HW263721  10.995   8.116   6.016 -1.8280 -1.1196 -1.2829
20064SOL     OW63722   2.084   5.417   6.511  0.3003 -0.2129 -0.7300
20064SOL    HW163723   2.087   5.495   6.567  1.9856 -1.5708  1.2007
20064SOL    HW263724   2.003   5.373   6.537 -1.2822  1.3450 -2.6440
20065SOL     OW63725   7.598  10.326  10.472 -0.3504 -0.1586  0.0768
20065SOL    HW163726   7.581  10.241  10.431 -1.0036  0.0315 -0.0512
20065SOL    HW263727   7.616  10.304  10.564 -2.1473 -0.3081  0.4255
20066SOL     OW63728   1.565   7.720   8.054  0.1680 -0.7271 -0.0496
20066SOL    HW163729   1.564   7.753   7.964 -0.7095 -2.2758 -0.6494
20066SOL    HW263730   1.511   7.783   8.103 -1.6735 -1.3397 -1.2072
20067SOL     OW63731   6.389   8.762   7.611  0.3951 -0.1296 -0.2596
20067SOL    HW163732   6.364   8.691   7.552 -0.1488 -0.3221  0.1930
20067SOL    HW263733   6.483   8.749   7.626  0.2695 -0.8474 -0.0678
20068SOL     OW63734   0.552   6.680   3.183 -0.0020 -0.2175 -0.7205
20068SOL    HW163735   0.507   6.619   3.125  0.9319 -0.0716 -1.6188
20068SOL    HW263736   0.565   6.630   3.264 -1.3383 -0.4081 -0.6067
20069SOL     OW63737   9.526   8.349   8.947 -0.2293 -0.2135 -0.0012
20069SOL    HW163738   9.615   8.334   8.979 -0.3976 -1.4797 -0.0781
20069SOL    HW263739   9.471   8.294   9.002 -1.1574  1.4995  0.8967
20070SOL     OW63740   8.718   6.745   6.398 -0.1796  0.1726  0.6423
20070SOL    HW163741   8.665   6.710   6.470 -2.4516  0.9867 -0.5758
20070SOL    HW263742   8.698   6.839   6.397  0.6280  0.3454 -0.4154
20071SOL     OW63743   2.576   3.657   2.745 -0.1188  0.3078 -0.2491
20071SOL    HW163744   2.561   3.752   2.738 -0.5796  0.2299 -0.3409
20071SOL    HW263745   2.573   3.625   2.655  1.5758  0.4204 -0.3809
20072SOL     OW63746   6.382   1.329   0.768  0.1195 -0.4887  0.4084
20072SOL    HW163747   6.384   1.236   0.791 -0.3771 -1.3058 -2.5240
20072SOL    HW263748   6.472   1.349   0.744 -0.0210 -0.5720 -0.1984
20073SOL     OW63749   4.430   6.312   2.722  0.1005  0.7670 -0.5655
20073SOL    HW163750   4.512   6.303   2.674  0.3263 -0.0401 -0.0509
20073SOL    HW263751   4.454   6.353   2.805  0.0626  0.1991 -0.2610
20074SOL     OW63752   1.882   2.968   1.228  0.0371  0.3033  0.1369
20074SOL    HW163753   1.854   2.891   1.178  2.3443 -0.9666  0.6237
20074SOL    HW263754   1.879   3.040   1.166 -1.5213 -0.2856 -0.5262
20075SOL     OW63755  10.532   4.009   5.408 -0.2452  0.2092 -0.4854
20075SOL    HW163756  10.506   3.921   5.435 -0.4840  0.5930  0.5651
20075SOL    HW263757  10.450   4.049   5.377 -0.2269  0.2256 -0.5123
20076SOL     OW63758   7.733   7.473   2.955 -0.8097  0.3501  0.2816
20076SOL    HW163759   7.787   7.394   2.952 -0.4001  0.6632 -1.7912
20076SOL    HW263760   7.724   7.491   3.048 -0.2762 -1.6973  0.7967
20077SOL     OW63761   0.675   8.404   0.075 -0.0468  0.3841  0.1289
20077SOL    HW163762   0.681   8.323   0.025  2.1422  0.7993 -0.3804
20077SOL    HW263763   0.634   8.467   0.014  2.8725  0.9732 -1.4027
20078SOL     OW63764  10.767   5.582   5.163 -0.6045 -0.6697  0.0493
20078SOL    HW163765  10.723   5.649   5.110  1.2444  0.1757 -0.4794
20078SOL    HW263766  10.805   5.631   5.236  1.0871 -1.0316 -0.5446
20079SOL     OW63767  10.287   5.930   4.232  0.3767  0.3827 -0.2677
20079SOL    HW163768  10.234   5.862   4.272  1.7925 -1.1792 -0.9313
20079SOL    HW263769  10.256   5.934   4.141  0.1463  0.7911 -0.1730
20080SOL     OW63770   0.871   5.406   7.264  0.0179 -0.4710 -0.0168
20080SOL    HW163771   0.923   5.339   7.309 -1.9923 -1.5953  0.7772
20080SOL    HW263772   0.871   5.379   7.172 -0.6777 -1.5346  0.2773
20081SOL     OW63773   4.839   9.651   8.930  0.2429 -0.3642  0.1506
20081SOL    HW163774   4.893   9.663   9.008  0.0241 -0.8308  0.3769
20081SOL    HW263775   4.855   9.560   8.903 -0.6973 -0.6286  0.4396
20082SOL     OW63776   4.381   4.974   0.132 -0.0977 -0.6208 -0.0036
20082SOL    HW163777   4.299   4.941   0.095 -1.2541  1.5259  0.4534
20082SOL    HW263778   4.430   5.005   0.056  0.5509 -2.3716 -0.3305
20083SOL     OW63779   5.141   7.486   0.633  0.2388  0.0699 -0.5860
20083SOL    HW163780   5.154   7.574   0.667  1.2215 -0.0956 -0.4961
20083SOL    HW263781   5.213   7.473   0.571  0.7040 -1.0166  0.1471
20084SOL     OW63782   1.345   8.088   8.484 -0.0045 -0.6443  0.0625
20084SOL    HW163783   1.397   8.067   8.561  0.2112 -0.4706 -0.0339
20084SOL    HW263784   1.298   8.008   8.463 -1.1149 -0.3207  1.1907
20085SOL     OW63785   2.649   6.549   5.717 -0.3675  0.2955 -0.0597
20085SOL    HW163786   2.555   6.551   5.734 -0.6353 -2.8713 -0.4691
20085SOL    HW263787   2.658   6.577   5.626 -0.8462  1.1178  0.1419
20086SOL     OW63788   8.446   7.216   8.097  0.4389 -0.4467 -0.2940
20086SOL    HW163789   8.366   7.170   8.122  0.6343 -0.8937 -0.4886
20086SOL    HW263790   8.424   7.309   8.109 -0.4237 -0.5091 -1.2301
20087SOL     OW63791   3.367   5.965  10.028  0.0613 -0.8263 -0.1340
20087SOL    HW163792   3.433   5.910  10.069 -1.0566 -2.2820 -0.1788
20087SOL    HW263793   3.309   5.991  10.099 -1.8230 -3.2738 -0.6145
20088SOL     OW63794   7.635   6.545   4.280 -0.3835  0.1766 -0.6977
20088SOL    HW163795   7.694   6.504   4.217  0.4379  0.5157 -0.1729
20088SOL    HW263796   7.550   6.549   4.235  0.1224  0.1795 -1.6828
20089SOL     OW63797   2.686   9.964   7.865  0.5709  0.7382 -0.3091
20089SOL    HW163798   2.594   9.944   7.880  1.1645 -1.5743  0.6044
20089SOL    HW263799   2.704  10.038   7.924 -0.0859 -0.5228  1.5510
20090SOL     OW63800   1.455   7.573   4.812  0.5130 -0.1033  0.1417
20090SOL    HW163801   1.410   7.524   4.744  0.5412  0.0655  0.0025
20090SOL    HW263802   1.386   7.593   4.876  0.4190  0.0226  0.0029
20091SOL     OW63803   4.594   0.534   5.040 -0.0245  0.0038  0.2841
20091SOL    HW163804   4.515   0.533   4.984  0.5496 -1.4124 -0.5612
20091SOL    HW263805   4.571   0.592   5.112 -1.5374  0.3158 -0.3969
20092SOL     OW63806   1.009   4.954   9.456  0.1317 -0.1719  0.4735
20092SOL    HW163807   0.987   4.998   9.537 -0.5597 -1.1953  0.8697
20092SOL    HW263808   1.065   4.880   9.482  0.3796 -0.1802 -0.0474
20093SOL     OW63809   4.766   6.758  10.794 -0.1346 -0.1245 -0.0948
20093SOL    HW163810   4.698   6.818  10.825  1.1187  1.2411  0.1382
20093SOL    HW263811   4.808   6.805  10.722  0.8453 -0.7547  0.0515
20094SOL     OW63812   3.106   2.974   1.074  0.4515  0.2930 -0.0317
20094SOL    HW163813   3.167   2.902   1.055  1.3750  1.1910 -0.5972
20094SOL    HW263814   3.019   2.935   1.065  0.9383 -0.9110  0.3452
20095SOL     OW63815   6.270   4.098   9.065 -0.1650 -0.1102 -0.2207
20095SOL    HW163816   6.184   4.137   9.081  1.2418  2.7363  1.1250
20095SOL    HW263817   6.326   4.172   9.039  1.9598 -1.8053 -0.7878
20096SOL     OW63818   1.007  10.033   4.682  0.3308 -0.8704  0.6605
20096SOL    HW163819   0.990  10.032   4.776 -1.4834 -0.1427  0.3857
20096SOL    HW263820   1.022  10.126   4.661  0.4033 -0.9878  0.1788
20097SOL     OW63821   1.164   0.373   7.586 -0.0100 -0.7202  0.1431
20097SOL    HW163822   1.071   0.362   7.605 -0.1700  1.2810  0.7224
20097SOL    HW263823   1.172   0.355   7.492 -0.8449 -1.6289  0.2379
20098SOL     OW63824   5.264   9.359   5.316 -0.2183  0.1554 -0.6167
20098SOL    HW163825   5.255   9.434   5.257 -1.2608 -1.1967 -2.2809
20098SOL    HW263826   5.353   9.327   5.301 -0.5086 -0.2506 -1.6384
20099SOL     OW63827  10.809   7.560   6.599 -0.1950  0.5377 -0.4296
20099SOL    HW163828  10.754   7.633   6.629 -0.0739  0.7091 -0.6189
20099SOL    HW263829  10.799   7.561   6.504 -0.3567  0.1750 -0.4197
20100SOL     OW63830   9.427   4.489  10.463 -0.5773 -0.6174 -0.7626
20100SOL    HW163831   9.474   4.424  10.515 -0.8512 -0.0562  0.1962
20100SOL    HW263832   9.352   4.442  10.427  0.2486 -1.3097 -1.6335
20101SOL     OW63833  10.902   2.383   5.471 -0.2515 -0.2790  0.4150
20101SOL    HW163834  10.946   2.445   5.413  0.9760 -1.2999  0.2166
20101SOL    HW263835  10.812   2.380   5.438  0.3219 -0.5553 -1.2168
20102SOL     OW63836   0.251   0.302   8.550  0.0569  0.3474 -0.3464
20102SOL    HW163837   0.199   0.283   8.628 -1.3202 -1.3301 -1.5959
20102SOL    HW263838   0.325   0.242   8.556  0.4127  0.8227  0.0807
20103SOL     OW63839   5.768   7.731   0.342 -0.0757  0.0889 -0.3485
20103SOL    HW163840   5.857   7.702   0.317  0.3048  0.2018  0.8347
20103SOL    HW263841   5.712   7.696   0.273  0.5938 -2.0708  0.1230
20104SOL     OW63842   2.933   0.967   8.914  0.0910 -0.2355  0.1311
20104SOL    HW163843   2.974   1.036   8.863 -1.9614 -0.5815 -2.1365
20104SOL    HW263844   2.973   0.886   8.881 -0.7227 -0.4117 -0.4406
20105SOL     OW63845   4.747   9.977  10.245 -0.2570  0.3151  0.0162
20105SOL    HW163846   4.744   9.882  10.257 -1.3235  0.5137  1.6912
20105SOL    HW263847   4.746  10.012  10.334  2.6830  1.9089 -0.4321
20106SOL     OW63848   1.270   8.946   3.646 -0.3543 -0.0466  0.1437
20106SOL    HW163849   1.243   8.974   3.733 -0.2068  0.1032  0.1398
20106SOL    HW263850   1.266   9.025   3.593 -0.3302 -0.1148  0.0399
20107SOL     OW63851   2.469   9.616   0.824  0.1440  0.5322 -0.7618
20107SOL    HW163852   2.485   9.533   0.869  2.0165  0.0028 -2.2196
20107SOL    HW263853   2.492   9.598   0.732 -1.0121  2.2275 -1.4386
20108SOL     OW63854   9.652   3.042   8.012  0.4467  0.1026 -0.1469
20108SOL    HW163855   9.561   3.012   8.020  0.5905  0.0974  1.7202
20108SOL    HW263856   9.662   3.108   8.081  1.0098  2.3641 -2.2211
20109SOL     OW63857   6.245   9.829   8.100 -0.1793  0.0830  0.1412
20109SOL    HW163858   6.251   9.901   8.163 -2.1389  0.3832  0.0434
20109SOL    HW263859   6.226   9.752   8.153  1.2437 -0.2676  0.1793
20110SOL     OW63860   6.638   5.562   3.547 -0.0961  0.5621  0.1746
20110SOL    HW163861   6.698   5.497   3.584 -0.2741 -0.0220 -0.5436
20110SOL    HW263862   6.683   5.594   3.469 -0.5190  0.4426 -0.1213
20111SOL     OW63863  10.497   2.458  11.006 -0.1531  0.5286  0.2533
20111SOL    HW163864  10.477   2.394  11.075 -1.0642  2.4740  1.8829
20111SOL    HW263865  10.445   2.427  10.931 -1.1549 -0.2668  1.2200
20112SOL     OW63866   6.104   7.121   1.626  0.4716 -0.1732  0.2148
20112SOL    HW163867   6.058   7.180   1.567  1.7819 -0.0894 -0.7731
20112SOL    HW263868   6.080   7.033   1.597  1.7272 -0.1468 -1.0187
20113SOL     OW63869   9.298   5.369   7.283  0.3084 -0.0938  0.1772
20113SOL    HW163870   9.312   5.330   7.197 -0.8484 -1.1792  0.4437
20113SOL    HW263871   9.223   5.427   7.270 -1.8428 -2.4798  1.0015
20114SOL     OW63872  10.412   9.884   7.719 -0.1326 -0.0701  0.2137
20114SOL    HW163873  10.482   9.855   7.660  0.2564  0.2952  0.4900
20114SOL    HW263874  10.398   9.811   7.778  1.2465  0.4972  1.2800
20115SOL     OW63875   6.210  10.552   7.886  0.1946  0.1048  0.3641
20115SOL    HW163876   6.158  10.488   7.837 -1.5644  1.8332 -0.1312
20115SOL    HW263877   6.262  10.498   7.947 -1.4452 -1.7761  0.2090
20116SOL     OW63878  10.999   3.145   1.910 -0.2993  0.6050  0.1342
20116SOL    HW163879  11.053   3.121   1.986  0.3864  2.6770  0.3644
20116SOL    HW263880  10.912   3.160   1.946  0.5495  3.9953  1.0502
20117SOL     OW63881   0.736   8.101   2.497  0.1342  0.1058  0.1808
20117SOL    HW163882   0.732   8.082   2.591  1.3717  0.0209  0.2230
20117SOL    HW263883   0.644   8.108   2.471 -0.3597 -2.9834  0.7431
20118SOL     OW63884   7.409   0.612   7.235 -0.3947 -0.2452  0.0532
20118SOL    HW163885   7.470   0.668   7.283 -1.6900 -0.2261  1.7723
20118SOL    HW263886   7.431   0.625   7.143  0.3037  1.9436  0.4762
20119SOL     OW63887   2.325   6.422   0.366  0.5799 -1.1739  0.1067
20119SOL    HW163888   2.415   6.432   0.335  0.7137 -1.3010  0.4518
20119SOL    HW263889   2.290   6.347   0.317  0.2745 -0.3985 -0.8984
20120SOL     OW63890   9.152   9.741   0.849 -0.9562 -0.2055  0.0671
20120SOL    HW163891   9.129   9.771   0.937  0.1450 -1.9375  0.9906
20120SOL    HW263892   9.147   9.820   0.795 -3.3479  0.5750  1.2951
20121SOL     OW63893   0.876   1.466   6.406  0.6402  0.4626 -0.2984
20121SOL    HW163894   0.791   1.450   6.447  1.3864 -1.8325  0.4925
20121SOL    HW263895   0.902   1.381   6.371  2.5617  1.1477 -0.6405
20122SOL     OW63896  10.681   7.116   3.463  0.2697 -0.3282  0.0129
20122SOL    HW163897  10.599   7.149   3.499  2.3220  1.7663  3.4203
20122SOL    HW263898  10.687   7.157   3.376 -0.6072  2.7470  1.2480
20123SOL     OW63899   9.882   2.401   1.487 -0.6104 -0.5358 -0.0728
20123SOL    HW163900   9.912   2.487   1.455 -0.5634 -1.1337 -1.7593
20123SOL    HW263901   9.813   2.421   1.550 -1.3293  0.7478 -1.2115
20124SOL     OW63902   3.822   7.498   7.776  0.7862  0.1315 -0.5588
20124SOL    HW163903   3.765   7.495   7.699  1.2580 -1.5326 -0.8797
20124SOL    HW263904   3.886   7.566   7.755  1.1616 -0.5775 -1.8468
20125SOL     OW63905   8.894  10.755   7.433  0.2152  0.3042  0.1891
20125SOL    HW163906   8.860  10.842   7.415  2.2447  1.0582 -0.1889
20125SOL    HW263907   8.985  10.757   7.405  0.4935 -1.7672  0.7108
20126SOL     OW63908   6.575   4.536   2.186 -0.4907  0.2048 -0.4580
20126SOL    HW163909   6.523   4.567   2.261 -0.2771 -0.5239 -0.0022
20126SOL    HW263910   6.665   4.557   2.210 -0.5279  1.1725 -1.1054
20127SOL     OW63911   3.424   2.158   7.925  0.3950  0.2977  0.3415
20127SOL    HW163912   3.423   2.253   7.919  0.6708  0.4565  2.1138
20127SOL    HW263913   3.511   2.137   7.959  1.0747 -0.7788 -1.8588
20128SOL     OW63914   1.014  10.907  10.109 -0.1616 -0.3532  0.1935
20128SOL    HW163915   0.930  10.937  10.144 -0.3329 -0.7630  0.1320
20128SOL    HW263916   1.065  10.988  10.098 -0.5842 -0.0907  0.1297
20129SOL     OW63917   4.270   5.547   7.308  0.5138 -0.3567 -0.0619
20129SOL    HW163918   4.256   5.484   7.378 -1.8557 -0.2704 -0.3802
20129SOL    HW263919   4.187   5.549   7.260  0.2932  3.2817  0.1907
20130SOL     OW63920   5.830   3.064   7.393  0.2654 -0.0349 -0.0153
20130SOL    HW163921   5.918   3.044   7.424  0.6973  0.9935 -0.5122
20130SOL    HW263922   5.818   3.157   7.412 -0.5301 -0.0481 -0.3882
20131SOL     OW63923   0.082   7.828   6.267 -0.0965  0.1194 -0.5551
20131SOL    HW163924   0.027   7.772   6.322  1.5231 -1.0027  0.0182
20131SOL    HW263925   0.030   7.906   6.252 -0.3960  0.8352  3.2575
20132SOL     OW63926   1.339   8.640   3.701 -0.2471  0.0158 -0.1279
20132SOL    HW163927   1.362   8.722   3.657  1.6377  0.2610  1.1701
20132SOL    HW263928   1.415   8.621   3.755 -1.5170 -1.5004  1.2039
20133SOL     OW63929  11.050   0.291  10.916 -0.3169  0.3446 -0.0888
20133SOL    HW163930  10.958   0.317  10.920 -0.5336 -0.5113  0.8076
20133SOL    HW263931  11.079   0.290  11.007  0.0561 -1.1298 -0.1989
20134SOL     OW63932   0.044   2.352  10.584  0.0409 -0.3564 -0.2728
20134SOL    HW163933   0.075   2.267  10.554  1.2990 -0.4116  1.0731
20134SOL    HW263934   0.042   2.345  10.680 -3.0824  0.0434 -0.1934
20135SOL     OW63935  10.459   0.802   1.316  0.0959 -0.1668  0.0903
20135SOL    HW163936  10.419   0.716   1.308  1.1202 -0.6216 -0.2951
20135SOL    HW263937  10.394   0.855   1.363 -1.0905 -0.7699 -0.8408
20136SOL     OW63938   5.996   4.732   7.937  0.1820  0.7572  0.5015
20136SOL    HW163939   5.947   4.803   7.895 -0.6680  0.1061  0.3589
20136SOL    HW263940   6.043   4.689   7.866 -0.1641  0.5130  0.4156
20137SOL     OW63941   6.494   8.166   4.364  0.6277 -0.0913 -0.4577
20137SOL    HW163942   6.520   8.080   4.333  0.7898  0.3990 -1.7633
20137SOL    HW263943   6.576   8.212   4.382  0.5277 -0.6789  1.6792
20138SOL     OW63944   2.074   8.251   5.459 -0.2690 -0.0293 -0.7795
20138SOL    HW163945   2.123   8.310   5.517  0.3509 -0.8052 -0.4890
20138SOL    HW263946   1.987   8.245   5.498  0.2197 -0.7639  0.2682
20139SOL     OW63947   2.365   7.610   4.520 -0.4959  0.3291  0.0839
20139SOL    HW163948   2.405   7.674   4.461 -1.6980  1.0513  0.0223
20139SOL    HW263949   2.396   7.634   4.607  0.6446 -0.2473 -0.1454
20140SOL     OW63950  10.164   2.629   6.063  0.1482 -0.6445  0.4286
20140SOL    HW163951  10.126   2.642   6.150  1.1694  0.1708  0.7738
20140SOL    HW263952  10.254   2.661   6.072  0.3741 -0.9108 -0.8299
20141SOL     OW63953  10.277   7.470   9.823  0.2546  0.5599 -0.2710
20141SOL    HW163954  10.334   7.393   9.817  0.2373  0.5874 -0.8746
20141SOL    HW263955  10.252   7.488   9.732 -1.5815 -0.0968  0.0696
20142SOL     OW63956  10.194   7.338   5.873  0.1096  0.0018  0.6095
20142SOL    HW163957  10.194   7.429   5.842  0.4728 -0.4001 -0.6699
20142SOL    HW263958  10.105   7.308   5.857 -0.0244  0.1537  1.0818
20143SOL     OW63959   7.648   9.668   4.138  0.5334  0.0748  0.2777
20143SOL    HW163960   7.677   9.670   4.229  2.4583  1.6904 -0.3083
20143SOL    HW263961   7.559   9.632   4.142  1.4169 -2.1130  2.5124
20144SOL     OW63962   4.382   2.260   5.656 -0.0032 -0.4286 -0.0664
20144SOL    HW163963   4.375   2.352   5.683  2.3257 -0.3580  0.5185
20144SOL    HW263964   4.373   2.263   5.561 -1.4429  0.1930  0.0627
20145SOL     OW63965   1.674   5.103   6.844 -0.1047 -0.7256 -0.0121
20145SOL    HW163966   1.589   5.084   6.804 -0.5105 -0.2399  0.6042
20145SOL    HW263967   1.653   5.133   6.932  0.6731 -0.0930 -0.0337
20146SOL     OW63968   4.995   9.546   5.496  0.1311  0.3611 -0.1899
20146SOL    HW163969   5.029   9.633   5.475 -0.0058  0.2360 -0.9651
20146SOL    HW263970   4.931   9.562   5.566  0.3871  0.8323 -0.0585
20147SOL     OW63971   9.457   0.319   3.662 -0.1857 -0.1845  0.2225
20147SOL    HW163972   9.534   0.353   3.616  0.3899 -0.1968  1.1445
20147SOL    HW263973   9.388   0.383   3.644 -0.5529 -1.1444 -2.2092
20148SOL     OW63974   0.173   4.981  10.354  0.1258  0.2288  0.5760
20148SOL    HW163975   0.146   4.889  10.350 -0.7196  0.5021 -2.1420
20148SOL    HW263976   0.212   4.991  10.441  0.0367 -2.6243  1.0392
20149SOL     OW63977   1.356   6.230   9.422 -0.6654  0.6007  0.1942
20149SOL    HW163978   1.346   6.145   9.377 -1.8337  0.6843  0.2705
20149SOL    HW263979   1.391   6.288   9.354 -0.2755  0.1759  0.0178
20150SOL     OW63980   4.806   8.682   6.823  0.1846 -0.0249  0.0601
20150SOL    HW163981   4.762   8.678   6.738  1.4560  2.1434 -0.8008
20150SOL    HW263982   4.772   8.607   6.871 -3.2901  0.6292 -1.0352
20151SOL     OW63983   6.247   5.488   2.204  0.2215  0.4579  0.1663
20151SOL    HW163984   6.190   5.494   2.280 -0.7586  0.9890 -0.5917
20151SOL    HW263985   6.309   5.418   2.226 -0.6828 -0.1024  1.0254
20152SOL     OW63986   3.146   7.442   8.819 -0.5907 -0.5625  0.2712
20152SOL    HW163987   3.099   7.461   8.899 -1.7757  1.2976 -0.7908
20152SOL    HW263988   3.216   7.382   8.845 -0.7623  0.2221  2.7100
20153SOL     OW63989   8.956   0.110   2.058  0.5696  0.0540  0.7499
20153SOL    HW163990   9.007   0.188   2.038  0.8444  0.2989  2.2907
20153SOL    HW263991   8.961   0.102   2.153 -0.2938 -1.2730  0.7059
20154SOL     OW63992   7.221   9.957   4.159  0.0211 -0.2484  0.0584
20154SOL    HW163993   7.269   9.938   4.240 -0.1553  2.4058  0.9061
20154SOL    HW263994   7.196  10.049   4.169 -4.3126 -1.1572 -0.8140
20155SOL     OW63995   6.851   1.366  10.443  0.6758 -0.2826 -0.1829
20155SOL    HW163996   6.852   1.401  10.532  2.4298  0.5930 -0.5088
20155SOL    HW263997   6.933   1.318  10.434 -0.5214 -2.3877 -0.6118
20156SOL     OW63998   8.346   5.116   1.241 -0.3349  0.2123  0.2207
20156SOL    HW163999   8.407   5.143   1.310  0.1953  1.5644 -0.7443
20156SOL    HW264000   8.359   5.180   1.171 -0.5868 -1.3451 -1.3023
20157SOL     OW64001   7.766   2.522  10.183 -0.0676  0.1638 -0.0627
20157SOL    HW164002   7.779   2.576  10.261  0.4995 -0.8547  0.5779
20157SOL    HW264003   7.777   2.432  10.215 -2.0548 -0.4106 -0.8749
20158SOL     OW64004   1.412   2.368   8.714 -0.6378 -0.2534 -0.6911
20158SOL    HW164005   1.385   2.328   8.631 -0.5532  0.0891 -0.8822
20158SOL    HW264006   1.438   2.294   8.769 -1.9170 -0.6042 -0.5138
20159SOL     OW64007   3.575   3.463  11.019  0.0580  0.5792 -0.4603
20159SOL    HW164008   3.522   3.531  11.061  0.0453  0.4318 -0.2371
20159SOL    HW264009   3.665   3.491  11.034  0.2168 -1.2540  2.7887
20160SOL     OW64010   8.303   1.035   0.067  0.1734 -0.1756 -0.1563
20160SOL    HW164011   8.273   1.014   0.156 -1.8893  0.5932 -0.6157
20160SOL    HW264012   8.320   0.949   0.028  1.2769 -0.5232  1.0012
20161SOL     OW64013   4.495   2.790   8.885 -0.0866  0.1041 -0.0860
20161SOL    HW164014   4.486   2.790   8.789 -3.8185  2.0740  0.0608
20161SOL    HW264015   4.512   2.698   8.907 -0.9433 -0.7602 -2.5715
20162SOL     OW64016   8.069   3.273   8.358 -0.0749 -0.0939 -0.7069
20162SOL    HW164017   7.976   3.298   8.352 -0.2962 -0.2195  1.4068
20162SOL    HW264018   8.117   3.354   8.343 -0.5171  0.0530 -1.3962
20163SOL     OW64019   3.523   6.815  10.189  0.1197  0.1430  0.4582
20163SOL    HW164020   3.591   6.774  10.134 -0.4969 -1.7083  1.0189
20163SOL    HW264021   3.568   6.834  10.271  0.6135  1.4148 -0.0661
20164SOL     OW64022  10.452   4.718   9.045  0.0576 -0.0388  0.3812
20164SOL    HW164023  10.356   4.719   9.036 -0.0056  1.0971  0.9943
20164SOL    HW264024  10.483   4.670   8.968 -0.9787 -0.0678 -0.0347
20165SOL     OW64025   6.145   1.779   5.253  0.5450 -0.0389 -0.3199
20165SOL    HW164026   6.059   1.816   5.273 -1.0286 -2.5575 -1.7827
20165SOL    HW264027   6.148   1.697   5.303  1.7934 -0.3335 -0.8385
20166SOL     OW64028   9.460   7.669   8.875 -0.5570 -0.4179 -0.5075
20166SOL    HW164029   9.383   7.614   8.884 -0.6931 -0.1305  0.1074
20166SOL    HW264030   9.441   7.746   8.928 -0.5500  0.4262 -1.6853
20167SOL     OW64031  10.555   2.615   7.984 -0.2247  0.0121  0.3709
20167SOL    HW164032  10.558   2.677   7.911  1.5107 -0.3530  0.1028
20167SOL    HW264033  10.526   2.667   8.059 -1.3707  0.5347 -0.4129
20168SOL     OW64034   2.752   1.983  10.378  0.1958  0.2609 -0.0920
20168SOL    HW164035   2.681   1.932  10.417  0.0208  0.5350 -0.0488
20168SOL    HW264036   2.731   2.074  10.400  1.2929  0.2501  1.1239
20169SOL     OW64037   9.044   7.560   8.054  0.3098  0.4876  0.9661
20169SOL    HW164038   9.038   7.498   7.981  0.2054 -0.0278  1.4044
20169SOL    HW264039   9.075   7.641   8.014 -0.4613  0.4317  0.2175
20170SOL     OW64040   2.215   9.911  11.127 -0.1866  0.5027 -0.0769
20170SOL    HW164041   2.134   9.874  11.161  0.1607  0.7158  1.0452
20170SOL    HW264042   2.261   9.943  11.205  1.3053 -0.2860 -0.5847
20171SOL     OW64043   1.734   6.625  10.093  0.4430 -0.0982 -0.0814
20171SOL    HW164044   1.688   6.575  10.160  0.3764 -0.8036 -0.6365
20171SOL    HW264045   1.823   6.591  10.095  0.8883  1.0923  0.8213
20172SOL     OW64046   9.007   4.510   6.539  0.4605 -0.3709  0.2685
20172SOL    HW164047   9.015   4.521   6.444  2.0051  0.5744  0.4635
20172SOL    HW264048   9.034   4.594   6.576  2.2431 -1.4251  1.5808
20173SOL     OW64049   9.153   3.861   4.968  0.2056  0.2007 -0.2757
20173SOL    HW164050   9.099   3.933   4.935 -1.3326 -0.5650  0.4499
20173SOL    HW264051   9.093   3.808   5.020  1.0181 -2.1709 -1.5864
20174SOL     OW64052   7.560   8.723   4.790  0.4408 -0.1006  0.2479
20174SOL    HW164053   7.561   8.627   4.788 -2.3351 -0.2036 -0.5627
20174SOL    HW264054   7.526   8.745   4.877 -0.5899  0.0615 -0.1846
20175SOL     OW64055   5.204   6.361   5.962  0.0430  0.3139  0.3375
20175SOL    HW164056   5.263   6.357   6.037  0.2804  1.8264  0.2508
20175SOL    HW264057   5.262   6.377   5.887 -0.0756 -2.0932 -0.3695
20176SOL     OW64058   1.315   2.106   9.992  0.1616 -0.4122  0.3062
20176SOL    HW164059   1.257   2.034   9.969  0.4535 -1.3590  2.2863
20176SOL    HW264060   1.265   2.185   9.973  0.4339 -0.9650 -3.5187
20177SOL     OW64061  10.470   8.792   9.561  0.4761 -0.2094  0.4292
20177SOL    HW164062  10.412   8.830   9.628 -0.2985  0.5650 -0.6461
20177SOL    HW264063  10.548   8.847   9.562  0.4907 -0.2336  0.7251
20178SOL     OW64064   9.683   8.754   3.251  0.0801  0.0207  0.5033
20178SOL    HW164065   9.618   8.687   3.234  0.5165 -0.4196  0.5428
20178SOL    HW264066   9.735   8.758   3.171 -0.6807  1.1658  0.0451
20179SOL     OW64067   5.405  11.109   6.552 -0.4029  0.1451  0.0303
20179SOL    HW164068   5.464  11.060   6.608 -0.4927  1.7253  1.6142
20179SOL    HW264069   5.322  11.062   6.558 -0.3500  0.1565  1.0662
20180SOL     OW64070   8.312  10.701   3.526  0.4959 -0.0530 -0.1116
20180SOL    HW164071   8.308  10.736   3.437  0.9453 -2.7153 -1.2873
20180SOL    HW264072   8.342  10.774   3.580 -0.0513  1.7159 -2.0731
20181SOL     OW64073  10.564   3.361   6.689 -0.2393  0.0143  0.1329
20181SOL    HW164074  10.642   3.340   6.739  1.2210  0.4660 -1.8099
20181SOL    HW264075  10.531   3.276   6.659 -1.7729 -0.3649  2.6148
20182SOL     OW64076   4.285   7.697   4.813 -0.6303  0.4018 -0.0726
20182SOL    HW164077   4.249   7.612   4.839  0.0729 -0.2553 -1.2106
20182SOL    HW264078   4.225   7.761   4.853 -1.3998 -0.6209  0.4576
20183SOL     OW64079   0.633   2.073   7.428 -0.3088 -0.1317  0.2386
20183SOL    HW164080   0.622   2.168   7.425 -1.4508 -0.2261  0.8231
20183SOL    HW264081   0.667   2.050   7.342 -0.1770  0.7792  0.0285
20184SOL     OW64082   6.951   3.049   1.328  0.3004 -0.2024  0.3549
20184SOL    HW164083   6.938   3.101   1.249  1.5656 -1.0513 -0.4585
20184SOL    HW264084   7.030   2.997   1.310  1.2829  0.3832  2.6195
20185SOL     OW64085   6.812   9.540  10.360 -0.2018 -0.4111  0.4335
20185SOL    HW164086   6.816   9.556  10.266 -0.1524 -0.2225  0.4685
20185SOL    HW264087   6.793   9.625  10.399  1.1707 -0.2075  0.6972
20186SOL     OW64088   0.258   3.682   9.898 -0.1293 -0.2701  0.2999
20186SOL    HW164089   0.209   3.651   9.822 -1.5318 -0.0117  1.0576
20186SOL    HW264090   0.313   3.752   9.864 -0.7164 -0.1752 -0.4942
20187SOL     OW64091   4.140   5.200   3.140  0.1859 -0.1793 -0.1114
20187SOL    HW164092   4.194   5.256   3.196 -2.5564 -0.3985  3.0998
20187SOL    HW264093   4.098   5.261   3.078  2.0282  0.3186 -0.9360
20188SOL     OW64094  10.471   8.252   7.101  0.2801  0.3064 -0.3777
20188SOL    HW164095  10.453   8.158   7.091  1.9171  0.0649 -1.6815
20188SOL    HW264096  10.516   8.258   7.185 -0.4209  0.0268  0.0241
20189SOL     OW64097   1.579   6.327   7.495 -0.0672 -0.1493  0.5606
20189SOL    HW164098   1.605   6.298   7.582 -1.5175  0.4713  1.2505
20189SOL    HW264099   1.503   6.273   7.474  0.5474 -0.6106 -0.5332
20190SOL     OW64100   8.954   6.056   7.327  0.0934 -0.4327  0.6006
20190SOL    HW164101   8.986   5.977   7.282 -0.8881 -0.5964  0.1557
20190SOL    HW264102   8.980   6.128   7.270  2.2310 -0.2639  1.6890
20191SOL     OW64103   5.936   7.298   1.488  0.4614  0.0157  0.7234
20191SOL    HW164104   5.900   7.311   1.576 -1.3422 -0.2496  0.0728
20191SOL    HW264105   5.919   7.381   1.443 -1.0314 -0.7115 -0.1281
20192SOL     OW64106   2.804   8.176   0.083 -0.1833  0.6284  0.0064
20192SOL    HW164107   2.855   8.238   0.135  0.6151 -0.2212  0.2684
20192SOL    HW264108   2.845   8.179  -0.004  0.3738 -0.0977  0.2330
20193SOL     OW64109   8.994   4.991   4.989 -0.1555  0.6103  0.3294
20193SOL    HW164110   8.997   5.003   5.084 -1.5499  1.5187  0.2969
20193SOL    HW264111   8.907   5.023   4.964  0.6170  1.4989 -1.3921
20194SOL     OW64112   3.518   8.065  10.995 -1.0804  0.0940 -0.2541
20194SOL    HW164113   3.494   8.066  10.902  0.1479  0.5406 -0.5933
20194SOL    HW264114   3.594   8.006  10.999  1.6444  3.2759 -0.3532
20195SOL     OW64115   6.409  10.798   1.232 -0.2968 -0.0609 -0.1085
20195SOL    HW164116   6.480  10.856   1.259 -0.2180 -0.5043  0.6820
20195SOL    HW264117   6.331  10.835   1.271 -1.1098  2.1977 -3.4755
20196SOL     OW64118   8.740   9.532   9.727  0.3639 -0.6431 -0.5480
20196SOL    HW164119   8.779   9.452   9.762  1.0979 -0.4054 -0.8180
20196SOL    HW264120   8.791   9.551   9.649 -0.1482 -0.1990 -0.7762
20197SOL     OW64121   7.071   4.737   2.990 -0.0978 -0.0242 -0.0059
20197SOL    HW164122   7.116   4.819   2.969  1.0834 -0.8419 -0.8322
20197SOL    HW264123   7.107   4.711   3.075  0.5019 -0.3116 -0.3352
20198SOL     OW64124   4.846   0.980   1.916 -0.9959  0.9862  0.3869
20198SOL    HW164125   4.800   0.926   1.980  1.8485 -0.7911  1.0975
20198SOL    HW264126   4.799   0.966   1.833 -0.3567 -2.7533  0.5250
20199SOL     OW64127   5.697   0.626  10.774 -0.3996  0.0726  0.8022
20199SOL    HW164128   5.749   0.562  10.724 -1.6007  0.3610 -0.9207
20199SOL    HW264129   5.649   0.573  10.837 -0.5237 -0.6024  0.1619
20200SOL     OW64130   8.300   5.459  11.050  0.2477 -0.4186  0.2296
20200SOL    HW164131   8.302   5.526  10.981  0.3340  0.0687  0.6993
20200SOL    HW264132   8.248   5.499  11.120 -0.6897 -1.2964  0.0603
20201SOL     OW64133   4.298   2.485   4.224  0.4158 -0.0433 -0.2782
20201SOL    HW164134   4.294   2.394   4.253 -0.9650  0.4379  1.1885
20201SOL    HW264135   4.216   2.499   4.176  0.3791  0.5683 -0.0472
20202SOL     OW64136  10.953   8.302   6.273 -0.2761  0.2926  0.4585
20202SOL    HW164137  10.952   8.381   6.218  0.8615 -1.9323 -3.0211
20202SOL    HW264138  11.042   8.297   6.307  0.7470 -1.1395 -2.1530
20203SOL     OW64139  10.828   3.131   6.357  0.0275  0.2020 -0.0652
20203SOL    HW164140  10.829   3.205   6.417  1.0017  0.2096 -0.0708
20203SOL    HW264141  10.899   3.150   6.295 -1.2897  0.4760 -1.5791
20204SOL     OW64142   6.137   9.433   9.139  0.1406  0.3575  0.4687
20204SOL    HW164143   6.164   9.497   9.073 -0.6166 -1.4392 -1.7343
20204SOL    HW264144   6.218   9.389   9.164  0.2604  0.0044 -0.4841
20205SOL     OW64145   4.853   5.643  10.986 -0.2015 -0.9671 -0.2053
20205SOL    HW164146   4.766   5.606  10.969 -1.3268  1.2637  0.3402
20205SOL    HW264147   4.849   5.674  11.076  2.1807 -3.2991  0.8259
20206SOL     OW64148   9.053   1.568   5.658 -0.3031  0.3099 -0.2795
20206SOL    HW164149   9.051   1.579   5.753 -1.1493 -0.2490 -0.2206
20206SOL    HW264150   9.137   1.604   5.632 -0.2740  0.9403  0.6197
20207SOL     OW64151   7.847   5.168   7.112  0.0584  0.3162  0.1086
20207SOL    HW164152   7.942   5.164   7.124 -0.0412 -0.0651  0.8356
20207SOL    HW264153   7.835   5.182   7.018  0.8418  0.9152  0.0883
20208SOL     OW64154   2.462   8.303   5.469 -0.2996  0.1840 -0.0578
20208SOL    HW164155   2.452   8.250   5.549  2.7168 -1.1529 -0.4288
20208SOL    HW264156   2.426   8.247   5.400  1.4192 -0.7585 -0.2291
20209SOL     OW64157   9.019   5.910   1.442 -0.1653  0.2490 -0.0067
20209SOL    HW164158   8.970   5.830   1.423  1.2282 -0.6460  0.0809
20209SOL    HW264159   8.952   5.979   1.440 -1.3542 -0.8619 -0.3290
20210SOL     OW64160   6.725   2.098  11.078  0.2177 -0.2970 -0.0710
20210SOL    HW164161   6.754   2.177  11.122  1.5638 -2.2575  2.8709
20210SOL    HW264162   6.659   2.060  11.137 -0.5090 -1.3246 -1.4820
20211SOL     OW64163   5.088   5.505   7.761 -0.2612  0.5922  0.7641
20211SOL    HW164164   5.084   5.503   7.856 -1.6277  1.3038  0.7497
20211SOL    HW264165   4.997   5.504   7.733  0.0590  1.9968 -0.4844
20212SOL     OW64166  10.694   5.970   3.471 -0.3719  0.2969  0.2942
20212SOL    HW164167  10.673   6.044   3.413 -0.1784  0.1964  0.0957
20212SOL    HW264168  10.638   5.984   3.547  0.6434  1.4335  0.8813
20213SOL     OW64169   8.673   9.593   6.966  0.3709 -0.0129  0.1325
20213SOL    HW164170   8.760   9.568   6.933 -0.3607 -1.2820 -0.9132
20213SOL    HW264171   8.660   9.683   6.934  1.0059 -0.0677 -0.2997
20214SOL     OW64172   7.305   6.822   8.875 -0.1653 -0.3490 -0.2575
20214SOL    HW164173   7.232   6.844   8.933 -0.0220 -1.4195  0.3644
20214SOL    HW264174   7.280   6.858   8.790  0.4334  2.8517  0.8159
20215SOL     OW64175   2.558   4.655   2.567 -0.0369  0.0382 -0.0647
20215SOL    HW164176   2.628   4.657   2.502  0.3393 -0.3036  0.3228
20215SOL    HW264177   2.585   4.587   2.629 -0.3118  0.4620  0.5304
20216SOL     OW64178   1.561   6.086   3.903  0.1470  0.2115  0.7236
20216SOL    HW164179   1.507   6.023   3.854  2.0223 -0.4940 -0.5632
20216SOL    HW264180   1.585   6.152   3.838  1.3833  0.1263  1.0736
20217SOL     OW64181   6.537   3.518   6.522 -0.2586  0.1770 -0.1463
20217SOL    HW164182   6.543   3.472   6.605 -0.4205  0.5847  0.0949
20217SOL    HW264183   6.463   3.579   6.533 -0.4271  0.0796 -0.6615
20218SOL     OW64184   6.211  10.091   6.160  0.7758 -0.1408 -0.2978
20218SOL    HW164185   6.138  10.137   6.118  0.4278 -1.1581 -0.8354
20218SOL    HW264186   6.284  10.153   6.156 -0.1459  1.0590  0.6215
20219SOL     OW64187   0.775   8.422   6.396  0.1729 -0.8704 -0.5505
20219SOL    HW164188   0.759   8.395   6.305 -2.4800 -1.3861  0.0007
20219SOL    HW264189   0.807   8.343   6.439  1.6815 -0.5630 -1.0252
20220SOL     OW64190   1.481   6.375   9.731 -0.2986  0.2152  0.5398
20220SOL    HW164191   1.422   6.439   9.770  1.0295  0.9743  1.3495
20220SOL    HW264192   1.567   6.415   9.737 -0.0010  0.6552 -3.6898
20221SOL     OW64193  10.494   8.660   8.484  0.6890 -0.6390  0.6199
20221SOL    HW164194  10.440   8.584   8.462 -0.1076  0.1429 -0.1706
20221SOL    HW264195  10.581   8.623   8.499  0.0920 -1.8414  1.2906
20222SOL     OW64196   6.876   9.038   1.918 -0.2627 -0.1114  0.2308
20222SOL    HW164197   6.962   9.078   1.936  0.0142 -0.3276 -0.5794
20222SOL    HW264198   6.837   9.094   1.852  0.4689 -1.5773 -1.5342
20223SOL     OW64199   4.788   8.527   3.427  0.0890  0.1265 -0.3620
20223SOL    HW164200   4.852   8.527   3.355  1.4928 -0.6793  0.8331
20223SOL    HW264201   4.815   8.454   3.483 -0.3472  1.3368  1.5178
20224SOL     OW64202  10.405   5.379   2.309  0.3369 -0.0592  0.3778
20224SOL    HW164203  10.392   5.403   2.217 -1.3224  0.5773  0.7470
20224SOL    HW264204  10.376   5.455   2.359 -1.4753 -1.3862  1.4938
20225SOL     OW64205   0.598   6.690   8.046 -0.7247  0.0556 -0.0732
20225SOL    HW164206   0.644   6.768   8.076  0.6918 -0.7428 -0.0836
20225SOL    HW264207   0.560   6.652   8.125 -1.0792  0.5218 -0.0135
20226SOL     OW64208   6.351   9.956   8.316  0.0691 -0.2940  0.1567
20226SOL    HW164209   6.395  10.041   8.322 -1.0685  0.2792  0.6408
20226SOL    HW264210   6.419   9.896   8.286  0.8643  0.8118 -0.3149
20227SOL     OW64211   5.986   9.065   6.479 -0.2702  0.3775  0.0963
20227SOL    HW164212   5.924   9.050   6.408 -1.7693 -0.4833  1.5068
20227SOL    HW264213   6.051   9.126   6.443 -1.0873  0.1222 -1.9057
20228SOL     OW64214   0.641   3.108  10.488 -0.0852  0.5937  0.5455
20228SOL    HW164215   0.587   3.030  10.499 -0.5561  0.9296  0.6912
20228SOL    HW264216   0.726   3.075  10.461  0.0054 -0.0358  1.5159
20229SOL     OW64217   3.363   4.285   6.711 -0.1019 -0.4524  0.1111
20229SOL    HW164218   3.298   4.299   6.644 -0.5825 -1.6247  0.2973
20229SOL    HW264219   3.415   4.365   6.712 -2.3666  1.1050  0.9176
20230SOL     OW64220   9.411   1.126   4.843 -0.7082  0.5738  0.1654
20230SOL    HW164221   9.328   1.105   4.888 -0.2130 -0.8163  0.4847
20230SOL    HW264222   9.478   1.115   4.911 -0.2312  1.4930 -0.1429
20231SOL     OW64223   8.182  11.009   7.556 -0.2228  0.0351 -0.5315
20231SOL    HW164224   8.127  10.947   7.507  0.4727  0.0446 -1.3380
20231SOL    HW264225   8.259  11.021   7.502  0.0163  1.0046 -0.0024
20232SOL     OW64226   2.974   8.706   9.457  0.4850 -0.3641  0.1371
20232SOL    HW164227   2.940   8.735   9.541  0.1852  0.9986 -0.4277
20232SOL    HW264228   2.912   8.639   9.428  0.7472 -1.0424  1.1095
20233SOL     OW64229   0.895   6.416   8.202  0.5564  0.0932 -0.0284
20233SOL    HW164230   0.839   6.455   8.135 -0.2134 -0.3306  0.3464
20233SOL    HW264231   0.915   6.488   8.262 -2.5448 -0.3825  1.8073
20234SOL     OW64232   5.928   4.283   0.904  0.6513  0.8211 -0.6500
20234SOL    HW164233   5.896   4.371   0.886 -0.4525  0.4907 -0.3640
20234SOL    HW264234   5.890   4.228   0.835 -0.6424  0.1793  0.5131
20235SOL     OW64235   0.632   5.113   8.283  0.1708  0.1827  0.3590
20235SOL    HW164236   0.688   5.036   8.285  0.8687  0.6519 -0.4693
20235SOL    HW264237   0.655   5.158   8.201  1.8143  2.7572  2.0894
20236SOL     OW64238   8.444  10.296   3.756  0.6689  0.7620  0.1674
20236SOL    HW164239   8.419  10.216   3.711  1.6064  0.8708 -0.5875
20236SOL    HW264240   8.372  10.315   3.816 -0.2353  0.1722 -0.7274
20237SOL     OW64241  10.553   0.134   2.823  0.3800  0.3329  0.2093
20237SOL    HW164242  10.485   0.168   2.764  0.9032  2.0713  0.5479
20237SOL    HW264243  10.633   0.132   2.770  0.8474  1.8825  0.8173
20238SOL     OW64244  10.535   8.908   4.701  0.1776  0.4827  0.2094
20238SOL    HW164245  10.466   8.901   4.635  1.9758  0.0230 -1.7526
20238SOL    HW264246  10.609   8.861   4.663  1.5666  0.8929  2.2473
20239SOL     OW64247   6.493  10.135   1.296  0.0361 -0.3137 -0.1088
20239SOL    HW164248   6.518  10.060   1.350 -1.6509 -0.2065  0.9109
20239SOL    HW264249   6.461  10.096   1.215  1.9533 -0.5097 -0.8283
20240SOL     OW64250   9.114   3.380   1.758  0.1956 -0.0432  0.3272
20240SOL    HW164251   9.045   3.367   1.692 -0.5574 -0.1597  1.1127
20240SOL    HW264252   9.084   3.329   1.833 -0.0822  1.8635  1.5572
20241SOL     OW64253  10.464  10.892   1.653  0.5892  0.1210  0.2102
20241SOL    HW164254  10.434  10.852   1.735 -0.8834 -1.5827 -1.0912
20241SOL    HW264255  10.504  10.974   1.681  0.4000 -0.5221  2.6677
20242SOL     OW64256   6.522   7.461   5.827  0.1441  0.0094 -0.1744
20242SOL    HW164257   6.543   7.548   5.860  2.7683 -0.3575 -0.6443
20242SOL    HW264258   6.467   7.421   5.894  2.1949  0.6278  1.9918
20243SOL     OW64259   3.880   4.586   4.699  0.0408 -0.5972  0.6223
20243SOL    HW164260   3.974   4.597   4.710 -0.1348  0.5243  1.0672
20243SOL    HW264261   3.865   4.492   4.714  1.0040 -0.6837  1.1041
20244SOL     OW64262   6.072   8.708   0.142 -0.2355  0.2487 -0.3847
20244SOL    HW164263   6.163   8.738   0.145 -0.7083  1.7549 -0.2988
20244SOL    HW264264   6.048   8.699   0.235  0.6849 -3.1363 -0.3138
20245SOL     OW64265   7.084   7.381   5.199  0.2392 -0.3891  0.1739
20245SOL    HW164266   7.058   7.417   5.114  1.0908  1.1582  0.5340
20245SOL    HW264267   7.002   7.376   5.249  0.0669  0.8987  0.0407
20246SOL     OW64268   2.210   9.485   3.812 -0.5882  0.3606  0.2146
20246SOL    HW164269   2.244   9.562   3.858 -1.0109  0.7865 -0.1842
20246SOL    HW264270   2.200   9.419   3.881 -0.7072  0.8234  0.6446
20247SOL     OW64271   7.119   7.604   2.811 -0.4619  0.0181 -0.7802
20247SOL    HW164272   7.065   7.597   2.890  2.7097  0.6527  1.6847
20247SOL    HW264273   7.133   7.698   2.798  1.8852 -0.1098  0.1951
20248SOL     OW64274   5.855   2.856   8.919 -0.1758  0.1207  0.0459
20248SOL    HW164275   5.892   2.793   8.857 -1.8870 -0.5579 -0.3462
20248SOL    HW264276   5.805   2.802   8.981  0.0610  0.9342  0.9653
20249SOL     OW64277   2.261   4.650   7.684  0.1960  0.2279 -0.3129
20249SOL    HW164278   2.224   4.714   7.745  0.1983 -0.4585  0.4402
20249SOL    HW264279   2.315   4.593   7.740  3.7501  2.0751 -1.5224
20250SOL     OW64280   1.355   2.851   8.392  0.5097 -0.0389  0.1574
20250SOL    HW164281   1.410   2.893   8.459 -1.5303  0.2320  1.7368
20250SOL    HW264282   1.335   2.765   8.428  1.1572 -0.7701 -1.1437
20251SOL     OW64283  10.249   6.548  10.182  0.4397 -0.1139  0.7224
20251SOL    HW164284  10.211   6.461  10.189 -0.2492  0.2749  2.4155
20251SOL    HW264285  10.289   6.563  10.268  0.2446  1.3550  0.5799
20252SOL     OW64286   3.514   6.596   5.453 -0.7974 -0.0329  0.2347
20252SOL    HW164287   3.484   6.639   5.533 -0.5792 -2.1897  1.5585
20252SOL    HW264288   3.604   6.626   5.442 -0.6689 -0.0947  1.0785
20253SOL     OW64289   7.125   5.466   6.903 -0.1551  0.6511 -0.1857
20253SOL    HW164290   7.088   5.398   6.847  2.0293  1.0171 -2.2411
20253SOL    HW264291   7.125   5.428   6.990  1.0745 -2.0896 -1.2703
20254SOL     OW64292  11.126   4.899   4.671 -0.3868 -0.5131  0.2888
20254SOL    HW164293  11.039   4.916   4.635 -0.0908 -0.2707 -0.3302
20254SOL    HW264294  11.124   4.938   4.758 -0.1287  1.6851 -0.6194
20255SOL     OW64295   4.258  11.007   5.189  0.9789  0.2242  0.2181
20255SOL    HW164296   4.237  10.946   5.259  1.0101 -0.6993 -0.5606
20255SOL    HW264297   4.219  10.969   5.110  1.2063  1.0797 -0.3308
20256SOL     OW64298   6.107   3.330   6.106  0.2231  0.4586 -0.1111
20256SOL    HW164299   6.074   3.418   6.091  1.2740  0.9138  0.1704
20256SOL    HW264300   6.203   3.339   6.106  0.3490 -0.6652 -0.0184
20257SOL     OW64301  10.504   0.844   0.958  0.3545  0.5480 -0.2228
20257SOL    HW164302  10.532   0.916   0.901  2.3914  0.0369  0.0485
20257SOL    HW264303  10.577   0.832   1.019 -0.6461 -0.6742  0.7757
20258SOL     OW64304   9.491  11.107   2.899  0.7094 -0.1872 -0.0565
20258SOL    HW164305   9.531  11.096   2.985  0.8715  1.6020  0.1369
20258SOL    HW264306   9.541  11.050   2.841  1.5157 -0.3465  0.7715
20259SOL     OW64307   8.678  10.916   6.395  0.0744 -0.2215 -0.2567
20259SOL    HW164308   8.702  10.929   6.304  1.1606 -0.0729  0.0370
20259SOL    HW264309   8.739  10.849   6.427 -0.4222 -0.4192  0.3103
20260SOL     OW64310   8.602   2.323   4.385 -0.0041 -0.2593 -0.8830
20260SOL    HW164311   8.679   2.309   4.330  0.4122 -0.2804 -0.3017
20260SOL    HW264312   8.531   2.281   4.337  0.6327 -1.6128 -0.6960
20261SOL     OW64313   3.983   3.318   1.126  0.2401  0.0299 -0.0462
20261SOL    HW164314   3.985   3.232   1.084  1.9096  1.3194 -2.8830
20261SOL    HW264315   4.008   3.301   1.216  1.9559 -2.3146 -0.8622
20262SOL     OW64316   4.078   5.287   9.725 -0.1905  0.0668 -0.2978
20262SOL    HW164317   4.098   5.250   9.811 -1.3204  2.1843  0.9552
20262SOL    HW264318   4.037   5.372   9.744 -1.3737  0.1736 -2.9168
20263SOL     OW64319   9.028   8.038   5.299  0.5977  0.6831  0.0731
20263SOL    HW164320   9.055   8.095   5.372  1.0347  0.7226 -0.1155
20263SOL    HW264321   8.995   8.098   5.233 -0.4152  0.5996  0.4924
20264SOL     OW64322   8.453   5.777   4.896 -0.6582 -0.5570  0.3933
20264SOL    HW164323   8.438   5.867   4.923 -2.8196 -0.2763 -1.4625
20264SOL    HW264324   8.440   5.726   4.976  0.3716  0.7059  1.4155
20265SOL     OW64325   7.545   0.652   0.556 -0.0040 -0.4061  0.4516
20265SOL    HW164326   7.567   0.715   0.487 -0.9270  0.3733  0.8601
20265SOL    HW264327   7.599   0.678   0.630  0.8616 -1.1407  0.1014
20266SOL     OW64328   0.771  10.191   9.903  0.1157  0.1509  0.1187
20266SOL    HW164329   0.846  10.242   9.874 -0.2003 -0.5344 -2.1248
20266SOL    HW264330   0.709  10.256   9.937 -0.1491  1.2871 -2.3626
20267SOL     OW64331   9.692  10.169   4.870  0.1770  0.3476 -0.5923
20267SOL    HW164332   9.708  10.253   4.913 -1.7764  0.7822 -0.6007
20267SOL    HW264333   9.775  10.145   4.830  0.5337  2.7664 -1.4152
20268SOL     OW64334   8.850  10.448   7.864  0.1556 -0.0801  0.0633
20268SOL    HW164335   8.803  10.481   7.941  0.5726  2.0953 -0.5479
20268SOL    HW264336   8.782  10.434   7.798  0.1008  0.8582 -0.0878
20269SOL     OW64337   7.311   3.668   3.414 -0.1304  0.5208 -0.1591
20269SOL    HW164338   7.280   3.600   3.474  0.3455 -0.1172 -0.6223
20269SOL    HW264339   7.402   3.643   3.394 -0.7811 -0.2804 -2.4922
20270SOL     OW64340   8.616   8.591   6.307 -0.0909 -0.0642 -0.1003
20270SOL    HW164341   8.688   8.545   6.351 -1.0532 -1.7024 -0.1583
20270SOL    HW264342   8.634   8.683   6.323 -1.0627 -0.5015  4.9395
20271SOL     OW64343   0.079   1.770   5.941 -0.7481  0.3953  0.1328
20271SOL    HW164344   0.110   1.739   5.856  0.4056  0.8242  0.3748
20271SOL    HW264345   0.153   1.820   5.977 -1.2093  0.2254  1.3881
20272SOL     OW64346  10.050   8.113   2.023  0.8288  0.3575 -0.5254
20272SOL    HW164347  10.038   8.143   1.932  3.0090  1.7235 -0.4385
20272SOL    HW264348  10.021   8.187   2.076  0.7012  0.0301 -0.1399
20273SOL     OW64349   3.514   6.674   1.448 -0.0679 -0.0812 -0.0343
20273SOL    HW164350   3.534   6.636   1.534  1.1878  0.6932  0.0329
20273SOL    HW264351   3.418   6.677   1.446 -0.1332 -0.5218  1.1597
20274SOL     OW64352   5.911   1.094   3.330 -0.1212  0.0942 -0.3352
20274SOL    HW164353   5.957   1.116   3.249  0.3412  1.5098  0.2730
20274SOL    HW264354   5.834   1.046   3.301  1.1779 -1.4161 -1.4421
20275SOL     OW64355   8.909   2.858   1.432  0.4017 -0.1946 -0.0535
20275SOL    HW164356   8.938   2.938   1.388 -0.4195  0.2463  0.1731
20275SOL    HW264357   8.907   2.882   1.525 -1.1536 -0.0290 -0.1048
20276SOL     OW64358   4.070   2.616   5.882 -0.9730  0.0111 -0.0506
20276SOL    HW164359   3.996   2.609   5.821  0.4336 -0.8255 -1.7428
20276SOL    HW264360   4.122   2.537   5.867  1.6423  1.7293 -0.8451
20277SOL     OW64361   9.904   5.856   8.241  0.2828 -0.0580  0.1913
20277SOL    HW164362   9.945   5.942   8.245  0.9820 -0.3489 -0.4915
20277SOL    HW264363   9.889   5.842   8.147  0.0279 -0.6151  0.3138
20278SOL     OW64364   9.257   7.917   0.367 -0.4584 -0.0465  0.4296
20278SOL    HW164365   9.198   7.845   0.344  1.2927 -0.9202 -1.7820
20278SOL    HW264366   9.228   7.990   0.311 -0.6377  0.1508  0.7766
20279SOL     OW64367   2.375   7.658   2.789  0.2641  0.1975  0.0004
20279SOL    HW164368   2.359   7.752   2.801  1.6871  0.4456  0.1156
20279SOL    HW264369   2.290   7.623   2.762 -0.5725  1.3279  1.0176
20280SOL     OW64370   0.341   8.745  10.249 -0.0246 -0.1468  0.3529
20280SOL    HW164371   0.434   8.752  10.231 -0.2253 -1.2331 -1.2632
20280SOL    HW264372   0.333   8.665  10.302 -0.3498 -2.3185 -2.7132
20281SOL     OW64373   5.126   0.075   5.668  0.2903  0.4897  1.0647
20281SOL    HW164374   5.131   0.030   5.584 -0.3648 -2.0149  2.2498
20281SOL    HW264375   5.213   0.063   5.706  0.8024  2.2219  0.5057
20282SOL     OW64376   2.971   4.786   7.492  0.0157 -0.2984 -0.3375
20282SOL    HW164377   2.916   4.708   7.494 -2.0252  1.0512  3.0114
20282SOL    HW264378   2.934   4.840   7.422 -3.2269  0.6084  1.8738
20283SOL     OW64379  10.888   2.325   1.895  0.5370  0.4080  0.0447
20283SOL    HW164380  10.809   2.337   1.948  2.0608  0.6015  2.4128
20283SOL    HW264381  10.887   2.398   1.833 -0.9662  0.5693  0.2220
20284SOL     OW64382   0.330   0.871   4.641 -0.0028 -0.0560  0.1504
20284SOL    HW164383   0.258   0.827   4.686 -0.0179  0.8855  1.1045
20284SOL    HW264384   0.409   0.828   4.674 -0.0477  0.2171  0.6348
20285SOL     OW64385   6.519  10.642   0.421 -0.3290  0.0090  0.0958
20285SOL    HW164386   6.556  10.699   0.489 -0.4278 -0.8086  0.8486
20285SOL    HW264387   6.595  10.610   0.372 -0.1553 -0.3660  0.6021
20286SOL     OW64388   3.223   0.900   0.919  0.0554  0.2585 -0.5530
20286SOL    HW164389   3.276   0.863   0.848  1.7761  0.7651  0.4051
20286SOL    HW264390   3.143   0.848   0.919  1.3027 -1.7765 -0.9256
20287SOL     OW64391   9.225   4.213   2.219 -0.1347  0.0571  0.3930
20287SOL    HW164392   9.304   4.165   2.193  0.8215  0.3861  2.4757
20287SOL    HW264393   9.195   4.255   2.139 -0.3600 -3.0074 -1.2948
20288SOL     OW64394   4.618   7.502   5.142 -0.0779  0.4607 -0.3175
20288SOL    HW164395   4.564   7.458   5.076 -1.1792  0.5252  0.5003
20288SOL    HW264396   4.645   7.583   5.100 -0.2764  0.2338 -0.9003
20289SOL     OW64397   8.413   2.652   4.390  0.0025  0.0802  0.1017
20289SOL    HW164398   8.322   2.681   4.393 -0.3601 -0.9735 -0.1907
20289SOL    HW264399   8.415   2.585   4.321  1.3366  1.1725 -0.9934
20290SOL     OW64400   8.537   0.102   9.567 -0.7094  0.2755  0.2205
20290SOL    HW164401   8.519   0.123   9.658  1.0637  0.4053  0.5855
20290SOL    HW264402   8.574   0.182   9.531  1.8427 -0.7438  0.3805
20291SOL     OW64403   4.706   8.774   3.107  0.1087 -0.2505 -0.2184
20291SOL    HW164404   4.669   8.726   3.181  0.4025  0.7339  0.5901
20291SOL    HW264405   4.746   8.851   3.147 -1.2193  1.1990 -1.5591
20292SOL     OW64406   0.601   2.637   0.553 -0.4227 -0.0575 -0.2139
20292SOL    HW164407   0.572   2.599   0.470  0.8862 -1.8403  0.0809
20292SOL    HW264408   0.648   2.566   0.597  1.9693  1.8605  0.5242
20293SOL     OW64409   4.548   6.872   4.894  0.4872 -0.0355 -0.4740
20293SOL    HW164410   4.644   6.879   4.895  0.7544 -2.4952  1.2797
20293SOL    HW264411   4.520   6.928   4.966  0.7698 -0.6091  0.0925
20294SOL     OW64412   7.521   4.772   5.717 -0.5015 -0.0093  0.1093
20294SOL    HW164413   7.464   4.742   5.646  0.0436  0.6779 -0.6443
20294SOL    HW264414   7.499   4.716   5.791 -1.2216 -0.6202 -0.5461
20295SOL     OW64415   9.181   3.193   2.174 -0.0498  0.1601  0.0037
20295SOL    HW164416   9.196   3.188   2.079 -0.4226  1.3511 -0.1336
20295SOL    HW264417   9.245   3.256   2.205 -1.5583  1.6858  0.1338
20296SOL     OW64418   1.363   3.487   1.111  0.1603  0.0902 -0.2121
20296SOL    HW164419   1.401   3.530   1.034  1.1008 -1.5792 -0.7315
20296SOL    HW264420   1.321   3.408   1.076  0.2186 -0.4602  0.9219
20297SOL     OW64421   6.654   4.363   9.087 -0.3368 -0.4808 -0.3274
20297SOL    HW164422   6.653   4.267   9.095 -0.1824 -0.4007  0.7610
20297SOL    HW264423   6.724   4.391   9.146 -1.2108  0.3812  0.3230
20298SOL     OW64424   0.703   7.991   9.029 -0.0635 -0.6681  0.1417
20298SOL    HW164425   0.746   8.019   9.110  1.0152  0.4377 -0.7756
20298SOL    HW264426   0.670   8.072   8.990  0.3750 -1.0473 -1.0540
20299SOL     OW64427   1.862   1.077   3.606  0.1698  0.1013  0.7620
20299SOL    HW164428   1.845   1.015   3.678 -0.7494 -1.3299 -0.6255
20299SOL    HW264429   1.885   1.021   3.532 -0.0592  1.4730 -0.3742
20300SOL     OW64430   5.409   1.075  11.071 -0.2873 -0.3820 -0.1418
20300SOL    HW164431   5.471   1.003  11.076  0.0835 -0.1005 -0.5635
20300SOL    HW264432   5.386   1.080  10.978  1.6017  1.6008 -0.5962
20301SOL     OW64433   6.986   0.066   9.797  0.2698 -0.4212  0.8163
20301SOL    HW164434   6.979   0.120   9.876  0.8162 -0.5441  0.9555
20301SOL    HW264435   6.971   0.127   9.725 -0.6390 -0.3887  1.0280
20302SOL     OW64436   1.283   0.587   8.215  0.1987 -0.5407 -0.3198
20302SOL    HW164437   1.301   0.569   8.307  0.7986 -1.6161 -0.6224
20302SOL    HW264438   1.197   0.629   8.214  0.1593 -0.5871  0.7169
20303SOL     OW64439   4.607   6.558   8.807 -0.2267  0.0953  0.2616
20303SOL    HW164440   4.632   6.480   8.857  1.7797 -0.9777 -2.2062
20303SOL    HW264441   4.620   6.631   8.868 -0.0139 -1.2841  1.9570
20304SOL     OW64442   8.830   4.139   4.086 -0.4538  0.0303  0.6095
20304SOL    HW164443   8.765   4.080   4.124 -0.8945  0.1119 -0.0084
20304SOL    HW264444   8.915   4.102   4.111 -0.7195  0.4459  2.2396
20305SOL     OW64445   2.896  10.012   7.213  0.2777  0.9021  0.1480
20305SOL    HW164446   2.959  10.083   7.221  0.5474  0.6785  0.0504
20305SOL    HW264447   2.919   9.970   7.130  0.0429  0.7772  0.1459
20306SOL     OW64448   5.237   6.832   9.236  0.4216  0.8106 -0.9319
20306SOL    HW164449   5.187   6.842   9.317  0.6296 -1.8850 -0.3861
20306SOL    HW264450   5.314   6.888   9.248  1.0597 -0.4095  1.3262
20307SOL     OW64451   2.918   0.912   6.109  0.1030 -0.4111 -0.0960
20307SOL    HW164452   2.979   0.854   6.155 -2.1920 -1.7864  1.4908
20307SOL    HW264453   2.905   0.870   6.024  0.4615 -0.7746  0.0239
20308SOL     OW64454   1.849  10.609  11.007  0.1263  0.1027 -0.1733
20308SOL    HW164455   1.877  10.536  11.063 -1.0480 -1.3129 -1.3292
20308SOL    HW264456   1.763  10.634  11.041  1.2549  2.2243  1.3279
20309SOL     OW64457   5.355   1.531   4.576  0.1906  0.2876  0.1409
20309SOL    HW164458   5.265   1.500   4.586  0.1527  0.2758 -0.2416
20309SOL    HW264459   5.348   1.609   4.521  0.6777 -1.3346 -2.3845
20310SOL     OW64460   9.893  10.372   6.902 -0.3112 -0.4949  0.4762
20310SOL    HW164461   9.820  10.324   6.863 -1.4222  0.3149  1.5065
20310SOL    HW264462   9.942  10.406   6.826 -0.1237 -2.2902 -0.2416
20311SOL     OW64463   3.694   8.953   8.027 -0.0125 -0.2045 -0.2948
20311SOL    HW164464   3.722   8.864   8.049  3.6020  0.6943 -0.6722
20311SOL    HW264465   3.714   9.004   8.106  0.5453  0.7233 -1.0239
20312SOL     OW64466   8.894   7.920   2.696 -0.8030  0.1361  0.4341
20312SOL    HW164467   8.970   7.932   2.753 -1.4034  0.0145  1.2668
20312SOL    HW264468   8.873   7.827   2.703 -1.3101  0.2594  0.5650
20313SOL     OW64469   3.429   7.577   1.192 -0.0820 -0.4602 -0.4426
20313SOL    HW164470   3.419   7.594   1.286  1.5801 -0.1250 -0.2973
20313SOL    HW264471   3.397   7.658   1.150  1.1726  0.2619 -0.0553
20314SOL     OW64472   6.261   7.669   7.632 -0.4743 -0.5943  0.0519
20314SOL    HW164473   6.230   7.704   7.548 -0.3050  0.9261  0.5833
20314SOL    HW264474   6.181   7.640   7.676 -0.7792  0.2446  0.0732
20315SOL     OW64475   0.026   3.108   4.228  0.4157  0.2660 -0.1067
20315SOL    HW164476   0.065   3.037   4.177  1.2605  0.9446 -0.4241
20315SOL    HW264477  -0.027   3.157   4.165 -1.0674 -0.7042  0.3413
20316SOL     OW64478   2.361   1.532   1.864  0.4234  1.0524  0.4844
20316SOL    HW164479   2.423   1.495   1.800  2.1182 -0.4371  2.8456
20316SOL    HW264480   2.277   1.534   1.818  1.5674  0.1106 -1.7977
20317SOL     OW64481   4.842   7.685   2.692 -0.5889 -0.2986 -0.6541
20317SOL    HW164482   4.921   7.699   2.640  0.2746  2.6063  1.2024
20317SOL    HW264483   4.846   7.593   2.718  1.0780 -0.7248 -2.2593
20318SOL     OW64484   6.314   0.254   4.548 -0.1102 -0.3914 -0.1516
20318SOL    HW164485   6.394   0.221   4.588 -0.3116 -1.8386 -0.8655
20318SOL    HW264486   6.248   0.250   4.618  0.6942  2.1637  0.8659
20319SOL     OW64487   4.248   5.375   7.861  0.3599  0.9915  0.2043
20319SOL    HW164488   4.334   5.377   7.820 -0.0445 -0.4244 -0.8040
20319SOL    HW264489   4.193   5.431   7.805  0.3228  0.8475  0.0969
20320SOL     OW64490  11.105   4.105   9.472  0.5175 -0.1605 -0.2788
20320SOL    HW164491  11.016   4.140   9.482  0.8084  0.2897  0.9617
20320SOL    HW264492  11.153   4.174   9.427  0.4961  0.0690  0.0383
20321SOL     OW64493   4.396   8.265   0.031 -0.0288  0.5522 -0.0490
20321SOL    HW164494   4.325   8.267   0.095  0.2076  0.5188  0.2155
20321SOL    HW264495   4.475   8.280   0.082  0.0909  1.3038 -0.4377
20322SOL     OW64496   1.208   4.462   4.314 -0.7491 -0.3113 -0.3882
20322SOL    HW164497   1.292   4.432   4.347 -0.1164  1.2138 -0.5220
20322SOL    HW264498   1.224   4.483   4.222 -1.2293  0.1297 -0.3808
20323SOL     OW64499   6.187   9.860   0.009  0.2391  0.5450 -0.1110
20323SOL    HW164500   6.129   9.899  -0.056 -1.5587 -0.8859  0.5310
20323SOL    HW264501   6.248   9.808  -0.043 -0.3819  0.4149 -0.7365
20324SOL     OW64502   3.154   1.997   4.954  0.3047  0.4888 -0.2686
20324SOL    HW164503   3.206   1.918   4.968  0.1835 -0.0785 -2.6690
20324SOL    HW264504   3.184   2.058   5.021  2.1209 -0.7507  0.0987
20325SOL     OW64505   0.552   2.374   7.424 -0.1254 -1.0669  0.3153
20325SOL    HW164506   0.476   2.402   7.476  0.4782 -1.8266  1.6614
20325SOL    HW264507   0.587   2.455   7.389 -1.3011 -0.6590  0.0158
20326SOL     OW64508   6.385   0.573   6.823 -0.1728  0.1195  0.2400
20326SOL    HW164509   6.290   0.559   6.827 -0.2154  0.6477  1.9237
20326SOL    HW264510   6.420   0.491   6.789 -1.0322 -1.1668  2.2642
20327SOL     OW64511   2.811   6.376   3.787  0.5015 -0.0018 -0.1788
20327SOL    HW164512   2.763   6.432   3.847  0.5459  0.2860 -0.4094
20327SOL    HW264513   2.887   6.428   3.760  0.5942 -0.2065 -0.3222
20328SOL     OW64514   5.667   4.547   4.452  0.4905 -0.3846 -0.2787
20328SOL    HW164515   5.619   4.562   4.533 -0.4970 -0.5277 -0.8272
20328SOL    HW264516   5.715   4.629   4.438 -1.3627  0.6401 -0.8922
20329SOL     OW64517   6.919   9.225   5.563 -0.3852 -0.1044 -0.2378
20329SOL    HW164518   6.988   9.233   5.496 -0.3498  2.0338 -0.0376
20329SOL    HW264519   6.965   9.198   5.642 -0.4770 -3.0107 -1.0883
20330SOL     OW64520   6.822  10.727   5.993  0.2806  0.1682 -0.0638
20330SOL    HW164521   6.841  10.782   5.917  1.2086 -0.3046 -0.1871
20330SOL    HW264522   6.764  10.659   5.960  1.3552 -0.5251 -0.5492
20331SOL     OW64523   3.272   2.959   9.780 -0.2808  0.3880  0.2490
20331SOL    HW164524   3.292   2.913   9.698 -1.8622  0.1605 -0.0459
20331SOL    HW264525   3.204   3.022   9.756 -0.7867  0.3048  1.3885
20332SOL     OW64526   2.646   6.215   3.078 -0.4244 -0.6874 -0.2382
20332SOL    HW164527   2.655   6.269   3.000 -0.4198 -0.3945 -0.0385
20332SOL    HW264528   2.673   6.127   3.051  0.4423 -0.3991 -0.3384
20333SOL     OW64529   7.515   1.979   7.612  0.1601  0.0004 -0.0227
20333SOL    HW164530   7.494   1.907   7.672 -2.1047 -0.0218 -0.7469
20333SOL    HW264531   7.491   2.058   7.660 -0.4443  0.0577 -0.4095
20334SOL     OW64532   5.873   2.568   4.601  0.2995  0.2313 -0.4479
20334SOL    HW164533   5.949   2.515   4.580 -0.4413 -1.5408  1.0519
20334SOL    HW264534   5.798   2.512   4.582 -0.5605  1.1109  0.1958
20335SOL     OW64535  10.777   4.359  10.723  0.0527  0.5797  0.7330
20335SOL    HW164536  10.699   4.361  10.779 -0.7284 -0.8370 -0.2396
20335SOL    HW264537  10.845   4.322  10.778 -1.3181 -3.2326  0.1684
20336SOL     OW64538  11.011   2.573   4.006 -0.1042  0.1402 -0.0679
20336SOL    HW164539  11.036   2.556   4.097  0.2569  1.5331  0.1084
20336SOL    HW264540  10.945   2.505   3.987  0.5773 -0.8180  0.8744
20337SOL     OW64541   4.522   0.875   7.499  0.2321 -0.6051 -0.3138
20337SOL    HW164542   4.476   0.815   7.558 -2.8498  0.1513 -1.7409
20337SOL    HW264543   4.530   0.826   7.417  1.8596 -0.6170 -0.1798
20338SOL     OW64544   0.483   3.549   4.738 -0.3310 -0.1826 -0.2840
20338SOL    HW164545   0.558   3.491   4.724 -1.5844 -1.9117 -0.1570
20338SOL    HW264546   0.507   3.630   4.694  2.5257  0.1423  1.5600
20339SOL     OW64547   1.663   1.820   3.199  0.0869  0.2959  0.2717
20339SOL    HW164548   1.604   1.768   3.253 -2.0480  0.6130 -1.6448
20339SOL    HW264549   1.610   1.848   3.124  2.1025  2.3332 -0.5173
20340SOL     OW64550   7.351   6.866   4.367  0.2523  0.3938 -0.0489
20340SOL    HW164551   7.292   6.861   4.292  1.1068  1.2419 -0.8132
20340SOL    HW264552   7.342   6.957   4.398 -0.6320 -0.1396  1.3499
20341SOL     OW64553   3.306   1.030   4.182  0.2976 -0.0361 -0.2878
20341SOL    HW164554   3.279   1.092   4.250  5.1552  3.4341 -0.9894
20341SOL    HW264555   3.389   0.995   4.214  1.8659  0.3690 -3.5597
20342SOL     OW64556  10.923   6.152   1.187 -0.0722 -0.5913 -0.6244
20342SOL    HW164557  10.972   6.071   1.174  0.2680 -0.0610 -2.9347
20342SOL    HW264558  10.978   6.220   1.148 -1.2016  0.4853 -0.3918
20343SOL     OW64559   0.041   8.439   2.759 -0.1477  0.1876  0.0684
20343SOL    HW164560  -0.053   8.451   2.746 -0.6502 -2.0407  1.0206
20343SOL    HW264561   0.057   8.471   2.848 -0.1183  0.1524  0.0762
20344SOL     OW64562   2.205   2.188   4.534 -0.1574  0.5280  0.2140
20344SOL    HW164563   2.225   2.273   4.572  1.0974 -0.5160  2.0359
20344SOL    HW264564   2.265   2.180   4.460  0.2255  0.9139  0.4842
20345SOL     OW64565   3.059   2.108  10.071 -0.8419  0.0699  0.4212
20345SOL    HW164566   2.991   2.135  10.009 -0.6716 -1.3221 -0.4005
20345SOL    HW264567   3.015   2.048  10.131 -0.4663 -0.4280  0.2037
20346SOL     OW64568   9.023  10.666  10.296  0.2890 -0.0853  0.0062
20346SOL    HW164569   9.003  10.719  10.219 -0.7865 -0.1922  0.1964
20346SOL    HW264570   9.118  10.654  10.294  0.1933 -0.8082 -1.7781
20347SOL     OW64571  10.641   5.064   5.777 -0.1416 -0.0969  0.1200
20347SOL    HW164572  10.682   5.110   5.850 -0.7493  1.0880 -0.2597
20347SOL    HW264573  10.713   5.046   5.716  0.2277 -0.3707  0.6269
20348SOL     OW64574   8.746   3.702   3.685 -0.5935  0.2594  0.1842
20348SOL    HW164575   8.817   3.732   3.629 -1.4947  0.2682 -0.9843
20348SOL    HW264576   8.714   3.622   3.643 -1.3053  0.2866  0.6531
20349SOL     OW64577   4.044  10.153   5.340 -0.0854  0.0732  0.1546
20349SOL    HW164578   4.104  10.208   5.391 -0.8963 -0.4699  1.7455
20349SOL    HW264579   4.063  10.176   5.249  0.4648  2.0809  0.7237
20350SOL     OW64580   0.284   7.986   8.038 -0.2868 -0.2462 -0.1485
20350SOL    HW164581   0.357   7.993   7.976  0.6499  0.5023  1.0055
20350SOL    HW264582   0.294   7.900   8.077 -0.4936 -0.4565 -0.5494
20351SOL     OW64583   6.482  10.714   0.941  0.1240 -0.4525 -0.0945
20351SOL    HW164584   6.552  10.777   0.957 -0.4803  0.4904 -1.0162
20351SOL    HW264585   6.410  10.767   0.904 -0.1989 -1.7515 -1.4118
20352SOL     OW64586   4.380   1.627   4.168  0.1964 -0.4386 -0.3905
20352SOL    HW164587   4.419   1.626   4.081 -2.4905  2.0260 -1.8102
20352SOL    HW264588   4.287   1.644   4.153 -0.0224  2.7381  2.9375
20353SOL     OW64589   2.422   2.904   8.935  0.0009  0.3232 -0.0170
20353SOL    HW164590   2.448   2.812   8.938 -0.3429  0.1681 -1.3928
20353SOL    HW264591   2.354   2.908   8.869 -1.3998  1.2503  1.4216
20354SOL     OW64592   3.810   3.589  10.445  0.0354  0.1187 -0.1113
20354SOL    HW164593   3.745   3.548  10.388  1.3952  1.7954 -3.1759
20354SOL    HW264594   3.764   3.661  10.487 -0.8721 -0.7840  0.4717
20355SOL     OW64595   6.184  10.947   6.304 -0.2739 -0.0169 -0.2200
20355SOL    HW164596   6.239  11.026   6.307  0.4051 -0.5190  1.0015
20355SOL    HW264597   6.153  10.936   6.393 -1.1981 -0.5662 -0.6004
20356SOL     OW64598   3.154   3.280   7.194  0.0020  0.1793  0.1710
20356SOL    HW164599   3.072   3.252   7.234 -0.7204  1.3375 -0.4403
20356SOL    HW264600   3.162   3.372   7.218  1.4924 -0.0955  0.8118
20357SOL     OW64601   5.044   7.508   5.820  0.5016 -0.2227  0.0430
20357SOL    HW164602   5.000   7.592   5.831 -0.1764 -0.6637  0.8018
20357SOL    HW264603   5.014   7.477   5.735  1.4389  0.6828 -0.6458
20358SOL     OW64604   0.749   6.068   4.121  0.1116 -0.3493  0.0609
20358SOL    HW164605   0.659   6.088   4.149 -0.5328  0.9814 -2.5928
20358SOL    HW264606   0.800   6.143   4.150 -0.3679  0.5681 -1.3466
20359SOL     OW64607   4.869   7.934   9.421  0.2105  0.0006  0.2181
20359SOL    HW164608   4.930   7.991   9.467 -1.2868  0.7733  1.3383
20359SOL    HW264609   4.782   7.971   9.439 -0.6838 -1.5955 -0.5048
20360SOL     OW64610   7.007   4.725   0.526  0.0969  0.4190 -0.6334
20360SOL    HW164611   7.071   4.705   0.594  0.3157  1.5227 -0.5042
20360SOL    HW264612   7.038   4.806   0.487 -0.4646  0.2159 -1.5258
20361SOL     OW64613   4.531   9.315   6.320  0.1249 -0.4626 -0.0934
20361SOL    HW164614   4.439   9.288   6.324 -0.5692  1.5703 -1.0753
20361SOL    HW264615   4.570   9.279   6.400 -1.7600 -0.5324  0.8606
20362SOL     OW64616   7.897   4.582  10.522 -0.0728 -0.4983  1.0161
20362SOL    HW164617   7.992   4.594  10.528  0.0121 -0.8773  0.5351
20362SOL    HW264618   7.866   4.584  10.612  0.3646 -0.1300  1.1577
20363SOL     OW64619   6.498   4.697   6.884 -0.2713  0.1695 -0.5889
20363SOL    HW164620   6.534   4.782   6.858  0.2308  0.1543  0.0475
20363SOL    HW264621   6.570   4.652   6.926 -1.3026  0.6025  1.8238
20364SOL     OW64622   5.630   3.482   5.615 -0.2737  0.2280 -0.5919
20364SOL    HW164623   5.656   3.547   5.550  0.0722  1.1704  0.4525
20364SOL    HW264624   5.578   3.418   5.566  0.5349  0.5527 -1.9009
20365SOL     OW64625   6.268   9.939   9.403  0.4116 -0.1134  0.3538
20365SOL    HW164626   6.358   9.920   9.428  1.0080  1.7659 -0.2275
20365SOL    HW264627   6.260  10.034   9.410 -1.1774 -0.1233 -0.7283
20366SOL     OW64628   7.319   5.283   9.452  0.4840  0.0493  0.4294
20366SOL    HW164629   7.254   5.234   9.503  0.0101 -0.6713 -0.8316
20366SOL    HW264630   7.347   5.222   9.384  1.1769  0.9594 -0.1179
20367SOL     OW64631   9.903   3.056   0.161  0.2272  0.6068  0.0141
20367SOL    HW164632   9.863   2.998   0.225  0.0087  0.0372 -0.6259
20367SOL    HW264633   9.994   3.026   0.155  0.6285  1.5538  1.0691
20368SOL     OW64634   5.362   7.926   7.173  0.2925  0.0366  0.1799
20368SOL    HW164635   5.446   7.912   7.130  1.4265  2.9154  1.2050
20368SOL    HW264636   5.301   7.941   7.100  0.6894 -1.6927 -0.5578
20369SOL     OW64637   1.597   1.640   1.488 -0.5641  0.0600 -0.1356
20369SOL    HW164638   1.536   1.606   1.422 -0.0807 -0.7886 -0.1586
20369SOL    HW264639   1.631   1.721   1.450 -0.5458 -0.2416 -0.7829
20370SOL     OW64640   1.333   1.530   7.504  0.2147  0.1546 -0.0063
20370SOL    HW164641   1.273   1.604   7.513 -0.0327  0.2477 -2.0450
20370SOL    HW264642   1.396   1.558   7.438  0.7383 -1.0640 -0.0487
20371SOL     OW64643   5.996   8.170   4.930  0.3653  0.3197  0.4990
20371SOL    HW164644   6.015   8.262   4.951 -0.9617  0.3517  1.6695
20371SOL    HW264645   5.903   8.169   4.906  0.1521 -0.8320  1.2859
20372SOL     OW64646   5.307   4.548   1.615 -0.2845  0.4771 -0.2025
20372SOL    HW164647   5.233   4.605   1.594  0.2851  1.4506  0.3499
20372SOL    HW264648   5.381   4.608   1.625 -0.0558 -0.1374  2.3222
20373SOL     OW64649   0.468   0.944   4.178  0.6899 -0.0874  0.2870
20373SOL    HW164650   0.493   0.864   4.131 -2.6073 -0.6524 -0.7977
20373SOL    HW264651   0.463   1.011   4.110 -0.4336  0.0148  0.4472
20374SOL     OW64652   9.674   5.821   2.169  0.8760  0.5137  0.5895
20374SOL    HW164653   9.606   5.876   2.208 -0.3077  0.8575 -1.7807
20374SOL    HW264654   9.627   5.760   2.113  2.4358 -0.2294  0.0255
20375SOL     OW64655   0.822   3.869   8.039  0.2828  0.2858  0.6498
20375SOL    HW164656   0.782   3.903   8.119 -0.9155 -0.6296  0.4752
20375SOL    HW264657   0.842   3.947   7.987  0.3439  0.8481  1.5121
20376SOL     OW64658   5.490   7.709   7.557 -0.5646 -0.1645  0.2492
20376SOL    HW164659   5.463   7.678   7.470  0.9122  0.0719 -0.3215
20376SOL    HW264660   5.428   7.668   7.617 -0.7080 -1.5702 -0.7893
20377SOL     OW64661  10.537  10.020   2.949 -0.2717  0.2971  0.0203
20377SOL    HW164662  10.564  10.058   2.866  0.5304 -0.6335 -0.1664
20377SOL    HW264663  10.600   9.950   2.966 -0.9053 -0.0745  1.0038
20378SOL     OW64664   5.267   5.126   4.544  0.3178  0.4533 -0.2449
20378SOL    HW164665   5.263   5.089   4.456  1.3289  0.2668 -0.2267
20378SOL    HW264666   5.240   5.054   4.602 -2.0457  1.0727 -0.4846
20379SOL     OW64667   3.950  10.330   8.828 -0.3711  0.1078 -0.2156
20379SOL    HW164668   3.994  10.415   8.833  1.1376 -0.6727  0.3293
20379SOL    HW264669   3.880  10.336   8.894  0.4452  0.5446  0.6372
20380SOL     OW64670   8.336   9.106   0.294  0.5304 -0.0770  0.4009
20380SOL    HW164671   8.246   9.137   0.301  0.2762 -1.0339  1.8551
20380SOL    HW264672   8.383   9.151   0.364  0.8292 -0.6771  0.6019
20381SOL     OW64673   7.695   5.233  10.205 -0.0523 -0.6509 -0.4377
20381SOL    HW164674   7.780   5.194  10.224 -0.5541 -0.6860  1.9398
20381SOL    HW264675   7.716   5.323  10.178  0.7734 -1.0111 -1.0725
20382SOL     OW64676   4.228   9.503   4.707  0.3389  0.0619 -0.3625
20382SOL    HW164677   4.260   9.586   4.742  0.3767  0.0222 -0.3027
20382SOL    HW264678   4.149   9.485   4.757  0.1377  0.2353 -0.6102
20383SOL     OW64679   8.138   4.920  10.777  0.1466 -0.4394  0.0295
20383SOL    HW164680   8.152   4.970  10.697  0.0854  1.0494  0.8929
20383SOL    HW264681   8.207   4.950  10.836  0.0727 -1.3633  0.6019
20384SOL     OW64682   6.324   0.804   5.265  0.1674 -0.0819 -0.2749
20384SOL    HW164683   6.358   0.718   5.288  1.1733  0.1136 -0.9806
20384SOL    HW264684   6.374   0.865   5.319 -0.7761  0.0550  0.4735
20385SOL     OW64685   3.398   5.218   8.142  0.1607 -0.3454  0.6005
20385SOL    HW164686   3.371   5.128   8.124  1.2358 -0.9982  2.0230
20385SOL    HW264687   3.398   5.225   8.237 -1.9795  1.8648  0.5433
20386SOL     OW64688   7.290   2.438   6.722 -0.8635  0.2670  0.6789
20386SOL    HW164689   7.290   2.444   6.626  0.7356  0.7774  0.6763
20386SOL    HW264690   7.208   2.478   6.749 -0.0195  2.9245 -0.3791
20387SOL     OW64691   7.307   5.569   1.320  0.2386 -0.1154 -0.1211
20387SOL    HW164692   7.261   5.543   1.240  0.3885 -0.9276  0.0496
20387SOL    HW264693   7.375   5.504   1.330 -0.3522 -0.5596  1.1751
20388SOL     OW64694   6.365   1.819   8.917 -0.3508  0.4471  0.0710
20388SOL    HW164695   6.321   1.896   8.882 -2.2695 -0.7862 -0.3926
20388SOL    HW264696   6.413   1.783   8.843  0.0372  0.8419  0.1286
20389SOL     OW64697   7.791   8.786   8.623 -0.3226  0.4401 -0.3409
20389SOL    HW164698   7.778   8.843   8.547  0.1175  0.3368 -0.4985
20389SOL    HW264699   7.852   8.834   8.679 -0.2262  0.2808 -0.3081
20390SOL     OW64700  10.497   7.532   6.676  0.1785 -1.0570  0.6621
20390SOL    HW164701  10.478   7.494   6.590  0.6118  0.4148 -0.1165
20390SOL    HW264702  10.563   7.473   6.714  2.0513 -0.2783 -1.1815
20391SOL     OW64703   8.090   3.802   3.397  0.3251 -0.3800 -0.3583
20391SOL    HW164704   8.085   3.722   3.345 -3.0737  0.2919 -1.3247
20391SOL    HW264705   8.055   3.777   3.483  4.8828 -1.2135  1.5318
20392SOL     OW64706   7.338   3.816  10.824  0.2955 -0.2426  0.0438
20392SOL    HW164707   7.411   3.808  10.887  0.4343  0.8787  0.0549
20392SOL    HW264708   7.260   3.820  10.879  0.5492  2.7690  0.3618
20393SOL     OW64709   2.682  10.124   4.163 -0.9014  0.3489 -0.0079
20393SOL    HW164710   2.644  10.055   4.109 -0.8833  1.0305 -0.9250
20393SOL    HW264711   2.763  10.085   4.197  0.3981  0.6487 -2.4849
20394SOL     OW64712   2.257   2.478  10.346 -0.6355 -0.5734  0.2080
20394SOL    HW164713   2.220   2.461  10.260 -0.4531 -1.9765  0.3888
20394SOL    HW264714   2.351   2.459  10.336 -0.6358 -0.8727  0.7421
20395SOL     OW64715   6.451   0.653   5.823 -0.0300 -0.1630 -0.8788
20395SOL    HW164716   6.409   0.722   5.772  0.8386  0.8668 -0.2339
20395SOL    HW264717   6.380   0.594   5.847 -0.8748  0.7970 -0.9745
20396SOL     OW64718   0.541   6.547   0.340 -0.2052  0.2049 -0.7037
20396SOL    HW164719   0.480   6.478   0.314 -0.1925  0.3605 -1.1507
20396SOL    HW264720   0.514   6.572   0.429 -0.9224  0.4213 -0.9817
20397SOL     OW64721   9.978   3.661   1.810  0.2189  0.5734  0.2247
20397SOL    HW164722   9.977   3.670   1.714 -0.0648  0.6048  0.2295
20397SOL    HW264723   9.888   3.681   1.836  0.1511 -0.0095  0.4477
20398SOL     OW64724   4.380   6.256   3.925  0.0310  0.4906 -0.2698
20398SOL    HW164725   4.413   6.281   3.839 -1.4228  1.3072 -0.6310
20398SOL    HW264726   4.353   6.339   3.965 -1.6451 -0.1118 -0.0625
20399SOL     OW64727  10.851   9.396   5.912 -0.1681  0.3243 -0.4920
20399SOL    HW164728  10.846   9.330   5.981  0.8596  1.7607  1.0431
20399SOL    HW264729  10.850   9.346   5.830  0.8465 -1.5872  0.6074
20400SOL     OW64730   0.024   5.398   5.803 -0.6465  0.1192 -0.3391
20400SOL    HW164731   0.061   5.475   5.846 -0.0506  0.7029 -1.8396
20400SOL    HW264732   0.034   5.415   5.709 -1.3114 -1.3927 -0.7198
20401SOL     OW64733   8.734   5.532   2.856  0.3295 -0.1125 -0.6929
20401SOL    HW164734   8.821   5.505   2.826  0.9281  0.6887  0.2823
20401SOL    HW264735   8.741   5.626   2.869 -1.1158  0.2159 -1.9835
20402SOL     OW64736   2.214   4.151   9.781 -0.5902  0.3040  0.2454
20402SOL    HW164737   2.238   4.121   9.869  0.1497 -0.4575 -0.2102
20402SOL    HW264738   2.125   4.118   9.769 -0.7975  0.6384  0.8057
20403SOL     OW64739   6.768   8.500   1.786 -0.3752 -0.4307  0.1716
20403SOL    HW164740   6.760   8.588   1.748  0.5710 -1.0916 -1.6629
20403SOL    HW264741   6.862   8.486   1.795 -0.4292 -1.8870 -1.1729
20404SOL     OW64742   9.187   7.026   0.348  0.1074 -0.3072  0.5090
20404SOL    HW164743   9.269   6.983   0.373  0.1227 -0.0671  0.8836
20404SOL    HW264744   9.161   6.982   0.267  1.0396  0.1802 -0.0741
20405SOL     OW64745   4.064   9.386  10.088 -0.6149 -0.2860  0.0955
20405SOL    HW164746   4.057   9.414   9.997  0.3382  0.1821  0.1567
20405SOL    HW264747   3.973   9.374  10.116 -0.9684  0.5899 -0.6072
20406SOL     OW64748   2.568   1.573   8.976  0.0731  0.3402  0.0733
20406SOL    HW164749   2.536   1.661   8.955  1.7170  0.9751  0.1297
20406SOL    HW264750   2.635   1.587   9.043 -0.1518 -1.0368  0.6189
20407SOL     OW64751   6.166   9.233   7.687 -0.6191  0.2780 -0.3275
20407SOL    HW164752   6.092   9.224   7.627 -1.0053 -1.3114  0.3315
20407SOL    HW264753   6.244   9.223   7.631 -0.9493 -0.0475 -0.7328
20408SOL     OW64754   2.740   8.863   7.543  0.7805  0.0035 -0.5164
20408SOL    HW164755   2.676   8.803   7.505  1.6309 -1.6530  0.5522
20408SOL    HW264756   2.810   8.806   7.577  0.8372  1.4484  2.0547
20409SOL     OW64757   8.864   4.647   3.069  0.4836 -0.8141  0.1190
20409SOL    HW164758   8.870   4.743   3.069  1.0582 -0.7811  2.6274
20409SOL    HW264759   8.772   4.629   3.087  0.2934 -0.7599 -0.7593
20410SOL     OW64760  10.588   3.524   9.795  0.4973  0.5100  0.1195
20410SOL    HW164761  10.652   3.569   9.740  2.0777 -0.0964  1.3900
20410SOL    HW264762  10.622   3.435   9.803 -0.9583 -0.0726  0.1611
20411SOL     OW64763   7.468   1.178   4.505  0.2380  0.3345 -0.4516
20411SOL    HW164764   7.456   1.204   4.597  1.3984 -0.6368 -0.0019
20411SOL    HW264765   7.380   1.180   4.468 -0.2302  0.8980  0.6390
20412SOL     OW64766  10.624   8.922   0.070  0.3096 -0.1640  0.1459
20412SOL    HW164767  10.565   8.998   0.067 -0.2019 -0.3886  2.3711
20412SOL    HW264768  10.700   8.949   0.019 -0.4760  1.2823 -0.3236
20413SOL     OW64769   4.117   4.392   0.381 -0.0992 -0.4630 -0.6508
20413SOL    HW164770   4.027   4.417   0.401  0.7097  1.0618  1.5670
20413SOL    HW264771   4.129   4.418   0.290 -1.2961  1.3427 -0.3497
20414SOL     OW64772   7.260   8.955   8.472  0.1792 -0.3123  0.1381
20414SOL    HW164773   7.305   9.026   8.426 -1.2875  1.1446  0.8562
20414SOL    HW264774   7.169   8.985   8.479 -0.4268 -2.1580  0.7125
20415SOL     OW64775   8.121   7.833  10.788 -0.4801 -0.4954  0.0229
20415SOL    HW164776   8.031   7.828  10.820 -0.7421 -0.3932 -0.6992
20415SOL    HW264777   8.170   7.778  10.849 -0.9955 -0.4247  0.5197
20416SOL     OW64778   9.284   3.696   6.701  0.2681  0.6564 -0.3475
20416SOL    HW164779   9.329   3.612   6.693 -1.5710 -0.3596 -0.5730
20416SOL    HW264780   9.294   3.720   6.794 -2.0815 -1.6076  0.6209
20417SOL     OW64781  10.147   2.190   6.578 -0.4768 -0.8333 -0.4885
20417SOL    HW164782  10.190   2.124   6.633 -0.8186 -0.5136  0.1722
20417SOL    HW264783  10.075   2.223   6.632 -0.0198  0.4329 -0.6104
20418SOL     OW64784   7.361  10.351   4.080  0.0822 -0.1427  0.3066
20418SOL    HW164785   7.367  10.443   4.053 -1.4507 -0.0164  0.3332
20418SOL    HW264786   7.277  10.321   4.044  1.1083 -1.9011 -0.7691
20419SOL     OW64787   7.424   0.258   9.435  0.3292 -0.0267 -0.0008
20419SOL    HW164788   7.443   0.304   9.517  1.2446  1.5133 -1.0350
20419SOL    HW264789   7.510   0.235   9.399 -0.0801 -1.4089 -0.1727
20420SOL     OW64790   4.044   3.930   2.465 -0.3786 -0.1118  0.4012
20420SOL    HW164791   4.019   3.907   2.375 -0.6795 -1.5924  0.8364
20420SOL    HW264792   3.992   4.007   2.486 -2.3877 -1.3653  0.2377
20421SOL     OW64793   6.060   4.176   7.731 -0.2747  0.4430 -0.0153
20421SOL    HW164794   6.113   4.242   7.776  1.0408 -1.2266  0.9775
20421SOL    HW264795   6.043   4.109   7.797 -0.6248 -0.7693 -1.2862
20422SOL     OW64796   2.929  10.747   9.285 -0.2926 -0.2254  0.0057
20422SOL    HW164797   2.837  10.731   9.262  0.0571 -3.0804  0.2253
20422SOL    HW264798   2.924  10.811   9.356 -1.9001  1.6563 -1.6708
20423SOL     OW64799   6.751   4.908  10.439  0.0467 -0.0932 -0.3791
20423SOL    HW164800   6.796   4.862  10.509  0.3057  0.5424 -0.1172
20423SOL    HW264801   6.821   4.935  10.379 -0.0528  0.2807 -0.3329
20424SOL     OW64802   2.329   0.859   0.357  0.6015  0.6346  0.3301
20424SOL    HW164803   2.355   0.780   0.406  2.2311  1.0537  0.1879
20424SOL    HW264804   2.269   0.827   0.290  0.4309 -0.3333  0.9241
20425SOL     OW64805   5.175   3.114   2.381  0.3987  0.4900 -0.3249
20425SOL    HW164806   5.107   3.077   2.324  0.2787  0.0538  0.0969
20425SOL    HW264807   5.149   3.206   2.392 -0.9468 -0.0170  1.0140
20426SOL     OW64808   6.980   2.027   1.447 -0.8848  0.3155 -0.1597
20426SOL    HW164809   6.952   1.978   1.369 -2.5802  0.1792  0.4867
20426SOL    HW264810   6.925   2.106   1.446 -0.6713  0.4852  0.6917
20427SOL     OW64811   2.552  10.270  10.173 -0.1752 -0.2044  0.1824
20427SOL    HW164812   2.646  10.276  10.188 -0.3387 -1.8514  2.3283
20427SOL    HW264813   2.541  10.195  10.116 -0.1568  0.5078 -0.7751
20428SOL     OW64814   8.363   9.654   2.496  0.5364 -0.0785 -1.0820
20428SOL    HW164815   8.311   9.632   2.419 -1.1360  0.1863 -0.0670
20428SOL    HW264816   8.378   9.570   2.540 -0.0866 -0.0142 -0.7403
20429SOL     OW64817   2.622   2.733   7.172 -0.0869  0.3311 -0.2474
20429SOL    HW164818   2.679   2.795   7.218 -0.4572  0.8756 -0.5104
20429SOL    HW264819   2.638   2.650   7.216 -1.3591  1.0656  1.7293
20430SOL     OW64820  10.435   4.601   2.537  0.1163 -0.5855 -0.4154
20430SOL    HW164821  10.468   4.690   2.524  0.1448 -0.3654  0.9834
20430SOL    HW264822  10.380   4.584   2.461 -0.8378  1.0813 -0.1336
20431SOL     OW64823   6.032   9.888   6.651  0.2691  0.2271 -0.5114
20431SOL    HW164824   6.123   9.863   6.637 -0.5114 -1.8326 -2.3557
20431SOL    HW264825   5.999   9.821   6.712 -0.1054  0.8253 -0.0478
20432SOL     OW64826   0.604   2.030   2.151  0.2706 -0.4728  0.0511
20432SOL    HW164827   0.629   1.945   2.113  2.2999 -1.2118  2.7630
20432SOL    HW264828   0.512   2.018   2.175 -0.4268 -0.7170 -2.4654
20433SOL     OW64829   8.954   6.861   9.819  0.2354  0.4166 -0.5339
20433SOL    HW164830   8.927   6.937   9.767  0.0261 -0.8529 -2.4156
20433SOL    HW264831   8.977   6.795   9.753 -1.1940 -1.7167  0.9517
20434SOL     OW64832   9.836   2.835   4.793 -0.4215  0.3182  0.2580
20434SOL    HW164833   9.857   2.834   4.887 -1.1866  0.8108  0.4432
20434SOL    HW264834   9.751   2.793   4.787 -0.5549  0.6417 -0.1725
20435SOL     OW64835   9.144   5.809  11.111  0.1689 -0.3947 -0.2593
20435SOL    HW164836   9.225   5.858  11.093 -0.4025  0.4291 -0.6597
20435SOL    HW264837   9.147   5.790  11.205  0.1666  0.8848  0.0242
20436SOL     OW64838   2.393   1.006  10.823 -0.1432 -0.0399 -0.1282
20436SOL    HW164839   2.433   0.949  10.758  1.0608 -0.0640  0.6036
20436SOL    HW264840   2.309   1.032  10.784  1.0680  0.9579 -2.2333
20437SOL     OW64841  10.877  10.950  10.159 -0.1686  0.0943 -0.3747
20437SOL    HW164842  10.848  11.039  10.181 -2.5421 -1.1444  1.9984
20437SOL    HW264843  10.949  10.933  10.220 -1.5921 -0.5424  1.2082
20438SOL     OW64844   9.494   6.044   6.348  0.3008  0.0147  0.0435
20438SOL    HW164845   9.529   6.132   6.363 -0.6427 -0.0424  3.0275
20438SOL    HW264846   9.571   5.993   6.320  1.2199  1.3802 -0.0234
20439SOL     OW64847   2.182   0.638   2.479 -0.4429 -0.5597 -0.3236
20439SOL    HW164848   2.184   0.561   2.536  0.0254 -0.8584 -0.7324
20439SOL    HW264849   2.272   0.646   2.447 -0.5797 -0.0784 -0.5971
20440SOL     OW64850   3.058   5.220   6.963  0.5542  0.6701  0.4009
20440SOL    HW164851   3.148   5.227   6.931  0.5053  3.4905  0.6471
20440SOL    HW264852   3.007   5.275   6.903 -0.5953  0.9860  1.6107
20441SOL     OW64853   7.999   8.057   2.806 -0.1718 -0.3360 -0.0006
20441SOL    HW164854   7.983   8.053   2.712  1.8252  0.5005 -0.4335
20441SOL    HW264855   7.942   8.128   2.837 -1.0527 -0.8053 -0.5047
20442SOL     OW64856   8.769   7.996   4.047  0.1155  0.3862  0.1227
20442SOL    HW164857   8.802   7.997   3.957 -0.4499 -1.5660 -0.1459
20442SOL    HW264858   8.708   7.922   4.049  0.5252  0.0567  2.2717
20443SOL     OW64859   4.743   6.163   9.160  0.4929  0.4266  0.0256
20443SOL    HW164860   4.721   6.195   9.248  2.5171 -0.7239  1.0089
20443SOL    HW264861   4.806   6.226   9.126 -0.2357  0.8327 -0.6076
20444SOL     OW64862   3.227  10.292   1.718 -0.4550 -0.2460 -0.2735
20444SOL    HW164863   3.151  10.251   1.760 -1.1887 -0.9803 -2.2324
20444SOL    HW264864   3.192  10.330   1.638  1.2457 -0.5509 -1.1938
20445SOL     OW64865   7.372  10.553  10.685 -0.0972 -0.2138 -0.3099
20445SOL    HW164866   7.390  10.645  10.705  0.1727 -0.1166 -0.9911
20445SOL    HW264867   7.394  10.506  10.766 -0.7759  0.3743  0.2372
20446SOL     OW64868   4.389   2.731   7.215 -0.0198 -0.4076  0.7989
20446SOL    HW164869   4.344   2.717   7.132 -0.9095 -3.0544  1.6169
20446SOL    HW264870   4.354   2.815   7.247 -2.3118 -1.0047  0.0793
20447SOL     OW64871   5.399   5.459   2.035 -0.3667  0.2794 -0.1586
20447SOL    HW164872   5.451   5.503   2.102  1.9075 -1.6423 -0.5233
20447SOL    HW264873   5.433   5.492   1.952 -0.6140 -0.0911 -0.4114
20448SOL     OW64874   0.425   5.694   6.540  0.1345  0.6593 -0.1585
20448SOL    HW164875   0.415   5.687   6.445  1.1114  1.2684 -0.3271
20448SOL    HW264876   0.375   5.621   6.575 -1.4937  1.2888 -1.0546
20449SOL     OW64877   2.358   3.952   5.320  0.2617 -0.6174  0.0199
20449SOL    HW164878   2.438   3.899   5.320  0.6188 -0.0888  0.4476
20449SOL    HW264879   2.350   3.983   5.230  1.0108  0.0130  0.1558
20450SOL     OW64880   2.594  10.591   9.538 -0.4045 -0.2487 -0.3168
20450SOL    HW164881   2.598  10.498   9.518 -0.8377 -0.2082 -0.6144
20450SOL    HW264882   2.651  10.602   9.614  0.1210 -0.6548 -0.6401
20451SOL     OW64883   0.876  11.041   4.768  0.3611 -0.8522  0.3325
20451SOL    HW164884   0.844  11.129   4.749  1.4721 -0.2128  1.2739
20451SOL    HW264885   0.926  11.017   4.690  0.6505 -0.3386  0.3501
20452SOL     OW64886  10.295   9.949   0.118 -0.0955 -0.2755  0.0067
20452SOL    HW164887  10.382   9.944   0.079  0.3573  0.1662  0.9163
20452SOL    HW264888  10.272   9.858   0.138  0.9129 -0.2695  1.3294
20453SOL     OW64889   1.435   9.709   3.314  0.4984 -0.3073 -0.2859
20453SOL    HW164890   1.450   9.739   3.404  1.6083  0.0028 -0.5535
20453SOL    HW264891   1.348   9.669   3.316  0.5835 -0.4694  0.9655
20454SOL     OW64892  10.211   1.016   6.580  0.0192 -0.4347  0.1797
20454SOL    HW164893  10.129   0.988   6.620 -0.6818  0.3439 -0.6812
20454SOL    HW264894  10.239   1.091   6.633 -1.1071  0.8371 -0.9794
20455SOL     OW64895   2.119   5.900   6.786  0.3626  0.5496 -0.4273
20455SOL    HW164896   2.070   5.941   6.857  1.5601  2.7756 -0.7829
20455SOL    HW264897   2.207   5.886   6.822  0.3255 -0.5799 -0.7329
20456SOL     OW64898   6.184   9.486   1.387  0.0439  0.4209 -0.0157
20456SOL    HW164899   6.197   9.516   1.297 -1.1643  0.4669 -0.1941
20456SOL    HW264900   6.089   9.486   1.399 -0.1772 -3.9527 -0.2331
20457SOL     OW64901   6.400   6.725  10.676 -0.6384 -0.6836  0.3418
20457SOL    HW164902   6.430   6.690  10.592 -1.2045  0.1500 -0.2374
20457SOL    HW264903   6.321   6.774  10.653  1.2195  2.7892  0.6763
20458SOL     OW64904   1.736   5.424   8.330 -0.5947  0.1814  0.4126
20458SOL    HW164905   1.664   5.383   8.282  0.7248 -0.4793 -1.0875
20458SOL    HW264906   1.798   5.450   8.263 -0.0438  2.0492  1.5604
20459SOL     OW64907   4.402   8.058   0.614 -0.2466 -0.4652 -0.8751
20459SOL    HW164908   4.436   8.121   0.678 -1.1994 -1.2542  0.4675
20459SOL    HW264909   4.352   8.111   0.552 -0.5300  0.1758 -0.1151
20460SOL     OW64910   2.473   0.504   6.597  0.6046 -0.1571  0.0397
20460SOL    HW164911   2.391   0.532   6.558  1.3387  1.1061 -0.6744
20460SOL    HW264912   2.540   0.539   6.538  1.6916  0.1046  1.3817
20461SOL     OW64913  10.034   3.076   0.529 -0.1075 -0.1522 -0.2071
20461SOL    HW164914  10.122   3.096   0.495 -0.1920 -1.3219 -1.1914
20461SOL    HW264915   9.999   3.161   0.556  1.5513  0.2728  0.8019
20462SOL     OW64916   9.514   4.227   6.456  0.1575 -0.2126  0.1592
20462SOL    HW164917   9.458   4.153   6.480  1.1268 -0.6382  1.2171
20462SOL    HW264918   9.595   4.213   6.505  0.6337  1.1823 -0.1667
20463SOL     OW64919   3.485   2.968   5.521  0.4469 -0.6445 -0.0418
20463SOL    HW164920   3.578   2.987   5.530  0.3212  0.2206 -0.4711
20463SOL    HW264921   3.455   2.953   5.611  0.7269  0.4499  0.2475
20464SOL     OW64922   8.899   6.281   4.757 -0.2526  0.3333 -0.2125
20464SOL    HW164923   8.841   6.358   4.750  0.0026  0.6650  1.0871
20464SOL    HW264924   8.985   6.318   4.777 -0.5191 -0.3405  2.4987
20465SOL     OW64925  10.682   6.315  10.146  0.1829  0.0161  0.3468
20465SOL    HW164926  10.632   6.328  10.066  0.8527  2.2893  0.2293
20465SOL    HW264927  10.629   6.357  10.214 -0.2845 -1.7163  1.1113
20466SOL     OW64928   3.156   6.539   7.440 -0.3502  0.5133  0.0352
20466SOL    HW164929   3.170   6.634   7.444  1.1415  0.2947  0.7057
20466SOL    HW264930   3.171   6.517   7.348 -0.1676  0.8606 -0.0200
20467SOL     OW64931  10.378   6.294   8.063 -0.0039  0.3459  0.0829
20467SOL    HW164932  10.362   6.339   8.145 -0.2703 -0.0690  0.2650
20467SOL    HW264933  10.463   6.251   8.075 -0.8863 -1.2601  0.8560
20468SOL     OW64934   5.209   7.898   0.957 -0.1623  0.4304 -0.6173
20468SOL    HW164935   5.165   7.964   0.904  0.4995  0.1214 -1.5720
20468SOL    HW264936   5.200   7.816   0.907 -0.3991 -0.0787  0.2334
20469SOL     OW64937   8.556   5.677   5.999  0.2400 -0.1090 -0.2633
20469SOL    HW164938   8.639   5.720   5.980 -0.3064  1.7763  1.2731
20469SOL    HW264939   8.507   5.683   5.917  0.9697  0.3343 -0.6827
20470SOL     OW64940   7.135  10.251   2.558 -0.1702 -0.1285  0.5244
20470SOL    HW164941   7.114  10.160   2.577 -0.8741 -0.2583 -0.7277
20470SOL    HW264942   7.101  10.265   2.469 -1.7791  1.8782  1.3718
20471SOL     OW64943   7.233   7.897   7.862 -0.1223  1.0207 -0.0805
20471SOL    HW164944   7.182   7.891   7.943 -0.7874 -0.1422 -0.5607
20471SOL    HW264945   7.268   7.809   7.850  0.4647  1.3378 -0.7451
20472SOL     OW64946  10.934   7.601   1.156 -0.3835  0.1044  0.1394
20472SOL    HW164947  10.980   7.644   1.228 -0.3144  0.6511 -0.2346
20472SOL    HW264948  10.911   7.671   1.095  2.5253 -0.6690 -2.0739
20473SOL     OW64949   2.318   4.932   2.138 -0.1178  0.1015 -0.0114
20473SOL    HW164950   2.373   4.974   2.203 -0.4320 -0.7122  0.7984
20473SOL    HW264951   2.246   4.994   2.124 -0.4598 -0.0456  1.0030
20474SOL     OW64952   1.797  10.318   4.766 -0.3296 -0.4148 -0.3429
20474SOL    HW164953   1.775  10.376   4.693  0.3060 -0.5485 -0.6460
20474SOL    HW264954   1.816  10.377   4.839  1.2052 -0.1850 -0.8913
20475SOL     OW64955   4.319   1.980   0.801  0.4230 -0.7613  0.5444
20475SOL    HW164956   4.377   1.929   0.744  1.4970 -0.1876  1.0983
20475SOL    HW264957   4.367   2.061   0.818 -1.0795  0.2683  0.0208
20476SOL     OW64958   6.919  10.872  10.085  0.4568  0.0176 -0.1172
20476SOL    HW164959   7.001  10.875  10.133 -0.0041  0.9064  0.6488
20476SOL    HW264960   6.873  10.795  10.119 -0.7164  1.7080  2.3707
20477SOL     OW64961   4.698   4.576   4.618 -0.4661 -0.0286  0.1406
20477SOL    HW164962   4.699   4.496   4.566 -0.1892 -0.4374  0.7611
20477SOL    HW264963   4.678   4.547   4.707 -1.5532  0.7302  0.1581
20478SOL     OW64964   3.688  10.484   6.034 -0.1850  0.4407  0.0027
20478SOL    HW164965   3.652  10.406   5.992 -0.6243  1.6175 -1.9249
20478SOL    HW264966   3.612  10.539   6.053  0.2858  1.9528 -2.0319
20479SOL     OW64967   8.220   9.940   2.271  0.3168 -0.4253  0.3072
20479SOL    HW164968   8.304   9.985   2.278 -0.1684  0.8134 -1.2733
20479SOL    HW264969   8.155  10.010   2.283 -0.4605 -0.5222 -2.7038
20480SOL     OW64970   3.729   1.412   9.175 -0.1109 -0.1902 -0.3117
20480SOL    HW164971   3.755   1.338   9.119 -2.7661 -0.6150 -1.1364
20480SOL    HW264972   3.794   1.412   9.246  1.8460 -1.2696 -1.9802
20481SOL     OW64973   1.697   1.828   5.205 -0.0686 -0.6022 -0.2357
20481SOL    HW164974   1.710   1.754   5.263  0.1355  1.2663  2.2968
20481SOL    HW264975   1.602   1.841   5.204  0.0210  0.4837  1.3213
20482SOL     OW64976   0.754   3.416   5.977 -0.1838 -0.8240  0.5429
20482SOL    HW164977   0.694   3.422   6.051  0.5023  2.5635  0.9833
20482SOL    HW264978   0.777   3.507   5.957  2.0962 -1.7902 -1.8446
20483SOL     OW64979   9.139   9.565   9.638 -0.0581 -0.7093  0.0890
20483SOL    HW164980   9.058   9.591   9.593 -0.1018 -0.7199  0.1621
20483SOL    HW264981   9.145   9.471   9.623 -1.3487 -1.1652  2.1353
20484SOL     OW64982   6.649   6.224   8.083  0.2157  0.5115 -0.1036
20484SOL    HW164983   6.603   6.306   8.064  0.4142  0.2752 -1.7763
20484SOL    HW264984   6.617   6.163   8.016 -0.5851 -1.0671  1.6388
20485SOL     OW64985   0.099   7.171   6.761 -0.0989 -0.2844  0.2556
20485SOL    HW164986   0.065   7.251   6.801 -0.2758 -1.1005  1.8303
20485SOL    HW264987   0.048   7.162   6.680 -1.9703 -0.1719  1.3470
20486SOL     OW64988   3.188   5.457   1.103 -0.2538 -0.2859  0.4489
20486SOL    HW164989   3.127   5.527   1.127  0.8001 -0.3510  3.7196
20486SOL    HW264990   3.247   5.497   1.038 -0.2557  1.5852  1.5526
20487SOL     OW64991  10.793   3.453  10.777 -0.4487  0.1686 -0.6250
20487SOL    HW164992  10.790   3.358  10.769  1.1660  0.1531 -1.5214
20487SOL    HW264993  10.886   3.473  10.788 -0.7635  1.6485 -0.4215
20488SOL     OW64994  10.627   5.898   9.726 -0.1289 -0.2799  0.0324
20488SOL    HW164995  10.641   5.872   9.635  1.7562  1.4475 -0.2451
20488SOL    HW264996  10.601   5.990   9.720 -2.1139 -0.7159  1.1791
20489SOL     OW64997   4.318   8.126   9.526  0.0037 -0.3833  0.5484
20489SOL    HW164998   4.238   8.151   9.572  0.0583  1.1677 -0.1475
20489SOL    HW264999   4.319   8.180   9.447  0.9644 -1.4926 -0.2400
20490SOL     OW65000   1.629   4.862   5.188  0.2961  0.1114 -0.1415
20490SOL    HW165001   1.697   4.926   5.170 -0.1718  0.8304  0.5268
20490SOL    HW265002   1.593   4.839   5.103  0.2402  1.0091 -0.3653
20491SOL     OW65003   1.372  10.734   9.240  0.5885  0.2349  0.0596
20491SOL    HW165004   1.301  10.691   9.191  1.3163 -0.5061 -0.3658
20491SOL    HW265005   1.354  10.828   9.230 -0.4637  0.0576  0.1678
20492SOL     OW65006  10.518   5.695   5.380 -0.1538 -0.0845 -0.2864
20492SOL    HW165007  10.587   5.759   5.362  1.2966 -1.9112 -1.6320
20492SOL    HW265008  10.499   5.656   5.295 -0.6090 -1.8014  0.5579
20493SOL     OW65009   3.741   4.291   7.340 -0.4234  0.0225 -0.1675
20493SOL    HW165010   3.790   4.256   7.267 -0.8505 -0.2691 -0.3213
20493SOL    HW265011   3.764   4.384   7.343 -0.9546  0.1984 -1.1304
20494SOL     OW65012   5.221   0.520   6.823  0.0871 -0.5562 -0.0222
20494SOL    HW165013   5.283   0.461   6.781 -0.5138 -1.8037  0.7881
20494SOL    HW265014   5.135   0.480   6.807 -0.6679  1.6595 -1.9985
20495SOL     OW65015   2.488   3.541   7.845 -0.9722 -0.2575  0.0595
20495SOL    HW165016   2.495   3.589   7.927 -0.4768  0.8861 -0.6266
20495SOL    HW265017   2.578   3.537   7.812 -1.2348 -0.2719 -0.6681
20496SOL     OW65018   4.165   7.382   8.125  0.5252  0.6827  0.5446
20496SOL    HW165019   4.175   7.477   8.130  0.0123  0.8054 -0.4827
20496SOL    HW265020   4.253   7.350   8.103  0.6456  0.9399  0.6489
20497SOL     OW65021   0.704   9.837   5.445 -0.0409  0.0822 -0.0874
20497SOL    HW165022   0.662   9.778   5.382  0.5478 -0.3259 -0.1057
20497SOL    HW265023   0.781   9.871   5.399 -1.5514  2.6524 -0.9102
20498SOL     OW65024  10.743   9.455   3.748  0.0985  0.2893 -0.0228
20498SOL    HW165025  10.710   9.388   3.688  1.9626  1.3117 -2.3245
20498SOL    HW265026  10.692   9.533   3.727 -0.3971  0.2619  0.9786
20499SOL     OW65027   6.221   6.581   6.482 -0.3987  0.5851 -0.2776
20499SOL    HW165028   6.250   6.625   6.561 -1.0058  0.2518  0.1343
20499SOL    HW265029   6.211   6.651   6.417  0.8974  0.7638 -0.3164
20500SOL     OW65030   3.030   9.121   3.599  0.0353 -0.0182  0.2420
20500SOL    HW165031   3.122   9.140   3.583  0.2317 -0.7609  0.4586
20500SOL    HW265032   2.997   9.089   3.515 -0.2929  1.2413 -0.1203
20501SOL     OW65033   1.400   0.921   6.440  0.4845  0.0071  0.0346
20501SOL    HW165034   1.480   0.968   6.466  1.8298 -2.4848  0.7738
20501SOL    HW265035   1.371   0.965   6.360  2.1264  1.5095  0.2019
20502SOL     OW65036   4.825   0.564   7.773 -0.0594  0.6069  0.6009
20502SOL    HW165037   4.908   0.572   7.820  0.9237 -2.0276 -0.4508
20502SOL    HW265038   4.759   0.598   7.834  1.6367  1.5676  1.9821
20503SOL     OW65039   9.217   1.689   7.216  0.6950 -0.0575  0.5325
20503SOL    HW165040   9.146   1.718   7.159  0.2984 -0.6106  0.7333
20503SOL    HW265041   9.272   1.635   7.159  0.9579  0.3639  0.3790
20504SOL     OW65042  10.099  10.865   0.877 -0.3534 -0.0691 -0.1697
20504SOL    HW165043  10.139  10.927   0.815  1.8841 -0.3472  0.8899
20504SOL    HW265044  10.103  10.909   0.961 -1.2119 -0.6048  0.1589
20505SOL     OW65045   3.653   4.628   0.042 -0.7231  0.1488  0.0553
20505SOL    HW165046   3.661   4.677  -0.040 -0.6739 -1.9018 -1.2564
20505SOL    HW265047   3.651   4.536   0.014  1.7170 -0.7811  2.4905
20506SOL     OW65048   6.524   9.893   1.831 -0.2737  0.2515  0.1909
20506SOL    HW165049   6.609   9.933   1.811 -0.0309 -0.4583 -0.2243
20506SOL    HW265050   6.460   9.961   1.810  0.1562  0.5426 -0.1930
20507SOL     OW65051  10.392   7.664   1.279  0.2984 -0.4655  0.3687
20507SOL    HW165052  10.450   7.588   1.280  0.4408 -0.3543  0.5833
20507SOL    HW265053  10.418   7.716   1.355  1.7850  0.9776 -1.0248
20508SOL     OW65054   5.208   9.037   5.341  0.1402  0.2640  0.3768
20508SOL    HW165055   5.159   9.117   5.356 -1.1676 -0.1577 -1.2303
20508SOL    HW265056   5.251   9.051   5.256 -0.5459 -0.8926 -0.1932
20509SOL     OW65057   7.192   4.663  11.126 -0.1508 -0.0279 -0.4762
20509SOL    HW165058   7.258   4.636  11.062  0.1140 -0.3442 -0.0774
20509SOL    HW265059   7.204   4.758  11.134  1.3883 -0.2782  0.8111
20510SOL     OW65060   2.886   2.549   6.152  0.0246  0.0103 -1.0453
20510SOL    HW165061   2.876   2.564   6.058 -2.1662 -0.9358 -1.0381
20510SOL    HW265062   2.801   2.572   6.189  0.1312 -1.6350  0.3849
20511SOL     OW65063   5.749   4.777   7.668 -0.3773 -0.0601 -0.2101
20511SOL    HW165064   5.724   4.706   7.727 -0.5096 -1.3128 -1.7014
20511SOL    HW265065   5.688   4.771   7.595  1.1675 -0.0445 -1.5660
20512SOL     OW65066   7.832   9.666   9.760 -0.3860 -0.3000  0.0729
20512SOL    HW165067   7.776   9.724   9.709  0.1176 -0.2109 -0.3985
20512SOL    HW265068   7.838   9.707   9.846 -0.1187  0.3083 -0.2247
20513SOL     OW65069   3.013   1.444   2.323  0.1504  0.3281 -0.3142
20513SOL    HW165070   2.926   1.466   2.290  0.2718 -0.3748 -1.1530
20513SOL    HW265071   3.058   1.408   2.247  0.9444  0.0519  0.2816
20514SOL     OW65072   3.362   0.047   5.604  0.2883 -0.0289  0.4511
20514SOL    HW165073   3.407   0.085   5.679 -1.8425  0.7155  1.4384
20514SOL    HW265074   3.422   0.059   5.531  0.9308  2.5764  1.3132
20515SOL     OW65075   3.111   5.271   5.890  0.7971  0.1854 -0.1299
20515SOL    HW165076   3.078   5.191   5.848  0.0905  0.2706  0.2582
20515SOL    HW265077   3.101   5.255   5.984  3.1239 -0.3326  0.0861
20516SOL     OW65078   4.551   1.889   5.203  0.1052  0.2917  0.1193
20516SOL    HW165079   4.482   1.936   5.155  0.0527 -0.2501 -0.3485
20516SOL    HW265080   4.549   1.927   5.291 -0.6339  0.4396  0.0440
20517SOL     OW65081   2.963   3.567   8.391  0.7784 -0.2870  0.2262
20517SOL    HW165082   2.893   3.633   8.395  1.1874  0.0752  2.4242
20517SOL    HW265083   2.954   3.518   8.473  2.8074 -0.5334  0.3364
20518SOL     OW65084   2.399   8.117   6.461 -0.2302  0.2109  0.3426
20518SOL    HW165085   2.366   8.164   6.537 -0.5570  0.1237  0.2574
20518SOL    HW265086   2.480   8.162   6.438 -1.2242  1.6248 -0.5665
20519SOL     OW65087   6.976   6.583   3.273  0.2349 -0.0384 -0.0655
20519SOL    HW165088   7.064   6.550   3.294  0.9654  2.2158  0.6364
20519SOL    HW265089   6.972   6.669   3.313 -1.6762  0.6621 -1.6069
20520SOL     OW65090   7.075   6.570   8.121  0.8166 -0.1252  0.1231
20520SOL    HW165091   7.143   6.632   8.149  0.9465  0.3422 -1.1698
20520SOL    HW265092   6.994   6.606   8.157  0.7838  1.2338 -1.2126
20521SOL     OW65093   4.437   7.940   3.936 -0.0969 -0.0827 -0.4761
20521SOL    HW165094   4.451   7.908   3.847 -1.3115 -2.4350  0.1100
20521SOL    HW265095   4.512   7.909   3.985 -0.3165 -0.3506 -0.3077
20522SOL     OW65096   0.975   1.523   3.320  0.0158 -0.3237 -0.2448
20522SOL    HW165097   0.951   1.612   3.292  1.5621 -0.3352 -1.7256
20522SOL    HW265098   1.046   1.536   3.383  0.4388 -0.5180 -0.6810
20523SOL     OW65099   0.463   1.281   2.592 -0.0946  0.0032 -0.1008
20523SOL    HW165100   0.377   1.321   2.589 -0.1329  0.0356  0.9546
20523SOL    HW265101   0.448   1.194   2.628  0.2912 -0.0562 -0.0712
20524SOL     OW65102   4.996   3.445   7.940  0.2133 -0.2621 -0.0860
20524SOL    HW165103   4.935   3.392   7.991  0.7024  0.8996  1.8116
20524SOL    HW265104   4.978   3.535   7.967  0.8251  0.3649 -1.6458
20525SOL     OW65105   1.907   4.935   2.885  0.3094  0.1377 -0.1353
20525SOL    HW165106   1.975   4.934   2.952 -1.7499 -1.5881  2.1002
20525SOL    HW265107   1.941   4.877   2.816  1.3388 -0.2111  0.6325
20526SOL     OW65108   0.129   2.676   9.384  0.0036 -0.4535 -0.1240
20526SOL    HW165109   0.113   2.598   9.436  0.1668  0.4552  1.3488
20526SOL    HW265110   0.043   2.718   9.376  0.0353 -0.4192 -0.2862
20527SOL     OW65111   6.401   9.965   7.752  0.0981 -0.0927  0.3334
20527SOL    HW165112   6.446  10.023   7.690 -1.4098  1.2511  0.4354
20527SOL    HW265113   6.448   9.882   7.745  0.2416  0.1156 -2.3495
20528SOL     OW65114   7.626   8.007   1.167 -0.4483 -0.2609 -0.4814
20528SOL    HW165115   7.577   8.074   1.119 -1.8014  1.1911  2.6577
20528SOL    HW265116   7.581   7.925   1.147 -0.5581  0.1617 -2.1265
20529SOL     OW65117   8.749   1.360   2.224 -0.1732  0.0450 -0.0385
20529SOL    HW165118   8.750   1.449   2.260 -0.1346 -0.2309  0.6719
20529SOL    HW265119   8.740   1.372   2.130  3.5576  0.9874 -0.4696
20530SOL     OW65120  10.164   7.584   5.457  0.0968  0.3012  0.0448
20530SOL    HW165121  10.102   7.549   5.521 -0.3511 -0.3408 -0.7235
20530SOL    HW265122  10.165   7.679   5.473 -0.2284  0.1785  0.7985
20531SOL     OW65123   0.977   6.617   9.310  0.0415  0.5542  0.5231
20531SOL    HW165124   0.903   6.585   9.362  0.0469  0.5198  0.5099
20531SOL    HW265125   0.939   6.682   9.252 -0.2411 -0.4231 -0.4370
20532SOL     OW65126   5.286   1.993   5.360 -0.0251  0.0371 -0.1817
20532SOL    HW165127   5.279   2.088   5.355  0.9614  0.1618  0.4732
20532SOL    HW265128   5.203   1.960   5.325 -0.6317  1.1479  0.1737
20533SOL     OW65129   3.157   1.256   7.791  0.5482  0.0101 -0.2919
20533SOL    HW165130   3.100   1.220   7.859 -0.3119 -0.1739 -1.0857
20533SOL    HW265131   3.137   1.350   7.791  2.0611  0.3896  1.0911
20534SOL     OW65132   0.079   5.946   9.348  1.0202 -0.2342 -0.4391
20534SOL    HW165133  -0.009   5.914   9.363  1.5091 -3.1989 -2.8179
20534SOL    HW265134   0.133   5.899   9.411  1.1413 -0.0856 -0.4306
20535SOL     OW65135   6.091   7.285   8.733  0.4681  0.7780 -0.7344
20535SOL    HW165136   6.036   7.354   8.694  0.0956  0.4661 -0.7625
20535SOL    HW265137   6.035   7.243   8.798  1.5316  2.2236  1.2053
20536SOL     OW65138   0.457   5.079   2.782  0.1359 -0.5844 -0.3455
20536SOL    HW165139   0.413   5.002   2.746  1.2127 -1.0205 -0.7853
20536SOL    HW265140   0.530   5.043   2.833  1.1467  0.1549 -1.2296
20537SOL     OW65141   9.331   9.310   0.349 -0.0219  0.0283 -0.2358
20537SOL    HW165142   9.419   9.335   0.377 -0.2789  0.4343  0.2358
20537SOL    HW265143   9.274   9.376   0.389 -0.4831  0.1470 -1.0747
20538SOL     OW65144   5.910   5.925   1.848 -0.4726  0.1005  0.4632
20538SOL    HW165145   5.922   5.873   1.928 -0.1501  0.7797  0.8612
20538SOL    HW265146   5.860   5.868   1.790  2.0839 -1.7464 -0.1299
20539SOL     OW65147   0.251   2.969   0.585  0.0876  0.1264  0.3382
20539SOL    HW165148   0.234   3.058   0.618 -2.0078 -0.3330  0.6628
20539SOL    HW265149   0.343   2.970   0.560  0.4012  2.0685  1.3500
20540SOL     OW65150   1.209   2.638   5.771 -0.3930  0.7381 -0.0750
20540SOL    HW165151   1.278   2.680   5.720 -0.6251 -0.6669 -1.6272
20540SOL    HW265152   1.232   2.656   5.862  2.1849  0.1206 -0.5268
20541SOL     OW65153   8.245   2.821   6.402 -0.0671  0.2631  0.0814
20541SOL    HW165154   8.312   2.799   6.337 -0.1823  0.0995  0.0164
20541SOL    HW265155   8.294   2.840   6.482  0.0062 -0.7607  0.2901
20542SOL     OW65156   7.106   9.169   5.798 -0.5858  0.2944 -0.0209
20542SOL    HW165157   7.127   9.235   5.864  0.0379  0.0675  0.0144
20542SOL    HW265158   7.048   9.108   5.843 -1.0843  0.7620 -0.0249
20543SOL     OW65159   8.690   3.725   1.743  0.3102  0.1449  0.8988
20543SOL    HW165160   8.740   3.763   1.671  0.4577  1.3340  1.6122
20543SOL    HW265161   8.700   3.787   1.815 -2.6482  0.7335  0.9222
20544SOL     OW65162   9.749   5.068   4.446  0.2649  0.2189 -0.5438
20544SOL    HW165163   9.709   4.982   4.459  0.4554  0.3444  1.0448
20544SOL    HW265164   9.840   5.048   4.423  0.2644 -0.0181 -0.3479
20545SOL     OW65165   5.557   4.143   6.506  0.1494 -0.2297  0.0659
20545SOL    HW165166   5.601   4.155   6.590  1.0397  0.3200 -0.4685
20545SOL    HW265167   5.566   4.227   6.462 -0.5982 -0.4168 -0.4469
20546SOL     OW65168   5.385   9.568   0.448  0.0975  0.3171 -0.4930
20546SOL    HW165169   5.363   9.661   0.445  0.3745  0.4581  0.8614
20546SOL    HW265170   5.473   9.566   0.486 -0.4382 -0.5425  0.7592
20547SOL     OW65171   8.479   8.106   4.487 -0.2770  0.5975  0.2825
20547SOL    HW165172   8.430   8.132   4.566  0.5255 -0.9977  1.3480
20547SOL    HW265173   8.564   8.076   4.520 -0.5031 -1.6463 -0.9873
20548SOL     OW65174   7.809   0.231   5.038  0.5908 -0.0523 -0.0919
20548SOL    HW165175   7.805   0.138   5.063  1.9481 -0.1160  0.0089
20548SOL    HW265176   7.902   0.253   5.045  0.3413  1.2178 -0.5028
20549SOL     OW65177   1.291   0.327   3.522  0.5328  0.5441  0.1914
20549SOL    HW165178   1.304   0.239   3.558 -1.8836  0.9533  2.3122
20549SOL    HW265179   1.357   0.380   3.567  1.5182  0.0008 -0.5585
20550SOL     OW65180  11.114   7.862   5.163  0.0346 -0.3929 -0.2594
20550SOL    HW165181  11.110   7.861   5.067  0.2462  1.2611 -0.3074
20550SOL    HW265182  11.206   7.843   5.183  0.1494  0.0132 -0.4037
20551SOL     OW65183   6.081   2.966   1.040 -0.1449  0.1936 -0.6993
20551SOL    HW165184   6.120   2.903   1.101  0.8093  1.4477  0.0261
20551SOL    HW265185   5.992   2.981   1.074  0.7918  1.8621  1.2320
20552SOL     OW65186   4.213   9.696   5.946 -0.6271  0.1515 -0.1693
20552SOL    HW165187   4.125   9.733   5.957 -0.0665  2.1351 -1.7167
20552SOL    HW265188   4.260   9.725   6.025 -0.7935  0.9168 -0.3444
20553SOL     OW65189   8.696   2.229   4.616 -0.1720  0.2900 -0.0972
20553SOL    HW165190   8.690   2.271   4.530  1.1049 -0.7411 -0.7203
20553SOL    HW265191   8.750   2.288   4.668 -0.1115  0.4230 -0.3098
20554SOL     OW65192  10.942   7.868   2.827  0.2732  0.1402  0.0397
20554SOL    HW165193  10.969   7.914   2.907  0.7412 -0.5390  0.2804
20554SOL    HW265194  10.859   7.909   2.803 -0.1619 -0.0311  1.1913
20555SOL     OW65195   1.367   8.261  10.350  0.4134  0.0875 -0.2232
20555SOL    HW165196   1.290   8.206  10.340 -1.3686  2.7224 -2.5191
20555SOL    HW265197   1.437   8.215  10.303 -0.5277 -0.9576 -0.6267
20556SOL     OW65198   7.383   5.722   4.339 -0.5805 -0.7255  0.4413
20556SOL    HW165199   7.456   5.784   4.329 -1.1947 -0.0961 -0.3629
20556SOL    HW265200   7.424   5.641   4.369  0.3730 -0.2075  0.5868
20557SOL     OW65201   0.469  10.923   1.885  0.1320 -0.0347  0.0987
20557SOL    HW165202   0.373  10.924   1.875 -0.0710  2.6064  1.3081
20557SOL    HW265203   0.500  10.873   1.810 -2.2354 -2.6940  0.6911
20558SOL     OW65204   7.920   6.297   9.773  0.2843  0.4146  0.1361
20558SOL    HW165205   7.976   6.374   9.766  1.2766 -0.3819 -1.0802
20558SOL    HW265206   7.887   6.282   9.684  2.0223 -1.8968 -0.2341
20559SOL     OW65207   5.606   8.258   2.961 -0.3528  0.6043 -0.0977
20559SOL    HW165208   5.628   8.180   2.910 -0.5680 -0.5457  1.4928
20559SOL    HW265209   5.677   8.320   2.942  2.0551 -1.4166  1.5416
20560SOL     OW65210   0.248   6.242   6.214 -0.5411  0.0468 -0.2130
20560SOL    HW165211   0.221   6.159   6.173 -0.2687 -0.5896  0.8777
20560SOL    HW265212   0.234   6.229   6.307  2.2695  0.1462  0.3000
20561SOL     OW65213  10.748   8.516   4.388 -0.1637  0.1763  0.2473
20561SOL    HW165214  10.730   8.424   4.404 -1.2503  0.2510 -0.4615
20561SOL    HW265215  10.842   8.525   4.401  0.1024 -1.2226 -0.5760
20562SOL     OW65216   7.313   3.329   8.347 -0.1009 -0.9043  0.5413
20562SOL    HW165217   7.224   3.359   8.328 -0.5906 -2.2955  0.4744
20562SOL    HW265218   7.319   3.244   8.304  2.2798  0.3707 -1.9962
20563SOL     OW65219   2.853   5.346   5.398 -0.7140  0.2210  0.4272
20563SOL    HW165220   2.839   5.441   5.401  0.6490  0.4102  2.4454
20563SOL    HW265221   2.911   5.334   5.323  0.0941  1.1462  0.8795
20564SOL     OW65222   9.861   7.160   8.759  0.3537  0.0925  0.3301
20564SOL    HW165223   9.861   7.118   8.845  0.6156  0.9541  0.7559
20564SOL    HW265224   9.930   7.225   8.763  0.6799 -0.1678 -0.7007
20565SOL     OW65225   8.346  10.294   1.643 -0.8509  0.0419  0.0084
20565SOL    HW165226   8.253  10.316   1.651 -1.3214 -1.7204 -0.1823
20565SOL    HW265227   8.361  10.290   1.548 -0.5123  0.5401  0.0371
20566SOL     OW65228   3.665   8.707   6.873  0.4679 -0.2226 -0.4544
20566SOL    HW165229   3.735   8.669   6.819  0.3688  0.6495 -1.2164
20566SOL    HW265230   3.709   8.733   6.954  1.6794  2.7494 -1.8981
20567SOL     OW65231   2.711   7.666   7.083  0.6858 -0.0152  0.5917
20567SOL    HW165232   2.658   7.588   7.098  1.0420 -0.0884  1.5187
20567SOL    HW265233   2.792   7.633   7.044  0.5771 -0.0397  0.3860
20568SOL     OW65234   4.348   5.196   6.725 -0.7367  0.5173  0.3947
20568SOL    HW165235   4.440   5.204   6.699 -0.5935  0.0802  0.7392
20568SOL    HW265236   4.328   5.278   6.770  0.1414 -0.2158  2.2486
20569SOL     OW65237   2.665  11.013   5.848  0.1215 -0.2304 -0.3382
20569SOL    HW165238   2.725  11.077   5.811 -0.3835  0.9255  0.7410
20569SOL    HW265239   2.720  10.940   5.876  1.1049  0.9834  1.0030
20570SOL     OW65240   4.372   7.088   1.777 -0.4300  0.1451 -0.4805
20570SOL    HW165241   4.432   7.160   1.795  1.2422 -1.3497  0.2833
20570SOL    HW265242   4.418   7.010   1.808 -2.7273 -1.1260 -0.0160
20571SOL     OW65243   2.071   0.713   3.359  0.3813  0.2696  0.5924
20571SOL    HW165244   2.156   0.752   3.339 -0.6380  2.1831 -0.3383
20571SOL    HW265245   2.052   0.741   3.448  1.2055 -1.1430  1.2374
20572SOL     OW65246   1.447   0.966   2.650 -0.1582 -0.1483  0.3957
20572SOL    HW165247   1.436   0.878   2.614 -1.8220  0.7327 -1.4555
20572SOL    HW265248   1.418   0.959   2.741  0.2520 -1.6090  0.4310
20573SOL     OW65249   0.951   3.211   5.289 -0.8603 -0.1934 -0.0356
20573SOL    HW165250   0.872   3.158   5.295 -0.2367 -1.0430  0.8414
20573SOL    HW265251   0.973   3.234   5.379  0.2969 -0.5891 -0.1900
20574SOL     OW65252   1.215   6.065  10.311  0.4886 -0.2421  0.5864
20574SOL    HW165253   1.231   6.057  10.405 -0.2680 -0.4577  0.7006
20574SOL    HW265254   1.186   6.156  10.300  1.0649 -0.0660  0.4818
20575SOL     OW65255  10.502   1.128   5.210  0.5911 -0.1964  0.9494
20575SOL    HW165256  10.550   1.211   5.201  1.2217 -0.6601 -0.1720
20575SOL    HW265257  10.512   1.104   5.302  0.3210  1.0062  1.3202
20576SOL     OW65258  10.808   2.606   2.994 -0.2024 -0.2711  0.0448
20576SOL    HW165259  10.869   2.611   2.920 -0.3412 -1.4941 -0.1595
20576SOL    HW265260  10.792   2.698   3.016 -0.5362  0.1457 -1.7389
20577SOL     OW65261  11.099   6.176  10.941 -0.3346 -0.3247  0.1825
20577SOL    HW165262  11.008   6.147  10.947 -0.8070  0.5614 -1.9135
20577SOL    HW265263  11.129   6.144  10.856  0.8187  0.7109  0.1779
20578SOL     OW65264   8.159   3.697   3.032 -0.3938  0.1456 -0.1254
20578SOL    HW165265   8.193   3.664   2.949 -0.8605  2.3715 -1.2601
20578SOL    HW265266   8.238   3.716   3.084 -0.1044 -1.4292  0.0808
20579SOL     OW65267   0.482   3.779   2.935 -0.2982  0.9260  0.3073
20579SOL    HW165268   0.508   3.817   2.851 -0.5863  1.6734  0.5464
20579SOL    HW265269   0.387   3.770   2.929 -0.2993  0.8153  0.4832
20580SOL     OW65270   0.290  10.873   7.818  0.1927 -0.7480  0.3490
20580SOL    HW165271   0.313  10.780   7.820 -0.9132 -1.0266  0.8680
20580SOL    HW265272   0.211  10.880   7.873  0.0039  0.4259 -0.0338
20581SOL     OW65273   7.131  10.772   4.760  0.5369 -0.2697 -0.1743
20581SOL    HW165274   7.161  10.708   4.825  1.0891  0.4192  0.2578
20581SOL    HW265275   7.167  10.855   4.789 -0.1137  0.2374 -0.7735
20582SOL     OW65276   4.758   3.848   3.558 -0.0469 -0.3250  0.2904
20582SOL    HW165277   4.706   3.777   3.595  1.2109 -1.2021  0.4335
20582SOL    HW265278   4.849   3.821   3.571  0.5275  1.9985  1.7381
20583SOL     OW65279   0.502   6.660   0.072 -0.2993 -0.5982 -0.2807
20583SOL    HW165280   0.517   6.754   0.068  1.1756 -0.8020 -0.1443
20583SOL    HW265281   0.481   6.643   0.163 -0.8872 -0.3596 -0.3704
20584SOL     OW65282   0.626   2.332   5.236  0.0159  0.0988  0.0663
20584SOL    HW165283   0.567   2.257   5.231  0.8106 -0.8711  2.9005
20584SOL    HW265284   0.571   2.408   5.221 -1.5335 -0.8785  0.5827
20585SOL     OW65285   1.128   9.237  10.355 -0.1367  0.4109  0.3240
20585SOL    HW165286   1.146   9.200  10.269 -0.8621 -0.1684  0.4138
20585SOL    HW265287   1.194   9.196  10.412  0.4571  0.9274  0.0282
20586SOL     OW65288   5.157   8.549   1.504  0.2056  0.7222  0.1192
20586SOL    HW165289   5.084   8.495   1.473  0.6942  1.0660 -1.7424
20586SOL    HW265290   5.235   8.500   1.478  0.6519  1.4898  0.0030
20587SOL     OW65291  10.928   3.708  10.474  0.1460  0.1484  0.2738
20587SOL    HW165292  11.006   3.657  10.495 -0.7715 -1.1963  0.5528
20587SOL    HW265293  10.961   3.794  10.448  1.6207  0.1448  2.0092
20588SOL     OW65294   8.034   0.176   8.327  0.2371  0.7639  0.0754
20588SOL    HW165295   8.061   0.129   8.248 -0.8293 -2.1426  1.3058
20588SOL    HW265296   7.940   0.158   8.334  0.5685 -0.3894  2.7600
20589SOL     OW65297   3.032   5.848   2.956  0.1862  0.0031 -0.3097
20589SOL    HW165298   3.106   5.815   2.906 -0.1635 -0.5817 -0.4492
20589SOL    HW265299   2.956   5.800   2.922 -0.6646  2.2443 -1.8664
20590SOL     OW65300   9.545   2.362   9.679  0.2807 -0.2916 -0.2705
20590SOL    HW165301   9.621   2.348   9.735  0.0028 -0.1711  0.1390
20590SOL    HW265302   9.517   2.273   9.654  0.9466 -0.3202 -0.9646
20591SOL     OW65303   1.393   3.378   0.422  0.1674 -0.7410 -0.4945
20591SOL    HW165304   1.446   3.384   0.501  0.5494 -0.1822 -0.7805
20591SOL    HW265305   1.304   3.365   0.453 -0.0729  1.8877  0.1575
20592SOL     OW65306   4.205   1.767  10.521 -0.1301 -0.3226 -0.5377
20592SOL    HW165307   4.218   1.816  10.602  0.5991  1.0753 -1.4610
20592SOL    HW265308   4.112   1.742  10.522 -0.6224  1.3901 -0.1755
20593SOL     OW65309   3.455  10.777   8.994 -0.0317  0.2308 -0.1759
20593SOL    HW165310   3.448  10.696   9.044  0.7114 -0.0900 -0.5816
20593SOL    HW265311   3.372  10.783   8.946 -0.6594  0.4278  0.8953
20594SOL     OW65312   6.121   6.128   2.169 -0.7305 -0.2158 -0.2997
20594SOL    HW165313   6.215   6.109   2.171 -0.4007  1.0477 -1.7060
20594SOL    HW265314   6.107   6.185   2.245 -0.3175 -0.2311 -0.2081
20595SOL     OW65315   6.909   2.084   8.900  0.0536  0.5154 -0.2740
20595SOL    HW165316   6.966   2.010   8.919  0.1556  0.6916  0.1255
20595SOL    HW265317   6.836   2.073   8.961 -0.3070  0.3302 -0.7319
20596SOL     OW65318   3.794   9.399   0.708  0.6469  0.4308  0.0967
20596SOL    HW165319   3.845   9.325   0.741  1.0145  1.4883  2.0364
20596SOL    HW265320   3.783   9.456   0.784 -2.6130  0.7378 -0.4813
20597SOL     OW65321   0.998  10.842   8.841 -0.3055 -0.4478 -0.6079
20597SOL    HW165322   0.972  10.849   8.749 -2.2343  0.6213 -0.0522
20597SOL    HW265323   0.967  10.755   8.867  0.3776 -0.8128 -0.9921
20598SOL     OW65324   9.506  10.454   3.743  0.1369  0.0774  1.3437
20598SOL    HW165325   9.574  10.440   3.809  0.0122 -0.7165  1.3111
20598SOL    HW265326   9.426  10.470   3.794  0.1284 -0.0954  1.3846
20599SOL     OW65327   5.587   8.345   9.920  0.1989  0.2827  0.7500
20599SOL    HW165328   5.553   8.417   9.865 -0.3563  0.3732  1.2086
20599SOL    HW265329   5.514   8.285   9.929  1.2773 -1.5084 -1.4894
20600SOL     OW65330   0.934   5.081   7.577  0.2745  0.6326  0.4391
20600SOL    HW165331   0.883   5.015   7.624  1.5553 -1.2395 -0.6545
20600SOL    HW265332   0.987   5.123   7.645  0.4091 -0.3941  0.9811
20601SOL     OW65333   7.110   6.008   8.069  0.0655  0.3466 -0.3243
20601SOL    HW165334   7.083   5.923   8.105  0.2963 -0.0577 -1.0973
20601SOL    HW265335   7.027   6.053   8.050 -0.0576  0.2738  0.0187
20602SOL     OW65336   5.844   3.210   0.874 -0.4810  0.0429 -0.2701
20602SOL    HW165337   5.787   3.281   0.901  0.6254  0.6913  0.4496
20602SOL    HW265338   5.860   3.159   0.954 -0.3750 -0.3640 -0.5445
20603SOL     OW65339   3.837   7.618   8.709  0.7462 -0.9973 -0.0655
20603SOL    HW165340   3.887   7.574   8.640 -0.7766 -0.3005 -1.6853
20603SOL    HW265341   3.747   7.621   8.676  0.5431  2.2888  0.4666
20604SOL     OW65342   4.887   3.044   9.559 -0.1455 -0.0555  0.8899
20604SOL    HW165343   4.981   3.031   9.570 -0.0203  1.0008  1.1400
20604SOL    HW265344   4.847   2.997   9.632  0.2181 -0.0272  1.1095
20605SOL     OW65345   9.794   0.817   4.390  0.1602  0.1598 -0.3194
20605SOL    HW165346   9.838   0.901   4.406  1.1504 -0.9195  4.0842
20605SOL    HW265347   9.866   0.756   4.371 -0.2177 -0.2601 -0.4126
20606SOL     OW65348  10.919  10.339   2.653  0.2926 -0.0875  0.2934
20606SOL    HW165349  10.959  10.353   2.739  0.9579 -0.2493  0.0224
20606SOL    HW265350  10.895  10.247   2.652  0.8068 -0.2291  0.1094
20607SOL     OW65351   5.552   4.357   6.754  0.3338  0.3715 -0.1408
20607SOL    HW165352   5.483   4.348   6.819  0.3661  0.6283 -0.0700
20607SOL    HW265353   5.632   4.332   6.800  0.2719 -0.0373 -0.2555
20608SOL     OW65354   9.926   5.747   0.756 -0.1597  0.3649  0.4003
20608SOL    HW165355   9.949   5.681   0.690  2.0902  0.6649  0.7874
20608SOL    HW265356   9.909   5.696   0.836 -2.7606  0.0114 -0.2838
20609SOL     OW65357   3.617   1.557   4.594 -0.3169  0.3187  0.3010
20609SOL    HW165358   3.525   1.530   4.600 -0.9883  2.2324 -0.5954
20609SOL    HW265359   3.614   1.645   4.557  1.9376  0.1665 -0.3986
20610SOL     OW65360   3.429   8.394   9.918 -0.4917 -0.3254 -0.1345
20610SOL    HW165361   3.456   8.455   9.849  0.6856 -2.3095 -1.5118
20610SOL    HW265362   3.511   8.369   9.962 -0.7069 -2.2135 -0.7403
20611SOL     OW65363   8.271   9.200   2.474  1.1469  0.2027  0.4434
20611SOL    HW165364   8.311   9.124   2.519 -1.3471 -0.1799  2.2288
20611SOL    HW265365   8.184   9.169   2.448  1.0115  1.7388 -1.0384
20612SOL     OW65366   4.651   2.619   5.832  0.2368 -0.2197  0.1848
20612SOL    HW165367   4.647   2.534   5.875 -3.8480 -1.9156 -2.9045
20612SOL    HW265368   4.594   2.676   5.883 -2.8319 -1.5959 -1.4537
20613SOL     OW65369   0.141   6.859   0.668 -0.1537  0.1054  0.1931
20613SOL    HW165370   0.196   6.794   0.712 -1.3043 -1.7115 -0.9121
20613SOL    HW265371   0.199   6.935   0.656  1.5647 -1.0676  0.6611
20614SOL     OW65372   9.180   3.428   2.606 -0.1851  0.1933  0.4466
20614SOL    HW165373   9.180   3.333   2.597  0.1618  0.2521 -0.2315
20614SOL    HW265374   9.206   3.444   2.697  0.5169 -0.3365  0.3394
20615SOL     OW65375   1.510   3.431   5.592  0.3729  0.2836 -0.4482
20615SOL    HW165376   1.517   3.361   5.526 -0.0042 -1.9088  1.7006
20615SOL    HW265377   1.416   3.440   5.607  0.5078 -0.3200  0.8404
20616SOL     OW65378   2.453  10.510   6.701  0.7605  0.4485 -0.3183
20616SOL    HW165379   2.371  10.480   6.663  1.0162 -0.3730 -0.2268
20616SOL    HW265380   2.466  10.597   6.663 -0.0788  0.5351 -0.4328
20617SOL     OW65381   0.715  10.017   6.152 -0.2072  0.2030  0.4213
20617SOL    HW165382   0.746   9.946   6.210 -0.3715  0.3501  0.6932
20617SOL    HW265383   0.792  10.072   6.140 -0.1271  0.0794  0.3623
20618SOL     OW65384   9.076   2.703   4.009  0.2724  0.1378  0.0808
20618SOL    HW165385   9.091   2.734   4.099 -0.8171 -0.9996  0.6916
20618SOL    HW265386   8.989   2.734   3.987 -0.5416 -1.7317  0.4308
20619SOL     OW65387   6.216   8.006  10.673 -0.0984  0.9021  0.3281
20619SOL    HW165388   6.136   7.958  10.693  1.0887 -0.9537  0.8570
20619SOL    HW265389   6.187   8.095  10.652 -2.2196  0.4154  1.0543
20620SOL     OW65390   4.132   8.050   5.081 -0.7311 -0.2256  0.0515
20620SOL    HW165391   4.164   8.136   5.056 -1.2639  0.0362  0.2485
20620SOL    HW265392   4.207   7.992   5.072  0.3556  0.6980  2.2966
20621SOL     OW65393   4.379  10.212   6.779  0.0115  0.0765  0.1558
20621SOL    HW165394   4.374  10.123   6.746 -0.1553  0.0210  0.3281
20621SOL    HW265395   4.444  10.207   6.850 -2.0649 -0.5539  2.1622
20622SOL     OW65396   2.075   6.639   6.559 -0.0164  0.4263 -0.1363
20622SOL    HW165397   2.021   6.634   6.480 -0.2427  1.6810 -0.0727
20622SOL    HW265398   2.023   6.596   6.627 -0.1683  0.0608 -0.4784
20623SOL     OW65399   2.454   1.359   0.548 -0.4714  0.1265 -0.5622
20623SOL    HW165400   2.438   1.266   0.529  0.2364 -0.1943  0.3331
20623SOL    HW265401   2.428   1.404   0.468  0.5238 -0.9727 -1.5495
20624SOL     OW65402   3.758   2.757   2.071 -0.1263 -0.0145  0.1072
20624SOL    HW165403   3.665   2.741   2.053  0.2010 -0.2688 -1.5949
20624SOL    HW265404   3.760   2.841   2.115 -1.1209  0.4958 -0.7707
20625SOL     OW65405  11.106   3.379   8.155  0.1591  0.0221 -0.0969
20625SOL    HW165406  11.019   3.391   8.118 -0.0582 -0.8461  0.0980
20625SOL    HW265407  11.096   3.399   8.248  0.4644  1.1610 -0.2951
20626SOL     OW65408   1.801   2.066   5.178 -0.3030  0.1264  0.8981
20626SOL    HW165409   1.754   1.985   5.194 -1.5061  0.8019  0.9460
20626SOL    HW265410   1.877   2.063   5.236 -1.0110 -0.4101  1.8123
20627SOL     OW65411   2.423   2.772   6.683  0.3504 -0.6077 -0.0620
20627SOL    HW165412   2.496   2.819   6.722 -0.2300 -0.8819  1.4224
20627SOL    HW265413   2.380   2.837   6.627  0.0690  0.4071  1.2819
20628SOL     OW65414   6.221   2.457   9.925  0.0608  0.2886 -0.8361
20628SOL    HW165415   6.191   2.448  10.016 -1.5824 -0.6318 -1.4472
20628SOL    HW265416   6.271   2.377   9.908  1.5962  1.0886 -0.3453
20629SOL     OW65417   5.777  11.092   9.397  0.1187 -0.2449 -0.5100
20629SOL    HW165418   5.731  11.039   9.333 -0.1120 -0.2933 -0.3044
20629SOL    HW265419   5.765  11.047   9.480 -1.5180  0.9926 -0.0309
20630SOL     OW65420   3.242   7.121   7.404 -0.0912 -0.2602  0.0998
20630SOL    HW165421   3.329   7.103   7.368  1.1712  2.6763  1.3984
20630SOL    HW265422   3.197   7.169   7.335 -0.0049 -0.1946  0.0889
20631SOL     OW65423   5.362   9.831   6.092  0.3485 -0.5147  0.7611
20631SOL    HW165424   5.395   9.907   6.140  2.8199 -0.5615 -0.6711
20631SOL    HW265425   5.312   9.781   6.157 -0.0389  1.5206  2.1147
20632SOL     OW65426   0.325   6.263   4.568  0.2928 -0.4408  0.3540
20632SOL    HW165427   0.261   6.266   4.639 -0.2779  0.6463 -0.1795
20632SOL    HW265428   0.284   6.209   4.501 -0.5108  1.0134 -0.3707
20633SOL     OW65429   7.089   7.908   2.791  0.4375  0.2605  0.7001
20633SOL    HW165430   7.132   7.974   2.737 -1.0446  0.5407 -0.1834
20633SOL    HW265431   7.066   7.954   2.872 -0.8791  0.9635 -0.0363
20634SOL     OW65432   8.472   1.048   1.436  0.5272  0.4346 -0.1117
20634SOL    HW165433   8.381   1.070   1.458  0.4534  0.4344 -0.4101
20634SOL    HW265434   8.518   1.131   1.440  0.8537  0.2152  1.6006
20635SOL     OW65435   3.311  10.108   7.624  0.2877 -0.6126 -0.0619
20635SOL    HW165436   3.386  10.070   7.670 -1.2444 -3.1957  0.5402
20635SOL    HW265437   3.241  10.043   7.634 -1.1256  0.1764 -3.2966
20636SOL     OW65438   1.120   2.194   6.524 -0.7901  0.1956  0.2970
20636SOL    HW165439   1.161   2.129   6.467 -1.2368 -0.0224  0.2122
20636SOL    HW265440   1.032   2.204   6.488 -0.0246  2.5885 -1.1034
20637SOL     OW65441   2.488   4.441   0.236  0.2459 -0.3836 -0.8843
20637SOL    HW165442   2.412   4.395   0.268  0.4317 -2.0018 -2.5819
20637SOL    HW265443   2.563   4.396   0.275  0.4441  1.9158  1.7186
20638SOL     OW65444   7.376   9.306   5.664 -0.1852 -0.7695 -0.0080
20638SOL    HW165445   7.310   9.241   5.689  0.9705 -1.8031  0.4746
20638SOL    HW265446   7.330   9.368   5.608 -1.9772 -0.4783  1.6954
20639SOL     OW65447   9.561   0.650   8.247 -0.0742  0.3954  0.3687
20639SOL    HW165448   9.529   0.578   8.192  0.2058  0.7889 -0.3081
20639SOL    HW265449   9.481   0.695   8.276 -0.2207  0.1959  0.2849
20640SOL     OW65450   8.316   6.883   0.878  0.1374  0.1913  0.0611
20640SOL    HW165451   8.376   6.857   0.808  0.7621 -0.4135  0.8085
20640SOL    HW265452   8.309   6.978   0.868  1.8421  0.3944  0.4251
20641SOL     OW65453  10.629   8.448   3.945 -0.0462  1.0735 -0.6497
20641SOL    HW165454  10.673   8.516   3.996  1.3299  0.7104 -1.3186
20641SOL    HW265455  10.537   8.457   3.970  0.3449  1.9925  0.6303
20642SOL     OW65456  10.679   7.530   9.187 -0.3547  0.2495  0.6688
20642SOL    HW165457  10.681   7.621   9.216 -1.0584  0.3323  0.4878
20642SOL    HW265458  10.764   7.495   9.211 -0.1697  0.8874  0.9657
20643SOL     OW65459   0.500  10.181   0.545 -0.2099 -0.2713 -0.1189
20643SOL    HW165460   0.539  10.100   0.513 -0.4650 -0.6149  0.4186
20643SOL    HW265461   0.569  10.246   0.537 -0.1693 -0.4176 -1.0561
20644SOL     OW65462   7.354   2.317   3.487  0.8051  0.1971 -0.6846
20644SOL    HW165463   7.341   2.409   3.466 -3.5178  0.0038  0.0868
20644SOL    HW265464   7.292   2.271   3.429  1.2071 -1.9931  0.5130
20645SOL     OW65465   8.705   0.003   9.240 -0.4378  0.5065 -0.4605
20645SOL    HW165466   8.665   0.088   9.219  1.3509  1.4499 -0.2443
20645SOL    HW265467   8.778  -0.004   9.179 -0.6015 -0.9333 -0.5115
20646SOL     OW65468   1.159   6.056   9.025  0.2005  0.5422  0.7278
20646SOL    HW165469   1.199   6.072   8.940 -0.7943 -0.3876  0.0657
20646SOL    HW265470   1.116   6.139   9.047  0.7596  0.8992  0.5167
20647SOL     OW65471   3.524   4.650   7.480 -0.6269  0.6299 -0.0107
20647SOL    HW165472   3.434   4.652   7.447 -0.8794  0.5497  0.6583
20647SOL    HW265473   3.525   4.576   7.541  0.5020 -0.8297 -1.7034
20648SOL     OW65474   7.170   9.441   1.473  0.6880 -0.3626 -0.2373
20648SOL    HW165475   7.236   9.510   1.480  0.5688 -0.1316 -1.2152
20648SOL    HW265476   7.127   9.440   1.559  0.8933  0.5691 -0.1107
20649SOL     OW65477   2.998   5.060   0.506  0.3587 -0.7171  0.0146
20649SOL    HW165478   3.061   5.009   0.556 -1.0680 -0.9167  1.7243
20649SOL    HW265479   2.984   5.010   0.425 -0.3200 -2.6072  1.2406
20650SOL     OW65480   9.923   0.770   5.530 -0.1404  0.3586  0.1512
20650SOL    HW165481   9.930   0.732   5.617  1.0727 -0.1024 -0.1249
20650SOL    HW265482  10.011   0.802   5.510  0.2383 -1.6746 -1.8277
20651SOL     OW65483   4.983   1.918   9.193 -0.6273  0.1365 -0.1651
20651SOL    HW165484   4.939   1.834   9.200  0.0297 -0.3800 -1.6307
20651SOL    HW265485   5.071   1.902   9.228 -0.3289  0.0386 -0.9259
20652SOL     OW65486   8.003   4.919   6.500 -0.2785  0.1128  0.5090
20652SOL    HW165487   7.981   4.938   6.591  0.0104  2.4993  0.1340
20652SOL    HW265488   8.080   4.973   6.482 -0.8685  0.3927 -1.4070
20653SOL     OW65489   2.830   9.748  10.280 -0.0284 -0.2147  0.1457
20653SOL    HW165490   2.758   9.744  10.216  0.9067 -2.5788 -0.8796
20653SOL    HW265491   2.886   9.819  10.247 -0.4667 -0.2174 -0.6536
20654SOL     OW65492   8.338   2.541   3.728  0.9054 -0.2098 -0.7058
20654SOL    HW165493   8.294   2.470   3.776  1.0684  0.7854  0.9953
20654SOL    HW265494   8.414   2.499   3.688 -0.6980 -1.6436 -2.4490
20655SOL     OW65495   1.321   6.234   5.716  0.1580 -0.2738  0.4950
20655SOL    HW165496   1.303   6.297   5.647 -0.4923 -0.7982  0.1718
20655SOL    HW265497   1.416   6.234   5.726  0.2045  0.2904  0.0677
20656SOL     OW65498   9.173  10.779   7.402 -0.3385 -0.2261 -0.3046
20656SOL    HW165499   9.231  10.779   7.478  0.2619 -1.8488 -0.7089
20656SOL    HW265500   9.222  10.825   7.334 -0.4981  0.4234  0.0117
20657SOL     OW65501   3.904   5.272   1.966 -0.4162  0.6121 -0.1202
20657SOL    HW165502   3.933   5.191   2.008  0.1196  0.3172 -1.0307
20657SOL    HW265503   3.979   5.301   1.915 -1.1396  0.8000 -1.1051
20658SOL     OW65504   1.802   4.234   9.011  0.1807  0.3898 -0.0897
20658SOL    HW165505   1.857   4.292   9.064 -0.0375  0.8386 -0.3540
20658SOL    HW265506   1.815   4.264   8.921  1.0010 -0.7372 -0.3740
20659SOL     OW65507   5.015   6.492   5.415 -0.6230 -0.4565 -0.2306
20659SOL    HW165508   5.031   6.418   5.473 -0.7068 -0.2075  0.1145
20659SOL    HW265509   5.101   6.512   5.377  0.0371  1.1051  1.8883
20660SOL     OW65510   6.627   7.687   5.958  0.5492 -0.2652  0.4688
20660SOL    HW165511   6.703   7.744   5.943  0.2349  0.4119  1.3458
20660SOL    HW265512   6.599   7.708   6.048 -1.2444  0.1772 -0.1600
20661SOL     OW65513   3.720   7.623   1.401  0.1497  0.1404 -0.1464
20661SOL    HW165514   3.655   7.653   1.465  0.6397  0.8210  0.0496
20661SOL    HW265515   3.696   7.532   1.383  1.0498 -0.7022  2.4050
20662SOL     OW65516   5.335   4.446   2.749 -0.0658 -0.7237 -0.2094
20662SOL    HW165517   5.415   4.469   2.701 -0.5040 -1.5200 -1.3671
20662SOL    HW265518   5.312   4.526   2.796  0.5241  0.0285 -1.1487
20663SOL     OW65519   7.510   3.212   9.941 -0.4102  0.1300  0.7097
20663SOL    HW165520   7.453   3.138   9.920  0.7728 -0.2947 -1.2335
20663SOL    HW265521   7.565   3.180  10.013 -0.8019 -0.4073  0.7779
20664SOL     OW65522  10.799   9.085   4.476  0.3108 -0.0201  0.6291
20664SOL    HW165523  10.768   9.024   4.410  1.3461 -0.1468  0.2465
20664SOL    HW265524  10.754   9.167   4.455 -0.8130 -0.5417  0.9331
20665SOL     OW65525   7.944   7.509   7.691 -0.2388  0.1866 -0.1937
20665SOL    HW165526   7.920   7.465   7.609  0.5216 -0.2386 -0.1963
20665SOL    HW265527   7.917   7.448   7.760  1.0204 -0.4095 -0.2043
20666SOL     OW65528   4.015   8.396   5.884  0.2268  0.8433 -0.1675
20666SOL    HW165529   3.996   8.490   5.874  2.7999  1.4350 -0.1347
20666SOL    HW265530   3.943   8.363   5.937 -0.0517  3.1047  0.9767
20667SOL     OW65531  10.302   4.107   2.493  1.0562 -0.7751  0.0501
20667SOL    HW165532  10.209   4.095   2.470  1.3319 -0.0972 -1.4928
20667SOL    HW265533  10.322   4.032   2.549 -0.0882 -1.6568 -0.6685
20668SOL     OW65534   6.869   1.147   4.091  0.1956 -0.2501 -0.5548
20668SOL    HW165535   6.846   1.236   4.119 -0.6524 -0.3267 -0.9765
20668SOL    HW265536   6.887   1.155   3.998  0.0139 -0.5417 -0.6167
20669SOL     OW65537   0.921   2.544   6.615  0.1465 -0.1125  0.3635
20669SOL    HW165538   0.949   2.547   6.706 -0.2566  1.5163  0.4633
20669SOL    HW265539   0.854   2.476   6.613 -0.1998  0.1782  1.4008
20670SOL     OW65540   2.827   4.162   6.415 -0.4578  0.4913  0.8517
20670SOL    HW165541   2.808   4.156   6.321  1.1287  0.2940  0.5107
20670SOL    HW265542   2.828   4.256   6.433 -0.0261  0.5611  0.4879
20671SOL     OW65543   7.733   3.028   6.653  0.0026 -0.6699  0.2125
20671SOL    HW165544   7.642   3.053   6.668 -0.8261 -3.3646  0.3093
20671SOL    HW265545   7.758   2.982   6.733  1.2243 -0.5376 -0.0865
20672SOL     OW65546   7.917   2.312   9.079  0.1313 -0.3990 -0.6441
20672SOL    HW165547   7.956   2.241   9.029 -0.4577 -0.9995 -0.2736
20672SOL    HW265548   7.880   2.269   9.157  0.1098  0.3656 -0.2250
20673SOL     OW65549   7.062   7.582   7.605  0.4172  0.1268  0.3007
20673SOL    HW165550   6.970   7.599   7.628 -0.0077 -0.4144 -0.9201
20673SOL    HW265551   7.088   7.510   7.662 -0.0573 -0.0180  0.3403
20674SOL     OW65552   8.968   9.821   9.387  0.1556 -0.7424  0.0295
20674SOL    HW165553   8.930   9.888   9.330  0.4355 -0.9366 -0.3944
20674SOL    HW265554   9.063   9.835   9.381  0.1769 -0.5763  0.6855
20675SOL     OW65555   0.108   2.631   1.837 -0.0433 -0.2112 -0.0778
20675SOL    HW165556   0.172   2.576   1.793  0.7311 -0.7494  1.6181
20675SOL    HW265557   0.156   2.711   1.860  0.0521 -0.5933  1.1533
20676SOL     OW65558   5.195   4.291   1.862  0.2533 -0.1631  0.0332
20676SOL    HW165559   5.147   4.213   1.888 -0.6061  0.1942 -0.4416
20676SOL    HW265560   5.267   4.259   1.809  0.6799 -0.7196  0.9173
20677SOL     OW65561   6.390   9.736   1.592 -0.0927  0.7713 -0.2056
20677SOL    HW165562   6.413   9.771   1.678 -0.4330  1.2584 -0.3053
20677SOL    HW265563   6.387   9.641   1.604  2.1258  0.6329 -0.2169
20678SOL     OW65564   3.599   6.134   2.489 -0.2746 -0.6438 -0.1013
20678SOL    HW165565   3.531   6.193   2.459 -0.0761 -0.1001  0.5001
20678SOL    HW265566   3.578   6.117   2.581  0.6066 -0.1470  0.2112
20679SOL     OW65567   3.588   4.345   6.485  0.4101  0.5233  0.6537
20679SOL    HW165568   3.561   4.399   6.559 -1.5768 -0.5559  0.7592
20679SOL    HW265569   3.514   4.348   6.424  1.1932 -0.2368 -0.3779
20680SOL     OW65570   3.253   0.715   0.186  0.4621  0.3008  0.8623
20680SOL    HW165571   3.233   0.677   0.100  0.0912  0.8162  0.7139
20680SOL    HW265572   3.339   0.757   0.173  0.0552  1.0531  0.5082
20681SOL     OW65573  11.009   6.124   7.557  0.2355 -0.3529 -0.5115
20681SOL    HW165574  11.017   6.072   7.477 -1.7164  0.4708 -1.2837
20681SOL    HW265575  10.993   6.214   7.526  0.5968  0.1883  0.8051
20682SOL     OW65576   4.818   7.942   5.600 -0.0106  0.7749  0.1137
20682SOL    HW165577   4.793   7.987   5.681 -1.3199  0.4384 -0.0902
20682SOL    HW265578   4.781   7.997   5.530  0.4502  0.6502 -0.2319
20683SOL     OW65579   3.045   6.119   4.902  0.4552  0.2585 -0.2664
20683SOL    HW165580   3.060   6.081   4.989  1.8170 -1.2358 -1.0947
20683SOL    HW265581   3.114   6.186   4.894  1.2935 -0.6424 -0.7491
20684SOL     OW65582   0.135  10.403   2.507 -0.4419 -0.0057 -0.1432
20684SOL    HW165583   0.108  10.355   2.585  1.2922 -0.4761  0.1972
20684SOL    HW265584   0.154  10.335   2.442 -0.6290  0.3387 -0.5667
20685SOL     OW65585   8.711   7.630   9.126 -0.1735  0.6777 -0.3020
20685SOL    HW165586   8.718   7.632   9.030  2.4792 -0.3165 -0.2053
20685SOL    HW265587   8.673   7.545   9.146  0.3674  0.3876 -0.4697
20686SOL     OW65588   6.874   5.136  10.007 -0.4869 -0.0448  0.3251
20686SOL    HW165589   6.848   5.227  10.021 -0.7756 -0.1979  0.8222
20686SOL    HW265590   6.854   5.119   9.915 -0.5243  0.3616  0.2563
20687SOL     OW65591   8.619   1.531  10.095 -0.6829 -0.6501  0.1497
20687SOL    HW165592   8.581   1.619  10.090 -1.3412 -0.8242  1.6534
20687SOL    HW265593   8.549   1.476  10.129  0.0722 -1.5378  0.3091
20688SOL     OW65594   4.256   0.502  11.062 -0.1928 -0.1434 -0.3429
20688SOL    HW165595   4.183   0.529  11.005  0.3625  1.5512 -0.2846
20688SOL    HW265596   4.331   0.496  11.003  0.9289  3.8201  0.3894
20689SOL     OW65597   5.562   4.450   5.193  0.5698  0.3873 -0.0380
20689SOL    HW165598   5.562   4.540   5.224 -0.3504  0.8865 -1.4255
20689SOL    HW265599   5.545   4.456   5.099 -1.0919 -1.2874  0.0944
20690SOL     OW65600   8.960   3.215   8.672  0.5271  0.1417  0.3825
20690SOL    HW165601   8.979   3.298   8.628  0.2597 -0.6903 -1.4158
20690SOL    HW265602   8.968   3.149   8.603 -0.0753 -1.2406  1.5716
20691SOL     OW65603   1.435   1.827   3.042  0.0523 -0.5249 -0.6316
20691SOL    HW165604   1.404   1.764   3.107  0.1529  0.0647 -0.0027
20691SOL    HW265605   1.478   1.773   2.976  0.5524 -1.0845  0.1240
20692SOL     OW65606   5.697   7.602   7.236  0.0157 -0.6140  0.6145
20692SOL    HW165607   5.746   7.540   7.183  0.4934  0.7482 -0.6114
20692SOL    HW265608   5.753   7.618   7.313  1.0857  0.1933 -0.3017
20693SOL     OW65609   8.240   2.597   2.436  0.2409 -0.0144 -0.4510
20693SOL    HW165610   8.250   2.589   2.341 -1.6335  1.1424 -0.8019
20693SOL    HW265611   8.270   2.685   2.456  0.6443 -0.2594  0.0501
20694SOL     OW65612   2.557   8.695   7.440 -0.2570 -0.3164  0.4150
20694SOL    HW165613   2.589   8.613   7.401 -0.4985  0.0640 -0.6163
20694SOL    HW265614   2.462   8.691   7.428 -0.3307 -0.1588  0.9263
20695SOL     OW65615   7.562   1.599   3.242 -0.0917  0.2265  0.3021
20695SOL    HW165616   7.534   1.674   3.294  0.2783 -0.5873  1.7242
20695SOL    HW265617   7.518   1.524   3.283 -2.0555 -0.1645 -2.2808
20696SOL     OW65618   2.896   7.285   6.785 -0.2437  0.3882 -0.4618
20696SOL    HW165619   2.924   7.355   6.726 -0.0924  1.0471  0.3735
20696SOL    HW265620   2.962   7.283   6.854  0.6234 -1.6514 -1.2855
20697SOL     OW65621   7.928   4.046   9.924 -0.2921  0.3931  0.6263
20697SOL    HW165622   8.019   4.077   9.927 -0.1192 -0.1668  1.3504
20697SOL    HW265623   7.926   3.983   9.852 -0.2381  0.7827  0.2752
20698SOL     OW65624   5.474   0.698   8.901  0.6479 -0.3747 -0.3353
20698SOL    HW165625   5.478   0.632   8.970 -2.4215  0.6153  0.9842
20698SOL    HW265626   5.406   0.667   8.841  1.1706  0.2248 -1.2654
20699SOL     OW65627   1.971   2.575   5.992 -0.2885 -0.1813  0.0883
20699SOL    HW165628   1.919   2.533   5.923 -1.0766  0.5836  0.2006
20699SOL    HW265629   2.062   2.564   5.965 -0.4302 -2.3523  0.3289
20700SOL     OW65630   6.076   8.420   9.033 -0.3191 -0.3875  0.1439
20700SOL    HW165631   6.160   8.375   9.030  0.5346  1.0765  1.1486
20700SOL    HW265632   6.076   8.475   8.955  0.4636  0.9580  1.0694
20701SOL     OW65633   9.032   6.067   2.303 -0.0489 -0.7205  0.0269
20701SOL    HW165634   9.065   6.155   2.322 -1.8600 -0.1594  0.8267
20701SOL    HW265635   9.072   6.043   2.219 -0.8069  1.5727 -1.0653
20702SOL     OW65636   2.081  10.888  10.009  0.2904 -0.4094 -0.0361
20702SOL    HW165637   2.093  10.953   9.940 -1.0998  0.0997  0.1883
20702SOL    HW265638   2.158  10.898  10.065  0.4275  0.5640 -0.3848
20703SOL     OW65639   2.432   1.088   4.391 -0.1899 -0.1737 -0.2263
20703SOL    HW165640   2.366   1.101   4.322 -0.3321  0.2460 -0.0175
20703SOL    HW265641   2.498   1.155   4.373  0.5723 -1.0851 -0.8876
20704SOL     OW65642   8.964  10.253  10.574  0.0249 -0.6056  0.4592
20704SOL    HW165643   8.895  10.189  10.557 -0.3876  0.0633 -0.4814
20704SOL    HW265644   9.020  10.212  10.640 -0.0839 -2.0348 -0.3176
20705SOL     OW65645   5.690   6.935   4.922  0.1070 -0.8095  0.2743
20705SOL    HW165646   5.707   6.951   4.830  0.1574 -0.4573  0.3438
20705SOL    HW265647   5.608   6.885   4.924 -0.5728  0.2757  0.1080
20706SOL     OW65648   7.877   0.432   9.403  0.2676  0.1887 -0.5510
20706SOL    HW165649   7.870   0.337   9.395 -0.3399  0.3291 -2.0004
20706SOL    HW265650   7.788   0.462   9.419  0.2879  0.5853 -1.1343
20707SOL     OW65651   7.311   3.216  11.102 -0.2150 -0.6085  0.3185
20707SOL    HW165652   7.320   3.284  11.035  0.8861  0.3450  1.3775
20707SOL    HW265653   7.217   3.210  11.117 -0.3111  1.9814  1.4103
20708SOL     OW65654   7.621   4.947   9.337  0.3368 -0.4700 -0.1567
20708SOL    HW165655   7.663   5.026   9.372 -1.0735  1.1667 -1.9632
20708SOL    HW265656   7.681   4.917   9.269  0.1708 -0.0607 -0.4885
20709SOL     OW65657   6.666   7.967   3.253  0.0458 -0.2637 -0.1980
20709SOL    HW165658   6.718   7.988   3.176 -0.2075  0.3416 -0.2196
20709SOL    HW265659   6.698   8.027   3.321  0.3854 -0.9132  0.2150
20710SOL     OW65660   2.233  10.725   2.147  0.0317 -0.0688  0.1144
20710SOL    HW165661   2.150  10.766   2.171  0.9695  2.5920 -0.9036
20710SOL    HW265662   2.256  10.671   2.223 -1.1926  1.4633  1.6436
20711SOL     OW65663  10.588   0.401   5.986 -0.2172  0.3386  0.0860
20711SOL    HW165664  10.622   0.312   5.989 -0.3365  0.2342 -1.1364
20711SOL    HW265665  10.612   0.434   5.899 -2.4002  0.5677 -0.4969
20712SOL     OW65666   7.444  10.412   3.788  0.1160 -0.7853  0.2303
20712SOL    HW165667   7.477  10.480   3.847  1.6549 -0.5994 -0.7999
20712SOL    HW265668   7.450  10.451   3.701  0.9371 -2.1953 -0.3674
20713SOL     OW65669   9.917   1.365   5.498  0.7765  0.0360 -0.4976
20713SOL    HW165670   9.995   1.409   5.532 -0.3713  1.5523  0.2819
20713SOL    HW265671   9.844   1.406   5.544 -0.5160 -1.1945 -1.3607
20714SOL     OW65672   2.646   8.129   9.454  0.0425 -0.4300  0.2812
20714SOL    HW165673   2.656   8.132   9.359  0.3658  3.1548  0.2585
20714SOL    HW265674   2.708   8.063   9.484 -1.3108 -2.9094 -2.0329
20715SOL     OW65675  10.201   8.706   8.850  0.2781  0.0097  0.5475
20715SOL    HW165676  10.176   8.653   8.926  1.1967 -1.6059 -0.2267
20715SOL    HW265677  10.119   8.723   8.804  0.0874 -1.7648  0.1937
20716SOL     OW65678   0.190   8.215  10.506  0.3086 -0.2965 -0.0926
20716SOL    HW165679   0.224   8.250  10.589  0.4912 -0.4192 -0.1156
20716SOL    HW265680   0.172   8.292  10.453  1.3039 -0.2445 -0.3813
20717SOL     OW65681   2.363   0.751   0.908  0.5292  0.5297  0.2665
20717SOL    HW165682   2.320   0.749   0.823  0.2459 -1.2400  0.4303
20717SOL    HW265683   2.293   0.772   0.970 -0.0199 -1.5713  0.4373
20718SOL     OW65684   7.030   5.820   6.472 -0.5264 -0.0984  0.4228
20718SOL    HW165685   7.080   5.817   6.553 -1.8227  0.2951  1.2560
20718SOL    HW265686   6.943   5.850   6.497 -0.8608  0.3894 -1.1658
20719SOL     OW65687   2.078   4.741   8.654 -0.2766  0.0209 -0.6995
20719SOL    HW165688   2.053   4.743   8.562 -0.2797 -1.9606 -0.7833
20719SOL    HW265689   2.082   4.648   8.676  0.0844  0.4412  1.2112
20720SOL     OW65690   6.686   1.072   9.850  0.6331  0.6129 -0.0632
20720SOL    HW165691   6.680   0.978   9.869  1.2446  0.7787  0.9874
20720SOL    HW265692   6.620   1.086   9.782  0.0532 -0.4463  0.2507
20721SOL     OW65693   3.584   9.350   5.361  0.0969  0.4364  0.3660
20721SOL    HW165694   3.607   9.327   5.451  2.2955  1.1748  0.0684
20721SOL    HW265695   3.668   9.376   5.321 -1.3316  3.8136 -0.8045
20722SOL     OW65696   2.989   1.469   7.990  0.1661 -0.0578  1.1930
20722SOL    HW165697   3.034   1.553   7.992 -0.2663  0.1721  2.1935
20722SOL    HW265698   2.898   1.491   7.970  0.0391 -0.2670  1.5218
20723SOL     OW65699   1.723   4.740   0.645 -0.5932 -0.0708 -0.1118
20723SOL    HW165700   1.722   4.666   0.706 -1.8304 -1.5308 -1.8250
20723SOL    HW265701   1.801   4.790   0.670  0.3834 -2.0233  0.9934
20724SOL     OW65702   7.684   5.349   5.781  0.4486 -0.3372 -0.3121
20724SOL    HW165703   7.680   5.424   5.721  0.9765 -2.0365 -2.5988
20724SOL    HW265704   7.743   5.378   5.851  1.8292  0.8978 -1.9101
20725SOL     OW65705   9.598   0.989   1.232  0.0737 -0.0782  0.0093
20725SOL    HW165706   9.591   0.934   1.153 -4.0947  0.4511 -0.2343
20725SOL    HW265707   9.598   0.926   1.304  1.0410 -0.5007 -0.3407
20726SOL     OW65708   4.595   7.547   9.635  0.0519  0.1661  0.6988
20726SOL    HW165709   4.677   7.586   9.606 -1.0643  1.2291 -1.2073
20726SOL    HW265710   4.573   7.483   9.567 -1.7877  1.5018 -0.0379
20727SOL     OW65711   2.640   1.937   1.505 -0.1194  0.4742 -0.3189
20727SOL    HW165712   2.589   1.917   1.426 -1.1575 -0.6415  0.5939
20727SOL    HW265713   2.725   1.895   1.489 -0.1963  0.5561 -0.9890
20728SOL     OW65714   8.394   5.596   1.563  0.5452 -0.4220 -0.6140
20728SOL    HW165715   8.416   5.680   1.524  0.5310  0.1223  0.5257
20728SOL    HW265716   8.476   5.566   1.602  0.2166 -0.2519  0.2258
20729SOL     OW65717   4.304   5.910   5.587  0.3646 -0.2928  0.1862
20729SOL    HW165718   4.238   5.852   5.549  0.1523 -0.4142  0.7282
20729SOL    HW265719   4.318   5.875   5.675  1.5342 -0.5826 -0.1010
20730SOL     OW65720   6.342   0.116   5.017  0.2672  0.0839  0.0959
20730SOL    HW165721   6.408   0.103   4.950  0.2762  0.0390  0.1132
20730SOL    HW265722   6.278   0.046   5.002 -1.2287  1.7016 -1.6573
20731SOL     OW65723   1.662   0.566   9.082  0.0718 -0.3456 -0.5168
20731SOL    HW165724   1.738   0.508   9.086  1.3057  1.1440 -0.9172
20731SOL    HW265725   1.610   0.544   9.160  0.9044 -1.4155 -0.2389
20732SOL     OW65726   9.656   6.930   9.666 -0.0331 -0.3562 -0.4883
20732SOL    HW165727   9.642   7.023   9.648  0.4032 -0.6898 -2.9631
20732SOL    HW265728   9.746   6.926   9.699 -0.0080  0.0783 -0.4913
20733SOL     OW65729   0.542   9.022   1.518 -0.6860 -0.5033 -0.1111
20733SOL    HW165730   0.612   8.971   1.558  1.0289  0.9687 -1.0706
20733SOL    HW265731   0.536   8.987   1.429 -1.7586 -1.1544  0.2033
20734SOL     OW65732   8.792   1.024  10.116 -0.0639  0.1975  0.2214
20734SOL    HW165733   8.712   1.073  10.099 -0.2307 -0.0690  0.2341
20734SOL    HW265734   8.861   1.091  10.117 -0.1474  0.3073 -0.7648
20735SOL     OW65735   0.909   2.613   9.337 -0.3024 -0.0246  0.0476
20735SOL    HW165736   0.886   2.568   9.255  0.1521  1.9369 -1.2269
20735SOL    HW265737   0.830   2.662   9.360 -0.5475 -0.8343  1.0239
20736SOL     OW65738  10.761   2.271   1.590 -0.2613 -0.0578 -0.1745
20736SOL    HW165739  10.844   2.319   1.592 -1.0372  1.3580  1.1871
20736SOL    HW265740  10.740   2.263   1.497 -0.3129  2.7522 -0.4904
20737SOL     OW65741   7.613   6.269   7.090  0.4032 -0.2765 -0.1336
20737SOL    HW165742   7.620   6.230   7.177  0.7921  0.5487  0.2141
20737SOL    HW265743   7.695   6.248   7.047  0.0506 -1.0320 -0.4602
20738SOL     OW65744   2.831   7.809   2.133  0.1548  0.3896  0.2596
20738SOL    HW165745   2.793   7.748   2.197  1.2020  0.4637  0.9854
20738SOL    HW265746   2.755   7.846   2.087 -0.5110 -1.2190  0.0076
20739SOL     OW65747   5.615   5.690   6.038  0.1312  0.1319  0.5270
20739SOL    HW165748   5.577   5.628   6.100  0.3188 -0.0469  0.4628
20739SOL    HW265749   5.564   5.678   5.957 -0.0994  0.3499  0.6396
20740SOL     OW65750   2.932   5.313   9.368  0.4188  0.5207 -0.2541
20740SOL    HW165751   2.911   5.314   9.461 -0.4946 -0.6640 -0.4313
20740SOL    HW265752   2.857   5.354   9.325 -0.9873 -2.3398 -0.7549
20741SOL     OW65753   5.474  10.426   2.206 -0.3305 -0.2183  0.0761
20741SOL    HW165754   5.398  10.412   2.149 -0.1425 -1.7456  0.1398
20741SOL    HW265755   5.447  10.392   2.291  0.2192 -0.2178  0.2585
20742SOL     OW65756   8.885  10.748  10.513  0.1790 -0.1528  0.2416
20742SOL    HW165757   8.917  10.742  10.423  0.9255  0.5053  0.4492
20742SOL    HW265758   8.789  10.742  10.506  0.2612 -0.5785 -0.5424
20743SOL     OW65759   2.348   3.172   4.807  0.0806 -0.2382 -0.6606
20743SOL    HW165760   2.344   3.147   4.715  0.8211 -2.4062 -0.1549
20743SOL    HW265761   2.263   3.145   4.843  0.3946 -0.8652 -0.3811
20744SOL     OW65762   2.157   2.032   1.539 -0.4428 -0.4602  0.1115
20744SOL    HW165763   2.136   2.109   1.592 -0.3465 -0.8355  0.7036
20744SOL    HW265764   2.084   1.972   1.553 -0.5893 -0.4244 -0.4630
20745SOL     OW65765   1.159   4.377   5.271 -0.1553 -0.3768  0.5590
20745SOL    HW165766   1.070   4.387   5.237  0.1294  0.0644 -0.0801
20745SOL    HW265767   1.197   4.305   5.220  0.1018 -0.0593  0.2974
20746SOL     OW65768  10.327   9.395   1.957  0.4019 -0.5199  0.0262
20746SOL    HW165769  10.405   9.374   2.009 -0.4272  0.2142  1.6481
20746SOL    HW265770  10.257   9.343   1.997 -0.6761  1.5555  0.9978
20747SOL     OW65771   6.530   2.478   4.987  0.0499  0.5584  0.4390
20747SOL    HW165772   6.439   2.501   5.007 -0.8784 -3.4666  1.8846
20747SOL    HW265773   6.529   2.458   4.893 -0.2285  1.5750  0.2087
20748SOL     OW65774   3.339  10.429   9.939  0.2470 -0.8471 -0.0259
20748SOL    HW165775   3.318  10.419   9.847  2.1163 -0.4594 -0.5360
20748SOL    HW265776   3.334  10.340   9.975 -3.6331 -0.6547  0.3332
20749SOL     OW65777   9.557   8.006   5.355  0.0129 -0.3894  0.1115
20749SOL    HW165778   9.504   8.085   5.350  1.2871  0.4515 -0.6021
20749SOL    HW265779   9.497   7.939   5.387 -0.6705  1.2219  2.3894
20750SOL     OW65780   5.742   3.806   0.805  0.1499 -0.1222  0.8187
20750SOL    HW165781   5.669   3.745   0.817 -0.2974 -0.0195 -1.1142
20750SOL    HW265782   5.705   3.892   0.827  0.2380 -0.2967  1.6737
20751SOL     OW65783   9.748   3.901   4.494 -0.4866  0.7400 -0.1495
20751SOL    HW165784   9.724   3.876   4.583  1.0744 -0.7524 -0.0957
20751SOL    HW265785   9.777   3.819   4.453  0.3108  1.6741 -1.5288
20752SOL     OW65786   9.390   4.930   0.849  0.4589 -0.2615 -0.2377
20752SOL    HW165787   9.307   4.891   0.878 -0.9769  1.9702 -1.0773
20752SOL    HW265788   9.438   4.947   0.930  0.7243 -2.7283  0.2014
20753SOL     OW65789   4.491   0.614   0.511 -0.9365 -0.3313 -0.1531
20753SOL    HW165790   4.572   0.563   0.514 -0.4148  0.4485 -0.6643
20753SOL    HW265791   4.432   0.568   0.571 -0.1334 -0.9332  0.1968
20754SOL     OW65792   9.719   7.773   7.314 -0.7751  0.0915  0.0445
20754SOL    HW165793   9.726   7.777   7.409  0.9836  1.8398 -0.0792
20754SOL    HW265794   9.629   7.799   7.295 -0.8246  0.8225  1.2049
20755SOL     OW65795   7.534   3.419  10.172 -0.1670 -0.3845 -0.1667
20755SOL    HW165796   7.569   3.357  10.108 -2.2330 -1.2002 -0.5681
20755SOL    HW265797   7.507   3.495  10.121  1.1025  0.3104  0.1614
20756SOL     OW65798   3.786   1.240  10.447 -0.3915  0.2285 -0.4697
20756SOL    HW165799   3.870   1.284  10.441 -1.2002  1.9661  0.3286
20756SOL    HW265800   3.794   1.183  10.524  0.1791  0.0711 -0.6440
20757SOL     OW65801   8.932   3.666   6.244  0.7213  0.3831  0.5595
20757SOL    HW165802   8.986   3.737   6.209  1.3230 -0.1045  0.4712
20757SOL    HW265803   8.931   3.681   6.339  1.2004  0.2814  0.5865
20758SOL     OW65804   8.588  10.260   0.076 -0.0008  0.4602 -0.2344
20758SOL    HW165805   8.647  10.261   0.152  0.3885  0.6038 -0.5299
20758SOL    HW265806   8.619  10.188   0.022 -1.1498 -0.5350  0.3961
20759SOL     OW65807   9.537   3.828   8.036  0.2045 -0.0201 -0.0562
20759SOL    HW165808   9.524   3.922   8.034  1.4135  0.1568 -1.8770
20759SOL    HW265809   9.558   3.808   8.128  0.2393  1.5141  0.2888
20760SOL     OW65810   2.825   7.163   5.403  0.2678 -0.5229  0.6640
20760SOL    HW165811   2.801   7.177   5.311 -2.2335 -1.4075  1.1124
20760SOL    HW265812   2.889   7.092   5.401 -0.0086 -0.7497 -0.3609
20761SOL     OW65813  10.030   4.990   6.067 -0.0316  0.2180 -0.5111
20761SOL    HW165814  10.027   5.075   6.023  0.1344  0.3151 -0.3392
20761SOL    HW265815  10.097   5.001   6.135 -1.5322  0.6406  0.9469
20762SOL     OW65816   1.265   3.689   5.053  0.3752 -0.1661 -0.0115
20762SOL    HW165817   1.209   3.721   5.124  1.6663 -0.8182  1.3582
20762SOL    HW265818   1.245   3.746   4.979 -0.7576  0.7702  0.9663
20763SOL     OW65819   5.503   0.632   7.071 -0.2208 -0.1641  0.2127
20763SOL    HW165820   5.464   0.545   7.079 -1.5395  0.2240 -1.5107
20763SOL    HW265821   5.459   0.684   7.138  2.4615 -1.3247  3.1604
20764SOL     OW65822   3.432   7.618  10.691  0.5515  0.5170  0.1543
20764SOL    HW165823   3.369   7.626  10.763  0.7782  1.8639  0.2204
20764SOL    HW265824   3.379   7.601  10.614  0.2143  0.3683  0.4165
20765SOL     OW65825   2.849  10.470  10.801  0.1696 -0.0922  0.0914
20765SOL    HW165826   2.897  10.432  10.728  1.4926  0.7963  0.4450
20765SOL    HW265827   2.916  10.482  10.869 -0.7912  0.1870  1.0166
20766SOL     OW65828   4.819   2.622   8.641  0.4732 -0.0551  0.6305
20766SOL    HW165829   4.826   2.622   8.737  0.2603 -2.0097  0.6694
20766SOL    HW265830   4.907   2.640   8.610  0.3115  1.8888  1.1610
20767SOL     OW65831   2.016   1.918   7.984  0.3241  0.5316 -0.1677
20767SOL    HW165832   2.020   1.934   7.890  1.1596 -0.6076 -0.3478
20767SOL    HW265833   2.023   2.005   8.024 -2.0291  1.2575 -1.1473
20768SOL     OW65834   7.836   6.560   3.068 -0.3743 -0.1324  0.5271
20768SOL    HW165835   7.870   6.524   2.986  1.5900  0.3065  1.0916
20768SOL    HW265836   7.813   6.650   3.048 -0.6303 -0.2507  0.2847
20769SOL     OW65837   0.386   7.668   4.209 -0.6832 -1.1295  0.2438
20769SOL    HW165838   0.417   7.679   4.120 -1.0021 -0.0464  0.2581
20769SOL    HW265839   0.326   7.593   4.204 -1.2966 -0.5998 -0.6134
20770SOL     OW65840   0.435   9.531   5.651  0.0625  0.5485  0.1975
20770SOL    HW165841   0.406   9.620   5.635  0.7789  0.4456 -1.9556
20770SOL    HW265842   0.516   9.540   5.701  1.4401  1.2783 -2.0280
20771SOL     OW65843   3.550   7.462   9.492  0.0156 -0.6556  0.2467
20771SOL    HW165844   3.569   7.380   9.538 -0.5988 -0.2289  1.2805
20771SOL    HW265845   3.518   7.433   9.406  0.4264 -1.4826  0.3560
20772SOL     OW65846   0.390   1.916   7.348 -0.0248  0.0283  0.1174
20772SOL    HW165847   0.320   1.971   7.384  1.1421  1.1166  0.8062
20772SOL    HW265848   0.439   1.886   7.425  0.5878 -0.2810 -0.3862
20773SOL     OW65849   6.832   6.725   9.186  0.1302  0.0662 -0.0793
20773SOL    HW165850   6.902   6.674   9.228 -0.0973 -0.8913 -0.8359
20773SOL    HW265851   6.797   6.779   9.257 -0.7578 -2.0401  1.1887
20774SOL     OW65852  10.164   7.061   3.986 -0.3055  0.0603  0.4472
20774SOL    HW165853  10.140   6.979   4.028  0.9459 -0.2059  0.6980
20774SOL    HW265854  10.081   7.099   3.957 -0.8468 -1.5888 -0.2452
20775SOL     OW65855   7.198   7.881   8.679  0.0413  0.4296 -0.4395
20775SOL    HW165856   7.271   7.872   8.741  0.0065 -0.7446 -0.5615
20775SOL    HW265857   7.240   7.895   8.594  0.3059 -3.4907 -1.1108
20776SOL     OW65858   8.472   2.602   5.551  0.3472  0.1959  0.6031
20776SOL    HW165859   8.559   2.591   5.591  0.7434  3.9251  1.1213
20776SOL    HW265860   8.478   2.555   5.468  3.7404  2.0581 -0.4088
20777SOL     OW65861   6.800   8.185   3.393 -0.2834  0.2320 -0.2758
20777SOL    HW165862   6.826   8.210   3.304 -1.2952 -0.1728 -0.7084
20777SOL    HW265863   6.775   8.268   3.434  2.1201  0.7097  0.3424
20778SOL     OW65864   3.763   2.252   2.950 -0.0371 -0.0351 -0.0096
20778SOL    HW165865   3.798   2.259   3.039  1.3377 -1.8003 -0.3483
20778SOL    HW265866   3.840   2.236   2.895 -0.9555  0.1486 -1.3969
20779SOL     OW65867   2.255   0.045   5.001  0.2053 -0.8744 -0.1654
20779SOL    HW165868   2.268  -0.027   5.063  1.1948 -1.0007 -0.5202
20779SOL    HW265869   2.293   0.121   5.045  0.1115 -0.7784 -0.2492
20780SOL     OW65870  10.554   7.795   2.727  0.6138  0.4756  0.1271
20780SOL    HW165871  10.475   7.744   2.707  1.4606 -0.3950 -1.0939
20780SOL    HW265872  10.610   7.733   2.774  0.5832  1.1062  1.0187
20781SOL     OW65873  10.473   4.638   8.240  0.3653 -0.7962  0.0319
20781SOL    HW165874  10.531   4.604   8.308 -0.4359  0.8942  1.6671
20781SOL    HW265875  10.396   4.669   8.288 -0.2286  0.5038 -1.6613
20782SOL     OW65876   2.104   1.211   1.166  0.3743  0.0559  0.4247
20782SOL    HW165877   2.028   1.260   1.135  1.5949  2.1240  0.5154
20782SOL    HW265878   2.173   1.231   1.103  0.9570 -1.5390  0.5115
20783SOL     OW65879   7.097   7.253   7.512  0.1214 -0.1186 -0.1389
20783SOL    HW165880   7.124   7.309   7.585 -1.5421 -0.3938  0.7474
20783SOL    HW265881   7.005   7.275   7.498 -0.0990 -1.4264 -0.9112
20784SOL     OW65882   7.520   5.244   6.154 -0.0602 -0.1354  0.3204
20784SOL    HW165883   7.466   5.308   6.107 -1.0582 -1.2426 -0.0785
20784SOL    HW265884   7.517   5.165   6.100  2.2618 -0.1487  0.1234
20785SOL     OW65885   7.822   4.727   8.401  0.1487 -0.0528 -0.0871
20785SOL    HW165886   7.760   4.698   8.468  0.6040 -0.4051  0.1866
20785SOL    HW265887   7.766   4.755   8.328 -0.3651  1.0465  0.7107
20786SOL     OW65888  10.645   4.460  10.988 -0.1405 -0.3343  0.4743
20786SOL    HW165889  10.596   4.529  11.032 -2.6200 -2.1103  0.7281
20786SOL    HW265890  10.700   4.422  11.056 -0.1673  0.1768  0.7826
20787SOL     OW65891   1.253   9.771   2.390 -1.2535 -0.0235  0.2808
20787SOL    HW165892   1.236   9.677   2.398 -0.4535 -0.2917 -0.8572
20787SOL    HW265893   1.188   9.802   2.328 -2.2208  0.4169  1.4758
20788SOL     OW65894  10.662   3.784   2.063  0.3852  0.3296  0.6225
20788SOL    HW165895  10.734   3.722   2.051  0.5307  0.9279 -2.2003
20788SOL    HW265896  10.687   3.834   2.141  4.1252  1.8354 -1.2856
20789SOL     OW65897   7.855   2.733   3.253 -0.0828 -0.4064 -0.0513
20789SOL    HW165898   7.935   2.685   3.273 -0.4609 -1.1235 -0.2358
20789SOL    HW265899   7.885   2.822   3.234  0.5839 -0.4751  0.6504
20790SOL     OW65900   6.261   7.449  11.126  0.3720  0.2907  0.0826
20790SOL    HW165901   6.249   7.541  11.105 -0.6992 -0.1476 -1.4033
20790SOL    HW265902   6.184   7.405  11.089  1.1490 -1.2694  0.2092
20791SOL     OW65903   5.369  10.332   2.426  0.1470  0.0124  0.3855
20791SOL    HW165904   5.284  10.346   2.468 -0.2365 -1.0939  0.0169
20791SOL    HW265905   5.424  10.403   2.459 -1.1312  1.2213  0.0136
20792SOL     OW65906   8.285   3.051   3.023 -0.1893 -0.4444 -0.1780
20792SOL    HW165907   8.343   3.024   2.951 -0.3529 -1.4038  0.0396
20792SOL    HW265908   8.306   2.991   3.094  0.0373  0.5523  0.6332
20793SOL     OW65909   6.508  10.530   8.655  0.4516 -0.4993 -0.2963
20793SOL    HW165910   6.415  10.545   8.637 -0.0693 -0.5712  2.0067
20793SOL    HW265911   6.509  10.478   8.735  2.4644  1.8619  1.3732
20794SOL     OW65912   9.405   8.524  10.915  0.4381 -0.2877  0.1856
20794SOL    HW165913   9.443   8.536  10.828 -1.4232 -1.0684 -0.8103
20794SOL    HW265914   9.337   8.592  10.921 -1.4095 -1.9771 -0.2299
20795SOL     OW65915  10.121   6.286  10.211  0.2303  0.1095 -0.0104
20795SOL    HW165916  10.189   6.235  10.166  1.0430  1.3265 -0.1968
20795SOL    HW265917  10.091   6.228  10.281  0.6072 -0.9051 -0.6659
20796SOL     OW65918   9.190   8.640   4.818 -0.4124 -0.3505  0.0429
20796SOL    HW165919   9.164   8.583   4.746 -0.1321 -3.3269  2.1287
20796SOL    HW265920   9.285   8.643   4.814 -0.2618 -2.0818  1.2929
20797SOL     OW65921   6.601   0.887  10.911  0.4146  0.3984  0.2473
20797SOL    HW165922   6.599   0.982  10.924  0.8681  0.5356 -0.5968
20797SOL    HW265923   6.615   0.851  10.999  0.0885  1.1038  0.5939
20798SOL     OW65924   7.638   0.751   0.805 -0.3774  0.3228 -0.0066
20798SOL    HW165925   7.573   0.797   0.858  1.1610  2.7971 -0.0798
20798SOL    HW265926   7.681   0.691   0.866 -1.0971  0.4306  0.6171
20799SOL     OW65927   1.845   1.751   1.001  0.3764  0.3684 -0.4067
20799SOL    HW165928   1.901   1.702   1.061 -1.4157  0.6203  1.5477
20799SOL    HW265929   1.853   1.842   1.030 -2.3313  0.2085  1.0592
20800SOL     OW65930   4.592   0.157   1.165 -0.6112  0.4180 -0.7524
20800SOL    HW165931   4.577   0.162   1.260 -2.7276  3.3622 -1.1035
20800SOL    HW265932   4.666   0.215   1.150  1.5537 -2.1282 -0.7566
20801SOL     OW65933   6.520   9.634   9.816  0.0793 -0.6116 -0.4069
20801SOL    HW165934   6.512   9.568   9.748  1.7571 -1.2682 -0.0110
20801SOL    HW265935   6.462   9.603   9.886  0.6420 -1.5339 -0.3365
20802SOL     OW65936   0.973   1.014   7.268 -0.4652  0.4863  0.0474
20802SOL    HW165937   1.042   0.961   7.308  0.3767  0.8951 -0.8163
20802SOL    HW265938   0.953   0.969   7.186  0.7742  1.8714 -1.0478
20803SOL     OW65939   2.804   8.130   2.517 -0.0696  0.3537  0.0836
20803SOL    HW165940   2.855   8.136   2.437 -2.3787 -0.0396 -1.5226
20803SOL    HW265941   2.797   8.036   2.535 -1.8317  0.2514 -0.8922
20804SOL     OW65942   8.941   5.437   3.023  0.3054 -0.2314 -0.0799
20804SOL    HW165943   8.919   5.502   3.090  0.0833  0.6550 -0.9941
20804SOL    HW265944   9.036   5.439   3.018  0.2693  0.6635 -0.7016
20805SOL     OW65945   8.035   0.044  10.440 -0.1848  0.1527 -0.5899
20805SOL    HW165946   7.983   0.052  10.520  0.0811 -0.4707 -0.3475
20805SOL    HW265947   8.021   0.126  10.393 -0.7299  0.3198 -0.1336
20806SOL     OW65948   9.438   1.226   0.711  0.2036 -0.0461 -0.7548
20806SOL    HW165949   9.441   1.290   0.782 -1.8382  0.4719 -1.0899
20806SOL    HW265950   9.521   1.239   0.664  0.8792  0.6847  0.5769
20807SOL     OW65951   5.178   3.687   9.511  0.0514 -0.1819  0.5237
20807SOL    HW165952   5.122   3.657   9.439 -1.5978  2.6660  0.4921
20807SOL    HW265953   5.264   3.699   9.471 -0.2152 -1.0423 -0.3435
20808SOL     OW65954  10.599   3.152  10.319 -0.6205  0.8560 -0.1761
20808SOL    HW165955  10.550   3.157  10.237 -0.2644  0.6064 -0.4109
20808SOL    HW265956  10.672   3.092  10.299 -0.2560  1.1771  0.1797
20809SOL     OW65957  10.583  11.103   1.743 -0.2221 -0.1454  0.3002
20809SOL    HW165958  10.667  11.127   1.784 -0.5018 -0.1301  0.8753
20809SOL    HW265959  10.571  11.168   1.674 -0.2280  0.4457  0.8475
20810SOL     OW65960   0.781   1.789   5.651 -0.6097 -0.1529 -0.6683
20810SOL    HW165961   0.860   1.835   5.619 -0.0052 -1.6236 -1.3775
20810SOL    HW265962   0.792   1.787   5.746 -1.0102  1.7690 -0.5397
20811SOL     OW65963  10.182   0.282   0.504 -0.0039  0.6457 -0.1218
20811SOL    HW165964  10.147   0.343   0.570 -0.2823 -0.0743  0.4121
20811SOL    HW265965  10.234   0.219   0.555 -0.5778 -0.1784 -0.5298
20812SOL     OW65966   2.111   3.440   8.055 -0.2406 -0.5560  0.8377
20812SOL    HW165967   2.041   3.422   8.118 -0.3594  0.7631  1.1162
20812SOL    HW265968   2.184   3.470   8.108 -0.1530  0.0365  0.3885
20813SOL     OW65969  10.613   5.220   8.229 -0.0565  0.5211  0.2391
20813SOL    HW165970  10.563   5.190   8.152 -1.7388 -1.1178  1.8469
20813SOL    HW265971  10.681   5.154   8.241 -0.7883 -0.1348  1.0053
20814SOL     OW65972   7.529   2.605   2.821 -0.5038 -0.3183  0.4467
20814SOL    HW165973   7.621   2.629   2.831 -0.7511  0.8051  0.2090
20814SOL    HW265974   7.504   2.569   2.907 -0.0599  0.1527  0.7777
20815SOL     OW65975   5.482   4.106   3.200 -0.3029  0.1521 -0.0151
20815SOL    HW165976   5.524   4.098   3.285 -0.6579 -1.1951  0.0644
20815SOL    HW265977   5.418   4.176   3.211  0.9209  1.2764  0.2564
20816SOL     OW65978   3.545   2.594   9.352 -0.1640  0.0259 -0.0871
20816SOL    HW165979   3.491   2.557   9.422 -3.3979  0.4178 -2.2029
20816SOL    HW265980   3.633   2.596   9.389 -1.1846 -2.4656  2.9012
20817SOL     OW65981  10.337   6.118  10.930 -0.1109 -0.7579 -0.6724
20817SOL    HW165982  10.407   6.166  10.975 -1.4901  0.3421  0.4235
20817SOL    HW265983  10.368   6.108  10.840  2.1037 -1.7054  0.1258
20818SOL     OW65984   6.278   2.126   5.816 -0.2286  0.2670 -0.2644
20818SOL    HW165985   6.280   2.173   5.899  1.3001  1.2832 -0.8375
20818SOL    HW265986   6.211   2.170   5.765  1.4995  2.2629 -0.9740
20819SOL     OW65987   3.454   9.743   3.258  0.1735  0.3284 -0.0067
20819SOL    HW165988   3.367   9.717   3.229  0.5786 -1.2346  0.0571
20819SOL    HW265989   3.445   9.759   3.352  0.2202 -1.2073  0.2802
20820SOL     OW65990   0.349   6.818   9.298 -0.3550 -0.0222 -0.4518
20820SOL    HW165991   0.352   6.790   9.390 -0.3445  0.4054 -0.3199
20820SOL    HW265992   0.426   6.874   9.288 -1.5118  1.7152 -0.1152
20821SOL     OW65993   0.956  10.492   9.583 -0.6691 -0.4227  0.2623
20821SOL    HW165994   1.011  10.471   9.508 -1.5449  0.3032 -0.6273
20821SOL    HW265995   0.930  10.583   9.568 -1.5055 -0.5220  1.0334
20822SOL     OW65996   2.268   3.984   6.398 -0.3169 -0.1146 -0.0121
20822SOL    HW165997   2.317   3.936   6.464  0.5916  0.7749 -0.0167
20822SOL    HW265998   2.330   4.047   6.362 -1.4684  1.1075  0.0319
20823SOL     OW65999   0.131   8.814   9.693  0.0230  0.0194  0.2446
20823SOL    HW166000   0.133   8.889   9.633 -0.0096  1.2985  1.7553
20823SOL    HW266001   0.198   8.835   9.759 -0.5721 -0.8774  1.1525
20824SOL     OW66002   4.767   0.857   8.003  0.2218 -0.2537 -0.4838
20824SOL    HW166003   4.736   0.775   7.964  1.6767  0.5389 -3.5524
20824SOL    HW266004   4.699   0.921   7.982 -0.4920 -0.4232  1.1523
20825SOL     OW66005   9.845   4.486   5.486 -0.5150  0.2035 -1.0362
20825SOL    HW166006   9.934   4.468   5.513 -0.4859 -0.1976 -1.3821
20825SOL    HW266007   9.795   4.488   5.567 -0.5656 -1.7325 -0.9613
20826SOL     OW66008   0.647   9.079   1.845  0.1534  0.2221 -0.1350
20826SOL    HW166009   0.700   9.141   1.795 -0.7446 -1.5924 -3.6819
20826SOL    HW266010   0.683   8.993   1.824 -1.5012 -0.7810  0.8455
20827SOL     OW66011   1.691   4.801  10.382  0.2617 -0.1583  0.0862
20827SOL    HW166012   1.722   4.771  10.297  0.8179  0.1138  0.1898
20827SOL    HW266013   1.760   4.776  10.443  0.0738  0.0575  0.3898
20828SOL     OW66014   2.218   6.842   2.280 -0.1621  0.8212 -0.2685
20828SOL    HW166015   2.254   6.762   2.320 -0.8229  0.8548  0.4142
20828SOL    HW266016   2.130   6.850   2.318 -0.5757  1.2017 -1.2638
20829SOL     OW66017   3.550   2.579   9.060 -0.1362  0.5729 -0.1745
20829SOL    HW166018   3.624   2.639   9.052  0.1572  0.2221 -0.1415
20829SOL    HW266019   3.553   2.550   9.152  0.8455 -0.9000 -0.6380
20830SOL     OW66020   6.875   7.056   1.818 -0.2665  0.5267 -0.2927
20830SOL    HW166021   6.932   7.051   1.895 -0.9654 -2.2322  0.1308
20830SOL    HW266022   6.813   6.984   1.829 -1.3573  1.0098 -2.6972
20831SOL     OW66023   5.009   8.854   1.236 -0.2064 -0.3123 -0.1572
20831SOL    HW166024   4.997   8.767   1.198  0.4699 -0.4622 -0.0397
20831SOL    HW266025   5.094   8.849   1.280 -0.6259  0.0930  0.7211
20832SOL     OW66026   7.005   1.892   3.202  0.0843 -0.2352 -0.3713
20832SOL    HW166027   7.038   1.982   3.201  0.6102 -0.4029  0.4602
20832SOL    HW266028   6.936   1.890   3.136  1.4124  0.2519 -1.8205
20833SOL     OW66029   9.799   8.117   3.538  0.1502 -0.1269  0.2754
20833SOL    HW166030   9.884   8.123   3.581  0.5841  0.7045 -0.6478
20833SOL    HW266031   9.741   8.172   3.591  0.1745 -0.7089  0.9168
20834SOL     OW66032   2.372   8.695   7.721 -0.5842  0.5653  0.1049
20834SOL    HW166033   2.446   8.634   7.728  0.4591  1.6259 -1.2915
20834SOL    HW266034   2.330   8.672   7.639  0.5066  2.4056 -1.0291
20835SOL     OW66035   0.124   8.924   3.692  0.5311  0.5838  0.3281
20835SOL    HW166036   0.089   8.990   3.752 -0.7687 -1.6683  2.2229
20835SOL    HW266037   0.051   8.905   3.633  0.3395 -0.3114  0.8474
20836SOL     OW66038   4.115   6.855   5.339  0.3164 -0.2870  0.0698
20836SOL    HW166039   4.207   6.848   5.311  0.0640  0.1156 -0.9026
20836SOL    HW266040   4.082   6.766   5.337  0.9920 -0.5907  1.5328
20837SOL     OW66041   6.739   0.496   7.652 -0.1245  0.2275  0.1587
20837SOL    HW166042   6.809   0.451   7.605  0.3285  2.2170 -1.1835
20837SOL    HW266043   6.784   0.549   7.718 -0.4290  0.8511 -0.1312
20838SOL     OW66044   3.369   3.118   3.118  0.3807  0.0098 -0.3061
20838SOL    HW166045   3.304   3.085   3.180  1.2336  0.6910  0.9913
20838SOL    HW266046   3.383   3.209   3.142  2.0250 -0.1894 -0.3369
20839SOL     OW66047   7.705   7.187   9.588 -0.1409  0.3587  1.2110
20839SOL    HW166048   7.756   7.146   9.657 -1.9005 -0.9003  1.8284
20839SOL    HW266049   7.617   7.196   9.625 -1.0792 -0.1576 -0.7499
20840SOL     OW66050   0.272   9.574   1.618 -0.0705 -0.1834  0.4108
20840SOL    HW166051   0.338   9.515   1.656  0.1462  0.1670  0.5925
20840SOL    HW266052   0.277   9.559   1.524 -0.3597 -0.8040  0.4903
20841SOL     OW66053   5.514   3.272   6.315  0.1899 -0.0120 -0.1229
20841SOL    HW166054   5.559   3.263   6.399  1.3069  0.1804 -0.6746
20841SOL    HW266055   5.585   3.277   6.250 -0.6506 -0.7246 -1.1412
20842SOL     OW66056   6.954   8.775   9.059  0.5423  0.4068  0.5800
20842SOL    HW166057   6.871   8.805   9.097 -0.1771  0.4744 -0.9537
20842SOL    HW266058   7.021   8.828   9.102 -0.0427 -0.5560  2.8235
20843SOL     OW66059   1.811   7.810   8.857 -0.1027 -0.3202  0.2512
20843SOL    HW166060   1.850   7.768   8.781 -1.1879 -1.6771  0.3990
20843SOL    HW266061   1.878   7.804   8.925  0.3211 -0.4641 -0.1792
20844SOL     OW66062   9.201   7.749   4.603 -0.1004 -0.0969  0.2241
20844SOL    HW166063   9.135   7.810   4.570  0.8367  2.4090  2.5808
20844SOL    HW266064   9.152   7.687   4.657 -0.7322  0.7478  0.6417
20845SOL     OW66065   4.618   3.560   3.533  0.3803  0.2253 -0.4057
20845SOL    HW166066   4.702   3.524   3.563 -0.1588 -2.4012 -1.7399
20845SOL    HW266067   4.631   3.574   3.439 -0.5483  0.1681 -0.5489
20846SOL     OW66068   4.278   3.128   7.902  0.4152 -0.2059  0.2165
20846SOL    HW166069   4.268   3.223   7.890 -0.1827 -0.1734  0.9234
20846SOL    HW266070   4.336   3.101   7.831 -0.6264  0.4449 -0.9163
20847SOL     OW66071   5.553   6.021   0.901  0.3794  0.5685  0.2948
20847SOL    HW166072   5.485   6.054   0.961 -0.4266 -0.8941  0.2370
20847SOL    HW266073   5.519   5.937   0.870  1.7816  0.2690 -0.5280
20848SOL     OW66074   6.627   3.527   9.992 -0.1843 -0.2918 -0.2779
20848SOL    HW166075   6.560   3.466  10.020 -0.7438 -0.0200 -1.0167
20848SOL    HW266076   6.640   3.510   9.899  1.5204 -1.0486  0.0480
20849SOL     OW66077   6.147   0.560  10.138  0.0212 -0.1911 -0.0001
20849SOL    HW166078   6.078   0.543  10.202 -1.1119 -1.2499 -1.4118
20849SOL    HW266079   6.225   0.521  10.176 -0.9861 -2.2915  0.0683
20850SOL     OW66080   2.616   5.270   5.308  0.0842 -0.9722 -0.0449
20850SOL    HW166081   2.703   5.308   5.323 -0.1185 -0.9155  1.1495
20850SOL    HW266082   2.633   5.188   5.263  0.6588 -0.3325 -1.0245
20851SOL     OW66083   5.314   1.396   6.747 -0.0667 -0.2669  0.0699
20851SOL    HW166084   5.385   1.335   6.730 -1.4665 -2.5200  1.6959
20851SOL    HW266085   5.355   1.471   6.789  1.7230  0.0610 -2.0779
20852SOL     OW66086  10.885  10.876   7.727  0.0031 -0.3413  0.3631
20852SOL    HW166087  10.876  10.908   7.817  0.5599 -0.6610  0.5365
20852SOL    HW266088  10.945  10.802   7.734 -1.6905 -1.7829  0.0310
20853SOL     OW66089   1.512   6.240   4.191  0.5574  0.3063 -0.2487
20853SOL    HW166090   1.441   6.294   4.226  0.8484  0.1974  0.5221
20853SOL    HW266091   1.476   6.151   4.192  0.2481  0.4084 -1.0784
20854SOL     OW66092  10.439   6.306   6.057  0.1179 -0.3807  0.0771
20854SOL    HW166093  10.419   6.385   6.107  1.4901  1.3547 -1.9749
20854SOL    HW266094  10.498   6.335   5.988  1.9552 -3.5050  0.1533
20855SOL     OW66095   9.462   0.660   0.963  0.4529  0.6480  0.0716
20855SOL    HW166096   9.429   0.708   1.039  0.7956  1.3039 -0.1865
20855SOL    HW266097   9.558   0.666   0.972  0.4932  0.6745 -0.3750
20856SOL     OW66098   7.161   7.644   3.158 -0.5189  0.3097  0.0648
20856SOL    HW166099   7.214   7.707   3.109  0.8938 -0.7985  0.1031
20856SOL    HW266100   7.075   7.646   3.116  0.8188 -1.1348 -3.0396
20857SOL     OW66101   6.883   0.970   8.054 -0.0992 -0.2965  0.3416
20857SOL    HW166102   6.922   1.008   7.975 -2.3692 -0.5043 -0.9711
20857SOL    HW266103   6.815   1.034   8.080 -2.5038 -2.2834 -0.6311
20858SOL     OW66104   8.234  10.871   4.997  0.1128 -0.0971  0.2606
20858SOL    HW166105   8.175  10.919   5.055  0.8967  0.6950  0.4181
20858SOL    HW266106   8.292  10.822   5.056  0.4740  0.1810  0.1400
20859SOL     OW66107   5.399   8.745   3.173 -0.0131  0.1860  0.1833
20859SOL    HW166108   5.429   8.727   3.083 -0.4947  2.0585 -0.3957
20859SOL    HW266109   5.477   8.775   3.219  0.0551  0.0478  0.1600
20860SOL     OW66110  10.166   6.189   1.974  0.4562 -0.2112 -0.0804
20860SOL    HW166111  10.082   6.213   2.013  0.5303 -1.0304  0.6062
20860SOL    HW266112  10.211   6.272   1.961 -1.2644  0.4703 -2.4259
20861SOL     OW66113   0.879   7.297  10.791 -0.1558 -0.3489  0.2873
20861SOL    HW166114   0.921   7.282  10.876 -0.8502  1.0520  0.9286
20861SOL    HW266115   0.804   7.354  10.812 -0.2635  0.1294 -1.2834
20862SOL     OW66116   7.763   8.506  10.613  0.0172 -0.5843 -0.0302
20862SOL    HW166117   7.799   8.501  10.701 -0.6162  1.4904  0.4052
20862SOL    HW266118   7.717   8.424  10.601 -1.0113 -0.3866  2.1180
20863SOL     OW66119   5.644   5.558   3.461 -0.1933  0.2144  0.4756
20863SOL    HW166120   5.579   5.488   3.468 -1.1715  0.9594 -0.6171
20863SOL    HW266121   5.681   5.566   3.548 -1.5011 -0.3232  1.1062
20864SOL     OW66122   1.018   5.312   0.501 -0.9093 -0.0109  0.3974
20864SOL    HW166123   1.034   5.363   0.422 -0.2137 -1.7526 -0.6440
20864SOL    HW266124   1.025   5.375   0.573  1.6016  1.0639 -0.6816
20865SOL     OW66125  10.558   2.478   1.320 -0.7153  0.2374 -0.0303
20865SOL    HW166126  10.616   2.546   1.353 -0.2390  0.2863 -0.9490
20865SOL    HW266127  10.610   2.398   1.322 -1.0487  0.0203  0.3750
20866SOL     OW66128   4.785   3.202   1.331 -0.0262  0.0814 -0.3022
20866SOL    HW166129   4.739   3.193   1.247  0.8704 -0.0376 -0.7942
20866SOL    HW266130   4.771   3.118   1.374 -1.1942  0.4317  0.0506
20867SOL     OW66131   2.353   6.449  10.576  0.0062 -0.1670  0.0006
20867SOL    HW166132   2.433   6.408  10.611  0.1330 -1.6346 -1.8656
20867SOL    HW266133   2.282   6.398  10.614 -0.0623  0.7541  1.1759
20868SOL     OW66134   5.577   2.253   7.926  0.7637 -0.0436  0.2395
20868SOL    HW166135   5.574   2.259   8.021 -0.2854 -0.2931  0.2357
20868SOL    HW266136   5.595   2.342   7.896 -1.1857  0.5254  0.6114
20869SOL     OW66137   7.841   1.919   6.435  0.5045 -0.1098  0.4723
20869SOL    HW166138   7.919   1.867   6.419  0.4044  0.1314 -1.0209
20869SOL    HW266139   7.855   1.959   6.520  3.5198  2.5059 -1.0339
20870SOL     OW66140   7.233  10.115  10.576  0.6900 -0.0913  0.2990
20870SOL    HW166141   7.248  10.207  10.597  0.2519 -0.1167  0.7334
20870SOL    HW266142   7.278  10.067  10.646  1.3809 -0.2238 -0.2208
20871SOL     OW66143   3.496   6.491   8.241  0.0537 -0.3129 -0.2935
20871SOL    HW166144   3.458   6.444   8.316  0.6455  0.3359  0.4339
20871SOL    HW266145   3.441   6.569   8.232  1.3551  0.8080  0.9834
20872SOL     OW66146   7.162   8.950   9.159 -0.1265  0.9505 -0.0819
20872SOL    HW166147   7.195   8.928   9.072 -0.6824 -1.6518  0.2827
20872SOL    HW266148   7.093   9.015   9.143 -0.7561 -0.0625 -1.6756
20873SOL     OW66149   7.660   5.229   0.747  0.4273  0.0568  0.4340
20873SOL    HW166150   7.575   5.264   0.773  0.7495 -0.9716  3.1859
20873SOL    HW266151   7.721   5.302   0.759 -0.0881  1.1693 -2.6692
20874SOL     OW66152   5.240   5.642   1.920 -0.2351 -0.1606  0.1397
20874SOL    HW166153   5.273   5.565   1.965 -0.3154 -0.3588 -0.1362
20874SOL    HW266154   5.148   5.648   1.945 -0.3948 -0.5274 -0.3427
20875SOL     OW66155   8.481   8.879   6.661  0.0265  0.0220 -0.3983
20875SOL    HW166156   8.533   8.883   6.741 -0.8036  3.0790  0.1031
20875SOL    HW266157   8.474   8.785   6.641  2.6356 -0.6608  1.4818
20876SOL     OW66158   1.508   9.716   1.088 -0.0296  0.3200 -0.0964
20876SOL    HW166159   1.592   9.683   1.056  0.3631  2.2084 -1.1260
20876SOL    HW266160   1.493   9.797   1.039 -2.0060  0.5242  0.7419
20877SOL     OW66161   6.066   5.296   8.632 -0.0864  0.1930  0.5347
20877SOL    HW166162   6.157   5.325   8.641 -0.5426  1.8455  0.1547
20877SOL    HW266163   6.058   5.272   8.540  0.5756 -2.3525  1.0511
20878SOL     OW66164   5.582   8.952   6.333  0.2790  0.0424  0.5887
20878SOL    HW166165   5.651   9.000   6.288  0.7615 -2.2183 -1.2804
20878SOL    HW266166   5.501   8.997   6.306  0.7470  0.2416 -0.5525
20879SOL     OW66167   3.852   8.613   5.496 -0.6012 -0.4074 -0.1773
20879SOL    HW166168   3.873   8.676   5.427  0.7169 -1.3168 -0.6489
20879SOL    HW266169   3.790   8.659   5.553  0.9128  1.6118 -0.0463
20880SOL     OW66170   4.655   7.312   5.770  0.6768 -0.2544  0.0177
20880SOL    HW166171   4.701   7.376   5.715 -0.1037 -0.0788 -0.4419
20880SOL    HW266172   4.702   7.314   5.853  1.1235  0.3672 -0.2407
20881SOL     OW66173   3.881  10.343   5.752 -0.0770  0.4364 -0.8464
20881SOL    HW166174   3.919  10.390   5.826  0.4276 -1.4057  0.1242
20881SOL    HW266175   3.793  10.318   5.781  0.6975 -1.7218 -0.1331
20882SOL     OW66176   4.396  10.330  10.303 -0.2523  0.2974 -0.0971
20882SOL    HW166177   4.444  10.397  10.254 -1.5090  0.1991 -1.5199
20882SOL    HW266178   4.413  10.249  10.255  1.8733 -0.6438  2.0311
20883SOL     OW66179   8.440   9.413   9.708 -0.2154  0.7086 -0.3082
20883SOL    HW166180   8.486   9.400   9.625 -0.2251  1.6030 -0.4623
20883SOL    HW266181   8.480   9.491   9.745 -1.4030  1.3212 -0.2947
20884SOL     OW66182   4.927   8.342   1.777 -0.3889  0.1492  0.3465
20884SOL    HW166183   4.932   8.292   1.859  1.8470  0.6595  0.5737
20884SOL    HW266184   4.998   8.405   1.782 -0.3752  0.4027 -1.8746
20885SOL     OW66185   3.520   8.675   2.791  0.1853 -0.4216  0.0866
20885SOL    HW166186   3.458   8.745   2.770 -0.8238 -1.0496  0.9062
20885SOL    HW266187   3.498   8.604   2.732  1.0924 -0.1466 -0.6180
20886SOL     OW66188   2.669   2.550   7.348 -0.0127  0.2838 -0.5676
20886SOL    HW166189   2.707   2.467   7.376 -3.1885 -1.2632 -0.3310
20886SOL    HW266190   2.641   2.593   7.429  1.4749  1.5889 -0.6975
20887SOL     OW66191   2.064   2.597   7.558 -0.4766  0.3339  0.3807
20887SOL    HW166192   2.041   2.687   7.534 -2.7431 -0.1240  0.6052
20887SOL    HW266193   1.984   2.546   7.541  0.0821 -1.2693  2.1362
20888SOL     OW66194   1.387   9.427   9.921 -0.1723  0.2234  0.0679
20888SOL    HW166195   1.386   9.508   9.871  2.3107 -0.2921 -0.9391
20888SOL    HW266196   1.476   9.393   9.912 -0.3758 -1.3138  2.5927
20889SOL     OW66197   5.970   1.338   8.327 -0.0073  0.3173  0.2974
20889SOL    HW166198   5.937   1.417   8.285 -1.6317 -0.3196  0.2823
20889SOL    HW266199   5.891   1.291   8.353  0.9438 -0.4733  1.8652
20890SOL     OW66200   0.329   4.547   6.157 -0.0525 -0.3373 -0.1501
20890SOL    HW166201   0.350   4.532   6.249 -0.8079  0.3705  0.1527
20890SOL    HW266202   0.410   4.582   6.119  0.3683 -0.9712  0.1552
20891SOL     OW66203   5.398   4.375   9.172 -0.0019 -0.0127  0.0267
20891SOL    HW166204   5.404   4.280   9.184 -0.0140  0.0085  0.2071
20891SOL    HW266205   5.489   4.404   9.173 -0.0325  0.4102  3.6027
20892SOL     OW66206   1.850   0.005   8.643  0.0682 -0.1229  0.1541
20892SOL    HW166207   1.896   0.065   8.583  0.9208 -2.1631 -1.3525
20892SOL    HW266208   1.760   0.004   8.610  0.0151  0.4431  0.2791
20893SOL     OW66209   7.022   2.758   3.960 -0.4987  0.6440  0.0791
20893SOL    HW166210   7.004   2.850   3.937 -1.4502  0.9852  1.9856
20893SOL    HW266211   7.065   2.763   4.045 -2.1242 -0.7188  1.0300
20894SOL     OW66212   7.028   2.127   4.259 -0.7028  0.3070 -0.1411
20894SOL    HW166213   7.118   2.114   4.229 -0.2107  0.3417  1.2477
20894SOL    HW266214   6.974   2.091   4.189  0.4288 -1.2555 -0.2599
20895SOL     OW66215   0.856   6.117   8.486  0.0555 -0.6356 -0.4535
20895SOL    HW166216   0.870   6.195   8.538 -1.6476 -0.7084  0.1715
20895SOL    HW266217   0.925   6.119   8.420  1.5564  0.0625  1.0769
20896SOL     OW66218   9.852   5.090   1.444 -0.5129  0.2613  0.0107
20896SOL    HW166219   9.915   5.022   1.465  0.1368  0.2475 -1.7742
20896SOL    HW266220   9.893   5.171   1.476 -0.5437  0.0057  0.6984
20897SOL     OW66221   2.149   5.592   8.501 -0.2540 -0.2543 -0.1378
20897SOL    HW166222   2.168   5.682   8.474  0.6046 -0.4129 -0.0844
20897SOL    HW266223   2.231   5.561   8.539 -0.0391 -1.6047 -1.6188
20898SOL     OW66224   7.809   7.985   7.467  0.8835 -0.2574 -0.3921
20898SOL    HW166225   7.779   7.944   7.385 -0.9016  2.6542 -1.3662
20898SOL    HW266226   7.892   8.027   7.444 -0.4625  2.0721 -1.3793
20899SOL     OW66227  10.812   8.441  11.014 -0.2128  0.1522  0.1962
20899SOL    HW166228  10.780   8.407  11.098 -1.1552 -0.4005 -0.3716
20899SOL    HW266229  10.733   8.470  10.969  0.1574 -0.5546 -0.9390
20900SOL     OW66230   5.562   4.652   1.176  0.3559  0.3137  0.5756
20900SOL    HW166231   5.490   4.623   1.231  0.1725 -0.0685  0.1389
20900SOL    HW266232   5.560   4.747   1.182 -0.3624  0.3189  0.3410
20901SOL     OW66233   1.865   2.464   4.731 -0.2040  0.6940  0.1406
20901SOL    HW166234   1.946   2.515   4.724 -1.2477  2.4954  0.7759
20901SOL    HW266235   1.851   2.454   4.825 -1.0369  0.9096  0.0442
20902SOL     OW66236   9.345   2.407   2.124  0.3186  0.7967 -0.0635
20902SOL    HW166237   9.416   2.394   2.187 -1.2716  0.5424  1.7443
20902SOL    HW266238   9.315   2.496   2.140 -1.3275  0.1047  0.8926
20903SOL     OW66239   6.495   0.624   3.800 -0.3795  0.7363  0.4044
20903SOL    HW166240   6.515   0.627   3.707 -0.7280  0.4482  0.3171
20903SOL    HW266241   6.415   0.676   3.810 -1.1026 -0.3088  0.3241
20904SOL     OW66242   1.048   5.696   9.722 -0.5866  0.0555 -0.7726
20904SOL    HW166243   0.992   5.749   9.779  0.5232  1.1235 -0.6231
20904SOL    HW266244   1.130   5.687   9.770  0.2707  0.7263 -2.0231
20905SOL     OW66245   5.989   6.265   4.915 -0.1265  0.3418  0.2461
20905SOL    HW166246   6.052   6.201   4.881 -0.0397 -0.0970  1.1933
20905SOL    HW266247   6.039   6.316   4.979 -0.2878  1.1370 -0.2498
20906SOL     OW66248   4.128   5.602   3.227  0.3049  0.0945 -0.4873
20906SOL    HW166249   4.043   5.562   3.212  1.5387 -2.8749 -0.2179
20906SOL    HW266250   4.190   5.529   3.224  2.7432  1.9871  0.3096
20907SOL     OW66251   3.579   6.814   4.185  0.4085 -0.2682 -0.3368
20907SOL    HW166252   3.586   6.722   4.209  1.9182 -0.5471 -1.6912
20907SOL    HW266253   3.664   6.851   4.209  0.3904  0.4012 -1.2533
20908SOL     OW66254   6.677  10.782  11.122 -0.0440  0.0752  0.0989
20908SOL    HW166255   6.600  10.817  11.167  0.5231  0.7057  0.6101
20908SOL    HW266256   6.741  10.853  11.128  0.6073 -0.4840 -0.2237
20909SOL     OW66257   8.293   3.896   2.319  0.3990  0.2134 -0.3150
20909SOL    HW166258   8.246   3.832   2.265 -0.4625  0.2305  0.3801
20909SOL    HW266259   8.280   3.865   2.409  0.2841  1.1603  0.0005
20910SOL     OW66260   2.252   0.714   9.600  0.5251 -0.3689 -0.2560
20910SOL    HW166261   2.325   0.672   9.645  1.1398  0.9414  0.0362
20910SOL    HW266262   2.274   0.706   9.507  0.5224 -0.8686 -0.2170
20911SOL     OW66263   1.755   0.585   1.468  0.4316  0.4581 -0.3689
20911SOL    HW166264   1.735   0.657   1.408  0.2050  0.0204 -0.8209
20911SOL    HW266265   1.705   0.605   1.547  0.3905  0.8105 -0.4841
20912SOL     OW66266   0.121   4.675   8.650 -0.6785  0.1564  0.4038
20912SOL    HW166267   0.201   4.623   8.655 -1.0252 -0.5354 -0.7716
20912SOL    HW266268   0.111   4.713   8.737  0.3470 -0.6173  0.8756
20913SOL     OW66269   0.090  10.941  10.257 -0.1430 -0.2760  0.1941
20913SOL    HW166270   0.095  10.956  10.352 -2.4871  3.3505 -0.0596
20913SOL    HW266271   0.072  11.027  10.220  0.5002 -1.5808 -3.6087
20914SOL     OW66272  10.010   3.979   1.362  0.3256  0.7354  0.3683
20914SOL    HW166273   9.935   4.020   1.406 -0.4438 -1.4365  1.2492
20914SOL    HW266274  10.078   3.975   1.429 -0.7019 -2.1871  1.4004
20915SOL     OW66275  10.295   1.127   0.282 -0.0248  0.1800 -0.5921
20915SOL    HW166276  10.330   1.166   0.202  0.1700  2.6326  0.6040
20915SOL    HW266277  10.271   1.201   0.337 -0.0081 -1.4027  1.7063
20916SOL     OW66278   2.935   3.546   4.443  0.1412  0.2427 -0.4761
20916SOL    HW166279   2.856   3.494   4.426  0.6975 -0.3320 -1.3669
20916SOL    HW266280   2.972   3.508   4.523  0.2154 -0.3564 -0.7854
20917SOL     OW66281   0.922   4.944   0.611  0.2311  0.2388 -0.5855
20917SOL    HW166282   0.843   4.908   0.570  0.9549 -2.2902  0.0774
20917SOL    HW266283   0.984   4.955   0.539 -0.3860  1.3995 -0.9721
20918SOL     OW66284   7.279   6.196   8.226  0.3200 -0.0922 -0.0553
20918SOL    HW166285   7.249   6.105   8.225  0.1641 -0.0430 -1.2991
20918SOL    HW266286   7.237   6.236   8.150  2.4969  0.3229 -1.1247
20919SOL     OW66287   1.389   9.868   6.103  0.2407 -0.1457  0.4576
20919SOL    HW166288   1.358   9.956   6.084  1.3106  0.0909 -0.2883
20919SOL    HW266289   1.309   9.815   6.106 -0.2514  0.3759 -1.6880
20920SOL     OW66290   6.130   8.842   6.086 -0.3060 -0.5185 -0.1215
20920SOL    HW166291   6.172   8.925   6.108 -0.1712 -0.4155 -0.7432
20920SOL    HW266292   6.179   8.776   6.135  1.1015 -0.4898 -1.4250
20921SOL     OW66293   0.483   0.260   9.011 -0.1114  0.1058  0.2584
20921SOL    HW166294   0.397   0.298   8.994  0.0059 -0.0845 -0.7963
20921SOL    HW266295   0.546   0.327   8.983  0.0896 -0.3714 -0.4438
20922SOL     OW66296   6.354   6.298   4.067  0.1161  0.0068  0.6286
20922SOL    HW166297   6.416   6.230   4.092 -0.8514 -0.9088  0.6486
20922SOL    HW266298   6.296   6.255   4.004  0.2130  1.1758 -0.2875
20923SOL     OW66299   9.535   6.908   7.056 -0.1164 -0.8456  0.4951
20923SOL    HW166300   9.532   6.915   6.961 -1.9343 -2.5827  0.3569
20923SOL    HW266301   9.601   6.840   7.073  0.7687  0.0084  0.5438
20924SOL     OW66302   5.033  10.065   4.256  0.5838  1.0242  0.2170
20924SOL    HW166303   4.943  10.044   4.277 -0.1577  1.9813 -1.7510
20924SOL    HW266304   5.057  10.004   4.186  0.9142  1.7811 -0.3467
20925SOL     OW66305   2.718   5.310   7.571 -0.9289 -0.1101 -0.4586
20925SOL    HW166306   2.774   5.270   7.638  1.0806  0.5037 -1.6905
20925SOL    HW266307   2.670   5.236   7.533 -1.2211 -0.6118  0.8271
20926SOL     OW66308   1.016   7.958   8.926  0.1406 -0.0497 -0.4702
20926SOL    HW166309   0.972   7.873   8.921 -1.2449  0.5760  0.2968
20926SOL    HW266310   0.982   7.997   9.007  0.7831  1.2074 -0.7847
20927SOL     OW66311   6.212   3.990   8.765 -0.0103 -0.2511  0.6926
20927SOL    HW166312   6.283   4.053   8.781  0.1661 -0.5159  0.9495
20927SOL    HW266313   6.160   4.031   8.695 -0.1194  0.3588  1.1196
20928SOL     OW66314   7.709   3.026   2.680 -0.3980 -0.0019  0.4992
20928SOL    HW166315   7.702   3.089   2.608 -0.5422 -0.0727  0.4500
20928SOL    HW266316   7.703   3.079   2.759 -1.3620 -0.0312  0.4638
20929SOL     OW66317   0.911   5.037  10.860 -0.9198 -0.1877 -0.1392
20929SOL    HW166318   0.924   5.088  10.781  0.9276 -0.7206 -0.2342
20929SOL    HW266319   0.942   4.949  10.837  0.0801 -0.2422  1.2750
20930SOL     OW66320   1.972   3.653   3.657  0.2136  0.2842 -0.4121
20930SOL    HW166321   2.044   3.641   3.595  1.3058  2.3672  0.3601
20930SOL    HW266322   1.915   3.717   3.615  0.5575  1.1227  0.3845
20931SOL     OW66323   7.826   4.936   5.278 -0.1830 -0.1466  0.3180
20931SOL    HW166324   7.901   4.892   5.238 -0.1632  0.2304 -0.0649
20931SOL    HW266325   7.865   4.997   5.342 -0.2147 -0.7461  0.9166
20932SOL     OW66326   8.571   3.551   5.353 -0.1735  0.3206 -0.3276
20932SOL    HW166327   8.624   3.472   5.362 -0.7395  0.0402  0.7032
20932SOL    HW266328   8.634   3.623   5.365  0.0706  0.0024  0.3722
20933SOL     OW66329   5.475   9.279   5.952  0.1740  0.0685  0.1404
20933SOL    HW166330   5.505   9.370   5.956  1.5825 -0.4001  2.4641
20933SOL    HW266331   5.555   9.227   5.958 -0.6855 -1.3092  0.0579
20934SOL     OW66332   2.255   8.579   5.902 -0.1314  0.2335 -0.5418
20934SOL    HW166333   2.184   8.643   5.896 -0.3883  0.0463  0.4458
20934SOL    HW266334   2.257   8.553   5.994 -0.8760 -2.1591 -1.1459
20935SOL     OW66335   9.837   6.707   0.845  0.0100  0.4910  0.4052
20935SOL    HW166336   9.930   6.684   0.850 -0.1140  0.0114  0.5581
20935SOL    HW266337   9.791   6.624   0.859 -0.4303  0.3271 -1.6719
20936SOL     OW66338   6.150   8.824   0.849 -0.2123 -0.1465 -1.0533
20936SOL    HW166339   6.069   8.840   0.897  0.2494 -0.3958 -0.1733
20936SOL    HW266340   6.219   8.857   0.906  0.2393  1.1117 -2.2897
20937SOL     OW66341   6.875   2.821   8.709  0.9415 -0.0339  0.3132
20937SOL    HW166342   6.878   2.848   8.618  1.0166  1.1382  0.6441
20937SOL    HW266343   6.836   2.734   8.708  1.7114 -0.3862 -0.9000
20938SOL     OW66344   3.746   0.457   1.285  0.0826  0.1536  0.6539
20938SOL    HW166345   3.737   0.539   1.332  0.9118  0.2846  0.6020
20938SOL    HW266346   3.668   0.407   1.308  0.1816  0.4547  1.6860
20939SOL     OW66347   3.925   1.983   4.227  0.4342 -0.1719  0.0410
20939SOL    HW166348   4.016   1.965   4.206  1.0558 -1.4950  3.3163
20939SOL    HW266349   3.911   2.074   4.199  3.4425  0.8297  1.3389
20940SOL     OW66350   0.345  11.105   9.161  0.0061  0.3498 -0.3640
20940SOL    HW166351   0.415  11.155   9.119 -1.0418  0.4355 -2.0780
20940SOL    HW266352   0.327  11.033   9.100 -1.7976  0.6750 -0.2669
20941SOL     OW66353   9.905   4.507   4.016  0.3440  0.1710 -0.3805
20941SOL    HW166354   9.898   4.420   4.056  0.4208  0.6118  0.6183
20941SOL    HW266355   9.842   4.505   3.944 -1.3984  0.0455  1.0708
20942SOL     OW66356   9.368   2.523   0.168 -0.1831 -0.0193 -0.6078
20942SOL    HW166357   9.351   2.452   0.229  1.3808  0.1890  0.1232
20942SOL    HW266358   9.284   2.568   0.159 -0.5642 -0.3694  0.9782
20943SOL     OW66359   1.099   2.725  10.840 -0.1769 -0.1916  0.1027
20943SOL    HW166360   1.048   2.772  10.773 -1.1549 -3.1666 -1.4462
20943SOL    HW266361   1.046   2.732  10.919 -1.2180 -0.2272 -0.5661
20944SOL     OW66362   5.853   7.472  10.651  0.6335  0.2840 -0.3886
20944SOL    HW166363   5.775   7.434  10.611 -0.9231  1.4879  1.3479
20944SOL    HW266364   5.914   7.399  10.659 -0.4087 -0.7567 -1.5235
20945SOL     OW66365   4.124   8.229   0.605  0.1280 -0.1994 -0.1788
20945SOL    HW166366   4.035   8.257   0.625  0.3992  0.6208 -0.0757
20945SOL    HW266367   4.136   8.147   0.653 -0.6229 -0.3940 -0.3234
20946SOL     OW66368   1.868   8.907   8.905  0.3414  0.1275  0.3198
20946SOL    HW166369   1.806   8.935   8.972  2.6171  1.3787  2.0469
20946SOL    HW266370   1.822   8.838   8.857 -2.7462  1.7200  0.7416
20947SOL     OW66371   4.031   0.615   7.469 -0.0232 -0.1268 -0.4352
20947SOL    HW166372   3.935   0.624   7.472 -0.0974 -0.9398 -0.1285
20947SOL    HW266373   4.052   0.616   7.375 -0.3599 -0.2219 -0.5126
20948SOL     OW66374   9.072   8.950   0.286 -0.3940  0.3206  0.2378
20948SOL    HW166375   9.153   8.926   0.330 -0.2781  0.9087  0.3405
20948SOL    HW266376   9.088   9.036   0.249 -1.1419  0.6826  0.7138
20949SOL     OW66377   0.173   8.303   5.447 -0.3242 -0.2829  0.2634
20949SOL    HW166378   0.085   8.294   5.484  0.2329  0.7370  1.9593
20949SOL    HW266379   0.227   8.243   5.498  0.4033  0.9341  0.9865
20950SOL     OW66380   6.322   8.219   3.006  0.3291 -0.3010 -0.2579
20950SOL    HW166381   6.275   8.136   3.016  0.1521 -0.4985 -2.4354
20950SOL    HW266382   6.270   8.282   3.056 -0.9861 -0.9785 -0.7242
20951SOL     OW66383   2.328   3.042   9.447  0.4114  0.2302 -0.4505
20951SOL    HW166384   2.290   3.077   9.528  0.9168 -1.0568  0.3806
20951SOL    HW266385   2.410   3.090   9.436 -0.3500  1.4687 -1.0592
20952SOL     OW66386   1.068   9.987   3.181 -0.5264  0.2304 -0.2547
20952SOL    HW166387   1.051  10.053   3.114 -0.4093  0.7778  0.2403
20952SOL    HW266388   1.121   9.921   3.138  0.8459  1.3321 -0.3061
20953SOL     OW66389   5.737   1.867   2.804 -0.4559 -0.3913  0.4402
20953SOL    HW166390   5.674   1.909   2.745  0.6063  2.2919  1.0599
20953SOL    HW266391   5.693   1.787   2.833 -1.9751 -0.5913 -2.0783
20954SOL     OW66392   9.975   4.976   1.856  0.1093 -0.3492 -0.2533
20954SOL    HW166393   9.911   4.959   1.786  0.3838 -0.4225 -0.4852
20954SOL    HW266394   9.928   4.953   1.937 -0.4817  0.5196 -0.3435
20955SOL     OW66395   4.805   0.825   5.388  0.2600 -0.3145 -0.1915
20955SOL    HW166396   4.820   0.809   5.295 -0.1069  1.8615 -0.6583
20955SOL    HW266397   4.891   0.848   5.423  0.1082  0.5318 -0.3629
20956SOL     OW66398   3.482   4.642   5.897 -0.2619 -0.0505 -0.0661
20956SOL    HW166399   3.444   4.561   5.931 -0.1747 -0.1247 -0.1423
20956SOL    HW266400   3.576   4.632   5.911 -0.3033  0.2949  0.4628
20957SOL     OW66401   0.325   9.478  10.973 -0.0607 -0.1830 -0.3776
20957SOL    HW166402   0.265   9.450  11.043 -0.4357 -2.1178 -1.3917
20957SOL    HW266403   0.407   9.432  10.993  0.3227  0.4826 -0.3845
20958SOL     OW66404   7.887   6.510   8.974 -0.3472  0.1753 -0.2067
20958SOL    HW166405   7.958   6.471   8.922 -0.7066 -0.2935 -0.3563
20958SOL    HW266406   7.810   6.457   8.952 -0.0859 -1.5523  2.4844
20959SOL     OW66407   9.791   0.409   8.189  0.2518 -0.6122  0.4435
20959SOL    HW166408   9.718   0.390   8.130  0.1576  0.8069  0.0861
20959SOL    HW266409   9.788   0.338   8.253  0.2055 -2.0610 -1.0925
20960SOL     OW66410   1.813   2.328   9.120 -0.1376 -0.8513 -0.2472
20960SOL    HW166411   1.768   2.396   9.170 -0.1768 -0.2502 -1.0805
20960SOL    HW266412   1.869   2.284   9.184 -0.9408 -0.7659  0.5301
20961SOL     OW66413   6.705   6.664  10.518 -0.4485 -0.2792  0.1074
20961SOL    HW166414   6.689   6.738  10.577  0.9267 -0.2346  0.4482
20961SOL    HW266415   6.685   6.587  10.571 -0.3821 -0.2052  0.2411
20962SOL     OW66416   2.103   5.448   6.904  0.0273 -0.3272 -0.9176
20962SOL    HW166417   2.064   5.385   6.844 -0.9168 -1.1718  0.5117
20962SOL    HW266418   2.169   5.398   6.952 -1.4500 -0.5845  0.9649
20963SOL     OW66419   8.578   3.812   6.567 -0.0548 -0.3125  0.4335
20963SOL    HW166420   8.612   3.863   6.493  0.2440  1.1108  1.5100
20963SOL    HW266421   8.499   3.859   6.593  0.6695  0.1305  1.9666
20964SOL     OW66422   3.350   0.351   5.744  0.2380 -0.1918 -0.3611
20964SOL    HW166423   3.427   0.299   5.768 -0.4709 -1.4767 -0.7948
20964SOL    HW266424   3.288   0.338   5.816  0.1171  0.1823 -0.3955
20965SOL     OW66425  10.176  10.278   1.733  0.1641 -0.5744 -0.2834
20965SOL    HW166426  10.202  10.216   1.801  0.9388  0.4850  0.4152
20965SOL    HW266427  10.249  10.340   1.727 -1.2394  1.2019  0.1635
20966SOL     OW66428   6.248   7.529  10.522  0.0606 -0.3884 -1.2330
20966SOL    HW166429   6.305   7.604  10.537  1.1904 -1.3839 -0.2757
20966SOL    HW266430   6.281   7.462  10.583 -2.9094 -0.6242  0.2938
20967SOL     OW66431   9.009   1.853   9.866  0.2905 -0.2201 -0.2136
20967SOL    HW166432   9.063   1.911   9.920 -0.5376 -0.6734  1.1556
20967SOL    HW266433   8.945   1.910   9.825  0.1173 -0.0185  0.3245
20968SOL     OW66434   5.712   0.762   2.738  0.0426 -0.4851  0.3006
20968SOL    HW166435   5.729   0.785   2.830  0.6085 -0.3903  0.1764
20968SOL    HW266436   5.782   0.700   2.716 -0.2442 -0.7074  0.0083
20969SOL     OW66437   9.061   0.777  11.033  0.1009  0.3281 -0.0858
20969SOL    HW166438   9.133   0.823  11.077 -0.1577  0.5005  0.1623
20969SOL    HW266439   9.059   0.813  10.945  1.4469 -0.9159 -0.6697
20970SOL     OW66440   2.195   6.529   4.186  0.6275  0.1707  0.7685
20970SOL    HW166441   2.181   6.622   4.169 -0.7178 -0.1460  0.0274
20970SOL    HW266442   2.108   6.496   4.210  1.0400 -0.9490  0.7633
20971SOL     OW66443   8.116   1.435   1.663  0.0095 -0.0461 -0.5822
20971SOL    HW166444   8.196   1.408   1.708 -0.3301  0.6483  0.4796
20971SOL    HW266445   8.056   1.460   1.733  0.0086  2.6196 -1.4151
20972SOL     OW66446   1.254   2.585  10.453  0.4740 -0.3548  0.2952
20972SOL    HW166447   1.327   2.594  10.392  0.5807 -3.1417 -0.1217
20972SOL    HW266448   1.176   2.602  10.400  0.6840  0.4474  0.2184
20973SOL     OW66449   3.853   3.019   5.004 -0.6541 -0.2135  0.4087
20973SOL    HW166450   3.783   2.958   5.026 -0.2388 -1.2667 -1.0077
20973SOL    HW266451   3.933   2.969   5.018 -0.3032 -0.0150 -0.7637
20974SOL     OW66452   1.429   7.935   0.604 -0.2422 -0.1737  0.1205
20974SOL    HW166453   1.484   8.012   0.585 -0.8736  0.2163 -0.1421
20974SOL    HW266454   1.457   7.869   0.540  1.0653 -0.5528  1.0462
20975SOL     OW66455   8.896   9.657   5.920 -0.7195 -0.4496 -0.0260
20975SOL    HW166456   8.876   9.600   5.994 -1.4520  0.9083  0.8645
20975SOL    HW266457   8.972   9.708   5.948  0.2805 -1.3246 -1.0321
20976SOL     OW66458   4.739   0.604   0.030 -0.0120 -0.0906  0.1878
20976SOL    HW166459   4.795   0.538  -0.010  1.9501  1.1584  0.7533
20976SOL    HW266460   4.654   0.561   0.040  1.2136 -2.5627  0.6401
20977SOL     OW66461  10.042  10.725   4.894 -0.2371 -0.2744 -0.0626
20977SOL    HW166462   9.975  10.724   4.962  0.2882 -0.4654  0.4679
20977SOL    HW266463  10.035  10.812   4.854  0.0832  0.2173  0.9014
20978SOL     OW66464   7.165   4.035   7.197 -0.0741 -0.4501  0.1755
20978SOL    HW166465   7.196   4.027   7.107 -0.5359  0.4208 -0.0809
20978SOL    HW266466   7.152   3.945   7.226  0.8309 -0.7653 -0.3566
20979SOL     OW66467   0.066   0.939   7.513 -0.9142  0.0531  0.1244
20979SOL    HW166468   0.079   1.033   7.522  0.0527 -0.2419  2.3520
20979SOL    HW266469   0.150   0.900   7.535 -1.0696 -1.3526 -1.4794
20980SOL     OW66470   2.077   0.382   9.779 -0.4011  0.4322 -0.2440
20980SOL    HW166471   1.986   0.368   9.805  0.0951 -0.1289  1.2994
20980SOL    HW266472   2.125   0.387   9.861  0.6454  3.4172 -0.9008
20981SOL     OW66473   2.496   1.819   8.842  0.2222  0.4182 -1.2395
20981SOL    HW166474   2.421   1.852   8.892  0.7144 -0.6727  0.3252
20981SOL    HW266475   2.457   1.771   8.769 -0.7718 -1.8844  0.6491
20982SOL     OW66476  10.136   3.524   3.133  0.4852 -0.0720 -0.4537
20982SOL    HW166477  10.216   3.521   3.081  1.1420 -0.4729  0.5402
20982SOL    HW266478  10.110   3.616   3.132  1.1136  0.1068 -0.5661
20983SOL     OW66479  10.384   0.355   5.369  0.7109  0.3113 -0.3175
20983SOL    HW166480  10.479   0.346   5.364  0.5881 -1.1238 -0.2636
20983SOL    HW266481  10.353   0.333   5.281  0.2942 -1.3053  0.2053
20984SOL     OW66482   7.769   6.160   0.889 -0.3966  0.1216  0.6589
20984SOL    HW166483   7.752   6.182   0.980  0.5906  0.0834  0.8692
20984SOL    HW266484   7.853   6.113   0.891  0.1423  0.9802 -0.3681
20985SOL     OW66485   4.540   8.060  10.242 -0.5758 -0.4128 -0.0265
20985SOL    HW166486   4.519   8.137  10.190 -0.8377 -0.0693  0.5887
20985SOL    HW266487   4.470   8.054  10.307 -0.8341 -1.4535 -0.3833
20986SOL     OW66488   5.712   2.892   2.757 -0.4935 -0.7300 -0.3097
20986SOL    HW166489   5.757   2.854   2.682 -1.9980 -0.3617 -1.4465
20986SOL    HW266490   5.779   2.944   2.802 -0.0050  0.7407 -2.5880
20987SOL     OW66491   8.172   1.091   5.730 -0.3018  1.0414  0.6118
20987SOL    HW166492   8.239   1.023   5.736 -1.1918  0.1008  0.1761
20987SOL    HW266493   8.196   1.141   5.653 -1.5607 -0.9776 -1.1981
20988SOL     OW66494   7.478   7.654   6.403  0.5967 -0.2134  0.0064
20988SOL    HW166495   7.396   7.630   6.445 -0.2048  0.4300 -1.1291
20988SOL    HW266496   7.540   7.667   6.475 -0.7882  1.1052  0.9937
20989SOL     OW66497   6.152   8.078   4.310 -0.4823  0.1637  0.2919
20989SOL    HW166498   6.194   8.161   4.330  0.0366  0.0829 -0.4219
20989SOL    HW266499   6.125   8.043   4.395 -0.2254  0.8051  0.6421
20990SOL     OW66500   3.119   6.527   6.239 -0.8370 -0.4220 -0.3189
20990SOL    HW166501   3.054   6.594   6.217 -1.1197 -0.4314  0.4646
20990SOL    HW266502   3.075   6.470   6.302 -0.4909 -1.1696 -0.7348
20991SOL     OW66503   4.172  10.158   8.470  0.2707 -0.0141 -0.0856
20991SOL    HW166504   4.104  10.177   8.535  1.5704  0.6843  1.1116
20991SOL    HW266505   4.219  10.083   8.505  2.3357  1.6614  0.9189
20992SOL     OW66506   9.493   3.267   5.917  0.0259  0.5789 -0.3095
20992SOL    HW166507   9.587   3.269   5.936  0.1127 -0.5116 -0.5620
20992SOL    HW266508   9.455   3.328   5.981  0.8517  0.7019  0.0857
20993SOL     OW66509   3.277   8.050   0.047 -0.0903 -0.0046  0.1542
20993SOL    HW166510   3.222   8.014   0.117 -1.4630  0.3984 -0.6834
20993SOL    HW266511   3.238   8.016  -0.034  1.3955 -0.3610 -0.4384
20994SOL     OW66512   6.639   7.996   5.045  0.0439  0.2433 -0.0127
20994SOL    HW166513   6.669   7.991   5.137 -0.8921 -0.1042  0.2813
20994SOL    HW266514   6.624   8.089   5.030 -1.2937  0.1672  0.6932
20995SOL     OW66515   5.281   7.671   5.720 -0.0974  0.2786  0.7267
20995SOL    HW166516   5.339   7.617   5.665 -0.2296  0.2365  0.6288
20995SOL    HW266517   5.231   7.608   5.771 -1.3901  0.2454 -0.5279
20996SOL     OW66518  10.725   6.370   3.790 -0.3077 -0.2403  0.2035
20996SOL    HW166519  10.750   6.462   3.784  0.3999 -0.4354  0.0344
20996SOL    HW266520  10.804   6.322   3.764 -1.3058 -0.8677 -1.9067
20997SOL     OW66521   7.088   3.714   6.347  0.0232 -0.3260 -0.1666
20997SOL    HW166522   7.055   3.734   6.259  0.6834 -0.5129 -0.4701
20997SOL    HW266523   7.012   3.682   6.395 -0.1927 -0.9557 -0.9088
20998SOL     OW66524   9.121   5.567   6.985  0.7297  0.0047  0.0097
20998SOL    HW166525   9.025   5.572   6.981  0.7489  0.3636  0.0372
20998SOL    HW266526   9.139   5.539   7.075  0.5984 -1.4108 -0.3693
20999SOL     OW66527   3.034   8.017   9.958  0.4534  0.3168  0.1728
20999SOL    HW166528   3.020   8.112   9.965  1.1420  0.4155  0.2106
20999SOL    HW266529   3.106   7.999  10.018  0.7823 -0.1260 -0.3517
21000SOL     OW66530   9.716   3.071   7.757 -0.1809  0.1297  0.0231
21000SOL    HW166531   9.810   3.079   7.741  0.0640 -0.7335  0.9155
21000SOL    HW266532   9.710   3.041   7.847 -1.2822 -0.7207 -0.3135
21001SOL     OW66533   0.147   0.412   6.185 -0.3309  0.0222  0.0766
21001SOL    HW166534   0.223   0.436   6.133 -0.5023  1.9733  0.6704
21001SOL    HW266535   0.173   0.429   6.276 -1.2245  0.0115  0.3531
21002SOL     OW66536   7.381  11.027   8.885 -0.3105 -0.3639 -0.7572
21002SOL    HW166537   7.385  10.947   8.832  1.3053 -0.5306 -0.4141
21002SOL    HW266538   7.354  10.997   8.972  0.4762 -0.5829 -0.5794
21003SOL     OW66539   4.486   9.446   6.988 -0.1605  0.6463 -0.0896
21003SOL    HW166540   4.540   9.383   7.034  1.0398  2.6232  1.3487
21003SOL    HW266541   4.415   9.465   7.048 -0.8677  0.2463 -0.7756
21004SOL     OW66542  10.459   3.437   7.831 -0.0485 -0.0707  0.2315
21004SOL    HW166543  10.515   3.367   7.862  0.1302  0.4588  1.1436
21004SOL    HW266544  10.514   3.488   7.771 -0.7157 -1.7179 -1.9078
21005SOL     OW66545   2.597   4.481   2.793  0.2110 -0.4261 -0.6765
21005SOL    HW166546   2.585   4.397   2.749 -0.0858 -1.0518  0.5614
21005SOL    HW266547   2.626   4.459   2.881  2.7993  0.8605 -1.1231
21006SOL     OW66548   7.420   7.103   4.712 -0.3684 -0.0432 -0.5216
21006SOL    HW166549   7.501   7.059   4.738  0.9654  1.0515 -2.5298
21006SOL    HW266550   7.388   7.145   4.791  0.1706 -1.7602  0.6523
21007SOL     OW66551   4.403   5.771   7.165  0.6884  0.4984 -0.0166
21007SOL    HW166552   4.371   5.701   7.222  1.3864  0.4462  0.3230
21007SOL    HW266553   4.373   5.747   7.078  1.4964 -0.5870 -0.0135
21008SOL     OW66554   9.311   0.127   3.755 -0.1121 -0.6511  0.3716
21008SOL    HW166555   9.374   0.182   3.708 -1.3833  0.0892 -0.5444
21008SOL    HW266556   9.286   0.179   3.831 -0.5146 -0.3895  0.0714
21009SOL     OW66557   5.267   7.618   6.087  0.5718 -0.1773 -0.4632
21009SOL    HW166558   5.325   7.669   6.144  3.3080 -1.7652 -1.6292
21009SOL    HW266559   5.245   7.540   6.138 -2.5465  1.3671  0.8205
21010SOL     OW66560   6.976   6.097   7.640  0.1335 -0.3750  0.6160
21010SOL    HW166561   6.919   6.020   7.642  0.5134 -0.6484  3.1054
21010SOL    HW266562   7.062   6.062   7.617 -0.0374 -0.4131  0.0049
21011SOL     OW66563   8.005   3.128   2.976 -0.0098 -0.2651 -0.2837
21011SOL    HW166564   7.987   3.174   2.894  1.6754  2.1154  0.5662
21011SOL    HW266565   8.100   3.117   2.976 -0.0560 -0.7717  1.0660
21012SOL     OW66566   5.811   5.425   2.242 -0.1073  0.1543  0.5753
21012SOL    HW166567   5.893   5.379   2.226 -0.1619 -0.1010  1.0390
21012SOL    HW266568   5.800   5.480   2.164 -0.0994 -0.6854 -0.0344
21013SOL     OW66569  10.480   5.470   0.538 -0.0221 -0.1009 -1.1938
21013SOL    HW166570  10.387   5.459   0.558 -0.1516 -1.0471 -2.1801
21013SOL    HW266571  10.507   5.384   0.504  1.2552  0.1133 -0.7750
21014SOL     OW66572   4.848   5.264   9.297  0.3359  0.9350 -0.2258
21014SOL    HW166573   4.789   5.193   9.272 -0.9634  1.9138 -0.0861
21014SOL    HW266574   4.821   5.337   9.242  2.1660  1.1208 -0.9209
21015SOL     OW66575   6.521   2.872   6.137 -0.2723 -0.1594  0.2124
21015SOL    HW166576   6.455   2.834   6.080  0.2671 -3.8648  1.7372
21015SOL    HW266577   6.481   2.952   6.171 -2.6846 -0.6648 -1.2470
21016SOL     OW66578   7.744  11.025   7.845  0.5621  0.4588  0.1845
21016SOL    HW166579   7.689  10.947   7.844 -0.7730  1.3715 -0.7479
21016SOL    HW266580   7.833  10.992   7.836  0.1034 -0.9980  0.7482
21017SOL     OW66581   7.930   7.123   8.419  0.3394  0.0612 -0.1237
21017SOL    HW166582   7.843   7.119   8.458  0.6125 -2.6615  0.4172
21017SOL    HW266583   7.988   7.144   8.492  0.2253  1.4537 -0.4043
21018SOL     OW66584   1.566   4.837   9.024 -0.2028  0.1815 -0.0686
21018SOL    HW166585   1.595   4.928   9.018  0.0573  0.3786  2.6617
21018SOL    HW266586   1.522   4.832   9.109 -1.6516 -1.8803 -0.8540
21019SOL     OW66587   7.956   6.788   0.181  0.6525 -0.0440 -0.3348
21019SOL    HW166588   7.976   6.805   0.273  1.7414 -3.7748  0.2978
21019SOL    HW266589   7.901   6.710   0.183  0.1588  0.1584 -2.8647
21020SOL     OW66590   5.423  10.965   0.705 -0.3194  0.4258 -0.2381
21020SOL    HW166591   5.341  10.960   0.655 -0.1938  0.7727 -0.4857
21020SOL    HW266592   5.408  11.035   0.768 -1.3732 -1.5941  1.9081
21021SOL     OW66593   9.226   2.043   0.435 -0.0831  0.5263  0.7355
21021SOL    HW166594   9.275   2.125   0.427  2.9945 -0.9120  2.7980
21021SOL    HW266595   9.257   1.989   0.362  0.8250 -0.1081  1.5777
21022SOL     OW66596   8.819   0.522   5.770  0.4764 -0.7827 -0.0527
21022SOL    HW166597   8.879   0.448   5.775 -1.1977 -2.1886  0.0685
21022SOL    HW266598   8.824   0.551   5.679  2.8967  0.5634  0.4050
21023SOL     OW66599   3.217   3.864   4.184 -0.5550  0.2713  0.2177
21023SOL    HW166600   3.250   3.775   4.174 -0.6471  0.4095 -1.7431
21023SOL    HW266601   3.170   3.863   4.268  0.0014 -1.3316  0.5451
21024SOL     OW66602   6.021   1.241   9.959 -0.2211  0.2965  0.5589
21024SOL    HW166603   6.036   1.179  10.030 -0.9776  0.5581  0.9544
21024SOL    HW266604   5.968   1.193   9.896  0.7342 -0.0467 -0.0021
21025SOL     OW66605   8.095   6.140   4.864 -0.6087 -0.0981 -0.3074
21025SOL    HW166606   8.132   6.205   4.924  0.8064  0.1328 -1.3799
21025SOL    HW266607   8.051   6.077   4.922 -0.1910  0.6804  0.9014
21026SOL     OW66608   0.319   5.443   6.578  0.3049 -0.2726  0.1755
21026SOL    HW166609   0.365   5.391   6.512 -1.4464 -0.3254 -1.0497
21026SOL    HW266610   0.253   5.383   6.614 -0.4765  0.5295  0.1010
21027SOL     OW66611  10.607   5.028   1.069 -0.9146 -0.0797 -0.1795
21027SOL    HW166612  10.607   5.008   1.163  0.4205 -0.6815 -0.2921
21027SOL    HW266613  10.669   5.100   1.060 -0.8847 -0.1632 -0.6329
21028SOL     OW66614   7.488   9.265   3.510  0.3284  0.5199  0.8215
21028SOL    HW166615   7.562   9.303   3.463  0.0151  0.7674  0.5197
21028SOL    HW266616   7.512   9.173   3.523 -0.8826 -0.4622 -2.6653
21029SOL     OW66617   5.540  10.621   9.436  0.0891 -0.0704 -0.3664
21029SOL    HW166618   5.562  10.675   9.511 -1.5750  1.3082 -0.8065
21029SOL    HW266619   5.474  10.559   9.468 -0.5970  0.4960 -0.6498
21030SOL     OW66620   7.457   4.699   5.959  0.4066  0.3398  0.5723
21030SOL    HW166621   7.467   4.788   5.993  0.3587  0.0051  1.4731
21030SOL    HW266622   7.468   4.642   6.035  1.4543 -0.4860 -0.1645
21031SOL     OW66623   8.076   9.280   2.766 -0.2265  0.3091 -0.1729
21031SOL    HW166624   8.044   9.199   2.806  0.0080  0.5205  0.4436
21031SOL    HW266625   8.052   9.272   2.673 -2.8116  0.8213  0.3828
21032SOL     OW66626   2.388   0.745   5.200  0.1484  0.0351  0.0960
21032SOL    HW166627   2.443   0.693   5.141 -0.0759 -1.6736  1.3174
21032SOL    HW266628   2.306   0.697   5.205  0.6392 -0.6351  2.8401
21033SOL     OW66629   7.456   1.511   2.743 -0.4895 -0.1277  0.0140
21033SOL    HW166630   7.377   1.537   2.790 -0.6115  1.5079 -1.0190
21033SOL    HW266631   7.504   1.592   2.729  1.3790 -1.0810  0.5688
21034SOL     OW66632   4.888   3.820   5.280 -0.4657  0.1843 -0.2609
21034SOL    HW166633   4.866   3.750   5.341  0.0746  1.8635  1.9743
21034SOL    HW266634   4.848   3.899   5.318  0.6323  1.4475 -1.5995
21035SOL     OW66635   8.766   3.179   1.298  0.3446  0.0811  0.0203
21035SOL    HW166636   8.773   3.274   1.287  0.4114 -0.0232 -0.9732
21035SOL    HW266637   8.713   3.167   1.376 -1.3238  0.9596 -0.9336
21036SOL     OW66638   4.546   6.153   5.260  0.0847  0.0450 -0.1910
21036SOL    HW166639   4.453   6.172   5.255 -0.1590 -1.2789 -1.4398
21036SOL    HW266640   4.560   6.085   5.194  1.8985  0.0809  0.1091
21037SOL     OW66641   9.691  10.843   5.528 -0.2083  0.1924  0.0549
21037SOL    HW166642   9.660  10.914   5.584 -0.1588  0.8198 -0.6914
21037SOL    HW266643   9.718  10.774   5.589 -1.2988  0.3678  0.7633
21038SOL     OW66644   9.412   2.680   1.517  0.1112 -0.5603 -0.6916
21038SOL    HW166645   9.407   2.728   1.600 -0.0220 -2.1771  0.2794
21038SOL    HW266646   9.495   2.709   1.478  0.2087  0.1656  0.0221
21039SOL     OW66647   5.148  10.173   0.808  0.4634 -0.2241 -0.1820
21039SOL    HW166648   5.139  10.242   0.874 -0.3146 -1.0639  0.5955
21039SOL    HW266649   5.195  10.103   0.852 -0.1660 -0.8408 -0.4871
21040SOL     OW66650  10.027   9.876   0.019 -0.4566 -0.2473  0.0745
21040SOL    HW166651  10.071   9.805  -0.028 -0.2316  0.4773 -0.8335
21040SOL    HW266652  10.097   9.923   0.065 -0.6512 -0.8317  1.0104
21041SOL     OW66653   0.449   3.227   3.293  0.0838 -0.3845 -0.9876
21041SOL    HW166654   0.429   3.253   3.383 -0.7567 -0.3415 -1.1766
21041SOL    HW266655   0.545   3.230   3.288  0.1786 -0.9303  0.0686
21042SOL     OW66656   3.734   9.940   2.533 -0.1909 -0.5323 -0.6550
21042SOL    HW166657   3.668   9.886   2.576 -1.0101  0.4250 -0.6671
21042SOL    HW266658   3.689   9.978   2.458 -0.2745  1.6934  0.4145
21043SOL     OW66659   8.632   6.445  10.354  0.0817  0.8316  0.3167
21043SOL    HW166660   8.615   6.535  10.383  0.6832  0.8684  0.5731
21043SOL    HW266661   8.559   6.394  10.389 -0.0053  1.1354  0.5810
21044SOL     OW66662   1.045   7.265  11.018  0.1202  0.0336  0.7661
21044SOL    HW166663   1.039   7.180  11.061  2.0337 -0.8662 -0.5910
21044SOL    HW266664   1.138   7.276  10.999 -0.3138  1.5842 -0.7452
21045SOL     OW66665  10.575   5.419   6.006  0.0519 -0.4886 -0.3790
21045SOL    HW166666  10.667   5.404   6.028 -0.4245 -2.0279  0.7292
21045SOL    HW266667  10.570   5.400   5.912  0.5885 -2.0183 -0.1316
21046SOL     OW66668  10.475   0.235   1.660  0.3422 -0.0886 -0.1665
21046SOL    HW166669  10.420   0.284   1.722 -0.0130  0.3203 -0.8019
21046SOL    HW266670  10.416   0.212   1.588  1.2546  1.3437 -1.4161
21047SOL     OW66671   8.610   3.103   7.280  0.3790 -0.1342  0.0697
21047SOL    HW166672   8.697   3.140   7.262 -0.5267  1.9886 -0.2698
21047SOL    HW266673   8.598   3.115   7.374 -0.5600  2.1407 -0.2651
21048SOL     OW66674   0.718   2.953   3.915 -0.2281  0.3129  0.3182
21048SOL    HW166675   0.754   2.962   4.003 -0.9604 -0.0848  0.6594
21048SOL    HW266676   0.741   2.864   3.888  1.4688  0.9658 -0.5766
21049SOL     OW66677   8.029   0.106   5.855  0.3015  0.0334 -0.6783
21049SOL    HW166678   7.951   0.082   5.905 -0.2371 -0.2374 -1.6282
21049SOL    HW266679   8.102   0.066   5.904 -0.3462 -1.4941 -0.8908
21050SOL     OW66680   0.243   8.659   3.783  0.3376 -0.1171 -0.0545
21050SOL    HW166681   0.212   8.734   3.731 -0.8697 -1.6243 -1.6002
21050SOL    HW266682   0.326   8.634   3.742  1.2098  0.8676  1.0243
21051SOL     OW66683   7.605   9.768   2.390 -0.7173  0.4139 -0.4768
21051SOL    HW166684   7.655   9.745   2.312 -0.4480 -1.2270  0.1397
21051SOL    HW266685   7.658   9.835   2.433 -0.2885  0.4859 -1.1049
21052SOL     OW66686   2.378   5.227   8.220  0.0297  0.1003 -0.2729
21052SOL    HW166687   2.388   5.203   8.312  0.0558 -0.5083 -0.4324
21052SOL    HW266688   2.467   5.248   8.191 -0.1277  1.4747  0.1494
21053SOL     OW66689   8.679   4.345  11.092 -0.5068 -0.2060 -0.0388
21053SOL    HW166690   8.647   4.301  11.013 -0.4623 -1.6951  0.7400
21053SOL    HW266691   8.739   4.282  11.132  1.2120  1.3985  0.0439
21054SOL     OW66692  10.364   9.144   2.701 -0.5256 -0.8521  0.3049
21054SOL    HW166693  10.457   9.118   2.700 -0.1647  0.3165  1.3219
21054SOL    HW266694  10.317   9.062   2.688  0.6571 -1.3365 -1.2613
21055SOL     OW66695   7.129   3.556   2.841  0.0771 -0.1897 -0.4534
21055SOL    HW166696   7.035   3.561   2.859  0.6526  0.8640  3.0821
21055SOL    HW266697   7.154   3.468   2.866  0.4301  0.4512  1.6798
21056SOL     OW66698   8.058   3.949   3.968 -0.1868  0.4419  0.1115
21056SOL    HW166699   8.119   3.988   4.030 -0.6128  1.6716 -0.2190
21056SOL    HW266700   8.107   3.943   3.886 -1.0812  3.4906 -0.7784
21057SOL     OW66701   3.927   7.766   8.401  0.0826  0.0355  0.1121
21057SOL    HW166702   3.953   7.685   8.445 -0.6331 -0.5813 -0.5722
21057SOL    HW266703   3.873   7.737   8.328 -0.9210  1.1813  0.3814
21058SOL     OW66704   8.189   8.839   5.110 -0.8350  0.4548 -0.0300
21058SOL    HW166705   8.114   8.789   5.077  0.5437 -1.1740 -0.8328
21058SOL    HW266706   8.232   8.780   5.173  0.4830  0.8420 -0.5345
21059SOL     OW66707   1.154   1.373   2.852 -0.0151  0.6285  0.6107
21059SOL    HW166708   1.170   1.284   2.821  0.0161  0.7434  0.2925
21059SOL    HW266709   1.104   1.414   2.782 -1.6972  0.2842  1.5723
21060SOL     OW66710   6.870   9.264   4.173 -0.0229  0.2226 -0.2548
21060SOL    HW166711   6.957   9.229   4.192 -0.5572 -0.6816  0.6087
21060SOL    HW266712   6.836   9.208   4.103  0.1926  0.7809 -0.8265
21061SOL     OW66713   9.042   4.123   4.878  0.1268  0.1009  0.2179
21061SOL    HW166714   9.124   4.148   4.837  0.4373 -1.0496  0.1098
21061SOL    HW266715   8.997   4.206   4.896  0.8036  0.6834 -0.7554
21062SOL     OW66716   3.857  10.106   3.493  0.3658 -0.4241 -1.2264
21062SOL    HW166717   3.860  10.191   3.448 -0.0339 -0.3668 -1.1468
21062SOL    HW266718   3.844  10.043   3.422 -0.7078 -0.2951 -1.1650
21063SOL     OW66719   5.308   6.435   1.151  0.0330  0.1055  0.4803
21063SOL    HW166720   5.230   6.481   1.182 -2.1447 -1.6328 -1.9042
21063SOL    HW266721   5.379   6.499   1.159 -2.5296  3.5930 -1.5557
21064SOL     OW66722   5.594   8.285   8.694  0.0861  0.2529 -0.0559
21064SOL    HW166723   5.644   8.364   8.673  0.3254  0.6606  1.8736
21064SOL    HW266724   5.660   8.222   8.725 -0.2879 -0.1113  0.0165
21065SOL     OW66725   0.607   1.646   6.081 -0.0436 -0.4733  0.4985
21065SOL    HW166726   0.682   1.687   6.124 -0.0209 -2.4098  2.4897
21065SOL    HW266727   0.646   1.596   6.009  0.5579 -1.0250  1.1808
21066SOL     OW66728   8.420   0.751   4.607 -0.2884 -0.0400  0.2590
21066SOL    HW166729   8.370   0.823   4.568  1.2644  0.8350 -0.1882
21066SOL    HW266730   8.469   0.792   4.678  0.5637 -0.6737  0.0517
21067SOL     OW66731   7.432   8.366   2.257  0.1381  0.1492  0.2841
21067SOL    HW166732   7.354   8.319   2.287  1.6726 -2.8172 -0.0195
21067SOL    HW266733   7.463   8.317   2.181  1.7221  1.8888 -0.2819
21068SOL     OW66734   4.549   4.463   1.512 -0.2879  0.4793 -0.5922
21068SOL    HW166735   4.536   4.417   1.595 -0.8608 -0.9893 -1.4584
21068SOL    HW266736   4.644   4.466   1.500 -0.1828  1.1654  0.3584
21069SOL     OW66737   4.050   3.579  10.719 -0.2397  0.0815 -0.1375
21069SOL    HW166738   4.048   3.594  10.813 -1.6897  0.5794 -0.2158
21069SOL    HW266739   4.129   3.527  10.704  0.0131  0.0083  1.3392
21070SOL     OW66740   7.647   5.625   0.289 -0.3670  0.1178  0.1223
21070SOL    HW166741   7.653   5.534   0.321  1.1037 -0.0402 -0.5052
21070SOL    HW266742   7.612   5.674   0.363 -1.8849 -1.0760  0.2361
21071SOL     OW66743   6.541   8.907   7.914 -0.0722 -0.4418  0.1255
21071SOL    HW166744   6.446   8.918   7.914 -0.1233 -0.5269 -1.6436
21071SOL    HW266745   6.575   8.994   7.934 -0.5230 -0.2116 -0.0856
21072SOL     OW66746   1.637   6.851   7.152  0.3582 -0.5153  0.2445
21072SOL    HW166747   1.666   6.937   7.123 -1.9441 -0.1996 -1.4441
21072SOL    HW266748   1.685   6.789   7.097  0.1659 -0.1791 -0.3043
21073SOL     OW66749   7.790   1.503   5.316  0.0359 -0.5099  0.3046
21073SOL    HW166750   7.757   1.415   5.333  1.3876 -0.7919  1.7361
21073SOL    HW266751   7.716   1.549   5.275 -0.7391 -2.2431 -0.3378
21074SOL     OW66752   7.349   5.958   0.547  0.5074  0.1609 -0.0710
21074SOL    HW166753   7.288   6.007   0.492  1.0551  0.3581 -0.4999
21074SOL    HW266754   7.428   6.011   0.550  0.7703 -0.2399  0.2350
21075SOL     OW66755   7.931  10.161   7.882 -0.2109 -0.1561  0.2007
21075SOL    HW166756   8.008  10.152   7.939  0.1393  0.9314 -0.0862
21075SOL    HW266757   7.905  10.070   7.864  1.5441 -0.5794 -0.4212
21076SOL     OW66758  10.123   3.379   4.368 -0.3362 -0.2659 -0.2299
21076SOL    HW166759  10.036   3.345   4.350 -0.3256 -0.1040 -0.5901
21076SOL    HW266760  10.151   3.418   4.286  0.5348 -1.3232 -0.4594
21077SOL     OW66761   3.712   3.428   1.126  0.5632  0.3286  0.3097
21077SOL    HW166762   3.781   3.378   1.082 -1.2680 -0.7777 -1.5283
21077SOL    HW266763   3.631   3.399   1.083 -1.1204  1.1885  2.6788
21078SOL     OW66764   2.642   8.074   8.485  0.7150 -0.0703 -0.1720
21078SOL    HW166765   2.695   8.073   8.404 -0.1545  0.2397 -0.7591
21078SOL    HW266766   2.555   8.102   8.456  0.2383 -0.5220  0.7947
21079SOL     OW66767   6.837   1.864   6.896  0.1413 -0.3107 -0.1757
21079SOL    HW166768   6.805   1.932   6.955 -0.5050  1.4303 -2.3970
21079SOL    HW266769   6.854   1.789   6.953 -0.4986  1.2235  2.1746
21080SOL     OW66770   8.070   9.840   5.206 -0.3598  0.1282  0.2929
21080SOL    HW166771   8.005   9.909   5.190  0.9331  0.6329 -4.0174
21080SOL    HW266772   8.076   9.793   5.123  0.4828 -3.8602  2.3706
21081SOL     OW66773   8.740   8.321   8.157  0.2292 -0.1059 -0.0652
21081SOL    HW166774   8.740   8.384   8.086  0.9311  0.3144  0.3025
21081SOL    HW266775   8.699   8.243   8.120 -1.1479  0.7303 -0.3620
21082SOL     OW66776   0.619   9.463   1.459 -0.6064 -0.6040  0.0998
21082SOL    HW166777   0.557   9.418   1.516  0.6998 -2.1137  0.3963
21082SOL    HW266778   0.662   9.393   1.410  1.1788  0.3332  0.2274
21083SOL     OW66779   5.048  10.359   6.854 -0.2902 -0.2716 -0.2058
21083SOL    HW166780   5.063  10.348   6.948 -0.3891  0.2369 -0.1257
21083SOL    HW266781   4.978  10.297   6.833  0.4019 -1.0792 -0.1440
21084SOL     OW66782   0.785   9.550   0.565 -0.4392  0.1087 -0.1071
21084SOL    HW166783   0.845   9.539   0.639 -0.5172 -3.0989 -0.3853
21084SOL    HW266784   0.808   9.636   0.528  1.1164  0.8099  2.2356
21085SOL     OW66785   2.765   7.502   3.976  0.2836 -0.3770 -0.2547
21085SOL    HW166786   2.671   7.506   3.997  0.4944  1.9052  0.4997
21085SOL    HW266787   2.767   7.484   3.882 -0.9796  0.8869 -0.5632
21086SOL     OW66788   9.235   1.885   9.530 -0.2208  0.1872  0.1459
21086SOL    HW166789   9.202   1.809   9.577  1.4204  0.5303  1.9753
21086SOL    HW266790   9.248   1.854   9.440 -0.0553 -1.5613  0.7401
21087SOL     OW66791   7.407   1.909   8.797 -0.4388  0.0428  0.3250
21087SOL    HW166792   7.458   1.845   8.748 -0.7944  0.7613 -1.0430
21087SOL    HW266793   7.439   1.902   8.887  0.1445 -1.4103  0.0267
21088SOL     OW66794   0.272   3.377   2.563  0.0707 -0.1411 -0.1849
21088SOL    HW166795   0.308   3.384   2.475 -1.5671  0.7356 -0.8326
21088SOL    HW266796   0.190   3.327   2.552 -1.5627  2.2611  0.3292
21089SOL     OW66797   0.529   5.526   8.077  0.0708  0.6239  0.3503
21089SOL    HW166798   0.500   5.617   8.084  2.4351  1.5054 -0.4739
21089SOL    HW266799   0.608   5.522   8.131 -0.0969 -1.0251  0.5306
21090SOL     OW66800   2.980   6.699  10.732 -0.0786 -0.4175  0.1631
21090SOL    HW166801   2.910   6.715  10.794 -1.0633  0.4787 -1.1235
21090SOL    HW266802   2.959   6.614  10.694 -0.9221  0.1886 -0.7650
21091SOL     OW66803   8.450   5.289   3.127 -0.7722  0.1756  0.3214
21091SOL    HW166804   8.497   5.221   3.079  2.0863  0.1651  2.8540
21091SOL    HW266805   8.425   5.248   3.209 -2.5608  1.1129  0.2863
21092SOL     OW66806   3.582   5.140   5.485 -0.0619  0.1426  0.2826
21092SOL    HW166807   3.644   5.211   5.500 -0.1954  0.7089 -1.4982
21092SOL    HW266808   3.592   5.083   5.560  0.3163  1.8555  1.6084
21093SOL     OW66809   6.687   8.060   3.776 -0.3285 -0.1118 -0.0315
21093SOL    HW166810   6.680   8.070   3.871 -0.0337 -0.4117  0.0240
21093SOL    HW266811   6.662   7.969   3.760  2.0428 -0.8593  0.0502
21094SOL     OW66812   7.989  10.421   9.148 -0.1102  0.7833 -0.2906
21094SOL    HW166813   7.993  10.348   9.086  0.0717 -0.2459  0.8743
21094SOL    HW266814   8.075  10.464   9.140 -0.3914  1.1666 -1.3165
21095SOL     OW66815   6.087   0.460   2.124 -0.1396  0.6107 -0.2687
21095SOL    HW166816   6.134   0.497   2.198 -0.8302  1.1084 -0.0725
21095SOL    HW266817   6.150   0.464   2.051  1.2603 -1.6718  0.6852
21096SOL     OW66818   3.057   5.165   8.686  0.4027  0.6092 -0.5044
21096SOL    HW166819   3.034   5.108   8.759  1.4612  1.2983  0.4066
21096SOL    HW266820   3.037   5.254   8.716  0.0844  0.8490 -1.3723
21097SOL     OW66821   2.971   8.173   8.331 -0.3917  0.1702  0.0613
21097SOL    HW166822   3.053   8.173   8.380  0.1114 -1.6829 -0.7129
21097SOL    HW266823   2.997   8.201   8.243 -0.9679  1.5698  0.3072
21098SOL     OW66824  10.649   5.473   9.009 -0.2750  0.4912 -0.4728
21098SOL    HW166825  10.719   5.410   9.026 -0.6239 -0.1606 -1.3363
21098SOL    HW266826  10.695   5.554   8.987  0.1788  0.5613  0.6872
21099SOL     OW66827   9.719   1.595   4.290 -0.5044 -0.5335 -0.6284
21099SOL    HW166828   9.659   1.670   4.292  1.0492  0.7529 -0.7771
21099SOL    HW266829   9.738   1.583   4.197  0.3793 -0.1597 -0.5059
21100SOL     OW66830   2.925   9.234   6.511 -0.0404  0.1920 -0.1678
21100SOL    HW166831   3.006   9.193   6.541  1.3225  2.3460 -0.6161
21100SOL    HW266832   2.939   9.328   6.527 -1.5677  0.8389 -2.2248
21101SOL     OW66833   1.962   7.706   2.811  0.6131 -0.6538 -0.0028
21101SOL    HW166834   1.936   7.784   2.762 -1.0584 -0.1112  1.6317
21101SOL    HW266835   2.021   7.739   2.879 -0.1936 -0.7781  0.7682
21102SOL     OW66836   3.418   9.933   5.661  0.5158 -0.3044 -0.1309
21102SOL    HW166837   3.437  10.007   5.718  1.6019 -0.9240  0.3682
21102SOL    HW266838   3.337   9.956   5.617 -0.2977  0.2646  1.5722
21103SOL     OW66839   2.608   3.351   8.510 -0.3893  0.2294  0.7160
21103SOL    HW166840   2.590   3.441   8.537 -1.6298  0.7787 -1.6625
21103SOL    HW266841   2.621   3.357   8.416  1.8786 -1.7881  0.8204
21104SOL     OW66842  10.189   3.028   4.053 -0.1253  0.4417 -0.2139
21104SOL    HW166843  10.274   3.001   4.017  0.3473 -0.0030  1.1560
21104SOL    HW266844  10.206   3.039   4.147 -1.9226 -1.1099  0.3365
21105SOL     OW66845  10.922   7.394   2.990 -0.1240  0.2165 -1.0724
21105SOL    HW166846  10.877   7.382   2.906 -2.2504  0.5400 -0.0162
21105SOL    HW266847  11.015   7.378   2.969 -0.2470  2.5241 -3.9451
21106SOL     OW66848   6.632   3.876   2.780 -0.0000 -0.2009 -0.1921
21106SOL    HW166849   6.676   3.807   2.829 -0.5427 -1.0765 -0.9099
21106SOL    HW266850   6.694   3.899   2.711  0.4426  0.4913  0.4192
21107SOL     OW66851  10.072   3.633   9.369  0.1193  0.4643 -0.1685
21107SOL    HW166852  10.133   3.566   9.338 -0.1876  0.4457 -0.7326
21107SOL    HW266853  10.094   3.643   9.462  2.2603  1.7991 -0.7354
21108SOL     OW66854   6.907   9.807   1.604 -0.0446  0.3212 -0.2724
21108SOL    HW166855   6.841   9.740   1.586  0.5856 -0.8548  1.4797
21108SOL    HW266856   6.950   9.821   1.520 -2.9045  1.6505 -1.6379
21109SOL     OW66857   9.029   8.221   7.964 -0.4944 -0.1509  0.3245
21109SOL    HW166858   9.047   8.131   7.939  1.3726  0.3828 -0.3957
21109SOL    HW266859   8.933   8.228   7.961 -0.6582 -2.0034  0.1354
21110SOL     OW66860   1.314   4.926   6.376 -0.0895 -0.4297  0.3942
21110SOL    HW166861   1.224   4.952   6.394 -0.8712 -1.6486 -1.4561
21110SOL    HW266862   1.310   4.881   6.292  2.6513  1.9150 -1.2228
21111SOL     OW66863  11.123   4.544   6.212  0.2062 -0.7053  0.1374
21111SOL    HW166864  11.132   4.539   6.307 -0.0067 -0.3696  0.1774
21111SOL    HW266865  11.030   4.527   6.195 -0.2481  1.3936  0.1780
21112SOL     OW66866   4.755   2.014   7.421  0.1921 -0.0544 -0.2383
21112SOL    HW166867   4.807   1.998   7.343  1.5885  1.1628  0.3930
21112SOL    HW266868   4.781   1.945   7.482 -0.1640 -0.4098 -0.4786
21113SOL     OW66869   4.734   4.224   1.204  0.0340  0.3101 -0.1979
21113SOL    HW166870   4.732   4.254   1.113 -1.5842  0.6038 -0.1020
21113SOL    HW266871   4.700   4.298   1.254  0.8675  0.1352  0.6495
21114SOL     OW66872  11.060   7.152   9.523  0.3824  0.3157 -0.0213
21114SOL    HW166873  11.140   7.120   9.565  0.2644  0.3471  0.2275
21114SOL    HW266874  11.025   7.217   9.585  0.0992  0.2122 -0.0718
21115SOL     OW66875   1.556   9.950  10.642 -0.5276  0.3201  0.1833
21115SOL    HW166876   1.544   9.890  10.717 -2.4507  1.2138  0.6476
21115SOL    HW266877   1.477   9.938  10.590  0.4925  0.2227 -1.3841
21116SOL     OW66878   5.288   9.729   0.784  0.1326 -0.6239 -0.1908
21116SOL    HW166879   5.327   9.684   0.859  0.7826  0.3635  0.0755
21116SOL    HW266880   5.229   9.664   0.746  1.7459 -2.0584 -0.3910
21117SOL     OW66881   4.423   0.728   9.135  0.8804  0.1011 -0.4709
21117SOL    HW166882   4.473   0.659   9.092  1.2982  0.2746 -0.2732
21117SOL    HW266883   4.393   0.688   9.217  0.2099 -0.1820 -0.8489
21118SOL     OW66884  10.073   8.331   0.977  0.0437 -0.0367 -0.1578
21118SOL    HW166885  10.110   8.369   0.897 -0.5279 -0.1374 -0.4740
21118SOL    HW266886   9.979   8.343   0.967 -0.0494 -0.3469  0.3570
21119SOL     OW66887   4.608   6.280   8.911 -0.3820 -0.3928 -0.1663
21119SOL    HW166888   4.515   6.284   8.931 -0.1573  0.9361  0.8044
21119SOL    HW266889   4.646   6.235   8.987 -0.0829  0.3631  0.1441
21120SOL     OW66890   2.174   8.937   9.747  0.3971 -0.2227  0.6039
21120SOL    HW166891   2.203   8.864   9.692 -0.7786 -0.7266  0.6018
21120SOL    HW266892   2.078   8.933   9.741  0.2989  0.6253  1.5171
21121SOL     OW66893   7.809   0.935   9.014 -0.8357 -0.1964 -0.0886
21121SOL    HW166894   7.855   0.966   8.936 -0.2793  1.0398  0.6919
21121SOL    HW266895   7.744   0.874   8.981  0.2761 -0.7306 -1.3858
21122SOL     OW66896  10.972   0.948  10.707  0.2935  0.7526 -0.6016
21122SOL    HW166897  10.908   1.018  10.695 -1.4198 -0.4984  0.7389
21122SOL    HW266898  10.938   0.896  10.780  2.5375 -0.3468 -0.2370
21123SOL     OW66899   1.064   9.848   5.200 -0.7162  0.3370  0.7737
21123SOL    HW166900   1.158   9.826   5.199 -0.4820  1.3253 -0.1314
21123SOL    HW266901   1.024   9.777   5.250  0.5998  0.2345  1.7377
21124SOL     OW66902   4.998   3.380   5.415  0.5648  0.1720  0.0486
21124SOL    HW166903   4.950   3.330   5.348 -0.0727 -0.4316  0.9225
21124SOL    HW266904   5.031   3.313   5.476  2.5182  0.5724 -0.4958
21125SOL     OW66905   1.867   2.039   9.858  0.3446  0.2627 -0.0121
21125SOL    HW166906   1.921   2.109   9.893  2.0190  0.5452 -2.8537
21125SOL    HW266907   1.891   1.962   9.909  0.1573  1.2514  1.6326
21126SOL     OW66908   5.173   7.916   0.020  0.1004 -0.4634  0.1039
21126SOL    HW166909   5.183   8.011   0.015  0.9722 -0.5139  0.6232
21126SOL    HW266910   5.089   7.903   0.064 -0.7256  0.0346 -1.2509
21127SOL     OW66911   4.147   9.926   1.193 -0.1783  0.2096 -0.2684
21127SOL    HW166912   4.126   9.902   1.103 -1.5154 -0.3655  0.1699
21127SOL    HW266913   4.123  10.018   1.200 -1.6429 -0.1588 -0.0800
21128SOL     OW66914   3.034  10.612   1.961  0.4030  0.1798 -0.3641
21128SOL    HW166915   3.092  10.612   2.038 -0.4694  2.0501  0.3402
21128SOL    HW266916   2.947  10.594   1.997  0.0441  0.7217 -0.9650
21129SOL     OW66917   5.733   9.948   2.988 -0.2730 -0.1556 -0.7433
21129SOL    HW166918   5.660   9.950   2.927 -0.7337 -2.3020 -0.3187
21129SOL    HW266919   5.803   9.995   2.943 -0.7525 -1.2427 -2.7260
21130SOL     OW66920   0.340   2.185   3.867  0.4482 -0.2548 -0.1788
21130SOL    HW166921   0.259   2.146   3.900  0.3056 -0.2622 -0.5251
21130SOL    HW266922   0.314   2.225   3.784  0.5482  0.7751  0.2773
21131SOL     OW66923   7.700   9.065  10.963  0.0792 -0.0975 -0.0690
21131SOL    HW166924   7.740   9.094  10.881 -2.9894  2.1949 -0.9651
21131SOL    HW266925   7.713   9.138  11.023  0.8936 -1.0997  1.0154
21132SOL     OW66926   2.772   6.295   3.451 -0.4725 -0.0827  0.0070
21132SOL    HW166927   2.818   6.374   3.480  1.7196 -1.5403  0.7713
21132SOL    HW266928   2.831   6.255   3.388 -1.3732 -1.3104 -0.0916
21133SOL     OW66929   3.621   7.726   9.422  0.2236 -0.8753 -0.1954
21133SOL    HW166930   3.580   7.642   9.443  1.6130 -1.4881  0.1349
21133SOL    HW266931   3.697   7.703   9.368  0.2760  0.2196 -0.6163
21134SOL     OW66932   2.682   9.284  11.043 -0.2661 -0.1032 -0.4829
21134SOL    HW166933   2.649   9.278  10.954  1.8772  0.9839 -1.3990
21134SOL    HW266934   2.638   9.361  11.080 -0.0106  0.3476 -1.1124
21135SOL     OW66935   1.614   6.545   4.740  0.0082 -0.3422  0.5033
21135SOL    HW166936   1.643   6.607   4.807  0.5711 -0.0889  0.0431
21135SOL    HW266937   1.665   6.466   4.756  1.9669  0.5035 -1.0492
21136SOL     OW66938   8.019   0.351  10.853  0.1089  0.2780  0.1677
21136SOL    HW166939   8.108   0.332  10.824 -0.3750 -1.5807 -0.2523
21136SOL    HW266940   7.981   0.265  10.869 -1.3924  1.0662  1.0621
21137SOL     OW66941  10.620   6.846  10.866  0.2966 -0.1059 -0.3628
21137SOL    HW166942  10.533   6.879  10.890  0.2911  0.8898 -1.6954
21137SOL    HW266943  10.604   6.756  10.837 -0.2409 -0.0191 -0.3457
21138SOL     OW66944   5.919   4.632   9.469 -0.1614  0.0780  0.5422
21138SOL    HW166945   5.848   4.576   9.500 -1.4047  0.2669 -1.7247
21138SOL    HW266946   5.901   4.644   9.376  1.7577  1.7853  0.3132
21139SOL     OW66947   4.124   9.414   9.513  0.3389  0.6762  0.0329
21139SOL    HW166948   4.041   9.443   9.474  0.2097  0.9283  0.4873
21139SOL    HW266949   4.101   9.333   9.559 -0.0138  1.5610  1.4792
21140SOL     OW66950   7.157   7.894  10.362  0.4070 -0.3033 -0.3665
21140SOL    HW166951   7.161   7.882  10.267  1.5031 -0.7987 -0.2676
21140SOL    HW266952   7.135   7.807  10.396 -0.2059 -0.0777 -0.1744
21141SOL     OW66953   6.383   7.582   4.017 -0.5414 -0.1058  0.5092
21141SOL    HW166954   6.327   7.508   4.040 -3.1606  1.7348  0.5251
21141SOL    HW266955   6.358   7.605   3.928  0.3305  0.6718  0.4502
21142SOL     OW66956   4.095   0.739  10.002 -0.2157  0.4097  0.2686
21142SOL    HW166957   4.010   0.783  10.006 -0.0435  0.8502 -0.7681
21142SOL    HW266958   4.101   0.706   9.913 -0.2262 -1.5190  0.9332
21143SOL     OW66959   8.474   5.359   6.875  0.2179 -0.2436 -0.0600
21143SOL    HW166960   8.524   5.310   6.810 -0.7755  1.1257 -1.9649
21143SOL    HW266961   8.472   5.449   6.841  0.6578  0.8246  2.4923
21144SOL     OW66962   8.144   3.328   5.468  0.5611  0.0348 -0.3329
21144SOL    HW166963   8.182   3.308   5.554  0.5853 -0.1162 -0.3782
21144SOL    HW266964   8.148   3.245   5.421 -1.6574 -0.5145  0.3381
21145SOL     OW66965   8.418   7.519   6.551  0.3506  0.2308  0.0144
21145SOL    HW166966   8.413   7.490   6.460  1.8737  0.8488 -0.3068
21145SOL    HW266967   8.347   7.583   6.561 -1.7060 -1.9327  0.1421
21146SOL     OW66968  10.914   9.476   1.312 -0.4924  0.3745  0.3382
21146SOL    HW166969  10.867   9.555   1.285 -0.2351 -0.2574 -2.1854
21146SOL    HW266970  10.856   9.404   1.286  0.7541 -0.3378 -0.5474
21147SOL     OW66971   6.968   9.162   6.786 -0.8005 -0.0032  0.5270
21147SOL    HW166972   6.943   9.089   6.843 -1.7642  1.1795  1.6855
21147SOL    HW266973   7.063   9.163   6.789 -0.7248 -1.5537 -0.0027
21148SOL     OW66974   6.627   4.987   3.133  0.4067  0.2925  0.0366
21148SOL    HW166975   6.707   4.957   3.176  0.6742 -0.7026 -1.0763
21148SOL    HW266976   6.643   4.971   3.040 -1.8914 -2.0319 -0.0720
21149SOL     OW66977   5.291   9.786   0.187 -0.3803 -0.0281  0.4842
21149SOL    HW166978   5.307   9.802   0.280  0.7659 -1.4170  0.5493
21149SOL    HW266979   5.231   9.711   0.185 -0.4743  0.0546  0.1047
21150SOL     OW66980   4.839   5.602   6.181  0.5167  0.3830  0.5278
21150SOL    HW166981   4.913   5.626   6.125 -0.9983 -0.7222 -2.1580
21150SOL    HW266982   4.801   5.685   6.209  3.1439  0.9880  2.6681
21151SOL     OW66983   8.611   0.664   9.969 -0.3141  0.3041 -0.5023
21151SOL    HW166984   8.538   0.649   9.908 -0.0311  0.6401 -0.9308
21151SOL    HW266985   8.594   0.751  10.005  0.2981  0.7237 -1.2085
21152SOL     OW66986   8.384   6.369   5.297  0.0649  0.2262  0.3510
21152SOL    HW166987   8.416   6.328   5.377 -0.6286 -1.9900 -0.4442
21152SOL    HW266988   8.289   6.365   5.304 -0.0046  0.4143 -0.4003
21153SOL     OW66989   0.376   7.664   2.338 -0.1005  0.7148  0.7278
21153SOL    HW166990   0.418   7.727   2.280  0.0822 -0.6863 -0.7125
21153SOL    HW266991   0.288   7.699   2.351 -0.4049  0.6778 -1.0421
21154SOL     OW66992  10.687   6.438   4.077  0.2753  0.1829  0.2988
21154SOL    HW166993  10.623   6.373   4.106 -0.6390  0.0069 -1.9745
21154SOL    HW266994  10.725   6.402   3.998  1.1688  1.5666  0.0607
21155SOL     OW66995   0.175   0.173   4.768 -0.4555  0.1871  0.2088
21155SOL    HW166996   0.116   0.120   4.823 -0.9480 -0.4014 -0.8505
21155SOL    HW266997   0.207   0.111   4.703  0.1686  0.8658 -0.1321
21156SOL     OW66998   6.523   9.446   9.601  0.4669  0.3847  0.6174
21156SOL    HW166999   6.434   9.460   9.567  0.8730  1.4423 -0.0465
21156SOL    HW267000   6.575   9.425   9.523  0.6887 -0.9052  1.0858
21157SOL     OW67001   9.774   2.885  11.092 -0.0546 -0.6093  0.1389
21157SOL    HW167002   9.788   2.979  11.107  0.7031 -0.6726 -0.1561
21157SOL    HW267003   9.809   2.843  11.171 -1.4883 -0.5889  0.8223
21158SOL     OW67004   0.808   7.825   5.856 -0.1407 -0.0916 -0.1977
21158SOL    HW167005   0.765   7.910   5.852 -1.0098 -0.4020  1.4862
21158SOL    HW267006   0.835   7.815   5.947  1.6779 -0.8229 -0.7680
21159SOL     OW67007   2.341   9.333   5.583 -0.5949 -0.7866  0.1292
21159SOL    HW167008   2.414   9.362   5.637 -1.8618  0.1178  1.4246
21159SOL    HW267009   2.376   9.330   5.494  0.8394  0.2155  0.6381
21160SOL     OW67010   5.061   9.144  11.022  0.1934  0.5376 -0.8528
21160SOL    HW167011   5.149   9.150  11.060 -0.0467 -0.6391 -0.0627
21160SOL    HW267012   5.010   9.209  11.072  0.2910  0.2318 -0.3433
21161SOL     OW67013   2.878   4.625   3.085 -0.1595 -0.6702 -0.3264
21161SOL    HW167014   2.864   4.690   3.016  0.6354 -0.6323 -0.4570
21161SOL    HW267015   2.967   4.640   3.115 -0.6689 -0.3380  1.0887
21162SOL     OW67016   1.465   0.042  10.609  0.1518 -1.0153 -0.5891
21162SOL    HW167017   1.545   0.055  10.558 -1.0046  0.0747 -2.2200
21162SOL    HW267018   1.439  -0.048  10.591  0.1166 -0.8441 -1.4217
21163SOL     OW67019   9.759   5.447   0.789 -0.3644 -0.2774 -0.3239
21163SOL    HW167020   9.783   5.369   0.839 -0.9734  0.4567  1.1961
21163SOL    HW267021   9.665   5.440   0.778 -0.4219  0.2127 -0.1893
21164SOL     OW67022   5.218   3.953   0.299 -0.3859 -0.4967 -0.0880
21164SOL    HW167023   5.267   3.871   0.287  0.2992 -0.0345 -0.5490
21164SOL    HW267024   5.285   4.018   0.321 -0.8235  0.0953 -0.4693
21165SOL     OW67025   9.372   1.868   1.658 -0.0208  0.0580 -0.3516
21165SOL    HW167026   9.333   1.892   1.742  1.4261  0.2978  0.2623
21165SOL    HW267027   9.297   1.837   1.606 -1.1758  1.2876  0.4960
21166SOL     OW67028   6.935   3.460   3.116 -0.4204  0.2279 -0.5729
21166SOL    HW167029   6.900   3.517   3.185  0.1305  0.0766 -0.1604
21166SOL    HW267030   6.894   3.492   3.036  1.9935  3.1256 -0.8352
21167SOL     OW67031   9.538  10.190   1.096 -0.1259 -0.0923  0.4528
21167SOL    HW167032   9.458  10.243   1.106  0.1612  0.1364  1.6453
21167SOL    HW267033   9.508  10.100   1.106 -0.5005 -0.1447 -0.8746
21168SOL     OW67034   0.993   1.825   0.585  0.1522 -0.1617  0.0169
21168SOL    HW167035   0.934   1.874   0.527  3.2324  1.3100 -2.1111
21168SOL    HW267036   0.991   1.735   0.550  1.1535  0.4767 -1.8192
21169SOL     OW67037   4.321   0.695   1.435  0.1120 -0.2862  0.5229
21169SOL    HW167038   4.407   0.721   1.469 -0.1411  0.8061  0.3895
21169SOL    HW267039   4.278   0.778   1.413 -0.1093 -0.8855 -1.5675
21170SOL     OW67040   0.603   9.023   0.264  0.1486  0.2492 -0.0332
21170SOL    HW167041   0.652   8.991   0.188  0.3573 -1.1350  0.6552
21170SOL    HW267042   0.668   9.024   0.335 -0.0593  1.4770  0.1523
21171SOL     OW67043  10.261   3.249   4.962  0.2299 -0.1800  0.1988
21171SOL    HW167044  10.296   3.197   4.890  0.5063  1.4953 -0.9496
21171SOL    HW267045  10.339   3.284   5.006  0.0538  0.4942 -0.0123
21172SOL     OW67046   8.921   9.493   8.171 -0.0360  0.6920  0.7650
21172SOL    HW167047   9.005   9.501   8.217  1.1349 -0.1496 -1.1035
21172SOL    HW267048   8.913   9.400   8.153  0.2266  1.1070 -1.8151
21173SOL     OW67049   6.736   5.427   7.064  0.4306 -0.5374  0.2118
21173SOL    HW167050   6.736   5.431   6.969  0.5087 -0.5232  0.2121
21173SOL    HW267051   6.705   5.339   7.086 -0.4605 -0.2350  0.1869
21174SOL     OW67052   1.147   4.259   7.377  0.2216 -0.1360 -0.0929
21174SOL    HW167053   1.238   4.250   7.403 -0.1954 -0.8312  1.2539
21174SOL    HW267054   1.144   4.228   7.286  1.1703 -1.0416  0.1641
21175SOL     OW67055  10.258   9.461   2.307  0.0331  0.4256 -0.1047
21175SOL    HW167056  10.197   9.493   2.241 -0.4025 -0.3598 -0.0919
21175SOL    HW267057  10.208   9.459   2.388 -0.2166 -1.0793 -0.2703
21176SOL     OW67058   0.026   5.326   1.995  0.0548 -0.3043  0.0955
21176SOL    HW167059  -0.051   5.382   1.985 -0.5570 -1.4461 -2.3307
21176SOL    HW267060   0.100   5.383   1.975 -0.4564  0.0233 -0.9320
21177SOL     OW67061   4.143  10.381   8.160  0.0171 -0.3252  0.4609
21177SOL    HW167062   4.168  10.382   8.067 -0.8085 -2.3822  0.1472
21177SOL    HW267063   4.222  10.349   8.205  1.2887  3.0383  0.8865
21178SOL     OW67064   5.505   9.645   4.989 -0.0784 -0.0250 -0.4302
21178SOL    HW167065   5.551   9.685   5.063  0.1237  1.1733 -1.1827
21178SOL    HW267066   5.490   9.717   4.928  1.2178 -1.2518 -2.3258
21179SOL     OW67067   3.685   4.487   3.631 -0.1188 -0.6817 -0.4617
21179SOL    HW167068   3.616   4.552   3.614  0.6102  0.4207  0.5973
21179SOL    HW267069   3.740   4.490   3.553 -0.4766 -0.5267 -0.7117
21180SOL     OW67070   1.704   1.878   2.637  0.2411  0.4139 -0.5504
21180SOL    HW167071   1.751   1.901   2.718 -0.5670  0.2203 -0.0147
21180SOL    HW267072   1.613   1.900   2.655 -0.3200 -1.6199 -0.6063
21181SOL     OW67073   2.845   4.747   9.811 -0.2326 -0.5355 -0.2170
21181SOL    HW167074   2.903   4.822   9.795  0.5470 -0.8598  0.9299
21181SOL    HW267075   2.758   4.786   9.824  0.2180  0.2225  0.6751
21182SOL     OW67076   3.752  11.113   4.818  0.2598 -0.4336  0.2635
21182SOL    HW167077   3.775  11.177   4.885  2.7048  0.7847 -1.5618
21182SOL    HW267078   3.685  11.156   4.765 -0.6847 -0.8601  1.0788
21183SOL     OW67079   8.130   3.292   4.442  0.6402 -0.3598 -0.0548
21183SOL    HW167080   8.114   3.197   4.445  0.9500 -0.4961 -1.6106
21183SOL    HW267081   8.044   3.330   4.426  0.6734 -0.4741 -0.5214
21184SOL     OW67082   3.742   9.356   8.116  0.4191 -0.2145  0.3517
21184SOL    HW167083   3.805   9.289   8.142 -1.4057 -2.9956 -1.7462
21184SOL    HW267084   3.683   9.310   8.055 -1.0561  3.3183 -1.1234
21185SOL     OW67085   6.232  10.441   9.802 -0.2403 -0.6589  0.7271
21185SOL    HW167086   6.197  10.464   9.715  2.0586 -0.1926 -0.1438
21185SOL    HW267087   6.186  10.500   9.862  0.0076  0.8920 -0.5293
21186SOL     OW67088   0.459   9.754   5.065 -0.1683 -0.3048 -0.6610
21186SOL    HW167089   0.464   9.709   4.980 -0.1056  0.7819 -1.2499
21186SOL    HW267090   0.379   9.806   5.059 -1.4248 -1.9488  0.8451
21187SOL     OW67091   3.873  10.237   9.445 -0.0600  0.0066 -0.3011
21187SOL    HW167092   3.877  10.295   9.520  0.5143  0.6310 -0.8011
21187SOL    HW267093   3.929  10.279   9.379 -0.8128 -0.3580 -1.1924
21188SOL     OW67094   0.586   2.099   3.210  0.6828 -0.6728 -0.5235
21188SOL    HW167095   0.661   2.144   3.170 -1.0789  2.4790 -0.6420
21188SOL    HW267096   0.596   2.114   3.304  0.1749 -0.1384 -0.5480
21189SOL     OW67097   6.621   2.291   1.889 -0.3307 -0.1116  0.1377
21189SOL    HW167098   6.649   2.214   1.840 -0.8665  0.3899 -1.0114
21189SOL    HW267099   6.702   2.326   1.927  0.4137  0.3855 -1.7580
21190SOL     OW67100   6.134   8.943   8.044  0.3390 -0.4046  0.0476
21190SOL    HW167101   6.181   8.947   8.128 -0.1718  0.8131  0.3048
21190SOL    HW267102   6.203   8.934   7.979  0.9192  0.7224  0.4676
21191SOL     OW67103   9.824   4.544   7.762 -0.3986  0.3098  0.4084
21191SOL    HW167104   9.867   4.592   7.691  0.0036 -0.7196 -0.0554
21191SOL    HW267105   9.894   4.497   7.805 -0.6356  0.9797  1.5561
21192SOL     OW67106   2.085   4.550   4.630  0.4436  0.1700  0.3497
21192SOL    HW167107   2.140   4.487   4.675  0.9933  0.7636  0.5226
21192SOL    HW267108   2.085   4.522   4.539 -1.5261 -1.6618  0.8329
21193SOL     OW67109   0.695   9.936   5.105  0.2458 -0.5572 -0.0131
21193SOL    HW167110   0.642   9.863   5.138 -0.8160 -0.2333 -0.9195
21193SOL    HW267111   0.717   9.910   5.015  1.4531 -0.5764  0.2696
21194SOL     OW67112   7.785   3.970   4.375 -0.0201  0.1612  0.0398
21194SOL    HW167113   7.878   3.959   4.395 -0.5053 -1.8287  1.5441
21194SOL    HW267114   7.761   4.053   4.417  0.3858 -0.9323  2.6166
21195SOL     OW67115   7.299   5.605   7.894  0.1881  0.1807 -0.0927
21195SOL    HW167116   7.252   5.681   7.928  2.5388  0.8387  1.9604
21195SOL    HW267117   7.362   5.642   7.832 -0.3421 -0.4109 -0.9983
21196SOL     OW67118   2.957   8.249  10.248 -0.0272 -0.2204  0.0863
21196SOL    HW167119   2.967   8.266  10.155 -0.9538  2.6068  0.4130
21196SOL    HW267120   2.868   8.213  10.256 -0.9957  2.0244  0.0711
21197SOL     OW67121   4.191   5.009   6.252 -0.2398 -0.5350  0.0298
21197SOL    HW167122   4.204   4.938   6.315 -0.1738 -0.7797 -0.2580
21197SOL    HW267123   4.102   5.039   6.269 -0.5496 -1.1993 -0.3540
21198SOL     OW67124   8.811   8.718   7.497 -0.1043 -0.2921 -0.5261
21198SOL    HW167125   8.876   8.765   7.445  0.7768 -1.3137 -0.3962
21198SOL    HW267126   8.809   8.764   7.580  0.1661 -0.0139 -0.6714
21199SOL     OW67127   3.214  10.978   8.718 -0.1285 -0.0474  0.1886
21199SOL    HW167128   3.187  10.938   8.801 -0.4014  1.1134  0.6862
21199SOL    HW267129   3.180  11.067   8.723 -1.4381 -0.3702 -1.8146
21200SOL     OW67130   8.292   8.302   2.367  0.2287  0.1701  0.1766
21200SOL    HW167131   8.383   8.332   2.378 -0.1934  1.6433 -0.0727
21200SOL    HW267132   8.250   8.320   2.451  0.3346 -1.2349  0.5518
21201SOL     OW67133   6.306   4.424   5.432  0.6471 -0.2498 -0.3694
21201SOL    HW167134   6.379   4.362   5.427 -0.3916 -1.4890 -0.5549
21201SOL    HW267135   6.274   4.416   5.521  0.0259 -0.5422 -0.6174
21202SOL     OW67136   3.773  10.452  10.684 -0.1598 -0.3992  0.1837
21202SOL    HW167137   3.803  10.395  10.755 -1.1018 -1.2720 -0.0938
21202SOL    HW267138   3.833  10.526  10.686  0.2830 -0.7680  1.4067
21203SOL     OW67139   8.815   2.722   3.955  0.6019 -0.4662  0.4924
21203SOL    HW167140   8.756   2.705   4.029  0.0545 -0.6692  0.0192
21203SOL    HW267141   8.798   2.650   3.894  1.3525 -0.5277  0.3521
21204SOL     OW67142   0.310  10.717   0.907 -0.4809 -0.2240  0.4509
21204SOL    HW167143   0.309  10.622   0.914 -4.0547 -0.3487 -0.2114
21204SOL    HW267144   0.372  10.735   0.836  1.1179 -1.9030  1.3383
21205SOL     OW67145  10.870   4.429   5.309 -0.4466  0.0222 -0.3470
21205SOL    HW167146  10.816   4.350   5.320  0.3492 -0.6703 -1.3015
21205SOL    HW267147  10.852   4.458   5.220  0.5014 -0.0157 -0.5563
21206SOL     OW67148   9.800   4.373   5.140 -0.0985  0.5752 -0.0822
21206SOL    HW167149   9.851   4.340   5.066 -0.3778 -0.0126 -0.0180
21206SOL    HW267150   9.849   4.449   5.172  1.3877 -0.6594  0.7106
21207SOL     OW67151   5.540   7.538   9.106 -0.6506  0.5051  0.4696
21207SOL    HW167152   5.560   7.477   9.177  1.3229  0.5028 -0.0356
21207SOL    HW267153   5.477   7.491   9.051 -0.9936 -0.1126  1.3791
21208SOL     OW67154   8.424   1.552   5.291  0.2649 -0.3339  0.0133
21208SOL    HW167155   8.447   1.643   5.308 -1.3498  0.1301 -0.1847
21208SOL    HW267156   8.491   1.522   5.229  0.7168  0.7529 -0.0533
21209SOL     OW67157   5.408   9.936   3.208  0.5852 -0.2260 -0.3707
21209SOL    HW167158   5.362   9.963   3.287  1.3107 -0.2519  0.0756
21209SOL    HW267159   5.356   9.864   3.172 -0.6228  0.8294 -0.8083
21210SOL     OW67160   6.958   3.625   5.774  0.0789 -0.2431  0.0611
21210SOL    HW167161   6.874   3.583   5.757  0.7923 -2.2389  1.1062
21210SOL    HW267162   7.022   3.569   5.732  1.0488 -0.0033  1.1524
21211SOL     OW67163   2.580  10.149  11.060  0.2101  0.6310  0.4137
21211SOL    HW167164   2.595  10.195  10.977 -1.6225  0.4104 -0.0876
21211SOL    HW267165   2.529  10.072  11.035  0.5046  0.0231  1.6384
21212SOL     OW67166   3.543  10.136   1.447 -0.0011  0.3087 -0.0712
21212SOL    HW167167   3.448  10.134   1.436  0.0594 -1.8014 -0.6129
21212SOL    HW267168   3.560  10.071   1.516  1.1275 -0.3543 -0.9469
21213SOL     OW67169  10.715   4.376   5.706  0.0875  0.0393 -0.5513
21213SOL    HW167170  10.666   4.456   5.685  0.3449  0.1086 -0.9000
21213SOL    HW267171  10.669   4.307   5.658  0.0310  0.0234 -0.4741
21214SOL     OW67172   7.854   7.821   2.514  0.2726 -0.0670  0.4376
21214SOL    HW167173   7.909   7.752   2.477  0.2579  0.2822 -0.2487
21214SOL    HW267174   7.869   7.816   2.608  1.9439  0.4001  0.2289
21215SOL     OW67175   7.432   0.157   3.040 -0.3277  0.1668 -0.3723
21215SOL    HW167176   7.409   0.090   3.104  1.4371  0.4444  0.6207
21215SOL    HW267177   7.348   0.194   3.013 -1.2308 -1.3128  0.2712
21216SOL     OW67178   8.246   3.356   5.720 -0.2141 -0.1027 -0.7253
21216SOL    HW167179   8.210   3.430   5.769  0.4928  0.4555 -1.0253
21216SOL    HW267180   8.322   3.327   5.771 -2.2271 -2.7045  1.0931
21217SOL     OW67181   1.118   6.763  10.177 -0.1433 -0.1563  0.9236
21217SOL    HW167182   1.036   6.780  10.224 -0.2576 -1.6403  1.3049
21217SOL    HW267183   1.167   6.845  10.185 -1.5331  0.7371  0.7568
21218SOL     OW67184   7.112   7.089   2.729 -0.1362 -0.4260  0.0180
21218SOL    HW167185   7.138   7.083   2.821 -1.7405 -1.4006  0.4532
21218SOL    HW267186   7.068   7.174   2.722  0.4296 -0.1286  0.0181
21219SOL     OW67187   8.760   0.260  11.026 -0.2009 -0.7342 -0.3609
21219SOL    HW167188   8.781   0.288  11.115  0.6404 -2.4062  0.0209
21219SOL    HW267189   8.739   0.340  10.979  1.9683  0.5100  0.6529
21220SOL     OW67190   9.069   1.963   0.040 -0.0312  0.2457  0.3826
21220SOL    HW167191   9.046   2.044   0.085  1.1914 -0.2816  2.0521
21220SOL    HW267192   9.001   1.901   0.066  0.6480 -0.0447  1.5137
21221SOL     OW67193   0.869   5.095   1.642 -0.3761  0.2368  0.4144
21221SOL    HW167194   0.934   5.082   1.712  0.0137 -0.5570 -0.0826
21221SOL    HW267195   0.813   5.166   1.674  1.5743  1.9501  0.2693
21222SOL     OW67196   5.992   3.239   0.600  0.4293  0.6187 -0.1935
21222SOL    HW167197   5.959   3.178   0.666 -1.9969  1.5169 -0.4322
21222SOL    HW267198   5.912   3.280   0.565  1.8451  2.5454 -1.3403
21223SOL     OW67199   8.442  10.541   6.939  0.2383  0.0874 -0.0828
21223SOL    HW167200   8.495  10.552   7.018 -2.2016 -1.1773  1.8740
21223SOL    HW267201   8.465  10.454   6.906  0.9044  0.4231 -0.5419
21224SOL     OW67202   4.013   3.478   3.937  0.0830  0.1020  0.4531
21224SOL    HW167203   4.011   3.430   4.020  3.9516  0.0785  0.6880
21224SOL    HW267204   4.105   3.500   3.924 -0.2758 -0.2040 -4.0705
21225SOL     OW67205   9.313   7.064   7.656 -0.1994  0.4365  0.4688
21225SOL    HW167206   9.222   7.041   7.674  0.2268 -1.4363  0.3981
21225SOL    HW267207   9.315   7.084   7.562 -0.2203 -1.4533  0.0167
21226SOL     OW67208  10.938   6.900   7.958  0.6378 -0.1005 -0.2871
21226SOL    HW167209  10.962   6.869   7.870  1.2658  0.2387 -0.2343
21226SOL    HW267210  11.021   6.910   8.004  0.3535  0.4014  0.1248
21227SOL     OW67211  10.107   7.970   6.871  0.3763 -0.3597 -0.1493
21227SOL    HW167212  10.109   7.895   6.931 -1.0561  0.4210  0.9490
21227SOL    HW267213  10.030   7.955   6.816  0.5992 -0.1359 -0.5275
21228SOL     OW67214   9.152   3.516  10.436 -0.1294 -0.5742  0.4397
21228SOL    HW167215   9.126   3.437  10.483  1.3676 -2.0746 -1.1191
21228SOL    HW267216   9.196   3.570  10.502  0.5049 -1.8984  1.1494
21229SOL     OW67217   9.055   7.602   2.525  0.3368 -0.0908 -0.0808
21229SOL    HW167218   9.107   7.607   2.444 -0.7146 -0.3663 -0.7951
21229SOL    HW267219   9.116   7.628   2.594  1.6619 -1.1577 -0.7791
21230SOL     OW67220   8.795   9.158   3.326  0.2566 -0.1017  0.5388
21230SOL    HW167221   8.863   9.092   3.338  0.0112 -0.7247 -1.2012
21230SOL    HW267222   8.744   9.127   3.250 -1.2121  0.9682  1.0331
21231SOL     OW67223   2.430   8.888   2.967  0.9040 -0.5293  0.1787
21231SOL    HW167224   2.433   8.921   2.877  0.9409 -1.1926 -0.0692
21231SOL    HW267225   2.504   8.827   2.973  0.6810 -0.7666  0.5506
21232SOL     OW67226   6.568   5.915   9.453  0.1162  0.5222  0.2512
21232SOL    HW167227   6.576   5.821   9.470 -0.6915  0.5303  0.7232
21232SOL    HW267228   6.551   5.922   9.360  2.2169  0.3308 -0.2035
21233SOL     OW67229  10.895   7.640   3.103  0.0950  0.2548 -0.7033
21233SOL    HW167230  10.985   7.674   3.101  0.1232  0.3696  1.0072
21233SOL    HW267231  10.903   7.548   3.080  0.4465  0.5904 -2.0131
21234SOL     OW67232   6.856   2.277   0.885  0.2066 -0.3414 -0.8566
21234SOL    HW167233   6.885   2.365   0.860 -0.7831  0.5154  0.8112
21234SOL    HW267234   6.922   2.247   0.947  1.1213 -1.2786 -2.2095
21235SOL     OW67235   7.321   2.139  10.470  0.2684  0.0491  0.4369
21235SOL    HW167236   7.306   2.046  10.451  0.6891  0.0158  0.2503
21235SOL    HW267237   7.272   2.155  10.551 -1.6995  0.2340 -0.7185
21236SOL     OW67238   8.797   2.316  10.008  0.0003  0.1718  0.0531
21236SOL    HW167239   8.722   2.273  10.049  0.0906  0.0432  0.0881
21236SOL    HW267240   8.816   2.263   9.931  0.0814  0.1770  0.0689
21237SOL     OW67241   7.524   5.400   6.600 -0.1289 -0.6539  0.1234
21237SOL    HW167242   7.476   5.420   6.681 -1.1194  0.9397 -0.8010
21237SOL    HW267243   7.596   5.345   6.629 -1.3990 -1.5293  1.8611
21238SOL     OW67244   8.046   6.346   5.095 -0.1632 -0.0377  0.0815
21238SOL    HW167245   8.101   6.314   5.167  0.1357 -0.5390 -0.3610
21238SOL    HW267246   7.956   6.338   5.128  0.0499  1.9368  1.2712
21239SOL     OW67247   8.533   4.927   7.211 -0.4357  0.3567 -0.2929
21239SOL    HW167248   8.593   4.858   7.239 -3.3675 -1.9344  0.8469
21239SOL    HW267249   8.582   4.976   7.145  3.1011 -0.4539  1.4777
21240SOL     OW67250   1.618   1.552   6.306 -0.0473  0.3378  0.0158
21240SOL    HW167251   1.539   1.510   6.273  0.6432 -0.8053 -0.2482
21240SOL    HW267252   1.646   1.497   6.379 -0.3817  1.6578  1.1910
21241SOL     OW67253   5.783   3.558   6.638  0.1112 -0.2159  0.2900
21241SOL    HW167254   5.818   3.643   6.665  1.0505 -0.5392  0.1487
21241SOL    HW267255   5.821   3.543   6.551 -0.2935 -0.6357  0.1816
21242SOL     OW67256   0.362   0.648   2.330  0.3617  0.1552  0.3447
21242SOL    HW167257   0.373   0.742   2.322  2.0836 -0.1016 -0.8000
21242SOL    HW267258   0.342   0.618   2.241  1.7286 -0.7495  0.3055
21243SOL     OW67259   0.225   3.449   0.428 -0.5122  0.2321 -0.4779
21243SOL    HW167260   0.287   3.480   0.362  0.8599 -0.9825  0.1938
21243SOL    HW267261   0.144   3.497   0.409  0.7591  2.2719 -1.0400
21244SOL     OW67262   4.867   2.494   1.871  0.0209 -0.2255  0.1092
21244SOL    HW167263   4.943   2.462   1.822  1.0889  2.9660 -0.5963
21244SOL    HW267264   4.888   2.477   1.962  0.8923 -0.7302 -0.1747
21245SOL     OW67265   9.465   4.493   3.799 -0.6409 -0.6258  0.3377
21245SOL    HW167266   9.467   4.424   3.866  1.0607 -0.4809  0.4764
21245SOL    HW267267   9.418   4.565   3.841  3.2046  0.7646  2.8217
21246SOL     OW67268   6.223   6.642   7.990 -1.0716 -0.2868  0.2438
21246SOL    HW167269   6.171   6.665   8.066 -1.4775  0.3196 -0.2044
21246SOL    HW267270   6.166   6.586   7.937 -2.6478  3.0282 -1.8958
21247SOL     OW67271   1.473   2.991   6.997  0.0407 -0.0332  0.2541
21247SOL    HW167272   1.447   2.900   7.007  2.6070 -0.6846  1.9545
21247SOL    HW267273   1.496   3.020   7.085 -2.3005  2.8881  0.0937
21248SOL     OW67274   0.169   5.649   4.454 -0.1033 -0.2093  0.1980
21248SOL    HW167275   0.144   5.564   4.417  0.5366  0.1805 -1.2022
21248SOL    HW267276   0.223   5.627   4.530  0.4349 -1.0792 -0.4143
21249SOL     OW67277   0.674  10.900   5.745  0.2185 -0.1710  0.1380
21249SOL    HW167278   0.657  10.953   5.823 -0.7612  0.6599 -0.6154
21249SOL    HW267279   0.618  10.938   5.677 -0.4493 -2.1030 -0.4654
21250SOL     OW67280   7.320   8.492   8.740  0.0620 -0.0866 -0.0843
21250SOL    HW167281   7.391   8.503   8.804  1.2875 -0.5219 -1.3150
21250SOL    HW267282   7.294   8.582   8.719 -1.3512  0.0619  2.0305
21251SOL     OW67283   5.735   2.724   8.058 -0.5490 -0.4211  0.0557
21251SOL    HW167284   5.786   2.738   8.138 -1.6464  1.2569  0.5308
21251SOL    HW267285   5.661   2.785   8.066 -1.3449 -1.0804 -1.6893
21252SOL     OW67286   9.077   7.601   9.234  0.3339 -0.6043  0.0735
21252SOL    HW167287   9.019   7.525   9.238 -1.5546  0.7557 -0.5022
21252SOL    HW267288   9.062   7.639   9.148  2.8789 -0.7392 -0.5356
21253SOL     OW67289   7.927   3.575   1.554 -0.4226 -0.0384  0.0946
21253SOL    HW167290   7.999   3.637   1.541  0.3336 -0.9646 -0.3054
21253SOL    HW267291   7.965   3.505   1.608 -0.1258 -1.9091 -2.3220
21254SOL     OW67292   7.921   7.924   8.334 -0.1470  0.6840 -0.0168
21254SOL    HW167293   7.994   7.952   8.390 -0.0380 -0.2391  0.3284
21254SOL    HW267294   7.908   7.832   8.356 -0.2068  0.3306 -1.4046
21255SOL     OW67295   0.375  10.861   5.347  0.5265  0.7416  0.0978
21255SOL    HW167296   0.308  10.817   5.398 -0.8104 -0.6081 -2.5982
21255SOL    HW267297   0.407  10.794   5.286  1.2243  2.4662 -1.5430
21256SOL     OW67298   9.684   1.754  10.258 -0.0081  0.6879  0.2445
21256SOL    HW167299   9.725   1.832  10.219 -1.5101  1.0658 -0.6365
21256SOL    HW267300   9.735   1.738  10.337  1.8352  1.1424 -0.7836
21257SOL     OW67301   0.652   5.857   7.417  0.3356 -0.7482 -0.2429
21257SOL    HW167302   0.621   5.769   7.438 -1.9361  0.1398  0.3760
21257SOL    HW267303   0.577   5.900   7.376  1.8512  0.4815 -1.8632
21258SOL     OW67304  10.751   1.359  10.771  0.6062  0.6069 -0.3430
21258SOL    HW167305  10.708   1.442  10.791 -1.0487 -0.3730  0.3844
21258SOL    HW267306  10.709   1.328  10.691 -1.2138 -1.0593  1.1511
21259SOL     OW67307   0.595   3.497   5.687  0.2340 -0.0554 -0.7447
21259SOL    HW167308   0.602   3.404   5.706  0.6056 -0.1159 -1.1496
21259SOL    HW267309   0.643   3.541   5.758  0.4271 -0.1985 -0.7860
21260SOL     OW67310  10.957   0.758   5.070 -0.0146 -0.4741  0.4173
21260SOL    HW167311  11.046   0.738   5.098 -0.7139 -0.6865  2.6149
21260SOL    HW267312  10.927   0.825   5.131 -1.2446 -0.1374 -0.5188
21261SOL     OW67313   0.425   2.570   4.384  0.0871 -0.3770 -0.9060
21261SOL    HW167314   0.435   2.610   4.297 -1.4629 -2.1571 -1.9791
21261SOL    HW267315   0.510   2.531   4.402  0.4782  0.1470 -1.5373
21262SOL     OW67316   9.890   9.661   9.249 -0.1377 -0.1012 -0.4532
21262SOL    HW167317   9.848   9.747   9.252  0.6767  0.4513 -2.8632
21262SOL    HW267318   9.850   9.612   9.321 -1.6239  1.8291  0.1076
21263SOL     OW67319  10.629   9.964   4.865  0.2541  0.1505 -0.1772
21263SOL    HW167320  10.645  10.046   4.911  0.9171 -0.0131 -0.1137
21263SOL    HW267321  10.615   9.989   4.774  2.4176  0.1778 -0.5403
21264SOL     OW67322  10.014   2.312   5.728  0.1709 -0.4519  0.1560
21264SOL    HW167323  10.061   2.387   5.764 -1.0811 -0.1772  1.2847
21264SOL    HW267324  10.019   2.324   5.633  1.2668  0.2432  0.2854
21265SOL     OW67325   8.139  10.907   6.977  0.2641  0.0191 -0.4975
21265SOL    HW167326   8.178  10.985   6.938 -0.4278  0.2842 -0.6726
21265SOL    HW267327   8.195  10.887   7.053 -0.0251  1.1724  0.0416
21266SOL     OW67328  10.274   1.226   5.823  0.5128 -0.7599  0.0351
21266SOL    HW167329  10.182   1.207   5.841 -0.0655 -0.1873 -2.0732
21266SOL    HW267330  10.296   1.299   5.881  0.3170 -2.2588  2.1111
21267SOL     OW67331   1.964   9.282   3.656  0.2171  0.6113 -0.1548
21267SOL    HW167332   1.964   9.259   3.563 -0.5791 -1.7157  0.3655
21267SOL    HW267333   2.031   9.350   3.663  2.0505 -0.8534 -2.0594
21268SOL     OW67334   4.653   3.427   5.202  0.0258 -0.0658  0.5288
21268SOL    HW167335   4.622   3.461   5.285  1.5178 -0.3331  1.2301
21268SOL    HW267336   4.652   3.332   5.213  0.7882 -0.0849  0.4555
21269SOL     OW67337   4.622   6.347   3.135  0.3884  1.1479  0.0723
21269SOL    HW167338   4.703   6.398   3.125  0.5951  0.9754  0.7694
21269SOL    HW267339   4.555   6.399   3.090  0.5129  2.2527  1.0928
21270SOL     OW67340   0.795  11.001  10.195  0.6743  1.1620 -0.0284
21270SOL    HW167341   0.760  11.031  10.111  0.1792  0.8423  0.0593
21270SOL    HW267342   0.742  10.924  10.217  0.7323  1.3043  0.6245
21271SOL     OW67343   7.681   3.696   4.426 -0.0122 -0.1994 -0.2596
21271SOL    HW167344   7.761   3.650   4.451 -0.0801 -1.4003 -2.0583
21271SOL    HW267345   7.710   3.783   4.400  0.3499  0.2445  1.5029
21272SOL     OW67346   0.264   7.429   8.154  0.3347 -0.6995 -0.0203
21272SOL    HW167347   0.343   7.405   8.106 -0.1984 -1.8082 -0.3777
21272SOL    HW267348   0.293   7.497   8.215  1.2801 -0.1438 -1.0512
21273SOL     OW67349   9.247   0.093   2.841 -0.4832 -0.6346 -0.2296
21273SOL    HW167350   9.341   0.084   2.859 -0.5445  1.2646  1.4039
21273SOL    HW267351   9.235   0.050   2.756  1.7479 -1.4067 -0.2339
21274SOL     OW67352   9.262   0.170   5.231  0.0290 -0.4590 -0.2566
21274SOL    HW167353   9.353   0.151   5.257  0.6579  1.0725 -1.2184
21274SOL    HW267354   9.252   0.127   5.146 -0.5825 -1.6700  0.3968
21275SOL     OW67355   2.266   9.796   2.301 -0.4148 -0.3681 -0.0008
21275SOL    HW167356   2.296   9.730   2.238 -0.6176  0.2665 -0.7838
21275SOL    HW267357   2.251   9.874   2.248 -0.2933  0.2756  0.8954
21276SOL     OW67358   8.010  10.931   7.317  0.2037 -0.5801  0.4598
21276SOL    HW167359   7.979  10.859   7.262  0.3034 -0.7720  0.6548
21276SOL    HW267360   8.088  10.964   7.272 -1.2348  1.0475 -0.9819
21277SOL     OW67361   8.661   9.868   1.994 -0.1796 -0.2884 -0.1897
21277SOL    HW167362   8.709   9.948   2.018 -1.1621 -0.0610  1.1169
21277SOL    HW267363   8.617   9.891   1.912  0.3618  0.1530 -0.3708
21278SOL     OW67364   0.752   4.289   9.097  0.1587 -0.0536  0.4174
21278SOL    HW167365   0.665   4.258   9.123  0.2338 -0.1310  0.5728
21278SOL    HW267366   0.785   4.337   9.173  0.4453 -0.4201  0.5236
21279SOL     OW67367   3.338   7.537   5.289 -0.8868 -0.1376 -0.0347
21279SOL    HW167368   3.407   7.481   5.255 -0.8952  0.4600 -1.0821
21279SOL    HW267369   3.336   7.518   5.383  0.7484 -0.1224  0.0412
21280SOL     OW67370   5.485   2.826   0.380  0.2419  0.0359  0.4163
21280SOL    HW167371   5.409   2.881   0.365  0.6558  0.9828  1.6761
21280SOL    HW267372   5.529   2.822   0.295 -0.3375  0.7998  0.0723
21281SOL     OW67373  10.178   0.395   9.665  0.5043 -0.0424  0.0002
21281SOL    HW167374  10.189   0.463   9.732 -0.1701  1.9216 -1.7697
21281SOL    HW267375  10.266   0.362   9.650  0.8934  0.6217  0.7256
21282SOL     OW67376   9.437   4.072   5.826 -0.0414  0.2156 -1.1372
21282SOL    HW167377   9.443   4.156   5.870  1.1806 -0.0313 -0.7809
21282SOL    HW267378   9.384   4.018   5.885  1.2686  0.0012 -0.1154
21283SOL     OW67379   5.901   7.635   1.607  0.4068  0.0839 -0.2262
21283SOL    HW167380   5.876   7.725   1.627  1.1623  0.2458  0.0259
21283SOL    HW267381   5.842   7.608   1.537 -0.2698  0.5418  0.1613
21284SOL     OW67382   2.118   9.350   7.538  0.0735  0.0947 -0.0078
21284SOL    HW167383   2.048   9.410   7.563 -0.9313 -0.6438 -0.9301
21284SOL    HW267384   2.138   9.374   7.447  1.6069  0.8245  0.4883
21285SOL     OW67385   7.679   2.862   2.980  0.2276 -0.6901  0.4286
21285SOL    HW167386   7.663   2.894   2.891  3.3759 -1.2523 -0.4521
21285SOL    HW267387   7.708   2.772   2.968 -1.4773 -1.5673  2.2878
21286SOL     OW67388   3.623   4.098   1.578 -0.0261  0.0593  0.1890
21286SOL    HW167389   3.624   4.177   1.523  0.4931 -0.6496 -0.8582
21286SOL    HW267390   3.532   4.091   1.607 -0.6127 -0.1631 -1.5491
21287SOL     OW67391   5.512   7.616   1.675  0.1346 -0.0702  0.2641
21287SOL    HW167392   5.587   7.674   1.690 -1.8030  2.6841  0.0350
21287SOL    HW267393   5.468   7.612   1.760 -0.2178 -0.5082  0.0611
21288SOL     OW67394   4.782   7.191  10.977 -0.1300 -0.0598 -0.0341
21288SOL    HW167395   4.788   7.276  11.020 -0.0432  0.4033 -0.9400
21288SOL    HW267396   4.714   7.145  11.026  0.0022  0.4267  0.6270
21289SOL     OW67397   1.698  10.595   4.363  0.1707  0.0333  0.0289
21289SOL    HW167398   1.794  10.592   4.371  0.1462  1.1050  1.0392
21289SOL    HW267399   1.667  10.585   4.453 -0.6385  0.3280 -0.2118
21290SOL     OW67400  10.708   2.241  11.119 -0.3845 -0.0599 -0.2997
21290SOL    HW167401  10.729   2.207  11.206  0.4296 -1.3333 -0.9615
21290SOL    HW267402  10.627   2.196  11.095  1.0769 -2.2825 -1.4824
21291SOL     OW67403   9.928   2.963   8.549  0.1884 -0.2041 -0.6833
21291SOL    HW167404   9.853   2.961   8.490 -1.0997 -1.3368  0.9311
21291SOL    HW267405   9.928   2.878   8.592  1.6834  0.2252  0.2504
21292SOL     OW67406   4.845   2.047   3.839  0.1476 -0.7352 -0.4962
21292SOL    HW167407   4.764   2.098   3.831 -0.7111 -1.2554  3.1166
21292SOL    HW267408   4.915   2.113   3.844 -0.4503 -0.1151 -0.2017
21293SOL     OW67409   3.800  10.961   9.508  0.0875  0.2632  0.0531
21293SOL    HW167410   3.812  11.055   9.504  1.8346  0.0220 -2.3783
21293SOL    HW267411   3.888  10.925   9.514 -0.5284 -1.2473  0.7282
21294SOL     OW67412   5.284   9.986   9.359  0.7326  0.1031 -0.3132
21294SOL    HW167413   5.192  10.012   9.351  1.2383  2.5246  1.0128
21294SOL    HW267414   5.331  10.041   9.297  1.4887  0.1683  0.3005
21295SOL     OW67415  10.237   7.248  10.243  0.1836 -0.0085  0.5577
21295SOL    HW167416  10.161   7.203  10.281  0.1842  0.2673  0.8877
21295SOL    HW267417  10.215   7.258  10.151  1.0429 -2.5299 -0.0001
21296SOL     OW67418   0.160   9.705   4.005 -0.2311  0.0400 -0.1105
21296SOL    HW167419   0.163   9.703   3.909  1.5980  2.4150 -0.1942
21296SOL    HW267420   0.072   9.674   4.027 -0.9750  0.1799 -2.5723
21297SOL     OW67421   7.303   1.189  10.016 -0.1527 -0.1794 -0.0282
21297SOL    HW167422   7.256   1.132   9.955  1.0503  0.1161 -1.3002
21297SOL    HW267423   7.395   1.183   9.987  0.3945  0.2678  1.5419
21298SOL     OW67424   1.596   2.455   7.642 -0.7042  0.2679  0.3653
21298SOL    HW167425   1.521   2.512   7.625 -0.9621  0.0339  0.7289
21298SOL    HW267426   1.559   2.375   7.679 -0.1072  1.2843  3.4736
21299SOL     OW67427  10.528   0.469   2.668 -0.4064  0.1260  0.0062
21299SOL    HW167428  10.462   0.400   2.676 -0.4512  0.3535  2.2114
21299SOL    HW267429  10.478   0.550   2.659 -0.3591  0.0356 -1.3137
21300SOL     OW67430   9.080   4.305   2.002 -0.2144  0.4734 -0.0352
21300SOL    HW167431   9.028   4.225   1.997  3.8053 -2.6474  2.0694
21300SOL    HW267432   9.145   4.297   1.932  2.1066  0.2128  2.0081
21301SOL     OW67433  10.939   1.611   8.328  0.5584  0.4913 -0.3895
21301SOL    HW167434  10.862   1.625   8.273 -1.0968  1.0055  1.9064
21301SOL    HW267435  10.955   1.516   8.323 -1.7458 -0.0303  0.9268
21302SOL     OW67436   1.608   8.168   8.337  0.0282  0.2431 -0.2149
21302SOL    HW167437   1.577   8.084   8.372 -1.4650  0.6159 -0.5758
21302SOL    HW267438   1.589   8.163   8.243  0.2524  0.8505 -0.2937
21303SOL     OW67439   7.428   2.963   2.679  0.1967 -0.0231  0.0145
21303SOL    HW167440   7.371   2.915   2.619  0.9550  0.8365 -1.4398
21303SOL    HW267441   7.517   2.942   2.651  0.5746  2.3682 -0.8820
21304SOL     OW67442  10.416   1.617   6.574  0.5551  0.3657 -0.4676
21304SOL    HW167443  10.339   1.620   6.630 -1.5504  0.7177 -3.2170
21304SOL    HW267444  10.485   1.657   6.627 -1.3929  1.1415  1.6606
21305SOL     OW67445   2.569   0.915   2.800  0.4836  0.2032  0.4551
21305SOL    HW167446   2.565   0.833   2.751 -2.4216  1.0944 -1.0952
21305SOL    HW267447   2.554   0.890   2.891 -1.3049 -0.9744 -0.1171
21306SOL     OW67448   3.933   3.306   9.211 -0.2079 -0.0392  0.0129
21306SOL    HW167449   3.883   3.340   9.286 -0.3005  0.1288 -0.1245
21306SOL    HW267450   3.880   3.233   9.179 -1.1214  1.0266 -1.0272
21307SOL     OW67451   7.009   3.849  10.066  0.1868 -0.2468  0.3084
21307SOL    HW167452   7.083   3.883  10.116  0.5738 -0.5188 -0.0654
21307SOL    HW267453   7.013   3.754  10.077  0.5446 -0.3492 -0.5785
21308SOL     OW67454   8.997   9.423   5.621 -0.4398  0.5933  0.1989
21308SOL    HW167455   9.080   9.387   5.651 -0.4027  0.1398 -0.4083
21308SOL    HW267456   9.011   9.517   5.618 -0.2475  0.5912  0.9787
21309SOL     OW67457  10.662   0.266   0.184 -0.3728 -0.6114  0.6831
21309SOL    HW167458  10.727   0.204   0.151 -0.4639 -0.1842 -0.3433
21309SOL    HW267459  10.675   0.345   0.132  1.2307  1.0935  3.4477
21310SOL     OW67460   1.569   7.026   1.869  0.7309  0.3176 -0.1394
21310SOL    HW167461   1.560   6.945   1.819  2.3968 -0.3082  0.5197
21310SOL    HW267462   1.479   7.056   1.882  0.1385 -0.8497 -1.3103
21311SOL     OW67463   8.276   9.400   0.037  0.4176 -0.2678  0.1134
21311SOL    HW167464   8.361   9.407  -0.008  0.5151  1.6137  0.4838
21311SOL    HW267465   8.218   9.455  -0.016 -0.3879 -0.9565  0.2766
21312SOL     OW67466   3.742   9.618  10.344  0.3521  0.5473  0.4506
21312SOL    HW167467   3.715   9.706  10.370 -0.1075  0.6224 -0.2442
21312SOL    HW267468   3.660   9.569  10.334  0.5804  0.1622  0.4220
21313SOL     OW67469   7.390   9.290   3.241  0.5035  0.4817 -0.2515
21313SOL    HW167470   7.405   9.272   3.334  1.6348  0.4643 -0.4144
21313SOL    HW267471   7.478   9.286   3.202 -0.0100 -0.0309 -1.4088
21314SOL     OW67472   7.750   3.993   6.449 -0.1607  0.1386  0.2804
21314SOL    HW167473   7.776   4.061   6.386  1.6616 -0.8804 -0.1614
21314SOL    HW267474   7.708   3.926   6.396  1.9130 -0.9999 -0.0517
21315SOL     OW67475   2.206   1.759  10.666  0.6159  0.4560 -0.1152
21315SOL    HW167476   2.255   1.833  10.700 -1.7434  1.1905  2.0433
21315SOL    HW267477   2.128   1.797  10.626 -0.0214 -0.7807 -0.1186
21316SOL     OW67478   8.431   7.812   3.181 -0.2857  0.1093  0.4598
21316SOL    HW167479   8.505   7.778   3.132 -0.9284  0.0362 -0.4909
21316SOL    HW267480   8.466   7.830   3.269  0.4681 -1.4247  0.5072
21317SOL     OW67481   9.350  10.938   0.442 -0.1094 -0.1094  0.3984
21317SOL    HW167482   9.413  10.959   0.510  1.1770 -2.6248  0.1296
21317SOL    HW267483   9.392  10.966   0.361 -0.4649  0.4894  0.4193
21318SOL     OW67484   1.822  10.227   5.641  0.4940  0.3629  0.7901
21318SOL    HW167485   1.743  10.281   5.649  0.9036  1.4284 -1.3607
21318SOL    HW267486   1.792  10.137   5.651 -1.0552  0.7345 -0.1969
21319SOL     OW67487   3.222   1.904   5.577  0.3224  0.1968  0.5787
21319SOL    HW167488   3.306   1.875   5.544 -0.2647  0.2368 -1.0549
21319SOL    HW267489   3.197   1.838   5.641  0.5203 -1.1191 -0.6619
21320SOL     OW67490  10.099   0.714   6.682  0.5020  0.4922 -0.2999
21320SOL    HW167491  10.055   0.631   6.661 -2.7931  2.3934 -1.9085
21320SOL    HW267492  10.138   0.700   6.768 -0.4947 -2.5070 -0.2056
21321SOL     OW67493   6.854   0.895   0.926 -0.0259 -0.5534 -0.0325
21321SOL    HW167494   6.814   0.970   0.970 -1.5180 -1.3069 -0.0355
21321SOL    HW267495   6.836   0.909   0.833  1.0521 -0.1569 -0.1959
21322SOL     OW67496   6.286  10.836   0.777 -0.3080 -0.1546 -0.2164
21322SOL    HW167497   6.191  10.830   0.765 -0.0321 -0.2161 -2.8424
21322SOL    HW267498   6.316  10.891   0.706  1.6841 -0.3461  0.4196
21323SOL     OW67499   9.876   9.473   9.470  0.1084  0.2518 -0.0796
21323SOL    HW167500   9.782   9.477   9.489  0.2665 -0.5351  0.9534
21323SOL    HW267501   9.885   9.394   9.417  0.4054 -0.6805  1.3199
21324SOL     OW67502  10.522   3.982   4.313 -0.3965 -0.1064 -0.3169
21324SOL    HW167503  10.554   3.936   4.236  0.2113 -0.6437  0.2518
21324SOL    HW267504  10.596   4.035   4.342  0.7106 -2.7202  2.0758
21325SOL     OW67505   1.045   2.265   9.225 -0.8729 -0.1473  0.3424
21325SOL    HW167506   1.093   2.324   9.284  0.2436 -1.0686  0.3835
21325SOL    HW267507   0.980   2.223   9.280  0.1386 -0.9734  0.9548
21326SOL     OW67508   1.739   0.741   9.348 -0.2373 -0.0910  0.3179
21326SOL    HW167509   1.825   0.731   9.309 -0.0628 -0.1367  0.7083
21326SOL    HW267510   1.688   0.667   9.316 -0.6790  0.8804 -1.3381
21327SOL     OW67511   9.538   2.829   9.038 -0.7544 -0.4158 -0.2109
21327SOL    HW167512   9.486   2.909   9.050 -1.9312 -0.8550 -1.9571
21327SOL    HW267513   9.618   2.858   8.995 -1.0620 -0.1291 -0.5982
21328SOL     OW67514   9.915   5.494   8.764  0.1851 -0.2376  0.5263
21328SOL    HW167515   9.918   5.496   8.669  1.6690  0.3276  0.5772
21328SOL    HW267516   9.970   5.419   8.788  0.0394 -0.2095  0.9578
21329SOL     OW67517   6.853   0.551   2.811 -0.7037 -0.1872 -0.2147
21329SOL    HW167518   6.827   0.468   2.853 -0.5910 -0.9399 -1.5659
21329SOL    HW267519   6.794   0.558   2.736 -0.1910  0.5797 -0.5435
21330SOL     OW67520   6.116   0.357  10.507  0.7708 -0.1435  0.3207
21330SOL    HW167521   6.199   0.330  10.467  0.9100  2.1372 -1.1513
21330SOL    HW267522   6.140   0.434  10.559  0.5909 -2.8894  5.0536
21331SOL     OW67523   3.213   4.546   9.853  0.1000 -0.3465  0.1334
21331SOL    HW167524   3.244   4.555   9.763  1.1470  0.8773  0.5846
21331SOL    HW267525   3.276   4.596   9.905 -0.1965 -1.4557  1.6141
21332SOL     OW67526   2.068   0.981   2.406  0.4075  0.1462 -0.0115
21332SOL    HW167527   2.149   0.954   2.363 -0.0737 -2.0870  0.3638
21332SOL    HW267528   2.009   1.004   2.335  0.5956 -0.5846 -0.4118
21333SOL     OW67529   4.376   0.554   7.879 -0.1031  0.4466 -0.4963
21333SOL    HW167530   4.281   0.563   7.875 -0.2697 -0.5551  0.5907
21333SOL    HW267531   4.408   0.598   7.800 -1.4928  0.3573 -1.1387
21334SOL     OW67532   7.307   0.730   0.720 -0.2520  0.0790 -0.4126
21334SOL    HW167533   7.264   0.673   0.656  1.9510 -0.3138 -1.6668
21334SOL    HW267534   7.392   0.750   0.680 -0.1868  2.7389  0.8539
21335SOL     OW67535   9.105   4.019   6.386  0.1529  0.4694  0.4272
21335SOL    HW167536   9.135   4.095   6.336 -0.1952  0.8917  0.8443
21335SOL    HW267537   9.186   3.973   6.409  0.2666 -0.2419 -1.2775
21336SOL     OW67538   9.424   1.255   7.941 -0.5364 -0.0944  0.2543
21336SOL    HW167539   9.347   1.311   7.949  0.1310  0.8598  0.1690
21336SOL    HW267540   9.433   1.215   8.027 -1.1266 -0.2204  0.2639
21337SOL     OW67541   1.893   7.514   4.380 -0.8378 -0.2030 -0.2772
21337SOL    HW167542   1.893   7.596   4.429 -2.0805  1.0187 -2.1728
21337SOL    HW267543   1.809   7.474   4.399 -0.5398 -0.6739  0.0651
21338SOL     OW67544   0.528   4.059   9.593 -0.2224 -0.1194 -0.1031
21338SOL    HW167545   0.565   4.045   9.505 -1.0490 -2.2420 -0.1701
21338SOL    HW267546   0.462   4.126   9.581 -1.4674 -1.5070 -1.4961
21339SOL     OW67547   8.502  10.546   3.668  0.0450 -0.2292  0.0826
21339SOL    HW167548   8.488  10.452   3.683  0.0501 -0.4134 -1.0106
21339SOL    HW267549   8.428  10.573   3.613 -0.5485  0.6643  1.2598
21340SOL     OW67550   3.846   5.291   2.349  0.3501 -0.1475  0.2059
21340SOL    HW167551   3.871   5.240   2.272  1.3274  2.3905 -1.2661
21340SOL    HW267552   3.916   5.273   2.412 -0.0563 -1.6588  0.2612
21341SOL     OW67553   2.555   0.577   8.102 -0.2531 -0.1339  0.3786
21341SOL    HW167554   2.596   0.497   8.070  0.3753  0.5052 -0.4617
21341SOL    HW267555   2.466   0.574   8.067  0.3099  0.3741 -1.1774
21342SOL     OW67556   9.488   9.121   0.073  0.0690 -0.0146 -0.7300
21342SOL    HW167557   9.513   9.115   0.165  0.4360 -2.3007 -0.9119
21342SOL    HW267558   9.530   9.045   0.032 -4.1027 -2.0513 -1.7518
21343SOL     OW67559   5.709   6.730   7.227  0.3258 -0.3655 -0.1709
21343SOL    HW167560   5.666   6.790   7.165 -0.7703  0.2286  1.1164
21343SOL    HW267561   5.670   6.645   7.208 -0.8912  0.0280  0.4543
21344SOL     OW67562   8.205   5.952   5.547 -0.4799  0.0225  0.3661
21344SOL    HW167563   8.267   5.909   5.605  1.0182  2.2207  0.4807
21344SOL    HW267564   8.179   6.032   5.593 -3.0580 -0.5617  0.0899
21345SOL     OW67565   8.583  10.374   4.613 -0.2360  0.3369 -0.2963
21345SOL    HW167566   8.492  10.374   4.582 -0.5490  1.5403  0.5233
21345SOL    HW267567   8.595  10.461   4.651  1.0077 -0.0924  0.3636
21346SOL     OW67568   9.393   1.693   2.004 -0.0689  0.8134  0.1538
21346SOL    HW167569   9.436   1.668   2.086 -0.9218 -0.9355  0.1026
21346SOL    HW267570   9.449   1.761   1.968  1.7366 -0.2095  0.9045
21347SOL     OW67571   2.569   3.112   7.395  0.3363  0.0744  0.4619
21347SOL    HW167572   2.643   3.086   7.340  0.5692  0.1615  0.7315
21347SOL    HW267573   2.609   3.151   7.473  0.0163 -0.4521  0.8992
21348SOL     OW67574  10.330   0.241   4.496  0.1878  0.5905  0.1183
21348SOL    HW167575  10.273   0.166   4.517 -2.0616  1.7097 -1.4613
21348SOL    HW267576  10.293   0.314   4.546  0.5467  1.2335 -0.5415
21349SOL     OW67577   0.469   0.938   6.249 -0.9018  0.6151 -0.9336
21349SOL    HW167578   0.401   0.994   6.285 -1.4696  0.3180 -1.5180
21349SOL    HW267579   0.469   0.957   6.155 -0.6769  0.0918 -1.0451
21350SOL     OW67580   1.981   7.910   8.286 -0.1655  0.1967  0.3441
21350SOL    HW167581   2.076   7.921   8.285  0.0384 -1.2774  0.7817
21350SOL    HW267582   1.949   7.970   8.219  1.2468 -0.6146 -1.1301
21351SOL     OW67583   5.091   7.950   5.482  0.3676 -0.1541  0.4099
21351SOL    HW167584   5.054   8.036   5.461  2.2327  1.0206  1.6927
21351SOL    HW267585   5.064   7.934   5.573  0.9120 -0.4132  0.5297
21352SOL     OW67586   0.520   5.345   2.804 -0.0501  0.2684  0.3180
21352SOL    HW167587   0.458   5.370   2.873 -0.8655  0.4801 -0.4830
21352SOL    HW267588   0.514   5.250   2.799 -0.9672  0.3505 -0.3492
21353SOL     OW67589   8.609   2.675   3.199 -0.0137  0.1199  0.2439
21353SOL    HW167590   8.628   2.713   3.113  3.1603 -0.8814  0.3766
21353SOL    HW267591   8.565   2.746   3.247  1.3268  1.9495 -1.0720
21354SOL     OW67592   3.244   3.405   3.747  0.5227 -0.3265 -0.1065
21354SOL    HW167593   3.217   3.348   3.820 -1.6051 -2.2275 -2.1682
21354SOL    HW267594   3.318   3.359   3.707  0.6197 -0.1691 -0.1057
21355SOL     OW67595   7.755   3.664   8.771  0.5076 -0.2794 -0.3854
21355SOL    HW167596   7.666   3.644   8.743  0.6636 -0.1793 -0.9553
21355SOL    HW267597   7.750   3.666   8.867  0.2349 -1.8515 -0.3530
21356SOL     OW67598   0.726   4.311   4.254  0.4837 -0.1187  0.3257
21356SOL    HW167599   0.803   4.359   4.224 -0.0412  0.8210  0.4210
21356SOL    HW267600   0.655   4.344   4.199  0.1111 -0.8342  0.3666
21357SOL     OW67601   1.901   4.098   3.025  0.3618 -0.1417 -0.0378
21357SOL    HW167602   1.991   4.068   3.020  0.1657 -0.8873  0.6049
21357SOL    HW267603   1.855   4.027   3.071 -0.4523  0.4264  0.0491
21358SOL     OW67604   9.179   2.695   7.618  0.3491  0.6949 -0.0501
21358SOL    HW167605   9.091   2.722   7.644 -0.8943 -3.1571  0.3845
21358SOL    HW267606   9.237   2.749   7.672 -1.7800  1.9067  1.1757
21359SOL     OW67607   5.472   7.244   7.034  0.4663 -0.0318  0.0043
21359SOL    HW167608   5.568   7.238   7.030  0.4177 -0.2116 -1.0376
21359SOL    HW267609   5.441   7.173   6.979 -0.2418  1.0066 -0.9844
21360SOL     OW67610   8.718   3.337   4.397  0.0533 -0.1668  0.0674
21360SOL    HW167611   8.650   3.282   4.359  0.0926  0.8848 -1.6537
21360SOL    HW267612   8.672   3.417   4.423  0.5090  0.3244 -0.5909
21361SOL     OW67613   3.659  11.055   6.284  0.3146  0.0583 -0.3311
21361SOL    HW167614   3.631  11.130   6.232  1.3546 -0.2121 -1.3243
21361SOL    HW267615   3.635  11.078   6.374  0.4877  1.5202 -0.6282
21362SOL     OW67616   6.150  10.922   4.249 -0.4068 -0.3963  0.2116
21362SOL    HW167617   6.128  10.888   4.336 -0.9819 -1.5190 -0.3540
21362SOL    HW267618   6.103  10.866   4.188 -0.6038  0.8233 -0.8206
21363SOL     OW67619   6.252   9.545   5.095 -0.1037  0.1381  0.1464
21363SOL    HW167620   6.163   9.513   5.084  0.6599 -2.3294  0.3979
21363SOL    HW267621   6.296   9.520   5.013  0.4906  0.7982  0.2590
21364SOL     OW67622   2.851   4.275   6.840 -0.3378 -0.2673 -0.1627
21364SOL    HW167623   2.871   4.365   6.812 -2.0247  0.1507 -0.1952
21364SOL    HW267624   2.936   4.234   6.852  0.5501  1.8410  1.4826
21365SOL     OW67625  10.116   6.098   1.333  0.2974  0.3674 -0.8574
21365SOL    HW167626  10.206   6.074   1.357 -0.0042 -0.1335 -0.1767
21365SOL    HW267627  10.109   6.191   1.356  0.2957  0.1198  0.2361
21366SOL     OW67628   4.968   0.924   7.525  0.1125 -0.2101 -0.2553
21366SOL    HW167629   4.916   0.932   7.605 -0.7865 -0.8899 -0.7543
21366SOL    HW267630   4.969   1.012   7.489  0.3602  0.0639  0.3906
21367SOL     OW67631   4.357  11.068   2.979  0.3336  0.6325  0.1416
21367SOL    HW167632   4.262  11.063   2.979  0.3700 -0.1429 -0.1061
21367SOL    HW267633   4.384  11.035   2.893  0.8312  0.5911  0.3072
21368SOL     OW67634  10.081   1.544   4.373 -0.6081  0.1799  0.2617
21368SOL    HW167635  10.099   1.495   4.454 -1.4021 -4.0973 -1.8548
21368SOL    HW267636  10.163   1.541   4.325 -1.0580 -0.4058 -0.4901
21369SOL     OW67637   0.308   3.809   4.616 -0.2282 -0.7850 -0.4811
21369SOL    HW167638   0.386   3.775   4.661 -0.3901 -1.4213 -0.6754
21369SOL    HW267639   0.327   3.796   4.523  0.3838  1.1088 -0.6694
21370SOL     OW67640   7.463   7.990   2.890 -0.4203 -0.3217  0.4459
21370SOL    HW167641   7.406   8.063   2.917  1.0807  0.7682  0.7947
21370SOL    HW267642   7.537   7.994   2.951  0.6758 -0.8660 -0.8085
21371SOL     OW67643   9.521   0.075   5.307 -0.1408 -0.2046  0.5196
21371SOL    HW167644   9.611   0.106   5.298 -0.7558  1.1332 -1.9835
21371SOL    HW267645   9.527  -0.019   5.289  0.7962 -0.1728  0.5933
21372SOL     OW67646   7.108   3.330   9.591  0.0264  0.0566 -0.3066
21372SOL    HW167647   7.120   3.404   9.651  1.2888 -0.2167 -0.1927
21372SOL    HW267648   7.107   3.253   9.648 -1.8528 -0.0160 -0.3665
21373SOL     OW67649   4.299   3.520   3.865  0.8515 -0.1683 -0.0683
21373SOL    HW167650   4.294   3.615   3.858 -0.6186 -0.2723 -0.7785
21373SOL    HW267651   4.323   3.491   3.777 -2.4049 -0.6205 -0.9168
21374SOL     OW67652   3.580   1.549  10.676  0.0190  0.8555 -0.0262
21374SOL    HW167653   3.487   1.533  10.660  0.3158 -1.2999  0.1091
21374SOL    HW267654   3.597   1.509  10.761  0.8501  2.3202  0.5482
21375SOL     OW67655   9.499   6.417   0.594  0.3953 -0.0855 -0.0453
21375SOL    HW167656   9.499   6.482   0.664  0.8686  0.7916 -0.8358
21375SOL    HW267657   9.556   6.454   0.527 -0.8127 -0.4307 -1.3175
21376SOL     OW67658   5.098   4.846   2.982 -0.3484 -0.2525  0.3358
21376SOL    HW167659   5.080   4.852   2.888 -2.0403  0.5456  0.6723
21376SOL    HW267660   5.038   4.780   3.014  1.0630 -1.4089  0.6988
21377SOL     OW67661   4.956   4.677   3.490  0.0023  0.8171 -0.1594
21377SOL    HW167662   4.981   4.660   3.399 -0.1521  2.0378 -0.4507
21377SOL    HW267663   4.993   4.604   3.540 -0.6124 -0.3082 -1.2998
21378SOL     OW67664   9.689   4.316   9.129 -0.3309  0.0190  0.2258
21378SOL    HW167665   9.705   4.228   9.162 -1.7582  0.0219  0.9889
21378SOL    HW267666   9.684   4.306   9.034  0.8160 -0.4860  0.2023
21379SOL     OW67667   5.749   1.637   4.714 -0.3877 -0.2245  0.0724
21379SOL    HW167668   5.766   1.710   4.774  1.0774 -1.2185  0.9342
21379SOL    HW267669   5.769   1.558   4.765 -0.7923 -1.1849 -1.1934
21380SOL     OW67670   9.821   4.017   4.802 -0.4742  0.0184 -0.1240
21380SOL    HW167671   9.903   3.973   4.778  0.8912  2.0369  0.5199
21380SOL    HW267672   9.848   4.105   4.828 -2.6530  0.1944  1.9319
21381SOL     OW67673   3.167   2.449   5.878 -0.9975 -0.2737 -0.1587
21381SOL    HW167674   3.145   2.427   5.788 -0.1952 -0.5980 -0.2815
21381SOL    HW267675   3.196   2.367   5.917 -1.6173 -0.1970  0.4834
21382SOL     OW67676   0.005   9.658   3.245 -0.6078 -0.4096 -0.0413
21382SOL    HW167677   0.008   9.675   3.151  0.5916  0.9410  0.2096
21382SOL    HW267678   0.097   9.651   3.271 -0.9397 -1.4232  0.9328
21383SOL     OW67679   8.030   8.713   0.124 -0.5221 -0.1902  0.6770
21383SOL    HW167680   8.099   8.764   0.081 -0.0644 -0.0642  1.5176
21383SOL    HW267681   7.952   8.768   0.118 -0.8142 -0.7593 -1.1542
21384SOL     OW67682   3.557   0.342   5.383  0.2851  0.0430  0.4645
21384SOL    HW167683   3.624   0.275   5.396  0.9956  0.4626 -0.8392
21384SOL    HW267684   3.537   0.374   5.472 -1.4647 -3.1344  1.3573
21385SOL     OW67685   6.272   6.131   5.225 -0.0273 -0.1335  0.6730
21385SOL    HW167686   6.293   6.067   5.293  0.3347 -1.3643 -0.5325
21385SOL    HW267687   6.351   6.185   5.218 -0.0899  0.0424  1.2533
21386SOL     OW67688  10.880   5.797  10.173  0.2668 -0.6376 -0.5894
21386SOL    HW167689  10.785   5.795  10.162  0.0681  0.1738  0.8330
21386SOL    HW267690  10.898   5.879  10.218  1.3863 -1.8361  1.3186
21387SOL     OW67691   5.823   0.771  11.001  0.0732 -0.3978 -0.4286
21387SOL    HW167692   5.812   0.721  10.920  0.6788  1.6150 -1.8309
21387SOL    HW267693   5.911   0.749  11.031  0.3501 -0.1535 -1.0546
21388SOL     OW67694   5.267   3.012   6.968  0.0311 -0.0756 -0.1579
21388SOL    HW167695   5.227   2.937   7.012 -0.8282  0.7928  0.5967
21388SOL    HW267696   5.310   2.975   6.891 -0.1241 -1.3712  0.3507
21389SOL     OW67697   1.845   2.113   8.975 -0.0153 -0.3836 -0.0695
21389SOL    HW167698   1.829   2.199   9.014  1.5305  0.5813 -1.4423
21389SOL    HW267699   1.859   2.055   9.050 -1.4283  0.4539  0.8898
21390SOL     OW67700   1.786   8.426   9.669 -0.3097  0.3145  0.0691
21390SOL    HW167701   1.843   8.429   9.592  0.1915 -3.2359  0.1026
21390SOL    HW267702   1.698   8.417   9.633 -0.5351  2.3079  0.0108
21391SOL     OW67703   0.004   7.060   7.524  0.2735 -0.1672  0.5005
21391SOL    HW167704  -0.018   7.085   7.614 -0.6230 -1.6575  0.7381
21391SOL    HW267705  -0.077   7.076   7.475  1.0104  1.4380 -0.2491
21392SOL     OW67706   7.999   8.974  10.125  0.2720  0.1640 -0.1181
21392SOL    HW167707   7.955   8.901  10.168 -1.1505  0.0869 -1.6241
21392SOL    HW267708   8.089   8.943  10.112 -0.0699 -0.9545  0.0991
21393SOL     OW67709   0.260   9.014   1.061  0.5128  0.4230 -0.6370
21393SOL    HW167710   0.304   9.010   1.146  1.9466 -2.3450 -1.3931
21393SOL    HW267711   0.302   9.086   1.016  0.3983  1.3167  0.6301
21394SOL     OW67712   4.533   5.743   8.339  0.5114  0.4348  0.1708
21394SOL    HW167713   4.442   5.727   8.362 -0.2320  1.1960 -2.0300
21394SOL    HW267714   4.548   5.834   8.361  0.5499  0.4852 -0.0651
21395SOL     OW67715   1.505   3.878  10.905 -0.3418 -0.2757  0.0110
21395SOL    HW167716   1.573   3.827  10.948  0.0031  0.1032 -0.0906
21395SOL    HW267717   1.515   3.858  10.812 -0.6884 -0.6074  0.0430
21396SOL     OW67718   5.705   7.237   5.876  0.1579 -0.3762  0.3126
21396SOL    HW167719   5.776   7.268   5.820  1.3036 -2.4195  0.5129
21396SOL    HW267720   5.685   7.150   5.842 -1.9394 -0.0483  0.5903
21397SOL     OW67721   0.675   0.710   3.300 -0.3384  0.3691 -0.0933
21397SOL    HW167722   0.671   0.615   3.293 -1.0319  0.4778 -1.4485
21397SOL    HW267723   0.683   0.741   3.209  0.1023  1.5984  0.3353
21398SOL     OW67724   7.951   9.953   8.127  0.5516 -0.0219 -0.5443
21398SOL    HW167725   8.020   9.977   8.066  1.7117  0.1339  0.7874
21398SOL    HW267726   7.992   9.957   8.213 -1.3526  1.0056  0.3885
21399SOL     OW67727   1.606   5.123   8.948 -0.2658  0.1910  0.3172
21399SOL    HW167728   1.683   5.114   8.892 -0.5503  1.3528 -0.2841
21399SOL    HW267729   1.540   5.163   8.892 -0.7172  0.9001  1.3249
21400SOL     OW67730   9.893   9.001   5.278  0.0700  0.8973  0.2942
21400SOL    HW167731   9.896   9.025   5.371  0.0289 -1.5943  1.0062
21400SOL    HW267732   9.948   8.923   5.271 -1.1828  0.1021 -1.4504
21401SOL     OW67733   9.988   6.460   0.501 -0.0885  0.0742 -0.0051
21401SOL    HW167734  10.004   6.482   0.409 -0.4459 -2.0156 -0.6442
21401SOL    HW267735  10.011   6.367   0.507  0.3987  0.2859  2.1640
21402SOL     OW67736   6.548   1.883   6.310  0.2368 -0.1408  0.3595
21402SOL    HW167737   6.573   1.828   6.385  0.3640  0.5969  0.8674
21402SOL    HW267738   6.463   1.848   6.282  0.2538 -0.5108  0.7524
21403SOL     OW67739   9.242   4.180   4.303 -0.1883  0.1106  0.0398
21403SOL    HW167740   9.325   4.195   4.349 -1.3843  1.1655  1.9828
21403SOL    HW267741   9.203   4.267   4.296 -2.5082 -0.6713  1.9507
21404SOL     OW67742   7.669   0.330   9.606 -0.0513 -0.0173  0.5440
21404SOL    HW167743   7.738   0.274   9.569  0.2248  0.0457  0.9559
21404SOL    HW267744   7.684   0.327   9.700 -0.0175  0.7711  0.5731
21405SOL     OW67745   0.489   0.887   8.666 -0.1902 -0.2710  0.4379
21405SOL    HW167746   0.403   0.912   8.631  0.2946  0.7670 -0.0736
21405SOL    HW267747   0.506   0.801   8.628  1.2020  1.5562 -3.7719
21406SOL     OW67748   8.853   5.009   6.698 -0.4116  0.3649  0.4094
21406SOL    HW167749   8.835   4.958   6.776 -0.4968  1.0539  0.8467
21406SOL    HW267750   8.786   4.981   6.635  0.2042 -0.8352  0.2666
21407SOL     OW67751   5.156  10.903   7.543 -0.0564 -0.4663  0.4746
21407SOL    HW167752   5.077  10.929   7.496 -0.8810  0.9209  2.4860
21407SOL    HW267753   5.198  10.986   7.567  0.9423 -1.1433  1.1562
21408SOL     OW67754   3.157   6.615   6.994  0.1554 -0.4242  0.2309
21408SOL    HW167755   3.150   6.563   7.074 -0.0083 -1.2844 -0.3257
21408SOL    HW267756   3.230   6.675   7.010  0.8033 -1.2988  0.6360
21409SOL     OW67757   5.429   9.067   3.396 -0.3435 -0.6584 -0.3329
21409SOL    HW167758   5.415   9.041   3.487 -0.4332 -0.1318 -0.1919
21409SOL    HW267759   5.503   9.127   3.399 -1.2072  0.4540 -0.4015
21410SOL     OW67760   0.208   6.236   2.188 -0.2235  0.4022  0.6485
21410SOL    HW167761   0.223   6.306   2.251  1.2383  1.2999 -0.6262
21410SOL    HW267762   0.170   6.279   2.111  0.2388 -0.2631  0.0258
21411SOL     OW67763   5.896   4.545   0.875  0.6429 -0.0892 -0.6723
21411SOL    HW167764   5.805   4.531   0.900 -0.0105 -0.4626 -3.0519
21411SOL    HW267765   5.905   4.641   0.871  0.6439 -0.0270  0.4181
21412SOL     OW67766   8.523   7.264   5.490 -0.1999  0.2172  0.7833
21412SOL    HW167767   8.565   7.266   5.576  0.1313 -1.6832  0.7068
21412SOL    HW267768   8.584   7.216   5.434 -1.2553 -0.2686 -0.0067
21413SOL     OW67769   5.125   0.673   6.031  0.0072 -0.1090  0.0334
21413SOL    HW167770   5.063   0.743   6.010  0.3466  0.9710  2.2593
21413SOL    HW267771   5.175   0.659   5.950 -1.6257  0.5504 -1.1392
21414SOL     OW67772   3.643  10.561   8.820 -0.2597 -0.0921  0.2757
21414SOL    HW167773   3.668  10.513   8.899  1.7781  1.5152  0.7180
21414SOL    HW267774   3.655  10.499   8.749 -1.5002 -1.3727  1.1299
21415SOL     OW67775   5.134   6.348   6.983 -0.4198  0.0084  0.2654
21415SOL    HW167776   5.048   6.325   7.018 -0.6207 -0.4205 -0.5050
21415SOL    HW267777   5.193   6.282   7.020 -0.4869  0.0511  0.4531
21416SOL     OW67778   5.815   0.695   4.448 -0.1380  0.0821 -0.7745
21416SOL    HW167779   5.862   0.710   4.365  0.6981  0.3346 -0.2647
21416SOL    HW267780   5.884   0.678   4.512 -0.7347  0.5714  0.0147
21417SOL     OW67781  11.083   4.996   6.707  0.4692 -0.2362  0.0924
21417SOL    HW167782  11.006   4.943   6.682  0.1633 -0.2561  1.0192
21417SOL    HW267783  11.061   5.029   6.794  2.3800 -1.9898  1.3515
21418SOL     OW67784   6.885  10.750   4.954 -0.7166  0.2687  0.2893
21418SOL    HW167785   6.957  10.773   4.895  0.4515 -0.2498  1.4479
21418SOL    HW267786   6.814  10.723   4.897  0.9684 -1.9612 -0.9011
21419SOL     OW67787   2.788   1.278   4.052 -0.3959  0.4580 -0.1870
21419SOL    HW167788   2.759   1.191   4.026 -1.3421  0.5494  0.4968
21419SOL    HW267789   2.846   1.307   3.981 -1.3533 -0.0629 -1.2065
21420SOL     OW67790   5.096   8.314   7.369  0.8555 -0.7940 -0.0890
21420SOL    HW167791   5.181   8.357   7.354  1.0087 -1.1707 -0.3244
21420SOL    HW267792   5.096   8.240   7.308 -0.7207  0.6755 -2.0321
21421SOL     OW67793   7.159   0.710  10.255 -0.7913 -0.1772  0.4203
21421SOL    HW167794   7.078   0.676  10.293 -1.4205 -0.6362 -1.2480
21421SOL    HW267795   7.133   0.791  10.211 -0.1114  0.2569  0.7960
21422SOL     OW67796   8.100  10.251   9.688  0.5538 -0.3961  0.6529
21422SOL    HW167797   8.167  10.319   9.681  0.7821 -0.7550 -0.9146
21422SOL    HW267798   8.046  10.262   9.609 -0.3809 -1.0111  1.1843
21423SOL     OW67799   2.148   3.694   0.997  0.1835  0.0595  0.0904
21423SOL    HW167800   2.205   3.662   1.067  3.0632  3.6316 -0.2842
21423SOL    HW267801   2.203   3.691   0.918 -1.0269  1.1963 -0.8458
21424SOL     OW67802  10.549   1.476   0.847 -0.1021  0.0805 -0.2725
21424SOL    HW167803  10.632   1.519   0.868  0.9702 -2.3951  1.0801
21424SOL    HW267804  10.499   1.481   0.929 -1.0461  0.9547 -0.8781
21425SOL     OW67805   5.104   4.606   4.204 -0.1356 -0.6997 -0.2270
21425SOL    HW167806   5.071   4.613   4.293  0.4811 -0.3250 -0.0203
21425SOL    HW267807   5.197   4.584   4.214  0.1406  0.1794 -0.7508
21426SOL     OW67808   6.258   9.025   4.043  0.0021  0.0824 -0.0274
21426SOL    HW167809   6.172   9.056   4.016  0.1577  0.1926 -0.3945
21426SOL    HW267810   6.241   8.938   4.079 -0.1028 -0.3879 -1.1843
21427SOL     OW67811   7.926   0.531   0.387  0.3179 -0.0720 -0.2355
21427SOL    HW167812   7.897   0.575   0.308 -3.6439  0.0070  1.0504
21427SOL    HW267813   7.924   0.438   0.365 -0.3153 -0.0233 -0.4017
21428SOL     OW67814   7.155   4.121   1.876 -0.0964 -0.1854  0.2220
21428SOL    HW167815   7.167   4.109   1.971 -0.1392 -0.7785  0.1552
21428SOL    HW267816   7.183   4.038   1.838 -0.6742 -0.1688 -0.2443
21429SOL     OW67817  10.472   5.043   7.008  0.6425 -0.7064  0.4648
21429SOL    HW167818  10.455   5.091   6.927 -4.8050 -0.0864  1.6179
21429SOL    HW267819  10.484   5.111   7.075  0.7368 -1.1121  0.8700
21430SOL     OW67820   5.844   7.860   9.672 -0.0223  0.0894  0.2920
21430SOL    HW167821   5.815   7.815   9.751  0.8452  0.4077  0.8001
21430SOL    HW267822   5.831   7.797   9.601 -0.6936 -0.2350  0.6992
21431SOL     OW67823   9.818   8.484   7.761 -0.2042 -0.0242 -0.2403
21431SOL    HW167824   9.784   8.399   7.734 -0.9454 -0.1266  0.9277
21431SOL    HW267825   9.754   8.547   7.728  0.8046  0.1815 -1.8791
21432SOL     OW67826   4.159   7.681   6.419  0.1669 -0.0540  0.3007
21432SOL    HW167827   4.120   7.597   6.444 -0.5416  0.6195  1.5522
21432SOL    HW267828   4.085   7.733   6.386  0.5191  0.2461 -0.0366
21433SOL     OW67829   4.790  11.018   5.795  0.2296 -0.2710  0.6547
21433SOL    HW167830   4.852  11.022   5.868  1.0789  0.1772 -0.0680
21433SOL    HW267831   4.706  10.998   5.836  0.8112 -0.7045  1.6827
21434SOL     OW67832  10.276   0.944   8.957  0.1528  0.4530  0.1210
21434SOL    HW167833  10.266   0.849   8.951  2.8729  0.0647  0.2637
21434SOL    HW267834  10.275   0.962   9.052  2.7482  0.0407  0.3024
21435SOL     OW67835   4.443   9.826   5.098 -0.6420  0.0396  0.0620
21435SOL    HW167836   4.531   9.845   5.128 -0.3690 -1.1420  0.0247
21435SOL    HW267837   4.389   9.829   5.177 -0.2674 -1.0105  0.3646
21436SOL     OW67838   8.710   3.550   5.652 -0.6517  0.2302 -0.1254
21436SOL    HW167839   8.780   3.497   5.613 -0.1773 -0.3289  1.4136
21436SOL    HW267840   8.634   3.492   5.655 -0.9013  0.5061 -0.8458
21437SOL     OW67841   2.186   7.816  11.014 -0.1368 -0.6918 -0.3706
21437SOL    HW167842   2.276   7.805  11.045  0.1866  1.3684 -0.4205
21437SOL    HW267843   2.161   7.730  10.980  1.3897 -1.5996  0.7137
21438SOL     OW67844   9.564   8.688   3.544 -0.0443  0.1113  0.2171
21438SOL    HW167845   9.547   8.717   3.454  1.3696  1.7044  0.4187
21438SOL    HW267846   9.509   8.746   3.598  0.3854  0.2924  0.4603
21439SOL     OW67847   0.896   0.305   6.950 -0.0824  0.1537 -0.2013
21439SOL    HW167848   0.810   0.274   6.977 -0.2752  0.0252 -0.9352
21439SOL    HW267849   0.906   0.272   6.861  0.6520  0.3201 -0.1847
21440SOL     OW67850   8.949   6.722   6.868 -0.3030  0.0228 -0.1069
21440SOL    HW167851   9.006   6.691   6.939 -0.5725  0.3828  0.2746
21440SOL    HW267852   9.008   6.768   6.808  0.1870 -1.6093 -0.9362
21441SOL     OW67853   8.670   7.384   3.587  0.1282 -0.2593  0.1902
21441SOL    HW167854   8.599   7.383   3.523  1.2297 -2.2944 -1.1181
21441SOL    HW267855   8.650   7.311   3.646 -0.1858  0.7749  1.3787
21442SOL     OW67856  11.081   9.160   7.222  0.2805 -0.1593 -0.7044
21442SOL    HW167857  11.064   9.096   7.153  1.6416 -1.2682 -0.0562
21442SOL    HW267858  11.048   9.119   7.302  0.8111  0.1140 -0.3416
21443SOL     OW67859   0.351   0.906  10.719  0.0783  0.2432 -0.1729
21443SOL    HW167860   0.326   0.898  10.626 -1.8789 -2.1830  0.4359
21443SOL    HW267861   0.269   0.927  10.764  0.9584  1.1418  1.0572
21444SOL     OW67862   7.148   0.156   4.462 -0.0474  0.1323  0.6425
21444SOL    HW167863   7.073   0.146   4.520 -0.4020 -1.7227 -0.0815
21444SOL    HW267864   7.121   0.116   4.380  1.2294  0.7434 -0.1145
21445SOL     OW67865   8.906   7.068   6.832  0.0234  0.4377  0.3066
21445SOL    HW167866   8.859   7.152   6.839 -1.3347 -0.1716 -0.9482
21445SOL    HW267867   8.857   7.009   6.889  1.2628  0.5722  1.5651
21446SOL     OW67868   4.890   1.576   8.240 -0.3140  0.2513  0.3673
21446SOL    HW167869   4.832   1.646   8.269 -1.3287 -0.6426  0.5497
21446SOL    HW267870   4.858   1.554   8.153 -1.3600 -1.3963  1.1332
21447SOL     OW67871  10.215   7.183  10.748 -0.7420 -0.0875 -0.5070
21447SOL    HW167872  10.216   7.183  10.652 -0.0447 -1.4344 -0.5263
21447SOL    HW267873  10.222   7.276  10.772  2.7617  0.1564 -1.7811
21448SOL     OW67874   7.887   5.824   5.252 -0.3950 -0.0674 -0.3660
21448SOL    HW167875   7.802   5.848   5.289  0.2956 -0.1546  1.3666
21448SOL    HW267876   7.950   5.878   5.300  0.3979  2.1190 -3.5135
21449SOL     OW67877   7.763   2.741   9.945 -0.5120 -0.8432  0.1679
21449SOL    HW167878   7.760   2.670  10.009  1.9827  0.3962  1.8326
21449SOL    HW267879   7.856   2.749   9.923 -0.9889  0.5952 -1.5388
21450SOL     OW67880   8.828   2.312   5.322 -0.7847  0.0640 -0.0516
21450SOL    HW167881   8.903   2.255   5.333 -0.6063  0.4058  0.5986
21450SOL    HW267882   8.755   2.265   5.363 -0.6809  0.2169  0.3095
21451SOL     OW67883   2.267  10.419   1.552 -0.1067 -0.0004 -0.0536
21451SOL    HW167884   2.223  10.380   1.477 -0.8095 -0.3460  0.5352
21451SOL    HW267885   2.307  10.345   1.598  3.2223  0.4697 -1.8638
21452SOL     OW67886   2.322   6.875   1.725  0.6063  0.1754 -0.5764
21452SOL    HW167887   2.410   6.897   1.693  0.2479 -0.0015 -1.7323
21452SOL    HW267888   2.312   6.782   1.706  0.9247 -0.3140  1.4418
21453SOL     OW67889   0.638   2.173   0.747 -0.8128  0.1736  0.3277
21453SOL    HW167890   0.586   2.227   0.807 -1.0798 -0.9106  1.1099
21453SOL    HW267891   0.695   2.122   0.804 -3.0261 -2.9630 -0.0412
21454SOL     OW67892   6.240   2.203   2.625  0.0904 -0.0925 -0.1455
21454SOL    HW167893   6.227   2.109   2.617 -1.3889  0.1417 -0.6741
21454SOL    HW267894   6.206   2.239   2.544 -3.7399  1.2806  1.8476
21455SOL     OW67895   6.567   5.487   5.164 -0.4066 -0.8068  0.1566
21455SOL    HW167896   6.637   5.422   5.170  0.0404 -0.4267 -0.8857
21455SOL    HW267897   6.500   5.454   5.224  0.2055 -1.7323  0.3609
21456SOL     OW67898   9.714   5.728   8.469 -0.1950 -0.1831 -0.7190
21456SOL    HW167899   9.805   5.745   8.444 -0.3133  2.6805  0.4465
21456SOL    HW267900   9.718   5.708   8.563 -0.8545  1.5011 -0.2990
21457SOL     OW67901   9.808   6.382   6.116  0.2489 -0.2601 -0.5796
21457SOL    HW167902   9.768   6.313   6.170 -0.9643 -0.0956 -1.2383
21457SOL    HW267903   9.822   6.454   6.176  1.8837 -1.1856  0.2083
21458SOL     OW67904   0.918   8.160   0.185  0.3168  0.0229 -0.3329
21458SOL    HW167905   0.913   8.142   0.091  1.9195  0.4418 -0.5237
21458SOL    HW267906   0.919   8.073   0.226 -2.1719 -0.1831 -0.5234
21459SOL     OW67907   2.600   3.827   4.796  0.0154 -0.3705  0.4838
21459SOL    HW167908   2.570   3.741   4.827 -0.6619 -0.3910 -0.1943
21459SOL    HW267909   2.558   3.837   4.710  1.8295 -0.3163 -0.4346
21460SOL     OW67910   3.693   7.085   8.772 -0.3220  0.7740 -0.1901
21460SOL    HW167911   3.703   7.180   8.767 -0.2828  0.7651 -0.2705
21460SOL    HW267912   3.620   7.066   8.714 -0.4725  0.7799 -0.0055
21461SOL     OW67913  10.186   7.895   1.937  0.1683  0.3769  0.2845
21461SOL    HW167914  10.153   7.831   2.000 -1.8281 -0.0915 -1.1431
21461SOL    HW267915  10.166   7.980   1.977  0.0310  0.0980  0.8215
21462SOL     OW67916   9.100   7.242   3.227 -0.3210 -0.1669  0.0012
21462SOL    HW167917   9.178   7.292   3.201 -0.4615  0.4058  0.6556
21462SOL    HW267918   9.033   7.309   3.241 -1.6319 -0.7648 -2.7610
21463SOL     OW67919   2.403   2.611   2.071  0.0396 -0.1191  0.0909
21463SOL    HW167920   2.413   2.667   2.148 -0.1139  0.3283 -0.2070
21463SOL    HW267921   2.481   2.556   2.071 -0.4780 -0.8837  1.1717
21464SOL     OW67922   6.806   6.873   8.588  0.7211 -0.5848 -0.2902
21464SOL    HW167923   6.869   6.937   8.555 -0.0862  0.9213  0.9167
21464SOL    HW267924   6.856   6.793   8.598  2.2073  0.3068 -0.2958
21465SOL     OW67925   7.613   2.498   2.571  0.0362  0.4868 -0.2484
21465SOL    HW167926   7.588   2.543   2.652  1.5714  2.8027 -0.9345
21465SOL    HW267927   7.708   2.489   2.578  0.1987  0.7841 -1.7840
21466SOL     OW67928  10.026   6.445   4.801  0.2415 -0.0974 -0.1170
21466SOL    HW167929  10.088   6.460   4.873  1.9310 -1.6516 -1.1706
21466SOL    HW267930  10.064   6.493   4.727  0.1955 -1.0380 -0.7672
21467SOL     OW67931   2.179   7.736  10.671  0.2321 -0.5653 -0.0805
21467SOL    HW167932   2.160   7.666  10.734 -0.7092 -0.5240 -0.3051
21467SOL    HW267933   2.200   7.812  10.726  1.5339 -1.0744  0.1655
21468SOL     OW67934   2.149   4.765   6.598 -0.4488 -0.0047  0.3178
21468SOL    HW167935   2.149   4.691   6.658  0.9012 -0.9548 -0.7900
21468SOL    HW267936   2.114   4.838   6.650  0.4459 -0.8381  2.1793
21469SOL     OW67937   8.210   7.775   7.477  0.3938 -0.3810  0.1986
21469SOL    HW167938   8.272   7.755   7.546  2.6887  1.0468 -1.2951
21469SOL    HW267939   8.220   7.869   7.462 -1.6925 -0.2263 -0.5544
21470SOL     OW67940   1.427   7.691   7.110 -0.3980 -0.6064 -0.3127
21470SOL    HW167941   1.440   7.735   7.194  0.6178  0.1987 -0.8688
21470SOL    HW267942   1.383   7.608   7.133 -0.9647 -0.0016  0.9025
21471SOL     OW67943   3.937   9.040   5.343  0.1457  0.5421  0.0823
21471SOL    HW167944   3.994   9.004   5.412  0.3432  2.2765  0.8646
21471SOL    HW267945   3.870   8.973   5.330 -0.3323  0.4615  2.5062
21472SOL     OW67946   1.401   3.672  11.116  0.1887  0.0597  0.0991
21472SOL    HW167947   1.429   3.755  11.154 -1.7244  0.4850  0.7046
21472SOL    HW267948   1.340   3.636  11.180 -0.1365 -1.1055 -0.8275
21473SOL     OW67949  10.505  10.694   0.947  0.1660 -0.3238 -0.7371
21473SOL    HW167950  10.558  10.630   0.994 -0.5724 -0.7693 -0.5032
21473SOL    HW267951  10.520  10.776   0.994  0.3728 -0.5155 -0.4640
21474SOL     OW67952   1.883   0.698   0.315 -0.9888  0.2089  0.1390
21474SOL    HW167953   1.954   0.635   0.322 -1.2708 -0.1537 -0.2337
21474SOL    HW267954   1.883   0.725   0.224 -1.0787  0.5041  0.2258
21475SOL     OW67955   0.833   6.863   2.463  0.5349  0.2589  0.0443
21475SOL    HW167956   0.822   6.856   2.368 -2.2030  0.0967  0.3018
21475SOL    HW267957   0.880   6.945   2.475  0.2727  0.6575 -1.4257
21476SOL     OW67958   1.611  10.072   9.986  0.1273  0.3328 -0.0463
21476SOL    HW167959   1.530  10.022   9.982  0.9763 -1.1515  0.4382
21476SOL    HW267960   1.583  10.163   9.995 -1.4702  0.0404 -1.5991
21477SOL     OW67961   5.543   4.234   8.355  0.2802  0.1817  0.0405
21477SOL    HW167962   5.518   4.210   8.266 -0.4328  1.2126 -0.0669
21477SOL    HW267963   5.461   4.228   8.405  0.2641  1.3854  0.2002
21478SOL     OW67964   8.755   7.384   1.491 -0.3081  0.3312 -0.1732
21478SOL    HW167965   8.779   7.323   1.561 -1.1473  0.7114  0.4675
21478SOL    HW267966   8.691   7.336   1.438  0.4154 -0.0005 -0.7769
21479SOL     OW67967  10.192  10.965   0.638 -0.0094  0.4315  0.4883
21479SOL    HW167968  10.195  10.869   0.635 -1.7690  0.3672 -0.0814
21479SOL    HW267969  10.284  10.992   0.636  0.4929 -1.2198 -0.4554
21480SOL     OW67970   3.560   1.984   1.493  0.3844  0.1622  0.3564
21480SOL    HW167971   3.551   1.889   1.490 -2.4019  0.3336  0.2998
21480SOL    HW267972   3.479   2.016   1.453  0.4507  2.5458  1.9724
21481SOL     OW67973   0.802   8.272   7.742 -0.3314 -0.2114  0.1284
21481SOL    HW167974   0.898   8.279   7.737 -0.3332 -0.1250  0.2110
21481SOL    HW267975   0.784   8.266   7.836 -0.4281  0.0450  0.1251
21482SOL     OW67976   7.297   5.741   6.425 -0.2356 -0.4976  0.1167
21482SOL    HW167977   7.220   5.710   6.472 -1.2784 -1.6730 -2.1854
21482SOL    HW267978   7.345   5.661   6.403  2.1446  0.2463  2.1604
21483SOL     OW67979   4.060   2.973   9.555  0.4512  0.2041 -0.4904
21483SOL    HW167980   4.053   2.923   9.636 -3.3082 -1.4257 -1.5869
21483SOL    HW267981   4.086   3.060   9.583 -1.2376 -0.1271  2.5748
21484SOL     OW67982  10.732   4.632   4.007 -0.5163 -0.0217  0.1161
21484SOL    HW167983  10.761   4.552   4.050 -1.4677 -0.1856  0.4745
21484SOL    HW267984  10.705   4.604   3.920 -0.1143  0.0432 -0.0318
21485SOL     OW67985   7.501   5.979   4.319 -0.2649  0.1740 -0.2477
21485SOL    HW167986   7.558   6.024   4.381  1.5536  0.4862 -2.0237
21485SOL    HW267987   7.413   6.010   4.339  0.4655  1.4514  1.1372
21486SOL     OW67988   4.069   9.302   3.384  0.9034 -0.1727  0.0263
21486SOL    HW167989   4.077   9.217   3.428  0.4829 -1.3477 -2.0541
21486SOL    HW267990   3.976   9.322   3.386  0.8071 -0.5168 -0.8247
21487SOL     OW67991   5.878   6.471   8.601 -0.0484  0.1784  0.0456
21487SOL    HW167992   5.782   6.473   8.598 -0.0780 -1.0181 -1.4571
21487SOL    HW267993   5.905   6.547   8.550 -0.1544  1.1292  1.3586
21488SOL     OW67994   4.298   0.012   5.652  0.3067  0.3616  0.3817
21488SOL    HW167995   4.253  -0.061   5.695  1.1234 -0.8546 -0.7321
21488SOL    HW267996   4.364   0.039   5.716  0.6849 -0.5881  0.4122
21489SOL     OW67997   3.814   3.165   4.777 -0.3054  0.2601  0.0483
21489SOL    HW167998   3.826   3.131   4.866  1.6447  0.3825 -0.1159
21489SOL    HW267999   3.889   3.223   4.763 -1.3974  1.4342 -1.1464
21490SOL     OW68000   9.419   4.643   7.043  0.0433  0.6981  0.3106
21490SOL    HW168001   9.480   4.664   7.114 -0.5412  0.0672  1.0143
21490SOL    HW268002   9.475   4.611   6.973  0.4927 -1.0412  1.3768
21491SOL     OW68003   4.222   3.363   6.299  0.4111 -0.3535  0.2381
21491SOL    HW168004   4.130   3.369   6.324 -0.0306 -0.6911 -1.2175
21491SOL    HW268005   4.255   3.453   6.306 -0.6356  0.2046 -1.3412
21492SOL     OW68006   8.418   3.593   0.076  0.2578 -0.2526 -0.3310
21492SOL    HW168007   8.480   3.552   0.016  1.1476  2.0138 -1.0727
21492SOL    HW268008   8.375   3.520   0.119 -0.3224 -2.0514 -3.5944
21493SOL     OW68009   5.966   7.666   2.437  0.4098  0.0951  0.1316
21493SOL    HW168010   6.040   7.630   2.389  1.3172  2.0529 -0.0399
21493SOL    HW268011   5.951   7.605   2.509  1.8054 -0.6382 -0.1770
21494SOL     OW68012   6.927   6.619   0.486  0.4275 -1.4851 -0.0465
21494SOL    HW168013   6.939   6.642   0.578 -0.8710 -2.4448  0.3927
21494SOL    HW268014   6.864   6.683   0.453 -0.0722 -1.9038  0.0824
21495SOL     OW68015   3.134   2.235   3.341  0.1131  0.3399  0.0511
21495SOL    HW168016   3.216   2.272   3.374  0.6738 -1.2931  0.5943
21495SOL    HW268017   3.090   2.309   3.298  1.3060  1.5260  0.7891
21496SOL     OW68018  10.594   1.725   1.558 -0.2958 -0.2513  0.6004
21496SOL    HW168019  10.591   1.681   1.643  3.1006  0.8474  1.4575
21496SOL    HW268020  10.650   1.802   1.572  1.2073 -0.5250 -2.8084
21497SOL     OW68021   0.896  10.829   8.200 -0.1071  0.0503  0.7398
21497SOL    HW168022   0.956  10.848   8.272  1.3324 -0.3841 -0.2889
21497SOL    HW268023   0.883  10.914   8.157  0.3850  0.0150  0.5187
21498SOL     OW68024   0.453   3.932   0.433  0.0832 -0.5425 -0.1824
21498SOL    HW168025   0.543   3.904   0.451  0.2602  0.5350  0.6964
21498SOL    HW268026   0.447   4.020   0.469 -1.4290 -0.7155  0.0781
21499SOL     OW68027   3.627   2.211   3.554 -0.2452 -0.0253  0.7104
21499SOL    HW168028   3.680   2.148   3.504  0.1393  0.9414 -0.1528
21499SOL    HW268029   3.619   2.172   3.641  1.0530 -0.6644  0.5717
21500SOL     OW68030   4.566  10.037   4.880 -0.3863  0.5939 -0.1793
21500SOL    HW168031   4.562  10.052   4.974  1.1118 -0.4876  0.0829
21500SOL    HW268032   4.654  10.002   4.864 -1.1953 -0.8832 -1.7348
21501SOL     OW68033   1.533   2.794   7.659  0.3568 -0.0407  0.2311
21501SOL    HW168034   1.461   2.857   7.666 -0.1704 -0.4529 -1.1707
21501SOL    HW268035   1.592   2.818   7.730 -0.7984  0.7796  0.9585
21502SOL     OW68036   3.900   2.181   7.937 -0.5050 -0.0299 -0.6836
21502SOL    HW168037   3.923   2.272   7.955  0.4313 -0.3268 -0.3234
21502SOL    HW268038   3.860   2.149   8.018  0.5653 -0.3635 -0.2585
21503SOL     OW68039   0.100   7.238   3.879  0.1661 -0.3013  0.2925
21503SOL    HW168040   0.035   7.201   3.938 -0.8389  0.3938 -0.3436
21503SOL    HW268041   0.120   7.324   3.915 -1.4124  0.6694 -1.0144
21504SOL     OW68042   8.652   3.753   0.163  0.9527  0.1092  0.2221
21504SOL    HW168043   8.705   3.705   0.226 -0.3201 -0.2141  1.0795
21504SOL    HW268044   8.569   3.705   0.160  0.0451  1.6149  0.2679
21505SOL     OW68045  10.424  10.142   7.814  0.2118  0.3765 -0.0964
21505SOL    HW168046  10.384  10.056   7.812  0.7614  0.0582  1.2185
21505SOL    HW268047  10.497  10.133   7.876  1.7193  1.1815 -1.6769
21506SOL     OW68048   9.235   0.909   4.668  0.0490  0.1498 -0.2108
21506SOL    HW168049   9.300   0.840   4.654 -0.6683 -0.5761  0.0094
21506SOL    HW268050   9.240   0.929   4.761  0.5305  0.6854 -0.3431
21507SOL     OW68051  10.771   8.848   2.465  0.3831 -0.7591  0.1863
21507SOL    HW168052  10.824   8.892   2.533  1.7293  0.3056 -1.4533
21507SOL    HW268053  10.814   8.872   2.383 -0.6886 -2.7000 -1.0122
21508SOL     OW68054   5.763   4.619  10.188 -0.3084 -0.1136 -0.2340
21508SOL    HW168055   5.766   4.576  10.102  1.9101  1.8422 -1.2496
21508SOL    HW268056   5.756   4.712  10.168  1.2204  0.4604  1.6379
21509SOL     OW68057   2.612   7.598   1.601  0.0015 -0.2365  0.1053
21509SOL    HW168058   2.644   7.546   1.675  0.1802 -1.6385 -0.9017
21509SOL    HW268059   2.687   7.650   1.574  0.0862 -0.1007  0.5817
21510SOL     OW68060  10.749   9.378   8.742  0.2884 -0.2745  1.0985
21510SOL    HW168061  10.802   9.450   8.707 -0.1301 -0.8540 -0.8825
21510SOL    HW268062  10.696   9.350   8.667 -0.1963 -2.0640  2.0727
21511SOL     OW68063   9.990  10.064   5.061  0.2693  0.0571  0.4852
21511SOL    HW168064  10.019   9.973   5.066  1.0830  0.3586  1.8943
21511SOL    HW268065   9.971  10.078   4.969  1.1792 -1.2372  0.0687
21512SOL     OW68066  10.705   4.861   7.545 -0.4879 -0.0815 -0.2484
21512SOL    HW168067  10.663   4.789   7.592  3.0795 -1.9395  0.4297
21512SOL    HW268068  10.735   4.821   7.463  3.3583 -0.1679  1.0006
21513SOL     OW68069   1.831   1.363  10.356  0.2112 -0.1653  0.2654
21513SOL    HW168070   1.917   1.390  10.326  0.3312 -0.4509  0.3497
21513SOL    HW268071   1.808   1.426  10.424 -0.0436  0.4567 -0.3914
21514SOL     OW68072   0.696   3.929   4.884 -0.0578  0.0985  0.0087
21514SOL    HW168073   0.674   3.984   4.959 -0.8875 -0.3700  0.1270
21514SOL    HW268074   0.726   3.990   4.816  0.6397  0.5304  0.6887
21515SOL     OW68075   5.949   0.921   8.243  0.1882  0.0451  0.0233
21515SOL    HW168076   5.957   0.985   8.313  1.2909  1.1049 -1.0197
21515SOL    HW268077   5.870   0.872   8.264 -1.1833  2.2967  0.4169
21516SOL     OW68078   2.270   6.979   8.469  0.7272 -0.2938 -0.3162
21516SOL    HW168079   2.328   6.932   8.528 -0.5333  1.2120  2.3007
21516SOL    HW268080   2.209   6.912   8.437  0.8543 -0.9944  0.8745
21517SOL     OW68081   0.314   2.615   3.524  0.3606 -0.7071 -0.3507
21517SOL    HW168082   0.294   2.708   3.537 -0.6646 -0.9905  0.3006
21517SOL    HW268083   0.230   2.571   3.540  0.8258 -1.7408 -0.6878
21518SOL     OW68084   3.773  10.905   2.654  0.0812  0.8027  0.5601
21518SOL    HW168085   3.709  10.966   2.618 -0.9890 -0.6221 -0.0713
21518SOL    HW268086   3.796  10.848   2.581  0.1952 -0.2357  1.3767
21519SOL     OW68087   0.421   4.158   6.186  0.3213  0.0553  0.0133
21519SOL    HW168088   0.393   4.067   6.200 -0.2639 -0.2517 -2.5201
21519SOL    HW268089   0.339   4.208   6.182  0.5208  0.3542 -0.4635
21520SOL     OW68090   2.320   4.369   7.427  0.2752  0.5518  0.7774
21520SOL    HW168091   2.311   4.280   7.462 -0.1273  0.4830  0.5009
21520SOL    HW268092   2.336   4.356   7.333  3.2170  0.6455  1.1617
21521SOL     OW68093  10.934  10.107   7.332  0.2479 -0.3918 -0.1953
21521SOL    HW168094  10.907  10.057   7.409  0.1046 -2.1976 -1.3527
21521SOL    HW268095  10.855  10.112   7.278  0.2539  1.1686 -0.0822
21522SOL     OW68096   8.737   6.098   2.320 -0.1218 -0.2482 -0.5459
21522SOL    HW168097   8.826   6.081   2.349  0.0674  0.0792 -0.9140
21522SOL    HW268098   8.682   6.046   2.378  0.3762 -1.4315 -1.1141
21523SOL     OW68099   6.588   6.564   6.639  0.1222  0.6358 -0.0464
21523SOL    HW168100   6.665   6.548   6.693  0.7318  1.2959 -0.7024
21523SOL    HW268101   6.520   6.509   6.678  0.7506  0.5131  0.9177
21524SOL     OW68102   9.946   3.046   6.025  0.4344  0.0555 -0.4851
21524SOL    HW168103   9.869   3.002   6.060  0.1030 -2.1659 -3.5850
21524SOL    HW268104   9.965   3.115   6.088 -4.2141  0.9105  0.3442
21525SOL     OW68105   3.858   6.091   5.757 -0.3431 -0.0781 -0.2684
21525SOL    HW168106   3.878   6.081   5.664 -0.9531  0.8163 -0.5057
21525SOL    HW268107   3.930   6.047   5.801  1.4472  1.8351 -1.1015
21526SOL     OW68108   7.678   3.949   1.650  1.2864 -0.3048  0.0761
21526SOL    HW168109   7.718   4.017   1.596 -1.0557 -0.3379 -1.8908
21526SOL    HW268110   7.640   3.888   1.587 -1.0622 -0.7091  1.7446
21527SOL     OW68111   4.711   5.327   0.788 -0.1224  0.3457 -0.7293
21527SOL    HW168112   4.744   5.316   0.698  0.0742 -0.8423 -0.5348
21527SOL    HW268113   4.620   5.353   0.776 -0.7440 -1.8177 -1.3458
21528SOL     OW68114   6.542   8.674   4.443 -0.2834  0.3006 -0.9662
21528SOL    HW168115   6.507   8.750   4.489  0.9248 -0.3285  1.1076
21528SOL    HW268116   6.630   8.701   4.417  0.0752 -0.3004 -0.3940
21529SOL     OW68117   1.206   8.254   7.193 -0.2403  0.4089  0.7217
21529SOL    HW168118   1.208   8.218   7.104 -1.4786 -1.8599  1.5312
21529SOL    HW268119   1.113   8.272   7.209  0.2646  3.9874  0.4681
21530SOL     OW68120   3.533   3.185   8.476 -0.5281  0.0861 -0.3696
21530SOL    HW168121   3.512   3.182   8.383 -1.5444 -0.6776 -0.1355
21530SOL    HW268122   3.454   3.151   8.519 -0.8831  2.3481  0.8987
21531SOL     OW68123   5.849   7.711   6.362 -0.2662  0.0482 -0.0401
21531SOL    HW168124   5.753   7.708   6.372 -0.3632  1.1875 -0.3800
21531SOL    HW268125   5.868   7.648   6.294 -1.0315  1.1929 -1.3827
21532SOL     OW68126   6.776   7.008   6.992 -0.0865 -0.5894  0.6796
21532SOL    HW168127   6.713   7.079   6.986 -0.5614 -1.0765 -0.5941
21532SOL    HW268128   6.855   7.048   7.029 -1.3790 -0.1592  3.1720
21533SOL     OW68129   6.634   7.035   5.323  0.0416  0.2869  0.1208
21533SOL    HW168130   6.553   7.086   5.333 -0.1517 -0.0765  0.4120
21533SOL    HW268131   6.612   6.966   5.261  0.3737  0.6909 -0.4627
21534SOL     OW68132   8.676   9.270   3.545  0.4873  0.1264  0.3755
21534SOL    HW168133   8.730   9.237   3.474  0.0328 -0.6785  0.3961
21534SOL    HW268134   8.723   9.348   3.577  3.0038 -1.8866  2.0424
21535SOL     OW68135   8.248  11.049   7.247 -0.2122  0.0969  0.5536
21535SOL    HW168136   8.326  11.040   7.301  0.2301  1.9528  0.2930
21535SOL    HW268137   8.281  11.079   7.163 -1.1658  0.2893  0.2388
21536SOL     OW68138   1.450   4.319   8.018  0.2186 -0.4984  0.2109
21536SOL    HW168139   1.358   4.300   8.038  0.4429 -0.3846  1.3925
21536SOL    HW268140   1.447   4.357   7.930 -0.9784  0.3797  0.6000
21537SOL     OW68141   3.585   8.458   2.980  0.7065 -0.3939  0.3678
21537SOL    HW168142   3.549   8.408   2.907 -0.0021 -1.3117  1.3268
21537SOL    HW268143   3.570   8.550   2.956 -0.7334 -0.7212 -0.0456
21538SOL     OW68144   0.106   2.654  10.516  0.1005 -0.0204  0.0346
21538SOL    HW168145   0.015   2.682  10.514  0.1260  0.2045  1.2141
21538SOL    HW268146   0.106   2.574  10.569  0.6190  0.1427  0.2936
21539SOL     OW68147   2.908  11.088   3.850  0.0794  0.5434 -0.2664
21539SOL    HW168148   2.820  11.114   3.878  0.1542 -1.7847  2.6198
21539SOL    HW268149   2.896  11.058   3.760 -1.9183  0.9596 -0.1890
21540SOL     OW68150   4.757   6.724   1.349 -0.5338  0.2576 -0.2250
21540SOL    HW168151   4.793   6.812   1.334 -1.2250  0.4251 -0.9733
21540SOL    HW268152   4.684   6.739   1.410  1.0920 -0.1831  1.9618
21541SOL     OW68153   6.996   6.797   3.919 -0.3144 -0.4663  0.1606
21541SOL    HW168154   6.966   6.715   3.879 -1.7436  0.3521 -0.5207
21541SOL    HW268155   6.916   6.846   3.936  0.5278  0.8623  0.4003
21542SOL     OW68156   2.796   2.539   0.765 -0.3651 -0.0508 -0.2460
21542SOL    HW168157   2.800   2.632   0.742  1.7259  0.0897  0.4728
21542SOL    HW268158   2.747   2.537   0.847 -0.9666  0.3426 -0.5879
21543SOL     OW68159  11.074   2.315   0.412  0.3690 -0.0467  0.0836
21543SOL    HW168160  11.046   2.387   0.469 -0.8119 -1.4561  1.3615
21543SOL    HW268161  11.125   2.358   0.344  0.3615  1.9151  1.2253
21544SOL     OW68162   3.430   1.335   5.205  0.0998 -0.1155  0.4192
21544SOL    HW168163   3.428   1.330   5.301  0.6358 -2.0024  0.3575
21544SOL    HW268164   3.517   1.304   5.180 -0.3828 -0.6125 -0.7283
21545SOL     OW68165   3.065   5.604  10.111 -0.0455 -0.4217  0.7202
21545SOL    HW168166   2.981   5.571  10.143  0.1431 -2.7519 -0.9654
21545SOL    HW268167   3.126   5.531  10.123  0.8705 -0.0717 -1.3813
21546SOL     OW68168   9.392   8.367   6.972  0.1243 -0.0853  0.3570
21546SOL    HW168169   9.487   8.379   6.964  0.3336 -0.7036  1.6533
21546SOL    HW268170   9.380   8.330   7.059 -1.4409  1.4590  0.8567
21547SOL     OW68171   6.475   7.233   7.278 -0.3387  0.1860 -0.3737
21547SOL    HW168172   6.465   7.322   7.244 -0.2929 -0.1952 -1.4318
21547SOL    HW268173   6.552   7.198   7.234  0.5204  0.0907  1.1203
21548SOL     OW68174   0.195   8.478   6.536  0.5569  0.0970 -0.5957
21548SOL    HW168175   0.146   8.508   6.613  1.4639  1.4021 -0.4725
21548SOL    HW268176   0.247   8.555   6.511  2.2750 -1.1110 -0.8913
21549SOL     OW68177   2.306   2.311   3.920 -0.2764  0.3243  0.9453
21549SOL    HW168178   2.361   2.308   3.999  0.0090 -0.3390  0.7327
21549SOL    HW268179   2.363   2.349   3.853 -0.4317  0.6415  0.9948
21550SOL     OW68180   4.157   8.272   0.168 -0.0607  0.1479  0.0487
21550SOL    HW168181   4.102   8.280   0.090  0.5041  0.9063 -0.2794
21550SOL    HW268182   4.106   8.314   0.237 -0.5129 -0.4253  0.0730
21551SOL     OW68183   5.626   7.545   0.974 -0.2985 -0.2436  0.4678
21551SOL    HW168184   5.547   7.579   0.932 -0.3181 -1.0556 -0.1875
21551SOL    HW268185   5.689   7.617   0.969 -0.8374  0.2345  0.5413
21552SOL     OW68186   1.750   7.920   7.137 -0.4214  0.2402 -0.2632
21552SOL    HW168187   1.669   7.928   7.188  0.5918 -1.0802  1.6797
21552SOL    HW268188   1.735   7.845   7.080 -0.3601 -0.3875  0.5327
21553SOL     OW68189   8.358   7.225   8.766 -0.3269  0.0598  0.1254
21553SOL    HW168190   8.320   7.219   8.853 -1.2271  0.7215 -0.2076
21553SOL    HW268191   8.299   7.173   8.710  0.2362 -0.3543 -0.0975
21554SOL     OW68192  10.098   2.433   9.854 -0.2890 -0.1635 -0.2561
21554SOL    HW168193  10.161   2.498   9.883  0.5432 -0.5613 -1.1135
21554SOL    HW268194  10.040   2.419   9.930  0.4561  0.4366  0.4343
21555SOL     OW68195   9.708   5.181   9.001 -0.1067  0.0322 -0.2597
21555SOL    HW168196   9.642   5.117   8.974 -0.8591 -0.0588  1.6227
21555SOL    HW268197   9.792   5.139   8.983 -0.5857 -0.9218 -0.3295
21556SOL     OW68198   4.516   0.504   1.256 -0.5843  0.2247 -0.1676
21556SOL    HW168199   4.566   0.577   1.292  0.6926  0.8747 -2.9871
21556SOL    HW268200   4.444   0.546   1.208 -2.1071 -0.5842  1.3071
21557SOL     OW68201   8.052   1.055   0.501  0.2244  0.1537 -0.2225
21557SOL    HW168202   7.976   1.038   0.555  1.2164 -1.7072  0.6594
21557SOL    HW268203   8.072   1.148   0.516 -0.6420  0.1401  1.1129
21558SOL     OW68204   4.980   3.196   5.088  0.5272 -0.3187 -0.1684
21558SOL    HW168205   5.069   3.167   5.107  1.0640  1.2820 -0.0913
21558SOL    HW268206   4.978   3.209   4.993  0.5925  0.2974 -0.0891
21559SOL     OW68207   4.519   9.529   8.697 -1.3097  0.1880  0.4843
21559SOL    HW168208   4.593   9.588   8.711 -2.2666  1.4255  0.4869
21559SOL    HW268209   4.478   9.522   8.783 -1.4611 -0.1262  0.3849
21560SOL     OW68210   0.628   0.806   9.682 -0.1560  0.2050  0.0276
21560SOL    HW168211   0.618   0.863   9.606 -0.6150  0.0406 -0.0392
21560SOL    HW268212   0.699   0.746   9.658 -0.5530 -0.0922 -0.4338
21561SOL     OW68213   3.565   3.265  10.835  0.0409  0.1469  0.3914
21561SOL    HW168214   3.544   3.314  10.915 -0.6706 -0.8038  0.8038
21561SOL    HW268215   3.654   3.293  10.813  0.8589 -0.6451  2.3638
21562SOL     OW68216   9.528   9.760   4.161  0.4997  0.1522  0.0906
21562SOL    HW168217   9.614   9.742   4.124  0.4357 -2.0523  0.8754
21562SOL    HW268218   9.470   9.698   4.118 -1.1082  2.6642 -1.6136
21563SOL     OW68219  10.270   3.211   4.510  0.0474  0.4412 -0.3807
21563SOL    HW168220  10.239   3.277   4.449 -0.1155  1.2457  0.5432
21563SOL    HW268221  10.192   3.184   4.559  0.0005 -0.8830 -1.1413
21564SOL     OW68222   1.326   5.918  10.606 -0.1612  0.3818  0.0128
21564SOL    HW168223   1.278   5.847  10.563 -0.4482  1.7819 -2.1151
21564SOL    HW268224   1.288   5.924  10.693 -1.7628 -0.5406 -0.5928
21565SOL     OW68225   6.379   8.873   1.366  0.1815  0.6954  1.0246
21565SOL    HW168226   6.298   8.901   1.321  0.4233 -0.7321 -0.3982
21565SOL    HW268227   6.449   8.918   1.318  0.3434  0.4029  0.9848
21566SOL     OW68228   7.745   6.483   2.624  0.3661 -0.1754 -0.1461
21566SOL    HW168229   7.654   6.511   2.621  0.1448 -0.2561  2.7894
21566SOL    HW268230   7.765   6.457   2.534 -1.7587  2.0051 -1.3803
21567SOL     OW68231   0.370   9.682   0.120  0.0126 -0.3397  0.0416
21567SOL    HW168232   0.402   9.704   0.033  0.4372  1.9356  0.7048
21567SOL    HW268233   0.418   9.740   0.179 -1.4763 -0.6074  1.6201
21568SOL     OW68234   0.944   4.209   4.001  0.4068 -0.1196  0.2360
21568SOL    HW168235   0.972   4.243   4.086 -0.8745 -0.5319  0.8583
21568SOL    HW268236   0.848   4.209   4.006  0.2944  0.2557 -1.3820
21569SOL     OW68237   6.256   4.814   5.242  0.0844 -0.0345 -0.3678
21569SOL    HW168238   6.303   4.734   5.218 -0.2087 -0.6357  0.9512
21569SOL    HW268239   6.166   4.798   5.213  0.4488  0.7225 -2.0255
21570SOL     OW68240   8.958   9.836   8.656  0.2808 -0.2658  0.8409
21570SOL    HW168241   8.971   9.929   8.641  0.4463 -0.3447  0.4938
21570SOL    HW268242   9.029   9.811   8.715 -1.0079  0.2785  2.7361
21571SOL     OW68243  10.886   9.860   2.650 -0.1470  0.3765 -0.0050
21571SOL    HW168244  10.822   9.800   2.613  0.4898  0.0672 -0.6260
21571SOL    HW268245  10.966   9.808   2.657  0.0074  0.7141  0.9034
21572SOL     OW68246   6.531   2.551   7.834 -0.4295  0.4045 -0.3170
21572SOL    HW168247   6.561   2.482   7.775  0.3922  1.0969 -0.7498
21572SOL    HW268248   6.592   2.546   7.908 -0.8244  0.1928 -0.0071
21573SOL     OW68249   5.245   9.547   2.822  0.0232 -0.0924  0.1306
21573SOL    HW168250   5.257   9.515   2.732 -0.4968  1.2824 -0.4708
21573SOL    HW268251   5.159   9.515   2.848 -0.5030  0.7861 -0.4706
21574SOL     OW68252   7.794   2.906   9.312 -0.1952 -0.7101 -0.1587
21574SOL    HW168253   7.873   2.923   9.260  0.2398  3.1282  1.4335
21574SOL    HW268254   7.818   2.832   9.367  1.8313 -0.5104 -0.6735
21575SOL     OW68255  10.383  10.321   2.385  0.2689  0.1369  0.0203
21575SOL    HW168256  10.390  10.355   2.296 -0.4814  0.3494  0.0325
21575SOL    HW268257  10.379  10.226   2.374  0.8651  0.1268 -0.1219
21576SOL     OW68258   6.304  10.459  10.964 -0.1117  0.2777  0.2611
21576SOL    HW168259   6.240  10.524  10.993 -1.3570 -1.4130  1.5745
21576SOL    HW268260   6.316  10.476  10.871 -3.1803  0.1894 -0.2571
21577SOL     OW68261   5.940   6.517   3.519 -0.7585 -0.0287  0.3681
21577SOL    HW168262   5.985   6.450   3.467 -1.7932 -1.0871  0.7914
21577SOL    HW268263   5.917   6.584   3.455  0.1457 -0.1497 -0.1016
21578SOL     OW68264   4.302   8.444   1.338  0.1350 -0.2284  0.1157
21578SOL    HW168265   4.393   8.418   1.328 -0.4358 -1.5338 -2.3959
21578SOL    HW268266   4.268   8.389   1.408  0.8929 -0.8170  0.0288
21579SOL     OW68267   9.280   9.877   8.557  0.1024  0.4068 -0.3164
21579SOL    HW168268   9.239   9.886   8.471  0.1052  0.5235 -0.3062
21579SOL    HW268269   9.271   9.784   8.578  0.3918  0.3183 -0.5834
21580SOL     OW68270   2.972   7.453   2.208  0.0298  0.1832 -0.2000
21580SOL    HW168271   3.052   7.504   2.202 -0.1283  0.3816 -0.6416
21580SOL    HW268272   2.915   7.504   2.265  0.6259 -0.5091  1.0614
21581SOL     OW68273  10.019   1.670   6.117  0.5857 -0.0302  0.4640
21581SOL    HW168274  10.045   1.673   6.025 -0.2649  0.0069  0.2094
21581SOL    HW268275   9.961   1.746   6.127 -2.0543 -1.8328  0.1218
21582SOL     OW68276  10.467   9.909   9.069  0.4581  0.9527  0.1702
21582SOL    HW168277  10.550   9.871   9.043 -0.2762 -0.9434  0.4487
21582SOL    HW268278  10.471   9.999   9.037  2.5921  0.9130  0.1947
21583SOL     OW68279  10.136   3.043   1.399  0.1917  0.1047  0.2100
21583SOL    HW168280  10.186   3.098   1.338 -0.0072  1.9508  1.6166
21583SOL    HW268281  10.045   3.063   1.379  0.0674 -0.8003 -0.1832
21584SOL     OW68282   1.326   0.090   3.660 -0.1143 -0.3691 -0.1929
21584SOL    HW168283   1.315  -0.005   3.668  0.8757 -0.4296  0.6136
21584SOL    HW268284   1.419   0.103   3.646 -0.0983  0.5336  0.6240
21585SOL     OW68285   1.888  10.606   6.522 -0.3331  0.4326 -0.2371
21585SOL    HW168286   1.841  10.600   6.605 -1.8742 -0.7767 -1.1373
21585SOL    HW268287   1.944  10.528   6.521  1.3827  1.6062  0.6076
21586SOL     OW68288   9.282  11.110   4.538 -0.4822 -0.8811  0.5293
21586SOL    HW168289   9.277  11.068   4.452 -1.9423  1.4994 -0.6800
21586SOL    HW268290   9.191  11.132   4.559  0.1672  1.7449  0.9414
21587SOL     OW68291   7.033  10.469   5.525 -0.3421 -0.0051  0.2782
21587SOL    HW168292   7.108  10.421   5.562 -0.3938 -0.5038 -0.2531
21587SOL    HW268293   6.978  10.402   5.487 -0.0857  0.5208 -1.0804
21588SOL     OW68294   5.724   9.488   4.945  0.2313  0.0405 -0.3450
21588SOL    HW168295   5.708   9.425   4.874 -0.1650 -1.4413  1.0185
21588SOL    HW268296   5.644   9.539   4.950 -0.8824 -1.7599  0.8909
21589SOL     OW68297   1.781   6.363   3.149  0.1528 -0.0922 -0.3104
21589SOL    HW168298   1.727   6.420   3.203  1.1238  1.0243 -0.4939
21589SOL    HW268299   1.730   6.351   3.069 -0.2208  0.2063 -0.1189
21590SOL     OW68300  10.500   2.638  10.478 -0.3192 -0.0680 -0.0164
21590SOL    HW168301  10.505   2.544  10.460 -1.8426 -0.2777  0.5379
21590SOL    HW268302  10.480   2.678  10.394  2.0371  0.0004 -0.6353
21591SOL     OW68303   4.723   9.104   3.926 -0.0664  0.2647 -0.3472
21591SOL    HW168304   4.716   9.063   3.839 -1.3769 -0.6847  0.1766
21591SOL    HW268305   4.807   9.071   3.960 -0.7086 -1.4048 -0.2725
21592SOL     OW68306   9.080   8.864   9.732 -0.2520  0.8673 -0.0627
21592SOL    HW168307   9.092   8.953   9.764  0.5343  0.9028 -0.4422
21592SOL    HW268308   9.124   8.809   9.797 -1.7045  0.6473  0.7781
21593SOL     OW68309   5.115   4.658   8.490 -0.4517 -0.0739  0.1551
21593SOL    HW168310   5.210   4.669   8.481 -0.7376  1.4018 -1.9798
21593SOL    HW268311   5.094   4.695   8.576  0.8460  0.0718  0.4274
21594SOL     OW68312   8.968   0.195   4.191 -0.8337 -0.0773  0.1568
21594SOL    HW168313   8.983   0.140   4.114  0.0554  0.9875 -0.4531
21594SOL    HW268314   9.050   0.189   4.241 -1.1317 -0.1625  0.6427
21595SOL     OW68315   4.764   8.605   7.699  0.7946  0.0290  0.2401
21595SOL    HW168316   4.743   8.549   7.624  0.6230  1.4626 -0.8189
21595SOL    HW268317   4.798   8.545   7.765 -2.2636 -1.7678  0.3462
21596SOL     OW68318   9.193   7.885   3.362  0.0604 -0.6120 -0.5580
21596SOL    HW168319   9.261   7.817   3.353  1.0699  0.4540 -1.1947
21596SOL    HW268320   9.202   7.916   3.452 -0.5406 -1.4363 -0.1980
21597SOL     OW68321   8.705   8.783   2.392  0.5523 -0.4575 -0.2188
21597SOL    HW168322   8.615   8.754   2.380  1.2339 -2.0322 -2.2039
21597SOL    HW268323   8.714   8.861   2.338 -0.3572  1.6095  2.4101
21598SOL     OW68324   8.590   4.085   6.952  0.2835  0.1307  0.4737
21598SOL    HW168325   8.536   4.061   7.028  2.9126  0.3035  2.5428
21598SOL    HW268326   8.549   4.165   6.918 -1.4117 -0.3800  1.2292
21599SOL     OW68327   1.487   3.353   2.786 -0.0341  0.0385 -0.0858
21599SOL    HW168328   1.542   3.275   2.784  0.0290  0.1006 -1.0253
21599SOL    HW268329   1.496   3.392   2.699 -2.3212 -0.4885 -0.6369
21600SOL     OW68330   1.481  10.283  10.322 -0.9751 -0.0118  0.1169
21600SOL    HW168331   1.477  10.333  10.240 -0.0137  1.3349  0.8585
21600SOL    HW268332   1.405  10.313  10.372 -1.8599 -1.2120 -0.4497
21601SOL     OW68333   3.022  10.094   1.485  0.0067  0.4381  0.2161
21601SOL    HW168334   2.987  10.141   1.561  1.9067 -0.4737  1.7572
21601SOL    HW268335   2.997  10.148   1.410 -0.9876  1.9778  1.5814
21602SOL     OW68336   7.427  10.621   9.112 -0.0710  0.0531  0.1996
21602SOL    HW168337   7.414  10.599   9.204  2.5450  0.5614  0.7720
21602SOL    HW268338   7.494  10.560   9.082  2.3666  2.6446 -0.0591
21603SOL     OW68339   3.095   8.813   3.281 -0.0651  0.1346  0.8837
21603SOL    HW168340   3.099   8.726   3.322 -0.3478 -0.5515 -0.4909
21603SOL    HW268341   3.016   8.810   3.227  0.0672  1.1701  0.6244
21604SOL     OW68342   0.231   0.888  10.485 -0.2460  1.1184 -0.1024
21604SOL    HW168343   0.322   0.887  10.454 -0.6127  1.0158 -1.2500
21604SOL    HW268344   0.187   0.951  10.427 -1.2025  0.1064 -0.5195
21605SOL     OW68345   6.716   9.389   9.861  0.0822 -0.2560  0.1830
21605SOL    HW168346   6.654   9.329   9.903 -0.2766 -0.0927 -0.1097
21605SOL    HW268347   6.685   9.397   9.771  1.6413 -1.6958 -0.5246
21606SOL     OW68348   9.944   2.611   4.300 -0.1859  0.3502 -0.1393
21606SOL    HW168349   9.989   2.528   4.318  2.8324  1.7951 -0.3168
21606SOL    HW268350   9.859   2.585   4.265  1.2263 -2.7084 -1.7214
21607SOL     OW68351   8.671   1.181   1.751  0.0100 -0.1260  0.6341
21607SOL    HW168352   8.726   1.104   1.764  0.8941  0.5504  1.0169
21607SOL    HW268353   8.713   1.229   1.680  0.0918  0.5395  1.1145
21608SOL     OW68354   1.320  10.740   0.151 -0.0131 -0.0507  0.3865
21608SOL    HW168355   1.318  10.705   0.061  1.7488 -1.4748  0.8278
21608SOL    HW268356   1.301  10.833   0.141  1.5637  0.1247 -1.6808
21609SOL     OW68357   4.930   3.708   7.390 -0.1381  0.3050  0.3814
21609SOL    HW168358   4.874   3.684   7.464  0.5737  0.3919  0.9556
21609SOL    HW268359   4.903   3.797   7.367  0.4204  0.7245  1.2936
21610SOL     OW68360   0.533   2.241   6.033 -0.0985 -0.4553 -0.0237
21610SOL    HW168361   0.461   2.304   6.022  0.9126  0.8757  0.6155
21610SOL    HW268362   0.493   2.156   6.018 -2.1067  0.1338  1.4991
21611SOL     OW68363  10.997   5.424   8.591  0.5754 -0.1127  0.2084
21611SOL    HW168364  11.038   5.483   8.528 -0.0270 -0.0123 -0.1025
21611SOL    HW268365  10.981   5.344   8.541  0.2243 -0.0812  0.2688
21612SOL     OW68366   2.416   8.427   6.271  0.1444 -0.1933 -0.0412
21612SOL    HW168367   2.396   8.335   6.250 -1.3389 -0.4635  2.1903
21612SOL    HW268368   2.509   8.427   6.292  0.3680 -0.9908 -0.9564
21613SOL     OW68369   9.694   4.773   4.532 -0.2629 -0.3958 -0.3140
21613SOL    HW168370   9.782   4.740   4.547 -0.5504 -0.5357  1.2373
21613SOL    HW268371   9.662   4.724   4.456  0.3347 -1.6622  0.2207
21614SOL     OW68372   9.408   6.639  10.975 -0.1337  0.6416  0.0422
21614SOL    HW168373   9.373   6.724  10.950 -3.9808 -1.0590 -1.1127
21614SOL    HW268374   9.427   6.596  10.891  0.4490 -0.1092  0.5486
21615SOL     OW68375   7.734   6.370   0.346  0.7222  0.1780 -0.0133
21615SOL    HW168376   7.649   6.328   0.335  0.9927 -0.7308  1.1909
21615SOL    HW268377   7.716   6.444   0.405  0.7569  0.0501  0.1555
21616SOL     OW68378   9.031  10.391   4.099 -0.0415 -0.3099  0.1138
21616SOL    HW168379   8.961  10.353   4.154 -0.0656 -0.9441 -0.3417
21616SOL    HW268380   9.076  10.315   4.062  0.5887  0.1044  0.0176
21617SOL     OW68381   9.701   6.996   0.355 -0.1360 -0.4929  0.2443
21617SOL    HW168382   9.705   7.089   0.336  0.7506 -0.4804  0.4757
21617SOL    HW268383   9.639   6.989   0.428  0.0976 -0.0404  0.4907
21618SOL     OW68384   3.879   2.688   8.857  0.0693  0.2804  0.6139
21618SOL    HW168385   3.937   2.612   8.863 -0.2347  0.0105  0.1886
21618SOL    HW268386   3.928   2.751   8.803 -0.4010 -0.3067 -0.5305
21619SOL     OW68387   7.646   7.956   0.366 -0.6546  0.3238  0.0407
21619SOL    HW168388   7.648   7.872   0.320 -2.0976  0.8836 -1.1221
21619SOL    HW268389   7.738   7.982   0.371 -0.2626 -0.8806 -0.4077
21620SOL     OW68390   6.615  10.527   1.684  0.1980  0.1546 -0.4789
21620SOL    HW168391   6.572  10.543   1.767  1.2731  0.9978 -0.0474
21620SOL    HW268392   6.557  10.468   1.637 -1.6736  1.6286 -0.1541
21621SOL     OW68393   3.929  10.942   1.073 -0.4458 -0.2024  0.5191
21621SOL    HW168394   3.856  10.889   1.106 -1.1736 -0.0148 -0.7454
21621SOL    HW268395   4.007  10.903   1.113 -1.2582 -0.0332  2.3759
21622SOL     OW68396   0.782   1.839   0.407  0.2056 -0.2505 -0.2286
21622SOL    HW168397   0.762   1.794   0.325  0.8320 -0.7626 -0.1083
21622SOL    HW268398   0.796   1.930   0.381 -0.5591 -0.2157 -0.5465
21623SOL     OW68399   2.679   0.477   7.135  1.1150  0.7002  0.1582
21623SOL    HW168400   2.760   0.501   7.180  1.1488  0.7154  0.0901
21623SOL    HW268401   2.659   0.389   7.166 -0.1124  1.5557  1.9652
21624SOL     OW68402   0.857   9.532   5.121  0.1374 -0.0835 -0.2036
21624SOL    HW168403   0.790   9.481   5.076  0.2043 -1.8456  1.5702
21624SOL    HW268404   0.915   9.564   5.051 -0.1649 -2.0637 -1.4173
21625SOL     OW68405   6.223   4.390   6.794  0.2642  0.1476  0.0428
21625SOL    HW168406   6.249   4.371   6.884 -0.9411  1.2823  0.6683
21625SOL    HW268407   6.149   4.331   6.778  0.5600 -0.1442 -0.2522
21626SOL     OW68408   5.557   1.666   7.589 -0.1332  0.0776  0.2700
21626SOL    HW168409   5.565   1.713   7.506  0.3584  2.0401  1.3636
21626SOL    HW268410   5.636   1.611   7.593 -1.7367 -2.6675 -1.9968
21627SOL     OW68411   2.184  10.026   6.930  0.0512 -0.0065  0.2332
21627SOL    HW168412   2.167   9.932   6.933 -0.8062  0.1546  0.8420
21627SOL    HW268413   2.248  10.042   6.999 -1.6230  0.1913  1.7989
21628SOL     OW68414   6.665  11.032   6.308 -0.0147 -0.5188  0.1225
21628SOL    HW168415   6.602  11.100   6.285 -1.9984 -3.0575 -2.7182
21628SOL    HW268416   6.731  11.036   6.239  1.1287 -0.0806  1.2067
21629SOL     OW68417  10.307   5.063   4.130 -0.0847 -0.2626  0.5646
21629SOL    HW168418  10.311   4.968   4.122  2.2180 -0.2194  0.4748
21629SOL    HW268419  10.300   5.080   4.224  0.5242 -0.5288  0.6630
21630SOL     OW68420   6.221   0.763   3.111 -0.2539 -0.3072  0.5004
21630SOL    HW168421   6.299   0.717   3.081 -0.3980 -0.6129  0.5854
21630SOL    HW268422   6.225   0.755   3.207 -0.3348 -0.2333  0.5096
21631SOL     OW68423   6.031  10.732   8.735 -0.6505 -0.6157 -0.2645
21631SOL    HW168424   6.062  10.820   8.712 -1.5529 -0.5767 -1.3940
21631SOL    HW268425   5.960  10.748   8.796 -1.6581 -0.4802 -1.4401
21632SOL     OW68426   3.818   7.597   3.161 -0.0589  0.2705  0.0134
21632SOL    HW168427   3.810   7.597   3.257  2.0814 -1.0812  0.2746
21632SOL    HW268428   3.765   7.523   3.132  0.7498 -0.4671  0.3661
21633SOL     OW68429   5.589  11.009   1.077  0.1046 -0.9747 -0.2164
21633SOL    HW168430   5.630  10.996   1.162 -0.4531 -1.2757  0.0108
21633SOL    HW268431   5.572  10.920   1.044  0.6451 -0.8703 -0.8069
21634SOL     OW68432   6.562   6.042   8.888 -0.7938  0.2473  0.2702
21634SOL    HW168433   6.642   6.022   8.840 -0.0717 -2.1126  2.2061
21634SOL    HW268434   6.491   6.010   8.832 -0.2363  0.4456 -0.5593
21635SOL     OW68435   7.911   1.237   3.473  0.5328  0.1138 -0.4154
21635SOL    HW168436   7.826   1.201   3.445  1.3488 -0.3419 -2.5179
21635SOL    HW268437   7.912   1.224   3.568 -1.0003 -1.5579 -0.5586
21636SOL     OW68438  10.335   1.099   8.282  0.1087  0.1735  1.1607
21636SOL    HW168439  10.281   1.148   8.220  1.5912 -1.6897 -1.8019
21636SOL    HW268440  10.280   1.025   8.309 -0.0966  0.2745  1.0210
21637SOL     OW68441   8.706   7.179   7.501 -0.4138  0.1744 -0.0544
21637SOL    HW168442   8.751   7.197   7.583 -1.0659  0.4755  0.2495
21637SOL    HW268443   8.739   7.245   7.440 -0.0763  0.0777  0.0259
21638SOL     OW68444  10.162   5.624   4.111  0.3222 -0.3231 -0.2825
21638SOL    HW168445  10.215   5.624   4.031  2.1802  0.8944  0.8904
21638SOL    HW268446  10.180   5.540   4.152  2.5095  0.5993  0.7826
21639SOL     OW68447   2.988   4.161   3.140 -0.1028  0.3870  0.3234
21639SOL    HW168448   2.945   4.079   3.163 -1.6807  1.4314  1.3823
21639SOL    HW268449   2.980   4.167   3.045 -1.4295  0.0342  0.3866
21640SOL     OW68450   7.477   3.470   8.193 -0.5793 -0.2865  0.3409
21640SOL    HW168451   7.497   3.538   8.258 -0.4137 -0.1948  0.1937
21640SOL    HW268452   7.423   3.407   8.241 -0.4292 -0.2365  0.5764
21641SOL     OW68453   5.282   6.694   7.261 -0.1730  0.0836  0.4594
21641SOL    HW168454   5.355   6.740   7.303 -0.7398  0.3743  1.1326
21641SOL    HW268455   5.289   6.604   7.292  1.0101 -0.3539 -0.9544
21642SOL     OW68456   0.965   2.620   7.239 -0.3971  0.6278  0.1887
21642SOL    HW168457   0.956   2.661   7.153  1.6696  2.3174  0.7054
21642SOL    HW268458   1.040   2.561   7.229  0.4132  1.4790  1.0146
21643SOL     OW68459   8.540   9.180   1.823  0.1962 -0.2676  0.2775
21643SOL    HW168460   8.552   9.092   1.860 -0.2401 -0.2466  0.4772
21643SOL    HW268461   8.451   9.204   1.848  0.6777  0.6660  1.1283
21644SOL     OW68462   9.513   6.408   6.855 -0.1108  0.2263 -0.5553
21644SOL    HW168463   9.508   6.448   6.942 -1.9879 -0.9072 -0.0854
21644SOL    HW268464   9.534   6.481   6.796 -2.2350  1.7217  0.4160
21645SOL     OW68465   1.440   1.901   5.213  0.2316  0.2041 -0.2169
21645SOL    HW168466   1.410   1.885   5.302  2.0869 -1.9148  0.1300
21645SOL    HW268467   1.363   1.933   5.166 -0.9891  0.5473  1.9326
21646SOL     OW68468   9.472   2.154   8.277 -0.7264 -0.6919  0.1026
21646SOL    HW168469   9.401   2.152   8.341  0.2847 -0.9331  1.2536
21646SOL    HW268470   9.491   2.248   8.266 -1.2849 -0.6208 -0.2962
21647SOL     OW68471  11.022   3.560   0.683  0.1635 -0.2059 -0.4674
21647SOL    HW168472  11.021   3.593   0.773 -0.1603 -0.0094 -0.5411
21647SOL    HW268473  11.021   3.639   0.629  1.7088 -0.2756 -0.6574
21648SOL     OW68474   6.354   8.264   2.717 -0.1942 -0.0875 -0.5213
21648SOL    HW168475   6.332   8.259   2.810  0.6276  0.8530 -0.2604
21648SOL    HW268476   6.270   8.269   2.673 -0.5728  0.6675  0.2592
21649SOL     OW68477   5.718   4.552   9.656 -0.1055  0.6341  0.1836
21649SOL    HW168478   5.760   4.525   9.737 -0.8641 -0.8265  0.1295
21649SOL    HW268479   5.691   4.643   9.671 -0.5617  0.2675  1.7188
21650SOL     OW68480   4.938   3.745   4.016 -0.1410  0.0459  0.0088
21650SOL    HW168481   4.900   3.828   3.986  1.9214  1.4034  0.9382
21650SOL    HW268482   4.941   3.691   3.937 -2.4905  0.4111 -0.4034
21651SOL     OW68483   6.017   4.383   9.293 -0.1184  0.4045  0.6641
21651SOL    HW168484   5.985   4.303   9.335  0.1338  0.2917  0.6397
21651SOL    HW268485   6.010   4.449   9.362 -0.2862  0.3547  0.6978
21652SOL     OW68486   4.425   2.282   5.016  0.0574  0.3936 -0.6837
21652SOL    HW168487   4.357   2.332   5.062 -0.3317  0.8910 -1.7785
21652SOL    HW268488   4.407   2.191   5.040  0.5636  0.7093  1.0461
21653SOL     OW68489  10.038   0.954   7.382 -0.3351 -0.2080  0.2882
21653SOL    HW168490  10.070   0.864   7.388 -0.8707 -0.4218  0.0235
21653SOL    HW268491  10.015   0.965   7.290  0.5252  0.4845  0.1389
21654SOL     OW68492   7.230   9.190   3.501 -0.3352 -0.1955 -0.0067
21654SOL    HW168493   7.252   9.111   3.452 -2.0128 -0.6097 -0.1540
21654SOL    HW268494   7.315   9.230   3.521  0.5255 -1.7596 -0.3489
21655SOL     OW68495   5.109   8.057   4.173 -0.4864 -0.3004 -0.3359
21655SOL    HW168496   5.076   7.968   4.182  1.3099 -1.0233 -0.4440
21655SOL    HW268497   5.204   8.049   4.187 -0.1570  1.4432 -1.2639
21656SOL     OW68498   7.278   7.931  10.620 -0.4536  0.0540  0.1062
21656SOL    HW168499   7.366   7.900  10.598 -0.1706  0.0420  1.1946
21656SOL    HW268500   7.228   7.922  10.539  0.6645  0.4908 -0.6467
21657SOL     OW68501   0.126   6.398  10.936 -0.1282  0.1236 -0.5367
21657SOL    HW168502   0.070   6.321  10.945 -0.4632  0.5465  1.5231
21657SOL    HW268503   0.200   6.382  10.995  1.1649  0.2612 -2.0592
21658SOL     OW68504  10.435   1.077   9.573 -0.5323 -0.2383 -0.3791
21658SOL    HW168505  10.494   1.045   9.642 -0.8964  0.9227  0.4970
21658SOL    HW268506  10.493   1.100   9.501  0.1363  1.0763  0.5422
21659SOL     OW68507   7.346   8.851   2.773  0.0320 -0.3802  0.4913
21659SOL    HW168508   7.336   8.766   2.732  1.0554 -0.2540 -0.0716
21659SOL    HW268509   7.270   8.901   2.745 -0.3114 -0.9494  0.4105
21660SOL     OW68510   3.388  10.376   6.010 -0.3311 -0.5025  0.1799
21660SOL    HW168511   3.396  10.418   5.924  1.8758 -0.8149  0.1751
21660SOL    HW268512   3.295  10.385   6.032 -0.2077  3.6682 -0.1645
21661SOL     OW68513   6.221   5.439   1.877  0.1060  0.4781 -0.2111
21661SOL    HW168514   6.196   5.511   1.818 -0.3661  0.3228 -0.2081
21661SOL    HW268515   6.150   5.435   1.941 -0.8680 -1.2319 -1.3338
21662SOL     OW68516   5.374   2.764   7.183  0.0951 -0.2601 -0.8588
21662SOL    HW168517   5.464   2.795   7.191  0.1473 -0.3499 -1.0810
21662SOL    HW268518   5.383   2.670   7.169 -0.1251 -0.8593  2.2838
21663SOL     OW68519   6.716   5.848   6.173  0.1506  0.3829  0.3285
21663SOL    HW168520   6.741   5.825   6.262  1.9520 -0.0416 -0.2432
21663SOL    HW268521   6.799   5.857   6.126 -0.7522  0.4489 -1.3426
21664SOL     OW68522   7.995   0.967   8.470  0.0809 -0.4175 -0.1400
21664SOL    HW168523   7.999   0.876   8.500 -0.1431 -0.3841 -0.0062
21664SOL    HW268524   7.904   0.993   8.485  0.1675 -0.1404 -0.0874
21665SOL     OW68525   1.289   0.139   6.117  0.0181 -0.0926 -0.1646
21665SOL    HW168526   1.337   0.119   6.198 -0.2355  0.4716  0.1325
21665SOL    HW268527   1.322   0.225   6.091 -0.7329  0.2441 -0.0250
21666SOL     OW68528   6.629   6.410   7.719  0.6151  0.2219 -0.5876
21666SOL    HW168529   6.675   6.397   7.802  0.6138 -1.0464 -0.7657
21666SOL    HW268530   6.648   6.501   7.695  0.2569  0.7542  1.0014
21667SOL     OW68531   8.002   7.621   4.119  0.0956 -0.5947 -0.1830
21667SOL    HW168532   7.972   7.686   4.056  2.7434  0.9230 -0.0113
21667SOL    HW268533   8.017   7.542   4.067 -0.1141 -0.0996 -1.0058
21668SOL     OW68534   0.583   8.527   2.476 -0.5776 -0.3112  0.0991
21668SOL    HW168535   0.540   8.463   2.532 -0.2014  0.2384  1.0459
21668SOL    HW268536   0.615   8.476   2.401 -1.6394 -0.9481  0.0620
21669SOL     OW68537   3.848   8.467   9.083 -0.2171 -0.2970  0.2323
21669SOL    HW168538   3.915   8.535   9.088  0.1980 -0.7331  0.7937
21669SOL    HW268539   3.815   8.471   8.993  0.7224 -0.2192 -0.1185
21670SOL     OW68540  11.085   7.568   7.792 -0.2954  0.2633 -0.3983
21670SOL    HW168541  11.111   7.591   7.881 -1.8160 -1.6608  0.6292
21670SOL    HW268542  11.068   7.652   7.749  0.8376  1.2453  0.9732
21671SOL     OW68543  10.973   8.946   9.266  0.4506  0.2565 -0.0112
21671SOL    HW168544  11.039   8.954   9.198 -0.5165 -0.5108 -1.0951
21671SOL    HW268545  11.019   8.908   9.341  0.9255 -1.9470 -1.3245
21672SOL     OW68546   3.146   1.844   3.691 -0.2223 -0.1368 -0.1697
21672SOL    HW168547   3.163   1.902   3.618 -1.5439  0.0394 -0.3626
21672SOL    HW268548   3.180   1.759   3.663 -2.4967 -0.5806 -1.8756
21673SOL     OW68549   8.705   6.021   0.862 -0.4779  0.0551  0.1878
21673SOL    HW168550   8.784   5.994   0.815  0.8335  1.7366  1.3126
21673SOL    HW268551   8.689   6.110   0.831 -0.4424  0.6497  1.7932
21674SOL     OW68552   4.054   6.809   9.522 -0.2449  0.2734 -0.3310
21674SOL    HW168553   4.090   6.789   9.436  2.1088  0.0316  0.6564
21674SOL    HW268554   4.044   6.724   9.564 -1.5887  0.3746 -0.3857
21675SOL     OW68555   2.690   2.932   5.467 -0.2653 -0.3068 -0.1120
21675SOL    HW168556   2.777   2.929   5.426 -0.5089 -0.6794 -0.6114
21675SOL    HW268557   2.683   3.021   5.500 -0.7377  0.5646 -2.3940
21676SOL     OW68558   6.447   4.249   9.937 -0.0223 -0.2525 -0.2922
21676SOL    HW168559   6.382   4.188   9.904 -0.1637  0.3245 -1.1062
21676SOL    HW268560   6.498   4.275   9.860  1.0298 -0.5140  0.2921
21677SOL     OW68561   5.737   0.896   3.269  0.2676 -0.1420  0.1052
21677SOL    HW168562   5.727   0.847   3.187  0.4042 -0.2163  0.1322
21677SOL    HW268563   5.807   0.850   3.316  0.1525 -0.1312  0.2872
21678SOL     OW68564   5.499   5.551   9.319 -0.6176 -0.1281  0.3337
21678SOL    HW168565   5.411   5.514   9.327 -0.2721 -0.7802  1.4924
21678SOL    HW268566   5.495   5.608   9.243 -2.0138 -0.2269  0.3118
21679SOL     OW68567   8.056   9.090   8.498 -0.0436  0.7096  0.6795
21679SOL    HW168568   8.126   9.108   8.560 -0.7762  2.9285  0.9748
21679SOL    HW268569   8.042   9.174   8.453 -0.0273 -0.6042 -2.0063
21680SOL     OW68570   1.251   6.291   7.832 -0.2611  0.1311 -0.3627
21680SOL    HW168571   1.179   6.268   7.773  0.6606 -1.0466 -1.0907
21680SOL    HW268572   1.281   6.207   7.867  0.5795  0.6260  0.1414
21681SOL     OW68573   8.411   3.238   4.651  0.6823 -0.6646  0.4720
21681SOL    HW168574   8.356   3.170   4.690  0.1824 -0.0712  0.8093
21681SOL    HW268575   8.436   3.203   4.566 -0.0713 -1.0137  0.3935
21682SOL     OW68576   2.722   2.069   3.797  0.3270 -0.1469 -0.4916
21682SOL    HW168577   2.736   2.120   3.876 -0.1943  0.2306 -0.6415
21682SOL    HW268578   2.786   1.998   3.803  1.6273  0.9690 -0.6668
21683SOL     OW68579   8.589   1.071   8.035  0.2015  0.2899 -0.0312
21683SOL    HW168580   8.592   1.049   8.129 -0.7219 -1.3752 -0.3585
21683SOL    HW268581   8.503   1.110   8.022  1.0964  2.4814  0.1573
21684SOL     OW68582   4.749   9.056   2.988  0.4406  0.3638 -0.0016
21684SOL    HW168583   4.791   9.066   3.073  0.6569  1.4878 -0.2233
21684SOL    HW268584   4.675   8.997   3.004  0.2536  0.8589  1.0378
21685SOL     OW68585   2.379   2.096   1.866  0.3928  0.2698 -0.1490
21685SOL    HW168586   2.431   2.112   1.788  0.5233  2.7576  0.3558
21685SOL    HW268587   2.298   2.056   1.834  2.2503 -3.2122 -0.9855
21686SOL     OW68588   3.227   4.234   5.685 -0.1093  0.1138  0.0631
21686SOL    HW168589   3.310   4.197   5.713 -0.7580 -0.8293  0.8359
21686SOL    HW268590   3.200   4.180   5.611 -0.7320 -0.5651  0.7619
21687SOL     OW68591   6.833  10.759   9.561  0.7473 -0.2191  0.4786
21687SOL    HW168592   6.791  10.688   9.512 -2.1997  2.3110 -0.9857
21687SOL    HW268593   6.810  10.742   9.652 -0.5157 -0.7687  0.0793
21688SOL     OW68594   9.255   6.108   4.771 -0.5576 -0.3360 -0.1782
21688SOL    HW168595   9.217   6.021   4.763  3.3662 -2.1267 -1.5293
21688SOL    HW268596   9.257   6.142   4.681 -0.3856  0.3863  0.0881
21689SOL     OW68597   7.538   1.897   2.905 -0.0020 -0.3641  0.1467
21689SOL    HW168598   7.463   1.852   2.942 -0.6982  0.1793 -0.5834
21689SOL    HW268599   7.522   1.990   2.921  1.7504 -0.3396  2.2651
21690SOL     OW68600   3.896   2.594   5.057 -0.6141 -0.0108  0.0107
21690SOL    HW168601   3.942   2.532   5.114 -0.3611  0.8205  0.7257
21690SOL    HW268602   3.887   2.548   4.973 -0.7615 -1.1506  0.6371
21691SOL     OW68603   0.914   5.211   1.365  0.1879 -0.3443  0.1229
21691SOL    HW168604   0.993   5.191   1.314  0.9562  0.6379  0.8879
21691SOL    HW268605   0.917   5.149   1.438  1.8495  1.4947  1.7475
21692SOL     OW68606   2.813   7.508  10.399  0.2570 -0.4308 -0.1132
21692SOL    HW168607   2.773   7.456  10.468 -0.3490  1.3911  0.9836
21692SOL    HW268608   2.739   7.545  10.351  0.5814  1.3582  0.6776
21693SOL     OW68609   4.940   5.330  10.849 -0.4172  0.2490  0.3498
21693SOL    HW168610   5.019   5.278  10.837 -0.6895  0.2034 -1.5712
21693SOL    HW268611   4.922   5.326  10.943  0.4867 -1.7392  0.4801
21694SOL     OW68612   9.222   8.833   3.083 -0.0309 -0.1317  0.2965
21694SOL    HW168613   9.224   8.870   2.995 -0.1718  1.5259  0.9486
21694SOL    HW268614   9.149   8.876   3.126 -0.0946 -1.0730  1.1728
21695SOL     OW68615   3.887   7.134   4.165  0.2361  0.5095 -0.5712
21695SOL    HW168616   3.927   7.085   4.093  0.5697 -1.2924  0.7550
21695SOL    HW268617   3.842   7.067   4.217 -0.7984  1.8908  0.3751
21696SOL     OW68618   7.119   1.743   1.860  0.0138 -0.1280  0.1775
21696SOL    HW168619   7.150   1.655   1.837  0.5105 -0.3652  1.6736
21696SOL    HW268620   7.067   1.770   1.784  1.4408 -0.9176 -1.1555
21697SOL     OW68621   8.502   3.691   1.403  0.3473  0.2320 -0.3675
21697SOL    HW168622   8.493   3.655   1.315 -1.7592  0.3497 -0.2641
21697SOL    HW268623   8.549   3.623   1.452 -1.0995 -1.2009 -0.8738
21698SOL     OW68624  10.152   0.144   9.389  0.2022  0.0033  0.1157
21698SOL    HW168625  10.089   0.212   9.366  0.3899  0.1191 -0.0521
21698SOL    HW268626  10.234   0.191   9.405  0.1859 -0.1184  0.5882
21699SOL     OW68627   7.924   6.682   1.460 -0.4081  0.5177 -0.0749
21699SOL    HW168628   7.975   6.750   1.415 -0.2821 -0.3807 -1.3514
21699SOL    HW268629   7.908   6.718   1.547 -0.4430  2.2396 -0.7379
21700SOL     OW68630   3.878   4.476  10.899 -0.3158  0.7446  0.3692
21700SOL    HW168631   3.879   4.555  10.953 -1.2520  1.9447 -1.2809
21700SOL    HW268632   3.790   4.474  10.860  0.6500  0.6258 -2.0087
21701SOL     OW68633   8.451   1.338   1.477  0.4706  0.1737  0.2485
21701SOL    HW168634   8.527   1.395   1.464 -0.2013  0.7805 -1.3312
21701SOL    HW268635   8.409   1.335   1.391 -1.0298 -0.5236  0.9705
21702SOL     OW68636   3.331   9.346  10.732 -0.1058 -0.0831 -0.7002
21702SOL    HW168637   3.329   9.334  10.827 -2.2414  0.1981 -0.6543
21702SOL    HW268638   3.422   9.366  10.712  0.1193  1.4609  1.5130
21703SOL     OW68639   1.761   9.962   5.804 -0.2150 -0.6929 -0.4062
21703SOL    HW168640   1.672   9.996   5.808 -0.0212 -0.2853  0.7548
21703SOL    HW268641   1.751   9.873   5.769 -0.8814 -0.0447 -1.9300
21704SOL     OW68642   8.299   9.591   7.397  0.0735  0.0172 -0.0146
21704SOL    HW168643   8.357   9.515   7.402  2.7730  1.9288  0.6592
21704SOL    HW268644   8.243   9.584   7.475 -0.5854 -1.8287 -0.6023
21705SOL     OW68645   2.299   0.398   6.933 -0.5839  0.2394  0.1838
21705SOL    HW168646   2.305   0.425   6.841 -2.3312 -1.2483 -0.4414
21705SOL    HW268647   2.261   0.473   6.978 -2.1896  0.1252 -0.8625
21706SOL     OW68648   4.713   8.893   5.810  0.3692  0.2922  0.0843
21706SOL    HW168649   4.742   8.975   5.768 -0.6002  1.1862  1.1005
21706SOL    HW268650   4.783   8.831   5.790  0.8397  1.1930 -1.2353
21707SOL     OW68651  10.034  10.225   5.356 -0.1258  0.0409  0.1851
21707SOL    HW168652   9.966  10.282   5.318  0.4476 -0.6851 -2.0973
21707SOL    HW268653  10.005  10.210   5.446 -0.7817  3.1529  0.6261
21708SOL     OW68654   9.035   1.835   5.812 -0.5738 -0.1178 -0.7166
21708SOL    HW168655   8.961   1.791   5.769  0.6840 -0.9360 -2.1261
21708SOL    HW268656   9.051   1.912   5.758  0.5281 -0.7401 -1.3056
21709SOL     OW68657   7.425   6.869   7.572 -0.6265  0.2697 -0.3113
21709SOL    HW168658   7.345   6.910   7.607 -0.7251  0.4875 -0.7895
21709SOL    HW268659   7.397   6.780   7.549 -0.0322 -0.6719  2.2498
21710SOL     OW68660   1.903   8.031   8.635  0.2887 -0.0985 -0.3008
21710SOL    HW168661   1.896   8.115   8.589  1.0084 -0.4253 -1.0503
21710SOL    HW268662   1.814   7.996   8.635 -0.3069  1.2881  1.2937
21711SOL     OW68663   4.107   5.747   6.214  0.0575  0.1580  0.0798
21711SOL    HW168664   4.016   5.765   6.238 -0.2063  0.5306 -1.1162
21711SOL    HW268665   4.155   5.826   6.241  0.2197 -0.4072  1.5553
21712SOL     OW68666   3.141   2.276   3.727 -0.5222  0.3614  0.0871
21712SOL    HW168667   3.202   2.347   3.707 -1.1287  0.5885 -1.0277
21712SOL    HW268668   3.054   2.313   3.707 -0.8670 -0.6074 -0.2658
21713SOL     OW68669  10.142   1.906   5.658 -0.2745 -0.4689  0.2634
21713SOL    HW168670  10.230   1.939   5.679  0.3319 -2.0151  0.2570
21713SOL    HW268671  10.083   1.972   5.695  0.8629  0.1897  0.9912
21714SOL     OW68672   5.463   9.858   1.284  0.1656 -0.0943 -1.0284
21714SOL    HW168673   5.516   9.778   1.283 -0.7658 -0.8341  1.6980
21714SOL    HW268674   5.385   9.835   1.335 -0.5866  2.2894 -0.9954
21715SOL     OW68675   1.119   0.071   0.455 -0.2944 -0.1219 -0.6015
21715SOL    HW168676   1.106   0.151   0.404 -0.3456  1.1003  1.2568
21715SOL    HW268677   1.031   0.049   0.487  0.1348  0.8359  1.3644
21716SOL     OW68678   8.530   2.932   1.584  0.3925 -0.2973  0.2006
21716SOL    HW168679   8.559   2.900   1.499  1.3270  0.8303  0.0687
21716SOL    HW268680   8.569   2.872   1.647  1.0634 -0.1701 -0.0891
21717SOL     OW68681   8.943   0.268   4.726 -0.2234 -0.0892  0.0400
21717SOL    HW168682   9.037   0.286   4.725 -0.0654 -0.8666  0.2129
21717SOL    HW268683   8.920   0.258   4.634 -0.8922  3.6865 -0.3612
21718SOL     OW68684   5.107   6.120   0.918  0.0242  0.1475  0.2538
21718SOL    HW168685   5.180   6.181   0.926  0.5066 -0.2697 -0.8422
21718SOL    HW268686   5.032   6.175   0.896  0.3496  0.4018 -0.2365
21719SOL     OW68687   6.126   5.831   8.849 -0.1087 -0.6417  0.0076
21719SOL    HW168688   6.056   5.834   8.914  0.9051 -1.3870  1.2005
21719SOL    HW268689   6.096   5.888   8.778 -2.6264 -2.1970 -0.2942
21720SOL     OW68690  10.052   9.920   8.477  0.0323  0.2116 -0.5417
21720SOL    HW168691  10.058   9.881   8.565 -0.8490  1.0319 -0.0970
21720SOL    HW268692  10.002  10.001   8.491  1.3612  1.2265 -1.5223
21721SOL     OW68693   5.652   0.858   2.144 -0.1454  0.2119 -0.1936
21721SOL    HW168694   5.596   0.781   2.135 -1.4421  1.0748  0.0886
21721SOL    HW268695   5.592   0.932   2.132  0.8941  1.1860  0.4255
21722SOL     OW68696   7.770   5.775   5.554  0.1640 -0.5059  0.2603
21722SOL    HW168697   7.750   5.682   5.541 -0.6023 -0.5862  1.7231
21722SOL    HW268698   7.707   5.821   5.499 -0.6701 -0.8551  0.8923
21723SOL     OW68699   9.227   2.211   2.449 -0.1126  0.2018 -0.1199
21723SOL    HW168700   9.231   2.304   2.431  2.9550  0.2442  0.3240
21723SOL    HW268701   9.280   2.199   2.528 -0.3805 -1.9313 -0.1882
21724SOL     OW68702   2.066   9.353   4.729 -0.3450 -0.0099 -0.0170
21724SOL    HW168703   2.062   9.261   4.704  0.0052  0.2167 -0.9674
21724SOL    HW268704   2.024   9.357   4.814 -0.9600 -0.9444 -0.2626
21725SOL     OW68705   6.797   7.357   9.925  0.6274 -0.1205 -0.2897
21725SOL    HW168706   6.817   7.449   9.944 -1.4307  0.1837  0.6984
21725SOL    HW268707   6.749   7.359   9.843 -0.9158 -0.0891  0.5863
21726SOL     OW68708   5.442   1.005   0.300  0.3552  0.2372 -0.5129
21726SOL    HW168709   5.464   0.920   0.337  1.0018 -0.0634 -1.5608
21726SOL    HW268710   5.377   0.986   0.232 -2.6053  1.0081  1.8871
21727SOL     OW68711  10.983   6.013  10.644  0.5902  0.3461 -0.2450
21727SOL    HW168712  10.907   6.069  10.659 -1.6960 -2.3758 -1.0234
21727SOL    HW268713  11.048   6.072  10.604 -0.9826  2.8013  0.5914
21728SOL     OW68714   5.502   9.819   2.203 -0.6187  0.0990 -0.3858
21728SOL    HW168715   5.475   9.752   2.140  0.2900 -0.0242 -0.6546
21728SOL    HW268716   5.509   9.899   2.151 -2.0841  0.5211  0.0077
21729SOL     OW68717   0.577   5.425   2.472 -0.6749 -0.2487 -0.5445
21729SOL    HW168718   0.570   5.395   2.563 -1.9170 -0.7984 -0.8006
21729SOL    HW268719   0.594   5.345   2.422 -3.2365 -0.4814 -1.1447
21730SOL     OW68720   0.132   1.263   3.694 -0.6679  0.0704  0.2183
21730SOL    HW168721   0.121   1.204   3.769  0.5699  1.0283  1.2038
21730SOL    HW268722   0.105   1.211   3.618  0.8124 -1.9223  0.9619
21731SOL     OW68723  10.266   4.188   3.867  0.1732 -0.0021 -0.0854
21731SOL    HW168724  10.262   4.173   3.772 -0.0740  0.9948 -0.2486
21731SOL    HW268725  10.358   4.176   3.890  0.0734 -1.2047 -0.2744
21732SOL     OW68726  10.322   6.826   9.680 -0.1355 -0.1426  0.0789
21732SOL    HW168727  10.337   6.849   9.588 -0.1982  0.0952  0.1269
21732SOL    HW268728  10.404   6.785   9.708  0.8670  2.0843  0.6301
21733SOL     OW68729   3.969   9.246   5.173 -0.1956 -0.1533  0.5339
21733SOL    HW168730   3.958   9.165   5.223 -0.9688 -1.1788 -1.1749
21733SOL    HW268731   4.046   9.229   5.118 -1.1623 -0.3321 -0.8360
21734SOL     OW68732   5.042   0.381  10.905 -0.5003  0.3675  0.0985
21734SOL    HW168733   5.055   0.464  10.861  0.1099 -0.1845 -0.7757
21734SOL    HW268734   5.130   0.351  10.927 -0.7484  0.2155  0.9237
21735SOL     OW68735   9.805   0.897   5.253 -0.2747  0.0890 -0.6660
21735SOL    HW168736   9.795   0.812   5.212 -1.5888  0.7007 -1.7001
21735SOL    HW268737   9.754   0.891   5.334  0.8977 -0.5640  0.0544
21736SOL     OW68738   4.883   9.954   8.872 -0.0648  0.3307 -0.4109
21736SOL    HW168739   4.804   9.900   8.864 -0.4848  0.9308 -0.3946
21736SOL    HW268740   4.938   9.927   8.798 -0.8006  0.7457 -1.1268
21737SOL     OW68741   6.282   4.309   7.050  0.1271  0.3522 -0.2212
21737SOL    HW168742   6.255   4.315   7.142  1.1239  3.2255 -0.0305
21737SOL    HW268743   6.370   4.346   7.048  1.0893 -1.7607 -2.0459
21738SOL     OW68744   9.311  10.792   1.878  0.1907 -0.5318 -0.0343
21738SOL    HW168745   9.390  10.837   1.905  0.6675 -1.6936  0.5669
21738SOL    HW268746   9.342  10.714   1.831 -0.5553 -1.6653  1.2969
21739SOL     OW68747   1.252   1.756   9.099  0.0719  0.1957  0.0269
21739SOL    HW168748   1.208   1.818   9.158  0.2121  0.4292 -0.1112
21739SOL    HW268749   1.340   1.747   9.136 -0.2751 -0.7466  0.6561
21740SOL     OW68750   0.402   8.762   3.053  0.0434 -0.0746  0.4409
21740SOL    HW168751   0.404   8.667   3.040  0.9940  0.2037 -1.8880
21740SOL    HW268752   0.436   8.775   3.141  1.4845 -1.8236  0.1983
21741SOL     OW68753   2.150   0.208   7.053  0.0038  0.3431  0.6239
21741SOL    HW168754   2.200   0.255   6.986 -2.4241 -0.5027 -1.9860
21741SOL    HW268755   2.154   0.264   7.130  1.6226  2.1688 -0.6925
21742SOL     OW68756   6.655   3.248   8.564  0.1911  0.3050  0.3940
21742SOL    HW168757   6.654   3.302   8.485 -2.5177  0.2005  0.2841
21742SOL    HW268758   6.646   3.158   8.532  1.9380 -0.0251  0.7250
21743SOL     OW68759   6.462  10.041   4.357 -0.3232 -0.5054  0.0338
21743SOL    HW168760   6.514  10.075   4.284  0.8186 -1.1957  0.5082
21743SOL    HW268761   6.372  10.039   4.324  0.1510 -0.6234 -1.2742
21744SOL     OW68762   3.792   5.483   6.863  0.1880 -0.7306 -0.1280
21744SOL    HW168763   3.813   5.532   6.942  2.2050 -1.8450  0.1190
21744SOL    HW268764   3.697   5.490   6.854  0.0139  0.1784  1.8633
21745SOL     OW68765   7.017   1.473   9.853 -0.0253 -0.7905 -0.3049
21745SOL    HW168766   7.096   1.510   9.813  0.9923 -2.8369 -0.2934
21745SOL    HW268767   6.949   1.482   9.785  0.7990 -1.0715 -1.1837
21746SOL     OW68768  10.925   7.407   7.089  0.7180 -0.5283 -0.3057
21746SOL    HW168769  10.960   7.424   7.002  1.2176 -1.6678 -0.3408
21746SOL    HW268770  10.883   7.321   7.082 -0.3268 -0.0830  0.2594
21747SOL     OW68771   7.098   4.488   1.949  0.6011 -0.2743 -0.3254
21747SOL    HW168772   7.168   4.446   2.000  0.2515 -0.6325 -0.1306
21747SOL    HW268773   7.143   4.529   1.876  1.3581  1.9101  1.2719
21748SOL     OW68774   8.795   4.401   2.435 -0.7714  0.2142 -0.6522
21748SOL    HW168775   8.839   4.405   2.350  1.9157  2.6044  0.6859
21748SOL    HW268776   8.824   4.319   2.474  1.1013  0.8586 -0.5915
21749SOL     OW68777   7.410   1.286   8.517 -0.5566  0.8313  0.1318
21749SOL    HW168778   7.409   1.209   8.574  0.2621  0.6317 -0.1077
21749SOL    HW268779   7.374   1.357   8.571 -1.7483  0.1995  0.2102
21750SOL     OW68780   1.968   8.123   6.578 -0.5617  0.3804  0.3707
21750SOL    HW168781   2.020   8.078   6.644 -0.0999 -0.7884 -0.7296
21750SOL    HW268782   2.012   8.207   6.564  0.1212  0.0626  0.5772
21751SOL     OW68783   0.044   8.978   9.011  0.2047  0.6487 -0.3933
21751SOL    HW168784   0.034   9.049   8.946  1.7157 -0.0447 -1.4412
21751SOL    HW268785   0.129   8.995   9.052  0.2915 -0.1988 -0.2069
21752SOL     OW68786   4.150   8.548   7.417  0.0566  0.3133 -0.1377
21752SOL    HW168787   4.089   8.621   7.420  0.8720  1.0587 -0.8382
21752SOL    HW268788   4.140   8.511   7.329 -1.1128 -1.1210  0.5663
21753SOL     OW68789   2.840   9.628   5.348 -0.2557 -0.0354 -0.0108
21753SOL    HW168790   2.928   9.609   5.382 -0.7945  0.4110  1.7762
21753SOL    HW268791   2.842   9.599   5.257  1.2221 -1.6172  0.4681
21754SOL     OW68792  10.128  10.895   4.201  0.2144 -0.3442 -0.2902
21754SOL    HW168793  10.081  10.834   4.258 -3.7079  1.8619 -0.8010
21754SOL    HW268794  10.152  10.968   4.259 -0.3164  0.1699 -0.7076
21755SOL     OW68795   0.469   7.015   6.389 -0.5867 -0.1264  0.1557
21755SOL    HW168796   0.379   7.040   6.365 -0.3085  1.0190  0.2444
21755SOL    HW268797   0.478   6.925   6.356 -1.9310 -0.4531  0.6055
21756SOL     OW68798   0.246   0.882   3.871  0.0819 -0.7713 -0.1319
21756SOL    HW168799   0.329   0.848   3.905  0.4776  0.6689  0.4112
21756SOL    HW268800   0.270   0.930   3.792  0.1130  1.4689  1.1755
21757SOL     OW68801   1.264   8.262   8.279 -0.2621 -0.0151 -0.0078
21757SOL    HW168802   1.302   8.226   8.359  0.6181 -0.6282 -0.6826
21757SOL    HW268803   1.182   8.214   8.267 -0.6042  0.3614  0.7220
21758SOL     OW68804   4.834   5.447   2.341  0.3864 -0.0365  0.3126
21758SOL    HW168805   4.859   5.470   2.431  1.0215  0.6638 -0.0265
21758SOL    HW268806   4.909   5.474   2.288 -0.5624  0.8843 -0.6001
21759SOL     OW68807   6.259   7.053   7.203  0.0388 -0.1119 -0.8016
21759SOL    HW168808   6.317   7.111   7.251  0.2342 -1.0932  0.1863
21759SOL    HW268809   6.171   7.081   7.227  0.1321 -0.1745 -0.3769
21760SOL     OW68810   1.274   5.356   2.432 -0.3014 -0.3778 -0.4994
21760SOL    HW168811   1.297   5.306   2.510 -2.7808 -0.1040  0.4773
21760SOL    HW268812   1.278   5.292   2.361 -0.1241 -1.1512  0.1890
21761SOL     OW68813   0.988   6.211   1.087 -0.1602 -0.1662  0.0187
21761SOL    HW168814   1.026   6.235   1.172 -1.2684 -0.5566  0.6430
21761SOL    HW268815   0.975   6.117   1.093 -0.4859 -0.1550 -0.4876
21762SOL     OW68816   1.374   3.743   4.442  0.5946  0.1279  0.1698
21762SOL    HW168817   1.445   3.754   4.379  0.6451  0.1091  0.2229
21762SOL    HW268818   1.403   3.671   4.498  1.4365  1.3929  1.4264
21763SOL     OW68819   8.175   4.638   9.698 -0.6843 -0.0138 -0.2975
21763SOL    HW168820   8.257   4.621   9.743 -0.6995  1.1715  0.2379
21763SOL    HW268821   8.144   4.552   9.669  1.3416 -0.3719 -1.6158
21764SOL     OW68822  10.726   4.048   1.983 -0.2618 -0.9370 -0.0547
21764SOL    HW168823  10.632   4.066   1.975 -0.0508 -0.5790 -4.1241
21764SOL    HW268824  10.731   3.956   2.008 -1.6649 -0.7577  0.9988
21765SOL     OW68825   2.997   4.375   8.445  0.0947  0.3662 -0.3412
21765SOL    HW168826   2.910   4.416   8.447 -0.6695 -1.1922  0.3275
21765SOL    HW268827   2.990   4.308   8.377  1.1371  0.9391 -1.0338
21766SOL     OW68828   9.995   4.689   8.101 -0.3426 -0.5331 -0.3367
21766SOL    HW168829  10.066   4.626   8.083 -0.9562 -1.2647 -0.2676
21766SOL    HW268830   9.958   4.660   8.184 -0.0709  0.4693  0.1478
21767SOL     OW68831   0.245   0.188   3.114  0.2694 -0.1328 -0.0129
21767SOL    HW168832   0.230   0.155   3.203  1.0990  1.5056  0.7676
21767SOL    HW268833   0.163   0.171   3.068 -1.0958  1.2355  1.7861
21768SOL     OW68834   5.489   7.554   1.410  0.3747 -0.0190 -0.7852
21768SOL    HW168835   5.485   7.588   1.499  0.6129  0.3406 -0.9108
21768SOL    HW268836   5.581   7.532   1.396  0.0684 -1.7685 -0.3235
21769SOL     OW68837   9.919   4.622   1.705  0.9271 -0.0376 -0.0109
21769SOL    HW168838   9.928   4.619   1.800  0.4035  0.3788  0.0519
21769SOL    HW268839   9.840   4.571   1.687 -0.5013  2.0489  0.0074
21770SOL     OW68840   4.749  10.869   4.089 -0.5543 -0.0121  0.0685
21770SOL    HW168841   4.772  10.782   4.056  1.2101  0.4686 -0.0674
21770SOL    HW268842   4.746  10.924   4.011  0.9303  0.5598  0.3736
21771SOL     OW68843   3.037   8.442   7.696  0.3003 -0.1064 -0.4654
21771SOL    HW168844   3.009   8.383   7.626  0.6102 -1.2416  0.3358
21771SOL    HW268845   3.131   8.426   7.705  0.4368  0.6950 -0.4043
21772SOL     OW68846  10.021   1.465   4.847  0.2457  0.3091  0.0979
21772SOL    HW168847  10.011   1.555   4.877 -2.5113  1.0455 -2.5345
21772SOL    HW268848   9.956   1.416   4.898 -0.4015  0.4483 -0.5740
21773SOL     OW68849   0.823   4.434   8.650 -0.3395  0.2657 -0.4983
21773SOL    HW168850   0.775   4.507   8.611  0.8608  0.7147 -1.1813
21773SOL    HW268851   0.819   4.450   8.744 -3.4377 -0.9275 -0.3084
21774SOL     OW68852   0.940   4.098   3.591 -0.1234 -0.3043 -0.5054
21774SOL    HW168853   0.863   4.041   3.586 -1.8371  1.4839  2.6234
21774SOL    HW268854   0.913   4.178   3.545  0.3107 -0.1062 -0.4179
21775SOL     OW68855   6.961   1.035   6.009  0.2402  0.3232 -0.3824
21775SOL    HW168856   6.893   1.080   5.958 -1.0232 -2.5433 -1.4146
21775SOL    HW268857   6.944   1.061   6.099 -2.9952 -1.0387 -0.4461
21776SOL     OW68858   6.681   2.048   3.159  0.4814  0.2437  0.1498
21776SOL    HW168859   6.591   2.038   3.127  0.8620  2.0199 -1.6793
21776SOL    HW268860   6.733   1.988   3.106  0.5511  0.2119  0.2533
21777SOL     OW68861   7.461   9.607   0.383 -0.2545  0.2506  0.0734
21777SOL    HW168862   7.471   9.576   0.473 -1.7062 -0.1955  0.0925
21777SOL    HW268863   7.531   9.562   0.335  0.4713  0.4147  0.9343
21778SOL     OW68864   9.382   9.989   1.838 -0.5214 -0.1685 -0.1097
21778SOL    HW168865   9.368  10.059   1.902 -0.4570 -0.7036  0.5038
21778SOL    HW268866   9.317  10.005   1.770 -0.1071  0.8338 -0.2789
21779SOL     OW68867   9.861   0.651   8.242 -0.1571  0.5967  0.1471
21779SOL    HW168868   9.811   0.661   8.323  2.3207  0.5930  1.8057
21779SOL    HW268869   9.840   0.563   8.212 -2.7331  1.3323 -0.4749
21780SOL     OW68870   3.545   9.363   0.491 -0.1705 -0.1204 -0.1364
21780SOL    HW168871   3.526   9.271   0.513 -1.0009  0.5980  2.5561
21780SOL    HW268872   3.613   9.389   0.553  0.8123  0.8347 -1.5618
21781SOL     OW68873   4.464   3.095   7.713 -0.2252 -0.8348 -0.1264
21781SOL    HW168874   4.480   3.033   7.642 -1.6823 -0.0923 -1.1337
21781SOL    HW268875   4.549   3.139   7.726  0.1465 -1.2242 -1.1544
21782SOL     OW68876   8.446   2.775  10.018  0.1366 -0.4330 -0.0967
21782SOL    HW168877   8.497   2.855  10.031  0.9636 -1.2637  2.3430
21782SOL    HW268878   8.451   2.729  10.102 -1.1544 -2.5790 -1.0973
21783SOL     OW68879   1.551   0.553   6.420 -0.2773 -0.1504 -0.3635
21783SOL    HW168880   1.582   0.624   6.365 -0.8935  0.9343  0.6495
21783SOL    HW268881   1.456   0.552   6.407 -0.3717 -0.2103  0.2978
21784SOL     OW68882   6.137   6.456   7.786  0.1394 -0.0833 -0.2984
21784SOL    HW168883   6.194   6.473   7.711 -0.1957 -0.5640 -0.6770
21784SOL    HW268884   6.180   6.383   7.831 -0.6895 -1.1655 -1.1803
21785SOL     OW68885   6.555   8.155   9.543  0.8774 -0.0435  0.2426
21785SOL    HW168886   6.580   8.063   9.532  0.0710 -0.0614 -1.8797
21785SOL    HW268887   6.485   8.154   9.609  0.1544 -1.1029 -0.5124
21786SOL     OW68888   5.696   9.125   5.924 -0.2147 -0.0896  0.4391
21786SOL    HW168889   5.709   9.157   5.835  0.1759  0.5150  0.7139
21786SOL    HW268890   5.673   9.033   5.912 -0.5274  0.0727 -0.3074
21787SOL     OW68891  10.976   7.337   8.727  0.5641  0.1848 -0.1174
21787SOL    HW168892  11.006   7.389   8.801 -1.2464 -0.2370  0.9787
21787SOL    HW268893  10.911   7.276   8.764  1.3247 -1.6817 -1.6371
21788SOL     OW68894   5.352   7.088   1.007  0.0528  0.2409  0.3560
21788SOL    HW168895   5.425   7.128   1.054  0.0988  0.5631  0.0141
21788SOL    HW268896   5.277   7.146   1.026  0.0961  0.4324 -0.0529
21789SOL     OW68897   8.388   8.614   9.591 -0.0612  0.9809 -0.3584
21789SOL    HW168898   8.394   8.666   9.671 -0.1525  1.5634 -0.7249
21789SOL    HW268899   8.298   8.626   9.560  0.2202  1.4798 -1.0206
21790SOL     OW68900   1.037   4.094   4.930 -0.6330 -0.0466  0.2396
21790SOL    HW168901   0.997   4.175   4.898 -1.7223 -0.5158  0.3764
21790SOL    HW268902   1.019   4.030   4.861  3.0676  0.5115 -1.4719
21791SOL     OW68903   8.411   0.580   3.842 -0.2081 -0.2023  0.0944
21791SOL    HW168904   8.404   0.644   3.771 -1.0787  1.0476  1.2640
21791SOL    HW268905   8.340   0.518   3.825 -0.0526 -0.2426 -0.4326
21792SOL     OW68906   9.689   6.243   8.486  0.4126  0.4250  0.5825
21792SOL    HW168907   9.612   6.295   8.460  1.0755  0.8125 -0.6886
21792SOL    HW268908   9.724   6.210   8.403  2.2498  1.1429  1.0341
21793SOL     OW68909   2.526   1.153   3.502  0.5823  0.3907  0.3181
21793SOL    HW168910   2.561   1.105   3.577 -0.3538 -1.7646 -0.5317
21793SOL    HW268911   2.494   1.235   3.539  0.5327 -0.4262  2.2161
21794SOL     OW68912  11.101   4.353  10.125 -0.2790  0.0938  0.0700
21794SOL    HW168913  11.052   4.308  10.194  0.0780 -0.0556  0.2335
21794SOL    HW268914  11.193   4.331  10.144 -0.1370  0.5234 -0.1148
21795SOL     OW68915   2.294   9.974   8.570  0.0569 -0.3150  0.0433
21795SOL    HW168916   2.261  10.057   8.603 -0.2834 -0.1078 -0.7842
21795SOL    HW268917   2.327   9.928   8.647 -3.1043 -0.9888  1.1398
21796SOL     OW68918   1.943   7.871   5.241  0.1186  0.0335  0.0212
21796SOL    HW168919   1.982   7.871   5.329  2.5455  0.8110 -0.9634
21796SOL    HW268920   1.906   7.958   5.231 -0.8190 -0.2921  0.4968
21797SOL     OW68921   8.285   1.342   5.205 -0.4268  0.3588  0.6935
21797SOL    HW168922   8.323   1.410   5.260 -0.8198 -0.9658  2.7098
21797SOL    HW268923   8.190   1.348   5.221 -0.8727  1.6283 -1.9131
21798SOL     OW68924  10.128  10.467   3.467 -0.5778 -0.6875  0.2608
21798SOL    HW168925  10.183  10.478   3.389 -0.0417 -0.4981  0.6606
21798SOL    HW268926  10.175  10.513   3.536 -1.6181  0.1247  0.4458
21799SOL     OW68927   7.198   4.927   0.530 -0.3639  0.0400 -0.1442
21799SOL    HW168928   7.259   5.000   0.527 -1.2781  0.9021  1.1941
21799SOL    HW268929   7.209   4.889   0.618  0.5091 -1.8353 -0.9985
21800SOL     OW68930   0.339   6.283   1.323 -0.4155  0.0826 -0.7450
21800SOL    HW168931   0.254   6.244   1.346 -0.2008 -0.4879 -0.9002
21800SOL    HW268932   0.385   6.214   1.276 -0.2177  0.6997 -1.4770
21801SOL     OW68933   7.909   3.248   0.631 -0.4402  0.2207 -0.0217
21801SOL    HW168934   7.875   3.169   0.589 -0.1545 -0.3727  0.8584
21801SOL    HW268935   7.976   3.280   0.570  0.6777 -1.1883  0.4018
21802SOL     OW68936  10.984   6.581  10.892 -0.5132  0.1479  0.4162
21802SOL    HW168937  11.069   6.566  10.935 -0.6806 -0.1162  0.6627
21802SOL    HW268938  10.919   6.554  10.958 -0.7645 -1.0467 -0.2961
21803SOL     OW68939  10.314   4.916   5.294  0.2387  0.2450 -0.2114
21803SOL    HW168940  10.314   5.012   5.292 -2.4827  0.3360 -0.1150
21803SOL    HW268941  10.302   4.894   5.386 -0.4364 -0.1141 -0.3760
21804SOL     OW68942   6.365   3.137   9.568 -0.8578 -0.9175 -0.5776
21804SOL    HW168943   6.400   3.054   9.602  0.4190 -1.1944 -2.3487
21804SOL    HW268944   6.442   3.180   9.529 -1.7262  0.5536 -0.7156
21805SOL     OW68945   2.697   7.300   7.429  0.0753 -0.1433  0.0588
21805SOL    HW168946   2.685   7.344   7.344  0.6801  1.2436  0.6679
21805SOL    HW268947   2.772   7.242   7.415  0.5743  0.5456 -0.1918
21806SOL     OW68948   6.327   5.585   4.248  0.1920 -0.0147  0.2756
21806SOL    HW168949   6.310   5.524   4.176  0.2502 -0.4573  0.6382
21806SOL    HW268950   6.415   5.618   4.231  0.7548 -1.1663  0.9003
21807SOL     OW68951   7.095   1.628   1.215 -0.0071  0.2455 -0.2064
21807SOL    HW168952   7.008   1.665   1.231 -0.4453 -0.7548 -0.1868
21807SOL    HW268953   7.087   1.536   1.241  1.0115  0.0962 -0.3749
21808SOL     OW68954   7.197   3.545   1.691 -0.2396 -0.3576  0.3643
21808SOL    HW168955   7.231   3.628   1.725  1.2875  0.2587 -2.3322
21808SOL    HW268956   7.115   3.568   1.648 -0.9907 -0.7218  1.5436
21809SOL     OW68957   4.414   1.955   6.076  0.2210  0.1870  0.2862
21809SOL    HW168958   4.348   1.891   6.103  0.2132  0.3742  0.7239
21809SOL    HW268959   4.488   1.940   6.135  0.5007  0.1044 -0.0789
21810SOL     OW68960   4.116   7.942   4.820  0.9924 -0.2377  0.1816
21810SOL    HW168961   4.189   8.003   4.805  0.1772  0.5766 -0.5856
21810SOL    HW268962   4.090   7.958   4.911 -0.6277  2.2219 -0.5956
21811SOL     OW68963   7.670   8.900   4.415  0.2166 -0.5434  0.1259
21811SOL    HW168964   7.667   8.865   4.326  0.3762  0.7249 -0.3983
21811SOL    HW268965   7.580   8.895   4.446  0.1423 -0.8896 -0.1418
21812SOL     OW68966   6.600   7.167   7.898 -0.3035 -0.4935  0.3870
21812SOL    HW168967   6.543   7.167   7.974 -0.0350  0.0524  0.5903
21812SOL    HW268968   6.666   7.234   7.916  0.2145 -0.8897  0.0145
21813SOL     OW68969   7.268   3.838   0.442 -0.5940  0.1557 -0.2850
21813SOL    HW168970   7.216   3.779   0.496 -1.1903  1.2623  0.4043
21813SOL    HW268971   7.247   3.925   0.476 -0.1115  0.7990 -1.5717
21814SOL     OW68972   4.147   9.606   9.150 -0.3379 -0.5805 -0.2520
21814SOL    HW168973   4.143   9.590   9.056  0.2656 -0.2415 -0.3429
21814SOL    HW268974   4.224   9.557   9.179  0.5963  0.8267 -0.2648
21815SOL     OW68975   1.608  11.102   1.161  0.6603 -0.3169  0.0055
21815SOL    HW168976   1.554  11.054   1.098  1.2572  0.0402 -0.8005
21815SOL    HW268977   1.697  11.075   1.141  1.1157  1.7762 -1.0936
21816SOL     OW68978   6.464  10.947   5.447  0.1639 -0.3223 -0.4280
21816SOL    HW168979   6.529  10.923   5.513  1.7524 -0.5433 -2.0045
21816SOL    HW268980   6.477  10.883   5.377 -1.2571  0.1010 -1.1131
21817SOL     OW68981  10.247   7.695  10.247  0.8527 -0.0626  0.2807
21817SOL    HW168982  10.312   7.766  10.247  0.1286  0.6252  1.0092
21817SOL    HW268983  10.206   7.701  10.333  0.1351 -0.7735 -0.0067
21818SOL     OW68984   4.620   8.933   4.806  0.2077  0.5885  0.4446
21818SOL    HW168985   4.692   8.979   4.764  0.7042  0.6299  1.3143
21818SOL    HW268986   4.661   8.885   4.878 -0.3942 -0.6713 -0.0071
21819SOL     OW68987   1.582   2.115   9.182  0.0106 -0.0838 -0.2489
21819SOL    HW168988   1.615   2.159   9.104  0.2010  0.6595  0.2370
21819SOL    HW268989   1.530   2.182   9.227 -0.0362 -0.4795  0.2963
21820SOL     OW68990   0.436   7.932   4.301  0.8329 -0.2577 -0.6897
21820SOL    HW168991   0.464   7.855   4.252 -0.3905 -0.2316 -1.4748
21820SOL    HW268992   0.366   7.970   4.248 -0.2006  0.0593  0.8309
21821SOL     OW68993   8.151  10.150   6.692 -0.3283 -0.1379 -0.4968
21821SOL    HW168994   8.131  10.241   6.714 -0.4881 -0.2215 -0.2968
21821SOL    HW268995   8.216  10.123   6.757 -2.8734 -1.2896  1.7741
21822SOL     OW68996   0.511   4.424   1.437 -0.2026  0.3114  0.5207
21822SOL    HW168997   0.549   4.421   1.349 -1.1099  0.7854  0.1012
21822SOL    HW268998   0.584   4.451   1.493  0.7156 -1.2112  0.1238
21823SOL     OW68999   5.260   9.011   8.915 -0.4876  0.3261  0.2985
21823SOL    HW169000   5.210   8.976   8.989  1.0650 -0.6329  0.9717
21823SOL    HW269001   5.290   9.097   8.944  2.6206 -1.1867  2.1767
21824SOL     OW69002   0.828   8.704   9.269  0.2730 -0.2091 -0.0653
21824SOL    HW169003   0.887   8.734   9.338  0.0574  0.4336 -0.1528
21824SOL    HW269004   0.885   8.689   9.194  0.2199  1.3921 -0.4615
21825SOL     OW69005   5.551   7.072   0.013  0.6607  0.1186  0.7042
21825SOL    HW169006   5.580   7.156   0.048 -2.1018  1.4797  0.0050
21825SOL    HW269007   5.528   7.090  -0.078  1.3382 -1.7829  0.0818
21826SOL     OW69008   0.944  10.756   1.615 -0.0387 -0.1501  0.0532
21826SOL    HW169009   1.028  10.772   1.658 -0.2497  1.6647 -0.1411
21826SOL    HW269010   0.883  10.738   1.687  0.6844 -2.6584  0.1416
21827SOL     OW69011   3.077   2.719   3.916 -0.5077 -0.5276 -0.0909
21827SOL    HW169012   3.071   2.663   3.839 -1.0128 -0.7358  0.1004
21827SOL    HW269013   3.171   2.720   3.937 -0.2987 -0.0591 -1.0013
21828SOL     OW69014   4.705   2.307   5.494  0.2882 -0.2022  0.2231
21828SOL    HW169015   4.616   2.273   5.495  0.3223 -0.2872  0.7764
21828SOL    HW269016   4.696   2.400   5.515  0.3641 -0.3190  0.8117
21829SOL     OW69017   0.420   9.053   6.059  0.2831  0.1395  0.4533
21829SOL    HW169018   0.479   9.015   5.993 -1.9544 -0.9548 -1.0765
21829SOL    HW269019   0.471   9.055   6.139  2.3667 -0.7721 -0.7744
21830SOL     OW69020   8.059   6.739   5.865  0.0266  0.4059 -0.0114
21830SOL    HW169021   8.059   6.758   5.771  1.1169 -0.7396 -0.2622
21830SOL    HW269022   8.133   6.680   5.878  0.9945  1.9204  1.8536
21831SOL     OW69023  10.438   3.799   4.955  0.2346  0.0054  0.5837
21831SOL    HW169024  10.528   3.787   4.987  0.6469  1.2199 -0.0214
21831SOL    HW269025  10.403   3.711   4.945  1.6883 -0.5363 -0.0260
21832SOL     OW69026   8.519   8.495   6.065 -0.2408  0.9954  0.6591
21832SOL    HW169027   8.589   8.509   6.129  0.4007  1.3613 -0.0957
21832SOL    HW269028   8.562   8.447   5.994 -0.9190  0.6708  0.4656
21833SOL     OW69029  10.069   8.327   9.109  0.3080  0.1181  0.1172
21833SOL    HW169030   9.984   8.335   9.065  1.5844  0.6578 -2.4810
21833SOL    HW269031  10.109   8.414   9.098  1.3239 -0.2223  1.0096
21834SOL     OW69032   2.738   9.836   3.102  0.1439 -0.0930 -0.2131
21834SOL    HW169033   2.811   9.894   3.081  0.1093 -0.1980 -0.6357
21834SOL    HW269034   2.729   9.780   3.025  0.6628 -1.1793  0.4897
21835SOL     OW69035   8.259   3.363   9.382  0.3705  0.5385 -0.0020
21835SOL    HW169036   8.242   3.413   9.462 -0.1742  1.0640 -0.4267
21835SOL    HW269037   8.354   3.364   9.373  0.4082  0.9258  0.3614
21836SOL     OW69038   7.649   0.943   3.584 -0.0885  0.0327 -0.5015
21836SOL    HW169039   7.744   0.948   3.591  0.1160 -0.4400 -2.4434
21836SOL    HW269040   7.620   1.034   3.574  0.2546  0.0979 -0.8966
21837SOL     OW69041   1.625   0.909   3.446 -0.0527  0.2341 -0.2085
21837SOL    HW169042   1.696   0.898   3.383 -1.0326  0.1819 -1.3441
21837SOL    HW269043   1.597   1.000   3.435 -1.1583 -0.1667 -0.8887
21838SOL     OW69044   7.946  11.013  11.037 -0.0429  0.0405  0.3846
21838SOL    HW169045   7.980  11.087  11.087  2.1644 -1.0783  0.6410
21838SOL    HW269046   8.006  11.004  10.963 -2.4358  0.7834 -1.7786
21839SOL     OW69047   5.279   9.562   5.141 -0.2302  0.0700  0.3519
21839SOL    HW169048   5.364   9.567   5.099 -0.7139  0.9842 -0.5751
21839SOL    HW269049   5.289   9.610   5.223  0.9131 -2.3213  1.6881
21840SOL     OW69050   5.603   3.994  10.430 -0.5338 -0.5065  0.1184
21840SOL    HW169051   5.656   4.037  10.497 -1.7490  1.2589  0.0244
21840SOL    HW269052   5.514   3.996  10.466 -1.0298 -0.4973 -1.0914
21841SOL     OW69053   5.481   6.673   5.970 -0.1483 -0.4941  0.4713
21841SOL    HW169054   5.529   6.672   5.887  0.0436  1.2142  0.5318
21841SOL    HW269055   5.397   6.713   5.950 -0.8126 -1.7093  0.7599
21842SOL     OW69056   2.856   3.956   7.014 -0.8164 -0.3449  0.2131
21842SOL    HW169057   2.827   3.873   6.976  0.5999 -0.3538 -0.9302
21842SOL    HW269058   2.832   4.022   6.950 -1.0203  0.0129  0.6518
21843SOL     OW69059   2.113   6.529   5.169  0.1068  0.1377 -0.2753
21843SOL    HW169060   2.182   6.590   5.195 -0.6890  2.0493 -2.3170
21843SOL    HW269061   2.032   6.577   5.185 -0.6410 -1.0495 -0.3784
21844SOL     OW69062   0.055   0.875   1.521 -0.0422  0.2661 -0.0936
21844SOL    HW169063   0.090   0.831   1.443 -2.0494  0.0765 -0.9420
21844SOL    HW269064   0.031   0.963   1.490 -1.6075 -0.0768  0.0671
21845SOL     OW69065   7.017   7.100   7.083 -0.3429 -0.1635  0.2827
21845SOL    HW169066   7.061   7.039   7.024 -0.8727  0.2968 -0.6032
21845SOL    HW269067   7.084   7.166   7.103  0.8608 -1.9891  2.7922
21846SOL     OW69068   9.797   7.201   4.137  0.4638  0.2041  0.3772
21846SOL    HW169069   9.718   7.230   4.184 -1.2099 -2.0880 -0.7727
21846SOL    HW269070   9.856   7.276   4.139 -1.1533  1.5286  2.5792
21847SOL     OW69071   1.317   9.734  10.280  0.0379  0.2339 -0.1720
21847SOL    HW169072   1.258   9.795  10.237 -0.2208  0.2930  0.2647
21847SOL    HW269073   1.260   9.666  10.315  0.3643 -0.4932 -1.0363
21848SOL     OW69074   0.775   9.716   4.514  0.2714  0.6743  0.0503
21848SOL    HW169075   0.753   9.780   4.446  1.2680  1.2159  0.2109
21848SOL    HW269076   0.867   9.734   4.534  0.0389  0.4106  1.4290
21849SOL     OW69077   1.555   4.447  10.450  0.1666 -0.1866 -0.3344
21849SOL    HW169078   1.567   4.511  10.520 -2.4415  0.0076  0.0490
21849SOL    HW269079   1.554   4.363  10.495 -0.1802 -0.1642 -0.2921
21850SOL     OW69080   2.013   1.755   1.443  0.2486 -0.5777  0.2000
21850SOL    HW169081   2.000   1.731   1.535  0.3784 -0.6120  0.2097
21850SOL    HW269082   2.107   1.744   1.428  0.0925 -1.4617 -0.1892
21851SOL     OW69083   9.727   4.717   9.891 -0.0301  0.4596  0.1947
21851SOL    HW169084   9.805   4.761   9.856  0.9568  2.2471  4.1120
21851SOL    HW269085   9.753   4.625   9.898  0.6536  0.5157 -1.1347
21852SOL     OW69086   0.372   4.647   3.970 -0.1642  0.3737 -0.2120
21852SOL    HW169087   0.414   4.617   4.051 -0.5782  0.2901 -0.0231
21852SOL    HW269088   0.283   4.669   3.996 -0.0208  1.2666 -0.4623
21853SOL     OW69089   5.650   2.417   4.574  0.0435  0.1019 -0.4398
21853SOL    HW169090   5.620   2.326   4.570  1.4259 -0.3653 -1.0902
21853SOL    HW269091   5.587   2.461   4.630  1.1695 -2.0037  2.7470
21854SOL     OW69092   2.393   7.000   2.138  0.7673 -0.0822 -0.6646
21854SOL    HW169093   2.322   6.944   2.171 -0.4478  0.2919 -2.4645
21854SOL    HW269094   2.366   7.088   2.163 -0.0107  0.1718 -2.2999
21855SOL     OW69095   5.368   9.601  10.493 -0.5035 -0.0136 -0.3194
21855SOL    HW169096   5.392   9.685  10.454  0.0184  1.0301  2.0456
21855SOL    HW269097   5.398   9.536  10.430  3.1755  1.4249 -0.3297
21856SOL     OW69098   3.200   7.981   3.084  0.7376 -0.3416  0.3948
21856SOL    HW169099   3.136   8.045   3.114  0.6803 -1.5544  3.1841
21856SOL    HW269100   3.255   8.029   3.022 -0.9456  1.5833  0.2824
21857SOL     OW69101   3.003   7.755   6.276 -0.3728  0.0775 -0.2321
21857SOL    HW169102   2.915   7.722   6.255 -1.7769  3.1479  0.1821
21857SOL    HW269103   3.009   7.748   6.371  0.6493 -1.7995 -0.3917
21858SOL     OW69104  11.016   5.315   0.660 -0.7141  0.3548  0.0411
21858SOL    HW169105  10.995   5.376   0.590 -0.6863  0.7015  0.3294
21858SOL    HW269106  10.932   5.276   0.685 -0.5455 -0.8956 -1.1877
21859SOL     OW69107   4.430   3.293   5.839 -0.3060  0.1695 -0.1568
21859SOL    HW169108   4.519   3.261   5.826 -0.6350 -1.1943  0.7118
21859SOL    HW269109   4.410   3.271   5.931 -1.0826  1.6115  0.0395
21860SOL     OW69110   1.310  10.054   2.060  0.2942  0.2159 -0.0178
21860SOL    HW169111   1.358   9.972   2.048 -2.4526 -1.2015 -2.9278
21860SOL    HW269112   1.328  10.079   2.150  2.1639 -2.9589  0.6680
21861SOL     OW69113   6.107   5.588   6.819  0.1232  0.7426 -0.4097
21861SOL    HW169114   6.124   5.643   6.896  0.1269 -0.6613  0.6304
21861SOL    HW269115   6.011   5.580   6.816  0.1871 -0.5953  0.4923
21862SOL     OW69116   9.744   5.664   4.435  0.4955  0.4553 -1.1771
21862SOL    HW169117   9.808   5.705   4.376  0.4820  1.7675 -0.3219
21862SOL    HW269118   9.785   5.582   4.462  1.8076  1.2411 -0.6922
21863SOL     OW69119   6.415   7.050   5.082 -0.8702  0.0535  0.2065
21863SOL    HW169120   6.402   7.122   5.021  0.6334  0.9521  0.8739
21863SOL    HW269121   6.509   7.031   5.078 -0.7463  0.0288  2.0635
21864SOL     OW69122   1.774   6.865   7.911 -0.4814 -0.0150  0.0363
21864SOL    HW169123   1.805   6.927   7.976 -1.2583  1.5064 -0.9828
21864SOL    HW269124   1.853   6.833   7.868  0.0017 -0.7005  1.4031
21865SOL     OW69125   4.205   4.201   5.252  0.0606 -0.1974  0.2505
21865SOL    HW169126   4.130   4.260   5.251 -1.0730 -1.5890 -0.3640
21865SOL    HW269127   4.239   4.206   5.341 -0.8963  0.2903  0.5985
21866SOL     OW69128   4.310  10.923   3.499 -0.6772  0.6232  0.1046
21866SOL    HW169129   4.296  10.871   3.420 -1.7298  1.2846 -0.1598
21866SOL    HW269130   4.286  10.866   3.571  3.0131 -1.0410  0.2536
21867SOL     OW69131   2.613  10.952   6.568  0.9298  0.3436 -0.4330
21867SOL    HW169132   2.588  10.862   6.589 -0.2336  0.6473 -0.4297
21867SOL    HW269133   2.642  10.989   6.652  0.5652  0.2286 -0.2544
21868SOL     OW69134   2.064   0.515   8.987 -0.2368  0.4690 -0.1598
21868SOL    HW169135   2.122   0.554   8.921 -0.1993  0.5359 -0.0878
21868SOL    HW269136   1.976   0.543   8.961 -0.4058 -0.9080 -1.1658
21869SOL     OW69137   0.387   5.066   0.775  0.2968 -0.5027  1.1629
21869SOL    HW169138   0.327   5.012   0.724 -0.8639  1.7542  0.0248
21869SOL    HW269139   0.447   5.104   0.711  0.3850  0.4185  1.7660
21870SOL     OW69140   7.713  10.402   7.423  0.2843 -0.1372 -0.1495
21870SOL    HW169141   7.803  10.371   7.433  0.4603 -0.1727 -1.5914
21870SOL    HW269142   7.662  10.350   7.485  1.0482 -1.1780 -0.3742
21871SOL     OW69143   6.345   7.734   1.545 -0.0234  0.6278 -0.3065
21871SOL    HW169144   6.389   7.751   1.628  0.3483 -0.1820 -0.3279
21871SOL    HW269145   6.278   7.669   1.565  0.4386  0.0124 -0.7450
21872SOL     OW69146  10.749   9.497   1.790 -0.1836  0.1577 -0.4689
21872SOL    HW169147  10.834   9.530   1.818  0.5360 -0.6180 -1.6588
21872SOL    HW269148  10.761   9.474   1.698 -1.5868 -0.2974 -0.5682
21873SOL     OW69149   4.730   2.688   3.589 -1.1209 -0.0283 -0.0375
21873SOL    HW169150   4.636   2.703   3.600 -1.3603  0.4951 -2.4454
21873SOL    HW269151   4.752   2.724   3.504  1.7383  1.8003  1.2947
21874SOL     OW69152   8.662   2.792   2.965  0.1524 -0.3323 -0.7575
21874SOL    HW169153   8.737   2.791   2.906  0.7565 -0.7367 -0.0004
21874SOL    HW269154   8.687   2.853   3.035 -0.3566 -0.2250 -0.6621
21875SOL     OW69155   9.586   4.226   7.457  0.5507  0.0651 -0.1885
21875SOL    HW169156   9.584   4.318   7.429  0.5518  0.1153 -0.0229
21875SOL    HW269157   9.496   4.206   7.482  0.7660  0.3625  0.8777
21876SOL     OW69158   3.589   5.738   3.468  0.2386  0.1415 -0.3427
21876SOL    HW169159   3.632   5.822   3.485 -1.8125  1.1542  0.1270
21876SOL    HW269160   3.630   5.677   3.529  2.4947  0.4967 -1.4093
21877SOL     OW69161   8.743   6.255  10.216 -0.1252  0.6694  0.2809
21877SOL    HW169162   8.730   6.334  10.268  1.1474  0.8644  0.3219
21877SOL    HW269163   8.837   6.253  10.198 -0.1059 -0.9516  0.4570
21878SOL     OW69164   1.845   3.731   4.925 -1.2579 -0.2176 -0.3440
21878SOL    HW169165   1.763   3.694   4.958 -0.7663 -3.3211 -2.2238
21878SOL    HW269166   1.903   3.734   5.001 -2.9063  1.7094  0.9470
21879SOL     OW69167   4.181   5.236   9.363  0.1724 -0.1348  0.0776
21879SOL    HW169168   4.222   5.317   9.394 -0.5154  1.1089 -2.0804
21879SOL    HW269169   4.215   5.225   9.274 -0.1589 -1.9633  0.1488
21880SOL     OW69170   4.785   7.575   6.429 -0.1226 -0.3282 -0.0930
21880SOL    HW169171   4.729   7.639   6.385  0.5322  0.7405  0.5792
21880SOL    HW269172   4.874   7.603   6.408  0.1822 -0.7214  0.6412
21881SOL     OW69173  10.024   9.346   7.694  0.0711  0.0257  0.3710
21881SOL    HW169174  10.062   9.386   7.772  0.2920 -1.9902  1.3768
21881SOL    HW269175  10.085   9.368   7.623 -0.0481  1.7456  0.7664
21882SOL     OW69176   0.036   3.592  10.506 -0.4372 -0.1726  0.0646
21882SOL    HW169177   0.082   3.643  10.439  1.0060 -2.2717 -0.6623
21882SOL    HW269178   0.030   3.504  10.469 -0.8210 -1.0917  2.1590
21883SOL     OW69179   6.848   2.370   9.015 -0.3301 -0.3326  0.4326
21883SOL    HW169180   6.930   2.331   8.985 -0.9437 -0.2627 -1.5074
21883SOL    HW269181   6.869   2.461   9.033  0.1148 -0.4348  0.4287
21884SOL     OW69182   6.090   0.385   5.410 -0.2397 -0.1020 -0.0730
21884SOL    HW169183   6.027   0.457   5.405 -0.9381 -0.6502  0.5235
21884SOL    HW269184   6.107   0.362   5.319 -1.0801 -0.0908 -0.2399
21885SOL     OW69185   6.788   0.797   9.117 -0.0042  1.1618 -0.3115
21885SOL    HW169186   6.785   0.869   9.180 -0.1499 -0.0439  1.0945
21885SOL    HW269187   6.704   0.804   9.070 -1.7891 -0.2802  2.3935
21886SOL     OW69188   5.834   5.827   4.055 -0.1645  0.7988 -0.7116
21886SOL    HW169189   5.877   5.913   4.056 -1.2090  1.3366 -0.8089
21886SOL    HW269190   5.854   5.791   3.969  0.7329  0.6946 -0.4731
21887SOL     OW69191   6.163   5.644   2.671  0.0411 -0.1624  0.2861
21887SOL    HW169192   6.126   5.557   2.658  2.3673 -1.1416 -0.2213
21887SOL    HW269193   6.240   5.646   2.615  0.1228  2.2057  0.3768
21888SOL     OW69194  11.042   3.619   3.226  0.1181 -0.0125  0.1883
21888SOL    HW169195  11.100   3.554   3.266  0.0174 -0.6178 -0.6306
21888SOL    HW269196  10.982   3.644   3.297  0.0718 -0.9072  0.4846
21889SOL     OW69197   6.562   2.692   2.249  0.3736 -0.4789  0.1479
21889SOL    HW169198   6.542   2.640   2.170  0.6525  1.3839 -1.2124
21889SOL    HW269199   6.657   2.688   2.257  0.3006 -1.2061  0.8189
21890SOL     OW69200   6.807  10.794   2.154 -0.0001  0.4055  0.6275
21890SOL    HW169201   6.757  10.740   2.093  1.1745 -0.1829  0.1314
21890SOL    HW269202   6.789  10.755   2.240  1.1910 -1.1543  0.2322
21891SOL     OW69203   0.984   3.497   2.199  0.1838  0.1253  0.0824
21891SOL    HW169204   0.995   3.511   2.105 -1.1351 -1.6610 -0.3970
21891SOL    HW269205   0.904   3.545   2.221 -0.6836 -1.1551 -0.1847
21892SOL     OW69206   5.722   1.931   5.632 -0.6093  0.2822  0.0455
21892SOL    HW169207   5.810   1.923   5.667 -1.0772 -0.4696  1.0820
21892SOL    HW269208   5.709   2.026   5.624  0.5564  0.3944 -0.8722
21893SOL     OW69209   9.396   7.578   0.660 -0.8946 -0.6733 -0.0941
21893SOL    HW169210   9.366   7.495   0.699 -1.9263  0.3584  1.4269
21893SOL    HW269211   9.473   7.602   0.713 -0.0021 -1.1112 -1.1574
21894SOL     OW69212   2.753   3.858   0.970 -0.1092  0.2950  0.0539
21894SOL    HW169213   2.658   3.855   0.967 -0.0944  0.4666 -1.0544
21894SOL    HW269214   2.775   3.855   1.064 -1.2557  2.0408  0.4198
21895SOL     OW69215   7.145   7.964   5.939 -0.1532  0.3982 -0.1412
21895SOL    HW169216   7.211   7.909   5.982 -1.7389  0.5057  2.6753
21895SOL    HW269217   7.166   8.053   5.966 -1.4336  0.4255  0.8593
21896SOL     OW69218   4.893   7.976   3.125 -0.0386 -0.5521 -0.1486
21896SOL    HW169219   4.843   7.905   3.084 -0.1704  0.2409 -1.4108
21896SOL    HW269220   4.904   8.041   3.056  1.6862 -0.1454  0.4469
21897SOL     OW69221   6.251  10.968   4.914 -0.0566  0.2240  0.6195
21897SOL    HW169222   6.334  10.944   4.873  0.4783  1.1305  1.1352
21897SOL    HW269223   6.260  10.938   5.005  0.4289  1.8864  1.1426
21898SOL     OW69224   4.639   3.956  10.666  0.6210  0.0030  0.1195
21898SOL    HW169225   4.587   3.917  10.736 -0.2840  0.2930 -0.3711
21898SOL    HW269226   4.729   3.929  10.684  0.1893 -1.2283  0.5075
21899SOL     OW69227   4.996   0.895   4.632 -0.3025  0.2488  0.2014
21899SOL    HW169228   4.978   0.839   4.707  0.5000  0.4780  0.5817
21899SOL    HW269229   5.027   0.977   4.670  1.6732 -0.1641 -0.3512
21900SOL     OW69230   4.600   9.109   9.310 -0.5000  0.1081 -0.8016
21900SOL    HW169231   4.680   9.057   9.304 -0.0213  0.8111 -0.5314
21900SOL    HW269232   4.587   9.143   9.222  0.4515  1.3984 -0.4581
21901SOL     OW69233   8.887   6.115   1.105 -0.6384  0.8903  0.2812
21901SOL    HW169234   8.896   6.106   1.010 -0.8829  1.2695  0.2196
21901SOL    HW269235   8.807   6.166   1.117 -0.3410  1.2742  0.6762
21902SOL     OW69236   9.815   0.544   5.396 -0.0412  0.0518 -0.1057
21902SOL    HW169237   9.811   0.621   5.452 -0.7139 -0.7441  1.0034
21902SOL    HW269238   9.829   0.578   5.308  0.7726  1.3606  0.5020
21903SOL     OW69239   7.383   2.599   2.251  0.1123  0.9928 -0.2821
21903SOL    HW169240   7.353   2.610   2.161 -0.0739 -0.5981 -0.4403
21903SOL    HW269241   7.465   2.550   2.243 -1.3519 -1.8301  0.4704
21904SOL     OW69242   5.787   1.513   1.769  0.5142 -0.8222 -0.2982
21904SOL    HW169243   5.758   1.423   1.751  0.4461 -0.5515 -1.6340
21904SOL    HW269244   5.856   1.529   1.706 -0.1930  0.4259 -0.7874
21905SOL     OW69245   4.878   1.722   9.516  0.2902  0.5691 -0.5620
21905SOL    HW169246   4.783   1.735   9.519  0.5916  3.0445  1.1523
21905SOL    HW269247   4.891   1.634   9.551 -1.3404  0.1982 -0.8063
21906SOL     OW69248   4.790   9.774   5.424  0.0738 -0.9349 -0.3368
21906SOL    HW169249   4.828   9.837   5.487  0.1842 -2.1342  0.8387
21906SOL    HW269250   4.811   9.811   5.339  0.9307  0.1727  0.3181
21907SOL     OW69251   5.179  10.311   1.638 -0.3609 -0.0685  0.2747
21907SOL    HW169252   5.237  10.244   1.674 -0.5773  0.2670  1.2786
21907SOL    HW269253   5.225  10.394   1.657  0.1489  0.0751 -1.3833
21908SOL     OW69254   7.012   0.964   6.337  0.1872 -0.0927  0.1043
21908SOL    HW169255   7.000   0.873   6.308  2.1903 -0.6811  0.9555
21908SOL    HW269256   7.092   0.992   6.292  0.6429  0.5920  1.3115
21909SOL     OW69257   5.519   2.614   0.531  0.3694 -0.0705  0.7145
21909SOL    HW169258   5.456   2.600   0.602  0.1399 -0.7802  0.3873
21909SOL    HW269259   5.488   2.692   0.486 -2.2204 -2.1021 -1.4025
21910SOL     OW69260   1.292   1.591   8.217  0.0765 -0.2030 -0.2327
21910SOL    HW169261   1.258   1.680   8.201 -1.5689 -0.7150  0.1737
21910SOL    HW269262   1.365   1.604   8.277  0.0078  0.8993 -0.3639
21911SOL     OW69263   8.372   1.785  10.556  0.3931  0.1716 -0.3606
21911SOL    HW169264   8.350   1.797  10.463  0.5321 -0.4195 -0.4715
21911SOL    HW269265   8.315   1.846  10.602 -1.2464 -1.0724 -0.6523
21912SOL     OW69266   8.862   5.131   8.473 -0.3291 -0.6730  0.0736
21912SOL    HW169267   8.858   5.219   8.510  1.2953  0.7237 -2.7584
21912SOL    HW269268   8.895   5.076   8.545  1.0564  1.5357  1.2322
21913SOL     OW69269   4.470   6.870  10.397 -0.0048  0.4267  0.4440
21913SOL    HW169270   4.476   6.798  10.334  0.2649  1.0690 -0.2877
21913SOL    HW269271   4.561   6.897  10.411 -0.1247  0.8290  0.4641
21914SOL     OW69272   9.816  10.776   7.102  0.0124 -0.1360 -0.1624
21914SOL    HW169273   9.909  10.752   7.093  0.2506 -0.3626  2.2996
21914SOL    HW269274   9.769  10.708   7.053  1.1099  0.3094 -1.9597
21915SOL     OW69275   4.909   9.805   4.073  0.1823  0.6108  0.2301
21915SOL    HW169276   4.849   9.772   4.007  0.0360  1.0133  0.1614
21915SOL    HW269277   4.917   9.899   4.055  2.1524  0.3009 -0.8332
21916SOL     OW69278   0.857   4.008   2.078  0.3824 -0.3502 -0.6020
21916SOL    HW169279   0.770   3.969   2.070 -0.2396  0.8387  0.2392
21916SOL    HW269280   0.904   3.950   2.139  0.0418 -0.7304 -0.6966
21917SOL     OW69281  10.249   3.437   1.400 -0.2639  0.2676  0.3236
21917SOL    HW169282  10.296   3.402   1.477  0.5610 -1.2731 -0.8241
21917SOL    HW269283  10.172   3.479   1.437 -0.5879 -1.5937  1.9529
21918SOL     OW69284  10.548   7.884   0.395  0.3842  0.1578  0.5926
21918SOL    HW169285  10.526   7.959   0.340 -0.3285 -0.0978  0.5120
21918SOL    HW269286  10.508   7.809   0.350 -1.2081  0.0879  2.0385
21919SOL     OW69287   2.637   9.892  10.421 -0.6438 -0.2840  0.6383
21919SOL    HW169288   2.694   9.835  10.369  1.3401  0.4873  1.8424
21919SOL    HW269289   2.550   9.854  10.411  0.1369 -1.8244 -0.8953
21920SOL     OW69290   2.281   2.290   6.959  0.1302  0.4760 -0.2533
21920SOL    HW169291   2.327   2.329   7.033 -0.5921 -1.1937  1.1354
21920SOL    HW269292   2.203   2.344   6.948 -0.6544 -0.2653  1.3824
21921SOL     OW69293   2.214   4.248   1.389 -0.2593  0.3577 -0.1672
21921SOL    HW169294   2.279   4.272   1.323 -0.0599 -0.1532 -0.1620
21921SOL    HW269295   2.257   4.268   1.473 -0.2489  0.3676 -0.1750
21922SOL     OW69296  10.743   2.049   8.165  0.1848 -0.4729 -0.2429
21922SOL    HW169297  10.743   1.966   8.118  0.9384 -2.0521  2.3408
21922SOL    HW269298  10.651   2.074   8.169 -0.2793 -2.1112  0.3722
21923SOL     OW69299   4.004   8.889   4.448  0.6697 -0.4729 -0.5767
21923SOL    HW169300   4.009   8.937   4.531  0.2581 -0.8415 -0.3387
21923SOL    HW269301   4.095   8.863   4.431  1.0699  1.2192 -1.2135
21924SOL     OW69302   1.490  10.532   5.012 -0.1619 -0.5142  0.1641
21924SOL    HW169303   1.584  10.532   5.030 -0.2808 -0.8738  0.8006
21924SOL    HW269304   1.460  10.618   5.042 -0.0991 -0.5354  0.2869
21925SOL     OW69305   8.246   3.796   2.561 -0.4290  0.4610  0.5431
21925SOL    HW169306   8.224   3.704   2.548  1.3634 -0.1912  1.7410
21925SOL    HW269307   8.167   3.835   2.598 -1.2101 -0.5723 -0.0069
21926SOL     OW69308   4.179   0.567   1.809  0.4735 -0.1406  0.0367
21926SOL    HW169309   4.092   0.529   1.821  0.7001 -0.9137 -0.6448
21926SOL    HW269310   4.216   0.573   1.897 -0.9811  2.0219  0.5980
21927SOL     OW69311  10.161  10.505   5.528 -0.2566 -0.2237 -0.2894
21927SOL    HW169312  10.209  10.422   5.535 -0.4029 -0.2512  0.4050
21927SOL    HW269313  10.070  10.479   5.517 -0.4172 -0.1612  0.7810
21928SOL     OW69314   2.607   1.187   0.246 -0.1706  0.1032  0.2576
21928SOL    HW169315   2.550   1.140   0.307 -0.1700  1.1448  1.0860
21928SOL    HW269316   2.547   1.235   0.189 -0.1607 -0.5482 -0.3115
21929SOL     OW69317   3.163   0.701   3.106  0.1111  0.2531 -0.3380
21929SOL    HW169318   3.256   0.707   3.127 -0.0818 -1.4213  1.2849
21929SOL    HW269319   3.155   0.738   3.018  2.4143 -0.2650 -0.8185
21930SOL     OW69320   2.459   6.912   3.021  0.4360  0.3165  0.1968
21930SOL    HW169321   2.552   6.892   3.018  0.2284 -0.6284 -1.2181
21930SOL    HW269322   2.453   6.999   3.059  1.9819  0.9122 -0.8651
21931SOL     OW69323   4.567   1.857   4.076 -0.1169  0.1404  0.3128
21931SOL    HW169324   4.519   1.929   4.117 -2.2714 -1.5550  1.0038
21931SOL    HW269325   4.659   1.874   4.096 -0.8350  0.8865  3.4592
21932SOL     OW69326   8.256   8.890   0.055 -0.0859 -0.0688  0.2497
21932SOL    HW169327   8.292   8.977   0.040  0.2548  0.1527  2.0988
21932SOL    HW269328   8.308   8.854   0.126  0.6670 -2.3559 -1.3339
21933SOL     OW69329  10.855   1.540   6.175  0.9159 -0.4884  0.3819
21933SOL    HW169330  10.870   1.531   6.269  1.6156 -2.5214  0.1269
21933SOL    HW269331  10.768   1.503   6.161  2.0001 -3.1257 -0.0886
21934SOL     OW69332   5.827   4.827  10.834  0.6563  0.3597  0.1546
21934SOL    HW169333   5.851   4.873  10.754 -0.8605 -0.6547 -0.9574
21934SOL    HW269334   5.866   4.740  10.825 -0.2967 -0.0727  0.0458
21935SOL     OW69335   8.446   5.426   8.712  0.0549  0.6139  0.2656
21935SOL    HW169336   8.447   5.332   8.730  0.6710  0.6565  0.4896
21935SOL    HW269337   8.409   5.433   8.624  0.8878  0.0823 -0.1441
21936SOL     OW69338   1.255   3.219   3.877 -0.1688  0.2943  0.0322
21936SOL    HW169339   1.252   3.123   3.872  0.1133  0.2816  0.0772
21936SOL    HW269340   1.319   3.237   3.946 -2.2247  0.4870  2.0242
21937SOL     OW69341   8.881   0.374   0.143  0.0923 -0.4760  0.7546
21937SOL    HW169342   8.974   0.367   0.163 -0.1151  0.3409  2.1519
21937SOL    HW269343   8.868   0.466   0.121 -0.2247 -0.7833 -0.4035
21938SOL     OW69344  10.401   5.551   4.763  0.3795 -0.0921 -0.1140
21938SOL    HW169345  10.486   5.542   4.806 -0.8177  0.0649  2.4523
21938SOL    HW269346  10.348   5.480   4.799 -1.0333  0.7316 -0.4934
21939SOL     OW69347  10.836   5.840   0.597  0.3457  0.5818  0.2435
21939SOL    HW169348  10.756   5.821   0.547  0.6896  0.3374 -0.2284
21939SOL    HW269349  10.869   5.921   0.559  0.5382  0.4660  0.1619
21940SOL     OW69350   2.278   1.234   5.984  0.0361 -0.5110 -0.2593
21940SOL    HW169351   2.308   1.253   6.073 -0.7177  2.0906 -0.4741
21940SOL    HW269352   2.331   1.291   5.928 -1.8270  0.4956 -1.1027
21941SOL     OW69353   5.749   9.530  10.374  0.2613  0.4576  1.1696
21941SOL    HW169354   5.760   9.548  10.468 -0.9220  3.0491  0.9005
21941SOL    HW269355   5.802   9.597  10.331  2.7630 -2.1637 -0.1149
21942SOL     OW69356   1.757   0.058   4.051  0.1006  0.0355  0.0563
21942SOL    HW169357   1.833   0.027   4.002  0.2401  2.3393 -1.3098
21942SOL    HW269358   1.682   0.031   3.999  0.0583 -0.6320  0.4533
21943SOL     OW69359   5.613  10.801  10.170  0.5821 -0.2540  0.3367
21943SOL    HW169360   5.630  10.843  10.254  0.3586 -0.8589  0.6879
21943SOL    HW269361   5.637  10.868  10.105 -0.9040  0.8770  0.8845
21944SOL     OW69362   5.588   9.713   0.973  0.4244 -0.1179 -0.2064
21944SOL    HW169363   5.662   9.671   1.017  0.4077  0.0898  0.0206
21944SOL    HW269364   5.511   9.677   1.018  0.4412  1.1058  0.8498
21945SOL     OW69365   4.307   7.574   9.287 -0.5555 -0.0083  0.2259
21945SOL    HW169366   4.397   7.586   9.317 -0.8556 -0.4554  1.3482
21945SOL    HW269367   4.301   7.627   9.207  0.8267 -0.3433 -0.1192
21946SOL     OW69368   2.901   5.603   7.349  0.1311  0.9004 -0.2361
21946SOL    HW169369   2.892   5.523   7.298  0.1218  0.2752  0.7173
21946SOL    HW269370   2.913   5.672   7.284  1.6253 -0.0681 -1.0517
21947SOL     OW69371   0.634  10.504   4.226 -0.0400  0.1864 -0.4332
21947SOL    HW169372   0.669  10.592   4.209  1.0779 -0.5214 -2.1622
21947SOL    HW269373   0.711  10.447   4.222 -0.7516 -0.8940  0.6393
21948SOL     OW69374  11.109   9.654   6.362  0.3622 -0.1131 -0.2290
21948SOL    HW169375  11.105   9.559   6.376 -0.1390 -0.1628 -0.6652
21948SOL    HW269376  11.200   9.677   6.379  0.2726 -0.5181  0.8497
21949SOL     OW69377   6.414   3.982   1.917 -0.2731  0.0005  0.3170
21949SOL    HW169378   6.472   4.030   1.976  0.6733 -2.5648  1.6115
21949SOL    HW269379   6.348   3.944   1.974 -0.7673 -0.5711 -0.6165
21950SOL     OW69380   9.233   0.032   6.889  0.0345 -0.0879 -0.1246
21950SOL    HW169381   9.246  -0.039   6.827 -1.6900  1.0147 -1.8698
21950SOL    HW269382   9.294   0.014   6.960  0.7581 -2.4227 -1.2513
21951SOL     OW69383   0.245   6.933   6.771 -0.4303 -0.3641 -0.1487
21951SOL    HW169384   0.195   6.859   6.738 -3.2749  0.3998  2.0901
21951SOL    HW269385   0.185   7.008   6.763  2.0361  1.6504 -1.5796
21952SOL     OW69386   3.880   4.527   7.928  0.1033  0.0889  0.2058
21952SOL    HW169387   3.863   4.559   8.016 -1.0129 -1.7498  0.7036
21952SOL    HW269388   3.884   4.607   7.874 -0.5182  1.1598  1.6785
21953SOL     OW69389   5.947   4.816   7.470 -0.0681 -0.1905  0.0547
21953SOL    HW169390   5.868   4.799   7.522 -1.1527  0.8361 -1.1822
21953SOL    HW269391   5.918   4.806   7.379  1.1661  0.4699 -0.4274
21954SOL     OW69392   9.664   4.484  10.798 -0.0123 -0.3254  0.2686
21954SOL    HW169393   9.597   4.451  10.739  1.0061 -2.9901  0.4545
21954SOL    HW269394   9.710   4.406  10.829  2.4539  1.2722  1.0175
21955SOL     OW69395   9.107   0.340   2.829 -0.0287 -0.4128 -0.2605
21955SOL    HW169396   9.150   0.259   2.801  1.2298  0.5764 -1.3167
21955SOL    HW269397   9.177   0.390   2.871  0.0244  1.3731 -2.3006
21956SOL     OW69398   9.272   5.820   1.327 -0.1209  0.1476  0.0544
21956SOL    HW169399   9.194   5.813   1.382  0.1899  1.3062  0.6795
21956SOL    HW269400   9.262   5.902   1.280  1.4213  1.1323  1.3274
21957SOL     OW69401   5.774  10.361   7.966 -0.6434  0.3169  0.7367
21957SOL    HW169402   5.792  10.361   7.872  0.1536 -0.1101  0.8826
21957SOL    HW269403   5.804  10.448   7.996  0.6348 -0.1352  0.8577
21958SOL     OW69404   1.385   8.022   7.661 -0.2993 -0.2139 -1.2597
21958SOL    HW169405   1.357   8.109   7.689  0.1399 -0.0354 -1.3605
21958SOL    HW269406   1.425   8.037   7.575 -2.2380 -0.8522 -2.3351
21959SOL     OW69407   4.162   4.513   6.287 -0.6862  0.1397  0.3243
21959SOL    HW169408   4.202   4.433   6.253  0.7451  0.4264  1.2245
21959SOL    HW269409   4.197   4.522   6.375 -0.6051  1.8730  0.1545
21960SOL     OW69410   4.508   0.744   9.547 -0.7498 -0.3376 -0.7503
21960SOL    HW169411   4.431   0.702   9.585 -0.3252  1.2699  2.2046
21960SOL    HW269412   4.483   0.836   9.538  1.5856  0.9529  3.3092
21961SOL     OW69413   0.854   0.013   0.534  0.4018  0.3528 -0.4071
21961SOL    HW169414   0.798   0.085   0.565 -0.7604 -1.1587  1.1496
21961SOL    HW269415   0.812  -0.016   0.453  0.8609  1.3643 -1.0344
21962SOL     OW69416   4.946   8.538   3.177  0.7428 -0.8519 -0.3221
21962SOL    HW169417   4.882   8.521   3.107  2.3381 -0.8608 -1.8343
21962SOL    HW269418   4.997   8.612   3.146  0.0133  0.7042  1.9376
21963SOL     OW69419   1.176   1.035   4.023 -0.0790  0.4612  0.0961
21963SOL    HW169420   1.215   1.118   4.050 -0.5035  0.5599  0.4170
21963SOL    HW269421   1.126   1.057   3.944  1.6897  0.0462 -1.2046
21964SOL     OW69422   6.447   6.884   4.147 -0.3983 -0.2937  0.0757
21964SOL    HW169423   6.435   6.871   4.053 -1.3585  1.0427 -0.0175
21964SOL    HW269424   6.505   6.960   4.153 -1.1694  0.2674  0.5442
21965SOL     OW69425   1.892   2.236   7.001  0.0728  0.7758  0.0680
21965SOL    HW169426   1.916   2.162   6.945 -2.6755 -0.7213  0.7013
21965SOL    HW269427   1.866   2.305   6.939  0.4569  0.4100 -0.5083
21966SOL     OW69428   7.605   0.464   1.663  0.6175 -0.2504  0.1200
21966SOL    HW169429   7.639   0.515   1.736  1.0567 -1.9116  1.1178
21966SOL    HW269430   7.570   0.385   1.703 -1.6206 -0.0112 -1.2103
21967SOL     OW69431  11.028   5.338   7.472 -0.4971 -0.4717  0.6604
21967SOL    HW169432  10.974   5.263   7.496 -0.3767 -1.4101 -1.6685
21967SOL    HW269433  11.118   5.307   7.482 -0.4218 -1.3809 -2.0374
21968SOL     OW69434   9.913   3.381   2.836  0.3458  0.2582 -0.5585
21968SOL    HW169435   9.947   3.343   2.917 -0.3363  0.5029 -0.1448
21968SOL    HW269436   9.889   3.306   2.782  0.8590  0.0938 -0.5571
21969SOL     OW69437   0.823   0.923  10.641  0.0649 -0.0431 -0.5150
21969SOL    HW169438   0.874   0.989  10.687 -0.2383 -0.3627  0.3071
21969SOL    HW269439   0.875   0.842  10.650  0.0212 -0.0991 -0.7633
21970SOL     OW69440   6.579   2.960   8.211 -0.2446 -0.9097  0.1847
21970SOL    HW169441   6.528   2.939   8.289 -1.0112 -0.7319 -0.2567
21970SOL    HW269442   6.517   2.952   8.139  0.3774 -0.7722 -0.3798
21971SOL     OW69443   4.700   7.156   2.868  0.2024  0.0941  0.0215
21971SOL    HW169444   4.607   7.149   2.889  0.0638 -1.8676 -1.0532
21971SOL    HW269445   4.738   7.075   2.901  1.5200  0.7818  0.2632
21972SOL     OW69446   9.737   6.515   3.372 -0.1977 -0.0295 -0.6924
21972SOL    HW169447   9.666   6.451   3.383 -0.8773  0.8203 -0.0079
21972SOL    HW269448   9.816   6.465   3.394 -0.5409 -1.0530 -1.6989
21973SOL     OW69449   3.676   7.419   0.195  0.2128  0.1935  0.0018
21973SOL    HW169450   3.691   7.324   0.191 -0.3770  0.0990 -0.0370
21973SOL    HW269451   3.746   7.456   0.140  0.2064 -0.2475 -0.3139
21974SOL     OW69452   2.916   7.165   8.315 -0.0937 -0.1232 -0.1779
21974SOL    HW169453   2.966   7.221   8.256  0.5093 -0.5028 -0.0413
21974SOL    HW269454   2.903   7.083   8.267  1.4097 -0.8723  0.6039
21975SOL     OW69455   3.360   9.301   4.838 -0.0741 -0.4348  0.3238
21975SOL    HW169456   3.358   9.392   4.809  1.9365 -0.3411  0.3641
21975SOL    HW269457   3.281   9.291   4.891 -1.0200  0.8880 -0.7481
21976SOL     OW69458   2.188   3.259   9.793  0.5598  0.5370 -0.1323
21976SOL    HW169459   2.240   3.183   9.768  0.8218  0.6215  0.1514
21976SOL    HW269460   2.204   3.269   9.887  0.4803  0.9069 -0.1574
21977SOL     OW69461   0.800   3.975   2.543  0.1246  0.3744 -0.5919
21977SOL    HW169462   0.857   4.024   2.601  0.6282 -2.0316  1.0862
21977SOL    HW269463   0.753   4.042   2.493  1.5289  2.4802  0.7654
21978SOL     OW69464   9.874   3.871   6.337  0.3873  0.4292  0.4363
21978SOL    HW169465   9.839   3.957   6.316 -0.1413  0.0708 -0.1842
21978SOL    HW269466   9.822   3.841   6.411  0.4611  0.5701  0.5457
21979SOL     OW69467   5.327   0.761  10.781 -0.1095  0.6317  0.1207
21979SOL    HW169468   5.405   0.746  10.833 -0.1197 -0.6445 -0.1894
21979SOL    HW269469   5.342   0.845  10.737  0.4878  1.0444  1.0968
21980SOL     OW69470   4.194  10.140   1.856  0.3912 -0.0294  0.1440
21980SOL    HW169471   4.265  10.168   1.914  0.6659 -0.6273  0.0985
21980SOL    HW269472   4.195  10.044   1.861  1.5169 -0.2066 -2.1559
21981SOL     OW69473   4.422   9.171  10.170 -0.4075  0.5159  0.2086
21981SOL    HW169474   4.516   9.186  10.155 -0.0388  0.4449  2.1246
21981SOL    HW269475   4.420   9.099  10.233 -1.7003  1.2705  1.0641
21982SOL     OW69476   4.258   7.446   3.916  0.4541  0.3720 -0.3788
21982SOL    HW169477   4.309   7.499   3.854 -0.5664  1.4225 -0.3636
21982SOL    HW269478   4.323   7.390   3.959  1.4007  0.7567 -1.2644
21983SOL     OW69479   5.066   8.791   3.054 -0.3251  0.1776  0.1600
21983SOL    HW169480   4.971   8.799   3.064 -0.5482 -0.6077 -1.1646
21983SOL    HW269481   5.089   8.862   2.994 -0.1968 -0.1100 -0.1326
21984SOL     OW69482   4.257  10.790   9.160  0.4085 -0.5470  0.1670
21984SOL    HW169483   4.254  10.822   9.069 -0.0668 -0.3515  0.2446
21984SOL    HW269484   4.302  10.706   9.154 -1.7825 -1.7653 -0.6537
21985SOL     OW69485   3.306   8.988   5.693  0.6655  0.8917  0.6645
21985SOL    HW169486   3.311   9.028   5.780  1.9683  1.6791  0.2532
21985SOL    HW269487   3.250   9.048   5.643 -0.7494  0.0231  1.1440
21986SOL     OW69488   1.033   1.887   4.987 -0.5943  0.8914  0.2807
21986SOL    HW169489   0.990   1.814   5.031 -1.7526  1.3675 -0.0258
21986SOL    HW269490   0.990   1.894   4.902  2.4997 -0.8779 -1.6447
21987SOL     OW69491   7.908   5.309   3.049  0.1997  0.1905  0.2506
21987SOL    HW169492   7.981   5.369   3.033 -0.3163  0.9990  0.8097
21987SOL    HW269493   7.842   5.364   3.092 -0.1548 -0.8773  1.0964
21988SOL     OW69494   9.580   7.898  10.004 -0.5933 -0.3044 -0.3711
21988SOL    HW169495   9.522   7.863  10.072  1.2084 -1.5278  0.6209
21988SOL    HW269496   9.532   7.973   9.968 -2.3545 -0.6760  1.0506
21989SOL     OW69497   9.138   1.529  10.349  0.0124 -0.3521  0.2423
21989SOL    HW169498   9.049   1.510  10.319 -0.1670 -1.1340  1.2445
21989SOL    HW269499   9.187   1.544  10.268 -0.8343 -0.7531 -0.3627
21990SOL     OW69500   0.667   2.335   6.347 -0.1455 -0.0701 -0.2803
21990SOL    HW169501   0.587   2.290   6.320 -0.7110 -0.5285  1.9563
21990SOL    HW269502   0.635   2.409   6.400  0.8897  0.1836 -0.0024
21991SOL     OW69503   0.658   6.616   2.521  0.3011  0.6040  0.0449
21991SOL    HW169504   0.701   6.535   2.549  1.0557  1.2916  0.9976
21991SOL    HW269505   0.731   6.677   2.505 -0.1854  0.7291 -1.9488
21992SOL     OW69506   3.963   9.518   2.579 -1.0862 -0.8497 -0.6649
21992SOL    HW169507   3.996   9.445   2.631 -0.2883 -0.3661 -0.4660
21992SOL    HW269508   3.877   9.537   2.616 -0.4636 -0.4152  0.6126
21993SOL     OW69509   5.763  10.669   4.009 -0.5578  0.0433 -0.7040
21993SOL    HW169510   5.826  10.718   3.955  1.2827  1.2783  2.2850
21993SOL    HW269511   5.775  10.578   3.983  0.0881  0.5841 -2.4559
21994SOL     OW69512   0.646  10.170   4.879  0.6373 -0.3971  0.0424
21994SOL    HW169513   0.556  10.155   4.909  0.7074 -0.7867  0.0695
21994SOL    HW269514   0.701  10.146   4.954  0.7867 -0.7785 -0.1798
21995SOL     OW69515   8.675   9.456   3.222  0.1684  0.0261  0.3798
21995SOL    HW169516   8.681   9.467   3.128 -0.3536  0.3398  0.3826
21995SOL    HW269517   8.605   9.391   3.235  0.0101  0.2306  0.5633
21996SOL     OW69518   9.718   6.056  10.987 -0.0648  0.3996  0.8485
21996SOL    HW169519   9.751   6.024  10.903  1.3031  4.9578 -0.6402
21996SOL    HW269520   9.785   6.029  11.050 -0.4137 -1.9169  0.2935
21997SOL     OW69521   5.161   0.005   8.767  0.6183 -0.4110 -0.1520
21997SOL    HW169522   5.072   0.038   8.779  0.3706 -1.0921 -0.0926
21997SOL    HW269523   5.151  -0.089   8.757  1.2624 -0.4083 -0.9199
21998SOL     OW69524  10.279   5.064   4.504 -0.3772  0.5026  0.0033
21998SOL    HW169525  10.335   5.062   4.582 -0.8362  0.6662  0.3392
21998SOL    HW269526  10.281   5.155   4.475 -1.5490  0.8096  0.8142
21999SOL     OW69527   5.631   0.379   4.335 -0.0469  0.3965  0.5924
21999SOL    HW169528   5.591   0.292   4.329 -1.9409  1.2539  0.1210
21999SOL    HW269529   5.584   0.423   4.405  1.0933  0.9688  1.0346
22000SOL     OW69530   7.981  10.115  10.068 -0.1842  0.1954  0.3203
22000SOL    HW169531   8.063  10.069  10.051 -0.6030 -0.0750 -1.1165
22000SOL    HW269532   7.913  10.049  10.055 -0.7521  0.9842 -1.0329
22001SOL     OW69533   5.627   4.634   4.710 -0.4586  0.1832 -0.2263
22001SOL    HW169534   5.666   4.613   4.795 -1.7601  0.5920  0.4983
22001SOL    HW269535   5.698   4.677   4.661  0.6949 -1.2409  0.1400
22002SOL     OW69536   8.431   7.781  10.653  0.1881  0.5268  0.0084
22002SOL    HW169537   8.492   7.734  10.597 -1.9526 -1.4098 -0.8391
22002SOL    HW269538   8.445   7.745  10.740  2.5651  2.5705  0.5795
22003SOL     OW69539   5.088   6.330   5.647 -0.3323  0.2892 -0.5190
22003SOL    HW169540   5.020   6.381   5.691 -0.3041 -1.2368  1.4223
22003SOL    HW269541   5.169   6.355   5.692 -0.3312 -1.4342  0.5300
22004SOL     OW69542   2.565   8.618   5.481 -0.5701  0.1360  0.2051
22004SOL    HW169543   2.515   8.541   5.454 -2.5318  1.6702 -0.7236
22004SOL    HW269544   2.536   8.635   5.570 -0.2119 -0.0991  0.3726
22005SOL     OW69545   5.671   3.040   8.589 -0.6338 -0.1468  0.0756
22005SOL    HW169546   5.579   3.016   8.578 -0.7263  0.5705 -0.7756
22005SOL    HW269547   5.669   3.133   8.610 -0.0905 -0.0975 -0.0847
22006SOL     OW69548   9.779   8.545   7.227 -0.1581  0.2896 -0.1509
22006SOL    HW169549   9.875   8.540   7.221 -0.2617 -1.3937 -0.8486
22006SOL    HW269550   9.757   8.623   7.176  0.7499 -0.3259 -1.5559
22007SOL     OW69551   7.724  10.878  10.381  0.4722 -0.0586  0.2165
22007SOL    HW169552   7.729  10.921  10.466  0.7381 -0.0914  0.2187
22007SOL    HW269553   7.803  10.907  10.334  0.9726 -0.9907  0.4352
22008SOL     OW69554   8.868   9.828   5.059 -0.1029  0.4680 -0.3737
22008SOL    HW169555   8.904   9.883   5.129 -0.1062 -0.5852  0.4868
22008SOL    HW269556   8.882   9.878   4.979  1.9974  0.7230  0.1041
22009SOL     OW69557   7.890   7.353   4.019 -0.1178  0.5082  0.0402
22009SOL    HW169558   7.969   7.322   4.061 -0.5995 -1.7156 -0.5570
22009SOL    HW269559   7.917   7.378   3.930 -0.0776 -0.3038 -0.1813
22010SOL     OW69560   6.553  10.201  10.360  0.5208 -0.5774 -0.2679
22010SOL    HW169561   6.608  10.254  10.303 -1.7946  0.1482 -1.9954
22010SOL    HW269562   6.537  10.258  10.436  0.0626  0.2745 -0.9756
22011SOL     OW69563  11.031   1.942   2.382 -0.0958  0.4506  0.3150
22011SOL    HW169564  11.104   1.992   2.347 -1.6049  1.7081 -1.2350
22011SOL    HW269565  10.961   2.007   2.395 -1.9272 -1.0892 -1.1428
22012SOL     OW69566  10.859   1.899   0.432 -0.4466  0.1415 -0.7965
22012SOL    HW169567  10.839   1.857   0.515  0.8772 -1.8955 -1.4357
22012SOL    HW269568  10.930   1.960   0.451 -0.1039 -0.3669 -0.4552
22013SOL     OW69569   4.469   6.483   2.937  0.3551 -0.2306  0.0675
22013SOL    HW169570   4.411   6.532   2.995  0.5711  0.3958 -0.2461
22013SOL    HW269571   4.536   6.546   2.911 -0.2739 -0.2272 -1.6468
22014SOL     OW69572   3.504   8.343   0.109  0.3392  0.0778 -0.6079
22014SOL    HW169573   3.484   8.433   0.136 -2.7062 -0.5085 -0.6468
22014SOL    HW269574   3.592   8.327   0.145  0.3427  2.5247  0.7215
22015SOL     OW69575   7.489   3.565   7.813  0.1409 -0.0699 -0.0650
22015SOL    HW169576   7.396   3.586   7.812  0.2126  0.3763  0.9549
22015SOL    HW269577   7.531   3.642   7.852  0.8967 -0.4007 -0.1979
22016SOL     OW69578   8.484   9.208   2.819 -0.1373 -0.0448  0.1369
22016SOL    HW169579   8.436   9.134   2.781 -1.0254 -0.0745  1.2634
22016SOL    HW269580   8.575   9.178   2.820 -0.4442 -1.0232  0.3377
22017SOL     OW69581   3.042   0.715   0.723  0.0357 -0.1397  0.4301
22017SOL    HW169582   3.066   0.760   0.642  0.9675 -0.1678  0.6853
22017SOL    HW269583   3.070   0.625   0.711 -0.0866 -0.2134  0.6703
22018SOL     OW69584   0.543   0.064   1.656  0.8273  0.2220  0.0219
22018SOL    HW169585   0.514   0.061   1.564 -0.1772 -0.4652  0.3425
22018SOL    HW269586   0.602  -0.010   1.665  1.7635  0.8973 -0.3126
22019SOL     OW69587   0.713   3.913  10.435 -0.5119 -0.0458 -0.3988
22019SOL    HW169588   0.758   3.936  10.354 -0.6454  0.1782 -0.4112
22019SOL    HW269589   0.722   3.818  10.442 -0.9403 -0.1276 -0.9312
22020SOL     OW69590   1.709  11.105   6.133 -0.2632  0.3498 -0.1754
22020SOL    HW169591   1.792  11.072   6.096 -0.4463  0.1568 -0.4155
22020SOL    HW269592   1.734  11.142   6.217  0.0099 -0.0752 -0.0657
22021SOL     OW69593   3.778   6.498   3.908  0.1037 -0.2692 -0.1529
22021SOL    HW169594   3.720   6.424   3.925  1.5523 -1.7095 -1.1261
22021SOL    HW269595   3.838   6.499   3.983 -0.5440  0.6079  0.3730
22022SOL     OW69596   9.556   9.733   9.330 -0.0727  0.0826 -0.0208
22022SOL    HW169597   9.604   9.796   9.276  1.8542 -1.5782 -0.3906
22022SOL    HW269598   9.495   9.691   9.270  0.8399 -0.5314 -0.5625
22023SOL     OW69599   0.288   7.602   1.946  0.1112 -0.2080  0.0185
22023SOL    HW169600   0.217   7.597   2.011  1.2538 -1.1240  1.2511
22023SOL    HW269601   0.311   7.694   1.943  1.2924 -0.3344  2.3929
22024SOL     OW69602  11.072   4.054   2.899 -0.0096  0.3498  0.5053
22024SOL    HW169603  11.076   3.977   2.955 -1.9225 -0.8245 -0.8455
22024SOL    HW269604  11.066   4.128   2.960  0.8198 -0.6338  1.8216
22025SOL     OW69605   8.877  11.113   4.791  0.6512 -0.5048  0.5785
22025SOL    HW169606   8.895  11.203   4.818  0.4777 -0.1872 -0.3177
22025SOL    HW269607   8.782  11.103   4.797  0.6140 -0.4468  0.1742
22026SOL     OW69608   0.763   6.452  10.294  0.2988 -0.1341 -0.0719
22026SOL    HW169609   0.785   6.493  10.377 -1.2022 -0.9789  0.7810
22026SOL    HW269610   0.703   6.513  10.252 -0.0278 -0.3346  0.0992
22027SOL     OW69611   0.695   5.614   6.137 -0.0293  0.4144  0.0160
22027SOL    HW169612   0.756   5.637   6.066 -0.9955  0.9248 -0.6698
22027SOL    HW269613   0.724   5.528   6.166  0.8059  0.4934 -0.5376
22028SOL     OW69614   4.885   4.926   5.600 -0.0570  0.1957  0.0567
22028SOL    HW169615   4.904   4.987   5.672  1.5449  0.3660 -0.4702
22028SOL    HW269616   4.893   4.840   5.640 -0.0687  0.3035  0.2960
22029SOL     OW69617   0.140   0.364   1.122  0.3020 -0.6434  0.1775
22029SOL    HW169618   0.226   0.371   1.164  0.2020  2.1109  0.0838
22029SOL    HW269619   0.079   0.406   1.183 -0.5870 -0.5670 -0.7362
22030SOL     OW69620   4.473   7.303   7.254 -0.0181  0.4075 -0.0357
22030SOL    HW169621   4.453   7.245   7.181  0.6662 -0.1386  0.2042
22030SOL    HW269622   4.498   7.386   7.213 -0.5222  0.3915 -0.3880
22031SOL     OW69623   5.744   8.802   2.855 -0.3066  0.6197 -0.0792
22031SOL    HW169624   5.673   8.814   2.791 -1.1803 -1.3154  0.4470
22031SOL    HW269625   5.706   8.831   2.938 -0.7018 -0.8403  0.2861
22032SOL     OW69626   8.267   0.652   5.325 -0.4059  0.1343 -0.5581
22032SOL    HW169627   8.175   0.624   5.330  0.1258 -2.0127 -1.3291
22032SOL    HW269628   8.314   0.584   5.375  0.7684  1.2577 -0.1003
22033SOL     OW69629   1.195  10.574   2.730 -0.4434 -0.7707 -0.5653
22033SOL    HW169630   1.275  10.613   2.696 -0.1960  1.7275  2.4908
22033SOL    HW269631   1.126  10.609   2.675  0.3073 -1.0205 -1.7068
22034SOL     OW69632   7.507   2.801   6.477 -0.0221 -0.6549  0.0354
22034SOL    HW169633   7.575   2.733   6.485  0.6085 -0.5271 -3.2015
22034SOL    HW269634   7.435   2.758   6.432 -0.3720  0.3426 -0.3797
22035SOL     OW69635   1.519  10.940  10.900 -0.2163 -0.1577 -0.1247
22035SOL    HW169636   1.584  10.978  10.959 -0.3011 -0.2343  0.0190
22035SOL    HW269637   1.443  10.998  10.907  0.3224  0.7110 -1.3419
22036SOL     OW69638   4.007   5.643   1.046 -0.1692  0.3734 -0.0069
22036SOL    HW169639   4.088   5.695   1.048 -0.2134  0.4797 -0.6407
22036SOL    HW269640   4.034   5.559   1.008 -0.0031 -0.2639  1.4305
22037SOL     OW69641   8.684  10.392   0.372  0.5148  0.1719  0.0397
22037SOL    HW169642   8.716  10.460   0.312  0.6127  1.5012  1.5389
22037SOL    HW269643   8.739  10.316   0.353 -0.0663  0.2277 -2.1827
22038SOL     OW69644   8.482   9.471   6.213 -0.7252  0.2447 -0.3837
22038SOL    HW169645   8.502   9.492   6.121 -1.4881  2.4090 -0.1368
22038SOL    HW269646   8.562   9.491   6.260 -0.8760  0.8827 -0.3850
22039SOL     OW69647   4.128   5.815  10.138  0.1985  0.1519  0.4545
22039SOL    HW169648   4.092   5.792  10.053 -1.9404  0.5262  1.2023
22039SOL    HW269649   4.056   5.803  10.199  2.2311 -2.3308  2.6313
22040SOL     OW69650   7.912   4.579   5.008 -0.2670  0.0567  0.4372
22040SOL    HW169651   7.886   4.503   5.060  0.4806 -0.3573  0.2155
22040SOL    HW269652   7.984   4.548   4.954 -1.3347  0.3497 -1.2188
22041SOL     OW69653   4.901   5.031   6.089  0.1884 -0.3663 -0.1455
22041SOL    HW169654   4.943   5.102   6.041  1.4523 -0.4190  0.8268
22041SOL    HW269655   4.878   4.967   6.022 -0.1001  0.5267 -0.9162
22042SOL     OW69656   3.004   3.001   2.470 -0.0369 -0.1627 -0.4377
22042SOL    HW169657   3.010   2.986   2.564 -0.1219  2.0584 -0.0253
22042SOL    HW269658   3.084   3.050   2.449 -1.3177  1.7874 -0.9604
22043SOL     OW69659   4.275   0.096   9.710  0.1577 -0.0458 -0.4174
22043SOL    HW169660   4.300   0.066   9.623 -0.1858  1.6635 -1.1319
22043SOL    HW269661   4.297   0.022   9.767 -0.1046 -1.4185 -1.9961
22044SOL     OW69662  10.610   9.913   3.925  0.3616  0.3994 -0.7479
22044SOL    HW169663  10.552   9.957   3.863 -0.7190 -1.5832 -1.2318
22044SOL    HW269664  10.639   9.834   3.879  2.3246  0.6200  0.0283
22045SOL     OW69665   1.886   0.829   4.836  0.1548 -0.1129 -0.0959
22045SOL    HW169666   1.844   0.851   4.753  1.2427  0.7847 -0.4335
22045SOL    HW269667   1.857   0.898   4.896 -1.9563 -1.6638  0.7662
22046SOL     OW69668   9.312   4.819   4.193 -0.2286  0.5734 -0.4493
22046SOL    HW169669   9.318   4.782   4.105  0.9247  0.3985 -0.3045
22046SOL    HW269670   9.398   4.805   4.231 -0.3898  1.6184  0.3295
22047SOL     OW69671   9.134   7.775   5.241  0.0276  0.0423  0.4055
22047SOL    HW169672   9.151   7.727   5.323  1.2660  1.1006  0.7991
22047SOL    HW269673   9.164   7.864   5.259  1.4907  0.0214 -1.5995
22048SOL     OW69674   7.791   8.862   4.860 -0.5144  0.3261 -0.4774
22048SOL    HW169675   7.714   8.804   4.863  0.0780 -0.4210  0.8412
22048SOL    HW269676   7.761   8.943   4.903 -0.4362 -0.1343  0.4626
22049SOL     OW69677   7.392   6.888   3.407 -1.0342 -0.2366 -0.1748
22049SOL    HW169678   7.465   6.899   3.346 -2.2541 -1.6923 -2.0232
22049SOL    HW269679   7.398   6.964   3.466  3.2421 -1.3607  1.2600
22050SOL     OW69680   6.351   0.306   2.364 -0.1262 -0.0616  0.4072
22050SOL    HW169681   6.279   0.251   2.333  0.6716 -0.3806 -0.9621
22050SOL    HW269682   6.406   0.319   2.287  0.2341  1.8459  0.9421
22051SOL     OW69683   1.492   6.464   7.825 -0.3193  0.3285 -0.4780
22051SOL    HW169684   1.409   6.512   7.827 -0.9596 -0.6118 -2.2973
22051SOL    HW269685   1.466   6.373   7.812  1.0071 -0.0327 -0.7186
22052SOL     OW69686   4.143   3.449   1.598  0.9116 -0.2527  0.0339
22052SOL    HW169687   4.226   3.402   1.604  1.4614  0.7805  0.7850
22052SOL    HW269688   4.164   3.539   1.622 -0.5307 -0.0957  0.8507
22053SOL     OW69689   7.559  10.850   5.499  0.0217 -0.0534 -0.1182
22053SOL    HW169690   7.598  10.769   5.534  0.8397  0.0093 -0.8420
22053SOL    HW269691   7.587  10.918   5.560  0.7385 -0.0677 -0.4268
22054SOL     OW69692  11.080   0.690   5.500  0.6627 -0.4635 -0.1206
22054SOL    HW169693  11.001   0.639   5.518 -0.6721  1.3589 -0.4414
22054SOL    HW269694  11.102   0.730   5.584 -0.0070  0.6216 -0.4293
22055SOL     OW69695   7.172   4.534   5.534 -0.2217 -0.1585  0.0028
22055SOL    HW169696   7.236   4.597   5.501 -1.1470  0.2804 -1.0034
22055SOL    HW269697   7.201   4.450   5.498 -0.1342  0.0125 -0.3307
22056SOL     OW69698  10.977   5.469   4.695 -0.0521 -0.1915  0.9263
22056SOL    HW169699  10.926   5.550   4.705 -0.6411 -0.3483 -0.5274
22056SOL    HW269700  10.912   5.399   4.703  0.2308 -0.4708  0.7736
22057SOL     OW69701   4.223   6.918   4.961 -0.1301 -0.5050 -0.2411
22057SOL    HW169702   4.300   6.869   4.990  0.1763  0.1337  0.0440
22057SOL    HW269703   4.225   6.998   5.012 -1.8349 -1.1306  0.9179
22058SOL     OW69704  10.693   0.851   4.586  0.2904 -0.3929  0.1865
22058SOL    HW169705  10.738   0.768   4.596  0.6958 -0.1104  0.8198
22058SOL    HW269706  10.758   0.909   4.546  0.1039 -0.2996  0.0149
22059SOL     OW69707   0.595   6.552  10.579 -0.8375  0.2620 -0.2708
22059SOL    HW169708   0.680   6.570  10.539  0.2217 -0.4749  1.5280
22059SOL    HW269709   0.535   6.615  10.537  1.4863  4.1513  1.6706
22060SOL     OW69710  10.791   4.246   1.316  0.0361 -0.3777 -0.3511
22060SOL    HW169711  10.876   4.209   1.338 -0.0727  0.7499  2.4570
22060SOL    HW269712  10.810   4.338   1.294 -0.4561  0.0089  0.7638
22061SOL     OW69713   9.049  10.651   1.346 -0.1202 -0.0325 -0.0759
22061SOL    HW169714   8.962  10.690   1.341 -1.3410 -2.6495 -1.1490
22061SOL    HW269715   9.103  10.705   1.289 -0.7783  2.1153  1.2306
22062SOL     OW69716  10.953   3.425   2.978 -0.1469 -0.5905 -0.0097
22062SOL    HW169717  11.001   3.488   2.925 -1.5335 -0.0265 -0.6542
22062SOL    HW269718  10.922   3.475   3.054 -0.7655 -0.6191 -0.2345
22063SOL     OW69719  10.078   2.240  10.535  0.2225  0.1274  0.0237
22063SOL    HW169720  10.010   2.284  10.586 -0.4615 -0.5030 -0.3371
22063SOL    HW269721  10.038   2.158  10.507  1.3450 -0.5388  0.3318
22064SOL     OW69722   8.072   1.584   7.100 -0.0635  0.1118 -0.4859
22064SOL    HW169723   8.134   1.570   7.028 -1.9702 -0.7645 -2.0621
22064SOL    HW269724   7.996   1.623   7.058 -1.2171 -0.3736  1.0774
22065SOL     OW69725   6.513   5.237   0.421 -0.8166 -0.3906  0.1636
22065SOL    HW169726   6.502   5.214   0.329 -1.6597 -1.5629  0.5336
22065SOL    HW269727   6.585   5.300   0.421 -0.8711 -0.2850 -1.2999
22066SOL     OW69728   6.357   5.069   5.186  0.2622 -0.0563  0.9816
22066SOL    HW169729   6.298   4.995   5.200 -0.5482  0.0692 -1.2485
22066SOL    HW269730   6.427   5.033   5.130 -0.1134  0.7962 -0.0783
22067SOL     OW69731   2.128   2.857   1.049 -0.3390  0.2492 -0.2774
22067SOL    HW169732   2.034   2.868   1.062 -0.0182  1.8668  1.0842
22067SOL    HW269733   2.141   2.870   0.955 -1.3316  1.3778 -0.2827
22068SOL     OW69734   4.708   1.502   9.631 -0.3815  0.2133 -0.4466
22068SOL    HW169735   4.704   1.554   9.712 -0.4627 -1.2134  0.5167
22068SOL    HW269736   4.795   1.462   9.634 -0.2349  0.4688 -1.2821
22069SOL     OW69737   2.333   2.835   4.999  0.2611 -0.0282  0.2310
22069SOL    HW169738   2.336   2.884   4.917 -0.3201 -2.1665 -1.1616
22069SOL    HW269739   2.257   2.870   5.045  1.0136  1.6978  0.2342
22070SOL     OW69740   1.877   4.313  10.545  1.0150  0.2716 -0.1265
22070SOL    HW169741   1.925   4.335  10.625 -0.6938  1.1866  0.6877
22070SOL    HW269742   1.848   4.397  10.511  0.2002 -0.2450 -0.7358
22071SOL     OW69743   3.677   1.046   7.190  0.1710  0.0041  0.3611
22071SOL    HW169744   3.761   1.006   7.170  0.9172  0.2574  2.6258
22071SOL    HW269745   3.700   1.133   7.222 -1.1257  0.7758 -0.7300
22072SOL     OW69746   5.884   0.581   9.352  0.2012 -0.4712 -0.5866
22072SOL    HW169747   5.906   0.589   9.444 -0.7382  1.1260 -0.4738
22072SOL    HW269748   5.789   0.566   9.351  0.1623 -0.2146 -1.3006
22073SOL     OW69749   4.238   2.123   2.272 -0.1722 -0.0815  0.2845
22073SOL    HW169750   4.176   2.050   2.273 -0.7104 -0.1806 -5.4422
22073SOL    HW269751   4.185   2.200   2.291 -1.8125 -0.4120 -2.3624
22074SOL     OW69752   8.085   5.076   1.365 -0.3085 -0.6870 -0.1241
22074SOL    HW169753   8.050   4.989   1.343 -1.6408 -0.2935  0.3626
22074SOL    HW269754   8.179   5.068   1.349 -0.5709 -1.8561 -1.2573
22075SOL     OW69755  11.020  10.429   3.801  0.1250  0.1369  0.2795
22075SOL    HW169756  11.007  10.379   3.881  0.1332 -1.3422 -0.6065
22075SOL    HW269757  11.088  10.493   3.823  0.3113 -0.4241  1.3736
22076SOL     OW69758   5.310   0.654   0.475 -0.0311  0.5149  0.1897
22076SOL    HW169759   5.360   0.572   0.486 -0.5119  0.4135  1.9695
22076SOL    HW269760   5.223   0.625   0.450  0.3848  0.6269 -1.5007
22077SOL     OW69761   2.043   6.832   9.393  0.0300  0.4010 -0.5498
22077SOL    HW169762   2.109   6.800   9.456 -1.8376 -0.2666  1.2019
22077SOL    HW269763   2.090   6.838   9.310  1.7397 -2.3110  0.0806
22078SOL     OW69764   9.786   9.973   7.671  0.6295  0.0237 -0.3595
22078SOL    HW169765   9.828  10.031   7.735  0.0996 -1.1081  1.0990
22078SOL    HW269766   9.766   9.894   7.721 -2.0755  0.0153 -1.2855
22079SOL     OW69767   9.812   4.876   0.377 -0.2812  0.4855  0.5461
22079SOL    HW169768   9.778   4.935   0.309  0.4756  1.6868  1.1703
22079SOL    HW269769   9.872   4.931   0.428  1.9062 -1.2997  0.0432
22080SOL     OW69770  10.660   6.713  10.373  0.3183  0.2144 -0.4055
22080SOL    HW169771  10.675   6.746  10.285  2.2007 -2.7392 -1.3143
22080SOL    HW269772  10.580   6.661  10.366  0.9117 -0.6905 -0.6127
22081SOL     OW69773   7.420   3.398   3.258  0.2871 -0.5787 -0.1821
22081SOL    HW169774   7.483   3.334   3.225 -0.0530 -0.6806 -0.6358
22081SOL    HW269775   7.475   3.466   3.297  0.8469  0.5923 -2.7683
22082SOL     OW69776   6.519   2.474   6.010 -0.0147  0.1131  0.4726
22082SOL    HW169777   6.438   2.486   6.059  0.7843  0.3088  1.8213
22082SOL    HW269778   6.498   2.500   5.920 -1.4298  0.1456  0.7968
22083SOL     OW69779   8.769   9.436   9.226  0.2711 -0.6187 -0.6619
22083SOL    HW169780   8.686   9.402   9.193  0.6920 -0.4029 -2.0017
22083SOL    HW269781   8.818   9.358   9.253 -0.8260 -0.6847  1.4042
22084SOL     OW69782   2.476   1.503   1.589 -0.3839 -0.1029  0.1961
22084SOL    HW169783   2.381   1.498   1.577 -0.1729  0.9193 -2.5320
22084SOL    HW269784   2.494   1.596   1.605  0.2678 -0.0994 -0.5278
22085SOL     OW69785  10.901   0.212   5.582  0.3142  1.3879 -0.8156
22085SOL    HW169786  10.922   0.126   5.619 -2.8881  1.6655  2.2229
22085SOL    HW269787  10.949   0.215   5.499 -0.6794 -4.0321 -1.9617
22086SOL     OW69788   8.437   3.565   3.752  0.4726 -0.1747  0.5356
22086SOL    HW169789   8.389   3.546   3.671  1.6142  0.4475 -0.3054
22086SOL    HW269790   8.505   3.498   3.755  2.7178  1.8689 -0.9567
22087SOL     OW69791   8.825   7.364   4.658 -0.1278 -0.5073  0.1139
22087SOL    HW169792   8.895   7.299   4.661 -0.7109 -1.2172 -0.8579
22087SOL    HW269793   8.869   7.448   4.654  0.7940 -0.9990 -2.9346
22088SOL     OW69794   9.790  10.232   7.333 -0.0505  0.3273 -0.2560
22088SOL    HW169795   9.862  10.195   7.384  0.0401  0.0451 -0.5794
22088SOL    HW269796   9.791  10.325   7.353  0.6357  0.3851 -0.5403
22089SOL     OW69797   8.607   6.492   3.186  0.7041  0.2960  0.1714
22089SOL    HW169798   8.695   6.459   3.207  0.2101 -1.1486  0.1096
22089SOL    HW269799   8.606   6.496   3.090  0.7309  0.4149  0.1757
22090SOL     OW69800   5.031   4.472   9.333  0.2873  0.2137  0.6348
22090SOL    HW169801   5.023   4.414   9.257 -1.5003 -0.4732  1.3017
22090SOL    HW269802   5.078   4.420   9.398  0.1516  0.1225  0.6599
22091SOL     OW69803   1.788  10.020   7.863 -0.1217  0.3897  0.1450
22091SOL    HW169804   1.713   9.993   7.810 -0.3682  1.7394 -0.2279
22091SOL    HW269805   1.863   9.976   7.823 -0.4915  0.3463 -0.5091
22092SOL     OW69806  11.114   3.837   6.837 -0.3944  0.0850 -0.0804
22092SOL    HW169807  11.072   3.816   6.920 -0.4842  0.4621 -0.0302
22092SOL    HW269808  11.199   3.792   6.841 -1.0932 -1.3319 -0.5044
22093SOL     OW69809   6.430  10.776   4.161  0.0068  0.3353  0.2944
22093SOL    HW169810   6.342  10.740   4.164 -0.4548  1.3182 -0.7986
22093SOL    HW269811   6.429  10.836   4.087  1.3510  1.0126  0.7947
22094SOL     OW69812   2.876   2.205   1.935  0.2459 -0.4221 -0.8173
22094SOL    HW169813   2.968   2.232   1.930 -0.1472  0.7857 -2.3144
22094SOL    HW269814   2.834   2.250   1.862 -1.6600 -0.5374  0.1520
22095SOL     OW69815   9.955   9.963   9.537 -0.0835 -0.1766 -0.8180
22095SOL    HW169816   9.886   9.983   9.601  0.1926 -0.5000 -0.4143
22095SOL    HW269817   9.909   9.959   9.453 -0.6217 -0.7628 -0.5030
22096SOL     OW69818   6.378   4.508   7.776  0.0301  0.0974  0.2754
22096SOL    HW169819   6.428   4.564   7.716  2.3515 -0.6102  1.4203
22096SOL    HW269820   6.391   4.548   7.862 -0.6469 -0.6360  0.7250
22097SOL     OW69821  10.343   0.031   1.150  0.5976 -0.1551  0.5757
22097SOL    HW169822  10.360  -0.024   1.227  2.9113  2.5153  2.1656
22097SOL    HW269823  10.389  -0.013   1.079 -0.1663 -1.8038  1.0486
22098SOL     OW69824   8.609   4.034   8.697 -0.2795  0.3286 -0.0908
22098SOL    HW169825   8.654   3.949   8.695 -0.5412  0.1626  0.7804
22098SOL    HW269826   8.524   4.015   8.736 -0.5666  0.9004 -0.4184
22099SOL     OW69827   7.668   6.123   8.085 -0.2874 -0.2712 -0.1728
22099SOL    HW169828   7.644   6.166   8.167 -0.4798  2.8268 -1.6943
22099SOL    HW269829   7.757   6.153   8.067 -0.1917 -1.0044 -0.9951
22100SOL     OW69830   3.526   2.128   8.234 -0.6958  0.4336  0.2605
22100SOL    HW169831   3.460   2.058   8.232  0.4769 -0.7164  0.2825
22100SOL    HW269832   3.548   2.136   8.327 -0.2898  0.2984  0.1777
22101SOL     OW69833   4.778   5.947   2.080  0.1025 -0.6632  0.7750
22101SOL    HW169834   4.753   5.878   2.141 -0.4791 -0.6167  0.6037
22101SOL    HW269835   4.871   5.932   2.062 -0.0840 -1.5807  0.5215
22102SOL     OW69836   8.415   1.938   1.518 -0.1382 -0.3524  0.1769
22102SOL    HW169837   8.358   1.862   1.534 -0.5159 -0.2542 -0.6359
22102SOL    HW269838   8.380   1.977   1.438  0.7272  0.0515 -0.0111
22103SOL     OW69839   9.886   0.299   0.811 -1.2136  0.0391 -0.5393
22103SOL    HW169840   9.930   0.214   0.802 -1.6411 -0.1021 -1.4204
22103SOL    HW269841   9.852   0.317   0.723 -0.7379  1.3389 -0.4710
22104SOL     OW69842   0.684   3.771   3.813  0.4438 -0.1931  0.5655
22104SOL    HW169843   0.685   3.842   3.749  0.1693  0.7539  1.5900
22104SOL    HW269844   0.777   3.752   3.829  0.5304 -1.3433 -1.0588
22105SOL     OW69845   7.559   1.702   0.300 -0.2505 -0.0471  0.0132
22105SOL    HW169846   7.625   1.731   0.363 -0.2961 -1.1417  0.5840
22105SOL    HW269847   7.482   1.681   0.352 -0.0044 -1.8121 -0.2698
22106SOL     OW69848   0.832   5.733   8.412 -0.7697 -0.1893  0.1914
22106SOL    HW169849   0.758   5.792   8.426  0.0354  0.6083  1.3287
22106SOL    HW269850   0.838   5.683   8.493 -0.0252 -0.1929  0.1388
22107SOL     OW69851   7.406   4.939  11.079  0.1843 -0.0305  0.0568
22107SOL    HW169852   7.337   4.942  11.146 -0.1599 -0.1668 -0.2871
22107SOL    HW269853   7.444   5.027  11.079 -1.8514  0.9109 -1.6922
22108SOL     OW69854   2.808  10.659   5.271 -0.2051  0.4228 -0.4914
22108SOL    HW169855   2.890  10.695   5.305 -0.2842  0.2664 -0.1273
22108SOL    HW269856   2.818  10.564   5.283 -1.5797  0.5133  2.2427
22109SOL     OW69857   7.529   7.199   2.970  0.7242  0.3911  0.0231
22109SOL    HW169858   7.499   7.280   3.013  1.2869  0.7047 -0.1736
22109SOL    HW269859   7.584   7.156   3.035 -0.2845 -0.2888  0.4595
22110SOL     OW69860   4.338   3.663   5.264  0.3771 -0.2010 -0.4111
22110SOL    HW169861   4.272   3.626   5.323  0.4166 -0.3845 -0.4824
22110SOL    HW269862   4.421   3.650   5.308  0.3675  0.0176 -0.3286
22111SOL     OW69863   2.026  10.039   7.272 -0.2261  1.1677 -0.2244
22111SOL    HW169864   2.108  10.084   7.251  0.2294  0.7373  0.5606
22111SOL    HW269865   2.052   9.948   7.286 -0.5026  1.3614  1.8781
22112SOL     OW69866   5.838   2.935   3.671 -0.3105  0.0045  0.3823
22112SOL    HW169867   5.794   2.864   3.719  0.4206 -0.7411 -0.0290
22112SOL    HW269868   5.831   3.011   3.729 -3.2095  0.2811 -0.1665
22113SOL     OW69869   4.596   1.724   7.104  0.0381  0.8936  0.8542
22113SOL    HW169870   4.511   1.757   7.076  0.2235  0.7418  0.1071
22113SOL    HW269871   4.580   1.632   7.127  0.1656  0.6283 -0.0911
22114SOL     OW69872  10.573   6.366   0.310  0.5221  0.3753 -0.5346
22114SOL    HW169873  10.498   6.342   0.256 -0.9727  2.2908  0.5532
22114SOL    HW269874  10.605   6.283   0.345 -0.7784 -0.5363 -1.4330
22115SOL     OW69875   0.650   4.859   1.276  0.3657 -0.2562 -0.7171
22115SOL    HW169876   0.599   4.940   1.278  0.5940 -0.1231  0.8475
22115SOL    HW269877   0.624   4.812   1.355  2.0047 -0.5736 -0.3329
22116SOL     OW69878   0.890   6.270  10.826  0.2975 -0.2131  0.0145
22116SOL    HW169879   0.858   6.355  10.857  0.5246 -0.6843  1.6232
22116SOL    HW269880   0.880   6.275  10.731 -1.0867  1.0517  0.1746
22117SOL     OW69881   4.955   0.282   9.010 -0.3553 -0.0173  0.6695
22117SOL    HW169882   4.922   0.220   8.944  0.4691 -0.4927  0.6914
22117SOL    HW269883   5.044   0.302   8.982 -0.2412  0.3346  1.2592
22118SOL     OW69884   8.393   5.507   4.180  0.2248 -0.3053  0.2382
22118SOL    HW169885   8.427   5.418   4.170  0.3940 -0.3140  0.8563
22118SOL    HW269886   8.441   5.542   4.255 -0.0897  0.1893  0.2104
22119SOL     OW69887  10.571   3.033   9.549 -0.5891  0.6381 -0.1225
22119SOL    HW169888  10.575   2.938   9.560  0.6732  0.7422  0.5125
22119SOL    HW269889  10.564   3.046   9.455  3.2865 -0.0818 -0.6852
22120SOL     OW69890   9.796   9.340   5.887  0.1444  0.1777 -0.6479
22120SOL    HW169891   9.719   9.392   5.911  0.0283 -0.1263 -0.3574
22120SOL    HW269892   9.857   9.404   5.850 -0.6684  0.2760 -1.8925
22121SOL     OW69893   6.206   1.332   3.747  0.2967 -0.0474 -0.5445
22121SOL    HW169894   6.134   1.358   3.690  0.7528  0.5348 -0.8602
22121SOL    HW269895   6.212   1.237   3.736  0.4299  0.0721 -1.5250
22122SOL     OW69896   9.067   3.340   3.348  0.3064  0.3194  0.0467
22122SOL    HW169897   8.986   3.307   3.308 -0.5063  0.1340  1.7131
22122SOL    HW269898   9.069   3.433   3.325  0.5357 -0.0266 -1.4213
22123SOL     OW69899  10.572   9.119   3.067  0.3543 -0.2514  0.3209
22123SOL    HW169900  10.518   9.176   3.122  1.0182 -0.1027  0.8241
22123SOL    HW269901  10.572   9.035   3.112  0.2675 -0.3476  0.1433
22124SOL     OW69902   7.545   1.750   0.846  0.3840  0.7333  0.3638
22124SOL    HW169903   7.480   1.685   0.821  0.6060  0.8683 -0.6134
22124SOL    HW269904   7.599   1.706   0.913  1.4226 -0.6295 -1.2783
22125SOL     OW69905   7.209   1.802   6.013  0.5037 -0.0725  0.5973
22125SOL    HW169906   7.278   1.736   6.020  0.3979 -0.4165 -1.1834
22125SOL    HW269907   7.214   1.832   5.922 -1.7001 -0.0925  0.4281
22126SOL     OW69908   9.034   4.032   4.228  0.1867 -0.1855 -0.0956
22126SOL    HW169909   9.117   4.079   4.236  0.3840 -0.4855 -0.3425
22126SOL    HW269910   9.060   3.940   4.219 -0.1995 -0.3624  0.5526
22127SOL     OW69911   4.010  10.246   7.001  0.1875  0.1097  0.2437
22127SOL    HW169912   4.057  10.231   7.083  0.2944 -0.6351  0.0564
22127SOL    HW269913   4.025  10.338   6.981  1.0795  0.0267  0.4875
22128SOL     OW69914  10.224   1.079   6.922 -0.3690 -0.0661 -0.1174
22128SOL    HW169915  10.306   1.036   6.944  0.2417 -0.1595 -2.2992
22128SOL    HW269916  10.248   1.140   6.852 -1.5675  2.4052  1.4780
22129SOL     OW69917   0.969   0.477   9.355 -0.6045  0.1193  0.3857
22129SOL    HW169918   0.986   0.427   9.275 -1.1255 -0.3164  0.5407
22129SOL    HW269919   1.052   0.478   9.402 -0.0836  1.0282 -0.5146
22130SOL     OW69920   8.266   4.532   1.161 -0.3746 -0.1595  0.3002
22130SOL    HW169921   8.339   4.587   1.192 -1.0469  0.2259  1.2322
22130SOL    HW269922   8.240   4.573   1.079  0.7587 -0.5793 -0.2912
22131SOL     OW69923   6.971   4.646   9.862 -0.1684  0.7177 -0.1563
22131SOL    HW169924   7.014   4.687   9.787 -0.8958  0.2317 -0.8597
22131SOL    HW269925   7.017   4.680   9.939  1.3391  0.3494 -0.8697
22132SOL     OW69926   1.100   2.435   9.469  0.1144  0.7533 -0.0461
22132SOL    HW169927   1.022   2.475   9.431  0.4768  0.2879 -1.3200
22132SOL    HW269928   1.144   2.506   9.515 -0.0813  1.4508 -0.9165
22133SOL     OW69929   4.901   4.673   8.320 -0.1632 -0.2069 -0.2875
22133SOL    HW169930   4.833   4.737   8.344 -0.8476 -0.9178 -0.2851
22133SOL    HW269931   4.961   4.673   8.394 -0.2588  0.3059 -0.2079
22134SOL     OW69932   3.722   7.396   2.468  0.0449 -0.2998 -0.2869
22134SOL    HW169933   3.764   7.455   2.531 -0.7053 -0.1171  0.0501
22134SOL    HW269934   3.771   7.409   2.387 -0.0583  0.7450 -0.1996
22135SOL     OW69935   0.818  10.497   5.377 -0.7483  0.1893 -0.0976
22135SOL    HW169936   0.806  10.590   5.361 -0.1059  0.2241 -0.4242
22135SOL    HW269937   0.733  10.458   5.359 -1.1942  0.7841  0.6487
22136SOL     OW69938  10.861   6.055  10.926  0.4802 -0.5789  0.2197
22136SOL    HW169939  10.823   5.967  10.929  1.5187 -1.0510  0.1695
22136SOL    HW269940  10.834   6.095  11.009 -0.9356 -0.5230 -0.2494
22137SOL     OW69941   6.689   6.040   4.232 -0.0802  0.4600  0.0544
22137SOL    HW169942   6.626   5.995   4.175  0.4899 -0.7911  0.3795
22137SOL    HW269943   6.638   6.107   4.277 -1.9674 -2.3936  2.5741
22138SOL     OW69944   3.359   6.626  10.497  0.6471 -0.4522  0.1997
22138SOL    HW169945   3.419   6.571  10.547  1.0130 -1.6276 -1.4520
22138SOL    HW269946   3.283   6.571  10.480  0.4549 -0.0236 -0.3776
22139SOL     OW69947   7.724   3.817   0.750 -0.0809 -0.5514  0.4338
22139SOL    HW169948   7.797   3.870   0.783 -1.5426  1.9241 -0.0409
22139SOL    HW269949   7.646   3.869   0.770 -1.6248 -2.4326 -0.3711
22140SOL     OW69950   5.518  10.993   8.016  0.1900  0.3464 -0.0471
22140SOL    HW169951   5.608  11.022   8.034 -0.1262  0.0529  2.2193
22140SOL    HW269952   5.527  10.901   7.992  0.5314  0.4586 -0.3712
22141SOL     OW69953   3.862   7.000  10.692  0.1588 -0.6100 -0.1913
22141SOL    HW169954   3.822   7.069  10.639 -1.5351 -1.5803 -0.2663
22141SOL    HW269955   3.942   6.977  10.645 -0.3496 -0.1651 -1.3181
22142SOL     OW69956   9.692   7.121   7.178  0.0025 -0.0795 -0.4496
22142SOL    HW169957   9.704   7.162   7.092  0.2902  0.8894  0.0423
22142SOL    HW269958   9.606   7.079   7.173 -0.8629  1.6515 -0.5435
22143SOL     OW69959  10.414  10.129   8.724 -0.1028 -0.1898  0.4327
22143SOL    HW169960  10.360  10.087   8.790  1.1437 -0.5078  1.2682
22143SOL    HW269961  10.422  10.064   8.654  0.3514 -0.6854  0.9347
22144SOL     OW69962   1.504  10.266   3.774  0.3047  0.1080  1.0271
22144SOL    HW169963   1.513  10.361   3.762 -2.7791  0.4175  0.1336
22144SOL    HW269964   1.492  10.233   3.685  1.6900 -1.2101  1.3033
22145SOL     OW69965   6.888   4.242   4.231  0.2162  0.2577  0.3491
22145SOL    HW169966   6.874   4.192   4.311  0.1620  1.3761  1.0679
22145SOL    HW269967   6.917   4.328   4.262 -0.5223  0.9411 -0.8071
22146SOL     OW69968   5.324   8.250   0.336  0.0164  0.1689 -0.3422
22146SOL    HW169969   5.238   8.220   0.365  0.9109 -1.6605  0.5456
22146SOL    HW269970   5.358   8.178   0.282  1.6855  0.0733  0.7596
22147SOL     OW69971   4.983   7.715   7.324 -0.4695 -0.1850 -0.0815
22147SOL    HW169972   5.020   7.642   7.274  0.4818 -0.6669  1.2645
22147SOL    HW269973   5.051   7.738   7.388 -0.9167  1.6130 -0.1844
22148SOL     OW69974   6.821   7.171   7.728  0.0198 -0.2218  1.0168
22148SOL    HW169975   6.839   7.231   7.656  0.7821 -1.3527  0.2351
22148SOL    HW269976   6.741   7.126   7.702  1.1912 -1.8175  0.0474
22149SOL     OW69977   3.516   3.240   2.465  0.0171 -0.1244  0.4749
22149SOL    HW169978   3.513   3.276   2.377  0.5807 -1.3583 -0.0724
22149SOL    HW269979   3.606   3.254   2.494  0.9930 -3.1123 -0.6953
22150SOL     OW69980   0.548   0.136   1.212 -0.1410 -0.1871 -0.3791
22150SOL    HW169981   0.515   0.065   1.267 -0.5233 -1.1005 -1.7300
22150SOL    HW269982   0.638   0.151   1.242 -0.3845 -0.5659  0.5631
22151SOL     OW69983   8.743   0.176   5.127 -0.3811  0.7064  0.8316
22151SOL    HW169984   8.791   0.166   5.209  0.5636  1.2509  0.3606
22151SOL    HW269985   8.700   0.091   5.114  1.6625 -0.3207  0.5209
22152SOL     OW69986   5.412   8.974  10.457  0.4027  0.1984  0.1630
22152SOL    HW169987   5.332   8.978  10.509 -0.5619 -1.5908 -1.0741
22152SOL    HW269988   5.384   8.997  10.368  1.6372  1.3481  0.0472
22153SOL     OW69989   3.072   7.095   1.674  0.3161  0.1343  0.0917
22153SOL    HW169990   2.982   7.093   1.704  0.2251 -1.1887 -0.1665
22153SOL    HW269991   3.116   7.158   1.731  0.0771 -1.9325  2.7904
22154SOL     OW69992   7.699   6.236   6.634 -0.2546 -1.0075 -0.1768
22154SOL    HW169993   7.718   6.288   6.556 -1.3153  0.8188  0.7235
22154SOL    HW269994   7.786   6.212   6.668  0.2383 -0.7615 -1.2197
22155SOL     OW69995   2.857   0.119   1.489 -0.1629  0.4863  0.2141
22155SOL    HW169996   2.810   0.044   1.452 -0.2153  0.9245 -0.6306
22155SOL    HW269997   2.926   0.138   1.426  0.4499  0.5576  0.8978
22156SOL     OW69998   0.381  11.087   2.319  0.4800 -0.0850 -0.5679
22156SOL    HW169999   0.304  11.030   2.316 -0.8238  1.6445 -2.3284
22156SOL    HW270000   0.346  11.175   2.308  2.5763  0.9632  0.4861
22157SOL     OW70001  10.875   2.140   1.092  0.4455 -0.1095  0.5201
22157SOL    HW170002  10.886   2.069   1.155 -1.5828 -1.2244 -0.2956
22157SOL    HW270003  10.955   2.191   1.100 -0.0899  0.4281  4.6939
22158SOL     OW70004   9.580   6.922   6.779 -0.0812 -0.1388 -0.6220
22158SOL    HW170005   9.671   6.949   6.771  1.2551 -3.9292 -0.2563
22158SOL    HW270006   9.544   6.932   6.691  0.9811  0.4998 -1.0026
22159SOL     OW70007   7.749   1.144   1.225  0.1281  0.4949  0.4929
22159SOL    HW170008   7.694   1.103   1.159  1.6005  0.0436 -0.5056
22159SOL    HW270009   7.748   1.237   1.203 -2.0959  0.8860  1.9268
22160SOL     OW70010   7.627   9.447   9.820 -0.3433 -0.3144  0.2999
22160SOL    HW170011   7.555   9.472   9.762  1.5972  1.5638 -1.4924
22160SOL    HW270012   7.663   9.530   9.851  1.8425 -1.1092  0.0538
22161SOL     OW70013   6.680   9.163   6.054  0.7272  0.8367 -0.3885
22161SOL    HW170014   6.741   9.220   6.101 -2.1384  0.8687  3.8951
22161SOL    HW270015   6.610   9.222   6.025  0.1429  0.1887 -0.3270
22162SOL     OW70016  10.532   4.151   3.897 -1.1257 -0.3166  0.2241
22162SOL    HW170017  10.542   4.068   3.850  2.3958 -0.4689  0.9327
22162SOL    HW270018  10.580   4.214   3.844  1.2136 -0.0665  2.4502
22163SOL     OW70019   3.901   1.879   8.782  0.5876 -0.5204  0.2505
22163SOL    HW170020   3.857   1.867   8.867 -2.1810  0.7443 -0.8974
22163SOL    HW270021   3.891   1.795   8.738 -1.9921  0.0962 -0.4864
22164SOL     OW70022  10.636   6.852  10.139 -0.2695  0.8354 -0.2909
22164SOL    HW170023  10.576   6.920  10.109 -1.1985  0.2248  0.1230
22164SOL    HW270024  10.643   6.792  10.065 -1.7751 -0.1452  0.3180
22165SOL     OW70025   8.304   5.539   1.864 -0.6262  0.1190 -0.0249
22165SOL    HW170026   8.352   5.567   1.786 -0.6099 -1.1825 -0.5063
22165SOL    HW270027   8.331   5.600   1.932 -0.3995  1.0878 -0.9597
22166SOL     OW70028   7.461   9.702   7.401 -0.1475  0.0789 -0.0823
22166SOL    HW170029   7.536   9.703   7.342  0.0257  2.0995  0.1151
22166SOL    HW270030   7.399   9.643   7.359  1.1349 -0.8439 -0.7588
22167SOL     OW70031   5.338   3.848   5.949  0.4722 -0.2204  0.0185
22167SOL    HW170032   5.284   3.870   5.873 -2.6007 -0.8144  1.8710
22167SOL    HW270033   5.355   3.754   5.940  0.9714 -0.0979 -0.3943
22168SOL     OW70034  10.056   5.754   8.504  0.0158 -0.3665  0.3345
22168SOL    HW170035  10.106   5.829   8.472  0.9983 -1.1845 -0.1043
22168SOL    HW270036  10.032   5.778   8.594  0.1396  0.5389  0.1407
22169SOL     OW70037   2.467   7.243   1.326  0.0944  0.2786  0.5506
22169SOL    HW170038   2.389   7.278   1.284 -0.4829 -0.6138  0.8311
22169SOL    HW270039   2.445   7.151   1.344  0.7432  0.3281  1.7299
22170SOL     OW70040   9.514   8.896   7.176  0.4190 -0.5854 -0.1715
22170SOL    HW170041   9.579   8.876   7.243 -0.7964  0.3852  1.3814
22170SOL    HW270042   9.565   8.925   7.101  1.8918 -3.0782 -0.2240
22171SOL     OW70043   9.477   4.192   7.942  0.5447  0.0372  0.0898
22171SOL    HW170044   9.480   4.283   7.973 -0.8767  0.2959 -0.4916
22171SOL    HW270045   9.566   4.160   7.957  1.1876  1.6411 -0.0527
22172SOL     OW70046   5.865   1.293   4.137  0.2322  0.4985  0.1189
22172SOL    HW170047   5.810   1.363   4.103  0.6252  1.0815  0.6631
22172SOL    HW270048   5.816   1.257   4.211  0.7201  1.2547  0.8289
22173SOL     OW70049   7.942   1.993   0.760  0.2148  0.5327 -0.3401
22173SOL    HW170050   7.974   2.000   0.850 -1.1237 -1.4564  0.3553
22173SOL    HW270051   8.021   1.990   0.706  1.0860 -0.1661  0.9410
22174SOL     OW70052   0.250   8.691   2.561 -0.1195 -0.4084 -0.3420
22174SOL    HW170053   0.284   8.741   2.635 -2.0385 -0.0315  0.3244
22174SOL    HW270054   0.296   8.607   2.565  0.6877  0.0648  0.5225
22175SOL     OW70055   0.267   4.499   4.246 -0.4560  0.5041 -0.5857
22175SOL    HW170056   0.222   4.582   4.263  0.2794  0.6467  0.8082
22175SOL    HW270057   0.197   4.434   4.242 -0.9500  1.0220 -0.5333
22176SOL     OW70058   5.728   0.260   9.240  0.0529 -0.4488 -0.1057
22176SOL    HW170059   5.787   0.210   9.184  0.6284  0.1157 -0.0087
22176SOL    HW270060   5.745   0.228   9.328 -0.6965 -1.1817 -0.2189
22177SOL     OW70061   7.356  10.740   4.515  0.7294  0.4822  0.3104
22177SOL    HW170062   7.376  10.687   4.593 -1.6041 -2.3757 -0.8446
22177SOL    HW270063   7.441  10.771   4.484  2.0342 -1.1151  2.0951
22178SOL     OW70064  10.159  10.856   2.864 -0.0488 -0.0488  0.1490
22178SOL    HW170065  10.156  10.800   2.786  0.9334  0.1111 -0.0181
22178SOL    HW270066  10.140  10.944   2.831 -0.2922 -0.0798  0.2015
22179SOL     OW70067   6.194   5.865   7.727 -0.2551  0.2359  0.5340
22179SOL    HW170068   6.195   5.932   7.796 -0.2324 -0.5108  1.2655
22179SOL    HW270069   6.102   5.849   7.710 -0.2689  0.8383 -0.0448
22180SOL     OW70070   4.342   0.653   9.755 -0.2264 -0.0215 -0.6653
22180SOL    HW170071   4.290   0.725   9.792 -0.1580  0.3664 -1.3105
22180SOL    HW270072   4.427   0.661   9.797 -1.2367 -1.9664  2.0635
22181SOL     OW70073   6.629   1.396   0.706  0.0712 -0.4907  0.8535
22181SOL    HW170074   6.690   1.337   0.751  1.0786  0.7288  1.1442
22181SOL    HW270075   6.670   1.413   0.621  0.8978  1.4045  1.5610
22182SOL     OW70076   9.583   3.195   0.343  0.1982  0.6589 -0.8676
22182SOL    HW170077   9.526   3.271   0.329 -0.3532  0.4823  0.2771
22182SOL    HW270078   9.581   3.181   0.438  0.2303 -0.8357 -1.0629
22183SOL     OW70079   0.330   0.462   3.702 -0.0812  0.1199 -0.5679
22183SOL    HW170080   0.348   0.540   3.755 -0.1360  0.6839 -1.3589
22183SOL    HW270081   0.327   0.390   3.766 -1.9381  1.0128  0.4485
22184SOL     OW70082   1.331   7.265  10.018 -0.1614 -0.1815  0.0590
22184SOL    HW170083   1.246   7.299   9.988  0.1175  0.8848  0.4764
22184SOL    HW270084   1.387   7.342  10.026  0.9040 -0.8899 -0.3432
22185SOL     OW70085   7.239  10.352   6.607 -0.7945  0.0141 -0.3148
22185SOL    HW170086   7.234  10.258   6.588 -1.0978 -0.3088  1.2388
22185SOL    HW270087   7.288  10.357   6.689 -1.1010  1.1917 -0.1966
22186SOL     OW70088   2.059   6.400   3.723  0.4997 -0.1513 -0.3367
22186SOL    HW170089   2.122   6.460   3.764  0.1513  0.3021 -0.4633
22186SOL    HW270090   1.975   6.427   3.759  0.4872 -1.4804  0.7062
22187SOL     OW70091   8.575   5.464   7.248  0.2752  0.3953 -0.2960
22187SOL    HW170092   8.493   5.507   7.225  0.7980  1.1202 -0.8581
22187SOL    HW270093   8.567   5.444   7.341 -0.1165  1.4223 -0.1016
22188SOL     OW70094   1.304   9.164   6.702  0.0031  0.4016 -0.1914
22188SOL    HW170095   1.252   9.243   6.718 -2.1872 -0.8674 -0.5999
22188SOL    HW270096   1.362   9.159   6.778 -0.7093  1.7139  0.4930
22189SOL     OW70097   7.461   2.694   0.154 -0.1445  0.0247 -0.5806
22189SOL    HW170098   7.448   2.604   0.183  1.9455  0.7050  3.1104
22189SOL    HW270099   7.510   2.686   0.072  1.9523 -2.2932  0.7563
22190SOL     OW70100   7.833   6.232   2.643  0.2067 -0.0858 -0.2214
22190SOL    HW170101   7.883   6.227   2.724  0.5420 -0.8405 -0.4678
22190SOL    HW270102   7.785   6.315   2.649  1.1179  0.4195  0.2302
22191SOL     OW70103   4.793   7.022   8.845 -0.4959  0.4630  0.2607
22191SOL    HW170104   4.820   7.114   8.847  0.6316  0.1510 -0.2560
22191SOL    HW270105   4.713   7.022   8.792 -0.6584  1.1681  0.4869
22192SOL     OW70106   8.876   5.974   3.011  0.4525 -0.1940 -0.0058
22192SOL    HW170107   8.897   6.049   2.955  0.4855 -0.7150 -0.6979
22192SOL    HW270108   8.954   5.920   3.008  1.3307  0.7998  2.2987
22193SOL     OW70109   5.637  10.898  10.422 -0.1590  0.0535 -0.5853
22193SOL    HW170110   5.724  10.882  10.460  0.0412  0.6923 -0.7575
22193SOL    HW270111   5.628  10.993  10.422 -0.9775 -0.0142 -0.3175
22194SOL     OW70112   4.528   0.324  11.101  0.1917  0.2446  0.4763
22194SOL    HW170113   4.447   0.295  11.059  1.2558 -0.7219 -1.0031
22194SOL    HW270114   4.515   0.305  11.194 -0.6472 -1.4684  0.0491
22195SOL     OW70115   1.504   5.903   3.011 -0.7949 -0.0970 -0.2699
22195SOL    HW170116   1.435   5.922   2.948 -1.2315 -0.8114 -0.0167
22195SOL    HW270117   1.554   5.831   2.971  1.0714  1.7077 -1.3986
22196SOL     OW70118   1.522   2.518   5.769 -0.6826  0.4855 -0.1189
22196SOL    HW170119   1.497   2.591   5.711 -0.4777  1.7996  1.3705
22196SOL    HW270120   1.531   2.443   5.710 -0.5177  1.7431 -1.7930
22197SOL     OW70121   0.603   1.026   8.099  0.1400 -0.1162  0.0257
22197SOL    HW170122   0.513   1.003   8.121 -0.6087 -0.9857 -3.4305
22197SOL    HW270123   0.597   1.112   8.057  1.0519  0.1737  0.4476
22198SOL     OW70124   6.045  10.893   3.576 -0.0816  0.1016 -0.4105
22198SOL    HW170125   6.055  10.979   3.617 -0.3279  0.5138 -1.1941
22198SOL    HW270126   6.113  10.891   3.508  0.6862 -0.7957  0.3631
22199SOL     OW70127   8.258   5.354   1.535  0.3684  0.0512 -0.3266
22199SOL    HW170128   8.326   5.301   1.493  1.0614  0.3210  0.4304
22199SOL    HW270129   8.306   5.425   1.577 -0.4722  0.7775 -0.5600
22200SOL     OW70130  10.709  11.012   0.596 -0.2723  0.3243 -0.3398
22200SOL    HW170131  10.713  10.964   0.678 -0.3561 -0.3731 -0.7374
22200SOL    HW270132  10.739  11.100   0.618  1.2708 -0.2922  0.1042
22201SOL     OW70133   8.383   0.951   7.182  0.9732  0.0245  0.6864
22201SOL    HW170134   8.452   1.017   7.183  0.7267  0.5616 -2.9883
22201SOL    HW270135   8.427   0.870   7.207  2.3911  0.7705  0.7259
22202SOL     OW70136  10.187   5.049   1.486  0.0728 -0.0721  0.1630
22202SOL    HW170137  10.211   4.999   1.408  1.5032  0.4882  0.2194
22202SOL    HW270138  10.257   5.030   1.549  1.3001  2.8124 -0.1886
22203SOL     OW70139   2.672   1.147   9.070  0.7090  0.0399 -0.2658
22203SOL    HW170140   2.686   1.219   9.131 -1.2864 -0.9309  1.4545
22203SOL    HW270141   2.743   1.085   9.089  0.5965  0.1347  0.5121
22204SOL     OW70142   7.989   6.120   2.445 -0.2677  0.5634 -0.3359
22204SOL    HW170143   7.936   6.162   2.513  0.5212  0.8610  0.1094
22204SOL    HW270144   8.058   6.074   2.494 -0.6080 -0.5274 -0.8566
22205SOL     OW70145   1.019   1.662   3.041 -0.2713 -0.3936  0.2900
22205SOL    HW170146   1.112   1.682   3.029 -0.7613  0.5865 -2.6398
22205SOL    HW270147   1.003   1.587   2.983 -1.6489  0.6615 -0.7631
22206SOL     OW70148   4.912   8.935   2.748 -0.0133  0.2014 -0.0230
22206SOL    HW170149   4.958   8.977   2.821  0.8984 -0.2184 -0.3468
22206SOL    HW270150   4.829   8.906   2.786  0.3587  0.1796  0.8012
22207SOL     OW70151   3.923   3.405   0.637  0.8725 -0.2823  0.5850
22207SOL    HW170152   3.858   3.365   0.695  1.2237 -1.3879  0.2522
22207SOL    HW270153   3.872   3.443   0.566  0.4252  1.2243  1.6758
22208SOL     OW70154   8.589   9.232   6.468  0.5016  0.0243  0.1226
22208SOL    HW170155   8.581   9.319   6.429  1.2529 -0.7866 -1.9767
22208SOL    HW270156   8.533   9.176   6.413  1.7680 -1.2129  0.0342
22209SOL     OW70157   1.883   5.588  11.084  0.0192  0.1717 -0.2609
22209SOL    HW170158   1.880   5.667  11.138  0.2171 -0.2540  0.3738
22209SOL    HW270159   1.896   5.516  11.146 -2.1907 -0.5995 -0.6130
22210SOL     OW70160   4.328   1.121   8.308  0.2082  0.7243  0.6034
22210SOL    HW170161   4.317   1.212   8.282  0.9235  0.7090  0.2334
22210SOL    HW270162   4.276   1.071   8.244  1.6208  0.7175 -0.5832
22211SOL     OW70163   4.566   1.394   3.067  0.0548  0.3167  0.4597
22211SOL    HW170164   4.593   1.308   3.036  0.1226  0.2318  0.7499
22211SOL    HW270165   4.643   1.429   3.113  0.4566  1.0745 -0.7622
22212SOL     OW70166   2.511   2.484   6.022  0.3561  0.4972  0.6065
22212SOL    HW170167   2.443   2.421   5.997  1.4221 -0.2499 -0.4928
22212SOL    HW270168   2.559   2.502   5.941 -0.3140  3.2838  0.7072
22213SOL     OW70169  11.063   9.416  10.729 -0.2547  0.2106 -0.2561
22213SOL    HW170170  11.111   9.341  10.764  0.7513  0.7524 -0.4344
22213SOL    HW270171  11.042   9.392  10.639 -2.8437 -1.1911  0.5878
22214SOL     OW70172   4.911   5.331   8.741  0.0126  0.4930 -0.0022
22214SOL    HW170173   4.874   5.248   8.770  0.2501 -0.3569 -1.9500
22214SOL    HW270174   4.979   5.306   8.677  1.8157  2.1007  1.1656
22215SOL     OW70175   8.443   3.883  10.862 -0.2017  0.1389  0.0009
22215SOL    HW170176   8.461   3.932  10.943 -0.5130 -0.3765  0.3875
22215SOL    HW270177   8.529   3.855  10.832 -0.0835  0.3124  0.1727
22216SOL     OW70178   4.925   4.713   0.008 -0.0767  0.3399  0.2631
22216SOL    HW170179   4.973   4.756  -0.062  0.1068  1.5928  1.1278
22216SOL    HW270180   4.853   4.667  -0.037  1.0867 -0.4073 -0.8941
22217SOL     OW70181   1.403   0.206   4.004 -0.3783 -0.1059  0.6432
22217SOL    HW170182   1.459   0.193   3.927 -0.0487  1.1034  0.6581
22217SOL    HW270183   1.366   0.119   4.021 -0.0922 -0.4954 -0.5888
22218SOL     OW70184   4.374  10.491   8.849  0.0988 -0.6301  0.1906
22218SOL    HW170185   4.279  10.503   8.850  0.3777  2.6934  1.8317
22218SOL    HW270186   4.399  10.505   8.757 -0.9327 -0.6263 -0.0952
22219SOL     OW70187   6.432   1.775   2.113  0.1821 -0.4094 -0.1260
22219SOL    HW170188   6.434   1.680   2.105  0.9178 -0.2710 -2.1709
22219SOL    HW270189   6.342   1.795   2.139  0.2955 -1.6801  1.4759
22220SOL     OW70190   5.930   6.767   7.482  0.2180 -0.0679  0.0070
22220SOL    HW170191   6.014   6.779   7.438  0.2908 -0.7759 -0.0647
22220SOL    HW270192   5.940   6.686   7.532  0.2152  0.8594  1.5382
22221SOL     OW70193   2.291  10.318  10.862 -0.5725  0.1166  0.7600
22221SOL    HW170194   2.353  10.245  10.869  0.6262  1.2353  2.3863
22221SOL    HW270195   2.218  10.293  10.919 -0.6809 -0.2672  0.4627
22222SOL     OW70196   7.060   5.589   6.324 -0.5167  0.2221  0.0677
22222SOL    HW170197   7.148   5.558   6.346 -0.6355  0.5599  1.0371
22222SOL    HW270198   7.046   5.664   6.381 -1.3914  0.2507 -0.1775
22223SOL     OW70199   2.318   1.177   1.545  0.3855  0.4402  0.4007
22223SOL    HW170200   2.402   1.197   1.503  0.9892  0.5246  1.5800
22223SOL    HW270201   2.254   1.229   1.497  1.2402  1.5517  0.4009
22224SOL     OW70202   1.832   5.240  10.089 -0.0757 -0.4738 -0.1017
22224SOL    HW170203   1.811   5.195  10.171 -2.0815  0.8542  0.1768
22224SOL    HW270204   1.748   5.268  10.055  0.9871  2.0964 -0.8070
22225SOL     OW70205   6.840   7.539   7.001 -0.0532 -0.4482 -0.0166
22225SOL    HW170206   6.922   7.587   7.010 -0.7694  0.9099 -0.5896
22225SOL    HW270207   6.857   7.476   6.931 -0.0392  1.0736 -1.4363
22226SOL     OW70208   3.456   7.795  11.068 -0.3368 -0.4523  0.3370
22226SOL    HW170209   3.453   7.890  11.078  1.0558 -0.4827  1.3039
22226SOL    HW270210   3.471   7.762  11.157 -2.1679 -1.6855  0.2439
22227SOL     OW70211   9.818   3.029   3.843 -0.1792  0.4974 -0.8114
22227SOL    HW170212   9.892   3.084   3.814  0.5941 -0.2153 -0.2431
22227SOL    HW270213   9.856   2.970   3.908 -1.3849  0.4733 -0.1099
22228SOL     OW70214   1.381   7.896  10.146 -0.6555  0.1132  0.3831
22228SOL    HW170215   1.420   7.977  10.115  0.9108  0.1688  2.2669
22228SOL    HW270216   1.349   7.917  10.234 -1.3162 -0.9948  0.4287
22229SOL     OW70217   8.001  10.311   2.339  0.1150 -0.2595 -0.2721
22229SOL    HW170218   7.975  10.318   2.248  2.0237  0.3639 -0.8154
22229SOL    HW270219   8.013  10.217   2.354 -0.6448 -0.3975 -0.5148
22230SOL     OW70220   4.804   6.464   6.716  0.2626 -0.5134  1.0749
22230SOL    HW170221   4.764   6.443   6.631 -1.1420 -0.0035  1.5936
22230SOL    HW270222   4.889   6.502   6.693  0.5119 -1.6582 -0.0448
22231SOL     OW70223   3.437  10.787   7.198  0.5491 -0.3122  0.1948
22231SOL    HW170224   3.507  10.742   7.246  0.8814 -0.1094 -0.0862
22231SOL    HW270225   3.390  10.717   7.153  0.4537 -0.4698  0.5361
22232SOL     OW70226  10.018   5.904   2.123 -0.5898 -0.2373 -0.0353
22232SOL    HW170227   9.983   5.936   2.207  1.2507 -0.6555  0.9393
22232SOL    HW270228  10.095   5.959   2.107  0.1807 -1.4163 -0.4662
22233SOL     OW70229   0.726   6.863   1.302  0.2905 -0.0636  0.4125
22233SOL    HW170230   0.696   6.788   1.354 -0.8482  0.6035  0.7730
22233SOL    HW270231   0.670   6.862   1.224  0.8479 -0.0794  0.0058
22234SOL     OW70232   6.039   6.013   5.537  0.7986 -0.2007 -0.1014
22234SOL    HW170233   6.022   6.082   5.473  2.7788  0.8100  0.3703
22234SOL    HW270234   6.054   5.935   5.485 -0.5717 -0.0846 -0.6959
22235SOL     OW70235   5.418   1.054  10.419 -0.0712 -0.2439  0.6446
22235SOL    HW170236   5.362   1.055  10.497 -2.0776  1.7114 -0.7023
22235SOL    HW270237   5.469   1.134  10.425 -0.1735 -0.1271  0.0016
22236SOL     OW70238   1.845   5.041   8.391  0.4176  0.0378 -0.2208
22236SOL    HW170239   1.780   5.033   8.321  0.0444  0.5122  0.0680
22236SOL    HW270240   1.899   5.115   8.365  0.8867 -0.3914 -0.4888
22237SOL     OW70241   8.446   3.329   0.380 -0.0856 -0.0365 -0.7834
22237SOL    HW170242   8.529   3.342   0.334  0.5163  1.2140  0.5689
22237SOL    HW270243   8.461   3.253   0.436  0.7851  1.1598  0.7002
22238SOL     OW70244   7.505   2.411   0.185 -0.6529  0.4818  0.6226
22238SOL    HW170245   7.443   2.339   0.191 -0.4687  0.2461 -0.2173
22238SOL    HW270246   7.511   2.430   0.091  2.8730 -1.5359  0.3061
22239SOL     OW70247   4.050   8.041   7.272 -0.5930  0.0327 -0.1430
22239SOL    HW170248   4.105   8.056   7.349 -1.2295  0.2341  0.2798
22239SOL    HW270249   4.049   8.125   7.226 -1.4678  0.3626  0.4606
22240SOL     OW70250   3.059   2.173   3.071 -0.9946  0.6074  0.2749
22240SOL    HW170251   3.072   2.210   2.984 -0.0791 -0.4668 -0.0812
22240SOL    HW270252   3.126   2.214   3.125 -0.8722  0.4874  0.2143
22241SOL     OW70253   5.109   7.106   0.791  0.3559  0.0188  0.0082
22241SOL    HW170254   5.024   7.068   0.768  0.1203 -0.8510  2.0738
22241SOL    HW270255   5.093   7.200   0.800 -0.6333 -0.2634  1.3272
22242SOL     OW70256   8.129   3.258   3.765 -0.7319 -0.3245  0.4129
22242SOL    HW170257   8.078   3.186   3.729  0.8649 -1.2636 -0.0521
22242SOL    HW270258   8.091   3.337   3.726 -1.7824 -0.9873  0.0627
22243SOL     OW70259   2.811   3.805   6.238  0.2492  0.2111  0.2798
22243SOL    HW170260   2.864   3.833   6.313  0.7004  0.1359 -0.0060
22243SOL    HW270261   2.847   3.720   6.213  0.1674  0.2778 -0.0786
22244SOL     OW70262   9.998   5.844   2.805  0.0306 -0.5565 -0.1807
22244SOL    HW170263   9.944   5.805   2.873  0.2376 -2.4400 -1.0378
22244SOL    HW270264   9.942   5.847   2.728  0.9365 -2.0824 -0.9479
22245SOL     OW70265   5.647   0.610   7.337  0.2012 -0.1883  0.2758
22245SOL    HW170266   5.663   0.690   7.286 -0.7942 -0.0229  0.2093
22245SOL    HW270267   5.714   0.612   7.405  2.2642 -0.9344 -1.5902
22246SOL     OW70268   6.921  10.266   3.255 -0.3287 -0.6158  1.0040
22246SOL    HW170269   6.883  10.239   3.172  0.8867  1.1049 -0.1851
22246SOL    HW270270   6.902  10.194   3.315 -3.0952 -0.9703 -0.1546
22247SOL     OW70271  10.083   2.487  10.911 -0.0315  0.6759 -0.1645
22247SOL    HW170272  10.022   2.554  10.880  0.3954  1.0895 -0.1217
22247SOL    HW270273  10.125   2.455  10.831  0.0100  0.6982 -0.1513
22248SOL     OW70274   7.356   6.941   5.094 -0.0713  0.1277  0.3942
22248SOL    HW170275   7.440   6.972   5.128  0.2365 -1.0896  0.8173
22248SOL    HW270276   7.328   7.009   5.033 -0.5905  2.3849  2.9386
22249SOL     OW70277   1.976   5.694   8.707  1.0809 -0.5880 -0.0332
22249SOL    HW170278   1.898   5.736   8.673  1.4193  0.1709  0.0950
22249SOL    HW270279   2.010   5.643   8.634  0.8992 -0.2856 -0.3309
22250SOL     OW70280   9.138   4.064   7.024  0.6034  0.1074  0.7093
22250SOL    HW170281   9.072   4.004   6.991 -1.3934  1.6886  1.6136
22250SOL    HW270282   9.213   4.009   7.044 -1.0715 -2.0698  1.3886
22251SOL     OW70283   5.188   9.096   5.049  0.0624 -0.1023  0.1351
22251SOL    HW170284   5.235   9.178   5.037 -1.5032  0.5757 -1.7288
22251SOL    HW270285   5.098   9.114   5.022 -0.3773 -2.3685 -0.1479
22252SOL     OW70286   5.141   0.637   5.429 -0.1252 -0.2391 -0.3430
22252SOL    HW170287   5.219   0.622   5.483 -0.0301 -1.3256 -0.7606
22252SOL    HW270288   5.163   0.598   5.344 -1.5706 -1.6801 -0.0943
22253SOL     OW70289   3.997   0.547   6.207  0.8976  0.2396 -0.1140
22253SOL    HW170290   4.002   0.632   6.252 -0.5275 -0.5315  1.6316
22253SOL    HW270291   3.988   0.570   6.114 -0.1557  2.0499  0.3686
22254SOL     OW70292   2.441   5.499   5.364  0.7822  0.0438 -0.3285
22254SOL    HW170293   2.358   5.456   5.387 -0.0835  0.4715 -2.4448
22254SOL    HW270294   2.493   5.430   5.323  1.2486 -0.0716  0.4400
22255SOL     OW70295   0.517   7.154   1.311  0.3184 -0.2704 -0.4894
22255SOL    HW170296   0.519   7.068   1.269  0.2152 -0.8796  0.7076
22255SOL    HW270297   0.465   7.140   1.390 -1.4440  1.3686 -1.2797
22256SOL     OW70298   3.846   1.928   7.855 -0.0947 -0.4707  0.0141
22256SOL    HW170299   3.839   1.995   7.923 -0.5474 -0.9381  0.4354
22256SOL    HW270300   3.937   1.902   7.856  0.2507  0.6157 -0.6226
22257SOL     OW70301   2.344   0.786   6.181  0.1331 -0.4059  0.7546
22257SOL    HW170302   2.323   0.877   6.199 -0.9134 -0.4575 -0.1401
22257SOL    HW270303   2.266   0.737   6.209 -0.5284 -0.7251 -1.4809
22258SOL     OW70304   1.985   0.614  10.633 -0.3789 -0.6543 -0.0566
22258SOL    HW170305   1.960   0.618  10.541  0.6334 -0.2859 -0.3380
22258SOL    HW270306   2.080   0.598  10.631  0.2050  2.0497  0.8376
22259SOL     OW70307   4.521   1.542   0.152  0.6808  0.5865 -0.3734
22259SOL    HW170308   4.587   1.592   0.104  0.4795  2.0070  0.7548
22259SOL    HW270309   4.524   1.454   0.114  0.8555  1.5147 -2.6195
22260SOL     OW70310  10.240   6.938   5.084  0.2426  0.1299 -0.0092
22260SOL    HW170311  10.254   6.947   4.990  1.4564 -1.4391 -0.0250
22260SOL    HW270312  10.151   6.969   5.099 -0.0496  0.1684 -1.6980
22261SOL     OW70313   1.622   9.852   7.729  0.2052 -0.2522 -0.5126
22261SOL    HW170314   1.650   9.767   7.765 -0.7205  0.2756  1.6613
22261SOL    HW270315   1.535   9.835   7.693  0.5501 -0.4879 -1.2426
22262SOL     OW70316   0.306   2.812   5.613 -0.1101  0.3388  0.3146
22262SOL    HW170317   0.242   2.851   5.673  1.2022  2.1310  0.6267
22262SOL    HW270318   0.380   2.787   5.669  0.6563  0.9774 -0.3822
22263SOL     OW70319   3.138   2.283   1.893  0.1502  0.0076  0.3741
22263SOL    HW170320   3.186   2.262   1.813 -0.5941  0.8936 -0.3230
22263SOL    HW270321   3.123   2.377   1.888 -1.8315 -0.2559  0.4481
22264SOL     OW70322   9.962   4.064   7.725  0.2618  0.2190  0.1883
22264SOL    HW170323   9.997   4.064   7.814  2.4795  0.0742 -0.6201
22264SOL    HW270324   9.879   4.018   7.732  1.5445 -2.0427  1.7838
22265SOL     OW70325   9.777   0.184   9.292 -0.4980 -0.0345 -0.9197
22265SOL    HW170326   9.812   0.252   9.350  0.0853 -1.1066  0.0298
22265SOL    HW270327   9.808   0.102   9.330  1.0680 -0.7493 -3.4853
22266SOL     OW70328   6.557   7.301   8.943 -0.2040 -0.4152  0.4670
22266SOL    HW170329   6.590   7.382   8.902  1.1819  0.1522  2.5803
22266SOL    HW270330   6.507   7.258   8.873  0.2287  1.5491 -1.1479
22267SOL     OW70331   4.347   8.970  10.609  0.2671  0.7003 -0.3193
22267SOL    HW170332   4.411   8.905  10.578 -0.0506  0.5220 -0.6097
22267SOL    HW270333   4.400   9.042  10.644  0.6345  0.9608 -1.3907
22268SOL     OW70334   1.534   9.195   5.765 -0.0032 -0.4030 -0.8980
22268SOL    HW170335   1.516   9.208   5.858 -2.6185  1.2573 -1.5269
22268SOL    HW270336   1.609   9.251   5.747  1.1294 -1.4658  0.3638
22269SOL     OW70337   9.176   7.694   2.990  0.2409 -0.2282 -0.0321
22269SOL    HW170338   9.247   7.749   3.022 -0.6741  0.5642  0.7305
22269SOL    HW270339   9.100   7.753   2.986 -0.4258 -1.0930 -0.6073
22270SOL     OW70340   1.811   1.330   0.716 -0.3033  0.0123 -0.2509
22270SOL    HW170341   1.779   1.250   0.759 -0.8707  0.2489 -0.2224
22270SOL    HW270342   1.757   1.400   0.753  1.2433  0.6393  0.9029
22271SOL     OW70343   3.152   8.731   2.416  0.4188  0.5927  0.4945
22271SOL    HW170344   3.124   8.762   2.502  0.6235  1.3186  0.3057
22271SOL    HW270345   3.129   8.638   2.415  1.4279  0.2998  1.7599
22272SOL     OW70346   1.232   9.114   4.824 -0.3796 -0.0719 -0.0396
22272SOL    HW170347   1.173   9.039   4.820 -2.1935  1.3189 -2.1105
22272SOL    HW270348   1.174   9.189   4.842  0.9883  1.1383 -0.4466
22273SOL     OW70349   5.499   7.047   3.380  0.3440  0.3477  0.2060
22273SOL    HW170350   5.423   6.998   3.413 -1.1142  1.5429 -1.2288
22273SOL    HW270351   5.567   7.032   3.445 -0.0115 -3.5195 -0.0763
22274SOL     OW70352  10.727   6.419   6.460  0.0739  0.2890 -0.1353
22274SOL    HW170353  10.639   6.386   6.473 -0.4503  2.3741  2.5964
22274SOL    HW270354  10.781   6.371   6.524 -0.0231  1.9847  1.3184
22275SOL     OW70355   2.294   3.216   4.538 -0.0683  0.2452 -0.3703
22275SOL    HW170356   2.201   3.220   4.559  0.2316 -0.7486  1.3031
22275SOL    HW270357   2.307   3.127   4.505 -0.0671  1.0328 -2.6321
22276SOL     OW70358   9.152   1.811   3.527 -0.1234 -0.0030  0.3651
22276SOL    HW170359   9.144   1.791   3.620 -1.4395  0.8724  0.4618
22276SOL    HW270360   9.088   1.755   3.484  0.1625 -0.0805  0.0323
22277SOL     OW70361   1.781   3.085   5.307 -0.8859  0.1843 -0.2652
22277SOL    HW170362   1.805   3.035   5.229 -2.0989 -0.8017 -0.0190
22277SOL    HW270363   1.787   3.177   5.279  1.3598 -0.0267 -0.7177
22278SOL     OW70364   5.452   2.730  10.155  0.1781  0.2509  0.3945
22278SOL    HW170365   5.435   2.810  10.204 -0.1795 -0.9969  2.4260
22278SOL    HW270366   5.434   2.659  10.217  0.3469 -1.4275 -1.3607
22279SOL     OW70367   3.018   7.228  10.328  0.1723 -0.3012  0.4065
22279SOL    HW170368   2.996   7.317  10.301 -0.9667 -1.0244 -1.2230
22279SOL    HW270369   3.081   7.198  10.262  1.7720 -0.2127  1.8251
22280SOL     OW70370   7.384   9.843   3.952 -0.1066  0.5663  0.5413
22280SOL    HW170371   7.400   9.757   3.990 -1.6460  0.0745  0.1460
22280SOL    HW270372   7.323   9.886   4.012  0.2336  1.1787  0.4597
22281SOL     OW70373  10.670   2.281   6.874 -0.2957  0.1188  0.3787
22281SOL    HW170374  10.701   2.199   6.913  0.2002 -0.7903 -1.8156
22281SOL    HW270375  10.715   2.349   6.924 -1.1154 -0.8505  2.5994
22282SOL     OW70376   8.508   1.542   1.154 -0.0230 -0.2041 -0.0281
22282SOL    HW170377   8.561   1.517   1.230 -0.5065 -1.0855  0.0308
22282SOL    HW270378   8.425   1.572   1.191  0.3126  0.9035 -0.1356
22283SOL     OW70379   8.077   5.781   4.180 -0.4200  0.4117 -0.0570
22283SOL    HW170380   8.026   5.812   4.255 -0.6748 -0.5524  0.1781
22283SOL    HW270381   8.033   5.819   4.104 -1.9358 -0.9187  0.0891
22284SOL     OW70382   1.845   3.562   0.269  0.2976 -0.6852 -0.0216
22284SOL    HW170383   1.766   3.509   0.278  0.4895 -1.0278 -0.3288
22284SOL    HW270384   1.902   3.511   0.211  0.5151 -0.1786 -0.2595
22285SOL     OW70385   7.519   8.179   4.828 -0.1820  0.2871 -0.2420
22285SOL    HW170386   7.445   8.233   4.855 -1.1974 -0.5240 -1.2956
22285SOL    HW270387   7.546   8.215   4.743  1.8468  1.7039  0.8871
22286SOL     OW70388   9.715   3.325  10.161  0.5553  0.9166  0.1244
22286SOL    HW170389   9.673   3.257  10.213  1.3729  2.1803  2.6735
22286SOL    HW270390   9.767   3.278  10.096  0.3958 -0.8537  1.2137
22287SOL     OW70391   0.321  10.161   8.192  0.4101 -0.0075  0.1235
22287SOL    HW170392   0.416  10.157   8.206  1.1767  3.2916 -2.6272
22287SOL    HW270393   0.311  10.158   8.097 -2.4966 -1.9738  0.3690
22288SOL     OW70394   3.575   5.441   1.693 -0.1027 -0.6025  0.0243
22288SOL    HW170395   3.626   5.384   1.636  0.3767 -0.5185  0.3582
22288SOL    HW270396   3.639   5.475   1.756 -0.7383 -1.1911  1.0063
22289SOL     OW70397   3.906   0.289   2.913  0.0778  0.2850 -0.1860
22289SOL    HW170398   3.863   0.342   2.846 -0.8857 -0.7198 -0.3876
22289SOL    HW270399   3.919   0.349   2.986 -0.8169  0.8571 -0.4767
22290SOL     OW70400   4.131   5.039   3.386 -0.0406  0.2504 -0.5498
22290SOL    HW170401   4.140   5.090   3.467 -0.1576  0.8211 -0.8919
22290SOL    HW270402   4.151   5.101   3.316 -0.0672 -0.2089 -0.9673
22291SOL     OW70403   0.125   9.755   7.715 -0.6074 -0.3033 -0.0679
22291SOL    HW170404   0.042   9.726   7.754 -1.0681  0.6805 -0.2840
22291SOL    HW270405   0.112   9.742   7.621  0.0686 -1.5673 -0.0158
22292SOL     OW70406   0.599   8.982   5.866 -0.2466 -0.0432 -0.3390
22292SOL    HW170407   0.692   8.962   5.875  0.0348  1.5052  0.4074
22292SOL    HW270408   0.597   9.063   5.816 -0.9985  1.7324  2.3617
22293SOL     OW70409   1.642   7.872   2.508  0.1757 -0.5515  0.3459
22293SOL    HW170410   1.584   7.797   2.520  1.6451 -1.7011  0.7069
22293SOL    HW270411   1.592   7.934   2.456 -0.7928 -2.1748 -0.7481
22294SOL     OW70412   6.256   6.435   2.519 -0.3230 -0.8797 -0.0046
22294SOL    HW170413   6.335   6.438   2.571  0.3161 -0.8913 -0.9510
22294SOL    HW270414   6.199   6.503   2.555  1.7255  2.0278 -1.8581
22295SOL     OW70415   5.818   7.152   5.056  0.4639  0.7880  0.3907
22295SOL    HW170416   5.794   7.061   5.036  0.7951  0.5576  0.9990
22295SOL    HW270417   5.911   7.158   5.031 -0.1211  1.6313 -1.8244
22296SOL     OW70418   3.826   4.193  10.865  0.1720  1.1178 -0.6451
22296SOL    HW170419   3.872   4.257  10.920 -0.0852  0.5005  0.3284
22296SOL    HW270420   3.735   4.220  10.868  0.0916  0.8321 -0.3919
22297SOL     OW70421   6.538   3.606   2.635  0.5094  0.3335  0.0632
22297SOL    HW170422   6.631   3.619   2.655  0.9146 -2.5182  0.3953
22297SOL    HW270423   6.524   3.657   2.555  2.3787  0.7078 -0.0813
22298SOL     OW70424   4.849   4.710   9.087 -0.2388 -0.1172  0.2546
22298SOL    HW170425   4.896   4.752   9.159  1.2768  1.2033 -1.4112
22298SOL    HW270426   4.780   4.772   9.064 -0.3720 -0.2772  0.2217
22299SOL     OW70427   6.614   7.703   7.065 -0.1652 -0.4729  0.0673
22299SOL    HW170428   6.589   7.737   6.979  0.9578 -0.0364 -0.1150
22299SOL    HW270429   6.707   7.682   7.055  0.1040  0.0477  1.3092
22300SOL     OW70430  11.043   3.439  10.840  0.0117 -0.4140 -0.2243
22300SOL    HW170431  11.115   3.502  10.846 -0.5663  0.0897  2.9789
22300SOL    HW270432  11.085   3.354  10.855  0.1539 -0.2779  0.1618
22301SOL     OW70433   2.492   2.336   8.784  0.8383  0.7626 -0.1953
22301SOL    HW170434   2.424   2.270   8.767  0.8850  0.1983  1.6088
22301SOL    HW270435   2.480   2.401   8.714  0.0096 -0.5328 -1.3154
22302SOL     OW70436   1.292   8.053   1.851  0.4701 -0.2363 -0.0737
22302SOL    HW170437   1.292   7.959   1.869  0.2067 -0.1298  0.5190
22302SOL    HW270438   1.256   8.092   1.930 -0.2864  0.3014 -0.6678
22303SOL     OW70439   8.776   4.531   0.143 -0.0914  0.3758  0.5222
22303SOL    HW170440   8.721   4.482   0.081  0.8625 -1.8108  1.3199
22303SOL    HW270441   8.752   4.496   0.229  1.1824  0.7651  1.0444
22304SOL     OW70442  11.091   7.721   9.117  0.1878  0.2656 -0.2387
22304SOL    HW170443  11.170   7.760   9.153 -0.9570  1.3807  1.2047
22304SOL    HW270444  11.020   7.753   9.173 -1.1953 -1.4620 -0.8853
22305SOL     OW70445   8.298   4.230   3.828 -0.4813  0.4860 -0.1534
22305SOL    HW170446   8.251   4.216   3.746  0.7426  1.4074 -1.0514
22305SOL    HW270447   8.276   4.320   3.853  1.9509  1.5371 -1.4433
22306SOL     OW70448   4.112   3.356   7.679 -0.4222  0.1377 -0.1714
22306SOL    HW170449   4.068   3.436   7.708 -0.5040 -0.0288  0.1814
22306SOL    HW270450   4.058   3.286   7.716  0.7685 -0.0744  1.2626
22307SOL     OW70451   8.265   9.064   5.330  0.2041 -0.0723  0.6812
22307SOL    HW170452   8.329   9.133   5.310 -0.2661  0.2627  0.3127
22307SOL    HW270453   8.262   9.010   5.251  0.7325 -0.6533  1.0477
22308SOL     OW70454  10.118   5.270   3.179 -0.5984 -0.0933  0.1402
22308SOL    HW170455  10.141   5.241   3.267  0.6631 -0.3634 -0.2581
22308SOL    HW270456  10.139   5.196   3.122 -1.1489  0.1731 -0.4251
22309SOL     OW70457   1.834   8.657   9.086  0.1237  0.3521  0.2016
22309SOL    HW170458   1.892   8.587   9.054  0.1940  0.8233 -0.7386
22309SOL    HW270459   1.779   8.678   9.011  0.0437  1.2494  0.5041
22310SOL     OW70460   8.429   7.044   9.312  0.2199 -0.0114 -0.0244
22310SOL    HW170461   8.472   7.128   9.295  0.8556 -0.2886  0.1935
22310SOL    HW270462   8.446   6.992   9.233  0.9992 -0.4069  0.3892
22311SOL     OW70463   6.347   6.640   0.586 -0.2638 -0.0742 -0.3911
22311SOL    HW170464   6.422   6.634   0.527 -0.4237 -0.1184 -0.5904
22311SOL    HW270465   6.377   6.600   0.667 -1.0230 -2.9627 -1.4083
22312SOL     OW70466  10.691   3.369   8.371  0.5113 -0.0751  0.6442
22312SOL    HW170467  10.704   3.281   8.335  2.2210 -0.7826  2.6910
22312SOL    HW270468  10.746   3.425   8.317  0.0749 -0.4020 -0.1584
22313SOL     OW70469   3.778   5.299   1.558  0.1840  0.0712 -0.1220
22313SOL    HW170470   3.753   5.312   1.466  1.8614 -0.7002 -0.7227
22313SOL    HW270471   3.866   5.336   1.565  0.4795 -0.7786  0.9114
22314SOL     OW70472   6.174  10.644   7.442 -0.4095 -0.1017 -0.2447
22314SOL    HW170473   6.254  10.697   7.446  0.8958 -2.0061  0.8802
22314SOL    HW270474   6.167  10.619   7.350  0.1633  0.2725 -0.4009
22315SOL     OW70475   5.459   0.285  10.268  0.4770  0.1508 -0.4247
22315SOL    HW170476   5.399   0.337  10.215 -1.2198 -0.4544  0.8327
22315SOL    HW270477   5.433   0.302  10.359  2.4443  0.1377  0.1936
22316SOL     OW70478   9.709   9.162  10.451  0.5833  0.2423 -0.5757
22316SOL    HW170479   9.622   9.124  10.441 -0.5764  2.0408  1.6823
22316SOL    HW270480   9.768   9.097  10.412 -1.5419 -2.1399 -0.1041
22317SOL     OW70481   5.329  10.614   7.808  0.0616  0.4629 -0.6025
22317SOL    HW170482   5.358  10.607   7.899 -0.1280 -0.2244 -0.5896
22317SOL    HW270483   5.396  10.667   7.765  1.2453 -0.8995 -0.5179
22318SOL     OW70484   5.179   8.673  10.099 -0.1836 -0.0771 -0.3574
22318SOL    HW170485   5.141   8.742  10.153 -0.1375 -0.9887  0.8951
22318SOL    HW270486   5.177   8.595  10.155  2.0023 -0.5520 -0.8311
22319SOL     OW70487   7.128   0.092   0.935  0.2041 -0.8250 -0.1439
22319SOL    HW170488   7.103  -0.001   0.933  0.4645 -0.9822  2.0053
22319SOL    HW270489   7.047   0.139   0.952  0.1658 -0.6829 -0.6872
22320SOL     OW70490   3.127   5.774   3.930  0.4419 -0.4727  0.3003
22320SOL    HW170491   3.066   5.844   3.907  0.2425 -1.1116 -1.2524
22320SOL    HW270492   3.073   5.706   3.970  0.3283 -0.5125  0.0822
22321SOL     OW70493   7.961   2.685   0.118 -0.8780  0.1515 -0.6874
22321SOL    HW170494   7.909   2.611   0.149 -0.7040  0.3459  0.1129
22321SOL    HW270495   8.013   2.710   0.194  0.7813 -0.3680 -1.6147
22322SOL     OW70496   4.462   0.034   1.490 -0.1237  0.1642  0.1937
22322SOL    HW170497   4.385   0.015   1.545 -1.5461 -0.6296 -1.9691
22322SOL    HW270498   4.480   0.127   1.507  0.7062 -0.4389  3.3643
22323SOL     OW70499   4.132  11.116   6.494  0.5857 -0.6380  0.7754
22323SOL    HW170500   4.101  11.201   6.463  0.1215 -1.2005 -0.3634
22323SOL    HW270501   4.227  11.125   6.498  0.4818  0.1791  1.4303
22324SOL     OW70502   2.770   7.145   2.684 -0.1997 -0.1539  0.2292
22324SOL    HW170503   2.677   7.159   2.664  0.1468  2.8850  0.1855
22324SOL    HW270504   2.772   7.133   2.779 -0.6454 -0.0162  0.2609
22325SOL     OW70505   4.825   9.181  10.502  0.2072  0.2849  0.4612
22325SOL    HW170506   4.795   9.103  10.454  1.4711  0.0339  0.0612
22325SOL    HW270507   4.752   9.242  10.494 -1.1096 -1.0934  1.3820
22326SOL     OW70508   8.068   3.040   7.014 -0.0132  0.5250  0.2452
22326SOL    HW170509   8.056   2.967   6.954  2.0736  0.1767  0.1931
22326SOL    HW270510   7.979   3.068   7.035 -0.8425 -1.2770 -0.6316
22327SOL     OW70511   2.685  10.891   0.842  0.2048  0.2773 -0.0244
22327SOL    HW170512   2.620  10.953   0.875 -0.3184 -0.2387 -0.0659
22327SOL    HW270513   2.756  10.894   0.905 -0.9369 -0.9698  1.3908
22328SOL     OW70514   1.210   8.375   4.575 -0.1889  0.4176  0.0672
22328SOL    HW170515   1.196   8.286   4.541  1.1488  1.3046 -3.0743
22328SOL    HW270516   1.298   8.372   4.613 -0.7497  0.0649  1.4181
22329SOL     OW70517   6.142   3.924   4.580 -0.6713 -0.4793 -0.6375
22329SOL    HW170518   6.200   3.941   4.654 -1.1166  2.0705 -0.8005
22329SOL    HW270519   6.056   3.953   4.610 -1.3407 -1.5896 -1.3876
22330SOL     OW70520  11.102   0.586   7.764  0.8453 -0.6824  0.6254
22330SOL    HW170521  11.037   0.530   7.722  1.0712 -1.9218  1.8708
22330SOL    HW270522  11.185   0.559   7.725  0.7419  0.3367 -0.3659
22331SOL     OW70523   0.442   7.885   8.562  0.1968 -0.1179 -0.2829
22331SOL    HW170524   0.481   7.831   8.631  0.6693 -0.6362 -0.9464
22331SOL    HW270525   0.450   7.974   8.595  1.6368 -0.2336 -0.2298
22332SOL     OW70526   2.735  10.705  10.743  0.4873  0.2857 -0.0646
22332SOL    HW170527   2.670  10.695  10.674 -0.7829 -1.0644  1.2504
22332SOL    HW270528   2.784  10.623  10.742  1.2864  0.7522 -0.1463
22333SOL     OW70529   1.817   2.614   0.040 -0.3901 -0.1970  0.1342
22333SOL    HW170530   1.728   2.601   0.006 -1.3708  0.6643  2.1949
22333SOL    HW270531   1.804   2.644   0.130  2.0390 -1.8082  1.1215
22334SOL     OW70532   3.776   2.729   9.100  0.3879  0.4472 -0.0000
22334SOL    HW170533   3.832   2.706   9.026  1.7788  2.2431  0.4284
22334SOL    HW270534   3.836   2.761   9.168 -0.9864  0.4574  1.2696
22335SOL     OW70535   6.585   8.647   3.766  0.7895  0.0796  0.0281
22335SOL    HW170536   6.543   8.580   3.711  0.1628  0.7405 -0.3304
22335SOL    HW270537   6.544   8.637   3.852 -0.6296  1.1412 -0.4862
22336SOL     OW70538   9.273   8.595   1.841  0.0518  0.0002 -0.0796
22336SOL    HW170539   9.305   8.524   1.896 -0.5129  0.2315  0.5618
22336SOL    HW270540   9.229   8.655   1.902  0.8652  1.1035 -0.5505
22337SOL     OW70541   0.457   0.478   9.304  0.4081 -0.0170 -0.2066
22337SOL    HW170542   0.461   0.404   9.364 -1.6938  0.8855  1.1339
22337SOL    HW270543   0.412   0.444   9.227 -0.5320 -0.1714  0.3943
22338SOL     OW70544   1.766   6.366   5.987  0.4501 -0.1263  0.6347
22338SOL    HW170545   1.819   6.443   5.963  1.0235 -0.7577 -0.1692
22338SOL    HW270546   1.709   6.398   6.057  0.4179  1.1363  0.0688
22339SOL     OW70547   3.465  10.092   6.028  0.0813  0.1568 -0.1867
22339SOL    HW170548   3.446  10.185   6.014  0.3141  0.3813  0.8768
22339SOL    HW270549   3.402  10.065   6.096  0.6197 -0.2169  0.1716
22340SOL     OW70550   1.314   0.960   9.148  0.1612 -0.9659  0.2183
22340SOL    HW170551   1.308   0.872   9.111  1.4934 -1.0082  0.0522
22340SOL    HW270552   1.387   1.001   9.102 -0.3410  0.1920  0.3960
22341SOL     OW70553   4.477   4.668   1.723 -0.3194 -0.1733  0.6468
22341SOL    HW170554   4.556   4.692   1.772  0.5027 -0.5153 -0.4741
22341SOL    HW270555   4.510   4.629   1.642 -1.6508  0.3608 -0.1777
22342SOL     OW70556   1.420   7.956   1.599  0.2844  0.3031 -0.1802
22342SOL    HW170557   1.384   7.898   1.667  0.0743  0.7937  0.1346
22342SOL    HW270558   1.389   8.043   1.624  1.7936  0.7612  0.1694
22343SOL     OW70559   1.666   6.056   4.771 -0.2881  0.2250  0.1445
22343SOL    HW170560   1.624   5.979   4.811  0.4581 -1.1156 -1.5438
22343SOL    HW270561   1.726   6.020   4.706 -0.3285  2.2644 -1.1136
22344SOL     OW70562   4.766   1.090   1.092 -0.8141 -0.2219 -0.6048
22344SOL    HW170563   4.772   1.132   1.178  1.1599 -1.2827 -0.1643
22344SOL    HW270564   4.678   1.052   1.091 -0.8451 -0.2869  1.0087
22345SOL     OW70565   3.291   3.092   6.525  0.1344 -0.0057  0.1269
22345SOL    HW170566   3.284   3.156   6.596  0.7312 -0.2470  0.4126
22345SOL    HW270567   3.266   3.009   6.565  1.1427 -0.2642  0.2489
22346SOL     OW70568   6.387   6.707   8.260 -0.5741 -0.3615  0.2027
22346SOL    HW170569   6.327   6.773   8.294 -0.7309 -0.8232  0.8469
22346SOL    HW270570   6.362   6.696   8.168 -0.8764  0.1116  0.2276
22347SOL     OW70571   2.922   0.785   1.785 -0.2814  0.0761 -0.3395
22347SOL    HW170572   2.887   0.697   1.773  0.8549 -0.1986 -1.8189
22347SOL    HW270573   2.899   0.832   1.705 -1.6414  1.4437  0.7639
22348SOL     OW70574   3.212   5.001  11.044 -0.7197  0.6269 -0.5800
22348SOL    HW170575   3.276   4.937  11.076 -2.5745 -1.0821 -0.0199
22348SOL    HW270576   3.243   5.025  10.957  0.8326  0.1048 -0.2012
22349SOL     OW70577   2.772   4.355   4.868  0.3157  0.1997  0.0916
22349SOL    HW170578   2.715   4.287   4.833 -1.4664  0.8066  1.6407
22349SOL    HW270579   2.775   4.338   4.962  0.4407  1.7826  0.3999
22350SOL     OW70580   7.395   9.623   7.910 -0.1430  0.0938  0.3431
22350SOL    HW170581   7.379   9.533   7.881 -1.0014  0.9128 -1.9106
22350SOL    HW270582   7.490   9.629   7.919 -0.0620 -0.9732  0.3662
22351SOL     OW70583   0.183   5.581   7.526  0.0877  0.4650 -0.3725
22351SOL    HW170584   0.261   5.624   7.561  1.2634 -0.2207 -2.0230
22351SOL    HW270585   0.114   5.647   7.532  0.3087  0.5736  2.6320
22352SOL     OW70586   6.404   7.069  10.697  0.0718  0.5050  0.0095
22352SOL    HW170587   6.379   6.992  10.646  0.1481 -0.6027  1.5696
22352SOL    HW270588   6.493   7.090  10.668  0.5663 -0.8318  0.4903
22353SOL     OW70589   5.789   4.873   1.197 -0.2660  0.3081 -0.0032
22353SOL    HW170590   5.867   4.925   1.216 -1.0929  2.0409 -1.0525
22353SOL    HW270591   5.733   4.887   1.274 -1.0978  2.3149 -0.8823
22354SOL     OW70592   9.904   2.573   8.421  0.1000 -0.4011  0.7688
22354SOL    HW170593   9.970   2.511   8.450  1.0385  0.3653  0.3503
22354SOL    HW270594   9.838   2.519   8.377  2.1020 -0.9540 -1.8266
22355SOL     OW70595   0.978   1.135  10.182  0.1990 -0.0732  0.0318
22355SOL    HW170596   0.951   1.114  10.092 -0.4446  1.5952 -0.1988
22355SOL    HW270597   0.914   1.091  10.237 -1.0587  1.1111 -0.4269
22356SOL     OW70598   2.874   9.995   4.949  0.1979 -0.2905  0.6021
22356SOL    HW170599   2.812   9.968   5.017 -0.2163  2.8318  1.6034
22356SOL    HW270600   2.936   9.922   4.943 -2.1769 -2.5086  1.2214
22357SOL     OW70601   4.424   5.237   8.208 -0.4828  0.2461  0.4883
22357SOL    HW170602   4.487   5.214   8.140 -0.6494 -1.6799  0.9385
22357SOL    HW270603   4.458   5.196   8.287 -0.9453  1.4117  1.3281
22358SOL     OW70604   9.746   1.793   2.050  0.3256 -0.8281 -0.4345
22358SOL    HW170605   9.691   1.859   2.009 -0.7233 -0.1115  1.9556
22358SOL    HW270606   9.699   1.711   2.038 -0.2685 -0.5313 -0.1961
22359SOL     OW70607   8.538   3.970   9.418  0.2502  0.0955  0.1802
22359SOL    HW170608   8.546   3.875   9.404  0.6048  0.2008 -0.3610
22359SOL    HW270609   8.445   3.988   9.404  0.2573 -0.1085 -0.1426
22360SOL     OW70610   1.188   3.100   2.091  0.2289 -0.3335  0.3342
22360SOL    HW170611   1.273   3.114   2.049 -0.3904  2.6187 -0.1854
22360SOL    HW270612   1.126   3.093   2.019 -0.2696  0.0301  0.7220
22361SOL     OW70613   1.376   6.927   7.246  0.2044 -0.3759 -0.3121
22361SOL    HW170614   1.459   6.893   7.213  0.4510  1.0132 -1.1807
22361SOL    HW270615   1.352   6.867   7.317  1.4809 -1.3231 -0.6543
22362SOL     OW70616   8.142   7.180   8.063 -0.1589 -0.2995  0.2328
22362SOL    HW170617   8.051   7.153   8.065  0.1566 -1.3442  1.8383
22362SOL    HW270618   8.177   7.140   7.983 -1.0533  0.0101 -0.3290
22363SOL     OW70619   6.530   4.224   0.412  0.7863  0.3990  0.2534
22363SOL    HW170620   6.513   4.273   0.332 -0.0184  1.3284  0.9634
22363SOL    HW270621   6.460   4.160   0.418  1.8951 -0.9806 -0.7276
22364SOL     OW70622   8.521   3.192   1.493 -0.5031 -0.3085 -0.5302
22364SOL    HW170623   8.519   3.098   1.508 -1.3210 -0.2139 -0.0104
22364SOL    HW270624   8.462   3.206   1.418  0.1167 -0.2770 -1.0201
22365SOL     OW70625   4.083  10.124  10.461  0.2142  0.0795 -0.1325
22365SOL    HW170626   4.156  10.153  10.515 -0.7265  2.4530 -0.0176
22365SOL    HW270627   4.124  10.090  10.381  1.4861 -0.6931  0.8123
22366SOL     OW70628   0.176   2.507  10.274 -0.1368 -0.2737  0.1252
22366SOL    HW170629   0.230   2.453  10.331 -0.8627 -1.7814 -0.5727
22366SOL    HW270630   0.143   2.577  10.331 -0.3664 -1.3977  1.4064
22367SOL     OW70631   5.172   1.663   4.915  0.1343  0.8484  1.0174
22367SOL    HW170632   5.238   1.608   4.872  0.7371  1.5256  1.0693
22367SOL    HW270633   5.222   1.721   4.972 -0.3869  2.1667  0.1945
22368SOL     OW70634   6.955   7.330   5.717 -0.1623  0.0181  0.6906
22368SOL    HW170635   6.992   7.244   5.699 -1.4389 -0.4667  0.2913
22368SOL    HW270636   6.957   7.376   5.634  0.1201  0.2201  0.8077
22369SOL     OW70637   4.085  11.067   2.906 -0.1495  0.0333  0.3194
22369SOL    HW170638   4.072  11.053   2.813  1.7897 -1.9095  0.2896
22369SOL    HW270639   4.010  11.121   2.932 -0.7375  0.6325 -2.3207
22370SOL     OW70640   6.536   5.460   6.271  0.6109  0.4956 -0.3366
22370SOL    HW170641   6.562   5.460   6.178 -0.2538  3.7033 -0.6932
22370SOL    HW270642   6.619   5.465   6.318  1.0049  0.3155 -0.9887
22371SOL     OW70643   5.949   6.882   9.012 -0.3505  0.3973 -0.3317
22371SOL    HW170644   5.972   6.807   8.956 -1.5028  1.0057 -1.7138
22371SOL    HW270645   6.018   6.886   9.077 -0.6299 -2.3172  0.2444
22372SOL     OW70646   1.371   5.185   1.059 -0.6852 -0.0800  0.2621
22372SOL    HW170647   1.401   5.247   0.992  1.4396 -2.0203 -0.7452
22372SOL    HW270648   1.312   5.126   1.013 -4.2390  2.1185  1.6444
22373SOL     OW70649   1.526   4.779   4.933 -0.4276 -0.4689  0.7485
22373SOL    HW170650   1.475   4.826   4.867 -0.3775  0.8204  1.5777
22373SOL    HW270651   1.493   4.689   4.930 -0.7250 -0.3270 -0.7086
22374SOL     OW70652   6.216   2.452   0.960 -0.1098 -0.1355  0.3164
22374SOL    HW170653   6.153   2.523   0.967  0.0989  0.1845 -0.8386
22374SOL    HW270654   6.208   2.421   0.869  2.7534  1.2456 -0.5323
22375SOL     OW70655   7.258  10.847   5.068  0.0007  0.4123 -0.2473
22375SOL    HW170656   7.275  10.756   5.044 -2.0400  0.2108 -1.1179
22375SOL    HW270657   7.323  10.867   5.136 -0.3907 -2.1248  0.9655
22376SOL     OW70658   3.621   1.268   4.739  0.1567  0.0176 -0.4115
22376SOL    HW170659   3.662   1.349   4.769  0.0845  0.2379 -0.9135
22376SOL    HW270660   3.532   1.271   4.773 -0.5677  1.2015 -2.2893
22377SOL     OW70661   4.562  10.060   5.658 -0.0396 -0.0517 -0.2473
22377SOL    HW170662   4.476  10.040   5.623 -0.5041 -0.4353  1.0516
22377SOL    HW270663   4.556  10.151   5.687 -0.8172 -0.7249  1.9712
22378SOL     OW70664   8.310   2.739   6.138 -0.5060 -0.3434 -0.0746
22378SOL    HW170665   8.402   2.716   6.152 -0.7965 -1.5294 -0.0572
22378SOL    HW270666   8.314   2.820   6.087  0.5461  0.2916  0.9462
22379SOL     OW70667   1.755   0.566   2.576  1.5312 -0.1534  0.2770
22379SOL    HW170668   1.693   0.496   2.599 -0.5407  0.8921 -1.7138
22379SOL    HW270669   1.782   0.602   2.660 -0.1667 -1.0143  1.2510
22380SOL     OW70670   5.300   9.459   1.522  0.1368 -0.1111  0.2760
22380SOL    HW170671   5.393   9.480   1.513  0.0336  1.0518  1.6269
22380SOL    HW270672   5.292   9.421   1.610 -0.6193 -0.5607  0.0255
22381SOL     OW70673   1.108   3.939   8.468 -0.4587 -0.0440  0.0185
22381SOL    HW170674   1.016   3.915   8.457 -0.8532  0.0506  2.5350
22381SOL    HW270675   1.155   3.885   8.404 -2.2013 -0.2547 -1.1582
22382SOL     OW70676   7.110   8.545  10.437  0.2455  0.4278  0.0935
22382SOL    HW170677   7.170   8.604  10.484  1.8132 -0.9300 -0.1034
22382SOL    HW270678   7.134   8.458  10.467 -0.3433 -0.2957 -1.4424
22383SOL     OW70679   6.498   3.064   4.943 -0.0131 -0.0120 -0.5811
22383SOL    HW170680   6.570   3.076   4.882  0.0956  0.1856 -0.4158
22383SOL    HW270681   6.419   3.083   4.892  0.1660  1.8674 -0.2502
22384SOL     OW70682   0.983   2.607  10.344  0.1837 -0.1816 -0.1206
22384SOL    HW170683   0.961   2.651  10.262 -1.2646 -0.1163  0.2728
22384SOL    HW270684   0.956   2.669  10.412  1.9447  0.0372  0.4419
22385SOL     OW70685   6.505   3.931   8.035 -0.1755  0.4924  0.0392
22385SOL    HW170686   6.567   3.863   8.062  0.5315  0.2485 -2.0465
22385SOL    HW270687   6.512   3.998   8.103  1.0076 -0.3754  0.8027
22386SOL     OW70688   2.985   4.318   7.818 -0.0209 -0.0189 -0.2298
22386SOL    HW170689   3.046   4.246   7.802  1.6003  0.9836  1.1091
22386SOL    HW270690   3.039   4.388   7.853 -1.7983  1.3214 -0.0147
22387SOL     OW70691   6.101   5.008   8.727  0.0950 -0.4329  0.0504
22387SOL    HW170692   6.013   5.043   8.716 -0.2568 -0.6284  1.9093
22387SOL    HW270693   6.159   5.081   8.706 -0.3684 -0.8019 -3.0584
22388SOL     OW70694   5.126   8.027   4.502  0.2865 -0.0875 -0.4174
22388SOL    HW170695   5.043   7.981   4.515 -0.0481  0.4409 -0.6346
22388SOL    HW270696   5.192   7.970   4.541 -0.1737 -0.5439 -0.3016
22389SOL     OW70697   2.119   7.928   0.137 -0.0322 -0.2665  0.7165
22389SOL    HW170698   2.173   7.937   0.059  0.5183  1.4051  1.2293
22389SOL    HW270699   2.038   7.975   0.116  0.5145  1.0677  1.4533
22390SOL     OW70700   7.306   8.311   7.750  0.0009 -0.3326 -0.5283
22390SOL    HW170701   7.393   8.341   7.723 -0.5311  0.4923 -1.3950
22390SOL    HW270702   7.265   8.281   7.669 -1.3769  1.5311 -0.6112
22391SOL     OW70703   6.266   1.975   2.380 -0.1137  0.0782  0.1259
22391SOL    HW170704   6.284   1.883   2.399  0.0176 -0.3785 -1.9573
22391SOL    HW270705   6.172   1.985   2.396 -0.3429 -0.7144 -0.6364
22392SOL     OW70706   9.714   5.033   3.092  0.5145 -0.3457 -0.1479
22392SOL    HW170707   9.766   5.113   3.097  1.5828 -1.0464  0.0951
22392SOL    HW270708   9.743   4.991   3.012 -0.7307 -0.0538 -0.7916
22393SOL     OW70709   6.462   9.388   4.175 -0.2952 -0.3575  0.5843
22393SOL    HW170710   6.423   9.473   4.195 -1.2085 -0.3563 -1.0262
22393SOL    HW270711   6.556   9.406   4.170 -0.6252  2.0091 -5.1582
22394SOL     OW70712   8.542   9.955   7.880 -0.0671  0.1048  0.4829
22394SOL    HW170713   8.631   9.981   7.905  0.5077 -0.3707 -0.9218
22394SOL    HW270714   8.555   9.892   7.809 -1.5259  1.1479 -0.8012
22395SOL     OW70715   3.831   2.771   0.152 -0.4695  0.5615 -0.3972
22395SOL    HW170716   3.873   2.828   0.217  0.9022 -0.0013 -0.7560
22395SOL    HW270717   3.878   2.688   0.159 -1.7500 -0.2117 -0.6146
22396SOL     OW70718   4.384   0.760  10.940 -0.9238 -0.7431  0.7712
22396SOL    HW170719   4.308   0.702  10.943 -0.3838 -1.4133  1.8286
22396SOL    HW270720   4.429   0.736  10.859 -1.2211 -1.1257  0.7179
22397SOL     OW70721  10.697   1.860   8.864  0.3267 -0.2110  0.8045
22397SOL    HW170722  10.776   1.805   8.855  0.4356  0.2235 -1.3614
22397SOL    HW270723  10.681   1.894   8.776 -0.1220  2.7384  1.9092
22398SOL     OW70724   0.070   1.118   3.924  0.4426 -0.2782  0.3894
22398SOL    HW170725   0.073   1.125   4.020 -1.0091 -0.7600  0.5043
22398SOL    HW270726   0.119   1.039   3.904  0.6010 -0.2732  0.7626
22399SOL     OW70727   3.539   8.346   1.301 -0.2436 -0.1538 -0.6281
22399SOL    HW170728   3.607   8.332   1.366 -0.1373  1.6428 -0.2816
22399SOL    HW270729   3.458   8.316   1.342  0.3112 -2.6111 -1.1644
22400SOL     OW70730   4.818   8.109   4.816  0.4057  0.5976  0.3830
22400SOL    HW170731   4.906   8.072   4.830 -0.0982 -0.2657  1.3984
22400SOL    HW270732   4.819   8.138   4.725  1.3755 -0.4546  0.0269
22401SOL     OW70733   0.900   2.511   1.720  0.7075  0.2539 -0.2708
22401SOL    HW170734   0.906   2.472   1.633  0.3559 -2.2195  0.7570
22401SOL    HW270735   0.892   2.605   1.703  0.8361 -0.1358 -2.8845
22402SOL     OW70736   9.942   9.035   2.750  0.1171 -0.0921  0.6144
22402SOL    HW170737   9.908   9.111   2.797 -1.3721 -0.0790 -0.4250
22402SOL    HW270738   9.864   8.986   2.723  0.9338 -0.3982 -1.3107
22403SOL     OW70739   1.952   3.606   1.806  0.6085  0.1797  0.1830
22403SOL    HW170740   2.032   3.655   1.826  0.2783  0.7836  0.0205
22403SOL    HW270741   1.890   3.672   1.777  0.0106 -0.2759  0.4121
22404SOL     OW70742  11.047   7.091  10.537  0.8242  0.6008 -0.1544
22404SOL    HW170743  11.021   7.126  10.452  0.7457  0.8048 -0.0473
22404SOL    HW270744  11.131   7.132  10.556 -0.3889  2.6763  1.1000
22405SOL     OW70745   0.337   4.265   9.492 -0.2087  0.2446  0.9885
22405SOL    HW170746   0.275   4.299   9.557 -0.6171  0.0726  0.6872
22405SOL    HW270747   0.283   4.220   9.428  0.1693  0.6367  0.3830
22406SOL     OW70748   1.344   1.515   3.979  0.0087  0.2861 -0.2133
22406SOL    HW170749   1.275   1.575   4.008  0.0023  0.1702  0.0177
22406SOL    HW270750   1.424   1.551   4.017  0.1146  0.5521 -0.6755
22407SOL     OW70751   8.837   0.053   8.390 -0.1838 -0.0780 -0.2301
22407SOL    HW170752   8.888  -0.021   8.422 -0.7296 -0.8260 -1.0521
22407SOL    HW270753   8.826   0.037   8.297 -0.1261  1.1581 -0.4764
22408SOL     OW70754   4.895  10.267   4.729 -0.2332 -0.3253  0.2217
22408SOL    HW170755   4.967  10.209   4.755 -1.5236 -1.7996  0.6332
22408SOL    HW270756   4.939  10.340   4.685  1.5512 -0.9011  0.9180
22409SOL     OW70757   9.118   6.078   6.939 -0.1289  0.5161  0.0282
22409SOL    HW170758   9.181   6.072   7.010  0.1060 -3.4346 -0.3055
22409SOL    HW270759   9.167   6.053   6.861 -0.5761  3.9686 -1.5704
22410SOL     OW70760   4.735   0.326   6.977 -0.5107  0.1554 -0.7339
22410SOL    HW170761   4.642   0.343   6.987 -0.6916 -0.7718 -0.7722
22410SOL    HW270762   4.742   0.230   6.973  0.6251  0.0934  1.2798
22411SOL     OW70763   6.415   6.228   7.706  0.5799  0.3053 -0.3342
22411SOL    HW170764   6.460   6.286   7.645  0.7949  0.2262 -0.2533
22411SOL    HW270765   6.395   6.283   7.782 -0.7960  0.7232 -0.9708
22412SOL     OW70766   6.558   4.690   0.396 -0.1766 -0.3283 -0.0976
22412SOL    HW170767   6.607   4.764   0.432 -0.9850  0.1729  0.0185
22412SOL    HW270768   6.560   4.624   0.466  0.4955 -0.3891 -0.1764
22413SOL     OW70769   4.075   9.321   3.108 -1.3602 -0.1302  0.1043
22413SOL    HW170770   4.098   9.405   3.070 -4.3871  0.7392 -0.0983
22413SOL    HW270771   4.093   9.330   3.201 -1.4974  0.7009  0.0588
22414SOL     OW70772   2.967   4.284   4.663 -0.0669  0.3084 -0.5017
22414SOL    HW170773   3.047   4.277   4.715 -0.3224  0.2971 -0.1116
22414SOL    HW270774   2.900   4.311   4.725 -0.7335 -1.3009 -0.4851
22415SOL     OW70775   0.772   0.860   5.743 -0.5287 -0.3502 -0.2777
22415SOL    HW170776   0.835   0.801   5.702  0.7736  1.3916 -0.9161
22415SOL    HW270777   0.785   0.849   5.837 -0.4008 -1.1580 -0.3872
22416SOL     OW70778   9.957   8.323   2.151  0.3122 -0.1935 -0.5969
22416SOL    HW170779   9.960   8.293   2.242  1.5902 -0.8504 -0.8410
22416SOL    HW270780   9.891   8.393   2.152  1.6293  1.1608  1.2654
22417SOL     OW70781   8.856   8.750   6.127 -0.1352  0.3326  0.3065
22417SOL    HW170782   8.860   8.779   6.036  1.1756 -2.3590 -0.6243
22417SOL    HW270783   8.806   8.818   6.172  0.4025  2.4911 -2.0985
22418SOL     OW70784   9.710   4.661   2.302  0.8392  0.6336  0.0931
22418SOL    HW170785   9.771   4.730   2.274  0.3984  1.4250  1.0046
22418SOL    HW270786   9.703   4.672   2.397 -1.2296  1.0155 -0.0506
22419SOL     OW70787   7.371   6.959   1.550 -0.3832  0.4453 -0.6809
22419SOL    HW170788   7.371   7.002   1.465  0.4636  0.3866 -0.7165
22419SOL    HW270789   7.375   6.865   1.529 -2.7785  0.2637 -0.6210
22420SOL     OW70790   2.833   8.588   3.770 -0.5320 -0.5024  0.3597
22420SOL    HW170791   2.780   8.586   3.691  1.2387  0.4607 -0.9154
22420SOL    HW270792   2.845   8.681   3.790  2.0199 -0.5782 -0.4145
22421SOL     OW70793   6.713   3.687   6.291 -0.0106 -0.2682 -0.1923
22421SOL    HW170794   6.753   3.659   6.208 -1.6853 -0.1789 -1.0831
22421SOL    HW270795   6.621   3.663   6.281 -0.3429  0.2436  1.4492
22422SOL     OW70796   9.433   5.172  11.006 -0.1228  0.2770 -0.3193
22422SOL    HW170797   9.474   5.232  11.068 -0.4963  1.3167 -1.0509
22422SOL    HW270798   9.353   5.218  10.978 -0.4388 -0.5819 -0.8590
22423SOL     OW70799  10.975   4.905   1.133 -0.3287 -0.4451  0.2327
22423SOL    HW170800  10.891   4.877   1.170 -0.6140 -0.0067 -0.0793
22423SOL    HW270801  10.952   4.973   1.070  0.1115 -1.4224 -1.0376
22424SOL     OW70802   6.087   5.307   6.563  0.3855 -0.1125 -0.4838
22424SOL    HW170803   6.049   5.390   6.535 -1.8184 -1.2510 -1.0130
22424SOL    HW270804   6.182   5.323   6.562  0.0338  2.3477 -0.6373
22425SOL     OW70805   7.875   3.816   2.090 -0.0289 -0.1137 -0.2289
22425SOL    HW170806   7.817   3.888   2.065 -0.6700 -0.7155 -0.5142
22425SOL    HW270807   7.959   3.838   2.049 -0.0566  0.7481  0.1590
22426SOL     OW70808   9.584   8.206   3.694  0.1368 -0.2231  0.6245
22426SOL    HW170809   9.535   8.151   3.755 -0.9253  1.4605  1.3721
22426SOL    HW270810   9.528   8.211   3.616  1.3262 -2.0744 -0.4165
22427SOL     OW70811   1.633   4.672   1.465 -0.1777 -0.1197 -0.6917
22427SOL    HW170812   1.728   4.663   1.476 -0.5743 -1.2901  3.4590
22427SOL    HW270813   1.599   4.584   1.477 -1.9095  0.7271  1.2646
22428SOL     OW70814   6.215   4.795   3.130 -0.3579 -0.3202 -0.2759
22428SOL    HW170815   6.272   4.854   3.178 -0.7202 -0.5864  0.4911
22428SOL    HW270816   6.188   4.845   3.053 -0.5057  0.4442  0.2649
22429SOL     OW70817   6.296   4.500   6.086  0.3363 -0.0231 -0.3134
22429SOL    HW170818   6.250   4.581   6.065  0.1507  0.1025  0.5397
22429SOL    HW270819   6.379   4.528   6.123 -1.0723 -0.0418  3.2945
22430SOL     OW70820   9.467   7.778   5.062 -0.3980 -0.2569  0.1629
22430SOL    HW170821   9.490   7.731   5.142  0.1009 -1.2349 -0.5240
22430SOL    HW270822   9.413   7.716   5.013 -2.0092  0.8945  0.3966
22431SOL     OW70823   1.185   1.745  10.492 -0.2195  0.2201  0.3673
22431SOL    HW170824   1.097   1.772  10.516  0.0628 -0.1146  1.8382
22431SOL    HW270825   1.172   1.660  10.448 -0.5149 -0.6475  2.0683
22432SOL     OW70826   9.549   3.174   3.994 -0.0245 -0.1792 -0.5687
22432SOL    HW170827   9.553   3.155   4.088 -3.0768  1.8592  0.1346
22432SOL    HW270828   9.633   3.144   3.959  1.7426  0.1174  3.0226
22433SOL     OW70829   5.452   4.989   9.197  0.1486  0.1535  0.6682
22433SOL    HW170830   5.479   5.076   9.168  0.4187  0.0160  0.5032
22433SOL    HW270831   5.367   4.976   9.155  0.0930  0.3502  0.7183
22434SOL     OW70832   7.215   0.289   3.804 -0.2272  0.0326  0.1445
22434SOL    HW170833   7.261   0.226   3.859  0.8911  0.1217 -0.6558
22434SOL    HW270834   7.129   0.249   3.788 -0.1340 -0.5217  0.9766
22435SOL     OW70835   1.501   8.773   4.690  0.4375 -0.5066  0.2862
22435SOL    HW170836   1.495   8.696   4.634 -0.3268 -0.2384 -0.0216
22435SOL    HW270837   1.477   8.742   4.777 -0.4350 -0.5207  0.0562
22436SOL     OW70838   5.206  10.057   8.491 -0.4554  0.2774  0.2394
22436SOL    HW170839   5.185  10.070   8.399  0.3336  1.1937  0.1627
22436SOL    HW270840   5.300  10.074   8.497 -0.2723 -0.8734  1.0308
22437SOL     OW70841   5.320  10.992  10.861 -0.5670  0.0726 -0.2157
22437SOL    HW170842   5.276  10.946  10.790  0.3458 -0.2556 -0.5891
22437SOL    HW270843   5.259  11.061  10.888 -1.4193 -0.5727 -0.4965
22438SOL     OW70844   4.732   7.709   0.829 -0.0324  0.1425 -0.4344
22438SOL    HW170845   4.808   7.704   0.886  0.2483 -0.3795 -0.8428
22438SOL    HW270846   4.658   7.687   0.885  0.0830  0.8859  0.0214
22439SOL     OW70847   2.657   7.630   1.042 -0.0546 -0.1550 -0.2394
22439SOL    HW170848   2.651   7.615   1.136 -0.2496  1.7589  0.0840
22439SOL    HW270849   2.583   7.686   1.021 -0.9945 -1.8607 -1.8660
22440SOL     OW70850   0.886   7.553   0.535  0.4086 -0.4422 -0.7312
22440SOL    HW170851   0.898   7.572   0.442  0.4357  0.2034 -0.5956
22440SOL    HW270852   0.794   7.574   0.552  0.6993  0.5514 -0.3489
22441SOL     OW70853   1.125  11.100   2.853  0.3637 -0.4087  0.0971
22441SOL    HW170854   1.035  11.125   2.832  1.0511  1.1055 -1.3696
22441SOL    HW270855   1.157  11.057   2.773  1.6337  1.2600 -0.3519
22442SOL     OW70856   7.315   8.164   5.081  0.2962  0.0958 -0.2082
22442SOL    HW170857   7.292   8.130   5.168 -0.3052 -2.0097 -1.1167
22442SOL    HW270858   7.335   8.086   5.030 -0.8564  1.1400 -2.3920
22443SOL     OW70859   2.871   3.461   4.986 -0.0635  0.2391  0.2166
22443SOL    HW170860   2.844   3.495   4.901 -1.0825 -0.3634  0.2816
22443SOL    HW270861   2.798   3.407   5.015  1.4921 -2.1484  0.0368
22444SOL     OW70862   3.573   9.674   7.923  0.5058 -0.6633 -0.1996
22444SOL    HW170863   3.616   9.741   7.976 -0.3944  0.2595 -0.6212
22444SOL    HW270864   3.480   9.680   7.946  0.1251 -0.3953 -1.7013
22445SOL     OW70865   6.621   5.746   1.551 -0.1755  0.0464 -0.3885
22445SOL    HW170866   6.684   5.814   1.527 -1.4428  0.8492 -1.5948
22445SOL    HW270867   6.650   5.668   1.505  1.3224 -0.2794  1.0453
22446SOL     OW70868   7.750   8.280   2.998  0.9590 -0.5032 -0.1523
22446SOL    HW170869   7.761   8.305   2.906  1.9628 -0.9122 -0.1613
22446SOL    HW270870   7.724   8.361   3.041  0.0479 -0.3992 -0.8556
22447SOL     OW70871   6.916   7.701   2.533  0.1648  0.1399 -0.4584
22447SOL    HW170872   6.975   7.765   2.574  0.8044 -1.2101  0.8072
22447SOL    HW270873   6.844   7.754   2.499  1.4121  1.6980 -0.8290
22448SOL     OW70874   1.290   3.135   9.352  0.2573  0.0739 -0.3823
22448SOL    HW170875   1.242   3.166   9.429 -0.0755 -0.0316 -0.5496
22448SOL    HW270876   1.382   3.151   9.374  0.1332  0.5162 -0.1730
22449SOL     OW70877  10.876   5.799   6.583  0.4326 -0.3437 -0.5742
22449SOL    HW170878  10.840   5.812   6.671 -0.3361 -1.2908 -0.7373
22449SOL    HW270879  10.864   5.706   6.565  2.2982 -0.5409 -0.9603
22450SOL     OW70880   1.691   2.445   8.459 -0.0589 -0.3640 -0.3241
22450SOL    HW170881   1.649   2.480   8.380  2.5567 -0.4610 -1.8649
22450SOL    HW270882   1.706   2.522   8.514  0.7200  0.1499 -1.2378
22451SOL     OW70883   6.992   5.379   0.542  0.1912 -0.0743  0.1205
22451SOL    HW170884   7.005   5.439   0.615  1.0888 -0.5669  0.3796
22451SOL    HW270885   7.080   5.364   0.507  0.2447 -2.4041  1.0302
22452SOL     OW70886   9.519   4.557   5.748 -0.0698 -0.3558  0.1236
22452SOL    HW170887   9.505   4.605   5.829 -1.4543 -0.0652 -0.2618
22452SOL    HW270888   9.451   4.490   5.748 -2.0178  1.4462 -2.0971
22453SOL     OW70889   3.874   6.170   2.192 -0.1763  0.2198 -0.2445
22453SOL    HW170890   3.811   6.122   2.246 -0.6826  0.0324 -0.9863
22453SOL    HW270891   3.959   6.134   2.217 -0.4945 -0.5864 -0.3052
22454SOL     OW70892   4.521   9.079   5.138 -0.1484 -0.0390 -0.6908
22454SOL    HW170893   4.444   9.042   5.096  0.0310 -0.5359 -0.5811
22454SOL    HW270894   4.521   9.043   5.226  1.3318 -1.6983 -1.3188
22455SOL     OW70895  10.207   0.688   6.407 -0.1712  0.0613  0.0070
22455SOL    HW170896  10.204   0.703   6.501  1.8281 -1.0899  0.3031
22455SOL    HW270897  10.285   0.736   6.377  1.1583 -2.2636 -0.4643
22456SOL     OW70898   3.340   5.580   1.645  0.6813  0.2099  0.1566
22456SOL    HW170899   3.275   5.545   1.706  0.3617  2.1245  0.9698
22456SOL    HW270900   3.421   5.533   1.667  0.9037  1.6622  2.9909
22457SOL     OW70901   9.565   9.329   9.767  0.3569  0.2562 -0.1641
22457SOL    HW170902   9.525   9.339   9.681  0.0137 -0.2367 -0.0704
22457SOL    HW270903   9.648   9.376   9.761 -1.2360  3.4247  0.3684
22458SOL     OW70904   2.103   1.387   3.467  0.4059  0.3146 -0.0527
22458SOL    HW170905   2.128   1.394   3.559  4.1436  2.3852 -1.0404
22458SOL    HW270906   2.147   1.308   3.436  0.4595  0.4789 -0.3977
22459SOL     OW70907   0.581   3.581   8.708 -0.2174  0.2042  0.5063
22459SOL    HW170908   0.671   3.548   8.703 -0.4694 -0.4410  0.1097
22459SOL    HW270909   0.590   3.673   8.733  0.6424  0.6601 -1.3201
22460SOL     OW70910   8.403   8.420   8.505  0.7225  0.1119 -0.3565
22460SOL    HW170911   8.308   8.415   8.516  0.8463 -0.5269  0.5047
22460SOL    HW270912   8.432   8.481   8.574  0.8386  1.1137 -1.2638
22461SOL     OW70913   4.554   7.665   2.890  0.6862 -0.2503 -0.2694
22461SOL    HW170914   4.475   7.711   2.917  0.7288 -0.4304  0.1755
22461SOL    HW270915   4.569   7.693   2.800  0.6935  0.5713 -0.0192
22462SOL     OW70916   0.060   2.170   6.021  0.2755 -0.1511  0.3298
22462SOL    HW170917  -0.024   2.213   6.005  1.1544  1.6501  0.4088
22462SOL    HW270918   0.109   2.231   6.076  1.8619 -0.9208 -0.1649
22463SOL     OW70919   1.270   0.098   8.952  0.3322 -0.3622 -0.0463
22463SOL    HW170920   1.250   0.111   9.045  2.0513 -0.4870  0.3835
22463SOL    HW270921   1.189   0.064   8.914 -0.5267  0.0975  1.3162
22464SOL     OW70922   0.946  10.386   2.393  0.0046  0.7717 -0.0353
22464SOL    HW170923   0.950  10.445   2.469  0.2276  1.1161 -0.3128
22464SOL    HW270924   1.023  10.330   2.402  2.7550  3.7625 -2.3963
22465SOL     OW70925   1.513   7.708   6.657  0.0302  0.7264 -0.3443
22465SOL    HW170926   1.600   7.694   6.694 -0.6240 -0.1465  0.9748
22465SOL    HW270927   1.453   7.685   6.729 -1.2800  2.4343 -0.8310
22466SOL     OW70928   4.466   1.346  10.795  0.4768 -0.0490 -0.1219
22466SOL    HW170929   4.506   1.288  10.860 -0.5061 -0.3205  0.2478
22466SOL    HW270930   4.393   1.295  10.759  0.0267  0.7075 -0.2868
22467SOL     OW70931   4.149   7.056   2.794  0.3941  0.4067  0.1517
22467SOL    HW170932   4.229   7.074   2.841  0.3624 -0.0268  0.3810
22467SOL    HW270933   4.080   7.056   2.861  0.3541 -0.2479  0.1262
22468SOL     OW70934   0.836   1.927   5.227  0.3294  0.4499 -0.6298
22468SOL    HW170935   0.901   1.997   5.236  0.1439  0.8143 -1.9078
22468SOL    HW270936   0.817   1.924   5.133  0.6533 -1.6211 -0.6813
22469SOL     OW70937   7.847  10.304   7.676  0.4387  0.2858  0.2736
22469SOL    HW170938   7.867  10.260   7.759 -2.2897  0.8194  1.3125
22469SOL    HW270939   7.887  10.249   7.609  0.7467 -1.4420  1.8025
22470SOL     OW70940   0.144   4.340   8.229  0.2392  0.2817  0.0053
22470SOL    HW170941   0.211   4.401   8.198  1.0229 -0.2958  0.5284
22470SOL    HW270942   0.073   4.397   8.259 -1.0724  0.8936 -3.7293
22471SOL     OW70943  10.638   5.709   5.980 -0.2200  0.5138  0.3790
22471SOL    HW170944  10.600   5.654   6.049 -0.9920  1.1155  0.4522
22471SOL    HW270945  10.585   5.689   5.902 -0.7451  1.4151  0.4987
22472SOL     OW70946   2.346   4.938   6.783  0.5276  0.0040 -0.4275
22472SOL    HW170947   2.251   4.941   6.777  0.3459  0.7858  1.7346
22472SOL    HW270948   2.377   4.971   6.699 -1.0966 -0.5734 -1.2916
22473SOL     OW70949   1.098   6.269   7.608  0.1874  0.1298  0.1399
22473SOL    HW170950   1.135   6.181   7.604 -1.7101 -0.7468  0.6117
22473SOL    HW270951   1.068   6.286   7.519 -1.0692 -0.4938  0.4147
22474SOL     OW70952   7.206  10.904   5.578  0.5248  0.1437  0.1767
22474SOL    HW170953   7.217  10.996   5.557  1.4260 -0.0095 -0.0439
22474SOL    HW270954   7.293  10.873   5.601  0.1410 -0.5233  0.8023
22475SOL     OW70955   0.739   5.400   4.181 -0.6360 -0.4020 -0.1610
22475SOL    HW170956   0.811   5.353   4.140 -1.3761 -1.2682 -0.4992
22475SOL    HW270957   0.688   5.435   4.108 -0.1118  0.9282  0.0870
22476SOL     OW70958   9.365   7.088   6.355  0.1868  0.2087  0.3833
22476SOL    HW170959   9.355   7.180   6.378 -0.7197  0.5690 -1.2984
22476SOL    HW270960   9.396   7.089   6.264  2.5748 -1.1388  1.0977
22477SOL     OW70961   3.755   7.852  11.020 -0.1042 -0.1718 -0.7269
22477SOL    HW170962   3.730   7.768  11.058  1.5883 -0.0425  0.8279
22477SOL    HW270963   3.758   7.837  10.926 -2.5318 -1.0587 -0.7155
22478SOL     OW70964   8.981  10.197   5.623 -0.2472  0.0538  0.1663
22478SOL    HW170965   9.021  10.239   5.547 -1.4212 -0.8417 -0.9903
22478SOL    HW270966   8.947  10.270   5.676 -0.8219  0.6390 -0.9782
22479SOL     OW70967   4.679   4.644   1.292  0.2838  0.1537  0.1723
22479SOL    HW170968   4.716   4.719   1.245  1.5484 -0.0273  0.8432
22479SOL    HW270969   4.677   4.672   1.384 -0.0792 -0.3096  0.3080
22480SOL     OW70970   4.906   2.660   5.758 -0.7297  0.7479  0.1069
22480SOL    HW170971   4.882   2.592   5.694 -0.0448  0.7868 -0.1945
22480SOL    HW270972   4.825   2.676   5.806 -1.0774  0.2120 -0.2822
22481SOL     OW70973  10.152   6.108   0.738 -0.3376 -0.0531 -0.5202
22481SOL    HW170974  10.228   6.166   0.748 -0.5817  0.0288  1.0898
22481SOL    HW270975  10.118   6.096   0.827 -0.4447 -2.4860 -0.8095
22482SOL     OW70976   2.764  10.898   7.673  0.3716 -0.4930 -0.0881
22482SOL    HW170977   2.774  10.909   7.578  2.1010  0.1741  0.1236
22482SOL    HW270978   2.722  10.813   7.683  1.4277 -1.2192 -1.4218
22483SOL     OW70979   5.265   7.922  10.147 -0.4093  0.1740  0.6722
22483SOL    HW170980   5.280   7.983  10.074 -0.8071  0.3795  0.7593
22483SOL    HW270981   5.170   7.912  10.150 -0.3085 -1.1032  0.1294
22484SOL     OW70982   9.410   6.858   1.265 -0.5301 -0.4745 -0.2178
22484SOL    HW170983   9.421   6.946   1.303 -1.4108  0.4646 -1.9998
22484SOL    HW270984   9.476   6.805   1.309 -1.3354  0.5378  2.4659
22485SOL     OW70985   4.066   8.748  10.598  0.3259  0.7271  0.2504
22485SOL    HW170986   4.023   8.833  10.608 -2.6432 -0.7771  1.6174
22485SOL    HW270987   4.084   8.721  10.688 -0.9504 -1.0400  0.0225
22486SOL     OW70988   5.695   0.827   8.266 -0.4037 -0.1136 -0.3096
22486SOL    HW170989   5.641   0.785   8.332 -0.9043  0.7992 -0.1278
22486SOL    HW270990   5.654   0.804   8.183 -0.1063 -0.7863 -0.2733
22487SOL     OW70991   3.396   2.259   3.427 -0.3154 -0.1864 -0.5652
22487SOL    HW170992   3.401   2.178   3.377 -0.0472 -1.8064  1.8876
22487SOL    HW270993   3.481   2.264   3.472 -1.3532 -0.1208  1.5025
22488SOL     OW70994   6.597   0.888   7.943  0.3135  0.0103 -0.4006
22488SOL    HW170995   6.639   0.813   7.902  1.3997  0.7615 -0.7174
22488SOL    HW270996   6.668   0.932   7.990 -0.5011  0.2945  0.6043
22489SOL     OW70997   3.228   1.030   5.538  0.2350 -0.1719  0.2145
22489SOL    HW170998   3.140   1.028   5.575 -0.9124  1.3840 -2.1786
22489SOL    HW270999   3.219   0.988   5.452  2.3374 -1.8418  0.7164
22490SOL     OW71000   6.518   8.158   1.191  0.7360 -0.5358  0.0121
22490SOL    HW171001   6.527   8.251   1.211 -0.4496 -0.0146 -1.6577
22490SOL    HW271002   6.428   8.137   1.216  0.4584 -0.7915 -1.1549
22491SOL     OW71003   0.920   3.319  10.567 -0.4154 -0.4710 -0.2618
22491SOL    HW171004   0.936   3.330  10.473  0.4555 -0.9923 -0.1883
22491SOL    HW271005   0.983   3.252  10.594 -0.0960  0.2654  0.8616
22492SOL     OW71006   2.883   6.923   7.007 -0.1116  0.3785  0.3384
22492SOL    HW171007   2.835   6.921   6.924  0.4513  2.2126 -0.0772
22492SOL    HW271008   2.972   6.897   6.984 -0.4862 -1.4988  0.8388
22493SOL     OW71009   9.019   2.953   3.155  0.5954 -0.1150  0.2762
22493SOL    HW171010   9.037   3.039   3.116  0.2365 -0.3634 -0.4614
22493SOL    HW271011   9.105   2.917   3.175  0.7365  0.5561  0.9025
22494SOL     OW71012   3.200   2.925   5.904 -0.4563 -0.2570  0.3367
22494SOL    HW171013   3.117   2.938   5.859 -1.7430 -1.8451  2.1250
22494SOL    HW271014   3.195   2.981   5.982  0.8137  0.7554 -0.2567
22495SOL     OW71015   7.200   0.950   4.322  0.0528  0.1762 -0.3255
22495SOL    HW171016   7.220   0.879   4.383 -0.7231 -1.1048 -1.4792
22495SOL    HW271017   7.109   0.935   4.297 -0.0111  1.3690 -0.8775
22496SOL     OW71018   4.342   0.958   9.574 -0.4248  0.0138 -0.6890
22496SOL    HW171019   4.264   0.949   9.629  0.5256  0.1797  0.7570
22496SOL    HW271020   4.310   0.951   9.484 -2.0734 -0.0350 -0.1229
22497SOL     OW71021  10.521   1.920   3.072 -0.0765 -0.0138 -0.1003
22497SOL    HW171022  10.577   1.874   3.135  0.7507 -0.2755 -0.9966
22497SOL    HW271023  10.434   1.919   3.111  0.6574  1.0248  1.6926
22498SOL     OW71024   7.160   1.849   9.185  0.0897  0.6521  0.1390
22498SOL    HW171025   7.068   1.873   9.182 -0.2728 -0.7349 -0.7938
22498SOL    HW271026   7.187   1.844   9.093  0.5308 -0.9466  0.3206
22499SOL     OW71027  10.141   4.892   3.850 -0.1968  0.1933 -0.0594
22499SOL    HW171028  10.221   4.866   3.805  0.1101 -0.9705  1.0818
22499SOL    HW271029  10.087   4.813   3.850 -1.4628  1.0201 -1.0065
22500SOL     OW71030   2.692   3.578   3.257 -0.2866 -0.9202  0.0596
22500SOL    HW171031   2.696   3.539   3.170  0.2555 -2.9012  0.9104
22500SOL    HW271032   2.606   3.552   3.291  0.3159 -1.9802  0.8563
22501SOL     OW71033  10.944   7.587  10.235  0.5429  0.1696 -0.4056
22501SOL    HW171034  10.911   7.613  10.321  1.5021  0.9055 -0.2423
22501SOL    HW271035  10.919   7.495  10.226 -1.9720  0.7797 -0.5131
22502SOL     OW71036   9.486   6.375   3.352 -0.2110 -0.9259  0.6404
22502SOL    HW171037   9.481   6.462   3.313  0.6123 -1.1503 -0.0041
22502SOL    HW271038   9.515   6.318   3.281 -2.7016 -2.1374  0.4960
22503SOL     OW71039   0.131   4.277   2.068 -0.1141  0.2486 -0.3000
22503SOL    HW171040   0.134   4.320   1.982  0.6746 -1.8855 -1.4106
22503SOL    HW271041   0.113   4.185   2.048 -4.9149  0.3608  2.1053
22504SOL     OW71042   6.308  10.620   5.414 -0.0372 -0.7976  0.1747
22504SOL    HW171043   6.384  10.637   5.469 -0.1740  1.4198 -0.2437
22504SOL    HW271044   6.340  10.559   5.348  1.6562  0.7098 -0.4864
22505SOL     OW71045   1.539   2.459   4.519  0.0855 -0.3414 -0.3201
22505SOL    HW171046   1.548   2.364   4.516 -1.3017 -0.4796 -2.1195
22505SOL    HW271047   1.529   2.485   4.427 -1.1352  1.3458  0.2224
22506SOL     OW71048   7.308   5.039   4.041 -0.3355 -0.1216  0.0796
22506SOL    HW171049   7.337   5.100   3.974  1.3169  0.6763  1.4462
22506SOL    HW271050   7.237   5.085   4.086  0.0329  0.2644  0.2731
22507SOL     OW71051   3.310  10.887   1.070 -0.3271  0.4323  0.1528
22507SOL    HW171052   3.380  10.908   1.132  1.1844  2.0183 -1.9069
22507SOL    HW271053   3.255  10.965   1.068 -0.2061  0.5122 -0.6270
22508SOL     OW71054   6.739   3.603   8.623 -0.2408  0.5257 -0.4936
22508SOL    HW171055   6.807   3.537   8.637  0.2099  1.3324  1.3802
22508SOL    HW271056   6.785   3.687   8.631 -0.7052  1.1514 -3.3390
22509SOL     OW71057   0.954   4.489   1.214  0.1424 -0.2444 -0.0031
22509SOL    HW171058   0.918   4.400   1.209  0.5130 -0.5375  1.7449
22509SOL    HW271059   0.965   4.505   1.308 -0.4419  1.8784 -0.2348
22510SOL     OW71060   1.671   0.469   8.631 -0.1267 -0.1109 -0.0052
22510SOL    HW171061   1.640   0.531   8.698 -1.6936 -0.9353  0.0644
22510SOL    HW271062   1.717   0.401   8.681 -0.2444 -0.0982  0.1201
22511SOL     OW71063   9.888   1.041   8.455  0.6614 -0.4392  0.4981
22511SOL    HW171064   9.932   1.123   8.475  0.6298  0.2655 -1.9373
22511SOL    HW271065   9.958   0.978   8.438  0.7195 -0.2322 -0.0487
22512SOL     OW71066   2.838   0.553   9.784  0.2067  0.0831  0.0913
22512SOL    HW171067   2.898   0.525   9.853  2.2326 -0.7355 -1.8897
22512SOL    HW271068   2.839   0.482   9.721  0.2805  1.7615 -1.9157
22513SOL     OW71069  10.022   7.275   3.221 -0.4629 -0.0751  0.0784
22513SOL    HW171070   9.931   7.268   3.251 -0.4916 -0.5325 -0.1042
22513SOL    HW271071  10.065   7.197   3.255 -0.9001 -1.4991 -2.3932
22514SOL     OW71072   6.186   6.891  10.619  0.1297 -0.5108 -0.3702
22514SOL    HW171073   6.166   6.948  10.693  0.0725 -2.6050  1.3386
22514SOL    HW271074   6.112   6.902  10.559 -0.3322  0.4986  0.3561
22515SOL     OW71075   0.322   7.994   1.149 -0.0826 -0.1762 -0.1390
22515SOL    HW171076   0.270   7.955   1.079 -1.0944 -0.3846  0.6986
22515SOL    HW271077   0.379   7.923   1.179  0.0438 -0.2104 -0.4592
22516SOL     OW71078   2.731  10.155  10.415 -0.4485  0.0951 -0.1632
22516SOL    HW171079   2.810  10.159  10.360  0.0311  1.1590  0.5631
22516SOL    HW271080   2.714  10.062  10.425  1.7521 -0.2528  1.0624
22517SOL     OW71081   3.220   3.570   7.197 -0.1429  0.4756 -0.2673
22517SOL    HW171082   3.267   3.639   7.244  0.6040  0.0827 -0.4074
22517SOL    HW271083   3.246   3.581   7.105  1.9508 -1.4358  0.0063
22518SOL     OW71084   1.113   8.108   4.827  0.1747  0.2068  0.4919
22518SOL    HW171085   1.078   8.118   4.738 -1.8463  1.6882  1.4124
22518SOL    HW271086   1.208   8.111   4.815 -0.0510  0.4864 -1.6057
22519SOL     OW71087   6.780   5.211   1.453 -0.2289 -0.1567 -0.2638
22519SOL    HW171088   6.717   5.284   1.453  0.4058  0.4252  0.8746
22519SOL    HW271089   6.811   5.207   1.543  1.3152 -0.4683 -0.7805
22520SOL     OW71090   2.679   1.136  10.690  0.3887  0.2554  0.3392
22520SOL    HW171091   2.715   1.128  10.778 -1.3612  1.0772  1.1789
22520SOL    HW271092   2.637   1.051  10.673 -0.5819  0.5903  0.9513
22521SOL     OW71093   7.115   6.219   1.810  0.4550  0.0150  0.2014
22521SOL    HW171094   7.057   6.155   1.852 -0.6405 -0.2346 -1.5892
22521SOL    HW271095   7.189   6.167   1.778 -0.2211 -0.3380 -0.8622
22522SOL     OW71096   0.515   2.682   7.912  0.0115 -0.1863  0.3609
22522SOL    HW171097   0.608   2.692   7.933  0.0183  1.0743 -0.1634
22522SOL    HW271098   0.513   2.615   7.843  0.6588  0.6124 -0.4593
22523SOL     OW71099  10.162   7.677   9.570 -0.6041  0.2467  0.2200
22523SOL    HW171100  10.145   7.769   9.548 -2.1668  0.2785  1.3822
22523SOL    HW271101  10.103   7.627   9.514  0.3117 -0.0817 -0.4785
22524SOL     OW71102   3.886   5.027   3.586 -0.3684 -0.0644  0.2406
22524SOL    HW171103   3.846   4.947   3.620  1.1713 -1.0633 -0.1732
22524SOL    HW271104   3.916   5.003   3.499 -0.2004  1.0845 -0.0278
22525SOL     OW71105   4.686   4.619   5.580 -0.2895  0.1567 -0.1998
22525SOL    HW171106   4.695   4.618   5.675  3.1567  0.2713 -0.3838
22525SOL    HW271107   4.740   4.546   5.550 -0.3199  0.8576 -2.1008
22526SOL     OW71108   2.157   6.198   7.963 -0.0560  0.0347 -0.4523
22526SOL    HW171109   2.092   6.257   7.926  0.1171  0.7433  0.3387
22526SOL    HW271110   2.216   6.179   7.891 -1.0703 -0.5422 -1.1521
22527SOL     OW71111   3.575   2.417  10.548  0.8394  0.2975 -0.4120
22527SOL    HW171112   3.535   2.499  10.517 -1.1307 -0.5858 -0.3640
22527SOL    HW271113   3.666   2.424  10.521  0.5586  2.1804 -1.0815
22528SOL     OW71114   6.272   6.965   8.116 -0.3177 -0.3071  0.5208
22528SOL    HW171115   6.288   6.950   8.209 -0.5603 -0.6488  0.5071
22528SOL    HW271116   6.189   6.922   8.099  1.0853 -2.8223 -0.5052
22529SOL     OW71117   4.765   9.621   8.123 -0.1123 -0.2431 -0.6287
22529SOL    HW171118   4.688   9.570   8.098  0.6356 -1.7065 -0.0721
22529SOL    HW271119   4.763   9.623   8.218  0.3481  0.0093 -0.6174
22530SOL     OW71120   7.673   9.574   7.818 -0.2034 -0.2026 -0.9025
22530SOL    HW171121   7.750   9.517   7.811  0.7070  1.0911 -1.9752
22530SOL    HW271122   7.645   9.587   7.728  0.5072  2.1757 -0.8559
22531SOL     OW71123   0.358   8.814   2.783 -0.0150 -0.0314  0.6611
22531SOL    HW171124   0.376   8.826   2.877 -1.6356 -0.6412  1.0818
22531SOL    HW271125   0.327   8.899   2.754  0.0205  0.0246  0.7865
22532SOL     OW71126   4.365  10.210   4.899  0.1150 -0.2563  0.1281
22532SOL    HW171127   4.297  10.237   4.837  1.8206  0.5893 -1.4933
22532SOL    HW271128   4.408  10.135   4.857  0.7715 -0.2004  0.6735
22533SOL     OW71129   5.150   7.046   7.694 -0.4509  0.3991  0.2222
22533SOL    HW171130   5.145   7.015   7.785 -1.3717 -0.5688 -0.1378
22533SOL    HW271131   5.233   7.093   7.689  0.3295 -0.8163  1.1752
22534SOL     OW71132   4.266   8.899   8.012 -0.1806  0.5105  0.2242
22534SOL    HW171133   4.279   8.808   7.985 -0.6350  0.3206  0.6226
22534SOL    HW271134   4.292   8.900   8.104  1.4519  1.1711 -0.2269
22535SOL     OW71135   5.226   1.118   2.806 -0.0914  0.2173  0.0948
22535SOL    HW171136   5.207   1.064   2.883  2.9072  0.4039  1.1043
22535SOL    HW271137   5.263   1.057   2.743 -0.3649  0.4729 -0.3178
22536SOL     OW71138   1.094   0.801   2.509 -0.7300  0.1870 -0.2593
22536SOL    HW171139   1.065   0.766   2.425 -0.5678  0.6058 -0.4943
22536SOL    HW271140   1.180   0.838   2.490  0.0983 -1.2698  0.4792
22537SOL     OW71141   1.853   9.268   0.202  0.0433 -0.5370 -0.3170
22537SOL    HW171142   1.894   9.182   0.192  1.4388  0.0188  0.4330
22537SOL    HW271143   1.926   9.330   0.205 -0.9585  0.8505 -2.1436
22538SOL     OW71144   5.284   2.242   7.045  0.0438  0.4832 -0.2834
22538SOL    HW171145   5.351   2.181   7.076 -0.3306  1.3795  2.5013
22538SOL    HW271146   5.203   2.192   7.047  0.1478  0.2859 -0.7397
22539SOL     OW71147   9.147   8.576   2.979 -0.4120 -0.0680  0.4925
22539SOL    HW171148   9.220   8.634   2.999 -1.6502  1.5059  0.5647
22539SOL    HW271149   9.073   8.634   2.961 -1.4356 -1.5893 -0.5077
22540SOL     OW71150   1.338   1.998   8.216 -0.0195  0.2482  0.0535
22540SOL    HW171151   1.432   1.987   8.200  0.1977  2.7223 -0.8871
22540SOL    HW271152   1.325   1.972   8.307  1.3966 -0.9888 -0.0680
22541SOL     OW71153   9.507   5.551   0.502 -0.0333 -0.0819 -0.1246
22541SOL    HW171154   9.413   5.564   0.495  0.1944  1.9902  0.0392
22541SOL    HW271155   9.517   5.490   0.575 -1.1890  1.7156  1.6467
22542SOL     OW71156   2.022   8.600   3.257 -0.1580 -0.0391 -0.4316
22542SOL    HW171157   2.098   8.616   3.313  0.3241 -0.9112 -0.8118
22542SOL    HW271158   2.059   8.562   3.177 -1.0365 -0.9470 -0.4212
22543SOL     OW71159   1.000   1.028   5.422  0.6549  0.7762 -0.2074
22543SOL    HW171160   0.959   1.087   5.359  0.8382  0.1818 -0.9154
22543SOL    HW271161   1.029   0.953   5.368  0.3121 -0.0137  0.6737
22544SOL     OW71162   2.972   8.205   2.306  0.4577 -0.3116 -0.2960
22544SOL    HW171163   2.985   8.184   2.213  0.9728  0.0307 -0.3029
22544SOL    HW271164   2.982   8.300   2.311  2.7303 -0.5380  0.4671
22545SOL     OW71165   1.442   6.327   1.834 -0.2566  0.9522 -0.1102
22545SOL    HW171166   1.401   6.411   1.850 -0.6599  0.3338  2.5952
22545SOL    HW271167   1.488   6.306   1.916  0.2704 -1.2060 -0.8701
22546SOL     OW71168   9.401   9.457   9.258 -0.1271 -0.0215  0.4679
22546SOL    HW171169   9.493   9.432   9.266 -0.0287  0.2644  0.2226
22546SOL    HW271170   9.354   9.388   9.306  0.2176 -0.1211  0.6703
22547SOL     OW71171   8.451   4.538  10.483 -0.7652  0.5424 -0.0309
22547SOL    HW171172   8.492   4.550  10.397  0.8976  0.2482  0.6743
22547SOL    HW271173   8.457   4.624  10.524  1.0872  0.0474  0.8443
22548SOL     OW71174   5.091   1.284   6.848 -0.0512 -0.7807 -0.2062
22548SOL    HW171175   5.133   1.233   6.918  1.8053 -0.7780 -1.2474
22548SOL    HW271176   5.164   1.317   6.796 -1.3258  0.6790 -1.1470
22549SOL     OW71177   0.009   9.413   9.209 -0.4246  0.2068 -0.1637
22549SOL    HW171178   0.093   9.406   9.255 -0.6701  1.9251  0.6249
22549SOL    HW271179  -0.047   9.347   9.251  0.4070 -0.6997 -0.4530
22550SOL     OW71180   4.630   0.544   8.707 -0.0680  0.4624 -0.6013
22550SOL    HW171181   4.555   0.588   8.667 -0.1433 -1.3533 -2.6245
22550SOL    HW271182   4.594   0.463   8.742  0.7358  0.1914 -0.3786
22551SOL     OW71183   3.991   9.403   7.708 -0.0651 -0.5750  0.2439
22551SOL    HW171184   3.943   9.466   7.762  1.3419 -0.7018  1.7166
22551SOL    HW271185   4.083   9.416   7.731  0.7034 -0.2501 -2.5881
22552SOL     OW71186   0.477   2.491   0.356 -0.7238 -0.0731 -0.1329
22552SOL    HW171187   0.387   2.464   0.337 -0.2848 -1.6865 -0.1369
22552SOL    HW271188   0.510   2.527   0.274 -0.8899 -0.9361 -0.5923
22553SOL     OW71189   1.842   6.069   7.918 -0.0176 -0.2097 -0.4174
22553SOL    HW171190   1.822   6.151   7.963  1.3855  0.5126 -1.0549
22553SOL    HW271191   1.845   6.003   7.987  1.0082  0.6711  0.4100
22554SOL     OW71192   2.502  10.673   5.590 -0.4331 -0.2397 -0.2965
22554SOL    HW171193   2.586  10.636   5.565 -0.0472  0.4194 -0.0188
22554SOL    HW271194   2.503  10.676   5.686 -0.3081  0.7629 -0.3096
22555SOL     OW71195   5.680   4.839  10.085  0.1593  0.0096 -0.5483
22555SOL    HW171196   5.612   4.776  10.106  1.0248 -0.2692  1.6973
22555SOL    HW271197   5.634   4.911  10.042 -1.4395 -0.5050  0.2343
22556SOL     OW71198   2.702   9.906   8.317 -0.0646 -0.2078 -0.3378
22556SOL    HW171199   2.649   9.978   8.283  0.7416  0.6259  0.1102
22556SOL    HW271200   2.682   9.832   8.260 -1.5302  0.1399 -0.3097
22557SOL     OW71201   7.205   2.957   7.463  0.3928  0.1300 -0.1783
22557SOL    HW171202   7.264   2.986   7.394  1.2139  0.7212  0.7327
22557SOL    HW271203   7.215   2.862   7.465  0.3426  0.1072 -0.8833
22558SOL     OW71204  10.182   5.321   0.916 -0.2420 -0.1304 -0.0583
22558SOL    HW171205  10.148   5.395   0.967  0.9985  0.0118  0.6126
22558SOL    HW271206  10.246   5.279   0.974  1.1266 -0.0364 -1.4138
22559SOL     OW71207  10.241   1.101   3.531  0.5092 -0.0330 -0.2897
22559SOL    HW171208  10.194   1.182   3.550  1.0414  0.9682 -2.8656
22559SOL    HW271209  10.173   1.039   3.505  0.3225  0.3739 -0.7751
22560SOL     OW71210   5.119   8.207   2.893 -0.1384 -0.1161 -0.1941
22560SOL    HW171211   5.122   8.115   2.867 -0.8603  0.1279 -1.1998
22560SOL    HW271212   5.193   8.218   2.952 -0.1017 -1.3624  0.0152
22561SOL     OW71213   9.518   5.060   7.191  0.1535 -0.7167 -0.0797
22561SOL    HW171214   9.429   5.025   7.188  0.2528 -0.9827  0.0255
22561SOL    HW271215   9.522   5.124   7.120 -0.1567 -0.6221 -0.0128
22562SOL     OW71216   3.652  10.238   7.390  0.3584  0.3976 -0.0153
22562SOL    HW171217   3.561  10.268   7.398 -0.1400 -0.2723 -2.5088
22562SOL    HW271218   3.700  10.294   7.452 -1.5826  1.4197  0.6746
22563SOL     OW71219   4.702   1.498  10.940  0.2498  0.6377  0.5499
22563SOL    HW171220   4.647   1.515  10.864  0.3775 -0.0739  0.2875
22563SOL    HW271221   4.718   1.403  10.938  0.1522  0.5857  1.5365
22564SOL     OW71222   5.679   3.346   2.247 -0.5347  0.3795 -0.1087
22564SOL    HW171223   5.625   3.277   2.209  0.9232 -1.2855  0.7160
22564SOL    HW271224   5.763   3.338   2.202  0.4922 -0.1415  1.8080
22565SOL     OW71225  10.230   6.793   2.712  0.1568 -0.2339 -0.4272
22565SOL    HW171226  10.175   6.731   2.760  1.8347 -1.2190  0.3054
22565SOL    HW271227  10.167   6.847   2.663 -1.5209 -0.5228  1.2632
22566SOL     OW71228   7.985   7.064   0.159 -0.0403  0.3552  0.6451
22566SOL    HW171229   7.992   6.969   0.162 -0.1827  0.3490  0.7961
22566SOL    HW271230   7.892   7.082   0.175  0.0896  0.5438  1.2028
22567SOL     OW71231   8.319   3.417   2.238  0.2958 -0.1195 -0.1414
22567SOL    HW171232   8.230   3.392   2.262  0.1677  0.2027 -0.2732
22567SOL    HW271233   8.324   3.510   2.258 -0.1844  0.4531 -2.3690
22568SOL     OW71234   1.450   9.629   5.512 -0.0842 -0.6528  0.0133
22568SOL    HW171235   1.390   9.578   5.566 -0.3336 -1.8082 -1.3222
22568SOL    HW271236   1.453   9.715   5.555 -1.6822 -0.9637  0.8287
22569SOL     OW71237   8.910   0.015   9.076 -0.0143  0.3770  0.1927
22569SOL    HW171238   8.996   0.041   9.044 -0.3910  0.2920 -0.9004
22569SOL    HW271239   8.922  -0.075   9.107  0.0792  0.0289 -0.8260
22570SOL     OW71240   5.159  10.363   1.023 -0.2813  0.0310  0.1241
22570SOL    HW171241   5.073  10.400   1.005 -0.7467 -0.5394  1.0895
22570SOL    HW271242   5.181  10.394   1.110  0.9498  0.9672 -0.4781
22571SOL     OW71243   5.506   7.277   1.124 -0.4949  0.0875  0.2068
22571SOL    HW171244   5.509   7.364   1.084 -2.8662  0.4413  0.6746
22571SOL    HW271245   5.589   7.271   1.173  0.3397  1.4970 -0.9289
22572SOL     OW71246   3.788  10.947   4.516  0.2746  0.2484 -0.2291
22572SOL    HW171247   3.744  10.951   4.601  1.6217  0.2370  0.4976
22572SOL    HW271248   3.740  10.881   4.467 -1.4612  1.3117 -0.0481
22573SOL     OW71249  10.296   6.476   4.239  0.0379 -0.0765 -0.4177
22573SOL    HW171250  10.281   6.393   4.194 -1.0051 -0.2971  0.3090
22573SOL    HW271251  10.223   6.484   4.300  0.3622  1.1700 -0.1668
22574SOL     OW71252   9.926   8.464   1.619  0.4671  0.0064 -0.3871
22574SOL    HW171253   9.964   8.552   1.613  1.0505 -0.2304 -0.2619
22574SOL    HW271254   9.856   8.472   1.683  0.3899  0.4246 -0.5204
22575SOL     OW71255   7.250   0.144   6.472 -0.2017 -0.4417  0.1320
22575SOL    HW171256   7.168   0.114   6.434 -0.9636 -0.8233  1.9881
22575SOL    HW271257   7.258   0.235   6.444 -1.5931 -0.2058  0.4625
22576SOL     OW71258   2.792   3.729   7.965 -0.0832  0.3972 -0.0650
22576SOL    HW171259   2.774   3.680   7.885  4.1832 -0.2430 -0.8888
22576SOL    HW271260   2.824   3.664   8.028  2.4218  1.5073 -0.0284
22577SOL     OW71261   4.783   1.915   6.867  0.1286  0.5948 -0.2167
22577SOL    HW171262   4.820   1.856   6.802  0.3794  1.4555 -0.8644
22577SOL    HW271263   4.766   1.996   6.820  3.5604  2.5126  1.4629
22578SOL     OW71264   7.708   5.861  10.643  0.7212 -0.2504 -0.4075
22578SOL    HW171265   7.710   5.926  10.573 -0.9129 -1.4937 -1.6907
22578SOL    HW271266   7.711   5.913  10.724 -0.5228  1.4318 -1.3729
22579SOL     OW71267   1.770   4.259   1.331  0.3922 -0.2432 -0.1970
22579SOL    HW171268   1.699   4.208   1.370  0.1811  0.0375 -0.2121
22579SOL    HW271269   1.848   4.206   1.347  0.1680 -0.6004 -0.2659
22580SOL     OW71270   4.301   0.527   0.689 -0.6886  0.0595  0.0221
22580SOL    HW171271   4.256   0.475   0.622 -0.7647 -1.5655  1.2645
22580SOL    HW271272   4.294   0.474   0.768  1.9589  0.4948  0.6527
22581SOL     OW71273   9.190  10.712   4.808 -0.0436 -0.0185  0.5004
22581SOL    HW171274   9.114  10.655   4.798  0.6939 -1.0668  0.6600
22581SOL    HW271275   9.160  10.783   4.866 -0.4749 -1.2537  1.8541
22582SOL     OW71276   2.786  10.648   0.341  0.7902  0.3787  0.4678
22582SOL    HW171277   2.692  10.659   0.331  0.8350 -0.2265 -0.7363
22582SOL    HW271278   2.824  10.718   0.288  1.0353  1.1107  1.5703
22583SOL     OW71279   6.697   8.225   0.014  0.5319  0.7172  0.0837
22583SOL    HW171280   6.646   8.149  -0.012 -0.7108  1.4120  0.4024
22583SOL    HW271281   6.653   8.258   0.092  2.2624  0.5809  1.1657
22584SOL     OW71282   5.924   9.118   4.836  0.2483  0.3243 -0.2850
22584SOL    HW171283   5.888   9.200   4.801  1.4246  2.0436  2.2273
22584SOL    HW271284   6.018   9.134   4.843  0.3954 -0.9173  1.0383
22585SOL     OW71285   7.954   7.763   1.797 -0.0930 -0.1459  0.0930
22585SOL    HW171286   7.931   7.804   1.714  1.9017 -2.0229 -1.4944
22585SOL    HW271287   7.884   7.700   1.813 -0.2103 -0.1484 -0.4388
22586SOL     OW71288   2.569   1.693  10.914 -0.1286  0.1989 -0.2787
22586SOL    HW171289   2.523   1.610  10.911 -0.3318  0.3080 -2.8246
22586SOL    HW271290   2.511   1.752  10.962 -0.6960 -0.7316  0.1772
22587SOL     OW71291   4.658   5.686   0.917 -0.4051  0.2943  0.6101
22587SOL    HW171292   4.648   5.674   1.011 -2.1097 -0.8051  0.3490
22587SOL    HW271293   4.580   5.645   0.880  1.2954 -1.3616 -1.4243
22588SOL     OW71294   5.645   3.001   6.922 -0.4323 -0.2231 -0.7082
22588SOL    HW171295   5.622   2.908   6.919  1.2776 -0.7397  0.7551
22588SOL    HW271296   5.728   3.007   6.876 -0.0007  0.3809  0.1264
22589SOL     OW71297   7.405   1.580   4.085 -0.2953  0.7565 -0.1611
22589SOL    HW171298   7.356   1.523   4.144  0.2168  1.3648  0.8769
22589SOL    HW271299   7.354   1.662   4.084 -1.1310  0.2762 -1.7859
22590SOL     OW71300   6.994   5.188   2.966 -0.0427  0.5836  0.1214
22590SOL    HW171301   6.904   5.199   2.935 -0.4968 -0.4338  0.9945
22590SOL    HW271302   7.020   5.275   2.996 -0.8232  0.8387  0.0781
22591SOL     OW71303   5.085   8.418   9.198  1.0063  0.3326  0.3991
22591SOL    HW171304   5.133   8.347   9.154 -0.3776 -0.6993  0.4839
22591SOL    HW271305   4.995   8.386   9.204  0.3101  2.1428  0.3826
22592SOL     OW71306   4.342  10.108   5.168  0.0806  0.4975 -0.1422
22592SOL    HW171307   4.353  10.161   5.089 -0.4307 -1.7190 -1.8074
22592SOL    HW271308   4.352  10.018   5.138  0.6935 -0.4197  2.5025
22593SOL     OW71309   6.083   1.379   4.380  0.3075 -0.2502 -0.4117
22593SOL    HW171310   6.023   1.376   4.306  0.6459  0.6403 -0.7356
22593SOL    HW271311   6.033   1.343   4.453 -0.7592  0.8302 -0.5805
22594SOL     OW71312   0.529   9.308   8.506  0.2983  0.1090  0.2461
22594SOL    HW171313   0.536   9.316   8.410 -1.2770 -1.2991 -0.0265
22594SOL    HW271314   0.533   9.399   8.537 -1.1959  0.7938 -1.3498
22595SOL     OW71315   7.852   6.536   0.152  0.4008 -0.3950  0.4707
22595SOL    HW171316   7.857   6.461   0.211  0.3371 -0.0913  0.8657
22595SOL    HW271317   7.839   6.498   0.065 -3.4243 -0.7723  1.0577
22596SOL     OW71318  11.055   7.670   1.395  0.2660 -0.5445 -0.0129
22596SOL    HW171319  10.983   7.709   1.444  0.1031 -1.8716  0.8477
22596SOL    HW271320  11.114   7.743   1.377 -0.7455  0.3601  0.2445
22597SOL     OW71321   5.260   1.449   8.844  0.1879 -0.3935  0.1577
22597SOL    HW171322   5.174   1.476   8.877  0.3412 -0.9674  1.0663
22597SOL    HW271323   5.245   1.428   8.752 -0.2074  1.4875 -0.2555
22598SOL     OW71324   5.289  10.190   8.021  0.5359 -0.1633 -0.0777
22598SOL    HW171325   5.262  10.152   7.937  0.6671 -1.6553  0.5135
22598SOL    HW271326   5.208  10.218   8.062  0.5114  1.0437 -0.8867
22599SOL     OW71327   5.782   0.761   7.900 -0.8517  0.3447  0.1714
22599SOL    HW171328   5.730   0.752   7.820 -2.6417  0.9615  1.2250
22599SOL    HW271329   5.780   0.675   7.941  0.8399 -0.2313 -0.8437
22600SOL     OW71330   9.116   7.045   2.298 -0.5181  0.0792 -0.2909
22600SOL    HW171331   9.122   6.985   2.373 -0.3037  1.1841  0.6057
22600SOL    HW271332   9.071   6.995   2.230  0.0038 -1.2209  0.2987
22601SOL     OW71333   2.664   3.144   4.964  0.3593 -0.1110  0.4709
22601SOL    HW171334   2.589   3.152   4.905  0.1381  1.2164  0.8935
22601SOL    HW271335   2.740   3.135   4.905  0.0793  0.6270 -0.0249
22602SOL     OW71336   1.088   4.423   9.033 -0.1992  0.7070 -0.1638
22602SOL    HW171337   1.133   4.478   8.968 -0.0494  1.2521  0.3891
22602SOL    HW271338   1.054   4.485   9.097 -0.1098  0.1566  0.4263
22603SOL     OW71339  10.156   1.692   4.032 -0.2102 -0.5732 -0.1231
22603SOL    HW171340  10.184   1.601   4.046 -0.0320 -0.5946 -0.6291
22603SOL    HW271341  10.235   1.739   4.007 -0.5530 -0.5775 -1.2762
22604SOL     OW71342   1.537   9.537   2.500  0.2523 -0.5166 -0.1249
22604SOL    HW171343   1.484   9.512   2.424 -1.0450 -0.6754  0.7957
22604SOL    HW271344   1.627   9.537   2.468 -0.1599 -1.7197 -1.3629
22605SOL     OW71345   3.060  10.737   9.994  0.0856  0.0996 -0.6739
22605SOL    HW171346   3.020  10.685  10.064 -2.5059 -0.2713 -2.2851
22605SOL    HW271347   3.001  10.812   9.983  0.4994  0.2263 -2.3387
22606SOL     OW71348   6.114   0.196   9.847  0.0638 -0.3581 -0.1911
22606SOL    HW171349   6.045   0.179   9.911 -0.6653 -1.5366 -1.2567
22606SOL    HW271350   6.068   0.235   9.773  0.4699 -1.5532 -1.0850
22607SOL     OW71351  10.332   4.449   5.741  0.3644 -0.8075 -0.0217
22607SOL    HW171352  10.408   4.476   5.689  0.5044 -2.6047 -0.8419
22607SOL    HW271353  10.369   4.422   5.825  0.7896 -2.4645 -0.7041
22608SOL     OW71354   8.458   0.463   2.144  0.1345 -0.0069 -0.3818
22608SOL    HW171355   8.430   0.380   2.182 -1.0743 -0.4728 -2.1684
22608SOL    HW271356   8.380   0.519   2.152  0.7646  0.7931  0.3089
22609SOL     OW71357   4.710   0.609   3.128  0.9474 -0.7325  0.2375
22609SOL    HW171358   4.757   0.559   3.061  1.0270 -1.4375  0.8178
22609SOL    HW271359   4.651   0.546   3.169  1.1444 -0.3960  1.0638
22610SOL     OW71360   5.733   0.367   1.354  0.0521  0.5494  0.8224
22610SOL    HW171361   5.772   0.376   1.267  1.8869  0.3584  1.5910
22610SOL    HW271362   5.673   0.442   1.360 -1.1752 -0.1883 -1.0853
22611SOL     OW71363   2.487   0.834   8.003  0.0998  0.3125 -0.3155
22611SOL    HW171364   2.479   0.868   8.092  3.1167  2.1031 -0.5773
22611SOL    HW271365   2.524   0.747   8.014 -0.8767 -0.0433  0.2059
22612SOL     OW71366  10.576   4.939   0.461 -0.2442 -0.0038  0.2604
22612SOL    HW171367  10.642   4.875   0.490 -0.3919  0.7471  2.4996
22612SOL    HW271368  10.499   4.919   0.514 -0.1094  2.3188  1.4833
22613SOL     OW71369   9.406   6.967   1.625  0.5346 -0.8518 -0.0029
22613SOL    HW171370   9.398   7.019   1.545  0.8233  0.1035  0.5747
22613SOL    HW271371   9.485   6.914   1.611  1.6686  0.6630  0.3666
22614SOL     OW71372   4.418   7.125   0.697  0.4536  0.0431  0.1424
22614SOL    HW171373   4.433   7.060   0.765  1.0606 -0.2155 -0.2209
22614SOL    HW271374   4.438   7.208   0.738 -0.6235  0.0400  0.7002
22615SOL     OW71375   4.952   3.975   2.613 -0.5025 -0.6950 -0.2159
22615SOL    HW171376   5.047   3.985   2.626 -0.3542 -0.6751 -1.1976
22615SOL    HW271377   4.931   4.039   2.545 -1.2863 -0.4673  0.2364
22616SOL     OW71378   8.116   9.145   7.142 -0.0154  0.0569 -0.5712
22616SOL    HW171379   8.160   9.080   7.195  0.8124  0.6949 -0.4587
22616SOL    HW271380   8.153   9.229   7.171 -1.3927  0.6331 -0.3698
22617SOL     OW71381   1.964   9.024   0.188  0.0794 -0.0746 -0.0331
22617SOL    HW171382   2.057   9.005   0.178 -0.2189 -1.6121 -0.0823
22617SOL    HW271383   1.925   8.941   0.215 -1.9081 -0.6648 -3.9146
22618SOL     OW71384   0.536  10.557   8.085  0.6201  0.5312  1.0033
22618SOL    HW171385   0.541  10.462   8.084  0.9921  0.5132 -1.6420
22618SOL    HW271386   0.556  10.581   8.176 -2.7089 -1.9864  2.6050
22619SOL     OW71387   6.152   2.110   7.832 -0.1044  0.1007 -0.1776
22619SOL    HW171388   6.210   2.178   7.797 -0.3139  0.5950  0.4327
22619SOL    HW271389   6.093   2.156   7.891  0.0121 -0.6701  0.5577
22620SOL     OW71390   8.545   1.811   5.904 -0.2013  0.1554  0.6582
22620SOL    HW171391   8.476   1.757   5.865  0.1913 -0.0667  0.2706
22620SOL    HW271392   8.534   1.896   5.861 -0.2156  0.1125  0.5758
22621SOL     OW71393   3.495   5.759   1.788  0.2051  0.1447 -0.6780
22621SOL    HW171394   3.531   5.810   1.716 -0.8368  1.1254 -0.5300
22621SOL    HW271395   3.423   5.710   1.748 -2.0344  2.5747  0.0874
22622SOL     OW71396   0.080   9.120   9.607 -0.0640 -0.4634 -0.3461
22622SOL    HW171397   0.164   9.137   9.650 -0.0180  3.4234 -1.5714
22622SOL    HW271398   0.015   9.137   9.675  0.0920 -0.3931 -0.2126
22623SOL     OW71399   8.902   5.143   1.188  0.1191 -0.0577 -0.4272
22623SOL    HW171400   8.880   5.234   1.209  2.7228  0.7213 -0.7378
22623SOL    HW271401   8.820   5.095   1.203 -1.0846  2.1578  0.7015
22624SOL     OW71402   7.432   6.636   5.656 -0.1002  0.3144  0.3721
22624SOL    HW171403   7.474   6.682   5.584 -0.7257  0.2614 -0.0352
22624SOL    HW271404   7.427   6.701   5.726  2.9231 -0.3677  1.3735
22625SOL     OW71405   5.968   2.576   7.075  0.4867  0.2486 -0.4683
22625SOL    HW171406   5.961   2.580   7.170 -0.9514 -0.0287 -0.5447
22625SOL    HW271407   5.934   2.661   7.045  0.4998  0.1536 -0.7572
22626SOL     OW71408   3.572  10.259   4.142 -0.5305  0.0432 -0.4621
22626SOL    HW171409   3.498  10.312   4.172 -0.1147  0.3228  0.0873
22626SOL    HW271410   3.627  10.320   4.093 -0.3345 -0.0068 -0.3072
22627SOL     OW71411   5.332   2.643   6.866  0.7450  0.6636 -0.1990
22627SOL    HW171412   5.299   2.571   6.812  0.1864  0.9936 -0.3005
22627SOL    HW271413   5.318   2.613   6.956  1.0083  0.4204 -0.2376
22628SOL     OW71414   8.391   5.240   7.144 -1.0788  0.2594 -0.2384
22628SOL    HW171415   8.357   5.306   7.083 -1.0392  0.3369 -0.1752
22628SOL    HW271416   8.473   5.211   7.105 -0.7641  0.7247  0.0721
22629SOL     OW71417   3.194   3.810   4.582 -0.3708 -0.3363 -0.3425
22629SOL    HW171418   3.259   3.879   4.572 -0.6611  0.3728  2.0283
22629SOL    HW271419   3.239   3.730   4.553  0.6341  0.5377 -1.2484
22630SOL     OW71420   1.257   7.161   3.617 -0.0808 -0.2666  0.0588
22630SOL    HW171421   1.187   7.105   3.585 -0.7134 -0.5621  1.8243
22630SOL    HW271422   1.288   7.118   3.697  1.5069  0.3324 -0.2040
22631SOL     OW71423   8.760   8.631   1.517 -0.3691 -0.1093  0.0980
22631SOL    HW171424   8.765   8.725   1.503 -1.8305 -0.0176  0.0979
22631SOL    HW271425   8.776   8.619   1.610 -1.7204  0.2998  0.4011
22632SOL     OW71426   7.416   9.917   5.138  0.3018 -0.4932  0.2980
22632SOL    HW171427   7.345   9.966   5.180 -0.0274 -0.4619 -0.2876
22632SOL    HW271428   7.478   9.984   5.111 -0.3894 -0.3413 -0.9579
22633SOL     OW71429   7.182   5.568   9.204  0.0293 -0.4207  0.2198
22633SOL    HW171430   7.267   5.534   9.231  0.6053  1.0440  0.3401
22633SOL    HW271431   7.119   5.507   9.243  0.9988 -1.4462  0.2514
22634SOL     OW71432   8.103   8.923   4.535 -1.0957 -0.1811  0.5844
22634SOL    HW171433   8.010   8.902   4.548 -1.7089  1.1978 -1.1250
22634SOL    HW271434   8.111   9.014   4.564 -0.2263 -0.3660  0.9361
22635SOL     OW71435   6.469   8.745   8.763  0.0575  0.4073 -0.2754
22635SOL    HW171436   6.549   8.765   8.715  0.8738  0.9731  1.2653
22635SOL    HW271437   6.471   8.650   8.774 -1.4197 -0.1330 -3.4463
22636SOL     OW71438   2.885   5.119   8.072  0.0991 -0.1305 -0.1931
22636SOL    HW171439   2.939   5.196   8.062 -0.5402  0.4228  0.4807
22636SOL    HW271440   2.938   5.058   8.123  0.2202  0.2699  0.1619
22637SOL     OW71441   3.916   7.660  10.325  0.0319  0.5352  0.5066
22637SOL    HW171442   3.825   7.685  10.341 -1.1967 -2.8975 -0.1748
22637SOL    HW271443   3.924   7.657  10.229  0.1280 -1.1872  0.5267
22638SOL     OW71444   9.581   3.369   7.912 -0.0286  0.5689  0.2200
22638SOL    HW171445   9.519   3.441   7.925 -2.8279 -1.5216 -0.5908
22638SOL    HW271446   9.589   3.329   7.999  2.0547  2.1091  0.8257
22639SOL     OW71447   4.463   4.839   5.760 -0.2628 -0.4132 -0.4064
22639SOL    HW171448   4.514   4.852   5.839 -0.2518  0.1294 -0.4947
22639SOL    HW271449   4.488   4.912   5.703  0.5465 -1.4115 -1.3497
22640SOL     OW71450   5.754   7.885   0.593  0.6055 -0.4453  0.1589
22640SOL    HW171451   5.802   7.966   0.579  0.1995 -0.2899 -0.3622
22640SOL    HW271452   5.787   7.826   0.525  0.8943 -0.7173  0.5316
22641SOL     OW71453   0.043  10.547   2.104 -0.8001  0.4119 -0.1941
22641SOL    HW171454   0.101  10.470   2.106 -1.0956  0.1941 -0.0239
22641SOL    HW271455   0.059  10.590   2.187  1.0727  1.8136 -1.1838
22642SOL     OW71456   8.286   5.575   6.621 -0.2586  0.5945 -0.0396
22642SOL    HW171457   8.263   5.483   6.639 -1.4181  1.0205  0.7974
22642SOL    HW271458   8.204   5.616   6.595  0.0349  1.6239  0.5932
22643SOL     OW71459   9.022   5.710   7.860 -0.0812  0.1807  0.0688
22643SOL    HW171460   8.981   5.682   7.778  0.4993  1.2806 -0.6251
22643SOL    HW271461   9.115   5.721   7.837  0.2146 -0.1812  1.0592
22644SOL     OW71462   4.620   2.943   7.515  0.0577 -0.7367  0.0460
22644SOL    HW171463   4.543   2.887   7.528 -1.1958  0.6531 -0.8910
22644SOL    HW271464   4.601   2.990   7.433  1.2454  0.6939  0.5366
22645SOL     OW71465   3.449   6.277  10.932 -0.2275 -0.0495  0.7714
22645SOL    HW171466   3.378   6.321  10.978  0.1528 -0.2962  1.6033
22645SOL    HW271467   3.458   6.326  10.850 -0.2465  1.0137  1.3884
22646SOL     OW71468   2.786   3.515   0.458 -0.2294  0.3058 -0.1355
22646SOL    HW171469   2.764   3.528   0.550  0.6657  0.9339  0.0078
22646SOL    HW271470   2.871   3.559   0.447 -0.0799 -0.1928 -1.1397
22647SOL     OW71471   3.265   8.906   1.438 -0.0658  0.4333 -0.0833
22647SOL    HW171472   3.257   9.002   1.444  1.3517  0.7770 -2.6130
22647SOL    HW271473   3.199   8.881   1.374  0.0825 -0.2133  0.0133
22648SOL     OW71474   6.802   1.716   0.482 -0.1118  0.0736  0.1565
22648SOL    HW171475   6.889   1.753   0.500  0.6743 -0.3374 -2.4338
22648SOL    HW271476   6.754   1.788   0.440 -0.9578  0.1868  1.2606
22649SOL     OW71477   5.146   8.352   3.673  0.0601  0.2571  0.2485
22649SOL    HW171478   5.068   8.314   3.634  0.0940  0.1361  0.2999
22649SOL    HW271479   5.113   8.424   3.727 -0.0858 -0.2579  0.8644
22650SOL     OW71480   1.849   6.702   8.776 -0.4893  0.1071 -0.0068
22650SOL    HW171481   1.864   6.722   8.684 -1.7438  0.4800 -0.1436
22650SOL    HW271482   1.757   6.721   8.790 -0.7882 -1.7813  0.8686
22651SOL     OW71483  10.322   7.790   8.396  0.2280  0.6718  0.0775
22651SOL    HW171484  10.260   7.831   8.457  0.0958 -0.6472  0.8639
22651SOL    HW271485  10.267   7.743   8.334  0.4093 -1.0555  1.1695
22652SOL     OW71486   1.709   4.355   5.761  0.2905 -0.3979 -0.4004
22652SOL    HW171487   1.743   4.380   5.675  0.6527 -1.3079 -0.5342
22652SOL    HW271488   1.730   4.429   5.818 -1.2170  0.8504 -1.3815
22653SOL     OW71489   5.133  10.366   8.434 -0.2063 -0.0222 -0.0144
22653SOL    HW171490   5.154  10.322   8.516 -0.9905 -2.6212 -1.1201
22653SOL    HW271491   5.037  10.370   8.433 -0.2190  3.2961  0.7437
22654SOL     OW71492  10.456   3.369   3.026 -0.0431 -0.4421 -0.4167
22654SOL    HW171493  10.547   3.347   3.045 -0.8797 -2.4599  1.6893
22654SOL    HW271494  10.415   3.285   3.004 -1.8414  0.0608  0.7789
22655SOL     OW71495   0.099   1.998   0.205  0.0432  0.1324  0.1225
22655SOL    HW171496   0.113   2.090   0.183 -1.4580  0.0893 -1.1598
22655SOL    HW271497   0.020   1.973   0.156  0.0791 -1.6726  0.9146
22656SOL     OW71498   0.585   7.587   0.522 -0.8889 -0.4230 -0.1133
22656SOL    HW171499   0.541   7.672   0.517 -1.9079 -0.9143  0.1436
22656SOL    HW271500   0.531   7.529   0.468 -1.5012 -1.4142  1.4675
22657SOL     OW71501   6.260   7.994  10.285 -0.1802  0.3149  0.2553
22657SOL    HW171502   6.207   7.943  10.347  1.0415 -0.0185  1.0642
22657SOL    HW271503   6.208   7.997  10.205 -1.1872 -0.4309  0.8689
22658SOL     OW71504   9.432   1.656   8.420  0.1613  0.0842 -0.3262
22658SOL    HW171505   9.387   1.571   8.413 -0.5827  0.4630 -0.2248
22658SOL    HW271506   9.451   1.680   8.330  0.9165 -0.4695 -0.3251
22659SOL     OW71507   2.934   7.392   0.277 -0.1085 -0.4098 -0.0180
22659SOL    HW171508   2.933   7.486   0.259  2.3855 -0.0879  1.0533
22659SOL    HW271509   2.957   7.352   0.194  1.3427  0.1883  0.0635
22660SOL     OW71510   9.250   4.914   9.719  0.3890 -0.5194  0.4412
22660SOL    HW171511   9.342   4.908   9.696  0.1046 -0.0982 -0.9088
22660SOL    HW271512   9.245   4.990   9.777  1.2308 -2.0371  2.6394
22661SOL     OW71513   7.682   8.983   8.844 -0.1627  0.3860 -0.2082
22661SOL    HW171514   7.732   8.903   8.859  0.3981  1.0090  1.4863
22661SOL    HW271515   7.747   9.053   8.845 -0.9535  1.1771  1.6599
22662SOL     OW71516  10.946   8.509   9.984  0.1416  0.3340 -0.2342
22662SOL    HW171517  10.901   8.432   9.951 -0.3675  1.2687 -1.8241
22662SOL    HW271518  11.011   8.530   9.917  0.7854  0.8606  0.5310
22663SOL     OW71519   3.784   3.657   1.265 -0.5273 -0.0043 -0.0012
22663SOL    HW171520   3.770   3.625   1.354  0.2192 -0.6788 -0.1074
22663SOL    HW271521   3.753   3.585   1.209 -0.3926  0.1490 -0.2735
22664SOL     OW71522   0.538  10.458   0.111  0.4711  0.7527  0.1101
22664SOL    HW171523   0.447  10.474   0.085 -0.8308 -2.6720  1.9494
22664SOL    HW271524   0.548  10.508   0.192 -0.6578 -0.6126  1.1623
22665SOL     OW71525   5.916   0.569   8.435 -0.4687 -0.0135  0.0314
22665SOL    HW171526   5.900   0.547   8.527 -0.5198  1.1551  0.3217
22665SOL    HW271527   5.828   0.577   8.397 -0.4493 -1.6459 -0.4372
22666SOL     OW71528   9.616   1.233   2.421  0.4397 -0.3416  0.2355
22666SOL    HW171529   9.671   1.209   2.495  2.4382  2.4508 -0.1614
22666SOL    HW271530   9.531   1.252   2.459  0.4546 -2.1739  1.2771
22667SOL     OW71531   0.087   7.037   5.903  0.1362 -0.3093  0.2545
22667SOL    HW171532   0.159   7.089   5.866  1.0563 -0.5221  1.6756
22667SOL    HW271533   0.104   7.036   5.997 -1.7695 -0.3405  0.6376
22668SOL     OW71534   9.532   9.100   6.546 -0.2029 -0.0545 -0.0142
22668SOL    HW171535   9.494   9.027   6.496 -0.1540  0.9895 -1.6678
22668SOL    HW271536   9.483   9.177   6.517  0.3608  0.7097  0.9981
22669SOL     OW71537   6.734   4.732   1.826  0.0501  0.3443  0.3016
22669SOL    HW171538   6.759   4.819   1.795  1.0157 -0.2149 -0.5328
22669SOL    HW271539   6.777   4.725   1.912 -0.2213  0.7703  0.4786
22670SOL     OW71540   0.360   7.733   7.500 -0.4864 -0.1250  0.4679
22670SOL    HW171541   0.291   7.704   7.439  0.0011 -0.0246 -0.1438
22670SOL    HW271542   0.313   7.756   7.580 -1.0707 -0.9712  0.3860
22671SOL     OW71543   5.187  10.652   8.405 -0.8512 -0.3240  0.0901
22671SOL    HW171544   5.216  10.560   8.399  1.6081  0.4139 -0.6107
22671SOL    HW271545   5.156  10.672   8.316  1.3458  0.2944 -0.5859
22672SOL     OW71546   2.854   9.163  10.754 -0.1929 -0.0825 -0.3472
22672SOL    HW171547   2.937   9.178  10.708 -0.7117  2.1079 -0.6829
22672SOL    HW271548   2.852   9.230  10.822 -0.9182 -1.2303  0.8169
22673SOL     OW71549   9.194   9.575   2.295 -0.0496 -0.0366  0.0878
22673SOL    HW171550   9.174   9.539   2.381  1.4181 -1.6435 -0.2088
22673SOL    HW271551   9.274   9.625   2.308 -1.1266  1.7794  0.1158
22674SOL     OW71552   4.130   6.995   8.130 -0.1617  0.1416  0.4554
22674SOL    HW171553   4.142   7.021   8.039 -0.6468 -1.1571  0.0009
22674SOL    HW271554   4.065   7.057   8.164  0.0696  0.6736 -0.0560
22675SOL     OW71555   8.631   5.062   2.872 -0.1068 -0.1469  0.0787
22675SOL    HW171556   8.651   4.970   2.855 -1.6857 -0.1518 -2.2850
22675SOL    HW271557   8.699   5.091   2.933  1.4005 -2.4540 -0.3875
22676SOL     OW71558   8.544   2.596   2.601  0.5612  0.4336 -0.7350
22676SOL    HW171559   8.556   2.501   2.592 -1.2825  0.1943 -1.0810
22676SOL    HW271560   8.583   2.633   2.522  0.0267 -0.1738 -1.3009
22677SOL     OW71561   0.973   2.914  10.692 -0.1827  0.0974  0.1617
22677SOL    HW171562   0.881   2.941  10.689  0.3496  2.0840  0.4403
22677SOL    HW271563   0.999   2.906  10.600 -0.8227 -1.3198  0.0714
22678SOL     OW71564  10.408   9.199   9.038 -0.3103  0.2570 -0.1011
22678SOL    HW171565  10.481   9.256   9.016 -0.8558  1.6262  1.4241
22678SOL    HW271566  10.366   9.242   9.113 -2.1921 -0.9071 -0.4359
22679SOL     OW71567   8.007   4.488   8.652  0.1615  0.7701  0.2666
22679SOL    HW171568   7.981   4.454   8.566 -0.7387  1.8337  0.1001
22679SOL    HW271569   7.925   4.509   8.695  0.6611  2.0829  0.6195
22680SOL     OW71570   7.341   0.840   4.531 -0.3123  0.1238  0.3389
22680SOL    HW171571   7.432   0.866   4.545  0.2772 -1.1519 -0.8358
22680SOL    HW271572   7.313   0.801   4.614  0.0084  1.0313  0.8844
22681SOL     OW71573   4.042   8.776   1.512 -0.2807 -0.0330 -0.0727
22681SOL    HW171574   4.074   8.725   1.586  0.9657  0.9143  0.0781
22681SOL    HW271575   4.109   8.766   1.444 -0.9715 -0.1665 -0.7570
22682SOL     OW71576   3.173   5.859   4.769  0.5816  0.1914  0.1019
22682SOL    HW171577   3.261   5.841   4.802 -0.1430 -1.1777  1.4013
22682SOL    HW271578   3.146   5.939   4.815  1.4912  1.2299 -1.0832
22683SOL     OW71579  10.299   3.196   1.235 -0.3304  0.1883  0.2563
22683SOL    HW171580  10.240   3.186   1.161 -2.0644  0.8418  1.4769
22683SOL    HW271581  10.301   3.290   1.251  2.9091  0.4824 -1.1213
22684SOL     OW71582   4.633   5.876   7.041 -0.1352  0.2992  0.5261
22684SOL    HW171583   4.572   5.815   7.084 -1.9042  0.6320 -1.3750
22684SOL    HW271584   4.605   5.963   7.072 -2.8170  0.7480 -2.6557
22685SOL     OW71585   5.906   8.800  11.038 -0.2691 -0.1613 -0.2937
22685SOL    HW171586   5.953   8.775  10.958 -0.2426 -1.0893 -0.0034
22685SOL    HW271587   5.973   8.802  11.106 -0.2398  0.9293 -0.3436
22686SOL     OW71588  11.068   6.817   6.665  0.3459 -0.1158  0.1075
22686SOL    HW171589  10.974   6.834   6.672  0.4672  0.6225 -0.0030
22686SOL    HW271590  11.074   6.722   6.654 -0.3968 -0.1509 -0.0648
22687SOL     OW71591   9.885   3.691   6.089  0.1028 -0.6491 -0.2426
22687SOL    HW171592   9.918   3.734   6.168 -1.6669  0.3513 -0.0078
22687SOL    HW271593   9.796   3.664   6.111  0.3035 -2.2643 -1.2240
22688SOL     OW71594   2.002   7.209   1.961  0.1174  0.4729 -0.3677
22688SOL    HW171595   2.050   7.137   1.920 -0.6934  0.1267 -0.7124
22688SOL    HW271596   1.922   7.217   1.910  0.4782  2.0421 -0.7306
22689SOL     OW71597   3.053   2.064   8.217  0.2778 -0.0576  0.2915
22689SOL    HW171598   3.118   2.121   8.258  0.7812 -1.0381  0.8899
22689SOL    HW271599   3.054   1.985   8.270  1.7146 -1.8139 -2.1614
22690SOL     OW71600   5.793   9.304   4.694 -0.3251  0.5072 -0.5148
22690SOL    HW171601   5.709   9.318   4.651 -0.3811  2.0054  0.0027
22690SOL    HW271602   5.850   9.372   4.657  0.1204  0.6739  0.4464
22691SOL     OW71603   5.315   5.243  11.071 -0.4411 -0.5246 -0.4238
22691SOL    HW171604   5.244   5.198  11.116 -0.7501 -1.1837 -1.5161
22691SOL    HW271605   5.390   5.236  11.130 -0.8452 -1.2886  0.0176
22692SOL     OW71606   2.906   3.668   3.754  0.2202 -0.2355 -0.2363
22692SOL    HW171607   2.835   3.727   3.782  0.5760 -0.0868  0.3634
22692SOL    HW271608   2.973   3.678   3.821  1.0188 -0.0224 -1.0477
22693SOL     OW71609   8.496   4.664   3.011  0.0703  0.0726  0.0638
22693SOL    HW171610   8.557   4.590   3.017 -0.5740 -0.6252 -1.6988
22693SOL    HW271611   8.437   4.642   2.940 -0.5243  2.0218 -0.1060
22694SOL     OW71612   6.622  10.641   2.888 -0.1468 -0.1927 -0.2872
22694SOL    HW171613   6.698  10.619   2.835 -0.1908  0.8360 -0.7920
22694SOL    HW271614   6.547  10.613   2.836 -0.1893  0.8054 -0.7838
22695SOL     OW71615   2.807   4.009   2.346 -0.1468  0.0717 -0.3775
22695SOL    HW171616   2.750   3.993   2.421 -0.1957 -0.1431 -0.4594
22695SOL    HW271617   2.780   3.943   2.282  1.3219 -1.1485  0.2081
22696SOL     OW71618   5.328   2.705   3.717  0.1759 -0.3785 -0.0955
22696SOL    HW171619   5.423   2.697   3.715  0.0897 -1.6462 -2.3382
22696SOL    HW271620   5.304   2.686   3.807  1.9139 -2.2696  0.0342
22697SOL     OW71621   4.897   9.117   9.505 -0.4091 -0.2260  0.2434
22697SOL    HW171622   4.866   9.057   9.437 -1.5420  0.8260 -0.2255
22697SOL    HW271623   4.868   9.203   9.475  1.6708  0.6510  0.5993
22698SOL     OW71624   3.511   8.795   7.859 -0.2706  0.2435  0.4197
22698SOL    HW171625   3.435   8.791   7.917  0.5480  1.9042  1.6824
22698SOL    HW271626   3.559   8.873   7.887  1.2490 -0.0553 -1.1659
22699SOL     OW71627   5.871  10.525   2.319  0.0851 -0.1274 -0.3855
22699SOL    HW171628   5.895  10.441   2.359  0.9978 -0.2925 -1.2516
22699SOL    HW271629   5.852  10.582   2.394  0.0243 -0.9313  0.2286
22700SOL     OW71630   2.469   3.732   8.420 -0.2085  0.6542  0.1842
22700SOL    HW171631   2.406   3.734   8.348  1.1197  0.4456 -1.0432
22700SOL    HW271632   2.540   3.790   8.391  1.9722 -2.0429 -0.3032
22701SOL     OW71633   0.976   8.710   6.163 -0.6163  0.1276 -0.3610
22701SOL    HW171634   1.068   8.687   6.169  0.3343  2.7820 -2.5557
22701SOL    HW271635   0.944   8.706   6.253  2.3323  1.6035  0.8914
22702SOL     OW71636   7.489   0.748   6.464 -0.6565  0.1243  0.3941
22702SOL    HW171637   7.455   0.665   6.431 -0.9746  0.4164 -0.0242
22702SOL    HW271638   7.413   0.791   6.503 -0.4406  0.1128  0.8243
22703SOL     OW71639  11.049   2.300   5.738  0.0758  0.1659 -0.1168
22703SOL    HW171640  10.980   2.237   5.760 -1.0152  1.8668  1.6233
22703SOL    HW271641  11.037   2.316   5.644  0.3360 -2.0812 -0.5923
22704SOL     OW71642   2.760   6.668   7.083 -0.1638 -0.2194 -0.3473
22704SOL    HW171643   2.794   6.600   7.025  0.1099  0.2186 -0.7019
22704SOL    HW271644   2.830   6.683   7.147 -0.3022 -0.4065 -0.1484
22705SOL     OW71645   4.189   6.865   3.083  0.3783  0.2077  1.2097
22705SOL    HW171646   4.257   6.922   3.045  0.3272 -1.5321 -1.7814
22705SOL    HW271647   4.107   6.904   3.054  0.3091 -0.6217  0.2456
22706SOL     OW71648  10.851   4.853   6.582 -0.4635 -0.0770 -0.3337
22706SOL    HW171649  10.763   4.874   6.550  0.1180  0.8103 -1.4360
22706SOL    HW271650  10.901   4.836   6.502  0.3642 -0.5760  0.2888
22707SOL     OW71651   6.606   4.602   5.031  0.5215 -0.4143 -0.3361
22707SOL    HW171652   6.614   4.694   5.058  1.4354  0.0335 -2.0306
22707SOL    HW271653   6.651   4.553   5.100  0.0273  0.3941  0.5901
22708SOL     OW71654   5.591  10.178   6.478 -0.8886 -0.3606 -0.0781
22708SOL    HW171655   5.650  10.218   6.541  0.5453 -2.2967 -0.0967
22708SOL    HW271656   5.616  10.086   6.476 -1.2192 -0.5007 -3.0791
22709SOL     OW71657   1.261   0.759  10.396  0.2398  0.0758  0.1503
22709SOL    HW171658   1.244   0.670  10.429 -0.0228  0.0379 -0.0802
22709SOL    HW271659   1.214   0.762  10.313  0.4973  0.3339  0.0166
22710SOL     OW71660  10.922   6.258  10.465 -0.1992  0.3906  0.3801
22710SOL    HW171661  10.847   6.301  10.506 -0.1745  0.7410  0.0587
22710SOL    HW271662  10.998   6.308  10.495 -0.0534 -0.2146  1.0343
22711SOL     OW71663   8.226   0.591   5.782  0.4719 -0.2045 -0.2208
22711SOL    HW171664   8.141   0.631   5.769  1.0885  0.6895 -1.8173
22711SOL    HW271665   8.211   0.497   5.768 -0.4797 -0.2608  0.9564
22712SOL     OW71666   2.820   5.448  10.751  0.6597  0.0493  0.0004
22712SOL    HW171667   2.865   5.532  10.739 -0.6111  1.0534  1.7179
22712SOL    HW271668   2.730   5.465  10.722  0.3912 -0.7362  0.3429
22713SOL     OW71669   2.958   2.072   0.023 -0.1427  0.3805  0.6342
22713SOL    HW171670   2.884   2.015   0.002  0.5760 -0.4888  0.4090
22713SOL    HW271671   2.937   2.108   0.109 -1.1988  0.7741  0.2303
22714SOL     OW71672   8.669   6.818   0.063 -0.3796 -0.4990 -0.3417
22714SOL    HW171673   8.711   6.870   0.132  0.7446  0.7074 -1.8578
22714SOL    HW271674   8.719   6.737   0.061  0.9541  0.2958 -1.0709
22715SOL     OW71675   9.277   5.258   8.770 -0.1428 -0.3498 -0.4911
22715SOL    HW171676   9.351   5.205   8.740 -0.8570 -1.2605 -0.6592
22715SOL    HW271677   9.204   5.197   8.777 -0.9665  0.5971 -0.6042
22716SOL     OW71678   5.025   2.325  10.204 -0.8348 -0.1220 -0.4924
22716SOL    HW171679   5.111   2.315  10.244  0.8849  2.2542 -3.1616
22716SOL    HW271680   4.967   2.349  10.276  0.7712 -1.4037  1.3140
22717SOL     OW71681   2.185   2.165   0.595 -0.5219 -0.4751 -0.0918
22717SOL    HW171682   2.220   2.238   0.543 -1.9552  0.4252  0.1457
22717SOL    HW271683   2.214   2.086   0.548 -0.7458  0.2847 -1.5690
22718SOL     OW71684   0.042   8.436   5.122 -0.7507  0.2216  0.4241
22718SOL    HW171685   0.128   8.396   5.113  0.0995  2.0368 -0.0620
22718SOL    HW271686  -0.003   8.382   5.188  0.8865 -0.5408  0.9741
22719SOL     OW71687   7.572   1.939   6.429  0.0775 -0.5358 -0.2461
22719SOL    HW171688   7.667   1.939   6.419  0.0678  0.5885 -0.4577
22719SOL    HW271689   7.547   1.847   6.421  0.9811 -0.6699 -1.8613
22720SOL     OW71690   7.684   5.849   8.847 -0.3118  0.0162 -0.0193
22720SOL    HW171691   7.740   5.888   8.914 -1.0229 -1.1757  1.3254
22720SOL    HW271692   7.626   5.790   8.895 -1.9287  0.2997 -1.5109
22721SOL     OW71693   5.691   8.162   6.520  0.2471  0.1020  0.1267
22721SOL    HW171694   5.655   8.250   6.533  1.5344  0.9057 -1.4200
22721SOL    HW271695   5.688   8.150   6.425  1.3778 -0.9729  0.2169
22722SOL     OW71696   7.554   3.042   7.982  0.0179 -0.1828  0.0610
22722SOL    HW171697   7.567   3.137   7.970  1.4543 -0.3319  0.1722
22722SOL    HW271698   7.493   3.017   7.912  1.4840  0.4446 -1.5300
22723SOL     OW71699   7.514   8.403   3.216 -0.1920 -0.0975 -0.1831
22723SOL    HW171700   7.565   8.331   3.254  0.6398  1.2551  1.4127
22723SOL    HW271701   7.580   8.462   3.181 -0.6870  1.1765  0.9681
22724SOL     OW71702   3.401   1.870   2.062 -1.0242 -0.4121 -0.4068
22724SOL    HW171703   3.494   1.867   2.037 -0.6569  2.6890  0.1528
22724SOL    HW271704   3.357   1.812   2.000  1.3527 -2.7105 -0.1157
22725SOL     OW71705   3.746  10.866  11.009 -0.6745  0.3906  0.1828
22725SOL    HW171706   3.692  10.814  10.949  0.5109  0.3964 -0.9348
22725SOL    HW271707   3.768  10.806  11.079 -0.1835 -0.3211 -0.5629
22726SOL     OW71708   2.753   1.538   6.988  0.3825 -0.2934  0.4295
22726SOL    HW171709   2.766   1.632   6.986 -0.8566 -0.1055 -0.1868
22726SOL    HW271710   2.756   1.514   7.080  0.6200  0.3579  0.5931
22727SOL     OW71711   8.147   0.802   1.133 -0.0868  0.1920  0.7965
22727SOL    HW171712   8.197   0.784   1.212  0.6118  1.2110  0.5981
22727SOL    HW271713   8.056   0.791   1.160  0.1742 -0.2452  1.5354
22728SOL     OW71714   5.699   2.911   4.267 -0.0984  0.9072 -0.0045
22728SOL    HW171715   5.603   2.920   4.267 -0.1966  0.3006  2.2819
22728SOL    HW271716   5.720   2.876   4.353  2.0964 -0.2558 -0.9439
22729SOL     OW71717   4.313   2.683   2.061  0.3590  0.8075  0.2482
22729SOL    HW171718   4.328   2.664   2.153 -0.1324  0.0446  0.1823
22729SOL    HW271719   4.295   2.776   2.058 -1.1303  0.5684  1.1285
22730SOL     OW71720   5.926   8.963   5.764 -0.3826 -0.0993 -0.4138
22730SOL    HW171721   6.016   8.996   5.770 -0.6424  1.0905 -2.3241
22730SOL    HW271722   5.878   9.033   5.719 -2.0531 -1.1391 -0.3109
22731SOL     OW71723   2.731   6.112   9.769 -0.1840 -0.2738  0.4069
22731SOL    HW171724   2.684   6.052   9.711 -1.4028 -0.0018  1.0783
22731SOL    HW271725   2.724   6.197   9.725  2.3248 -0.7095 -1.0048
22732SOL     OW71726   4.181   1.754   7.645 -0.0513  0.6130  0.0417
22732SOL    HW171727   4.234   1.706   7.581 -1.9286  0.7580 -1.7091
22732SOL    HW271728   4.104   1.699   7.659  0.0464  0.8515  1.8225
22733SOL     OW71729   8.606   6.453   2.914  1.2486 -0.0079 -0.4512
22733SOL    HW171730   8.543   6.520   2.940  0.0869 -0.5633 -1.7026
22733SOL    HW271731   8.615   6.464   2.819  2.0026 -0.8084 -0.4851
22734SOL     OW71732  10.448   3.304   8.581  0.0431  0.2112  0.0477
22734SOL    HW171733  10.398   3.243   8.635 -0.8971  1.4493  0.6317
22734SOL    HW271734  10.500   3.248   8.523  0.3632 -1.1581  1.5622
22735SOL     OW71735   6.672   0.993   1.351  0.0873  0.0412  0.5247
22735SOL    HW171736   6.762   1.025   1.342  0.5859 -1.7203 -1.4241
22735SOL    HW271737   6.681   0.908   1.394 -0.4032 -0.9936 -1.3207
22736SOL     OW71738   0.718   3.003   0.002 -0.0514  0.0527 -0.1401
22736SOL    HW171739   0.691   3.016  -0.089  1.3686  3.6611 -0.1986
22736SOL    HW271740   0.639   3.018   0.053 -0.0128  2.1988 -0.6503
22737SOL     OW71741   2.774   0.254   9.397  0.1907  0.2289  0.0270
22737SOL    HW171742   2.821   0.279   9.477  1.1178 -1.7995  0.1960
22737SOL    HW271743   2.820   0.176   9.366 -1.5760 -0.3974 -1.1961
22738SOL     OW71744   2.681   1.732   4.623 -0.3917  0.2178  1.0397
22738SOL    HW171745   2.691   1.730   4.718  1.9104  0.6121  0.8778
22738SOL    HW271746   2.679   1.825   4.601  1.8415  0.2198  0.5635
22739SOL     OW71747  10.147   0.195   8.410  0.2575  0.0370 -0.1771
22739SOL    HW171748  10.179   0.254   8.479 -0.2392  1.3588 -1.0421
22739SOL    HW271749  10.207   0.210   8.337 -0.2291 -0.1000 -0.6014
22740SOL     OW71750   2.169   9.102   1.378  0.6434 -0.1067  0.5326
22740SOL    HW171751   2.132   9.018   1.351 -0.1766  0.6764 -0.9088
22740SOL    HW271752   2.206   9.086   1.464  0.4774 -1.9362  0.2896
22741SOL     OW71753   9.745   8.332   7.982  0.1166  0.0801 -0.0599
22741SOL    HW171754   9.757   8.408   7.925 -1.6943 -1.5878 -2.9032
22741SOL    HW271755   9.833   8.314   8.017  0.6462  3.2186  0.4926
22742SOL     OW71756   8.077   4.066   3.044 -0.0510 -0.0321  0.1011
22742SOL    HW171757   8.045   3.983   3.011 -2.0955  0.7929 -0.1521
22742SOL    HW271758   8.165   4.074   3.009  0.0964 -1.9747 -0.0418
22743SOL     OW71759   5.955   7.811   3.766 -0.3421 -0.8745  0.2795
22743SOL    HW171760   5.965   7.879   3.700 -0.2119 -0.1701  1.0021
22743SOL    HW271761   5.879   7.839   3.817 -2.7456 -3.2565 -1.7152
22744SOL     OW71762   8.629  10.614   5.818  0.0053 -0.2791 -0.3386
22744SOL    HW171763   8.609  10.613   5.911 -0.1480 -3.3162 -0.3318
22744SOL    HW271764   8.684  10.692   5.806  0.0793  0.1441  2.2622
22745SOL     OW71765   9.862   1.995   5.327 -0.0796  0.0153  0.4312
22745SOL    HW171766   9.937   1.946   5.359 -0.9109  0.1483  2.7485
22745SOL    HW271767   9.900   2.073   5.286  1.0720 -0.3702  0.7351
22746SOL     OW71768   8.817   7.005   9.345  0.5633  0.3816 -0.0421
22746SOL    HW171769   8.884   6.945   9.311 -0.0894  0.7557 -2.1726
22746SOL    HW271770   8.763   7.026   9.268 -1.5363  0.6962  1.4432
22747SOL     OW71771   9.464   3.635   6.354  0.0368  0.6133  0.7458
22747SOL    HW171772   9.377   3.596   6.349  0.9883 -1.5582 -0.6390
22747SOL    HW271773   9.484   3.639   6.447 -0.8398 -0.5431  0.9987
22748SOL     OW71774   9.493   8.648   0.774  0.4108  0.1515 -0.3237
22748SOL    HW171775   9.535   8.652   0.860 -0.7090 -0.2642  0.2653
22748SOL    HW271776   9.492   8.556   0.751  1.1394  0.3057 -1.0256
22749SOL     OW71777   0.379   9.312   0.591  0.4949 -0.3101  0.2221
22749SOL    HW171778   0.297   9.265   0.605 -1.0755  1.7638 -1.3602
22749SOL    HW271779   0.355   9.389   0.539  3.4017  0.5797 -0.0311
22750SOL     OW71780   1.983   3.808   2.758 -0.7733 -0.1589  0.2383
22750SOL    HW171781   2.049   3.765   2.705 -2.4248 -1.3805 -0.9367
22750SOL    HW271782   2.000   3.778   2.847 -0.0218 -0.8012 -0.1116
22751SOL     OW71783   7.944   7.390   9.211 -0.1180  0.2108 -0.0686
22751SOL    HW171784   7.918   7.363   9.299 -1.3649  0.8748 -0.1966
22751SOL    HW271785   7.982   7.477   9.223  1.3397 -0.4119  0.0078
22752SOL     OW71786   4.391  10.456   9.380  0.3249  0.3231 -0.2873
22752SOL    HW171787   4.462  10.465   9.316  2.0641  0.5516  1.5973
22752SOL    HW271788   4.431  10.475   9.464 -1.2375 -2.4793  1.2599
22753SOL     OW71789   1.689   3.198   6.461 -0.6281 -0.1813 -0.5059
22753SOL    HW171790   1.729   3.259   6.399  0.4049  1.5764  1.7326
22753SOL    HW271791   1.606   3.240   6.485  0.5149  0.9630  1.7632
22754SOL     OW71792   4.798   6.978   7.804 -0.5823  0.4316 -0.1072
22754SOL    HW171793   4.729   7.028   7.849  0.6009  1.3452  0.7948
22754SOL    HW271794   4.838   7.042   7.745 -0.5705 -0.1247 -0.7092
22755SOL     OW71795   1.712   4.324   9.312 -0.0905 -0.1065  0.4482
22755SOL    HW171796   1.804   4.345   9.293 -0.3997  0.1749 -0.8354
22755SOL    HW271797   1.662   4.394   9.271 -0.9526 -1.1437 -0.3621
22756SOL     OW71798   6.858   7.558   6.520  0.3210 -0.1982  0.1361
22756SOL    HW171799   6.861   7.518   6.433  0.4127  0.6117 -0.2363
22756SOL    HW271800   6.920   7.630   6.515 -0.0346  0.1521  0.7261
22757SOL     OW71801   4.240   1.629   7.372 -0.3289  0.0560 -0.0272
22757SOL    HW171802   4.293   1.552   7.351 -1.1157 -0.2698 -0.9225
22757SOL    HW271803   4.300   1.703   7.361  0.5004 -0.4351  1.0883
22758SOL     OW71804   1.866   1.517   1.843 -0.3396 -0.1349  0.3790
22758SOL    HW171805   1.788   1.565   1.871 -0.3460 -0.8856  1.7814
22758SOL    HW271806   1.838   1.469   1.765 -0.4115  1.8481 -0.8604
22759SOL     OW71807   4.548   1.570   5.599  0.4458 -0.4368  0.1489
22759SOL    HW171808   4.529   1.664   5.595  5.0701  0.6756 -3.2441
22759SOL    HW271809   4.596   1.558   5.681 -2.6946 -0.6893  2.1262
22760SOL     OW71810   9.101   1.360   3.825 -0.5599  0.0648 -0.2820
22760SOL    HW171811   9.135   1.345   3.914  1.3252 -1.6029 -1.2135
22760SOL    HW271812   9.172   1.403   3.779 -2.0715  2.3248 -0.6558
22761SOL     OW71813   2.621   0.933   2.400  0.6542 -0.7871  0.0246
22761SOL    HW171814   2.529   0.915   2.417  0.8195  0.5706  2.8854
22761SOL    HW271815   2.621   0.980   2.316 -1.1765 -1.2498 -0.2800
22762SOL     OW71816   7.756   9.622   2.989 -0.0049  0.2724  0.5187
22762SOL    HW171817   7.699   9.545   2.982 -0.8034  0.9654 -1.3800
22762SOL    HW271818   7.839   9.593   2.952 -0.2608  0.2653 -0.0642
22763SOL     OW71819   0.273   6.778   9.568 -0.0191 -0.1468 -0.3837
22763SOL    HW171820   0.196   6.750   9.616 -2.2587  0.6097 -3.2733
22763SOL    HW271821   0.332   6.702   9.569 -0.6987 -0.7016  1.9776
22764SOL     OW71822   3.719   1.568   5.944 -0.0445 -0.1444 -0.0634
22764SOL    HW171823   3.723   1.651   5.897  0.3989 -0.8497 -1.3216
22764SOL    HW271824   3.659   1.584   6.017  0.4565  1.4203  0.0202
22765SOL     OW71825   2.905   9.017   0.808  0.2362 -0.1974 -0.7020
22765SOL    HW171826   2.918   9.062   0.891  0.7970 -1.3042 -0.1704
22765SOL    HW271827   2.823   8.969   0.820 -1.1847  1.8155 -1.8105
22766SOL     OW71828   5.032   3.119   8.844 -0.4332  0.2359 -0.1815
22766SOL    HW171829   5.019   3.162   8.929  0.4185  1.8403 -0.8327
22766SOL    HW271830   4.943   3.108   8.809 -0.6744  1.8264 -0.1463
22767SOL     OW71831   2.458   4.578   4.357 -0.0992  0.2387  0.4972
22767SOL    HW171832   2.463   4.546   4.447 -0.8825  1.8396  1.1331
22767SOL    HW271833   2.427   4.502   4.307  1.3127 -0.9631  1.3777
22768SOL     OW71834   3.204   5.009   3.704  0.7895  0.7025  0.2399
22768SOL    HW171835   3.170   4.920   3.719  2.0154  0.2284  0.3577
22768SOL    HW271836   3.126   5.062   3.690 -0.0363 -0.1895  1.2267
22769SOL     OW71837   3.593  10.129   6.712 -0.6482  0.6319  0.5455
22769SOL    HW171838   3.567  10.128   6.804 -1.9997 -0.7311  0.1918
22769SOL    HW271839   3.549  10.206   6.675 -1.5045  0.2336  0.6970
22770SOL     OW71840  10.944   6.924   1.497  0.6390 -0.5017 -0.0217
22770SOL    HW171841  11.017   6.933   1.436  2.9774 -0.9702  2.5309
22770SOL    HW271842  10.966   6.982   1.570  0.0568 -2.8908  2.1966
22771SOL     OW71843   6.179   8.438   0.536 -0.2173  0.2347  0.3286
22771SOL    HW171844   6.092   8.475   0.522 -1.0949 -0.8538  2.4640
22771SOL    HW271845   6.228   8.507   0.579  0.2124  1.0565 -1.4006
22772SOL     OW71846   3.162   0.221   3.566  0.0436  0.0038  0.4222
22772SOL    HW171847   3.179   0.149   3.627  1.6110  0.3575  0.4551
22772SOL    HW271848   3.246   0.234   3.521 -0.3035  1.5845  0.1786
22773SOL     OW71849   5.216  10.995   9.190  0.2583 -0.1027 -0.1883
22773SOL    HW171850   5.155  10.960   9.125  1.6977 -0.3980 -1.4400
22773SOL    HW271851   5.278  11.047   9.139 -0.5596  2.5777  1.3579
22774SOL     OW71852   2.544   9.314   8.692 -0.2574  0.3496  0.0308
22774SOL    HW171853   2.588   9.242   8.647  0.6815 -0.3230  1.9158
22774SOL    HW271854   2.494   9.272   8.761 -0.3050  1.4453  0.6884
22775SOL     OW71855   8.668   5.268   6.693 -0.6026  0.0113 -0.5216
22775SOL    HW171856   8.621   5.189   6.667  0.6159 -1.2952  0.9799
22775SOL    HW271857   8.758   5.254   6.662 -0.6044  1.3150 -1.1703
22776SOL     OW71858   9.530   7.686  10.542 -0.4693  0.0919  0.1161
22776SOL    HW171859   9.545   7.605  10.591 -0.6971  0.2947  0.5273
22776SOL    HW271860   9.558   7.666  10.453  2.9092  0.6226  0.9289
22777SOL     OW71861   1.099   3.918   3.462  0.7645  1.0322 -0.1835
22777SOL    HW171862   1.127   3.883   3.546 -1.2895  0.9461  0.5375
22777SOL    HW271863   1.044   3.993   3.484 -0.9212  0.2166 -1.3326
22778SOL     OW71864   3.233   0.299   4.150 -0.0414 -0.6116  0.5959
22778SOL    HW171865   3.270   0.361   4.087 -0.7755 -0.6896  0.0709
22778SOL    HW271866   3.158   0.260   4.104 -1.7075  0.6312  2.1269
22779SOL     OW71867   1.196  10.813   6.402 -1.4180  0.4482 -0.5121
22779SOL    HW171868   1.161  10.817   6.313  0.0533  0.9473 -1.0873
22779SOL    HW271869   1.135  10.866   6.453 -0.6746  2.6879 -1.8016
22780SOL     OW71870   2.782   9.818  10.748  0.4737 -0.4602  0.3286
22780SOL    HW171871   2.723   9.848  10.679  2.1414  1.3401 -0.4258
22780SOL    HW271872   2.744   9.735  10.778 -1.2365 -0.4415 -1.5509
22781SOL     OW71873   0.435   0.088   0.970  0.1729 -0.0106  0.3226
22781SOL    HW171874   0.478   0.097   1.055  1.9815  1.2908 -0.6797
22781SOL    HW271875   0.342   0.081   0.991  0.5634  0.4508  2.3900
22782SOL     OW71876   9.494   7.479   1.489 -0.3402  0.1066  0.1742
22782SOL    HW171877   9.407   7.457   1.455  0.1480  0.4122 -1.3341
22782SOL    HW271878   9.496   7.438   1.576 -1.3619 -1.3756 -0.4443
22783SOL     OW71879   9.184   9.103   1.345  0.2336  0.1668 -0.3897
22783SOL    HW171880   9.098   9.063   1.357  0.4999 -1.1407 -2.4265
22783SOL    HW271881   9.209   9.081   1.255  2.1478  1.6120 -0.2815
22784SOL     OW71882   4.824   1.400   5.041 -0.3227 -0.0143 -0.3039
22784SOL    HW171883   4.865   1.323   5.002  0.5897  0.3066 -0.0064
22784SOL    HW271884   4.855   1.474   4.989  1.1532  0.4528  1.1326
22785SOL     OW71885   2.797   4.244   0.174  0.0185  0.6121 -0.1014
22785SOL    HW171886   2.805   4.230   0.080  1.9587 -3.8398  0.4906
22785SOL    HW271887   2.874   4.295   0.198  0.9190 -0.4422 -0.6666
22786SOL     OW71888  10.404   2.762   5.959 -0.1246  0.0283  0.3283
22786SOL    HW171889  10.466   2.689   5.969  0.0807  0.1690  0.0909
22786SOL    HW271890  10.459   2.837   5.935 -0.4854 -0.0671 -0.8629
22787SOL     OW71891   6.742   7.220   4.083  0.4716  0.1714  0.1316
22787SOL    HW171892   6.680   7.193   4.016  0.1983 -1.4841  0.9938
22787SOL    HW271893   6.695   7.284   4.136  0.5722  1.2246 -1.0141
22788SOL     OW71894  10.857  11.091   8.186  0.1522  0.0614 -0.2753
22788SOL    HW171895  10.862  11.007   8.231  1.2571  0.7538  0.9694
22788SOL    HW271896  10.788  11.138   8.232  2.0120  1.1840  1.5376
22789SOL     OW71897   4.210   4.682   0.494  0.1095  0.8623 -0.1236
22789SOL    HW171898   4.127   4.676   0.541  0.6967  2.2451  1.1363
22789SOL    HW271899   4.224   4.593   0.460 -1.6411  0.4948  0.0163
22790SOL     OW71900   0.064  10.470   5.877 -0.4869  0.3240  0.2982
22790SOL    HW171901   0.071  10.404   5.808  0.3535 -0.6152  1.2561
22790SOL    HW271902  -0.029  10.492   5.879 -0.9860 -1.6394  0.6733
22791SOL     OW71903   4.771  10.209   0.532 -0.0081  0.3313 -0.0134
22791SOL    HW171904   4.748  10.266   0.459  3.0093  1.9590  0.1183
22791SOL    HW271905   4.800  10.127   0.491 -0.8655  0.2395 -0.4442
22792SOL     OW71906   6.528   3.805   0.329  0.1868 -0.1864 -0.0869
22792SOL    HW171907   6.509   3.741   0.260 -4.6703  0.5105  0.2921
22792SOL    HW271908   6.528   3.753   0.410  2.7714 -0.5064 -0.1884
22793SOL     OW71909   4.162   7.938   6.088 -0.4690  0.3992  0.0175
22793SOL    HW171910   4.198   7.989   6.016 -1.6878  0.4479 -0.5770
22793SOL    HW271911   4.139   8.003   6.154 -0.2181  0.4369  0.0692
22794SOL     OW71912   9.909   2.710   6.703 -0.3976  0.5864  0.3651
22794SOL    HW171913   9.936   2.674   6.787 -0.2391  0.5880  0.3164
22794SOL    HW271914   9.985   2.760   6.673  0.2197 -0.8537 -0.5901
22795SOL     OW71915  10.891   5.119   9.553  0.2352 -0.4232  0.1047
22795SOL    HW171916  10.878   5.088   9.643 -2.0204 -1.2792 -0.4680
22795SOL    HW271917  10.845   5.203   9.550 -0.9889 -1.1099 -0.6404
22796SOL     OW71918   7.690   2.104   2.303 -0.0470 -0.5253 -0.3851
22796SOL    HW171919   7.641   2.099   2.220  0.2745  1.9935 -0.7879
22796SOL    HW271920   7.624   2.127   2.368  0.1747  0.3835 -0.4766
22797SOL     OW71921   2.150   9.055   3.274 -0.2408  0.3470 -0.2094
22797SOL    HW171922   2.230   9.093   3.311 -1.0579  0.2611  1.7768
22797SOL    HW271923   2.180   8.977   3.226  0.8570  0.2056  0.6632
22798SOL     OW71924   5.114   5.689   7.254 -0.5934  0.2838 -0.5585
22798SOL    HW171925   5.152   5.777   7.257 -1.0009  0.4439 -0.0253
22798SOL    HW271926   5.043   5.691   7.318 -1.5826  0.0253 -1.6115
22799SOL     OW71927   8.767   1.629   2.324  0.5379  0.2874  0.2463
22799SOL    HW171928   8.749   1.601   2.414 -0.1663  0.6298  0.2198
22799SOL    HW271929   8.850   1.676   2.330  0.4457  0.3943  0.7363
22800SOL     OW71930   0.011   4.152  10.629  0.0972 -0.4453  0.1428
22800SOL    HW171931   0.030   4.229  10.683 -0.0268 -1.2753  1.4352
22800SOL    HW271932  -0.040   4.095  10.687 -0.5330 -1.1395 -1.0625
22801SOL     OW71933   5.133   4.999   3.412 -0.1918  0.4222 -0.3529
22801SOL    HW171934   5.194   4.956   3.472 -0.1139  0.1181 -0.6413
22801SOL    HW271935   5.163   4.972   3.325 -1.3820 -0.6054 -0.4679
22802SOL     OW71936   7.543   6.597   7.765 -0.1349  0.0316  0.1463
22802SOL    HW171937   7.522   6.520   7.818  1.3776 -1.3899 -1.2033
22802SOL    HW271938   7.598   6.651   7.822 -3.0177  1.3401  1.9123
22803SOL     OW71939   8.097   1.836   6.440 -0.6587 -0.0815  1.1028
22803SOL    HW171940   8.135   1.842   6.527 -1.0922  0.2149  1.2736
22803SOL    HW271941   8.102   1.744   6.417 -0.8281 -0.2084  1.5685
22804SOL     OW71942   9.188   4.664   8.800  0.4203 -0.2564  0.7735
22804SOL    HW171943   9.195   4.753   8.766  1.2008  0.0793  1.7660
22804SOL    HW271944   9.217   4.608   8.728  0.7349  0.3402  0.4338
22805SOL     OW71945   9.218   1.977   0.817  0.8681  0.4263 -0.2141
22805SOL    HW171946   9.147   1.962   0.755  0.4161  0.5881  0.2486
22805SOL    HW271947   9.248   2.066   0.798  0.8773  0.3966 -0.3408
22806SOL     OW71948   9.132   1.183   2.043 -0.0389  0.2448  0.3761
22806SOL    HW171949   9.179   1.228   2.113  2.6542 -1.1644 -0.3996
22806SOL    HW271950   9.197   1.169   1.975 -1.7834 -1.1955 -1.1080
22807SOL     OW71951   6.688   5.164   0.860 -0.3709  0.3229 -0.2273
22807SOL    HW171952   6.669   5.073   0.838 -0.1816  0.1706  0.2260
22807SOL    HW271953   6.760   5.188   0.801 -0.8580  0.3894 -0.8026
22808SOL     OW71954   1.502   5.341   9.677 -0.3855  0.7975  0.2361
22808SOL    HW171955   1.538   5.270   9.624  0.8187 -1.3115  3.5433
22808SOL    HW271956   1.528   5.421   9.631  2.3872 -0.8199 -1.2848
22809SOL     OW71957   4.140   3.575   5.471 -0.4038  0.0275  0.4446
22809SOL    HW171958   4.055   3.578   5.427 -0.4004  0.5879  0.4657
22809SOL    HW271959   4.134   3.643   5.538 -0.6928 -1.2964  1.8325
22810SOL     OW71960   3.018   6.941   4.142 -0.2717 -0.0791 -0.1867
22810SOL    HW171961   3.044   7.028   4.112  0.4602  0.0971  0.9089
22810SOL    HW271962   2.922   6.944   4.146 -0.3737  0.0473 -1.9441
22811SOL     OW71963   6.410   7.243   3.416  0.1625 -0.6897 -0.7448
22811SOL    HW171964   6.412   7.248   3.320 -1.6935 -2.6828 -0.9651
22811SOL    HW271965   6.480   7.181   3.438 -1.2941 -2.5154 -1.0964
22812SOL     OW71966   0.105   1.099   5.938 -0.0284 -0.3063 -0.2608
22812SOL    HW171967   0.034   1.154   5.970  1.6191  1.4035  0.6580
22812SOL    HW271968   0.070   1.010   5.943 -2.8757  0.5839 -2.0672
22813SOL     OW71969   7.014   5.332   2.276 -0.9374  0.0117 -0.0990
22813SOL    HW171970   7.071   5.321   2.199 -0.8290  0.3119 -0.0659
22813SOL    HW271971   7.008   5.245   2.315  1.1415  0.3223  1.0456
22814SOL     OW71972   0.480   9.781   1.260 -0.5758 -0.4050  0.2551
22814SOL    HW171973   0.463   9.719   1.188 -0.9946 -1.0316  0.8829
22814SOL    HW271974   0.399   9.832   1.267 -0.4238 -0.1374  0.0876
22815SOL     OW71975   0.190   5.394   0.151 -0.4856 -0.1047  0.4478
22815SOL    HW171976   0.116   5.374   0.209 -0.8320  1.1595  0.4758
22815SOL    HW271977   0.172   5.482   0.119  1.0361  0.2489  0.4942
22816SOL     OW71978   4.097  10.745   2.686  0.1565 -0.4296  0.0999
22816SOL    HW171979   4.045  10.781   2.758  1.8489  1.5763  0.4168
22816SOL    HW271980   4.052  10.664   2.662 -2.6789  0.8177  0.7865
22817SOL     OW71981   8.516   3.452   7.842 -0.5010 -0.2107  0.7212
22817SOL    HW171982   8.596   3.471   7.794 -0.1468  1.2046  1.8106
22817SOL    HW271983   8.488   3.367   7.808  1.2115 -0.5396  0.0107
22818SOL     OW71984   8.612   9.340   9.460 -0.1666  0.4202 -0.1884
22818SOL    HW171985   8.598   9.298   9.376  0.6201  0.4659 -0.3504
22818SOL    HW271986   8.704   9.321   9.482 -0.3009  0.5806  0.5559
22819SOL     OW71987   7.486   6.003   9.043  0.3282  0.1111 -0.2288
22819SOL    HW171988   7.581   6.001   9.059  0.3947  0.7236 -0.4881
22819SOL    HW271989   7.454   6.071   9.102  0.0867  0.0552 -0.2978
22820SOL     OW71990   5.692   5.764   4.700 -0.1395 -0.2205 -0.1263
22820SOL    HW171991   5.702   5.677   4.737 -0.3018 -0.8639 -1.5381
22820SOL    HW271992   5.761   5.770   4.634  1.5637  1.7161  1.6860
22821SOL     OW71993   6.191   9.597   6.896 -0.5150 -0.2173 -0.4403
22821SOL    HW171994   6.254   9.618   6.827  1.3909 -0.2349  1.1877
22821SOL    HW271995   6.184   9.501   6.893 -2.0550 -0.0912 -1.9041
22822SOL     OW71996   8.590   5.441   1.690 -0.3603  0.4161  0.2028
22822SOL    HW171997   8.632   5.447   1.775 -0.7803  1.1754  0.3705
22822SOL    HW271998   8.620   5.358   1.653  0.4868  0.4764  0.7321
22823SOL     OW71999   7.737   9.452   8.861  0.4828 -0.3464  0.1006
22823SOL    HW172000   7.641   9.452   8.853  0.3546 -1.4110  1.3681
22823SOL    HW272001   7.759   9.545   8.872 -0.3518 -0.0465 -0.5928
22824SOL     OW72002   3.381   6.302   9.460 -0.4470  0.3800  0.1671
22824SOL    HW172003   3.396   6.387   9.420 -2.3456  0.3111 -0.8214
22824SOL    HW272004   3.372   6.321   9.554  0.3052  1.0926  0.0973
22825SOL     OW72005   2.145   1.605   8.934  0.0167  0.4859  0.2881
22825SOL    HW172006   2.059   1.607   8.976 -0.0068 -1.8734  0.5105
22825SOL    HW272007   2.125   1.600   8.840 -0.1027  0.1583  0.3283
22826SOL     OW72008   7.983   6.712   7.574 -0.9237  0.4322  0.5955
22826SOL    HW172009   7.962   6.802   7.551 -2.0810 -0.7821 -4.0672
22826SOL    HW272010   7.916   6.660   7.530  0.7086 -2.8384  1.6699
22827SOL     OW72011   8.428   9.200   7.059  0.4096  0.1028  0.2402
22827SOL    HW172012   8.449   9.283   7.102  0.3397 -0.0126  0.4987
22827SOL    HW272013   8.372   9.225   6.986 -1.8714  0.0812  1.8595
22828SOL     OW72014   4.145   5.427   0.676  0.0769 -0.0976  0.1250
22828SOL    HW172015   4.049   5.427   0.677  0.0057  0.6736 -1.9900
22828SOL    HW272016   4.168   5.436   0.584  2.2262 -1.7556  0.4190
22829SOL     OW72017   3.344   8.358   6.691 -0.0797  0.3634  0.1963
22829SOL    HW172018   3.319   8.305   6.767  1.6302 -1.1632 -0.2403
22829SOL    HW272019   3.380   8.438   6.729  1.5071 -0.7164  1.0740
22830SOL     OW72020   7.025   6.603   4.458  0.0263 -0.6554 -0.1339
22830SOL    HW172021   7.054   6.691   4.481  0.8675 -1.1296  0.7223
22830SOL    HW272022   7.105   6.551   4.457 -0.5982 -1.6761  0.6613
22831SOL     OW72023   5.521  10.089   2.598  0.2574 -0.0218  0.1039
22831SOL    HW172024   5.564  10.171   2.624 -3.7008  2.8198 -1.2371
22831SOL    HW272025   5.429  10.101   2.623 -1.1343 -2.6749 -3.0049
22832SOL     OW72026   6.316   5.311  11.027 -0.3096  0.5126  0.6311
22832SOL    HW172027   6.319   5.397  11.070  1.9207  0.3877  0.8189
22832SOL    HW272028   6.366   5.253  11.085  1.9157  0.0924 -1.5422
22833SOL     OW72029   4.790   3.956   7.501 -0.2714  0.2504  0.5349
22833SOL    HW172030   4.847   3.982   7.573  1.0114 -1.5561  0.2432
22833SOL    HW272031   4.842   3.972   7.422 -0.4841 -0.6037  0.2103
22834SOL     OW72032   0.504   0.355   8.718  0.3024 -0.4090 -0.3575
22834SOL    HW172033   0.518   0.434   8.666  0.2422  0.1403  0.4461
22834SOL    HW272034   0.437   0.380   8.782 -1.0325 -1.6407 -1.2246
22835SOL     OW72035   0.575   8.664   8.387  0.3529 -0.0294 -0.0914
22835SOL    HW172036   0.638   8.722   8.344  0.1848  0.1744 -0.0639
22835SOL    HW272037   0.519   8.633   8.316  0.8249 -0.6453 -0.1979
22836SOL     OW72038   5.223   2.922   5.355 -0.1851 -0.2149  0.3031
22836SOL    HW172039   5.148   2.909   5.413 -0.4757  1.2960  0.3039
22836SOL    HW272040   5.240   2.836   5.318 -0.1939 -1.1629  2.3728
22837SOL     OW72041   2.463   9.274   4.098  0.0790 -0.0898 -0.8570
22837SOL    HW172042   2.376   9.295   4.065  0.0647  1.6342  0.1212
22837SOL    HW272043   2.516   9.258   4.020 -1.1164 -1.2501 -1.4576
22838SOL     OW72044   7.833   2.167   8.852  0.2412  0.6356  0.7782
22838SOL    HW172045   7.756   2.128   8.811 -0.3484  2.2463  0.2984
22838SOL    HW272046   7.799   2.242   8.901  1.5264  1.4602  0.4481
22839SOL     OW72047   7.584  10.652   6.130 -0.4017 -0.2307 -0.2160
22839SOL    HW172048   7.659  10.709   6.144 -1.6424  1.0416  1.5271
22839SOL    HW272049   7.558  10.669   6.039 -1.1004  2.4557  0.4316
22840SOL     OW72050   5.075   0.591  10.733 -0.1707 -0.0487  0.5840
22840SOL    HW172051   5.051   0.561  10.645 -1.7519  1.2253  0.5310
22840SOL    HW272052   5.161   0.632  10.722 -0.2727 -0.0522 -0.3261
22841SOL     OW72053   0.904   3.858   2.825 -0.1013  0.6431  0.0670
22841SOL    HW172054   0.829   3.907   2.859 -0.5483 -0.7136  1.1179
22841SOL    HW272055   0.867   3.799   2.759  0.4322  1.6372 -1.1846
22842SOL     OW72056   5.957   8.716  10.133 -0.7223 -0.5309  0.5805
22842SOL    HW172057   6.005   8.707  10.215 -1.7639 -0.0845  1.2668
22842SOL    HW272058   5.891   8.782  10.152  0.0295  0.7856 -1.1037
22843SOL     OW72059   9.504   5.707   9.425  0.5576 -0.5814  0.1793
22843SOL    HW172060   9.585   5.657   9.426  0.5483 -0.5990  0.0702
22843SOL    HW272061   9.445   5.657   9.368  0.5700 -0.4124  0.0172
22844SOL     OW72062   6.879   4.680   2.039  0.2262 -0.4919  0.1722
22844SOL    HW172063   6.871   4.672   2.134 -0.4124 -1.2716  0.0611
22844SOL    HW272064   6.949   4.619   2.016  1.6484  1.0073  0.3199
22845SOL     OW72065  10.302   4.464   1.610  0.1538  0.6372 -0.2005
22845SOL    HW172066  10.293   4.496   1.700 -0.3107  3.3799 -1.1263
22845SOL    HW272067  10.218   4.486   1.569 -0.0853 -1.5997 -1.0862
22846SOL     OW72068   0.482   4.833   8.457 -0.3473 -0.2237  0.1628
22846SOL    HW172069   0.442   4.831   8.370  1.5271  1.3361 -0.8244
22846SOL    HW272070   0.446   4.912   8.498  1.2232  0.9071 -0.5386
22847SOL     OW72071  10.502   7.647   7.309  0.2683  0.7342  0.2129
22847SOL    HW172072  10.447   7.575   7.278  1.2233  0.6102 -1.2947
22847SOL    HW272073  10.575   7.603   7.352  1.0372  0.7649 -1.0282
22848SOL     OW72074   7.751   2.423   6.994  0.5194 -0.1953  0.6567
22848SOL    HW172075   7.780   2.368   6.920  1.1529  0.4394  0.4266
22848SOL    HW272076   7.669   2.462   6.964  0.1539 -0.8608  0.7535
22849SOL     OW72077  10.691   5.895   5.279  0.0525 -0.0117  0.6847
22849SOL    HW172078  10.662   5.983   5.300  0.1902 -0.0556  1.0669
22849SOL    HW272079  10.787   5.900   5.279  0.0632 -0.1857  0.8234
22850SOL     OW72080   5.579  10.705   9.700 -0.5507 -0.3041 -0.0677
22850SOL    HW172081   5.524  10.741   9.769  0.0202 -2.3159  1.5399
22850SOL    HW272082   5.669  10.718   9.731 -0.2293 -0.3476 -0.9313
22851SOL     OW72083   4.867   9.912   5.173  0.0442  0.1858  0.3467
22851SOL    HW172084   4.953   9.946   5.195  0.6552  0.1099 -1.6936
22851SOL    HW272085   4.816   9.989   5.147  0.4133 -0.0428 -1.1515
22852SOL     OW72086   8.144  10.157   7.123 -1.3350 -0.2357  0.0741
22852SOL    HW172087   8.184  10.092   7.065 -2.0771 -0.5574 -0.0785
22852SOL    HW272088   8.202  10.158   7.200 -1.5166 -1.3692  0.2502
22853SOL     OW72089   3.817  10.391   4.687 -0.6084  0.1483 -0.2093
22853SOL    HW172090   3.808  10.307   4.642 -0.9471  0.3973 -0.6145
22853SOL    HW272091   3.771  10.453   4.631  1.2794  0.9762 -0.9085
22854SOL     OW72092   1.842   5.913   2.661 -0.1650  0.2701 -0.6198
22854SOL    HW172093   1.886   5.834   2.631  0.8030  0.1176  1.0170
22854SOL    HW272094   1.751   5.902   2.636 -0.2369 -1.7963  0.3576
22855SOL     OW72095   8.249   4.605   9.292 -0.1203 -0.0712  0.0663
22855SOL    HW172096   8.253   4.545   9.218 -0.1335  0.2738 -0.2185
22855SOL    HW272097   8.313   4.571   9.355  0.0904 -0.2086 -0.2211
22856SOL     OW72098   2.062   6.268   1.070  0.4400  0.5730  0.0011
22856SOL    HW172099   1.970   6.245   1.057  0.3752  2.0712 -2.9309
22856SOL    HW272100   2.110   6.203   1.019  0.9921  0.2799  0.8731
22857SOL     OW72101   6.997   5.507  10.206  0.1357  0.2885 -0.3799
22857SOL    HW172102   6.960   5.467  10.285 -0.8447 -1.0631 -1.4618
22857SOL    HW272103   6.929   5.569  10.177  0.0188 -0.0135 -0.7525
22858SOL     OW72104   5.657   7.148   8.211 -0.3374  0.7856 -0.3993
22858SOL    HW172105   5.589   7.083   8.224  0.4303  0.0741  0.1629
22858SOL    HW272106   5.726   7.123   8.272 -0.8588  3.3115  1.3882
22859SOL     OW72107   9.365   0.450   7.267  0.0244  0.1577 -0.0011
22859SOL    HW172108   9.451   0.408   7.258 -0.5694 -1.2517  0.5951
22859SOL    HW272109   9.304   0.386   7.232 -0.9684  0.3192  1.3802
22860SOL     OW72110   5.230   4.267   8.940 -0.0648 -0.0597  0.7648
22860SOL    HW172111   5.312   4.309   8.962  0.6039 -1.9896  2.2894
22860SOL    HW272112   5.254   4.197   8.879 -0.9438  0.7709 -0.5963
22861SOL     OW72113   9.231   8.987   2.809 -1.0413  0.2389  0.4156
22861SOL    HW172114   9.191   9.073   2.824  0.0643  0.6314  1.2595
22861SOL    HW272115   9.299   9.003   2.744 -0.0787  0.2442  1.4050
22862SOL     OW72116   9.627   6.389   1.256  0.3181 -0.0478 -0.2513
22862SOL    HW172117   9.680   6.338   1.194 -1.2948 -0.2809 -1.5114
22862SOL    HW272118   9.545   6.406   1.209 -0.0376  1.8760  0.9387
22863SOL     OW72119   0.529   5.861  10.438 -0.4975 -0.1110 -0.4443
22863SOL    HW172120   0.525   5.773  10.476  0.3895 -0.0353 -0.1617
22863SOL    HW272121   0.596   5.906  10.490 -1.0639  0.7870 -0.4757
22864SOL     OW72122   2.628   0.316   4.908 -0.3888  0.2184  0.0277
22864SOL    HW172123   2.722   0.335   4.911 -0.1046 -0.8872 -0.8972
22864SOL    HW272124   2.586   0.394   4.944  0.9648 -0.1658  2.7110
22865SOL     OW72125   2.950   0.821   5.836  0.0162 -0.2749 -0.1250
22865SOL    HW172126   3.026   0.764   5.827 -0.0369 -0.3301 -0.2326
22865SOL    HW272127   2.877   0.761   5.851  0.0521 -0.2000  0.3588
22866SOL     OW72128   2.564   3.307   6.303  0.8065  0.6033  0.1057
22866SOL    HW172129   2.659   3.295   6.304  0.9535  1.6505  0.0444
22866SOL    HW272130   2.549   3.379   6.242  0.0937  1.3183  1.0856
22867SOL     OW72131   5.122   5.236   9.668  0.3104 -0.0479 -0.5326
22867SOL    HW172132   5.151   5.176   9.599 -0.1937  1.4342 -2.1247
22867SOL    HW272133   5.040   5.272   9.636 -0.2150  0.3077  1.1125
22868SOL     OW72134   8.046  10.149  10.525 -0.1299 -0.0593  0.0424
22868SOL    HW172135   7.962  10.128  10.484 -0.5876 -1.2046  1.4748
22868SOL    HW272136   8.112  10.126  10.460 -0.8848 -0.1248 -0.7143
22869SOL     OW72137   7.155   5.031   4.848 -0.5839  0.1364 -0.0017
22869SOL    HW172138   7.107   5.046   4.930 -0.9416  1.6606 -0.4513
22869SOL    HW272139   7.090   4.996   4.788 -0.4550 -0.4591  0.2059
22870SOL     OW72140   1.959   5.567   4.904  0.1218  0.7332 -0.3908
22870SOL    HW172141   1.865   5.557   4.887 -0.2681  0.5269  1.6358
22870SOL    HW272142   1.963   5.614   4.988  1.8419  1.2256 -0.7215
22871SOL     OW72143   7.179   1.666   6.413  0.0153 -0.1768 -0.6972
22871SOL    HW172144   7.194   1.573   6.398  0.3812 -0.0938 -0.8537
22871SOL    HW272145   7.083   1.674   6.420 -0.1049 -0.3931 -1.8564
22872SOL     OW72146  10.147   7.024   1.766 -0.2554 -0.1021 -0.2331
22872SOL    HW172147  10.228   7.031   1.717  1.0131  2.0762  1.9470
22872SOL    HW272148  10.132   7.112   1.801 -2.7092 -0.8196  0.7482
22873SOL     OW72149   2.955   8.876  10.503  0.4388 -0.1050 -0.2323
22873SOL    HW172150   3.020   8.879  10.573  0.1133  1.0002  0.0453
22873SOL    HW272151   2.964   8.960  10.459 -1.6087  0.5832  0.5717
22874SOL     OW72152   5.271  10.064   7.307 -0.0770  0.1917 -0.6685
22874SOL    HW172153   5.326  10.026   7.239 -0.2710  1.6116 -1.6643
22874SOL    HW272154   5.184  10.027   7.289  0.0549 -0.1588 -0.6051
22875SOL     OW72155   8.666   4.453   3.111 -0.3646  0.1964  0.2512
22875SOL    HW172156   8.601   4.388   3.083 -0.5995  0.8209 -0.6654
22875SOL    HW272157   8.671   4.441   3.206 -1.5480 -0.1109  0.2916
22876SOL     OW72158   6.612   1.647   8.433 -0.2889  0.2226 -0.3128
22876SOL    HW172159   6.553   1.710   8.390 -0.9796 -1.8524 -2.6375
22876SOL    HW272160   6.554   1.579   8.467  0.4651  0.6076  1.8831
22877SOL     OW72161   0.030   7.556  10.079  0.0679 -0.1432  0.0703
22877SOL    HW172162  -0.044   7.567  10.139  0.9965  0.0710  1.2101
22877SOL    HW272163   0.022   7.467  10.045 -1.5467  0.3695 -1.0033
22878SOL     OW72164   8.061   0.733   8.599  0.0207 -0.6913  0.2879
22878SOL    HW172165   8.051   0.650   8.645 -1.9725 -1.0431 -0.6481
22878SOL    HW272166   8.111   0.711   8.520  0.1864 -0.8396  0.4340
22879SOL     OW72167   3.735   3.923   8.162 -0.3617  0.5559 -0.0338
22879SOL    HW172168   3.741   4.014   8.131 -2.2602  0.6324 -0.2977
22879SOL    HW272169   3.642   3.910   8.180 -0.3454 -1.7520 -1.2682
22880SOL     OW72170   4.110   2.020   8.165 -0.9823 -0.0040  0.1161
22880SOL    HW172171   4.153   2.095   8.124 -1.5017  0.2917  0.1081
22880SOL    HW272172   4.149   1.943   8.122  1.3550  0.1229  1.8129
22881SOL     OW72173   0.331   5.344   3.796 -0.5841 -0.3619  0.2852
22881SOL    HW172174   0.339   5.418   3.735 -1.5051 -1.5325 -1.3192
22881SOL    HW272175   0.241   5.314   3.786 -0.5182 -1.0751  1.6770
22882SOL     OW72176  11.128   8.215   5.726 -0.4150 -0.1497  0.8932
22882SOL    HW172177  11.061   8.262   5.776  0.1274  1.9532 -0.2483
22882SOL    HW272178  11.090   8.128   5.710 -1.3525 -0.2573  3.2946
22883SOL     OW72179   2.307   4.012  10.560 -0.1000 -1.1016  0.1915
22883SOL    HW172180   2.387   3.963  10.546  0.2215 -1.0857  1.7483
22883SOL    HW272181   2.239   3.962  10.515  0.9513 -0.3708 -2.3784
22884SOL     OW72182   6.744   8.294  10.869 -0.2937 -0.3270 -0.4437
22884SOL    HW172183   6.721   8.256  10.954  0.2173 -1.6882 -0.8857
22884SOL    HW272184   6.691   8.245  10.806  1.2456 -1.1863 -1.1405
22885SOL     OW72185   0.171  10.382   9.037 -0.5956  0.1635 -0.0874
22885SOL    HW172186   0.249  10.326   9.035 -1.2608 -0.7709 -0.8328
22885SOL    HW272187   0.136  10.371   9.126  1.0789  2.0029  0.8700
22886SOL     OW72188   7.951   2.866   0.434  0.5876  0.1453  0.1624
22886SOL    HW172189   8.027   2.810   0.421  0.1546  0.0307 -2.1362
22886SOL    HW272190   7.977   2.951   0.398  0.3135  0.7065  1.2350
22887SOL     OW72191  10.313   5.481   8.495 -0.1984 -0.0803  0.2547
22887SOL    HW172192  10.245   5.433   8.449 -0.3660  0.0045  0.4141
22887SOL    HW272193  10.268   5.522   8.568 -0.0073  0.1160  0.2618
22888SOL     OW72194   9.688   6.769   9.159  0.2265 -0.1657  0.7796
22888SOL    HW172195   9.598   6.792   9.133 -0.9969 -1.4628  3.4257
22888SOL    HW272196   9.692   6.792   9.252  1.7164 -2.5652  1.3909
22889SOL     OW72197   6.818   2.168   3.402 -0.1536 -0.3516  0.4945
22889SOL    HW172198   6.780   2.110   3.335  0.1401  1.7044 -1.5923
22889SOL    HW272199   6.908   2.183   3.371  0.4391 -0.3839  2.1234
22890SOL     OW72200   7.713   6.754  10.463  0.1617 -0.2841  0.2024
22890SOL    HW172201   7.755   6.839  10.449  1.7994 -1.0540  0.3181
22890SOL    HW272202   7.722   6.738  10.557  0.3555 -0.8329  0.0932
22891SOL     OW72203   3.569   0.420   3.129 -0.7720 -0.0250 -0.3123
22891SOL    HW172204   3.494   0.441   3.184 -0.8563 -0.0220 -0.4281
22891SOL    HW272205   3.535   0.356   3.065 -0.6863  0.0039 -0.3872
22892SOL     OW72206   1.092   2.471   6.249 -0.2243  0.2723  0.3032
22892SOL    HW172207   1.040   2.397   6.218 -0.0852  0.7927 -1.2744
22892SOL    HW272208   1.030   2.525   6.298 -0.3966 -0.7027  1.1950
22893SOL     OW72209   8.192   3.563   0.968 -0.2902 -0.7350 -0.6679
22893SOL    HW172210   8.259   3.510   1.011  2.0402  1.2620 -1.6691
22893SOL    HW272211   8.148   3.502   0.908  1.0283 -1.9649 -0.4368
22894SOL     OW72212  10.240   0.058   2.502 -0.2293  0.2664 -0.1043
22894SOL    HW172213  10.178   0.015   2.443 -0.0601  0.7400 -0.6360
22894SOL    HW272214  10.186   0.113   2.558 -0.4201 -0.4185  0.4026
22895SOL     OW72215   6.429  10.590   3.866 -0.6409  0.7986 -0.3682
22895SOL    HW172216   6.400  10.672   3.826 -0.2973  0.9478 -0.3180
22895SOL    HW272217   6.522  10.605   3.885 -0.6044  0.4361 -0.2599
22896SOL     OW72218   5.007   8.974   5.860 -1.1229  0.1118  0.0369
22896SOL    HW172219   5.043   8.899   5.909 -1.7939  1.1784  2.3123
22896SOL    HW272220   5.069   9.045   5.875 -2.8170  1.3048  2.0123
22897SOL     OW72221   8.868   1.348   4.362  0.2239  0.6085  0.3183
22897SOL    HW172222   8.871   1.406   4.286 -0.6121  1.4901  0.9207
22897SOL    HW272223   8.782   1.364   4.400  0.2686 -0.5096  0.9242
22898SOL     OW72224  10.374   9.068   4.114 -0.3298 -0.2089 -0.0468
22898SOL    HW172225  10.404   8.977   4.117 -0.7553 -0.4330 -1.5746
22898SOL    HW272226  10.312   9.076   4.186 -0.0512 -1.0423  0.2957
22899SOL     OW72227   7.216   5.036   6.539 -0.4802  0.5709  0.0563
22899SOL    HW172228   7.247   5.014   6.627  1.8854 -1.7692 -1.2134
22899SOL    HW272229   7.214   5.131   6.537  1.4352  0.7143  2.0279
22900SOL     OW72230   4.190   0.113   5.977  0.1731 -0.5772 -0.2085
22900SOL    HW172231   4.180   0.037   5.920 -0.6999 -0.1193 -0.6700
22900SOL    HW272232   4.239   0.176   5.924  1.3254 -0.9782  0.3419
22901SOL     OW72233   3.820   7.275   3.900  0.3701 -0.0917  0.4002
22901SOL    HW172234   3.869   7.193   3.901  1.5151  0.5762  1.4317
22901SOL    HW272235   3.771   7.275   3.982 -0.4543 -0.1984 -0.0742
22902SOL     OW72236   9.020   6.356   6.803  0.0757 -0.7157  0.7414
22902SOL    HW172237   9.068   6.431   6.838 -0.9070  1.3128 -1.9435
22902SOL    HW272238   9.087   6.303   6.759  0.2390  1.1938 -1.4922
22903SOL     OW72239   7.717   2.819   4.152 -0.8174  0.5910 -0.0997
22903SOL    HW172240   7.700   2.904   4.194  0.0661  0.8981 -0.3440
22903SOL    HW272241   7.723   2.841   4.059  1.2054  0.5669 -0.0116
22904SOL     OW72242   3.362   8.568  10.291  0.0290 -0.5208  0.2802
22904SOL    HW172243   3.426   8.632  10.260  0.4633 -0.5330  1.1043
22904SOL    HW272244   3.311   8.544  10.213  0.3321  0.2827 -0.1771
22905SOL     OW72245   9.278   8.160   3.234 -0.1083 -0.0204  0.1664
22905SOL    HW172246   9.229   8.078   3.235 -0.1109 -0.0220  1.0284
22905SOL    HW272247   9.269   8.193   3.145 -1.6951 -0.0270  0.2971
22906SOL     OW72248   2.792  10.197   3.061  0.4831 -0.0100 -0.1738
22906SOL    HW172249   2.700  10.178   3.041 -0.8680  2.9143  2.3882
22906SOL    HW272250   2.832  10.218   2.977 -0.9174 -2.0507 -1.4463
22907SOL     OW72251  10.979  10.641   6.242  0.5642  0.0849  0.2407
22907SOL    HW172252  11.072  10.620   6.245  0.4723 -1.2583 -2.6934
22907SOL    HW272253  10.936  10.556   6.228 -0.9437  0.8885 -0.1887
22908SOL     OW72254   9.982   1.473   9.622 -0.0286 -0.2158  0.6729
22908SOL    HW172255  10.009   1.383   9.635 -0.2953 -0.1874  1.4492
22908SOL    HW272256  10.064   1.521   9.608  0.0524 -0.7258 -0.7907
22909SOL     OW72257   9.224   7.129   9.407  0.4684 -0.2182 -0.4085
22909SOL    HW172258   9.300   7.186   9.391  1.3764 -1.0554  0.7522
22909SOL    HW272259   9.188   7.161   9.490  0.9322 -1.2543  0.2064
22910SOL     OW72260   6.728   4.207   4.017 -0.0515  0.0954 -0.3088
22910SOL    HW172261   6.798   4.201   4.081  0.2527 -0.1018 -0.6581
22910SOL    HW272262   6.770   4.236   3.936  0.1079 -2.3872 -1.2258
22911SOL     OW72263   0.973   8.327  10.753 -0.2467 -0.0829 -0.0028
22911SOL    HW172264   0.923   8.251  10.724 -0.8061 -0.0297  0.7751
22911SOL    HW272265   0.992   8.375  10.673  0.6176 -1.3255 -0.5876
22912SOL     OW72266   7.689   4.836   1.130  0.4517  0.5532  0.4485
22912SOL    HW172267   7.739   4.912   1.101  0.8236  0.0525 -0.2437
22912SOL    HW272268   7.609   4.838   1.078  0.7832  0.0788 -0.0976
22913SOL     OW72269   9.063   8.886   8.385  0.4104  0.3814  0.4383
22913SOL    HW172270   9.095   8.799   8.411 -0.5544 -0.0680  0.1838
22913SOL    HW272271   9.027   8.874   8.297 -0.8492  0.7308  0.8725
22914SOL     OW72272   7.048   3.939   1.578 -0.0981 -0.3330 -0.2358
22914SOL    HW172273   7.096   3.927   1.660 -0.3513 -0.4150 -0.1012
22914SOL    HW272274   7.028   4.033   1.576  0.2935 -0.2515 -0.4170
22915SOL     OW72275   1.895   4.676   6.924 -0.3587  0.3062 -0.0855
22915SOL    HW172276   1.857   4.588   6.918  1.1839 -0.4151  0.3368
22915SOL    HW272277   1.847   4.718   6.996  1.8340 -1.8002  2.8300
22916SOL     OW72278  10.524   4.690   8.740  1.0683  0.2777 -0.0905
22916SOL    HW172279  10.617   4.672   8.755  0.8085 -1.0115  0.0539
22916SOL    HW272280  10.522   4.782   8.711  2.1792  0.9964  1.9124
22917SOL     OW72281   7.063   9.298   1.691 -0.3132  0.1852  0.0247
22917SOL    HW172282   7.096   9.302   1.781  1.6317 -0.3393 -0.6228
22917SOL    HW272283   7.060   9.205   1.670  0.1082  0.3366 -0.7458
22918SOL     OW72284   2.665   1.724   2.805  0.1448 -0.4140  0.7130
22918SOL    HW172285   2.624   1.717   2.718 -0.5905 -1.3669  1.1213
22918SOL    HW272286   2.757   1.743   2.786  0.0065 -0.6515 -0.2831
22919SOL     OW72287   7.596  10.193   3.855 -0.3632  0.3626 -0.2706
22919SOL    HW172288   7.538  10.269   3.845 -0.6053  0.1425 -0.5595
22919SOL    HW272289   7.598  10.176   3.949 -1.6037 -0.2728 -0.3409
22920SOL     OW72290   6.063   0.201   7.503  0.1055  0.6075  0.3763
22920SOL    HW172291   5.994   0.200   7.435 -0.9602 -0.0632  1.4255
22920SOL    HW272292   6.049   0.284   7.549 -0.5395  0.1297  1.0808
22921SOL     OW72293   0.478   8.174   7.380  0.2926  0.1814 -0.5377
22921SOL    HW172294   0.387   8.196   7.361 -0.1001  1.3693  2.1747
22921SOL    HW272295   0.475   8.133   7.466  2.3994  1.3616  0.1810
22922SOL     OW72296   1.760   1.004   5.044  0.1308 -0.5285 -0.3818
22922SOL    HW172297   1.774   1.052   4.963 -0.1931 -2.1807 -1.4618
22922SOL    HW272298   1.664   1.003   5.055  0.0093 -2.2447 -1.2532
22923SOL     OW72299   5.146   5.871   5.867  0.6532  0.4663 -0.0526
22923SOL    HW172300   5.130   5.957   5.905 -0.7133 -0.1570  0.8448
22923SOL    HW272301   5.197   5.889   5.787 -0.9719  2.2426 -0.7720
22924SOL     OW72302  11.094   3.131  10.576  0.8459  0.2872 -0.3624
22924SOL    HW172303  11.143   3.096  10.651  1.2665  2.0361  0.2274
22924SOL    HW272304  11.002   3.116  10.597  0.9651 -3.1854 -1.5500
22925SOL     OW72305   5.074   8.578   6.061 -0.2783  0.1464  0.9554
22925SOL    HW172306   5.042   8.524   6.133  0.1325 -0.3554  0.7692
22925SOL    HW272307   4.998   8.588   6.003 -0.5730  0.4453  1.3866
22926SOL     OW72308   5.082   5.998   3.816 -0.1499 -0.2380 -0.5894
22926SOL    HW172309   5.149   5.945   3.859 -1.0173 -1.4028 -0.5984
22926SOL    HW272310   5.129   6.071   3.777  0.7861  0.3916  1.5836
22927SOL     OW72311  10.589   3.228   5.647 -0.2270  0.4705 -0.1444
22927SOL    HW172312  10.499   3.244   5.621 -0.1789  0.5283 -0.2768
22927SOL    HW272313  10.630   3.190   5.569  0.3713  2.2505 -0.7387
22928SOL     OW72314  10.241   8.086   2.656 -0.2961 -0.0660  0.3257
22928SOL    HW172315  10.209   8.017   2.713  1.3904 -1.4834 -0.3484
22928SOL    HW272316  10.277   8.152   2.715  0.1364 -0.8447  0.9442
22929SOL     OW72317   7.407   0.768   9.713  0.1595  0.0287 -0.5048
22929SOL    HW172318   7.412   0.828   9.639 -1.7693  1.4981  0.4745
22929SOL    HW272319   7.351   0.696   9.681 -1.1618  0.9496 -0.3372
22930SOL     OW72320   5.220   4.168   5.915  0.2260  0.3402 -0.4613
22930SOL    HW172321   5.188   4.111   5.844 -0.1549 -0.2794  0.1959
22930SOL    HW272322   5.208   4.256   5.881  1.0476  0.0387 -1.5964
22931SOL     OW72323   0.700   8.555  10.686  0.3641  0.2252  0.6281
22931SOL    HW172324   0.646   8.582  10.611  0.5584 -1.1140 -0.0185
22931SOL    HW272325   0.790   8.568  10.657  0.4554  1.8677  1.4881
22932SOL     OW72326   5.316   8.357   7.849 -0.2408 -0.4424 -0.0129
22932SOL    HW172327   5.339   8.408   7.926 -0.4430 -1.2261  0.5683
22932SOL    HW272328   5.257   8.414   7.800 -0.0456  0.0903  0.3626
22933SOL     OW72329   6.590   0.584   5.418 -0.6304 -0.6670 -1.0047
22933SOL    HW172330   6.626   0.510   5.369 -0.8073 -1.0898 -0.4913
22933SOL    HW272331   6.498   0.563   5.431 -0.5563 -0.6097 -0.3780
22934SOL     OW72332   4.620   7.183   7.932 -0.1067  0.0984 -0.0924
22934SOL    HW172333   4.553   7.183   8.001 -1.2067 -0.6041 -1.1282
22934SOL    HW272334   4.577   7.143   7.857  1.8900 -1.6248 -0.4092
22935SOL     OW72335   7.195   0.229   1.183  0.1707  0.0792  0.1597
22935SOL    HW172336   7.216   0.150   1.133 -1.9928 -0.9064  0.6860
22935SOL    HW272337   7.181   0.297   1.117  1.5729 -0.0796 -0.3230
22936SOL     OW72338   7.780   3.586  11.126  0.2466 -0.2339  0.3236
22936SOL    HW172339   7.769   3.492  11.111  1.1095 -0.6029  1.7978
22936SOL    HW272340   7.875   3.598  11.133  0.1902  0.8896 -0.5749
22937SOL     OW72341   8.230   8.328   3.510 -0.0308  0.1047 -0.3416
22937SOL    HW172342   8.323   8.316   3.494  0.7129  1.7120  2.1657
22937SOL    HW272343   8.215   8.421   3.494 -1.0717 -0.0003 -0.0532
22938SOL     OW72344   9.236  10.724   8.893 -0.0505  0.3629  0.1677
22938SOL    HW172345   9.218  10.817   8.887 -1.9689  0.0255  0.1215
22938SOL    HW272346   9.170  10.683   8.837 -0.0004 -1.0826  1.1151
22939SOL     OW72347   5.876   0.414   4.993 -0.4280 -0.4060 -0.5335
22939SOL    HW172348   5.803   0.384   5.047 -1.0691  1.2640 -0.4157
22939SOL    HW272349   5.854   0.385   4.905 -1.0876 -0.1763 -0.4467
22940SOL     OW72350  10.995   0.338   6.404 -0.0340 -0.3578 -0.0373
22940SOL    HW172351  10.983   0.432   6.421  1.8911 -0.1357  0.2868
22940SOL    HW272352  10.994   0.331   6.309  1.6174  0.2985 -0.1330
22941SOL     OW72353   4.544   0.306   7.924  0.2869 -0.1109 -0.6969
22941SOL    HW172354   4.526   0.228   7.871 -1.3848  0.8213 -1.5958
22941SOL    HW272355   4.480   0.371   7.894 -0.0886  0.7978  1.7868
22942SOL     OW72356  10.682   1.078   4.342 -0.0607  0.5270 -0.1984
22942SOL    HW172357  10.652   0.994   4.307  1.8410  0.1655 -1.1080
22942SOL    HW272358  10.742   1.054   4.413 -0.4665  1.1614  0.3680
22943SOL     OW72359   5.028   1.870   3.734  0.0034  0.1564 -0.0156
22943SOL    HW172360   4.974   1.797   3.707  0.1425 -0.1069  0.4076
22943SOL    HW272361   4.966   1.942   3.750 -0.4455 -0.6326  2.1707
22944SOL     OW72362   1.372   5.588   2.347  0.4494 -0.3814 -0.3867
22944SOL    HW172363   1.328   5.521   2.399 -1.0686  1.3903  0.7347
22944SOL    HW272364   1.462   5.557   2.339 -0.2347 -2.6356 -0.1358
22945SOL     OW72365   4.901  10.905  10.591 -0.0494 -0.0973  0.4976
22945SOL    HW172366   4.959  10.876  10.661  1.3731  0.2522 -0.4844
22945SOL    HW272367   4.832  10.955  10.635  1.3579  0.9754  1.5672
22946SOL     OW72368   1.632   2.381   2.219  0.5407 -0.4209  0.3934
22946SOL    HW172369   1.623   2.351   2.309  0.4968  0.0256  0.5398
22946SOL    HW272370   1.725   2.371   2.199  0.5086 -0.7538  0.4021
22947SOL     OW72371  10.850   0.104   0.062 -0.2622 -0.0824  0.3031
22947SOL    HW172372  10.918   0.169   0.042  0.8564 -1.2379  0.2578
22947SOL    HW272373  10.898   0.023   0.081 -1.6557 -1.1474 -0.5328
22948SOL     OW72374   9.067   8.449   4.197 -0.0152  0.3869 -0.1947
22948SOL    HW172375   9.090   8.513   4.264  3.0571 -1.6207  0.8682
22948SOL    HW272376   9.099   8.365   4.230 -0.7603 -1.1744 -3.0216
22949SOL     OW72377   8.539   7.483   5.976  0.3105  0.4167 -0.4984
22949SOL    HW172378   8.598   7.469   5.902 -0.1761 -1.3676 -0.5940
22949SOL    HW272379   8.569   7.421   6.043  0.0486  1.2176  0.3783
22950SOL     OW72380   3.680   3.925   5.589 -0.5216 -0.3723 -0.8680
22950SOL    HW172381   3.597   3.880   5.601 -1.3948  0.7830 -2.2408
22950SOL    HW272382   3.682   3.948   5.496  1.0396  0.1922 -0.7300
22951SOL     OW72383   0.719   2.475   3.364  0.4987 -0.2070  0.0177
22951SOL    HW172384   0.714   2.432   3.279 -0.4870  0.3870 -0.2431
22951SOL    HW272385   0.662   2.552   3.356  0.4389 -0.1019  1.1808
22952SOL     OW72386   3.046   9.082  10.344 -0.4747  0.0561 -0.0782
22952SOL    HW172387   2.979   9.150  10.351 -1.0478 -0.4130 -0.8049
22952SOL    HW272388   3.035   9.047  10.255 -0.7104 -1.5085  0.5272
22953SOL     OW72389  10.958   6.515   0.936  0.2463  0.2106  0.0570
22953SOL    HW172390  10.974   6.500   1.029  0.1302  0.8953  0.1932
22953SOL    HW272391  10.980   6.607   0.922 -1.3164  0.5705 -0.2323
22954SOL     OW72392   8.206   2.081   9.234  0.0882  0.7648 -0.0980
22954SOL    HW172393   8.238   2.125   9.156 -0.0688 -1.9408 -1.8237
22954SOL    HW272394   8.284   2.043   9.275  0.0400  1.2512  0.4566
22955SOL     OW72395   7.629   0.131   0.955  0.0220  0.2694  0.3950
22955SOL    HW172396   7.558   0.166   0.901 -0.1567  1.1345  1.1620
22955SOL    HW272397   7.708   0.169   0.919  0.2352 -1.4403 -1.0636
22956SOL     OW72398   4.921   6.386   7.288  0.0750  0.4362 -0.2439
22956SOL    HW172399   4.894   6.323   7.222  0.7393  2.1917 -2.3068
22956SOL    HW272400   4.911   6.340   7.371 -0.4038 -2.0061 -1.5730
22957SOL     OW72401   7.164   1.275   8.413 -0.3071 -0.0801 -0.1461
22957SOL    HW172402   7.257   1.257   8.399 -0.3004  0.6616 -1.1227
22957SOL    HW272403   7.146   1.241   8.501  0.6686 -1.0379 -0.3049
22958SOL     OW72404   2.762   5.990   2.457 -0.5741 -0.7515  0.1488
22958SOL    HW172405   2.757   5.901   2.424  0.5426 -0.9145  0.3999
22958SOL    HW272406   2.735   5.983   2.549  0.6908 -1.0475  0.5140
22959SOL     OW72407   9.319   0.729   1.195  0.1465  0.0578  0.3757
22959SOL    HW172408   9.244   0.694   1.243 -1.2343 -0.1654 -1.7933
22959SOL    HW272409   9.303   0.823   1.189 -0.1377 -0.0298 -0.3430
22960SOL     OW72410   1.349   2.451   1.678  0.3741 -0.0680 -0.0837
22960SOL    HW172411   1.431   2.466   1.631 -0.6184  0.9855 -1.5532
22960SOL    HW272412   1.281   2.456   1.611 -0.8793 -1.5232  0.9952
22961SOL     OW72413   2.224   8.601   6.192 -0.3294 -0.5894  0.0806
22961SOL    HW172414   2.162   8.601   6.265 -0.1152  0.5760  0.2799
22961SOL    HW272415   2.299   8.552   6.225 -1.1505 -2.0913 -0.1965
22962SOL     OW72416   7.538   1.745  10.558  0.1792 -0.2339  0.5022
22962SOL    HW172417   7.451   1.768  10.524 -0.5113  0.2437  2.4336
22962SOL    HW272418   7.560   1.816  10.618  1.4765 -0.8493  0.7865
22963SOL     OW72419   3.295  10.513   7.175  0.8219 -0.0929 -0.5911
22963SOL    HW172420   3.381  10.476   7.159  0.4781 -1.8969  1.3678
22963SOL    HW272421   3.287  10.517   7.270 -1.3991 -0.3270 -0.7174
22964SOL     OW72422   7.658   9.076   9.803 -0.0006 -0.1715 -0.7868
22964SOL    HW172423   7.664   8.990   9.844 -1.0660  0.7030  1.3481
22964SOL    HW272424   7.747   9.092   9.769  1.1098 -0.8086  1.6020
22965SOL     OW72425   4.652   8.476   8.063 -0.3808  0.0404 -0.5018
22965SOL    HW172426   4.597   8.549   8.034 -0.1236  0.3435 -0.2487
22965SOL    HW272427   4.626   8.462   8.155  1.8500  2.0505  0.5595
22966SOL     OW72428   7.352   9.297  10.944 -0.0590 -0.4840 -0.1548
22966SOL    HW172429   7.267   9.339  10.959  0.0661 -0.7037  1.2522
22966SOL    HW272430   7.351   9.219  10.999  1.1761 -0.3252  0.1155
22967SOL     OW72431   7.030   2.135   4.877  0.2058  0.3588  0.3015
22967SOL    HW172432   7.098   2.070   4.860 -0.3129 -0.5811  1.6643
22967SOL    HW272433   7.018   2.180   4.793  0.8833 -0.9952 -0.5496
22968SOL     OW72434   6.699   8.869   8.202 -0.3911  0.0100 -0.1593
22968SOL    HW172435   6.709   8.779   8.234 -1.6298  0.1471  0.6944
22968SOL    HW272436   6.724   8.864   8.110  2.1969 -0.6291  0.5094
22969SOL     OW72437  10.605   1.088   0.855  0.2812 -0.7972 -0.4303
22969SOL    HW172438  10.682   1.127   0.897 -0.5928  0.8283 -0.2841
22969SOL    HW272439  10.610   1.117   0.764  0.0998 -1.1279 -0.5485
22970SOL     OW72440   5.658   6.215  10.456 -0.4097 -0.1933  0.1961
22970SOL    HW172441   5.664   6.126  10.422 -0.9383 -0.2513  0.2567
22970SOL    HW272442   5.706   6.268  10.392  0.4865 -0.6057  0.5053
22971SOL     OW72443   8.818   2.023   6.014 -0.5552  0.2069  1.0633
22971SOL    HW172444   8.735   2.037   5.969 -0.4805  0.0936  0.8831
22971SOL    HW272445   8.814   1.932   6.044  0.8998 -1.0529 -2.0317
22972SOL     OW72446   5.897   9.392   9.268 -0.4792 -0.4677 -0.3776
22972SOL    HW172447   5.949   9.472   9.281 -0.8279 -0.5327  1.6959
22972SOL    HW272448   5.961   9.327   9.242  0.5852 -0.5278  2.0689
22973SOL     OW72449   5.615   3.663   5.335 -0.2272  0.1415 -0.5454
22973SOL    HW172450   5.519   3.669   5.338 -0.2386  0.3910 -1.2486
22973SOL    HW272451   5.632   3.579   5.293 -0.1468  0.3518 -0.9411
22974SOL     OW72452   4.690   7.986   3.571  0.7295  0.4519  0.2358
22974SOL    HW172453   4.698   8.078   3.545  0.2495  0.5547  0.4250
22974SOL    HW272454   4.759   7.973   3.635  1.7862  0.2552 -0.9041
22975SOL     OW72455   3.893  10.766   2.874 -0.0242 -0.2351  0.0895
22975SOL    HW172456   3.836  10.806   2.808 -1.5855 -0.9385  0.9578
22975SOL    HW272457   3.849  10.683   2.896 -0.3111  0.5855  2.9696
22976SOL     OW72458   7.739   4.626   0.809 -0.2299 -0.5250  0.4777
22976SOL    HW172459   7.764   4.672   0.890  1.2378 -1.3256  0.5200
22976SOL    HW272460   7.768   4.684   0.739 -3.6805  1.3497  0.3883
22977SOL     OW72461   0.612   8.922   8.685  0.6404 -0.0854  0.2905
22977SOL    HW172462   0.669   8.846   8.680  0.2819 -0.2829 -2.2319
22977SOL    HW272463   0.581   8.924   8.775  1.9867 -1.9117  0.8371
22978SOL     OW72464   2.648   4.362  10.770 -0.2598  0.4480 -0.1561
22978SOL    HW172465   2.640   4.400  10.683 -0.6423  0.5509 -0.0769
22978SOL    HW272466   2.730   4.313  10.767 -0.2625  0.4633 -0.5674
22979SOL     OW72467   3.263  10.661   2.370  0.2310  0.0337  0.5647
22979SOL    HW172468   3.355  10.672   2.392  0.1933  0.7937  0.3761
22979SOL    HW272469   3.219  10.735   2.412 -0.5321 -1.1897  2.0093
22980SOL     OW72470   7.997   8.433   7.937  0.6006 -0.1206  0.0050
22980SOL    HW172471   8.050   8.443   8.016  1.7630 -1.0200 -0.6259
22980SOL    HW272472   7.947   8.514   7.931 -0.6557 -0.6056  2.4510
22981SOL     OW72473   0.741   0.565   6.556 -0.0295  0.3759 -0.5560
22981SOL    HW172474   0.792   0.623   6.499 -0.0817  0.8993 -0.0781
22981SOL    HW272475   0.719   0.491   6.500 -1.4071  1.5812 -1.7089
22982SOL     OW72476   7.878   4.265   3.018 -0.6124 -0.6919 -0.0974
22982SOL    HW172477   7.946   4.199   3.032 -0.9314 -0.9343  0.3346
22982SOL    HW272478   7.826   4.231   2.946 -1.3959 -1.4361  0.7835
22983SOL     OW72479   1.874   3.040   3.237  0.4217 -0.3103 -0.0907
22983SOL    HW172480   1.880   3.106   3.305 -1.7714  0.2359 -0.3422
22983SOL    HW272481   1.931   3.071   3.167 -0.2140  1.1103 -0.0134
22984SOL     OW72482   5.884   0.760   0.847  0.7795 -0.6988 -0.0792
22984SOL    HW172483   5.900   0.848   0.882  1.3243 -0.5887 -0.5953
22984SOL    HW272484   5.860   0.708   0.924 -1.0568  0.2236  0.0335
22985SOL     OW72485   8.000   4.952   4.775 -0.2525 -0.3056 -0.2551
22985SOL    HW172486   8.068   4.937   4.841 -0.5573 -1.8333 -0.2534
22985SOL    HW272487   7.941   5.016   4.815  0.2925 -0.2076  0.4072
22986SOL     OW72488   9.464   0.804   5.792  0.1424 -0.0734  0.0652
22986SOL    HW172489   9.544   0.856   5.786  0.1724 -0.2393 -1.2616
22986SOL    HW272490   9.494   0.714   5.789 -0.0626 -0.1414  0.0528
22987SOL     OW72491   0.062   8.511  10.135  0.2433  0.7423  0.6644
22987SOL    HW172492   0.003   8.520  10.060  0.4849  5.1299  0.7423
22987SOL    HW272493   0.148   8.539  10.102  1.6561 -2.2612  1.4236
22988SOL     OW72494   1.216   1.084   3.534 -0.3590 -0.5068  0.1727
22988SOL    HW172495   1.277   1.011   3.543  1.7883  1.0862 -0.6215
22988SOL    HW272496   1.215   1.103   3.441  0.9223  1.8528  0.5693
22989SOL     OW72497   0.575   9.508   6.944  0.5486 -0.1938  0.5421
22989SOL    HW172498   0.593   9.524   6.851  1.9634  0.5536  0.9102
22989SOL    HW272499   0.629   9.573   6.990  0.5530 -1.1240  1.9109
22990SOL     OW72500   7.897   0.039   4.807 -0.8921  0.0582 -0.2330
22990SOL    HW172501   7.868   0.008   4.722 -1.4171 -0.3423  0.0902
22990SOL    HW272502   7.977   0.089   4.788 -1.7993  1.2436 -1.1500
22991SOL     OW72503   1.277   3.306   1.421  0.1004  0.4094 -0.5589
22991SOL    HW172504   1.188   3.333   1.399 -0.5864  0.5679  2.0686
22991SOL    HW272505   1.311   3.377   1.475  1.1939 -0.4108 -0.1315
22992SOL     OW72506   9.308   2.455   6.960 -0.0305 -0.0969  0.5797
22992SOL    HW172507   9.292   2.373   6.912  0.4701 -0.3815  0.8857
22992SOL    HW272508   9.227   2.504   6.951  0.0190 -0.1843 -0.4819
22993SOL     OW72509   2.563  10.247   2.360 -0.2697  0.1050 -0.0359
22993SOL    HW172510   2.474  10.255   2.394 -0.5751 -1.1860 -0.4720
22993SOL    HW272511   2.589  10.337   2.339 -1.8294  0.4166 -0.8017
22994SOL     OW72512   8.906  10.631  10.834  0.0062 -0.2462  0.2351
22994SOL    HW172513   8.919  10.718  10.872  0.3060  0.7097 -1.8757
22994SOL    HW272514   8.812  10.624  10.822 -0.0557 -0.4013  0.8021
22995SOL     OW72515   6.615   7.396   2.992 -0.3173 -0.2764 -0.3015
22995SOL    HW172516   6.685   7.339   3.026 -0.4230 -0.9769 -1.2131
22995SOL    HW272517   6.653   7.484   2.993  0.6162 -0.6596 -0.8594
22996SOL     OW72518   3.919   7.537   8.063 -0.7574 -0.2220 -0.1639
22996SOL    HW172519   3.897   7.562   7.973 -1.1621  0.3587  0.0863
22996SOL    HW272520   3.985   7.469   8.054 -0.0823  0.5124 -0.8844
22997SOL     OW72521  10.705   5.005  10.624  0.1174 -0.1943  1.0765
22997SOL    HW172522  10.679   4.931  10.678 -0.5846  0.2263  1.3263
22997SOL    HW272523  10.655   5.079  10.658  0.9190  0.4317  0.9241
22998SOL     OW72524   9.324   1.432   5.558  0.1381  0.1182  0.1963
22998SOL    HW172525   9.378   1.494   5.607  0.6673 -0.0940 -0.1073
22998SOL    HW272526   9.286   1.375   5.624  1.6344 -0.7951  0.3117
22999SOL     OW72527   9.212   5.168   5.594 -0.3031 -0.1146  0.4089
22999SOL    HW172528   9.212   5.073   5.606 -0.9539 -0.0973  0.5984
22999SOL    HW272529   9.305   5.192   5.591 -0.1349 -0.8657 -0.6126
23000SOL     OW72530  10.375   5.778   3.298 -0.2224  0.2272 -0.1800
23000SOL    HW172531  10.312   5.837   3.338 -1.6263 -0.6267 -1.0491
23000SOL    HW272532  10.335   5.691   3.306  0.2844 -0.1926 -1.7927
23001SOL     OW72533   3.789   3.884   0.345  0.1892 -0.1988 -0.1739
23001SOL    HW172534   3.706   3.837   0.339  0.1066  0.0640 -1.1714
23001SOL    HW272535   3.765   3.977   0.341  0.4787 -0.1028  0.2474
23002SOL     OW72536   0.549   7.004   9.279 -0.3882 -0.2680  0.8509
23002SOL    HW172537   0.509   7.077   9.328  0.6096  0.4773  0.5749
23002SOL    HW272538   0.622   6.976   9.334 -0.8310 -1.1663  1.0108
23003SOL     OW72539   3.012   4.361   5.965  0.2205 -0.0649  0.2136
23003SOL    HW172540   2.949   4.366   6.037 -0.5309  0.9989 -0.4899
23003SOL    HW272541   3.030   4.453   5.943  1.5991 -0.3588  0.0221
23004SOL     OW72542   7.171   1.880   1.170  0.0056 -0.1196  0.3140
23004SOL    HW172543   7.174   1.846   1.080 -0.5587  0.9256 -0.1215
23004SOL    HW272544   7.189   1.804   1.225 -0.9722 -1.0753 -0.6269
23005SOL     OW72545   7.534   4.230  11.062 -0.0300  0.4023 -0.2563
23005SOL    HW172546   7.617   4.269  11.035 -1.8231  3.5143 -1.8422
23005SOL    HW272547   7.531   4.146  11.015  1.7857  0.6610 -0.9145
23006SOL     OW72548   5.131   0.796   6.693  0.3745 -0.2627 -0.1066
23006SOL    HW172549   5.150   0.772   6.784 -0.7524  1.5369  0.6411
23006SOL    HW272550   5.179   0.731   6.641  1.6080 -0.9212  1.7511
23007SOL     OW72551   3.198   4.852   2.958  0.1220 -0.2406  0.7083
23007SOL    HW172552   3.203   4.875   2.865 -0.6102  0.8655  0.9340
23007SOL    HW272553   3.146   4.921   2.997  1.2989 -0.1231  2.1418
23008SOL     OW72554   8.985   4.981  10.592 -0.0708 -0.1364  0.1446
23008SOL    HW172555   8.994   4.889  10.566  1.1535  0.2144 -0.7596
23008SOL    HW272556   9.032   4.986  10.675  1.1894 -0.0469 -0.5402
23009SOL     OW72557   7.344   6.904   9.592 -0.5067 -0.1675  0.5821
23009SOL    HW172558   7.369   6.859   9.512  2.0977  0.0804  1.1432
23009SOL    HW272559   7.425   6.905   9.645 -1.5244  1.6194  2.2527
23010SOL     OW72560   6.735   0.823   4.403  0.1307 -0.2818  0.1526
23010SOL    HW172561   6.716   0.743   4.451  1.5714 -2.1050 -2.0890
23010SOL    HW272562   6.670   0.825   4.333  0.2740  0.3641  0.0283
23011SOL     OW72563   1.838  10.425   7.380  0.1509  0.1029 -0.3402
23011SOL    HW172564   1.744  10.407   7.386 -0.2129  1.1404 -2.1593
23011SOL    HW272565   1.865  10.387   7.296  0.8677  1.6416 -0.8592
23012SOL     OW72566   0.340   2.498   2.248  0.1565  0.2403 -0.1751
23012SOL    HW172567   0.254   2.496   2.207 -0.0616 -0.6994  0.2997
23012SOL    HW272568   0.346   2.415   2.295  2.5686 -1.2291 -2.7512
23013SOL     OW72569   0.505  10.438   9.213  0.1632  0.2176  0.1723
23013SOL    HW172570   0.550  10.356   9.230 -3.0840 -2.5245 -2.9636
23013SOL    HW272571   0.469  10.464   9.298  1.3668 -1.4939  1.2638
23014SOL     OW72572   5.964   0.509   7.309 -0.0168  0.7277 -0.1278
23014SOL    HW172573   5.946   0.598   7.336 -0.3629  0.4322  0.6256
23014SOL    HW272574   5.986   0.462   7.389  2.8712  0.7441 -0.7976
23015SOL     OW72575   1.446   6.945   2.293  0.5788 -0.1213 -0.2765
23015SOL    HW172576   1.373   6.884   2.295  0.2248  0.2258 -1.4326
23015SOL    HW272577   1.406   7.030   2.279  1.2074  0.0037 -1.5075
23016SOL     OW72578  10.682   4.850   9.291 -0.1332 -0.5147 -0.2240
23016SOL    HW172579  10.604   4.900   9.314 -0.0028 -0.8367  0.9619
23016SOL    HW272580  10.727   4.836   9.374 -0.4168 -3.0271 -0.4301
23017SOL     OW72581   8.776   9.216   0.379 -0.6580  0.1934  0.0251
23017SOL    HW172582   8.818   9.165   0.448  0.7898 -0.2051 -1.1024
23017SOL    HW272583   8.772   9.157   0.304 -1.9109  0.7226 -0.3591
23018SOL     OW72584   2.713   0.391   1.089  0.2168 -0.0571 -0.1896
23018SOL    HW172585   2.643   0.343   1.134 -1.8299  2.3543 -0.5155
23018SOL    HW272586   2.682   0.398   0.999  1.4320  0.1437 -0.6069
23019SOL     OW72587   5.046   4.884   3.896 -0.3350 -0.3667  0.2758
23019SOL    HW172588   5.122   4.929   3.933 -0.1059 -0.4878 -0.0446
23019SOL    HW272589   5.083   4.821   3.834 -0.7687  0.7235 -1.1346
23020SOL     OW72590   0.950   5.591   2.086  0.4324  0.3106  0.1952
23020SOL    HW172591   1.001   5.515   2.059 -0.3767  0.5536 -2.2599
23020SOL    HW272592   0.919   5.568   2.174  2.0785 -1.1814  0.4589
23021SOL     OW72593   0.063   5.824   5.679 -0.2018  0.6512 -0.0643
23021SOL    HW172594   0.021   5.791   5.600 -1.0472  0.0964  0.5951
23021SOL    HW272595   0.150   5.783   5.679  0.1773  1.4039 -1.1762
23022SOL     OW72596   3.104   7.089   6.598  0.1396  0.1571  0.1404
23022SOL    HW172597   3.187   7.064   6.639 -0.3906  1.1749  1.9082
23022SOL    HW272598   3.041   7.024   6.631 -0.1652  0.6007  0.4360
23023SOL     OW72599   2.688  10.104   2.169  0.9513  0.0915 -0.2996
23023SOL    HW172600   2.631  10.147   2.234  0.4777  0.7796 -1.1521
23023SOL    HW272601   2.771  10.152   2.176 -0.1476  2.5970 -2.6070
23024SOL     OW72602   8.086   3.939   8.719 -0.0110 -0.0827 -0.1293
23024SOL    HW172603   8.153   3.878   8.687  0.5148 -0.0790  0.9045
23024SOL    HW272604   8.069   3.998   8.646  0.3940 -0.6916 -0.7274
23025SOL     OW72605   5.361   7.024   1.438  0.1423  0.2071 -0.6167
23025SOL    HW172606   5.455   7.012   1.450 -0.1344 -0.4441  1.1245
23025SOL    HW272607   5.349   7.119   1.431  0.6371  0.5909  2.4102
23026SOL     OW72608   6.819   1.311   8.615  0.0343 -0.5184  0.2896
23026SOL    HW172609   6.727   1.311   8.641 -0.3863  0.8790 -1.0540
23026SOL    HW272610   6.819   1.270   8.528  0.8888 -1.7060  0.8186
23027SOL     OW72611  10.183  10.945  10.558  0.5883  0.4568 -0.1134
23027SOL    HW172612  10.277  10.926  10.551  0.7108  1.0848 -0.2470
23027SOL    HW272613  10.159  10.979  10.473  0.4362  1.1296  0.1939
23028SOL     OW72614   1.450   1.375   2.791 -0.0601  0.2824  0.1572
23028SOL    HW172615   1.537   1.415   2.793  0.3025 -0.3514 -1.3658
23028SOL    HW272616   1.396   1.437   2.743 -0.2854  0.3917  0.5554
23029SOL     OW72617   0.183   2.761   3.270  1.0450 -0.0123 -0.5464
23029SOL    HW172618   0.235   2.835   3.238  2.6188 -1.4174 -1.3901
23029SOL    HW272619   0.189   2.768   3.366  0.2062  1.5622 -0.5700
23030SOL     OW72620   5.651  10.220   1.983 -0.2205 -0.3048 -0.6012
23030SOL    HW172621   5.730  10.172   2.008  0.2499  0.0558 -1.3608
23030SOL    HW272622   5.627  10.270   2.060  0.7849  0.2385 -0.6296
23031SOL     OW72623   1.853   2.446   7.191  0.2772 -0.2030 -0.0285
23031SOL    HW172624   1.826   2.408   7.107  0.4856  1.9750 -1.1526
23031SOL    HW272625   1.944   2.416   7.202  0.7177  0.5538 -1.3085
23032SOL     OW72626   7.906  10.812   3.247 -0.2997  0.2407 -0.0157
23032SOL    HW172627   7.835  10.866   3.211  0.8940  1.0311 -1.2745
23032SOL    HW272628   7.948  10.773   3.171  2.3047  1.9558  0.3904
23033SOL     OW72629   5.134   1.912   8.183  0.2628  0.3178 -0.5736
23033SOL    HW172630   5.209   1.903   8.242  1.1939  0.4903 -1.6831
23033SOL    HW272631   5.061   1.938   8.239  0.4747 -1.9621  0.8797
23034SOL     OW72632   9.368   4.237   0.732 -0.0653 -0.5234 -0.0135
23034SOL    HW172633   9.352   4.214   0.640 -0.9361 -0.1472  0.0354
23034SOL    HW272634   9.453   4.198   0.752  0.4279 -0.0702 -1.1645
23035SOL     OW72635   4.277   2.804   9.439  0.1674 -0.0320  0.1677
23035SOL    HW172636   4.245   2.892   9.424  2.7877  1.0447  0.2856
23035SOL    HW272637   4.235   2.751   9.371  0.5624  1.8429 -1.6396
23036SOL     OW72638   2.460   9.023   6.926  0.2122 -0.3453  0.2845
23036SOL    HW172639   2.435   9.087   6.993 -2.0701  0.7435 -1.4508
23036SOL    HW272640   2.501   9.075   6.857 -0.6475 -0.8864 -0.6631
23037SOL     OW72641   9.076  10.688   9.660  0.4678  0.0922 -0.7432
23037SOL    HW172642   9.041  10.623   9.599 -0.5392 -0.2361  0.1516
23037SOL    HW272643   9.000  10.741   9.685  0.8622  0.2657  0.1472
23038SOL     OW72644   3.779   6.086   2.972 -0.1827 -0.3854 -0.4165
23038SOL    HW172645   3.841   6.091   2.899  1.2312  2.0514  0.7911
23038SOL    HW272646   3.696   6.117   2.936  0.0931 -0.7205 -1.3577
23039SOL     OW72647   5.508   7.590  10.449 -0.4087  0.0031  0.3664
23039SOL    HW172648   5.423   7.576  10.407 -0.2364 -1.0347  0.3459
23039SOL    HW272649   5.521   7.513  10.504  1.5513 -1.0361 -1.3805
23040SOL     OW72650   2.882   5.866  10.147  0.2978 -0.1261 -0.0830
23040SOL    HW172651   2.944   5.832  10.082 -1.9463 -0.9266 -1.9581
23040SOL    HW272652   2.833   5.933  10.099  0.5635  1.4664  1.7578
23041SOL     OW72653   2.715   8.285   9.832  0.0303  0.8928  0.8256
23041SOL    HW172654   2.626   8.271   9.801 -0.6188  0.1182  2.8950
23041SOL    HW272655   2.707   8.291   9.927  2.1227  1.3910  1.0235
23042SOL     OW72656   4.927   0.125   3.419 -0.4594 -0.1665  0.2488
23042SOL    HW172657   4.889   0.086   3.497 -0.5177  0.9623  0.8027
23042SOL    HW272658   5.022   0.111   3.428 -0.6068 -2.5763 -0.9137
23043SOL     OW72659   8.221   1.164  10.956 -0.4253  0.2781 -0.9591
23043SOL    HW172660   8.249   1.136  11.043 -1.2072  1.6706 -0.2240
23043SOL    HW272661   8.280   1.237  10.934 -0.5733  0.2799 -1.3618
23044SOL     OW72662   1.549   1.995   3.816  0.7357 -0.3311 -0.1062
23044SOL    HW172663   1.610   2.021   3.746  0.1015 -2.5589 -1.5892
23044SOL    HW272664   1.468   1.974   3.769  0.5169 -2.6485  1.1842
23045SOL     OW72665   8.818   0.525   5.210  0.5944  0.3270 -0.1467
23045SOL    HW172666   8.908   0.553   5.193  1.1043 -0.5269  0.9869
23045SOL    HW272667   8.809   0.535   5.305 -0.5520  0.5073 -0.2694
23046SOL     OW72668   3.446   4.390   0.241  0.2564 -0.0961 -0.2836
23046SOL    HW172669   3.383   4.318   0.243  1.0463 -0.7875  0.7922
23046SOL    HW272670   3.485   4.386   0.154 -0.2059 -0.5281 -0.4722
23047SOL     OW72671   9.434   8.763   1.478  0.4216 -0.2253 -0.5413
23047SOL    HW172672   9.383   8.693   1.519 -0.3306  1.6480  1.9940
23047SOL    HW272673   9.395   8.844   1.512 -0.0071  1.6126 -4.7659
23048SOL     OW72674   2.143   7.624  10.386 -0.1397 -0.1916  0.8627
23048SOL    HW172675   2.069   7.672  10.349 -0.2486 -0.0351  1.2908
23048SOL    HW272676   2.162   7.667  10.469  0.8259  0.1584  0.4756
23049SOL     OW72677  10.207   5.796   0.345 -0.0398 -0.2039  0.6288
23049SOL    HW172678  10.245   5.877   0.312 -0.5789  0.0655  0.6564
23049SOL    HW272679  10.162   5.821   0.426 -1.5950 -0.1939 -0.1872
23050SOL     OW72680   4.083   9.290   2.765  0.3609  0.3445  0.0049
23050SOL    HW172681   4.081   9.309   2.859 -0.0604  1.6391 -0.2473
23050SOL    HW272682   4.152   9.346   2.730 -0.3414  0.8501 -0.6315
23051SOL     OW72683   9.269   5.707   2.814 -0.4739  0.1788  0.2695
23051SOL    HW172684   9.311   5.788   2.785 -0.0446  0.2705  1.1234
23051SOL    HW272685   9.286   5.645   2.743 -0.7021  0.7943 -0.3379
23052SOL     OW72686   4.833   7.905   1.171 -0.2903  0.1365 -0.0046
23052SOL    HW172687   4.893   7.854   1.226 -1.6430 -1.3291  0.2044
23052SOL    HW272688   4.747   7.888   1.209 -1.2976 -1.0220 -2.5804
23053SOL     OW72689   6.730   9.784   9.742 -0.5402 -0.2938  0.0503
23053SOL    HW172690   6.664   9.714   9.742 -0.4976 -0.4005 -2.2210
23053SOL    HW272691   6.692   9.854   9.794 -2.2978 -0.5163 -0.8829
23054SOL     OW72692   7.013   1.757   1.589 -0.3034  0.2599  0.3970
23054SOL    HW172693   6.989   1.840   1.548 -1.7340 -1.3584 -2.2701
23054SOL    HW272694   7.100   1.738   1.554 -0.6921 -0.1558 -0.3709
23055SOL     OW72695   7.928   2.661   6.997 -0.0244  0.0490 -0.3949
23055SOL    HW172696   8.001   2.633   6.942 -0.0387 -0.1872 -0.2950
23055SOL    HW272697   7.878   2.581   7.014  0.4570 -0.0412  0.6648
23056SOL     OW72698   3.841   0.180  11.055 -0.1571 -0.1351  0.3852
23056SOL    HW172699   3.878   0.178  10.967  1.0105 -1.6485  0.8750
23056SOL    HW272700   3.787   0.259  11.057 -1.7725 -1.0470 -2.3070
23057SOL     OW72701   1.657  10.062  10.386 -0.1652 -0.4735  0.5999
23057SOL    HW172702   1.627  10.002  10.317 -2.2766 -0.8544  1.7425
23057SOL    HW272703   1.598  10.137  10.380  2.2416  1.4409 -0.5930
23058SOL     OW72704   2.803   7.821  10.960  0.7028  0.1270  0.3300
23058SOL    HW172705   2.818   7.784  11.047  1.6464 -1.2178 -0.3688
23058SOL    HW272706   2.755   7.902  10.977  0.8098 -0.1283  2.0925
23059SOL     OW72707   3.085   8.081   0.541  0.5539 -0.4283 -0.1967
23059SOL    HW172708   2.997   8.090   0.506  0.8291  0.8188 -0.6159
23059SOL    HW272709   3.114   7.995   0.512 -1.0545 -1.5040  1.1890
23060SOL     OW72710   5.176   1.534  10.420  0.4180 -0.4414 -0.0493
23060SOL    HW172711   5.125   1.577  10.489 -0.4674  0.4186 -1.1978
23060SOL    HW272712   5.252   1.591  10.407  0.3471 -0.3568 -0.0944
23061SOL     OW72713   1.819   9.550   1.531  0.3980  0.4565 -0.2274
23061SOL    HW172714   1.835   9.637   1.494  0.3166  0.3117 -0.6110
23061SOL    HW272715   1.888   9.539   1.597  0.3860  0.8264 -0.1548
23062SOL     OW72716  10.881   2.614   9.711 -0.1475 -0.4028 -0.1807
23062SOL    HW172717  10.897   2.706   9.689  0.6921 -0.7917 -1.2874
23062SOL    HW272718  10.950   2.566   9.665 -0.7148 -1.6094  0.1929
23063SOL     OW72719   8.477   8.092   8.619  0.4034  0.1048  0.5302
23063SOL    HW172720   8.395   8.114   8.664 -1.1848 -1.7500 -1.2323
23063SOL    HW272721   8.533   8.169   8.631 -0.9945  0.8493  3.0662
23064SOL     OW72722   3.720   0.430   6.215 -0.2115  0.0891 -0.0910
23064SOL    HW172723   3.728   0.445   6.309  1.9951 -0.1823 -0.1897
23064SOL    HW272724   3.800   0.466   6.177 -0.6808 -0.5212 -1.7876
23065SOL     OW72725   6.463   8.930   5.376 -0.6612  0.3981  0.0457
23065SOL    HW172726   6.369   8.934   5.390 -0.8844  0.6666 -1.4556
23065SOL    HW272727   6.500   8.959   5.460 -1.8046 -2.8661  1.8503
23066SOL     OW72728  10.352   7.837   1.073  0.0368 -0.2560  0.3976
23066SOL    HW172729  10.366   7.801   1.161  3.3270 -0.6048 -0.1433
23066SOL    HW272730  10.348   7.761   1.016 -2.4075 -0.0437  0.1925
23067SOL     OW72731   2.296   9.436   6.985 -0.2966  0.3703  0.1901
23067SOL    HW172732   2.379   9.484   6.979 -0.5251  0.6787 -0.7570
23067SOL    HW272733   2.247   9.464   6.908 -0.9362 -0.4640  0.2780
23068SOL     OW72734   6.269   6.809  10.044  0.0745 -0.5266 -0.5156
23068SOL    HW172735   6.262   6.716  10.064 -0.3609 -0.3381  0.2340
23068SOL    HW272736   6.357   6.834  10.073 -0.0542 -0.5568 -0.1031
23069SOL     OW72737   2.831   7.024  10.971  0.0270  0.1714 -0.4134
23069SOL    HW172738   2.922   7.040  10.947  0.1973 -1.6616 -1.2228
23069SOL    HW272739   2.786   7.013  10.887 -1.1162  1.7966 -0.0440
23070SOL     OW72740   5.165   3.498   6.140  1.0327 -0.7901  0.4415
23070SOL    HW172741   5.227   3.513   6.211 -1.4163  3.6057  2.0689
23070SOL    HW272742   5.085   3.469   6.184  0.1307 -0.2552 -0.7906
23071SOL     OW72743   1.371   5.027  10.441  0.6974  0.4241  0.4603
23071SOL    HW172744   1.336   5.093  10.500 -0.9318 -0.5082  0.5967
23071SOL    HW272745   1.396   5.075  10.362 -2.6938  0.9945 -0.4046
23072SOL     OW72746   8.855   2.087   8.644  0.4004 -0.4096  0.6259
23072SOL    HW172747   8.794   2.017   8.670 -0.2537  1.0698  3.4857
23072SOL    HW272748   8.800   2.165   8.638  1.3897  0.2029 -0.8831
23073SOL     OW72749   8.318   4.328   8.514  0.1320 -0.0388 -0.5436
23073SOL    HW172750   8.389   4.264   8.520  0.0939 -0.0134  0.3836
23073SOL    HW272751   8.285   4.320   8.425  0.0382 -1.4276 -0.4027
23074SOL     OW72752   2.413   4.292   8.698  0.2892  0.1710 -0.6665
23074SOL    HW172753   2.429   4.337   8.782 -2.2043  1.0105 -0.5690
23074SOL    HW272754   2.436   4.357   8.632  1.0356 -0.0475 -0.6338
23075SOL     OW72755   6.323   7.637   3.290 -0.2292  0.2100 -0.2181
23075SOL    HW172756   6.263   7.580   3.241 -1.7860  1.1944  0.4731
23075SOL    HW272757   6.386   7.667   3.224 -0.6070 -0.6760 -1.0150
23076SOL     OW72758   3.841   2.024   7.158 -0.3307  0.2783 -0.3778
23076SOL    HW172759   3.849   2.016   7.253 -1.4987 -0.6198 -0.3347
23076SOL    HW272760   3.753   2.060   7.145 -1.0589 -1.7103 -1.1805
23077SOL     OW72761   2.735  11.104   5.557  0.2662 -0.6198  0.3418
23077SOL    HW172762   2.809  11.066   5.510 -0.4762 -2.1976  0.4054
23077SOL    HW272763   2.663  11.042   5.544 -1.4027  1.3730 -0.6526
23078SOL     OW72764  11.101   8.652   5.891 -0.0748 -0.2378 -0.6189
23078SOL    HW172765  11.123   8.745   5.902  0.0455 -0.4295  0.9673
23078SOL    HW272766  11.171   8.617   5.837  1.9340 -0.1606  1.7550
23079SOL     OW72767   6.571  10.627   2.544  0.0668 -0.3193 -0.8786
23079SOL    HW172768   6.540  10.709   2.583  2.8021  0.6706 -0.5158
23079SOL    HW272769   6.530  10.558   2.596 -0.7943  0.8788  0.0677
23080SOL     OW72770   6.772   7.968   1.429  0.4333 -0.5552 -0.3606
23080SOL    HW172771   6.714   8.003   1.497  2.0582  1.4739  0.0559
23080SOL    HW272772   6.712   7.935   1.362 -1.2034  0.1939  0.6686
23081SOL     OW72773   3.992   4.859   5.561  0.2830  0.8012  0.4733
23081SOL    HW172774   3.966   4.951   5.566  1.6997  1.5642 -2.9418
23081SOL    HW272775   4.070   4.853   5.616 -0.4976  1.3049  1.6718
23082SOL     OW72776   6.062   5.383   4.917  0.0279  0.3385 -0.5458
23082SOL    HW172777   6.128   5.449   4.896 -0.3740  0.4868 -1.3582
23082SOL    HW272778   6.110   5.301   4.920  0.5232  0.6430  0.4175
23083SOL     OW72779   1.517  11.059   4.531 -0.3724  0.1559  0.1393
23083SOL    HW172780   1.519  10.974   4.487  0.8184  0.3141 -0.1647
23083SOL    HW272781   1.425  11.074   4.552 -0.3535 -2.2999  2.3799
23084SOL     OW72782   4.893   3.510   2.152 -0.5096 -0.2861 -0.0660
23084SOL    HW172783   4.936   3.587   2.114 -1.8814  0.5292 -0.0243
23084SOL    HW272784   4.959   3.472   2.210  1.6386 -1.4844 -3.0384
23085SOL     OW72785   4.754   3.986   5.507  0.3336  0.4523 -0.3092
23085SOL    HW172786   4.836   4.033   5.526  0.7230  0.1688 -1.2275
23085SOL    HW272787   4.747   3.923   5.578  0.5260  0.9699  0.1840
23086SOL     OW72788   4.577   4.116   0.749  0.0545 -0.1530  0.0067
23086SOL    HW172789   4.537   4.099   0.663 -0.1089  1.1629 -0.2079
23086SOL    HW272790   4.548   4.044   0.804  1.5921 -2.0223 -1.4696
23087SOL     OW72791   9.541   3.356   9.641  0.8233 -0.3620  0.2665
23087SOL    HW172792   9.510   3.266   9.645 -0.7073  0.1472  0.6256
23087SOL    HW272793   9.604   3.356   9.569 -1.1273 -1.1751 -1.5746
23088SOL     OW72794   2.203   8.971   2.165  0.4597 -0.2302 -0.0234
23088SOL    HW172795   2.255   8.975   2.246  0.1519 -1.2986  0.2441
23088SOL    HW272796   2.267   8.987   2.095  0.9203 -0.3304  0.3648
23089SOL     OW72797   2.849  11.098   1.122  0.5564  0.1059  0.1598
23089SOL    HW172798   2.853  11.148   1.040  1.3715 -1.4355 -0.8053
23089SOL    HW272799   2.776  11.136   1.170 -0.8298  0.2123 -1.8861
23090SOL     OW72800   4.205   9.954   3.573  0.0996 -0.7008  0.4519
23090SOL    HW172801   4.226   9.969   3.481 -1.4178 -2.1412 -0.1854
23090SOL    HW272802   4.198  10.041   3.611  2.7757 -0.0884 -0.2642
23091SOL     OW72803   4.876   2.880   1.035 -0.4290  0.5229  0.0178
23091SOL    HW172804   4.781   2.885   1.034 -0.4000  2.6158  1.3527
23091SOL    HW272805   4.904   2.957   0.986  0.5310  1.1089  1.4106
23092SOL     OW72806  10.573  10.884  10.159  0.1923  0.1031  0.5533
23092SOL    HW172807  10.600  10.793  10.171 -0.6883 -0.2293  0.1322
23092SOL    HW272808  10.649  10.928  10.123  1.7088  0.2702  3.6170
23093SOL     OW72809   5.612   7.250   1.400  0.3821 -0.3407  0.3807
23093SOL    HW172810   5.579   7.161   1.400  2.0556 -1.0308 -1.3511
23093SOL    HW272811   5.703   7.242   1.372  0.4224  1.9539 -0.4038
23094SOL     OW72812   3.214   0.923   4.652 -0.2997 -0.0820 -0.1735
23094SOL    HW172813   3.298   0.886   4.625  0.4512  0.4327  1.3426
23094SOL    HW272814   3.168   0.850   4.693  0.0525 -0.0046  0.3697
23095SOL     OW72815   7.318   0.860   2.321 -0.5866  0.2815  0.6322
23095SOL    HW172816   7.363   0.913   2.255  2.4273 -0.5859  1.8557
23095SOL    HW272817   7.296   0.779   2.275  1.5644 -0.3540  0.6223
23096SOL     OW72818   7.371   2.581   8.834 -0.3666 -0.0218  0.2179
23096SOL    HW172819   7.407   2.509   8.781 -0.1107 -0.8407  1.4727
23096SOL    HW272820   7.329   2.638   8.770  0.7208 -0.5054 -0.9838
23097SOL     OW72821   5.744   6.365   2.819 -0.0914  0.5362 -0.2635
23097SOL    HW172822   5.707   6.318   2.744  0.1240 -0.2178  0.0955
23097SOL    HW272823   5.835   6.381   2.794  0.4497 -1.1337  0.4527
23098SOL     OW72824   8.223   1.602   4.163  0.0417  0.2601 -0.1140
23098SOL    HW172825   8.145   1.615   4.109  0.4819 -0.3977 -0.9286
23098SOL    HW272826   8.276   1.540   4.114 -0.9174 -2.9147  2.5369
23099SOL     OW72827  10.266   4.818   6.253  0.5468 -0.8726 -0.0786
23099SOL    HW172828  10.272   4.818   6.157  1.2843 -2.3190 -0.0653
23099SOL    HW272829  10.211   4.894   6.274  0.0711 -0.7440 -1.6574
23100SOL     OW72830   6.247   3.369   4.284  0.1273  0.0925  0.4924
23100SOL    HW172831   6.329   3.400   4.245 -1.0492  0.1429 -2.1481
23100SOL    HW272832   6.246   3.275   4.265 -1.3594  0.4475 -1.4967
23101SOL     OW72833   0.057   4.026   1.985  0.4767  0.6383 -0.4168
23101SOL    HW172834   0.142   3.984   1.974  0.8305  1.3440 -0.4148
23101SOL    HW272835  -0.001   3.955   2.013  1.0020  0.1004 -0.6672
23102SOL     OW72836   3.372   8.385  10.497  0.3702  0.1597 -0.7458
23102SOL    HW172837   3.289   8.340  10.481 -0.3657  1.0845  0.3204
23102SOL    HW272838   3.386   8.438  10.418 -0.8777  1.1951 -0.3061
23103SOL     OW72839   3.293   9.598   7.360  0.2037 -0.1482  0.1147
23103SOL    HW172840   3.266   9.674   7.308  2.2778 -0.1895 -1.1449
23103SOL    HW272841   3.293   9.525   7.298  1.8989 -0.3765  0.3321
23104SOL     OW72842   8.750   4.938   2.338 -0.8061 -0.0658  0.5507
23104SOL    HW172843   8.744   4.847   2.366  0.8242  0.4787  2.8955
23104SOL    HW272844   8.798   4.935   2.256 -0.5570 -1.2884  0.7262
23105SOL     OW72845   0.582   0.280   2.456  0.4584  0.6624  0.6112
23105SOL    HW172846   0.621   0.265   2.542  2.4141 -1.0921 -0.4723
23105SOL    HW272847   0.602   0.200   2.406 -0.9101  1.4667 -1.3794
23106SOL     OW72848   6.052  10.459   0.500  0.4566 -0.2992 -0.0247
23106SOL    HW172849   6.115  10.490   0.435  0.4833  0.7896  0.4986
23106SOL    HW272850   5.991  10.531   0.511 -0.4740 -1.0736  0.0107
23107SOL     OW72851   5.443   7.211   2.848 -0.0857  0.0751 -0.6588
23107SOL    HW172852   5.435   7.306   2.838  1.9537  0.3316 -0.4774
23107SOL    HW272853   5.388   7.190   2.923 -0.3388  1.1821 -0.5166
23108SOL     OW72854   1.331  10.354   4.887 -0.3071 -0.0338 -0.5204
23108SOL    HW172855   1.390  10.417   4.928 -1.3009 -0.3480  1.5474
23108SOL    HW272856   1.245  10.396   4.893 -0.8236 -1.1337 -0.0339
23109SOL     OW72857   1.899   1.896  11.115 -0.0459  0.0304  0.1552
23109SOL    HW172858   1.832   1.839  11.152 -0.5770  0.5759  0.0604
23109SOL    HW272859   1.982   1.854  11.137 -0.4336 -2.5123 -2.6229
23110SOL     OW72860   3.509   0.862   7.716 -0.1409  0.2348 -0.5131
23110SOL    HW172861   3.418   0.842   7.693 -0.2401  1.3751 -1.1847
23110SOL    HW272862   3.542   0.915   7.643  1.2656 -0.6500 -0.5606
23111SOL     OW72863   1.409   2.848   6.023 -0.2915 -0.4745  0.1059
23111SOL    HW172864   1.346   2.903   5.977  1.5871  1.4965 -0.3063
23111SOL    HW272865   1.365   2.764   6.034 -2.3620  0.3098 -1.5400
23112SOL     OW72866  10.663   4.780  10.791 -0.1898  0.1725 -0.3487
23112SOL    HW172867  10.656   4.825  10.875 -0.7631 -0.8827  0.1937
23112SOL    HW272868  10.726   4.710  10.807 -0.6056 -0.2847 -0.6607
23113SOL     OW72869   4.618   4.488   7.045  0.0416 -0.1858 -0.4560
23113SOL    HW172870   4.669   4.530   6.975 -0.4474 -0.8485 -1.2339
23113SOL    HW272871   4.666   4.508   7.125  0.4000  0.9497 -0.9266
23114SOL     OW72872   2.227   0.619   1.280 -0.0224 -0.0931  0.2024
23114SOL    HW172873   2.210   0.529   1.253 -0.8894  0.0924  0.0861
23114SOL    HW272874   2.181   0.672   1.215  2.8061  0.5541 -1.4040
23115SOL     OW72875   7.852   2.960   0.051 -1.1896  0.3427 -0.0977
23115SOL    HW172876   7.772   2.974   0.103 -2.4986  0.2857 -2.0119
23115SOL    HW272877   7.877   2.870   0.069 -2.4026 -0.1014 -0.5786
23116SOL     OW72878   0.659   5.192   2.597 -0.4696  0.6921  0.6325
23116SOL    HW172879   0.741   5.190   2.646  0.6596 -3.6782 -0.9480
23116SOL    HW272880   0.596   5.146   2.653 -1.0740  1.5043  0.6440
23117SOL     OW72881   6.399   5.437   5.561 -0.0106  0.4661 -0.4077
23117SOL    HW172882   6.335   5.421   5.631 -0.3417  2.4078 -0.2014
23117SOL    HW272883   6.480   5.396   5.593 -0.4997  0.1978  0.5268
23118SOL     OW72884   2.724   9.127   6.382 -0.0421 -0.0444  0.0271
23118SOL    HW172885   2.794   9.153   6.442  0.5411 -2.3003  0.4131
23118SOL    HW272886   2.686   9.210   6.352  2.6700  1.2706 -0.0752
23119SOL     OW72887   7.959   1.757   3.345 -0.1544 -0.8071 -0.1792
23119SOL    HW172888   7.936   1.730   3.257 -0.3081 -1.7162  0.1322
23119SOL    HW272889   8.014   1.686   3.379  0.0303 -0.3988  0.4005
23120SOL     OW72890  10.254   0.867   7.872  0.1520  0.1597  0.0684
23120SOL    HW172891  10.258   0.881   7.778 -0.5685  0.6639  0.1008
23120SOL    HW272892  10.336   0.823   7.894  0.2638 -0.0785 -0.8093
23121SOL     OW72893   9.992   6.125   8.277 -0.2329  0.3245  0.3051
23121SOL    HW172894   9.912   6.169   8.305 -1.4931 -1.0611 -0.9507
23121SOL    HW272895   9.990   6.131   8.181  1.9149  1.4770  0.2664
23122SOL     OW72896   5.519  10.879   0.228  0.3935 -0.5194 -0.0461
23122SOL    HW172897   5.465  10.853   0.302 -0.2045  3.2513  1.0273
23122SOL    HW272898   5.459  10.880   0.153 -0.4632  1.0771  0.6140
23123SOL     OW72899   4.269   0.851   7.115  0.1156  0.1086 -0.3153
23123SOL    HW172900   4.217   0.918   7.070 -0.9470 -1.8778 -2.2455
23123SOL    HW272901   4.359   0.883   7.111 -0.4775  1.8676 -0.2686
23124SOL     OW72902   0.093   8.189   3.164 -0.1641  0.6523  0.3598
23124SOL    HW172903   0.072   8.192   3.258  2.0253  0.9696  0.8777
23124SOL    HW272904   0.079   8.279   3.134 -0.3452  0.6716  0.4999
23125SOL     OW72905  10.637   7.226   0.232  0.6888 -0.0774  0.2931
23125SOL    HW172906  10.634   7.303   0.289 -0.2607  0.4477 -0.4354
23125SOL    HW272907  10.625   7.152   0.291 -0.2658  0.4516  0.7876
23126SOL     OW72908   3.032   6.217   1.276 -0.5484  0.2029 -0.9804
23126SOL    HW172909   3.027   6.312   1.265 -1.9685  0.2255 -0.3288
23126SOL    HW272910   3.091   6.188   1.207 -0.7067  1.4720 -1.6770
23127SOL     OW72911   7.880   2.325   4.295  0.5560  0.0443 -0.1840
23127SOL    HW172912   7.807   2.384   4.275  0.4732  0.0844  0.2345
23127SOL    HW272913   7.934   2.374   4.358  0.5068 -0.3078  0.1376
23128SOL     OW72914   9.651   2.620   1.936 -0.6504  0.0515 -0.4117
23128SOL    HW172915   9.661   2.698   1.882 -0.9703 -0.3780 -1.1017
23128SOL    HW272916   9.710   2.556   1.897 -0.7117 -0.1901 -0.1080
23129SOL     OW72917   6.121   2.339   4.855  0.1552 -0.4529 -0.6267
23129SOL    HW172918   6.182   2.299   4.793 -1.3403 -0.2900 -2.2732
23129SOL    HW272919   6.165   2.420   4.882  0.6159 -0.2345 -1.9399
23130SOL     OW72920   8.993   6.482   9.260 -0.0864 -0.1770 -0.0520
23130SOL    HW172921   8.942   6.402   9.271  1.1975 -1.0934 -0.6126
23130SOL    HW272922   9.046   6.488   9.340  0.4904 -0.4005 -0.4081
23131SOL     OW72923   6.051   5.717   4.769  0.0750 -0.0584  0.3404
23131SOL    HW172924   6.021   5.727   4.678  2.6181  1.3807 -0.4271
23131SOL    HW272925   6.138   5.679   4.762  1.7912  3.1971  1.8881
23132SOL     OW72926  10.398   8.232   9.975  0.0954 -0.7373 -0.9376
23132SOL    HW172927  10.423   8.299   9.911 -0.9237 -0.2595 -0.8630
23132SOL    HW272928  10.302   8.237   9.978  0.1199  1.1279  2.5775
23133SOL     OW72929  10.003   3.278  10.819 -0.1312 -0.3214  0.3843
23133SOL    HW172930  10.081   3.295  10.873 -0.6500 -2.3601  1.9131
23133SOL    HW272931  10.038   3.249  10.735  0.8084 -1.6519  1.1995
23134SOL     OW72932   7.863   1.377   5.566 -0.4200  0.2921  0.3733
23134SOL    HW172933   7.776   1.341   5.549 -0.6303  1.3395 -0.9845
23134SOL    HW272934   7.858   1.467   5.533 -0.1545  1.9353  4.2314
23135SOL     OW72935   2.867   4.263  11.036 -0.2675 -0.4169 -0.3606
23135SOL    HW172936   2.855   4.211  10.956 -1.5753  0.5126 -0.7936
23135SOL    HW272937   2.939   4.323  11.015 -0.3769 -0.4096 -0.7159
23136SOL     OW72938   6.431   9.149   0.557  0.4523  0.0975 -0.2772
23136SOL    HW172939   6.424   9.115   0.468 -4.2381 -1.2920  0.3638
23136SOL    HW272940   6.439   9.244   0.545 -1.4442  0.1008 -2.2915
23137SOL     OW72941   1.282   6.493  10.793 -0.1529  0.0771 -0.2781
23137SOL    HW172942   1.329   6.460  10.870 -0.0864 -1.6223 -1.0052
23137SOL    HW272943   1.347   6.544  10.746  0.4479 -0.6877 -0.3045
23138SOL     OW72944   2.883   9.599   9.308  0.1390  0.1118 -0.4761
23138SOL    HW172945   2.839   9.515   9.315  3.2904 -1.6117  0.3186
23138SOL    HW272946   2.868   9.626   9.217 -1.7699 -0.7322 -0.4579
23139SOL     OW72947   1.049  10.157   2.041 -0.0910 -0.1885  0.0991
23139SOL    HW172948   1.025  10.136   1.951  1.0331 -0.1995 -0.2125
23139SOL    HW272949   1.143  10.144   2.044  0.0285  0.7809  1.0110
23140SOL     OW72950  10.359   8.956  10.525  0.1180 -1.1294 -0.4502
23140SOL    HW172951  10.283   8.905  10.496 -0.0860 -1.0391 -0.0769
23140SOL    HW272952  10.322   9.039  10.557  0.3134 -1.3303  0.3139
23141SOL     OW72953   4.026   3.097   7.729  0.2869 -0.5167 -0.0983
23141SOL    HW172954   3.951   3.086   7.788 -0.1338 -1.3334 -0.7642
23141SOL    HW272955   4.069   3.012   7.728  0.8271 -0.2475 -0.2589
23142SOL     OW72956   4.927   1.595   6.381  0.1418 -0.0576  0.0709
23142SOL    HW172957   4.934   1.501   6.365  2.3911  0.3745 -1.9276
23142SOL    HW272958   4.963   1.607   6.469 -1.0352 -1.1195  0.7367
23143SOL     OW72959   3.161  10.030   8.276  0.2745 -0.0924  0.0408
23143SOL    HW172960   3.205   9.965   8.330  1.4431  2.0420  1.8655
23143SOL    HW272961   3.216  10.038   8.198  1.3486  0.1956  0.8011
23144SOL     OW72962  10.854  10.815   2.154 -0.1027 -0.1547  0.0064
23144SOL    HW172963  10.923  10.772   2.204  0.8850 -0.4972 -1.6050
23144SOL    HW272964  10.899  10.855   2.080 -1.5858 -0.0584 -0.8735
23145SOL     OW72965   6.504   9.027  10.925 -0.2351 -0.5300 -0.1036
23145SOL    HW172966   6.478   9.113  10.957  0.2376  0.3265 -1.9027
23145SOL    HW272967   6.480   9.027  10.832 -0.2239 -2.3416 -0.1479
23146SOL     OW72968   5.650   0.182   5.102 -0.0896 -0.0474  0.1018
23146SOL    HW172969   5.628   0.090   5.087  2.2040 -0.8834  1.3986
23146SOL    HW272970   5.607   0.203   5.185 -0.1455 -0.1198  0.0919
23147SOL     OW72971   7.547   1.347   5.628 -0.0088 -0.0115  0.4140
23147SOL    HW172972   7.465   1.310   5.661 -0.8202  2.3824  1.2791
23147SOL    HW272973   7.520   1.404   5.556  1.1591 -0.7118 -0.6219
23148SOL     OW72974   8.002   7.479   3.513 -0.1164  0.7804 -0.6522
23148SOL    HW172975   7.977   7.444   3.599  0.8820  0.8688 -0.3053
23148SOL    HW272976   7.960   7.565   3.509  0.2562  1.0068 -0.0068
23149SOL     OW72977   1.579   5.774  10.636 -0.3547  0.1749 -0.4495
23149SOL    HW172978   1.530   5.722  10.572 -0.8546  0.0644  0.0235
23149SOL    HW272979   1.517   5.791  10.706  0.1493  0.4314 -0.0603
23150SOL     OW72980  10.620   8.179   8.571  0.0364 -0.1569 -0.0740
23150SOL    HW172981  10.666   8.158   8.653 -0.7149 -0.3375  0.3152
23150SOL    HW272982  10.688   8.213   8.513  0.6673 -0.4726  0.4652
23151SOL     OW72983   7.379   5.092   8.644  0.2248  0.2779  0.2095
23151SOL    HW172984   7.445   5.022   8.646 -0.3223 -0.3589 -1.8140
23151SOL    HW272985   7.375   5.118   8.552 -1.9932  0.6557  0.3756
23152SOL     OW72986   4.655  10.519  11.022  0.0548  0.2597 -0.3301
23152SOL    HW172987   4.618  10.481  10.942  1.4815  0.7031 -1.2329
23152SOL    HW272988   4.594  10.590  11.044 -0.3190  0.1816 -1.0590
23153SOL     OW72989   2.857   6.753   8.333 -0.1397  1.0483 -0.3156
23153SOL    HW172990   2.797   6.760   8.259  0.0342  2.2057 -0.3777
23153SOL    HW272991   2.914   6.679   8.312 -1.4242  0.0318 -0.3197
23154SOL     OW72992   7.226   5.350   5.528  0.1492  0.1726  0.3027
23154SOL    HW172993   7.241   5.295   5.605  1.9365  0.1929  0.0085
23154SOL    HW272994   7.255   5.297   5.455 -0.2140  0.6831 -0.2201
23155SOL     OW72995   5.082   1.891  10.055  0.4325  0.5142  0.1624
23155SOL    HW172996   5.070   1.796  10.054  0.9395  0.4494 -0.5392
23155SOL    HW272997   5.175   1.903  10.074  0.6090  0.8353 -0.8517
23156SOL     OW72998   8.234   0.676   8.402 -0.1981  0.3138  0.3709
23156SOL    HW172999   8.275   0.593   8.376  0.1780  0.1875  1.3402
23156SOL    HW273000   8.279   0.742   8.349 -0.1324 -0.0426 -0.0245
23157SOL     OW73001   9.816   1.278   5.799 -0.4258 -0.3500 -0.0819
23157SOL    HW173002   9.801   1.362   5.844  0.3702 -0.2234 -0.0383
23157SOL    HW273003   9.729   1.237   5.796 -1.3952  1.5866 -2.3703
23158SOL     OW73004   1.483  10.476   3.398  0.3431 -0.0824  0.9674
23158SOL    HW173005   1.504  10.402   3.340 -0.7580 -0.4383  0.9958
23158SOL    HW273006   1.557  10.481   3.458  0.2902 -1.4059  1.1863
23159SOL     OW73007  10.176   6.507   7.982 -0.1342  0.3371 -0.1358
23159SOL    HW173008  10.176   6.555   8.065  1.1363 -0.7817  0.5456
23159SOL    HW273009  10.235   6.434   7.996 -0.2088 -0.1194 -1.9137
23160SOL     OW73010   3.340   9.946   9.758 -0.5574  0.2283 -0.9202
23160SOL    HW173011   3.432   9.971   9.758 -0.4704  0.0255  0.5259
23160SOL    HW273012   3.338   9.861   9.714  0.3180 -0.8364  0.9707
23161SOL     OW73013   4.992   8.302   5.708 -0.3480  0.0501 -0.2784
23161SOL    HW173014   5.029   8.390   5.706 -0.8768  0.4679  2.9914
23161SOL    HW273015   5.062   8.245   5.676  0.7676  1.4312 -0.3855
23162SOL     OW73016   0.874   3.531   3.199 -0.1611 -0.0127  0.1155
23162SOL    HW173017   0.872   3.507   3.106 -0.1590 -0.8294  0.3179
23162SOL    HW273018   0.943   3.597   3.205  0.8871 -1.0374 -0.2390
23163SOL     OW73019   5.653   7.558   4.106  0.3192  0.0329 -0.1418
23163SOL    HW173020   5.744   7.586   4.092 -0.3013  1.9597 -0.6152
23163SOL    HW273021   5.600   7.631   4.075 -1.3986 -0.4750  1.3924
23164SOL     OW73022   6.925   8.509   8.970  0.2989  0.2620 -0.0162
23164SOL    HW173023   6.939   8.602   8.986 -0.4453  0.2890  0.5282
23164SOL    HW273024   6.859   8.483   9.035 -2.4806  0.2468 -2.6139
23165SOL     OW73025   6.188   8.060   7.445 -0.0672  0.1357  0.2857
23165SOL    HW173026   6.152   7.984   7.490 -0.6633  1.1588  1.5917
23165SOL    HW273027   6.136   8.067   7.365 -0.8918 -0.0664  0.7914
23166SOL     OW73028   1.706   3.205   6.808 -0.5163  0.0060 -0.2670
23166SOL    HW173029   1.670   3.292   6.793  1.3350  0.9132  0.2510
23166SOL    HW273030   1.794   3.208   6.771  1.1038 -0.2806  3.1361
23167SOL     OW73031   0.623   7.286   3.079  0.0099  0.3884 -0.1046
23167SOL    HW173032   0.537   7.310   3.045 -0.6103 -2.3024 -0.6321
23167SOL    HW273033   0.607   7.263   3.171  0.8577  3.1008  0.8318
23168SOL     OW73034   6.880   1.546   3.080 -0.0772 -0.3348 -0.7799
23168SOL    HW173035   6.880   1.452   3.059 -0.0377 -0.5486  0.1694
23168SOL    HW273036   6.804   1.558   3.136  0.8101 -0.1006  0.3976
23169SOL     OW73037   0.377   7.725  10.931 -0.0824  0.1663 -0.3284
23169SOL    HW173038   0.348   7.733  10.840  0.8224  0.8385 -0.5734
23169SOL    HW273039   0.316   7.778  10.981 -2.0739 -2.1062 -0.1736
23170SOL     OW73040   1.130   6.096   3.883  0.4035  0.0750  0.0356
23170SOL    HW173041   1.139   6.187   3.913  1.1889  0.1312 -0.3594
23170SOL    HW273042   1.151   6.100   3.790 -3.1189  0.1187 -0.9157
23171SOL     OW73043   0.414   0.717   6.399 -0.0501  0.0690  0.2792
23171SOL    HW173044   0.340   0.752   6.448  0.5909  0.1222  1.2367
23171SOL    HW273045   0.437   0.787   6.338 -0.3881  0.3100  0.4264
23172SOL     OW73046  10.803   7.076   5.615 -0.1499 -0.5331  0.0190
23172SOL    HW173047  10.792   7.157   5.665  1.0031  0.5804 -1.4597
23172SOL    HW273048  10.715   7.054   5.585 -0.3989  0.4927 -0.0322
23173SOL     OW73049   8.759   8.526   3.645  0.3911 -0.0219 -0.6793
23173SOL    HW173050   8.804   8.506   3.563 -0.1287  0.9470 -1.2165
23173SOL    HW273051   8.681   8.470   3.644  0.7085 -0.4662 -0.5495
23174SOL     OW73052   7.944   8.935   6.711  0.2325 -0.3779  0.0830
23174SOL    HW173053   7.985   9.019   6.731  0.7845 -1.0794  2.1481
23174SOL    HW273054   7.860   8.938   6.758 -0.1352 -0.6589 -0.5390
23175SOL     OW73055  10.326   5.058   1.039 -0.3743 -0.1944 -0.1964
23175SOL    HW173056  10.308   5.086   0.949  0.3291  0.0789 -0.2565
23175SOL    HW273057  10.422   5.057   1.045 -0.3425  2.1902  1.2635
23176SOL     OW73058   7.318   8.032   6.527 -0.5448  0.8532  0.3771
23176SOL    HW173059   7.345   7.998   6.442 -1.4667 -0.3009  0.5244
23176SOL    HW273060   7.242   7.980   6.551  0.5362  0.1491  2.5816
23177SOL     OW73061   9.466   6.390   6.269 -0.2303  0.0276  0.4818
23177SOL    HW173062   9.405   6.434   6.328 -0.2809  1.7344 -0.7958
23177SOL    HW273063   9.467   6.443   6.190 -1.2964 -2.9698 -1.7207
23178SOL     OW73064  10.680   7.486   9.727 -0.4239 -0.0614 -0.3262
23178SOL    HW173065  10.599   7.527   9.698 -0.3114  0.6336  0.3095
23178SOL    HW273066  10.668   7.393   9.709 -1.2392  0.0743 -0.5176
23179SOL     OW73067   4.664   2.407   2.465  0.2083 -0.3218 -0.1632
23179SOL    HW173068   4.693   2.358   2.541  0.6761 -0.3779 -0.3766
23179SOL    HW273069   4.715   2.488   2.466 -0.2534 -0.0243 -0.0529
23180SOL     OW73070   1.345   8.657   1.202 -0.4452 -0.1562  0.0859
23180SOL    HW173071   1.327   8.742   1.164  1.1155 -0.1643 -0.7515
23180SOL    HW273072   1.441   8.652   1.207 -0.4081 -2.4460 -1.3456
23181SOL     OW73073  10.617   0.284   2.387  0.5541 -0.6101  0.0372
23181SOL    HW173074  10.571   0.202   2.370  0.6432 -0.3824 -1.4730
23181SOL    HW273075  10.552   0.352   2.369 -0.0119 -0.3141  2.8063
23182SOL     OW73076   4.176   4.817   5.775 -0.2038 -0.4912 -0.0829
23182SOL    HW173077   4.184   4.730   5.816 -2.4778 -0.1132  1.3698
23182SOL    HW273078   4.266   4.845   5.761  0.6092 -2.7256  0.1848
23183SOL     OW73079   9.757   2.755  10.459 -0.1372 -0.2913  0.5182
23183SOL    HW173080   9.667   2.725  10.443 -0.0061  0.0325 -0.8924
23183SOL    HW273081   9.802   2.678  10.494 -1.0513 -0.3393  1.6706
23184SOL     OW73082   7.483   5.186  10.983 -0.9053  0.2701  0.3428
23184SOL    HW173083   7.553   5.155  10.925 -2.3844  0.0528 -1.4055
23184SOL    HW273084   7.440   5.255  10.933 -1.5016  0.9043  1.6936
23185SOL     OW73085   5.702   7.907   5.954  0.6071  0.1779 -0.1596
23185SOL    HW173086   5.608   7.889   5.951  0.2186  2.0545  0.0580
23185SOL    HW273087   5.710   8.002   5.947  2.5332  0.0284 -0.7846
23186SOL     OW73088   7.254   5.014   2.357 -0.1694 -0.6050 -0.1680
23186SOL    HW173089   7.271   4.972   2.272  0.4761 -0.8904  0.0911
23186SOL    HW273090   7.164   5.046   2.351 -0.1024 -0.5609 -0.9843
23187SOL     OW73091   8.366   3.564   1.993  0.2084 -0.1548  0.0697
23187SOL    HW173092   8.280   3.586   1.956 -0.1438 -3.4615 -1.4459
23187SOL    HW273093   8.366   3.603   2.080 -3.6448 -1.5271  0.8651
23188SOL     OW73094   5.644   5.953   1.271 -0.7247 -0.1766 -0.0122
23188SOL    HW173095   5.609   6.041   1.286 -0.8898 -0.2926  0.2787
23188SOL    HW273096   5.716   5.967   1.210  0.6373  0.4581  1.6449
23189SOL     OW73097   7.246   1.180   0.419  0.2138 -0.1810  0.3584
23189SOL    HW173098   7.293   1.235   0.356  0.0300 -0.2142  0.1896
23189SOL    HW273099   7.255   1.225   0.502 -0.5198  0.4690  0.0960
23190SOL     OW73100   2.896  10.190   1.714  0.2463  1.0250  0.1552
23190SOL    HW173101   2.934  10.219   1.796  1.4906 -1.5233  0.5848
23190SOL    HW273102   2.819  10.139   1.740  0.3372  0.6534 -0.2833
23191SOL     OW73103   5.697   7.287   3.519 -0.8942 -0.1599  0.5124
23191SOL    HW173104   5.726   7.301   3.609  1.5833  0.4300 -0.2903
23191SOL    HW273105   5.711   7.194   3.503  1.8888  0.2967 -0.1974
23192SOL     OW73106   0.978   7.070   0.073  0.7916 -0.4741 -0.7819
23192SOL    HW173107   0.910   7.078   0.140  1.5041  0.9217 -0.1834
23192SOL    HW273108   1.029   6.994   0.099  1.6209  0.5923  0.8161
23193SOL     OW73109   5.165   5.251   8.587 -0.2417  0.0444 -0.2043
23193SOL    HW173110   5.196   5.211   8.506 -0.0738 -1.5393  0.6134
23193SOL    HW273111   5.169   5.346   8.569  1.2675 -0.2162 -1.4957
23194SOL     OW73112   2.193   6.328   6.869 -0.3342 -0.3303  0.1275
23194SOL    HW173113   2.185   6.414   6.827 -0.1058 -0.3206  0.1034
23194SOL    HW273114   2.215   6.268   6.798  0.0116 -0.3201  0.2220
23195SOL     OW73115   5.921  10.841   1.308 -0.4172 -0.0732 -0.3676
23195SOL    HW173116   5.879  10.919   1.343 -0.0310  0.1065 -0.2972
23195SOL    HW273117   6.001  10.832   1.359  0.0951  0.1266 -1.1241
23196SOL     OW73118   6.223   7.221   1.855  0.5561 -0.0139  0.1996
23196SOL    HW173119   6.273   7.139   1.858  0.7135  0.0324 -0.9038
23196SOL    HW273120   6.162   7.209   1.783 -0.0653  0.4899  0.6348
23197SOL     OW73121   8.643   4.903  10.783 -0.8242  0.3954  0.8582
23197SOL    HW173122   8.562   4.863  10.752 -0.9110 -0.3949  2.0227
23197SOL    HW273123   8.658   4.977  10.724  0.2356 -2.2432 -2.4927
23198SOL     OW73124   7.951   0.641   1.574 -0.0327  0.8492 -0.1987
23198SOL    HW173125   7.980   0.638   1.483 -0.8068  0.5671 -0.4488
23198SOL    HW273126   7.893   0.566   1.583  2.5574 -1.1049  1.4458
23199SOL     OW73127   8.523   4.379   4.390 -0.1668 -0.2598  0.3758
23199SOL    HW173128   8.516   4.283   4.391  0.7486 -0.3384  1.5194
23199SOL    HW273129   8.613   4.395   4.361 -0.0158  0.2171  1.0957
23200SOL     OW73130   7.493   9.906   3.734 -0.0594 -0.0435  0.2383
23200SOL    HW173131   7.539   9.990   3.738 -0.7866  0.3389  1.2755
23200SOL    HW273132   7.439   9.905   3.813 -0.5602 -1.2105 -0.0910
23201SOL     OW73133   8.435   2.736   4.863  0.1878  0.0977 -0.3983
23201SOL    HW173134   8.473   2.813   4.907  0.6088 -0.4571  0.2213
23201SOL    HW273135   8.470   2.740   4.774  0.2779  0.5781 -0.3448
23202SOL     OW73136   8.811   2.290   9.688  0.3653 -0.1583 -0.0936
23202SOL    HW173137   8.743   2.348   9.655 -0.0490  0.6963  2.0440
23202SOL    HW273138   8.893   2.336   9.670  0.0589  1.0281  1.2790
23203SOL     OW73139  10.899   5.503   1.351  0.0630 -0.0544 -0.1932
23203SOL    HW173140  10.969   5.514   1.287  0.0990  0.9283 -0.0067
23203SOL    HW273141  10.835   5.448   1.307  0.1641  0.4622 -1.0138
23204SOL     OW73142   9.655   8.985   6.945 -0.5862  0.1136  0.1554
23204SOL    HW173143   9.707   8.994   6.865 -1.8220  0.1838 -0.6606
23204SOL    HW273144   9.575   9.035   6.928 -1.1476 -0.4021  1.1816
23205SOL     OW73145   1.271   7.247   9.576  0.2963  0.4444  0.8540
23205SOL    HW173146   1.224   7.249   9.492  1.0093 -1.4858  0.3710
23205SOL    HW273147   1.287   7.340   9.596 -0.5277  0.9774 -0.7709
23206SOL     OW73148  10.497   4.154   8.012  0.8495 -0.2330 -0.1070
23206SOL    HW173149  10.577   4.202   7.993  0.2554  0.3982 -1.0308
23206SOL    HW273150  10.471   4.115   7.929  0.8948 -1.5259  0.4584
23207SOL     OW73151   2.119   7.906   1.741  0.1210 -0.0813  0.3771
23207SOL    HW173152   2.076   7.834   1.787  0.9606 -0.6384  0.3244
23207SOL    HW273153   2.149   7.867   1.659  1.1227  0.1601  0.6193
23208SOL     OW73154   0.532  10.826   4.392  0.2499 -0.1422  0.6194
23208SOL    HW173155   0.580  10.907   4.375 -0.6864 -0.0274 -2.0182
23208SOL    HW273156   0.442  10.855   4.409  0.2741 -0.5576  1.5125
23209SOL     OW73157   0.109   2.326   3.032  0.0104 -0.0004  0.3375
23209SOL    HW173158   0.099   2.421   3.035  0.6824  0.1135 -0.5016
23209SOL    HW273159   0.194   2.309   3.074  1.3536  0.0899 -2.1238
23210SOL     OW73160  10.811   0.038   1.874 -0.0406 -0.0464 -0.0291
23210SOL    HW173161  10.811   0.107   1.941 -0.4438 -1.3834  1.4190
23210SOL    HW273162  10.893  -0.008   1.888  0.3939  0.3379 -1.2338
23211SOL     OW73163   7.920   3.026   8.668 -0.3239  0.1198 -0.2042
23211SOL    HW173164   7.951   2.939   8.643 -0.4915  0.3903 -1.4378
23211SOL    HW273165   7.999   3.080   8.668 -0.7101  1.0024 -4.1850
23212SOL     OW73166   8.206  10.934   8.537  0.9170 -0.8726  0.3061
23212SOL    HW173167   8.193  10.862   8.599  0.3318 -1.6040 -0.6345
23212SOL    HW273168   8.260  10.896   8.468  2.6126  0.2811  0.9284
23213SOL     OW73169   0.482   5.909   2.287 -0.7178  0.3952 -0.5788
23213SOL    HW173170   0.430   5.907   2.368  0.3026 -0.4096  0.0866
23213SOL    HW273171   0.523   5.823   2.282  1.3126  1.2853 -0.5300
23214SOL     OW73172   2.977   7.228   1.087 -0.5539 -0.5405 -0.1732
23214SOL    HW173173   3.035   7.207   1.160 -1.8413 -2.2469  0.4336
23214SOL    HW273174   2.896   7.180   1.107 -0.6054 -1.9621 -3.2449
23215SOL     OW73175   4.544   1.320   9.856  0.1088  0.6537 -0.2142
23215SOL    HW173176   4.571   1.363   9.938 -0.6148  0.2817  0.2325
23215SOL    HW273177   4.613   1.342   9.794  1.5600 -0.4680  0.9423
23216SOL     OW73178   1.088   5.346   9.052  0.1652 -0.3358  0.1801
23216SOL    HW173179   1.024   5.361   8.982 -0.7501  2.6028  1.5090
23216SOL    HW273180   1.036   5.319   9.127  0.6916  0.0614  0.7003
23217SOL     OW73181   4.338   3.980   8.737 -0.1162 -0.2485 -0.0115
23217SOL    HW173182   4.304   4.041   8.802  0.6444  0.7439 -0.5145
23217SOL    HW273183   4.427   3.961   8.766 -0.2040 -0.8041 -0.0863
23218SOL     OW73184   4.182   6.037   9.402  0.2279 -0.0294 -0.0196
23218SOL    HW173185   4.247   6.098   9.370 -0.8772  0.2395 -1.8711
23218SOL    HW273186   4.186   5.962   9.342 -0.1282 -0.6805  0.7438
23219SOL     OW73187   3.606   7.464   3.802 -0.1479  0.7756  0.1362
23219SOL    HW173188   3.671   7.396   3.785  0.5127  1.9686 -2.9719
23219SOL    HW273189   3.654   7.531   3.851  1.4841  2.0706 -2.9223
23220SOL     OW73190   1.625   4.570   3.297 -0.2590  0.1315 -0.0286
23220SOL    HW173191   1.599   4.647   3.348 -0.6136  1.5013 -2.1498
23220SOL    HW273192   1.688   4.604   3.233 -0.3033 -1.3684 -0.9120
23221SOL     OW73193   8.745   2.988   5.435 -0.2274 -0.0964  0.2847
23221SOL    HW173194   8.747   3.012   5.343  0.3164  0.5371  0.4588
23221SOL    HW273195   8.820   3.033   5.474  0.1853 -1.2125  0.8315
23222SOL     OW73196   0.268   7.397  10.353 -0.1851  0.5354  0.3701
23222SOL    HW173197   0.182   7.355  10.350 -0.0504  0.2172  0.8399
23222SOL    HW273198   0.301   7.377  10.441  0.5763  0.2389  0.0197
23223SOL     OW73199   3.243   9.629   8.887  0.6342  0.8560  0.0010
23223SOL    HW173200   3.160   9.600   8.925  0.9786  0.8216  0.7344
23223SOL    HW273201   3.301   9.554   8.897  0.5043  0.5443 -1.3524
23224SOL     OW73202   1.366   9.785   5.212  0.2570  0.5983  0.2834
23224SOL    HW173203   1.395   9.871   5.180  1.2306  0.3154  0.3826
23224SOL    HW273204   1.445   9.744   5.247  0.5061 -1.5365 -2.3977
23225SOL     OW73205   9.712   0.756  10.045 -0.5234 -0.0483 -0.5280
23225SOL    HW173206   9.710   0.848  10.072  0.6413 -0.0259 -0.4597
23225SOL    HW273207   9.645   0.714  10.099 -0.2016  0.5307  0.3509
23226SOL     OW73208   1.506  10.104   5.776 -0.5386  0.3716  0.7070
23226SOL    HW173209   1.415  10.074   5.774  0.0769 -1.6988  0.7831
23226SOL    HW273210   1.522  10.138   5.688 -0.4475 -2.4922 -0.4891
23227SOL     OW73211  10.554   0.655  10.830  0.0719  0.3401 -0.0869
23227SOL    HW173212  10.566   0.707  10.910  0.8953 -0.5463  0.3938
23227SOL    HW273213  10.633   0.600  10.826  0.4666  0.9757 -1.9812
23228SOL     OW73214   8.858  10.210   1.247 -0.8483 -0.4490  0.4158
23228SOL    HW173215   8.841  10.174   1.160 -0.9371 -0.3225  0.3799
23228SOL    HW273216   8.783  10.266   1.265 -1.1000 -0.9040  0.8054
23229SOL     OW73217   2.602   8.414   7.562  0.2154 -0.2861 -0.0957
23229SOL    HW173218   2.657   8.347   7.521  0.4792  0.5656 -1.1901
23229SOL    HW273219   2.654   8.494   7.557 -0.8710  0.4209 -0.6423
23230SOL     OW73220   1.107  10.549   6.672 -0.1117 -0.3275  0.3017
23230SOL    HW173221   1.187  10.554   6.725  0.7467  2.2477 -1.0232
23230SOL    HW273222   1.139  10.532   6.583 -0.8944  1.4166 -0.3662
23231SOL     OW73223  10.321   8.529   3.360 -0.0455  0.0326  0.0265
23231SOL    HW173224  10.304   8.534   3.454 -1.3230 -0.0721 -0.1803
23231SOL    HW273225  10.243   8.565   3.319  0.0078 -0.9538 -1.0176
23232SOL     OW73226   3.076   1.109   1.587  0.4550  0.0336  0.1363
23232SOL    HW173227   3.171   1.097   1.590  0.5678  0.9179  0.3533
23232SOL    HW273228   3.047   1.096   1.677  0.3966 -0.0232  0.1093
23233SOL     OW73229  10.934   8.689   2.281  0.1368 -0.3603  0.0252
23233SOL    HW173230  11.021   8.692   2.322 -0.2395 -0.8745  0.8955
23233SOL    HW273231  10.892   8.613   2.320 -0.6033 -0.2874 -0.6115
23234SOL     OW73232   9.598   6.066   2.814  0.5124 -0.2474 -0.1031
23234SOL    HW173233   9.676   6.067   2.758 -0.0695 -1.6987 -0.9869
23234SOL    HW273234   9.632   6.086   2.901  1.8120 -0.4009 -0.5399
23235SOL     OW73235   7.734   1.287   7.727 -0.2861  0.5779 -0.0889
23235SOL    HW173236   7.791   1.279   7.650  1.1069  1.7657  0.7818
23235SOL    HW273237   7.686   1.204   7.729  1.4784 -0.5171 -0.8111
23236SOL     OW73238   7.870   3.439   1.311 -0.2279  0.3766  0.2857
23236SOL    HW173239   7.897   3.491   1.386  1.2404 -0.1595  0.1727
23236SOL    HW273240   7.941   3.451   1.247 -2.1663  2.0800 -1.6871
23237SOL     OW73241   9.634   5.109   1.251  0.1925 -0.1584  0.1709
23237SOL    HW173242   9.686   5.088   1.329  2.8758 -3.5565 -2.2188
23237SOL    HW273243   9.680   5.183   1.210  1.0168 -0.7802 -0.0456
23238SOL     OW73244   3.542   2.990   4.070 -0.5377  0.1885 -0.6458
23238SOL    HW173245   3.461   3.035   4.096 -1.2218 -0.9108 -0.7886
23238SOL    HW273246   3.560   2.930   4.143  0.1312  0.4057 -0.6313
23239SOL     OW73247   5.076   7.891   9.650  0.0844 -0.0066 -0.4894
23239SOL    HW173248   5.075   7.978   9.691  0.9930 -1.1397  2.1484
23239SOL    HW273249   5.023   7.836   9.708  1.8936 -1.8449 -0.4562
23240SOL     OW73250   1.665   9.407   9.922 -0.1605 -0.0059  0.7228
23240SOL    HW173251   1.700   9.435  10.007  1.6783 -1.6845  0.5783
23240SOL    HW273252   1.736   9.357   9.882 -1.4063 -0.2280 -1.3307
23241SOL     OW73253   4.759   9.119   6.782 -0.2104  0.1806 -0.3348
23241SOL    HW173254   4.814   9.193   6.806  1.6711 -0.7582 -1.4917
23241SOL    HW273255   4.821   9.048   6.765 -1.9548 -2.2539  2.4677
23242SOL     OW73256   0.373   4.675   7.013  0.0159  0.1316  0.0345
23242SOL    HW173257   0.429   4.610   6.972  0.9953  0.3146  1.0482
23242SOL    HW273258   0.344   4.731   6.940  0.7309 -0.2677 -0.5674
23243SOL     OW73259   0.297   5.708   8.712  0.1193 -0.6377  0.8199
23243SOL    HW173260   0.268   5.794   8.743 -1.7467  0.0278 -2.3923
23243SOL    HW273261   0.378   5.726   8.665  0.7577 -0.9870  1.7604
23244SOL     OW73262   7.272   0.376   1.591 -0.4297 -0.2089 -0.0241
23244SOL    HW173263   7.233   0.413   1.671 -0.2997 -1.1927  0.5148
23244SOL    HW273264   7.348   0.327   1.622 -1.0482 -1.6031 -0.5871
23245SOL     OW73265   1.788   3.636   7.034  0.4077  0.0496 -0.0186
23245SOL    HW173266   1.874   3.629   6.993  0.7813 -0.1732  0.7725
23245SOL    HW273267   1.726   3.628   6.962  1.0086 -1.4101 -0.4148
23246SOL     OW73268   7.923   1.202   1.841 -0.1064 -0.3022 -0.9596
23246SOL    HW173269   7.906   1.197   1.747  0.2702  0.5878 -1.0841
23246SOL    HW273270   8.018   1.204   1.848 -0.0831 -1.7451 -0.4631
23247SOL     OW73271   5.485   8.830   4.784  0.2354 -0.3486 -0.4766
23247SOL    HW173272   5.424   8.888   4.831  0.6452 -1.9415  2.2542
23247SOL    HW273273   5.543   8.889   4.738 -0.0105  1.4290  1.3364
23248SOL     OW73274   8.629   6.415   5.643 -0.1564 -0.5934  0.6101
23248SOL    HW173275   8.658   6.401   5.553  0.2854 -0.4674  0.7272
23248SOL    HW273276   8.550   6.362   5.652  0.1501 -1.1101  0.3316
23249SOL     OW73277   9.406   4.509   7.974 -0.0875  0.0129 -0.4903
23249SOL    HW173278   9.471   4.518   8.043 -0.3414  1.3344 -0.3960
23249SOL    HW273279   9.323   4.499   8.020 -0.4753  2.4788 -0.5287
23250SOL     OW73280   4.411  10.925   4.383  0.1000  0.4705  1.0244
23250SOL    HW173281   4.467  10.946   4.309 -0.3673  0.5049  0.6695
23250SOL    HW273282   4.438  10.985   4.452  0.7013  0.2777  0.9608
23251SOL     OW73283   2.036  10.345   3.679  0.5783  0.5154 -0.1254
23251SOL    HW173284   2.126  10.374   3.666  0.6325 -0.3767 -1.9346
23251SOL    HW273285   2.042  10.252   3.697  0.0100  0.4945 -0.0030
23252SOL     OW73286   8.208   1.986   5.611  0.1008  0.0803 -0.1671
23252SOL    HW173287   8.279   1.946   5.560 -0.4719  0.0397 -0.9574
23252SOL    HW273288   8.169   1.913   5.659 -0.8125 -0.3102 -1.4493
23253SOL     OW73289   8.607   8.041   8.093 -0.6483  0.4784  0.7741
23253SOL    HW173290   8.530   7.985   8.094  0.2650 -0.9548 -1.6238
23253SOL    HW273291   8.606   8.082   8.007  2.1057 -0.8939 -0.0273
23254SOL     OW73292   5.367   8.049   1.809 -0.1608  0.6965  0.1406
23254SOL    HW173293   5.304   8.114   1.779 -0.4139 -0.1299 -1.2201
23254SOL    HW273294   5.373   7.986   1.737  0.5278 -0.4625  1.1574
23255SOL     OW73295   4.268   3.047   5.672 -0.0923  0.2347  0.0311
23255SOL    HW173296   4.225   2.983   5.729  0.1001 -0.8509 -0.9988
23255SOL    HW273297   4.344   3.077   5.722 -0.2912 -0.2023  0.6029
23256SOL     OW73298   8.621   4.796   3.323 -0.2194  0.0582 -0.0725
23256SOL    HW173299   8.540   4.752   3.349 -1.4176  2.8437  1.2582
23256SOL    HW273300   8.593   4.862   3.259  1.4626 -0.7432 -1.7520
23257SOL     OW73301   5.781   9.523  10.734  0.0360  0.0293 -0.3976
23257SOL    HW173302   5.768   9.573  10.815 -1.4796  1.4500 -1.4304
23257SOL    HW273303   5.823   9.585  10.675  1.4880 -1.1155 -0.6134
23258SOL     OW73304   4.428   9.723   1.444  0.0626  0.2136 -0.1952
23258SOL    HW173305   4.382   9.640   1.449  0.2117  0.0831 -0.8585
23258SOL    HW273306   4.417   9.762   1.531  0.1407 -0.5726  0.1756
23259SOL     OW73307   3.405   1.417   8.079  0.1593 -0.3336  0.0598
23259SOL    HW173308   3.441   1.469   8.151 -0.8147 -0.1762  0.4510
23259SOL    HW273309   3.343   1.475   8.036 -0.3006 -0.8817 -0.0378
23260SOL     OW73310   7.935   2.030   2.611 -0.3118 -0.2128  0.1439
23260SOL    HW173311   7.879   1.989   2.678 -0.5544  0.2987  0.2613
23260SOL    HW273312   8.020   2.038   2.654 -1.2510  3.1436  1.6656
23261SOL     OW73313   5.779   7.833   9.299 -0.0058 -0.4232  0.4592
23261SOL    HW173314   5.845   7.818   9.232 -0.0133  0.5692  0.2044
23261SOL    HW273315   5.770   7.929   9.302 -0.1741 -0.4580  1.7022
23262SOL     OW73316  10.503   3.700   7.591  0.4912  0.4840 -0.3525
23262SOL    HW173317  10.444   3.743   7.653  1.3578  0.2991  0.6090
23262SOL    HW273318  10.453   3.625   7.559 -0.8370  1.8387 -1.6492
23263SOL     OW73319   4.522   8.268   6.468 -0.4417 -0.1692  0.1731
23263SOL    HW173320   4.517   8.355   6.428 -0.9736 -0.4279 -0.3463
23263SOL    HW273321   4.580   8.279   6.543 -0.0193  0.5012 -0.2366
23264SOL     OW73322   7.697   0.915   8.584 -0.5982  0.0576  0.4188
23264SOL    HW173323   7.653   0.906   8.499 -3.2404  1.3383  1.5195
23264SOL    HW273324   7.658   0.847   8.639 -0.1705  0.3225  1.0640
23265SOL     OW73325   2.997   4.533   3.446  0.0423  0.0877  0.1749
23265SOL    HW173326   3.021   4.441   3.436 -0.4370 -0.0402  0.1842
23265SOL    HW273327   2.939   4.534   3.522  1.0675  0.5883  0.9711
23266SOL     OW73328   9.004   3.913   0.103 -0.2057  0.0997  0.3297
23266SOL    HW173329   9.093   3.922   0.070  0.5821 -1.5196  1.8318
23266SOL    HW273330   9.011   3.936   0.196 -1.3543 -0.0124  0.4542
23267SOL     OW73331   3.843   0.666   7.082  0.5017  0.2740  0.6704
23267SOL    HW173332   3.904   0.594   7.099  0.6996  0.3066  0.1325
23267SOL    HW273333   3.888   0.721   7.017 -0.2311  0.1176  0.0077
23268SOL     OW73334   5.630   2.050   8.619  0.1659 -0.0941  0.3218
23268SOL    HW173335   5.563   2.029   8.554 -1.1247  1.4935  1.0747
23268SOL    HW273336   5.713   2.029   8.576 -0.7718 -1.8510 -0.7289
23269SOL     OW73337   5.885   0.910   5.709 -0.4803  0.0904 -0.2131
23269SOL    HW173338   5.954   0.886   5.772  0.9178 -0.5109 -1.9000
23269SOL    HW273339   5.856   0.996   5.737  0.2550 -0.0695  1.1323
23270SOL     OW73340   9.408   8.629   0.510 -0.9573 -0.1528 -0.0157
23270SOL    HW173341   9.451   8.667   0.433 -0.3206 -2.6673 -0.9981
23270SOL    HW273342   9.437   8.683   0.583  0.8906  0.4913 -1.1618
23271SOL     OW73343   3.123   1.920   6.224  0.7099 -0.1113 -0.1638
23271SOL    HW173344   3.136   1.854   6.292  0.8257  0.5408  0.4565
23271SOL    HW273345   3.076   1.990   6.267 -1.0548 -0.5389 -1.2695
23272SOL     OW73346   9.673   5.415   1.469 -0.0699  0.2117 -0.0088
23272SOL    HW173347   9.758   5.457   1.459 -0.3747  0.2756 -3.1442
23272SOL    HW273348   9.617   5.457   1.404 -2.0840 -0.9655  0.8465
23273SOL     OW73349  10.694   8.651   6.527  0.2163 -0.7924 -0.3768
23273SOL    HW173350  10.693   8.691   6.614  0.8455 -1.1143 -0.2142
23273SOL    HW273351  10.651   8.566   6.538 -5.0395  1.3293 -1.5430
23274SOL     OW73352   9.947   5.535  10.570 -0.0541 -0.5867 -0.0073
23274SOL    HW173353   9.970   5.604  10.632 -1.0462 -0.0830 -0.1707
23274SOL    HW273354   9.963   5.453  10.617  1.3955 -0.2729  0.1013
23275SOL     OW73355   8.865   8.515   6.371  0.6407 -0.2199 -0.1354
23275SOL    HW173356   8.901   8.429   6.350  0.4199 -0.4566  0.4333
23275SOL    HW273357   8.921   8.576   6.324 -0.2591 -0.7549 -1.9883
23276SOL     OW73358   3.607  10.246   5.748  0.6105  0.3526  0.3987
23276SOL    HW173359   3.514  10.225   5.738  0.7989 -0.3511  0.0840
23276SOL    HW273360   3.620  10.322   5.690  0.0921  0.8839  0.9612
23277SOL     OW73361   9.540   2.473   9.375  1.0135 -0.6861 -0.1165
23277SOL    HW173362   9.611   2.456   9.438  0.2850  0.7352  1.1721
23277SOL    HW273363   9.545   2.567   9.359 -0.9386 -0.4304  0.5102
23278SOL     OW73364   7.312  10.333   0.606 -0.8841  0.2991  0.2165
23278SOL    HW173365   7.402  10.300   0.601 -0.9589 -0.3616  2.2713
23278SOL    HW273366   7.323  10.427   0.624 -0.6562  0.7543 -2.0692
23279SOL     OW73367   8.118   5.660   4.661 -0.3390  0.6081  0.0052
23279SOL    HW173368   8.190   5.677   4.600 -0.3837  1.1854  0.1126
23279SOL    HW273369   8.070   5.742   4.665 -1.0772  0.1940 -0.1543
23280SOL     OW73370   0.621   8.915   9.445 -0.0711 -0.5216 -0.0501
23280SOL    HW173371   0.618   8.824   9.414 -0.7883 -0.6826  0.4660
23280SOL    HW273372   0.623   8.908   9.540 -4.0472 -0.0390  0.2642
23281SOL     OW73373   1.155   9.798   5.973 -0.5709 -0.4907 -0.2321
23281SOL    HW173374   1.093   9.800   5.900 -1.2736 -0.2451  0.3636
23281SOL    HW273375   1.170   9.890   5.994 -0.1049 -0.5539 -0.2842
23282SOL     OW73376   7.942   7.559   6.056  0.3425  0.1571 -0.4409
23282SOL    HW173377   7.851   7.547   6.085  0.6811  0.9071  1.0446
23282SOL    HW273378   7.986   7.478   6.080 -0.2000 -0.7433 -2.3748
23283SOL     OW73379   4.977   0.971   5.700 -0.0355 -0.0518 -0.3222
23283SOL    HW173380   4.909   1.008   5.644 -0.1769  0.5756  0.2569
23283SOL    HW273381   5.033   0.922   5.640 -0.6656 -0.0939 -0.8876
23284SOL     OW73382   8.326   4.722   4.029  0.0002  0.0399 -0.4552
23284SOL    HW173383   8.268   4.695   4.101  0.8162  0.9686  0.5887
23284SOL    HW273384   8.298   4.811   4.008  1.3758  0.7276  0.4667
23285SOL     OW73385   5.602   8.658   9.813  0.0805 -0.6535  0.1822
23285SOL    HW173386   5.639   8.669   9.900 -1.0368 -0.4290  0.6470
23285SOL    HW273387   5.672   8.685   9.753  0.9436 -1.0414  0.9897
23286SOL     OW73388   3.885   5.562  11.123  0.3072  0.2349 -0.3035
23286SOL    HW173389   3.936   5.530  11.049 -0.3928  0.3752 -0.8701
23286SOL    HW273390   3.822   5.492  11.141  0.2818  0.3248 -0.0363
23287SOL     OW73391   8.190   5.320   2.461 -0.6300 -0.0384  0.2481
23287SOL    HW173392   8.219   5.229   2.465 -0.7941 -0.0652  0.9262
23287SOL    HW273393   8.205   5.346   2.370 -0.2008 -0.6149  0.1505
23288SOL     OW73394  10.049   1.712   5.862 -0.1692  0.3195  0.1954
23288SOL    HW173395   9.968   1.762   5.859  0.2358  0.9589 -0.7414
23288SOL    HW273396  10.109   1.760   5.804  0.4206 -0.9032 -0.2516
23289SOL     OW73397   5.836   6.202   3.429  0.2770 -0.3565  0.0528
23289SOL    HW173398   5.808   6.174   3.516 -0.2836 -1.1602 -0.3639
23289SOL    HW273399   5.799   6.136   3.370  1.4350 -0.3582 -0.7084
23290SOL     OW73400   1.131   5.123  10.265  0.4737  0.5494  0.2212
23290SOL    HW173401   1.075   5.121  10.343 -0.2374  1.6096 -0.2431
23290SOL    HW273402   1.169   5.035  10.262  0.1668  0.3433  1.5048
23291SOL     OW73403  10.897  10.622   8.599  0.6729  0.3532 -0.1212
23291SOL    HW173404  10.929  10.712   8.607  0.9880  0.0947  2.4379
23291SOL    HW273405  10.901  10.603   8.505  1.1275  2.7972 -0.6659
23292SOL     OW73406  11.123   2.909   1.252  0.6115  0.1561 -0.2436
23292SOL    HW173407  11.105   2.893   1.344  0.5075 -0.1509 -0.3148
23292SOL    HW273408  11.212   2.943   1.249  1.6017 -2.1999 -0.2425
23293SOL     OW73409   8.447  10.129   6.615  0.1219 -0.5127 -0.1381
23293SOL    HW173410   8.419  10.132   6.524  0.8612 -0.5320 -0.3718
23293SOL    HW273411   8.375  10.083   6.660 -0.2414 -0.5177 -0.7071
23294SOL     OW73412  10.044  10.780   7.723 -0.5923 -0.0507 -0.1978
23294SOL    HW173413  10.107  10.780   7.651  0.5871 -0.1936  0.8236
23294SOL    HW273414  10.078  10.716   7.785 -1.1127  0.7262  0.9101
23295SOL     OW73415   1.934   5.312   7.871  0.0954  0.3058 -0.1507
23295SOL    HW173416   1.880   5.267   7.805  0.5276 -0.4646  0.0154
23295SOL    HW273417   2.024   5.299   7.842  0.2390  0.9206 -0.0006
23296SOL     OW73418  10.560   8.516   4.621 -0.4436  0.7200 -0.2648
23296SOL    HW173419  10.529   8.521   4.530  1.7711  1.7275 -1.0486
23296SOL    HW273420  10.568   8.422   4.638 -0.4645  0.5176 -1.2696
23297SOL     OW73421   8.387   6.359   6.721 -0.1481 -0.4819  0.5812
23297SOL    HW173422   8.474   6.387   6.748 -0.6322  0.5933  1.1200
23297SOL    HW273423   8.361   6.293   6.784 -0.4772  0.5915  1.6101
23298SOL     OW73424   8.664   5.134   7.811 -0.0260  0.3336 -0.4126
23298SOL    HW173425   8.647   5.206   7.872 -2.2677 -1.4254  1.1911
23298SOL    HW273426   8.750   5.100   7.836  0.8649  2.0923 -0.9053
23299SOL     OW73427   7.150   3.571   8.671 -0.0483 -0.1312  0.5082
23299SOL    HW173428   7.193   3.575   8.757  0.3637  1.7171  0.2556
23299SOL    HW273429   7.073   3.516   8.685  0.4193 -0.4744  1.8671
23300SOL     OW73430   9.468   5.002   2.098 -0.7536  0.3553  0.6137
23300SOL    HW173431   9.461   4.922   2.150  0.9342  0.2506  0.7344
23300SOL    HW273432   9.494   4.972   2.011 -0.3400  0.7404  0.5985
23301SOL     OW73433   5.507   5.869   5.760 -0.7368 -0.0443  0.1667
23301SOL    HW173434   5.471   5.780   5.759 -0.1271 -0.3220 -1.8973
23301SOL    HW273435   5.565   5.872   5.684  2.6270  0.7857  2.5552
23302SOL     OW73436   4.771   0.276   8.118 -0.1043 -0.0241 -0.2953
23302SOL    HW173437   4.752   0.282   8.212  1.4137  2.4430 -0.0747
23302SOL    HW273438   4.686   0.289   8.076 -0.3500  2.1723  0.7529
23303SOL     OW73439   6.261   4.679   0.592  0.0739 -0.3095  0.1512
23303SOL    HW173440   6.240   4.718   0.677  2.5309  0.8781  0.3176
23303SOL    HW273441   6.353   4.652   0.600 -0.2042 -1.9344 -1.5198
23304SOL     OW73442  10.926   3.877   6.643 -0.9612 -0.7824  0.2612
23304SOL    HW173443  10.972   3.857   6.725 -0.9297 -0.8418  0.2289
23304SOL    HW273444  10.936   3.971   6.631 -0.5318 -0.8547  0.0572
23305SOL     OW73445   1.807   5.138   0.888  0.3505  0.1210 -0.2018
23305SOL    HW173446   1.743   5.207   0.901 -0.7562 -0.9700  0.3018
23305SOL    HW273447   1.839   5.117   0.975  0.1803 -0.4633 -0.2760
23306SOL     OW73448   5.610   4.589   5.850  0.4374 -0.2483  0.7546
23306SOL    HW173449   5.560   4.524   5.801  1.4102  0.5773 -1.5136
23306SOL    HW273450   5.698   4.552   5.856  1.1774  1.0442 -1.1518
23307SOL     OW73451  10.935   2.076   9.942 -0.3834 -0.2049 -0.6092
23307SOL    HW173452  10.851   2.078   9.895 -0.7952  1.3775  0.1423
23307SOL    HW273453  10.998   2.112   9.880 -0.7463  0.9764 -0.3140
23308SOL     OW73454   7.752   5.147   8.164  0.4768  0.4912  0.0826
23308SOL    HW173455   7.665   5.118   8.135  1.0276  0.8661 -2.1034
23308SOL    HW273456   7.751   5.242   8.150  1.1340  0.5378  0.3409
23309SOL     OW73457   1.929   9.514   4.293 -0.2341  0.0569  0.3735
23309SOL    HW173458   1.847   9.561   4.279  0.5191  0.5002 -3.7705
23309SOL    HW273459   1.997   9.580   4.275  0.9042 -1.4447 -1.0973
23310SOL     OW73460  10.181   0.036   0.345  0.5144 -0.4862 -0.4018
23310SOL    HW173461  10.103   0.083   0.314  0.0926 -2.1210 -1.9569
23310SOL    HW273462  10.254   0.095   0.324 -0.2074  0.8051  0.5438
23311SOL     OW73463   2.959  10.219   8.310  0.0696 -0.5614  0.2348
23311SOL    HW173464   3.020  10.292   8.312  0.3709 -0.6822 -1.7861
23311SOL    HW273465   3.014  10.141   8.303 -0.2752 -0.7956  0.0353
23312SOL     OW73466   1.995   9.788   8.845  0.1054 -0.2331  0.3002
23312SOL    HW173467   2.062   9.820   8.905  1.0065 -1.9018  0.2225
23312SOL    HW273468   1.913   9.823   8.880  1.0248  2.7687 -0.1986
23313SOL     OW73469   0.518   9.726   5.977 -0.6201 -0.2875 -0.0872
23313SOL    HW173470   0.448   9.694   5.920 -1.0221  1.6320 -0.7484
23313SOL    HW273471   0.591   9.665   5.962 -1.4603 -1.1182 -0.9402
23314SOL     OW73472   2.594   4.782   5.137 -0.0073 -0.0462 -0.2982
23314SOL    HW173473   2.606   4.854   5.199 -2.0347  0.5763 -0.5350
23314SOL    HW273474   2.653   4.713   5.167  0.5007  0.9791  1.1393
23315SOL     OW73475   5.491   7.872   8.332 -0.0332 -0.0125 -0.2860
23315SOL    HW173476   5.492   7.958   8.375 -0.9038  0.5277 -1.2839
23315SOL    HW273477   5.573   7.868   8.284  0.0236  0.2582 -0.2126
23316SOL     OW73478   9.161   8.593   0.387  0.2646 -0.0756  0.3401
23316SOL    HW173479   9.102   8.641   0.446 -0.3474 -0.3364 -0.0500
23316SOL    HW273480   9.248   8.606   0.425 -0.3678 -2.7362  3.0920
23317SOL     OW73481   2.755   6.308   9.523  0.1699 -0.4083  0.4691
23317SOL    HW173482   2.841   6.295   9.484  0.1571 -0.6269  0.5167
23317SOL    HW273483   2.712   6.371   9.465  0.5607  0.1157  0.7410
23318SOL     OW73484   7.143   4.680   8.090 -0.0284  0.0559  0.5059
23318SOL    HW173485   7.087   4.602   8.094  1.1975 -0.8267  1.6403
23318SOL    HW273486   7.083   4.753   8.084 -1.2230 -0.9856 -1.3479
23319SOL     OW73487   9.125   9.197   0.199  0.0132  0.1762 -0.2044
23319SOL    HW173488   9.088   9.281   0.174 -1.5303 -0.1274  0.9557
23319SOL    HW273489   9.204   9.219   0.249  0.4466  0.8619 -1.1508
23320SOL     OW73490  10.480   3.946   6.246 -0.0174  0.3900 -0.4819
23320SOL    HW173491  10.408   3.966   6.186  0.5964 -0.6020 -1.5852
23320SOL    HW273492  10.439   3.894   6.315 -0.2460 -0.8374 -1.5048
23321SOL     OW73493   5.368   5.815   8.512  0.7613 -0.4285 -0.1078
23321SOL    HW173494   5.366   5.756   8.588  0.0045  0.9525  0.9876
23321SOL    HW273495   5.277   5.819   8.483  1.2375 -2.0244 -2.0064
23322SOL     OW73496   9.799   4.507   5.790 -0.4215 -0.4661  0.8014
23322SOL    HW173497   9.712   4.535   5.764  0.6604  1.7139 -0.8118
23322SOL    HW273498   9.846   4.589   5.807  1.1082 -1.6036  2.3840
23323SOL     OW73499   4.386   9.199   1.920 -0.1898  0.1134  0.0627
23323SOL    HW173500   4.318   9.260   1.890 -1.3976 -1.6176 -0.9219
23323SOL    HW273501   4.461   9.218   1.864 -1.2914 -0.7318 -1.8326
23324SOL     OW73502   2.346   6.424   7.409  0.5438  0.0364 -0.5712
23324SOL    HW173503   2.430   6.470   7.409  0.9399 -0.6665 -0.7915
23324SOL    HW273504   2.354   6.360   7.338  0.4370 -1.1262  0.4267
23325SOL     OW73505  10.301   7.270   6.264  0.5915 -0.0460  0.4658
23325SOL    HW173506  10.381   7.226   6.293  1.8310  1.3115 -0.7029
23325SOL    HW273507  10.299   7.352   6.313 -0.4327 -0.3087  0.9050
23326SOL     OW73508   0.631   0.297   4.463  0.1423 -0.2007  0.3164
23326SOL    HW173509   0.637   0.244   4.542 -3.5968  0.2010  1.0597
23326SOL    HW273510   0.674   0.379   4.486  0.2235 -0.5593  1.5149
23327SOL     OW73511   7.669   1.271   0.911 -0.1989 -0.0904  0.1302
23327SOL    HW173512   7.748   1.314   0.880 -0.6037  0.2786 -0.4231
23327SOL    HW273513   7.624   1.242   0.831 -0.4333 -0.6282  0.4540
23328SOL     OW73514  10.129   1.971   0.157  0.2594 -0.4034 -0.2625
23328SOL    HW173515  10.119   2.062   0.184  1.0273 -0.6770  1.0442
23328SOL    HW273516  10.085   1.920   0.226 -1.5459 -0.9885 -1.7710
23329SOL     OW73517   2.663   6.906   3.512  0.0756 -0.0883 -0.1553
23329SOL    HW173518   2.701   6.869   3.592 -2.1728 -3.8461 -0.5827
23329SOL    HW273519   2.573   6.926   3.535  0.2733  1.9945 -0.9640
23330SOL     OW73520   0.346   4.829   1.830  0.4733 -0.4203 -0.2165
23330SOL    HW173521   0.324   4.741   1.800  1.4555 -0.5955 -0.4539
23330SOL    HW273522   0.290   4.886   1.776  0.3168 -0.8621 -0.5354
23331SOL     OW73523   3.006  10.089   2.543 -0.4880 -0.2198  0.3519
23331SOL    HW173524   3.044  10.177   2.547 -0.8601  0.1583 -2.3156
23331SOL    HW273525   2.918  10.103   2.507 -0.8197 -1.6173  0.5740
23332SOL     OW73526   6.407   8.622   5.643  0.0397  0.3455  0.7733
23332SOL    HW173527   6.351   8.692   5.609  0.0449  0.1443  0.3364
23332SOL    HW273528   6.495   8.658   5.639  0.7377 -1.2156 -3.9613
23333SOL     OW73529   5.492   6.807   5.152 -0.4659 -0.0540  0.1577
23333SOL    HW173530   5.586   6.795   5.161 -0.6381 -0.1937  2.1210
23333SOL    HW273531   5.472   6.776   5.064  1.4000  0.5966 -0.5409
23334SOL     OW73532   0.298  11.088   4.569 -0.1353 -0.4169  0.5000
23334SOL    HW173533   0.335  11.037   4.641  0.2608 -0.7451  0.0652
23334SOL    HW273534   0.372  11.135   4.532  0.5360 -3.2974 -2.2624
23335SOL     OW73535   9.006  10.929   6.567 -0.1805  0.0851 -0.0351
23335SOL    HW173536   9.019  10.852   6.512  0.7631 -0.8262  1.3919
23335SOL    HW273537   8.953  10.897   6.640  1.7667  0.2809  1.5417
23336SOL     OW73538   8.120   8.808   8.567  0.0403  0.3201 -0.0919
23336SOL    HW173539   8.064   8.775   8.637  0.7113  1.3733  0.9807
23336SOL    HW273540   8.073   8.883   8.531  0.3582  0.6684  0.2166
23337SOL     OW73541   7.597   6.324  10.598 -0.5803 -0.2537 -0.0473
23337SOL    HW173542   7.602   6.230  10.581  0.9362 -0.1342 -0.4192
23337SOL    HW273543   7.617   6.364  10.513  0.3692  0.3944  0.4723
23338SOL     OW73544  10.865   2.157   2.311  0.2680 -0.0156  0.0225
23338SOL    HW173545  10.793   2.218   2.329  0.8006  0.7698 -0.4093
23338SOL    HW273546  10.830   2.098   2.245  0.3150  0.9821 -0.9333
23339SOL     OW73547   4.168   7.434   4.518  0.5071 -0.4719 -0.4552
23339SOL    HW173548   4.131   7.362   4.467 -0.0376 -1.1128  0.8103
23339SOL    HW273549   4.128   7.513   4.480  0.7620 -0.8596 -1.5579
23340SOL     OW73550   7.072   7.911   9.854 -0.5485 -0.3033  0.3347
23340SOL    HW173551   7.121   7.855   9.795  2.5438  2.3153  0.1029
23340SOL    HW273552   7.112   7.896   9.940 -0.6722  0.4211  0.5322
23341SOL     OW73553  11.111   7.772   8.450 -0.1691  0.5006  0.5424
23341SOL    HW173554  11.134   7.849   8.399 -1.0714  0.9324  0.7688
23341SOL    HW273555  11.192   7.749   8.496  0.7708 -0.0913 -1.2817
23342SOL     OW73556  10.853   6.065  10.244 -0.0070 -0.0936 -0.0466
23342SOL    HW173557  10.844   6.125  10.170  1.4815  1.0233  0.6355
23342SOL    HW273558  10.880   6.121  10.317 -1.7537 -1.1134  1.4612
23343SOL     OW73559   4.183   5.637   1.336  0.4506 -0.1977  0.0967
23343SOL    HW173560   4.134   5.703   1.384  0.5590  1.2066 -1.6236
23343SOL    HW273561   4.246   5.687   1.285  1.1944 -1.7198 -0.5222
23344SOL     OW73562   1.271   0.320   1.156 -0.1969 -0.6700  0.2510
23344SOL    HW173563   1.338   0.277   1.104  1.2029  0.7204  0.8233
23344SOL    HW273564   1.197   0.259   1.156  1.3952 -2.6788  0.4051
23345SOL     OW73565  10.266   8.858   1.301 -0.1053  0.6623 -0.5500
23345SOL    HW173566  10.246   8.920   1.371 -1.5155 -0.5186  0.1546
23345SOL    HW273567  10.181   8.819   1.279  0.1936  1.3440 -3.2984
23346SOL     OW73568   7.171   8.626   9.792  0.0651 -0.2418  0.6333
23346SOL    HW173569   7.239   8.677   9.836 -0.3040 -0.0226  0.9586
23346SOL    HW273570   7.131   8.688   9.730  1.4602 -0.8979 -1.0000
23347SOL     OW73571   2.944   6.723   3.939  0.6246  0.0876 -0.9161
23347SOL    HW173572   2.977   6.697   3.853 -0.2219  3.0297 -2.2328
23347SOL    HW273573   3.014   6.774   3.978  0.5450 -0.2337 -0.3354
23348SOL     OW73574   5.302   4.844   3.572  0.5288  0.5433 -0.1607
23348SOL    HW173575   5.319   4.819   3.663  1.9614  0.5612 -0.3966
23348SOL    HW273576   5.280   4.763   3.528  1.1359  0.3211 -0.0659
23349SOL     OW73577  10.684   9.817   8.598  0.7257 -0.0555 -0.3410
23349SOL    HW173578  10.629   9.784   8.527  1.6411 -0.3454 -0.9302
23349SOL    HW273579  10.635   9.890   8.635 -0.1183 -0.3968 -0.7554
23350SOL     OW73580   5.890   2.414   6.674 -0.0809  0.2024 -0.5930
23350SOL    HW173581   5.803   2.452   6.661  0.2967  1.0837 -0.6060
23350SOL    HW273582   5.887   2.375   6.761 -0.0517  1.5117  0.0315
23351SOL     OW73583   6.543   6.826   7.460 -0.1793 -0.1883 -0.0551
23351SOL    HW173584   6.598   6.825   7.382 -0.7019  1.1512 -0.4625
23351SOL    HW273585   6.579   6.756   7.515  0.3106 -1.0398 -1.4037
23352SOL     OW73586   1.134   0.196   1.412  0.1659 -0.3733 -0.7831
23352SOL    HW173587   1.128   0.159   1.500 -0.7216 -1.6948 -1.3797
23352SOL    HW273588   1.130   0.121   1.354 -1.6245  0.6284 -2.0409
23353SOL     OW73589   2.435  10.187   7.949  0.5154 -0.3124  0.1404
23353SOL    HW173590   2.424  10.135   7.869  0.3657 -2.9914  1.7834
23353SOL    HW273591   2.362  10.250   7.946 -0.4819 -1.4518 -1.0599
23354SOL     OW73592   9.278   5.680   3.379 -0.4743  0.0896 -0.5549
23354SOL    HW173593   9.238   5.608   3.429  2.6363 -2.2743 -1.1504
23354SOL    HW273594   9.306   5.742   3.446 -0.0712 -1.0068  0.3251
23355SOL     OW73595   6.088   4.120   6.471  0.1476  0.1359 -0.0379
23355SOL    HW173596   6.139   4.044   6.498 -0.1039 -0.4343 -1.1261
23355SOL    HW273597   6.154   4.188   6.453  0.7090 -0.9599 -2.6473
23356SOL     OW73598   7.179   2.907   1.288  0.1289 -0.4212  0.2795
23356SOL    HW173599   7.185   2.826   1.339 -0.0804  0.0903  1.1332
23356SOL    HW273600   7.269   2.940   1.286 -0.1332  0.4962  1.9081
23357SOL     OW73601  10.212   6.550  10.714 -0.1171 -0.9227  0.5144
23357SOL    HW173602  10.216   6.570  10.808 -0.5040  0.6479  0.2242
23357SOL    HW273603  10.237   6.631  10.671 -0.6162 -1.4160 -0.7596
23358SOL     OW73604   6.406   4.326   8.382  0.1248  0.0818 -0.3252
23358SOL    HW173605   6.472   4.393   8.399  0.4710 -0.3995  0.2461
23358SOL    HW273606   6.328   4.359   8.426  0.7601 -0.7050  1.4700
23359SOL     OW73607   2.424   0.003   6.515 -0.2263  0.5830  0.4620
23359SOL    HW173608   2.478  -0.076   6.513 -0.9668  0.0628  0.5345
23359SOL    HW273609   2.480   0.069   6.557  0.1599 -0.0847  1.0292
23360SOL     OW73610   2.876   0.474   2.404  0.0166 -0.2425 -0.1357
23360SOL    HW173611   2.939   0.438   2.341 -0.0196  0.4570 -0.5834
23360SOL    HW273612   2.904   0.438   2.488 -1.2084 -2.9185 -0.7898
23361SOL     OW73613  10.421   3.039   6.604 -0.3817  0.0394  0.4438
23361SOL    HW173614  10.345   3.090   6.574  0.3305  0.7612 -0.1722
23361SOL    HW273615  10.385   2.980   6.669 -2.2943 -2.4611 -2.5785
23362SOL     OW73616   3.940   1.616   8.914 -0.2811 -0.2979 -0.4873
23362SOL    HW173617   3.986   1.593   8.995  1.6498 -0.4361 -1.5797
23362SOL    HW273618   3.866   1.555   8.910 -0.4683 -0.2346  1.1854
23363SOL     OW73619  10.966   6.521   2.718  0.2383  0.5021 -0.3773
23363SOL    HW173620  10.942   6.601   2.765  2.7080  0.7088  0.7201
23363SOL    HW273621  11.060   6.530   2.702  0.2897 -1.5219 -1.5897
23364SOL     OW73622   3.081   5.315   8.001 -0.6437  0.2273 -1.0662
23364SOL    HW173623   3.150   5.277   7.946  0.6336 -1.2824  1.3967
23364SOL    HW273624   3.128   5.353   8.075 -2.2384 -4.5531  2.9911
23365SOL     OW73625   0.354   5.000   3.989  0.1105  0.4765  0.2547
23365SOL    HW173626   0.405   5.075   3.956 -0.5951  0.0449 -1.9879
23365SOL    HW273627   0.355   5.011   4.084  1.3814  2.4406  0.0844
23366SOL     OW73628   2.863   1.449   8.391  0.1268 -0.6733 -0.4786
23366SOL    HW173629   2.897   1.536   8.370  0.7944 -0.6376  0.6549
23366SOL    HW273630   2.774   1.465   8.423 -0.2219 -0.5516 -1.4781
23367SOL     OW73631   4.360   0.525   3.491  0.5038 -0.2574  0.1439
23367SOL    HW173632   4.410   0.456   3.447  1.2068  1.4614 -1.9641
23367SOL    HW273633   4.417   0.554   3.562  0.4642 -1.3655  0.6574
23368SOL     OW73634   0.168   9.930   6.779  0.3204  0.1875  0.2901
23368SOL    HW173635   0.164   9.938   6.684  0.1316 -0.0546  0.2767
23368SOL    HW273636   0.099   9.867   6.800  1.4149 -0.9761  0.4481
23369SOL     OW73637   1.960   1.781   6.790 -0.1007 -0.2949  0.2286
23369SOL    HW173638   2.053   1.776   6.767  0.1780  1.9673  0.6678
23369SOL    HW273639   1.955   1.847   6.858 -1.7388 -2.3128  2.2346
23370SOL     OW73640   4.664   3.693   1.923  0.7137  0.3174 -0.3784
23370SOL    HW173641   4.607   3.694   1.846  0.3907 -0.7706 -0.1645
23370SOL    HW273642   4.730   3.627   1.904 -0.3953 -1.2822  0.9593
23371SOL     OW73643   4.044   8.088   1.583 -0.0518  0.1415 -0.6606
23371SOL    HW173644   4.000   8.050   1.507 -2.6858  0.5983  0.5069
23371SOL    HW273645   3.977   8.141   1.626  1.2666 -0.1685  2.0408
23372SOL     OW73646   8.666   9.841   6.858  0.1295 -0.2293  0.4090
23372SOL    HW173647   8.587   9.870   6.811  0.0311 -0.2907  0.5348
23372SOL    HW273648   8.696   9.918   6.905  0.1301 -0.2119  0.3799
23373SOL     OW73649   4.311   6.696   7.039 -0.2490  0.2096 -0.2286
23373SOL    HW173650   4.372   6.753   7.087 -0.8331 -0.5343  1.4720
23373SOL    HW273651   4.240   6.754   7.013  0.9055  0.9936 -1.8331
23374SOL     OW73652   7.824   5.850   1.975 -0.2028 -0.2170 -0.2817
23374SOL    HW173653   7.834   5.819   2.065  1.7819  1.6931  0.2598
23374SOL    HW273654   7.864   5.781   1.922  2.0570  0.2488  0.6780
23375SOL     OW73655   9.057   4.988   0.670  0.2437  0.0039 -0.6566
23375SOL    HW173656   9.126   5.053   0.662  0.3484 -0.0536 -0.2167
23375SOL    HW273657   8.976   5.039   0.680  0.4820  0.0953  1.1894
23376SOL     OW73658   9.218   9.806   5.163  0.0639 -0.3742  0.0950
23376SOL    HW173659   9.179   9.890   5.187  0.3648 -0.3730  0.6141
23376SOL    HW273660   9.209   9.752   5.242 -0.0800 -0.8098 -0.2184
23377SOL     OW73661   5.460  10.110   8.465 -0.3116  0.0840  0.1052
23377SOL    HW173662   5.466  10.055   8.387  0.1099  2.3840 -1.5885
23377SOL    HW273663   5.535  10.169   8.459 -0.8261  0.9672  1.7418
23378SOL     OW73664   5.208   9.494   7.863  0.6812 -0.4839 -0.3044
23378SOL    HW173665   5.117   9.480   7.838  0.9229 -2.4084 -0.2256
23378SOL    HW273666   5.223   9.588   7.849 -0.8284 -0.4393 -1.9006
23379SOL     OW73667   3.049   9.415   1.924 -0.0048 -0.1850  0.2494
23379SOL    HW173668   3.093   9.460   1.996 -0.9431  1.5370 -0.1938
23379SOL    HW273669   2.956   9.434   1.938 -0.2131  0.0244 -1.3094
23380SOL     OW73670   6.625   7.861   7.780 -0.7592  0.1124  0.0904
23380SOL    HW173671   6.694   7.918   7.747 -1.7740  1.0351 -0.4974
23380SOL    HW273672   6.648   7.845   7.871 -1.1451  2.6004  0.6785
23381SOL     OW73673   3.807   2.680   7.051  0.3554 -0.2723 -0.2761
23381SOL    HW173674   3.898   2.710   7.050 -0.0665  1.1299  0.1880
23381SOL    HW273675   3.795   2.643   7.139 -0.0374  1.3737  0.4041
23382SOL     OW73676   0.836   5.633   5.908 -0.5306 -0.2250  0.0007
23382SOL    HW173677   0.912   5.575   5.904 -0.9330 -0.7618  0.1115
23382SOL    HW273678   0.772   5.593   5.849 -1.2450 -0.5395  0.9589
23383SOL     OW73679   1.993   4.875   0.738  0.1925 -0.2686 -0.3574
23383SOL    HW173680   1.925   4.935   0.768 -0.6609 -1.1300 -0.5263
23383SOL    HW273681   2.045   4.927   0.676 -0.4160  0.3488 -0.3659
23384SOL     OW73682   5.628   2.561   1.730  0.2156  0.1805 -0.5300
23384SOL    HW173683   5.661   2.486   1.780 -0.4497 -0.3075 -0.8085
23384SOL    HW273684   5.543   2.582   1.771  0.5045  0.9478 -0.2965
23385SOL     OW73685   4.772   8.623  10.550  0.1822 -0.1356  0.5253
23385SOL    HW173686   4.828   8.579  10.614  0.9083  0.3146  0.2073
23385SOL    HW273687   4.768   8.562  10.476 -0.1335 -0.3707  0.7317
23386SOL     OW73688   9.264   5.899   4.289 -0.2119 -0.1118 -0.4789
23386SOL    HW173689   9.223   5.872   4.206  0.3174 -1.7092 -0.2501
23386SOL    HW273690   9.354   5.866   4.283 -0.1042 -0.0367  0.6315
23387SOL     OW73691   8.816  10.215   6.516 -0.0615  0.3507 -0.3093
23387SOL    HW173692   8.789  10.123   6.515  0.3602  0.1733  1.5355
23387SOL    HW273693   8.820  10.238   6.609  2.7896  1.3415 -0.5832
23388SOL     OW73694   3.030  10.304   7.465 -0.5154 -0.4532 -0.7098
23388SOL    HW173695   3.055  10.214   7.447  0.0985  0.1056 -2.9993
23388SOL    HW273696   2.979  10.331   7.389 -0.9831  1.0299  0.0814
23389SOL     OW73697   9.436  10.618   6.025  0.4954 -0.5784  0.5188
23389SOL    HW173698   9.386  10.647   6.101  1.2155  0.4796  0.6027
23389SOL    HW273699   9.407  10.676   5.954  2.7485  1.2086  0.9393
23390SOL     OW73700   9.746   7.813   7.976 -0.5035  0.1156  0.2148
23390SOL    HW173701   9.699   7.731   7.960 -0.6369  0.3224 -0.4773
23390SOL    HW273702   9.826   7.805   7.924 -0.3355  0.2673  0.4484
23391SOL     OW73703   5.982   5.314   9.616 -0.0892 -0.2716  0.4795
23391SOL    HW173704   5.925   5.275   9.550 -0.9405  1.7702 -0.0724
23391SOL    HW273705   5.960   5.407   9.615  2.0718  0.3292  1.4647
23392SOL     OW73706   2.653   1.802   5.745  0.1277  0.2359  0.3295
23392SOL    HW173707   2.733   1.846   5.717  0.5284  0.1898  1.3621
23392SOL    HW273708   2.678   1.711   5.758 -0.6540 -0.3105 -1.5955
23393SOL     OW73709  10.440   1.327   0.648  0.5674  0.0760  0.4237
23393SOL    HW173710  10.393   1.252   0.683 -2.1677  1.9333  1.0843
23393SOL    HW273711  10.476   1.371   0.725  1.0696  0.1441  0.1581
23394SOL     OW73712   6.131   4.287   5.833 -0.0480 -0.0775 -0.2203
23394SOL    HW173713   6.086   4.255   5.755  0.0693  0.7171 -0.6205
23394SOL    HW273714   6.066   4.283   5.902 -0.4722  0.2054 -0.5951
23395SOL     OW73715   7.107   1.348   5.773  0.6589  0.2108  0.2148
23395SOL    HW173716   7.023   1.350   5.819  0.0027 -1.2516 -0.8491
23395SOL    HW273717   7.113   1.433   5.730 -0.4552  0.1888 -0.0066
23396SOL     OW73718   8.125   0.196   4.769 -0.0093  0.5662  0.1292
23396SOL    HW173719   8.156   0.272   4.818 -0.3843  1.4306 -0.9268
23396SOL    HW273720   8.178   0.197   4.689  0.0380 -0.3428  0.1436
23397SOL     OW73721   2.978   2.388   1.549 -0.2183 -0.3510  0.3445
23397SOL    HW173722   2.938   2.348   1.471  1.8840  0.0312 -1.0198
23397SOL    HW273723   2.993   2.479   1.523  1.1950 -0.4053  0.8944
23398SOL     OW73724  10.763   8.969   3.709  0.4098  0.3247 -0.7185
23398SOL    HW173725  10.778   9.058   3.678 -0.9605  1.0775  0.6264
23398SOL    HW273726  10.719   8.980   3.794 -0.3515 -1.6289 -0.7973
23399SOL     OW73727   4.744   6.636   7.507 -0.0031  0.3698 -0.7024
23399SOL    HW173728   4.792   6.611   7.586 -0.3204  1.2370 -0.2253
23399SOL    HW273729   4.793   6.710   7.472 -1.2133  1.5853  0.0564
23400SOL     OW73730   7.757   5.328   0.036  0.0430 -0.0690  0.7410
23400SOL    HW173731   7.759   5.264  -0.035 -1.5258  1.0924 -0.4090
23400SOL    HW273732   7.822   5.393   0.012 -1.4765  1.0800 -0.4422
23401SOL     OW73733   8.211   2.712   7.897 -0.3132  0.4227 -0.5020
23401SOL    HW173734   8.115   2.714   7.901 -0.2873  0.8901  0.0884
23401SOL    HW273735   8.231   2.694   7.805 -0.9882 -3.4207 -0.0578
23402SOL     OW73736   9.667   9.694   7.741 -0.2962 -0.0226  0.4432
23402SOL    HW173737   9.744   9.649   7.704 -1.1363 -0.7899 -0.4361
23402SOL    HW273738   9.603   9.624   7.753 -1.2083  0.7590  0.2204
23403SOL     OW73739   8.462   1.932   3.916  0.2845 -0.3538  0.8898
23403SOL    HW173740   8.420   1.847   3.914  0.1193 -0.2693  0.7235
23403SOL    HW273741   8.444   1.966   4.004 -1.1592  0.2563  0.3807
23404SOL     OW73742   7.412  10.277   5.209 -0.0859  0.5357 -0.3729
23404SOL    HW173743   7.352  10.344   5.241 -0.7818 -0.4557  0.4877
23404SOL    HW273744   7.356  10.200   5.195  0.7854 -0.0437 -0.7683
23405SOL     OW73745   3.381   8.332   0.852  0.2410  0.1231 -0.0682
23405SOL    HW173746   3.463   8.309   0.896  0.0771  0.5478  0.4691
23405SOL    HW273747   3.398   8.314   0.759  0.7965 -0.1956  0.0886
23406SOL     OW73748   7.557   0.038   7.436 -0.0497 -0.3212 -0.1574
23406SOL    HW173749   7.472  -0.003   7.416  0.3835 -1.1849 -0.2771
23406SOL    HW273750   7.563   0.035   7.531  0.1415 -0.8933 -0.1813
23407SOL     OW73751   5.447  11.009   4.511  0.2208  0.1677 -0.4933
23407SOL    HW173752   5.443  10.924   4.556  0.3134  0.0426 -0.7184
23407SOL    HW273753   5.371  11.008   4.453  0.7463 -0.1662 -1.1966
23408SOL     OW73754   8.726   2.105   1.233  0.7679  0.7598  0.2360
23408SOL    HW173755   8.695   2.026   1.276 -0.6036  2.0933  1.8597
23408SOL    HW273756   8.820   2.090   1.220  0.9486 -0.3465  2.3508
23409SOL     OW73757   1.254   3.847   8.854 -0.3992  0.1787 -0.0541
23409SOL    HW173758   1.277   3.929   8.897 -0.2140  0.7622 -1.2287
23409SOL    HW273759   1.292   3.779   8.910 -0.9323  0.8525  1.1729
23410SOL     OW73760   0.522   8.033   6.378  0.3200  0.7823 -0.2543
23410SOL    HW173761   0.585   8.033   6.450  0.1894  2.0896 -0.1149
23410SOL    HW273762   0.553   7.964   6.318  0.9699  0.3421  0.5765
23411SOL     OW73763   5.863   2.135  10.201 -0.2770 -0.5485 -0.3972
23411SOL    HW173764   5.788   2.089  10.238 -0.3197 -1.3686 -1.4595
23411SOL    HW273765   5.827   2.186  10.129  0.1122 -0.5886 -0.6264
23412SOL     OW73766   7.897   1.069   5.727  0.3537  0.3478 -0.0904
23412SOL    HW173767   7.993   1.068   5.728  0.5519  3.0478 -2.7128
23412SOL    HW273768   7.873   1.135   5.791  0.1361 -0.7315  0.9886
23413SOL     OW73769   1.958   9.466  10.098  0.5701 -0.5278 -0.2018
23413SOL    HW173770   1.966   9.498  10.008 -0.6012  1.0706  0.2099
23413SOL    HW273771   2.040   9.492  10.141  1.2030 -1.4451 -0.8233
23414SOL     OW73772  10.772   7.348   0.840 -0.8339  0.2023 -0.1841
23414SOL    HW173773  10.760   7.268   0.788  0.0223 -0.5121  0.6740
23414SOL    HW273774  10.683   7.371   0.868 -1.0672 -0.5809 -0.2445
23415SOL     OW73775   9.920   0.974   0.653 -0.6354 -0.1726  0.0968
23415SOL    HW173776   9.826   0.968   0.639 -0.6971  1.0822 -0.1247
23415SOL    HW273777   9.942   1.064   0.631  0.1303  0.4965  3.1014
23416SOL     OW73778   7.322   4.737   3.505  0.0567  0.3164  0.5201
23416SOL    HW173779   7.360   4.793   3.573  0.8437  0.3849  0.0394
23416SOL    HW273780   7.394   4.721   3.444  0.1191 -1.9740  1.0925
23417SOL     OW73781   5.813   9.739   0.103  0.0377  0.1716 -0.1004
23417SOL    HW173782   5.719   9.727   0.117  0.1919 -0.4299  0.4764
23417SOL    HW273783   5.837   9.672   0.039  0.2010 -0.1405  0.2831
23418SOL     OW73784  10.938  10.549   4.723  0.3150  0.1676 -0.1687
23418SOL    HW173785  11.003  10.483   4.700 -1.3268 -1.4958 -0.3025
23418SOL    HW273786  10.896  10.514   4.802  1.6269  2.7225  1.8052
23419SOL     OW73787   4.521   0.200   0.774  0.3774  0.6771 -0.1880
23419SOL    HW173788   4.483   0.249   0.847  0.4830  2.1768 -1.1001
23419SOL    HW273789   4.447   0.186   0.714  0.6628  1.0528 -0.6295
23420SOL     OW73790   3.540   3.042   9.144 -0.1847 -0.6388  0.0021
23420SOL    HW173791   3.494   3.058   9.226  0.0089  0.6813 -0.1133
23420SOL    HW273792   3.631   3.068   9.161 -0.7673  3.0554 -1.4736
23421SOL     OW73793   4.403   1.220  10.345  0.3722  0.1144  0.7996
23421SOL    HW173794   4.338   1.291  10.354 -0.8781 -1.0528  1.3346
23421SOL    HW273795   4.442   1.213  10.432  1.6457  1.1780  0.3405
23422SOL     OW73796   0.623   2.449   8.087 -0.3063  0.4549 -0.3859
23422SOL    HW173797   0.546   2.420   8.038 -0.5512 -1.6284  1.0909
23422SOL    HW273798   0.607   2.541   8.104 -2.9058 -0.0882  0.5747
23423SOL     OW73799   2.892   4.478   1.639  0.2788 -0.6336 -0.1976
23423SOL    HW173800   2.983   4.474   1.667  0.2956  0.6254  0.0068
23423SOL    HW273801   2.849   4.532   1.706 -0.5950 -1.1120 -0.3543
23424SOL     OW73802   6.404   7.824  10.906 -0.0314  0.1804  0.0141
23424SOL    HW173803   6.464   7.899  10.906  0.5067 -0.2186  1.4046
23424SOL    HW273804   6.444   7.761  10.846  0.9961 -0.0978  0.9554
23425SOL     OW73805   1.832   0.077   0.331 -0.4942 -0.4560  0.3158
23425SOL    HW173806   1.889   0.012   0.373 -0.5168 -1.1987 -0.7853
23425SOL    HW273807   1.893   0.136   0.286 -0.4968  0.0507  0.9614
23426SOL     OW73808   9.941   3.621   1.540  0.2450  0.4605 -0.0086
23426SOL    HW173809   9.894   3.539   1.523 -2.8159  1.8735  1.0152
23426SOL    HW273810   9.903   3.684   1.479  0.3810  1.8051  1.2336
23427SOL     OW73811   6.784   4.917   1.630  0.6220 -0.1925 -0.3853
23427SOL    HW173812   6.697   4.945   1.601  1.4085  0.9970 -1.7499
23427SOL    HW273813   6.820   4.993   1.676  1.0806 -0.5481 -0.1426
23428SOL     OW73814   8.354  10.101   1.244  0.2577 -0.0817  0.2057
23428SOL    HW173815   8.335  10.166   1.312  1.3025  1.2801 -0.7279
23428SOL    HW273816   8.447  10.113   1.225 -0.0778 -0.1251 -1.7112
23429SOL     OW73817   9.714   7.130   6.052  0.0921  0.4508  0.3000
23429SOL    HW173818   9.659   7.092   5.983  2.7318 -0.4890 -1.4461
23429SOL    HW273819   9.697   7.076   6.129  0.7479 -1.7565 -1.0173
23430SOL     OW73820   8.440   8.126   4.062  0.2010 -0.2611  0.3359
23430SOL    HW173821   8.515   8.175   4.097 -0.9753  1.2304  0.8716
23430SOL    HW273822   8.399   8.186   3.999 -0.3353 -1.1930 -0.2189
23431SOL     OW73823   3.082   8.694   0.175  0.1097 -0.6701 -0.0955
23431SOL    HW173824   3.012   8.730   0.121  1.2929  0.8945 -0.6684
23431SOL    HW273825   3.042   8.619   0.220 -1.6258 -0.4282 -1.1451
23432SOL     OW73826   2.046   5.446  10.065 -0.1543  0.2395 -0.4366
23432SOL    HW173827   1.990   5.376  10.099  0.2556 -0.6184 -1.4760
23432SOL    HW273828   2.025   5.522  10.120 -1.4860 -0.3644 -0.0635
23433SOL     OW73829   2.943  10.635   8.410 -0.3850 -0.4666 -0.7252
23433SOL    HW173830   2.997  10.572   8.362 -0.6239 -1.3938  0.1909
23433SOL    HW273831   2.978  10.721   8.385  2.1544 -1.0447  0.5722
23434SOL     OW73832   1.288   0.868   0.963 -0.1534  0.0236  0.0356
23434SOL    HW173833   1.194   0.852   0.958 -0.4225  1.3939  0.2034
23434SOL    HW273834   1.327   0.805   0.903 -1.3133  0.4392 -1.2013
23435SOL     OW73835   7.665   6.583   0.487 -0.4640  0.3061 -0.1398
23435SOL    HW173836   7.661   6.634   0.406 -0.1215  0.4021 -0.0988
23435SOL    HW273837   7.576   6.585   0.521 -0.6938 -0.0298 -0.6970
23436SOL     OW73838   1.751   4.710   9.360 -0.6315  0.0110  0.4465
23436SOL    HW173839   1.721   4.721   9.450 -0.9953  1.2562  0.2021
23436SOL    HW273840   1.800   4.791   9.341  1.1431 -1.0825  0.1551
23437SOL     OW73841  10.771   1.844   4.963  0.2159 -0.3111 -1.0737
23437SOL    HW173842  10.861   1.813   4.974 -0.7169 -2.8142  0.5124
23437SOL    HW273843  10.717   1.772   4.996 -2.3230  2.1925  0.7520
23438SOL     OW73844   8.460  11.070   8.770 -0.3238 -0.1213  0.2979
23438SOL    HW173845   8.523  11.126   8.815 -1.3461  0.3829  1.1673
23438SOL    HW273846   8.492  11.064   8.680 -0.5249  2.3919  0.0027
23439SOL     OW73847   1.205   9.110   2.285 -0.1638  0.1801 -0.3645
23439SOL    HW173848   1.195   9.175   2.215  3.1217  2.9522  1.4476
23439SOL    HW273849   1.139   9.134   2.350  0.3149  1.0961 -0.1914
23440SOL     OW73850  10.634   0.398   3.355  0.1095 -0.0961 -0.2180
23440SOL    HW173851  10.684   0.463   3.405  1.4708 -0.2839 -1.2831
23440SOL    HW273852  10.571   0.363   3.418  2.5688 -1.2276  1.8084
23441SOL     OW73853   0.068   0.325   5.092 -0.4219 -0.1698 -0.9001
23441SOL    HW173854   0.014   0.250   5.071 -0.3699 -0.2338 -0.8072
23441SOL    HW273855   0.098   0.309   5.181  1.4130 -1.1461 -1.6393
23442SOL     OW73856   9.759   0.007   8.240  0.2352 -0.2078 -0.1998
23442SOL    HW173857   9.781   0.052   8.159 -0.6986  1.1009  0.2246
23442SOL    HW273858   9.815   0.048   8.306 -0.9325  0.6956  0.2690
23443SOL     OW73859   9.033   1.973   1.410  0.2024  0.0509 -0.2776
23443SOL    HW173860   9.079   1.922   1.476  2.5477 -1.4025 -2.8007
23443SOL    HW273861   8.945   1.985   1.445  1.0229 -1.4896  2.5891
23444SOL     OW73862   9.592   3.875   1.633 -0.2670  0.1724 -0.0289
23444SOL    HW173863   9.647   3.813   1.680 -0.9931  0.2766  0.9976
23444SOL    HW273864   9.528   3.820   1.588 -0.8581  0.1440  0.8130
23445SOL     OW73865  11.079   5.434   2.562  0.3426  0.2610  0.1540
23445SOL    HW173866  11.124   5.425   2.478  0.4412  1.1640  0.0961
23445SOL    HW273867  11.147   5.422   2.628  0.5912  1.1139  0.0724
23446SOL     OW73868   6.886   6.113   7.312 -0.1294  0.2242 -0.3826
23446SOL    HW173869   6.830   6.169   7.366 -0.6668 -0.3995 -0.2690
23446SOL    HW273870   6.828   6.042   7.284  0.9574 -1.3223  1.0658
23447SOL     OW73871   2.004   2.633   1.277  0.0730 -0.2153 -0.2675
23447SOL    HW173872   2.019   2.539   1.264 -0.8140 -0.6771  1.6290
23447SOL    HW273873   2.086   2.674   1.252 -0.2148 -1.2357 -3.2693
23448SOL     OW73874   2.544   7.867   9.760 -0.0332  0.3193 -0.6301
23448SOL    HW173875   2.600   7.863   9.682 -0.2396  1.5598 -0.8601
23448SOL    HW273876   2.605   7.871   9.833  0.1814  1.1902 -0.8534
23449SOL     OW73877   4.000   8.297  10.361  0.0596 -0.0722 -0.2215
23449SOL    HW173878   4.093   8.279  10.376 -0.3233 -0.8857  1.4134
23449SOL    HW273879   3.969   8.333  10.444 -1.6819 -2.5052  0.2978
23450SOL     OW73880   4.391   5.527   8.592 -0.4911 -0.0428 -0.3869
23450SOL    HW173881   4.415   5.519   8.500 -0.3868 -0.3395 -0.3355
23450SOL    HW273882   4.357   5.441   8.616 -1.6082  0.3582 -0.4557
23451SOL     OW73883   3.365   0.427   6.052  0.1150  0.1219  0.1905
23451SOL    HW173884   3.437   0.447   5.993 -0.5087 -1.5006 -1.1999
23451SOL    HW273885   3.382   0.481   6.129  3.8601 -1.5116  0.7339
23452SOL     OW73886   8.504   1.150   8.967 -0.5035 -0.0849  0.1326
23452SOL    HW173887   8.591   1.175   8.936 -0.7998  0.1307 -0.5337
23452SOL    HW273888   8.519   1.071   9.019  0.2328  0.5786  0.9459
23453SOL     OW73889   2.295   8.148   5.295 -0.1409  0.6939  0.0728
23453SOL    HW173890   2.253   8.109   5.371 -0.6031 -3.1714 -1.9360
23453SOL    HW273891   2.223   8.178   5.240  0.1367  2.1393  0.4655
23454SOL     OW73892   3.691   4.140   0.377  0.2852  0.2300  0.6507
23454SOL    HW173893   3.671   4.145   0.471 -0.2222  0.2290  0.5477
23454SOL    HW273894   3.675   4.228   0.344  1.2923  0.4468  0.7167
23455SOL     OW73895   9.812   4.124   7.177  0.1719 -0.1660 -0.2705
23455SOL    HW173896   9.852   4.211   7.167 -0.1928  0.0243 -0.0733
23455SOL    HW273897   9.723   4.135   7.145  0.5258 -0.8106 -1.5469
23456SOL     OW73898   5.740   9.186   9.407 -0.3507  0.2907  0.4073
23456SOL    HW173899   5.817   9.136   9.435 -1.3470 -1.6531 -0.1741
23456SOL    HW273900   5.774   9.247   9.341  0.6620 -0.6653  0.0157
23457SOL     OW73901   1.446   0.768   5.839  0.8808 -0.2987  0.1769
23457SOL    HW173902   1.497   0.801   5.913  0.5270 -0.4265  0.4826
23457SOL    HW273903   1.387   0.703   5.877 -0.1538  0.5067 -0.0119
23458SOL     OW73904   6.738   0.375   2.308  0.3611  0.0443  0.4033
23458SOL    HW173905   6.778   0.365   2.394 -0.4681 -0.5693  0.7249
23458SOL    HW273906   6.732   0.470   2.295  0.3251  0.1391  1.0983
23459SOL     OW73907   3.189   0.754   1.902  0.4595 -0.1322  0.0218
23459SOL    HW173908   3.109   0.787   1.862  0.5300 -0.1532 -0.1386
23459SOL    HW273909   3.210   0.674   1.853  1.8260  1.0798 -1.4852
23460SOL     OW73910   7.749   9.149  10.711  0.0766  0.6987 -0.3034
23460SOL    HW173911   7.736   9.083  10.643  0.8684  2.9771 -2.8182
23460SOL    HW273912   7.667   9.199  10.712  0.8456  2.0488 -1.2435
23461SOL     OW73913   4.461   9.741   4.456 -0.1894  0.0577  0.0081
23461SOL    HW173914   4.502   9.778   4.534  0.4515  1.6928 -1.0386
23461SOL    HW273915   4.408   9.668   4.488 -0.7594  1.3204  2.0686
23462SOL     OW73916   4.095   7.707   5.951 -0.4370  0.3494 -0.0013
23462SOL    HW173917   4.039   7.739   5.880  1.7728 -0.3915 -2.2384
23462SOL    HW273918   4.124   7.786   5.996 -0.8758  0.9604 -0.7637
23463SOL     OW73919   2.341  10.902   8.843  0.3904  0.5541  0.4109
23463SOL    HW173920   2.413  10.872   8.787 -0.6225 -0.1685 -0.5577
23463SOL    HW273921   2.300  10.972   8.792 -1.1030 -0.7187 -0.2340
23464SOL     OW73922   5.283   4.987   7.918  0.2364 -0.2733  0.1878
23464SOL    HW173923   5.271   5.018   7.828 -0.7818 -0.4216  0.2588
23464SOL    HW273924   5.355   4.925   7.912  0.4173 -0.0167 -0.4607
23465SOL     OW73925   2.175   0.273   2.983  0.1632  0.5664  0.0196
23465SOL    HW173926   2.182   0.254   3.076 -2.4305 -1.7370 -0.1487
23465SOL    HW273927   2.241   0.217   2.942 -0.2061 -0.0805  0.3109
23466SOL     OW73928   4.304   6.622   3.134  0.0581 -0.0793 -0.2200
23466SOL    HW173929   4.337   6.649   3.219 -0.4037  0.2457 -0.1376
23466SOL    HW273930   4.234   6.685   3.114 -0.7899 -0.9775 -0.1865
23467SOL     OW73931   3.944  10.578   3.085  0.2503 -0.5885  0.2988
23467SOL    HW173932   4.028  10.568   3.040 -1.2151  0.0278 -2.8521
23467SOL    HW273933   3.941  10.671   3.109 -0.0099 -0.3359 -0.6810
23468SOL     OW73934   0.339   1.854   0.505 -0.0147 -0.3193 -0.2905
23468SOL    HW173935   0.347   1.800   0.427  0.4081  1.4972 -1.5664
23468SOL    HW273936   0.394   1.931   0.487  0.9311 -0.3196  2.2257
23469SOL     OW73937   1.658   8.105   7.808 -0.6235 -0.1814  0.0438
23469SOL    HW173938   1.746   8.127   7.839 -0.3660 -1.5837  0.4242
23469SOL    HW273939   1.654   8.138   7.719  0.6255 -0.8791 -0.2899
23470SOL     OW73940   4.952   9.240  10.235  0.1865 -0.4497  0.5199
23470SOL    HW173941   4.946   9.335  10.239 -0.9383 -0.5089  0.5865
23470SOL    HW273942   4.914   9.210  10.318 -0.3932 -0.9759  0.0787
23471SOL     OW73943  10.225   9.416   8.412 -0.4284  0.2278 -0.4910
23471SOL    HW173944  10.255   9.325   8.417 -1.3085 -0.0250  0.7111
23471SOL    HW273945  10.234   9.448   8.502  1.3229  1.8305 -1.1664
23472SOL     OW73946   5.778  10.904   8.645 -0.2202  0.1207  0.1257
23472SOL    HW173947   5.709  10.838   8.653 -1.1125  0.6304 -2.3350
23472SOL    HW273948   5.732  10.986   8.627  0.9676  0.5692 -1.0804
23473SOL     OW73949   8.907  10.639   2.430 -0.3083 -0.1496 -0.1684
23473SOL    HW173950   8.920  10.714   2.372 -0.8336 -1.0053 -1.4287
23473SOL    HW273951   8.843  10.669   2.495  0.8591  1.0665  0.4722
23474SOL     OW73952  10.387   4.247   9.533  0.3204 -0.5872  0.2784
23474SOL    HW173953  10.336   4.207   9.603 -2.1197 -1.0062 -1.5884
23474SOL    HW273954  10.407   4.174   9.474 -0.3741  0.1821 -0.9602
23475SOL     OW73955   9.904   2.653   9.643  0.6403  0.1100  0.1424
23475SOL    HW173956   9.862   2.724   9.594 -0.7198 -0.2192  0.7811
23475SOL    HW273957   9.883   2.574   9.592 -0.0900 -0.1358  0.8153
23476SOL     OW73958   8.820   6.544   5.037 -0.8143 -0.5542 -0.0279
23476SOL    HW173959   8.782   6.629   5.017  0.5249  0.4262  1.3635
23476SOL    HW273960   8.772   6.513   5.114 -1.0383 -0.8956 -0.2987
23477SOL     OW73961   9.105   9.807   1.151  0.1513  0.1090 -0.0709
23477SOL    HW173962   9.014   9.838   1.146  0.0224 -0.4593 -1.9877
23477SOL    HW273963   9.103   9.737   1.216 -1.1050 -0.8643 -1.1094
23478SOL     OW73964   2.075   7.407   6.150  0.1572 -0.4941 -0.5095
23478SOL    HW173965   2.068   7.377   6.060 -1.8966 -2.3506  0.1901
23478SOL    HW273966   2.016   7.483   6.155 -0.1237 -0.7065 -0.6049
23479SOL     OW73967   2.824   9.846   6.691 -0.0881  0.0253 -0.5004
23479SOL    HW173968   2.811   9.766   6.743 -0.4715  0.2154 -0.3062
23479SOL    HW273969   2.917   9.844   6.668 -0.2105 -0.7500 -0.9535
23480SOL     OW73970   8.053   7.289   4.949  0.3936  0.8552  0.2182
23480SOL    HW173971   8.144   7.318   4.954  0.4825  1.2082 -2.1606
23480SOL    HW273972   8.033   7.290   4.856 -2.5698  2.3606  0.7469
23481SOL     OW73973   8.571   3.686   0.592 -0.0264 -1.0545 -0.6446
23481SOL    HW173974   8.645   3.714   0.538  2.6259 -5.0116  0.5369
23481SOL    HW273975   8.568   3.750   0.663  1.5703 -0.2010 -1.2900
23482SOL     OW73976   7.536   5.840   3.322 -0.1253 -0.2943 -0.3266
23482SOL    HW173977   7.588   5.902   3.374 -1.9506  0.9689  0.0827
23482SOL    HW273978   7.547   5.756   3.367 -0.1577  0.3984  1.0239
23483SOL     OW73979   8.405  10.852   4.397 -0.2879 -0.0995  0.5334
23483SOL    HW173980   8.483  10.799   4.411 -0.3928 -1.2899 -2.5500
23483SOL    HW273981   8.338  10.812   4.452  0.9074  0.1975  2.2936
23484SOL     OW73982   6.177   0.976   1.813 -0.0184 -0.0499  0.0055
23484SOL    HW173983   6.236   0.946   1.882  0.7834 -0.8254 -0.9838
23484SOL    HW273984   6.183   1.072   1.816  1.6785 -0.1104 -0.3663
23485SOL     OW73985   9.536   6.778  10.251  0.0463  0.9952 -0.0253
23485SOL    HW173986   9.531   6.792  10.345  0.4463  0.8198  0.0240
23485SOL    HW273987   9.612   6.829  10.222  0.3088  0.5470 -0.1486
23486SOL     OW73988   5.941  10.368   2.036 -0.4397  0.5187 -0.4709
23486SOL    HW173989   5.912  10.280   2.062  0.4324  0.0005 -1.1819
23486SOL    HW273990   5.933  10.420   2.116 -1.7994  0.0207 -0.2564
23487SOL     OW73991   4.234   3.408   9.773 -0.2482  0.2637 -0.8334
23487SOL    HW173992   4.163   3.472   9.778  0.4708  1.1023 -1.0589
23487SOL    HW273993   4.313   3.458   9.796  0.1683 -0.8362  0.1892
23488SOL     OW73994   5.217   4.901  11.040  0.3670  0.3951  0.3150
23488SOL    HW173995   5.195   4.990  11.069  0.3788  0.6201 -0.3546
23488SOL    HW273996   5.212   4.905  10.945  1.0568 -0.1413  0.2510
23489SOL     OW73997   5.408   9.302   7.824 -0.3542 -0.1863  0.7461
23489SOL    HW173998   5.370   9.218   7.850 -0.1485 -1.2858 -2.1494
23489SOL    HW273999   5.338   9.366   7.842 -1.2016 -1.2374  1.3175
23490SOL     OW74000   5.931   7.508   8.598  0.0330 -0.4515 -0.3556
23490SOL    HW174001   5.847   7.510   8.644 -0.1766  1.6402 -0.7472
23490SOL    HW274002   5.913   7.463   8.516 -0.6451 -0.2548 -0.3156
23491SOL     OW74003   4.401   4.074   5.572  0.1209 -0.3268 -0.7867
23491SOL    HW174004   4.431   4.071   5.662 -2.1918  0.7398  0.0844
23491SOL    HW274005   4.386   3.982   5.549 -1.8721 -0.4864  0.9043
23492SOL     OW74006   7.460   2.419   7.195 -0.2658  0.4310 -0.3442
23492SOL    HW174007   7.548   2.443   7.167  0.1788  2.2328  2.2168
23492SOL    HW274008   7.473   2.343   7.251 -0.1563  1.2110  0.7336
23493SOL     OW74009   9.674   1.791   6.803 -0.3461 -0.1832  0.2318
23493SOL    HW174010   9.749   1.844   6.828  0.5014 -1.1275 -0.2603
23493SOL    HW274011   9.619   1.850   6.751  0.4856  0.2631 -0.1519
23494SOL     OW74012   8.830   7.477  10.754  0.2872 -0.2519  0.6732
23494SOL    HW174013   8.909   7.509  10.797  0.4153 -1.1506  1.1229
23494SOL    HW274014   8.859   7.456  10.665  0.1353  1.1225  0.2740
23495SOL     OW74015   3.861   9.941   4.658 -0.5413  0.4779  0.4344
23495SOL    HW174016   3.918   9.964   4.732  0.4472 -2.0015  0.5347
23495SOL    HW274017   3.825   9.856   4.681 -2.7075  1.0623 -0.5943
23496SOL     OW74018   7.277   0.663  11.041  0.2192  0.2825 -0.4033
23496SOL    HW174019   7.210   0.596  11.050  0.7094 -0.0611  0.8990
23496SOL    HW274020   7.227   0.745  11.034 -0.3599  0.0782  0.9585
23497SOL     OW74021   3.350  10.231   9.674  0.1931 -0.5188  0.1335
23497SOL    HW174022   3.440  10.229   9.641  0.8274  0.0062  1.6884
23497SOL    HW274023   3.295  10.232   9.596  1.5343 -1.0184 -0.8510
23498SOL     OW74024   9.580   9.955  10.372 -0.2343  0.5534  0.8932
23498SOL    HW174025   9.519  10.028  10.376 -1.3313 -0.2535 -0.2710
23498SOL    HW274026   9.527   9.880  10.346  1.0621 -0.4084  0.8814
23499SOL     OW74027   8.189   6.295   1.180 -0.0223 -0.5156 -0.0830
23499SOL    HW174028   8.227   6.364   1.125 -0.7599 -0.0368 -0.0143
23499SOL    HW274029   8.228   6.214   1.148  0.2666 -0.1449 -0.6899
23500SOL     OW74030  10.715  10.034  10.510 -0.6612 -0.0029  0.2291
23500SOL    HW174031  10.699   9.943  10.486 -2.0845 -0.0940  1.4705
23500SOL    HW274032  10.654  10.084  10.456 -0.0404  0.2195 -0.2835
23501SOL     OW74033   1.669   0.206   0.133  0.3435  0.2231 -0.2249
23501SOL    HW174034   1.593   0.248   0.172  0.3408 -1.0304  1.2143
23501SOL    HW274035   1.716   0.168   0.207  3.1265  2.0672 -0.8631
23502SOL     OW74036   3.014   0.871   0.471  0.5073  0.0765 -0.2880
23502SOL    HW174037   3.101   0.857   0.435 -0.3044  0.1723 -2.4276
23502SOL    HW274038   3.008   0.965   0.487  0.7428  0.0889 -0.2813
23503SOL     OW74039   0.830   0.865   1.193 -0.2476 -0.0696 -0.2204
23503SOL    HW174040   0.751   0.918   1.205  1.3043  2.2679  0.1557
23503SOL    HW274041   0.802   0.776   1.215 -2.9856  0.5096 -0.9571
23504SOL     OW74042  10.814  11.029   9.608 -0.0875 -0.2459  0.3925
23504SOL    HW174043  10.857  11.035   9.693  0.4965 -1.9297  0.2436
23504SOL    HW274044  10.722  11.048   9.626  0.1355  0.0345  1.2784
23505SOL     OW74045   5.051   7.983   1.542  0.2603  0.3169  0.6721
23505SOL    HW174046   5.028   7.923   1.471  1.6211  0.5195  0.0454
23505SOL    HW274047   4.968   7.999   1.587 -0.7009  0.4444 -1.0667
23506SOL     OW74048  10.193  10.471   6.643 -0.1024  0.4542 -0.4682
23506SOL    HW174049  10.260  10.452   6.578 -2.1164 -1.7557 -2.0784
23506SOL    HW274050  10.141  10.391   6.647 -0.8190  0.9139  3.0406
23507SOL     OW74051   8.561   0.415   6.808 -0.4266  0.1922 -0.2905
23507SOL    HW174052   8.656   0.411   6.822 -0.5495 -0.3043  0.4191
23507SOL    HW274053   8.549   0.490   6.749  0.3035  0.9951  0.5473
23508SOL     OW74054   2.453   0.793   1.980 -0.0149 -0.0455  0.3798
23508SOL    HW174055   2.516   0.763   1.915 -0.6256 -0.6847  0.0697
23508SOL    HW274056   2.392   0.719   1.990 -1.8391  1.2353 -0.7537
23509SOL     OW74057   8.686   3.000   3.167 -0.4828 -0.6049 -0.3622
23509SOL    HW174058   8.736   3.074   3.130 -0.1358 -0.9878 -0.6661
23509SOL    HW274059   8.627   3.041   3.230  0.5603 -0.1901  0.3814
23510SOL     OW74060   7.318   7.911   8.431  0.2320 -0.0738  0.0219
23510SOL    HW174061   7.398   7.950   8.396  1.0568 -1.0761  0.7376
23510SOL    HW274062   7.261   7.901   8.355  1.0954 -0.0712 -0.6419
23511SOL     OW74063  10.833   7.289   3.311  1.0947  0.0299 -0.4646
23511SOL    HW174064  10.804   7.346   3.381 -0.7782 -1.4503  0.0670
23511SOL    HW274065  10.874   7.347   3.247 -0.2881  1.8989  0.2506
23512SOL     OW74066   1.987   6.498  10.121  0.6259 -0.2680  0.3194
23512SOL    HW174067   2.075   6.536  10.117  0.2581  0.4858 -1.8515
23512SOL    HW274068   1.996   6.410  10.085  0.7091 -0.6859  1.3370
23513SOL     OW74069   0.988   9.266   4.819 -0.5678  0.1954 -0.3114
23513SOL    HW174070   0.936   9.346   4.816  0.4152  0.8287 -1.5433
23513SOL    HW274071   0.935   9.201   4.774 -1.4132  0.0972  0.7766
23514SOL     OW74072   0.860   7.206  10.103 -0.0121  0.1162 -0.3441
23514SOL    HW174073   0.941   7.193  10.052  0.5979  0.8316  0.4034
23514SOL    HW274074   0.839   7.298  10.089  0.0573  0.2744  0.5235
23515SOL     OW74075   1.478   9.144   6.928 -0.4807 -0.4593  0.2340
23515SOL    HW174076   1.452   9.164   7.018 -0.7500 -0.8467  0.2463
23515SOL    HW274077   1.559   9.093   6.938  0.0206  0.3095  0.2145
23516SOL     OW74078   7.539   1.705   6.716  0.4177 -0.0198 -0.5496
23516SOL    HW174079   7.526   1.663   6.801  1.6386 -1.1501 -0.8801
23516SOL    HW274080   7.471   1.772   6.711  0.7114  0.4954  1.5747
23517SOL     OW74081   1.013   1.960   3.714 -0.3598 -0.0171 -0.2398
23517SOL    HW174082   0.976   2.013   3.785 -0.4705 -0.0178 -0.2965
23517SOL    HW274083   0.955   1.976   3.640  0.3548  0.8111 -0.6352
23518SOL     OW74084   2.318   4.551   2.801  0.0358 -0.0825 -0.3392
23518SOL    HW174085   2.411   4.529   2.804 -0.2075 -1.7113 -2.4440
23518SOL    HW274086   2.316   4.640   2.766  0.7872 -0.2777 -0.9015
23519SOL     OW74087   2.915   6.014   1.944  0.1554 -0.1063  0.5064
23519SOL    HW174088   2.933   5.965   2.024 -1.5430 -0.4752  0.7118
23519SOL    HW274089   2.967   5.970   1.876  0.9272 -0.3331  1.2342
23520SOL     OW74090   9.884   6.355   8.605  0.1832  0.0852  0.1946
23520SOL    HW174091   9.922   6.294   8.667 -0.1862  1.0327  1.3947
23520SOL    HW274092   9.823   6.303   8.554  2.6855 -1.3942 -1.5167
23521SOL     OW74093   4.714   1.074   4.257 -0.0478  0.0245  0.1285
23521SOL    HW174094   4.751   0.990   4.284 -1.9151 -1.0387 -0.4393
23521SOL    HW274095   4.743   1.136   4.324 -1.7644 -1.8596  2.8148
23522SOL     OW74096  10.676   2.997   0.374 -0.2748  0.1611  0.2122
23522SOL    HW174097  10.605   3.020   0.434 -0.4072  0.8149 -0.1825
23522SOL    HW274098  10.632   2.952   0.302 -0.4496  1.4564 -0.5259
23523SOL     OW74099   0.065  10.343   6.732  0.1621 -0.1628  0.1400
23523SOL    HW174100   0.124  10.279   6.771 -1.2138 -0.3293  2.1244
23523SOL    HW274101   0.115  10.425   6.733  1.2599 -0.7948 -0.6684
23524SOL     OW74102   1.992   0.873   4.297  0.2354 -0.2717  0.0240
23524SOL    HW174103   1.902   0.906   4.297  0.7983  1.3983 -0.6479
23524SOL    HW274104   1.983   0.778   4.293 -1.5446 -0.1233 -3.5001
23525SOL     OW74105   8.316   9.587   7.809  0.2786  0.6294 -0.2181
23525SOL    HW174106   8.258   9.542   7.748  2.4793 -1.8744 -0.6369
23525SOL    HW274107   8.310   9.536   7.890 -1.7349  3.2495  1.4976
23526SOL     OW74108   7.163   3.851   9.799 -0.1746 -0.2382  0.1385
23526SOL    HW174109   7.073   3.881   9.813  0.3282  2.0324 -1.0735
23526SOL    HW274110   7.206   3.860   9.884 -0.9146 -0.8013  0.5883
23527SOL     OW74111   5.257   3.819   8.585  0.0101 -0.3498  0.4066
23527SOL    HW174112   5.329   3.760   8.565 -0.0194  0.2521 -1.6966
23527SOL    HW274113   5.183   3.761   8.603  0.4596 -0.9484  0.3638
23528SOL     OW74114   1.522  10.158   7.518  0.0552 -0.0147  0.2566
23528SOL    HW174115   1.610  10.133   7.492  0.8728  0.8083  2.0631
23528SOL    HW274116   1.520  10.146   7.613 -1.4764  0.8348  0.3770
23529SOL     OW74117   3.542   5.387   5.676 -0.1255 -0.4568 -0.6465
23529SOL    HW174118   3.470   5.368   5.737 -0.2622 -1.6532 -1.1408
23529SOL    HW274119   3.621   5.376   5.729 -0.2804  1.3811  0.0378
23530SOL     OW74120   3.957   9.436   0.444 -0.6398 -0.0320 -0.7787
23530SOL    HW174121   4.012   9.515   0.440  0.7751 -0.9917 -0.9528
23530SOL    HW274122   3.913   9.441   0.529  0.3028  0.3939 -0.3078
23531SOL     OW74123   8.302   9.488   3.152  0.0953  0.3683 -0.9206
23531SOL    HW174124   8.264   9.431   3.085  0.4164 -1.3234  0.2770
23531SOL    HW274125   8.236   9.557   3.164 -1.4305 -1.0471 -0.7651
23532SOL     OW74126  10.448   2.378   6.499 -0.1152  0.0547 -0.3600
23532SOL    HW174127  10.371   2.430   6.524  1.4093  2.6351 -0.6921
23532SOL    HW274128  10.502   2.438   6.449  0.3279 -2.8420 -3.7366
23533SOL     OW74129   6.977   8.498   8.020  0.8926 -0.2154  0.1743
23533SOL    HW174130   6.953   8.506   8.112  1.7102  0.7526  0.3184
23533SOL    HW274131   7.004   8.586   7.994 -0.5993 -0.1555 -1.3674
23534SOL     OW74132   3.148   6.292   0.142 -0.5123  0.4742  0.0251
23534SOL    HW174133   3.061   6.299   0.182 -1.2544 -0.1401 -1.4252
23534SOL    HW274134   3.145   6.210   0.093  1.5666 -0.5527  1.4880
23535SOL     OW74135   7.606   6.019   4.859  1.1086  0.1513 -0.0311
23535SOL    HW174136   7.619   6.112   4.837  0.5706 -0.0637 -1.3648
23535SOL    HW274137   7.535   5.991   4.801 -0.0957 -0.6018  1.7280
23536SOL     OW74138   5.236   0.591   9.957 -0.4178  0.0561  0.0875
23536SOL    HW174139   5.217   0.683   9.977 -0.4883  0.1792 -0.5224
23536SOL    HW274140   5.210   0.581   9.866  1.7393  0.0346 -0.5702
23537SOL     OW74141   8.404   0.764  11.113  0.6591 -0.2968  0.2756
23537SOL    HW174142   8.458   0.774  11.035  1.1531 -1.5483  0.4303
23537SOL    HW274143   8.394   0.670  11.124  0.2761 -0.1371  1.5027
23538SOL     OW74144   3.344   7.984   1.272  0.3357  0.0277 -0.5150
23538SOL    HW174145   3.283   8.056   1.288  1.3632  0.7746  0.1124
23538SOL    HW274146   3.313   7.913   1.329  0.7058  0.7932  0.6615
23539SOL     OW74147   4.741  10.441   4.358  0.2052  0.1244 -0.2956
23539SOL    HW174148   4.726  10.400   4.443 -1.1576 -0.7288 -0.9043
23539SOL    HW274149   4.719  10.533   4.371 -1.5192 -0.2758 -0.0448
23540SOL     OW74150   8.361  10.893   3.728 -0.5510  0.7406 -0.1736
23540SOL    HW174151   8.304  10.836   3.779 -1.2997  1.2857 -0.3791
23540SOL    HW274152   8.444  10.894   3.777 -0.5813 -0.3627 -0.0763
23541SOL     OW74153   9.496   7.098   1.857 -0.3222 -0.0544 -0.2079
23541SOL    HW174154   9.559   7.036   1.893  0.0129  0.9867  1.0959
23541SOL    HW274155   9.455   7.052   1.784  1.5712 -0.9463 -0.7602
23542SOL     OW74156   8.199   8.603   3.491 -0.0230  0.2129 -0.3187
23542SOL    HW174157   8.171   8.686   3.529 -0.6937 -1.2439  2.5965
23542SOL    HW274158   8.255   8.628   3.417 -1.8930  3.2069 -0.8838
23543SOL     OW74159   9.261   9.874   7.954  0.3328  0.1309  0.0569
23543SOL    HW174160   9.219   9.896   7.871  0.5049 -1.5098 -0.4978
23543SOL    HW274161   9.220   9.792   7.980  2.1139 -0.7288  0.2610
23544SOL     OW74162   8.461   7.220   1.763 -0.0873  0.5036 -0.1324
23544SOL    HW174163   8.427   7.170   1.688 -0.5274 -0.1023  0.4514
23544SOL    HW274164   8.551   7.189   1.773  0.1626  1.0010 -0.7476
23545SOL     OW74165   5.485   3.478   9.221 -0.2489 -0.0047  0.8515
23545SOL    HW174166   5.492   3.489   9.127 -1.2575  0.0527  0.7791
23545SOL    HW274167   5.466   3.385   9.233  0.2679 -0.0918  1.0248
23546SOL     OW74168   7.547   5.614   7.055 -0.3788 -0.3110  0.3647
23546SOL    HW174169   7.566   5.606   7.148 -0.7381  2.6110  0.7598
23546SOL    HW274170   7.476   5.551   7.040  2.3191 -3.8210  1.0682
23547SOL     OW74171   7.147  10.369   4.495  1.2061  0.0287  0.2527
23547SOL    HW174172   7.126  10.447   4.546  2.1541  0.0970  0.5435
23547SOL    HW274173   7.094  10.300   4.535  1.1650  0.3009  0.6742
23548SOL     OW74174   2.132   1.344  10.019  0.4418 -0.3696 -0.4446
23548SOL    HW174175   2.200   1.384   9.965  1.3953 -1.2956  0.0326
23548SOL    HW274176   2.052   1.351   9.967  0.4555  2.4754 -0.2437
23549SOL     OW74177   7.047   1.287   1.576 -0.1288 -0.0010 -0.4753
23549SOL    HW174178   6.978   1.221   1.567 -1.5399  1.2591  0.6303
23549SOL    HW274179   7.002   1.370   1.560  0.8486  0.9427  1.3947
23550SOL     OW74180   4.404   4.021   8.335  0.0374  0.3926 -0.0594
23550SOL    HW174181   4.361   3.957   8.278 -1.3077  1.0662  0.1547
23550SOL    HW274182   4.427   4.093   8.276  0.2193  0.3394 -0.0522
23551SOL     OW74183   1.545   0.794   4.729  0.4354 -0.2719 -0.3758
23551SOL    HW174184   1.543   0.698   4.725 -0.0719 -0.3207  0.6299
23551SOL    HW274185   1.599   0.820   4.655  0.4108 -1.3286 -0.7873
23552SOL     OW74186   2.117  10.624   8.038  0.0563 -0.1410  0.0952
23552SOL    HW174187   2.180  10.675   7.986 -1.2495  1.1844 -0.2684
23552SOL    HW274188   2.170  10.556   8.080  1.6314  0.5897 -0.6091
23553SOL     OW74189   2.213   1.194   8.241  0.3822  0.4234 -0.8321
23553SOL    HW174190   2.135   1.242   8.271  1.1940  1.0547  0.3208
23553SOL    HW274191   2.201   1.188   8.146  0.0481  2.6220 -0.9966
23554SOL     OW74192   9.677   5.305   9.485  0.2167  0.7027 -0.5647
23554SOL    HW174193   9.713   5.227   9.441 -1.9090 -0.5448 -0.2490
23554SOL    HW274194   9.710   5.379   9.434  1.4233 -0.4590 -1.5440
23555SOL     OW74195   3.415   5.414   1.368  0.3163  0.2594  0.0634
23555SOL    HW174196   3.404   5.494   1.317 -0.8800 -0.2574 -0.5242
23555SOL    HW274197   3.427   5.444   1.458  0.3292  1.1043 -0.2140
23556SOL     OW74198   1.076   1.232   0.266  0.1240 -0.3594  0.1432
23556SOL    HW174199   1.145   1.288   0.303  0.0597  0.1820 -0.5189
23556SOL    HW274200   1.044   1.181   0.340 -0.4391  1.1240  0.9798
23557SOL     OW74201   9.131   3.040   1.843  0.5800  0.1205 -0.3185
23557SOL    HW174202   9.207   3.099   1.849  0.6745  0.1979 -1.9295
23557SOL    HW274203   9.144   2.977   1.914  1.2702  1.1350  0.4793
23558SOL     OW74204   5.565   7.228   5.107 -0.5544  0.0544 -0.5046
23558SOL    HW174205   5.641   7.181   5.071  0.2819  1.2508 -0.3473
23558SOL    HW274206   5.569   7.315   5.066 -0.5404  0.8955  1.1880
23559SOL     OW74207   5.952   6.397   0.775 -0.0795 -0.4975 -0.7406
23559SOL    HW174208   5.864   6.424   0.802 -0.7535 -0.8389 -2.4729
23559SOL    HW274209   5.995   6.479   0.749  1.5312  0.2832  3.5312
23560SOL     OW74210   7.625   0.518   4.753 -0.2263 -0.0294  0.4649
23560SOL    HW174211   7.675   0.541   4.832  2.6896  2.3468 -1.8143
23560SOL    HW274212   7.658   0.431   4.729  1.6007  0.7543 -0.0214
23561SOL     OW74213   5.608   5.012   6.478  0.1488 -0.3406 -0.0746
23561SOL    HW174214   5.597   4.969   6.563 -1.8487  0.5645  0.1874
23561SOL    HW274215   5.573   4.950   6.414 -0.4326 -0.1183  0.0246
23562SOL     OW74216   0.489   3.529   1.841  0.6140 -0.0036  0.0935
23562SOL    HW174217   0.514   3.571   1.758  0.0567 -0.7793 -0.4906
23562SOL    HW274218   0.568   3.483   1.869 -0.1116 -2.7269 -1.9194
23563SOL     OW74219   2.204   8.261   4.207  0.1379  0.3741 -0.0775
23563SOL    HW174220   2.205   8.350   4.243  2.3605  0.4602 -0.2006
23563SOL    HW274221   2.290   8.251   4.165  0.5692 -2.3251  1.2047
23564SOL     OW74222   8.927   5.102   9.226 -0.1125 -0.6948  0.5205
23564SOL    HW174223   8.834   5.117   9.215  0.4906  4.1503  0.1355
23564SOL    HW274224   8.937   5.081   9.319 -1.5743 -2.3803  0.3527
23565SOL     OW74225   5.871   8.728   9.699  0.4995  0.4295 -0.1047
23565SOL    HW174226   5.951   8.704   9.747  0.9049 -0.1318 -1.0313
23565SOL    HW274227   5.881   8.687   9.613 -0.9047  0.1360 -0.1584
23566SOL     OW74228   2.900  10.405   7.226  0.0806 -0.8658 -0.0934
23566SOL    HW174229   2.916  10.460   7.149 -0.8625  0.7943  0.8304
23566SOL    HW274230   2.806  10.383   7.220 -0.2304  0.0778  1.0546
23567SOL     OW74231  10.222   0.423   0.263  0.0980 -0.2802  0.0891
23567SOL    HW174232  10.297   0.423   0.204 -0.9198 -1.4717 -1.2720
23567SOL    HW274233  10.236   0.349   0.321  0.2211 -0.1858  0.1806
23568SOL     OW74234   5.786   9.950   7.621  0.7800 -0.7990  0.1129
23568SOL    HW174235   5.826   9.910   7.699 -0.5865 -1.5684  0.4494
23568SOL    HW274236   5.705   9.902   7.608  0.0074  0.6342 -0.6298
23569SOL     OW74237   5.983  11.108   1.592 -0.0359 -0.0639  0.3372
23569SOL    HW174238   6.008  11.189   1.636 -0.3066  0.6672 -0.8161
23569SOL    HW274239   5.906  11.078   1.640 -0.6439  1.0016  0.0681
23570SOL     OW74240   1.869   9.096   4.095 -0.3544 -0.0908 -0.0670
23570SOL    HW174241   1.946   9.137   4.136 -1.1249 -0.1409  1.5004
23570SOL    HW274242   1.798   9.159   4.110 -0.6295  0.0046 -1.5940
23571SOL     OW74243   8.348   7.363   9.637 -0.0557 -0.1850  0.0115
23571SOL    HW174244   8.256   7.339   9.648 -0.6937  1.3440 -1.5005
23571SOL    HW274245   8.392   7.280   9.614 -1.4438 -0.6103 -1.2462
23572SOL     OW74246   1.861  10.643   3.968 -0.3454 -0.0675  0.4131
23572SOL    HW174247   1.918  10.696   4.023  0.6147 -1.0811  0.4117
23572SOL    HW274248   1.775  10.649   4.010 -0.6114  2.6152 -0.3742
23573SOL     OW74249   8.894  10.989   9.410  0.1749  0.1532 -0.0914
23573SOL    HW174250   8.813  11.032   9.384  0.6170 -0.6625 -3.1932
23573SOL    HW274251   8.866  10.906   9.448 -0.4676  0.8774  1.0912
23574SOL     OW74252   8.327   3.433  10.889  0.0486  0.1726 -0.1976
23574SOL    HW174253   8.289   3.509  10.933 -1.5655 -0.8978  0.3403
23574SOL    HW274254   8.415   3.424  10.927  0.1789  1.6130 -0.1183
23575SOL     OW74255   2.720  10.613  11.054 -0.0956  0.1826 -0.2334
23575SOL    HW174256   2.635  10.591  11.093  0.0215 -0.3915 -0.2987
23575SOL    HW274257   2.783  10.561  11.102 -0.0284 -1.1564 -1.6800
23576SOL     OW74258   0.354   8.855  10.509 -0.0686  0.0823 -0.2134
23576SOL    HW174259   0.388   8.767  10.492 -0.2479  0.4891 -3.0933
23576SOL    HW274260   0.261   8.841  10.527 -0.2077 -0.3002 -1.1627
23577SOL     OW74261   3.543  10.129   6.980  0.1630 -0.4011  0.5561
23577SOL    HW174262   3.627  10.114   7.024  0.2812 -0.9851  0.1461
23577SOL    HW274263   3.480  10.139   7.051  0.6760  0.6649  0.8784
23578SOL     OW74264   6.279   0.049  10.553  0.2054  0.2220  0.0985
23578SOL    HW174265   6.333  -0.002  10.612  0.1237  0.5062  0.4193
23578SOL    HW274266   6.191   0.014  10.564  0.6386 -1.8616 -2.1414
23579SOL     OW74267   4.753   8.260   1.537 -1.1274  0.0728  0.1313
23579SOL    HW174268   4.773   8.167   1.553  1.9913 -0.3459 -4.2853
23579SOL    HW274269   4.782   8.304   1.617  0.9909 -2.4741  0.9465
23580SOL     OW74270   8.218   5.707   9.797  0.8367 -0.5015  0.1975
23580SOL    HW174271   8.242   5.646   9.867  0.3391 -0.8839  0.0443
23580SOL    HW274272   8.130   5.736   9.820  0.9676 -0.0493  0.1265
23581SOL     OW74273   0.814   2.254   3.106  0.3582  0.3925 -0.1812
23581SOL    HW174274   0.904   2.287   3.113  0.2228  0.7875 -0.2722
23581SOL    HW274275   0.767   2.323   3.059  0.1894 -0.1627 -0.8396
23582SOL     OW74276   1.821   7.094   5.465 -0.4179 -0.1757  0.0352
23582SOL    HW174277   1.804   7.187   5.485 -1.0322 -0.1804 -0.4194
23582SOL    HW274278   1.858   7.095   5.377 -1.2991 -0.4208 -0.3505
23583SOL     OW74279   0.398   5.028   0.167  0.5289  0.2126 -0.5323
23583SOL    HW174280   0.464   4.960   0.181  0.3031  0.3152  1.3255
23583SOL    HW274281   0.322   4.981   0.133  0.9931 -0.1584 -1.0815
23584SOL     OW74282   0.915   1.873   9.516  0.1867  0.0782 -0.1354
23584SOL    HW174283   1.002   1.858   9.553  0.2674 -0.5415 -0.5600
23584SOL    HW274284   0.856   1.820   9.571  0.1984 -0.1943 -0.3822
23585SOL     OW74285   5.788   4.296   4.405 -0.7007  0.2892  0.6222
23585SOL    HW174286   5.740   4.375   4.429  1.7040  2.8626 -2.1598
23585SOL    HW274287   5.790   4.296   4.309  0.0279 -2.8336  0.5026
23586SOL     OW74288  10.449   6.713   5.922  0.1805 -0.0449  0.1820
23586SOL    HW174289  10.530   6.760   5.940 -0.4364  1.0309  0.2989
23586SOL    HW274290  10.420   6.681   6.008 -1.0128  2.1543  0.6958
23587SOL     OW74291   8.419   9.313   3.451  0.6323 -0.1107 -0.8352
23587SOL    HW174292   8.429   9.256   3.374  1.5938  0.6031 -1.2588
23587SOL    HW274293   8.507   9.319   3.488  0.4103  0.5598 -0.4066
23588SOL     OW74294   9.859   4.530   0.677 -0.7952  0.2497 -0.5766
23588SOL    HW174295   9.805   4.606   0.656 -1.0451  0.1357 -0.3446
23588SOL    HW274296   9.892   4.548   0.765 -1.1054 -0.0503 -0.3950
23589SOL     OW74297   3.196  10.263  10.180  0.0498  0.9078 -0.2562
23589SOL    HW174298   3.227  10.232  10.095  0.7750  1.1852 -0.1051
23589SOL    HW274299   3.267  10.242  10.240 -1.0936 -0.7225  0.6057
23590SOL     OW74300   3.122   8.311  10.443 -0.6856 -0.9610 -0.0763
23590SOL    HW174301   3.038   8.302  10.398 -2.7047  2.0419  2.6681
23590SOL    HW274302   3.104   8.370  10.515  4.0482  0.5001  0.2067
23591SOL     OW74303  10.757   6.136   6.847 -0.2701  0.7687  0.7618
23591SOL    HW174304  10.723   6.216   6.887 -1.3576  0.5108  0.3826
23591SOL    HW274305  10.724   6.138   6.758  0.6909  0.4732  0.3889
23592SOL     OW74306   2.186   9.877   6.646  0.0067  0.1252  0.5127
23592SOL    HW174307   2.113   9.826   6.682 -0.2664 -0.0175 -0.2187
23592SOL    HW274308   2.251   9.878   6.716  0.2592 -1.7214  0.3700
23593SOL     OW74309   8.170   0.138   1.173  0.4435 -0.6114  0.5172
23593SOL    HW174310   8.230   0.105   1.241  0.8974 -0.3228  0.2679
23593SOL    HW274311   8.223   0.137   1.093  0.4303  0.5832  0.4830
23594SOL     OW74312   5.608   2.496   8.151  0.4696  0.3424  0.1600
23594SOL    HW174313   5.663   2.572   8.130 -0.2418  0.7560 -0.2293
23594SOL    HW274314   5.663   2.443   8.209  1.4855  0.4881 -0.6289
23595SOL     OW74315   7.413   9.977   8.241 -0.5169  0.0807 -0.2607
23595SOL    HW174316   7.414   9.968   8.146 -0.4664 -0.0282 -0.2502
23595SOL    HW274317   7.449  10.064   8.258 -4.4281  1.9783 -0.5279
23596SOL     OW74318   4.814   3.920   6.520  0.1392  0.2063 -0.1850
23596SOL    HW174319   4.858   3.916   6.435  1.1715  0.0341  0.3396
23596SOL    HW274320   4.866   3.982   6.571 -1.1054  1.1481 -0.0252
23597SOL     OW74321   0.570   4.209  10.767 -0.1696 -0.5745  0.0682
23597SOL    HW174322   0.664   4.226  10.761 -0.3721  0.8921  0.5325
23597SOL    HW274323   0.553   4.141  10.702  0.6734  1.5234 -2.5701
23598SOL     OW74324   1.934  11.011   5.415 -0.0204  0.0862  0.3218
23598SOL    HW174325   1.924  10.933   5.470 -0.3179 -0.7776 -0.9251
23598SOL    HW274326   1.895  10.987   5.332  0.4124  1.3781 -0.2779
23599SOL     OW74327  10.200   7.260   0.868 -0.1542 -0.3085  0.0616
23599SOL    HW174328  10.271   7.242   0.930 -0.9730 -1.2270  0.7631
23599SOL    HW274329  10.137   7.312   0.918  0.6754  1.7933 -0.9956
23600SOL     OW74330  10.059   7.651   3.934  0.0058  0.6113  0.3459
23600SOL    HW174331  10.055   7.559   3.905 -0.0026  0.7931 -0.2391
23600SOL    HW274332  10.153   7.668   3.946  0.1970  1.1260 -1.5504
23601SOL     OW74333   1.242   0.896   2.134 -0.3244 -0.2039 -0.0715
23601SOL    HW174334   1.309   0.857   2.079 -0.7658 -0.4519 -0.4404
23601SOL    HW274335   1.162   0.891   2.082 -0.8506 -0.8754  0.7688
23602SOL     OW74336  10.472   0.411   0.471  0.0657  0.1015 -0.1741
23602SOL    HW174337  10.462   0.492   0.521 -0.4285 -0.0836  0.0348
23602SOL    HW274338  10.524   0.436   0.395  2.0296  0.1144  1.1056
23603SOL     OW74339   0.887   8.420   1.387  0.1432  0.3691 -0.1985
23603SOL    HW174340   0.976   8.441   1.360  0.7528 -0.1706  1.2697
23603SOL    HW274341   0.869   8.481   1.459 -1.0829  1.1673 -1.1358
23604SOL     OW74342   0.871   0.301   6.287 -0.0637  0.8428 -0.9329
23604SOL    HW174343   0.794   0.342   6.248  0.3159  0.3987 -2.2054
23604SOL    HW274344   0.841   0.216   6.317 -0.3625  1.1904 -0.2399
23605SOL     OW74345   4.069   7.284   4.899 -0.2377 -0.3739  0.0914
23605SOL    HW174346   4.038   7.366   4.859  0.2005 -0.3165 -0.1315
23605SOL    HW274347   4.119   7.241   4.831 -0.6935 -0.9676  0.1213
23606SOL     OW74348   6.752   3.291   0.903 -0.2548  0.2488  0.1104
23606SOL    HW174349   6.662   3.324   0.912  1.5242  6.2257  0.3330
23606SOL    HW274350   6.760   3.270   0.810 -1.7113  0.1791 -0.0337
23607SOL     OW74351   1.772   9.548   2.353 -0.3353  0.2734 -0.3141
23607SOL    HW174352   1.853   9.547   2.403  0.6837  1.0661 -1.8776
23607SOL    HW274353   1.774   9.468   2.301 -0.8120  0.0383  0.0201
23608SOL     OW74354   1.787   9.726   6.428 -0.4822  0.3355 -0.0111
23608SOL    HW174355   1.732   9.801   6.450 -1.1612  0.5764 -2.2286
23608SOL    HW274356   1.809   9.739   6.335 -0.5964 -2.1697 -0.4677
23609SOL     OW74357   6.365   9.833   0.633 -0.0580  0.2436  1.0325
23609SOL    HW174358   6.390   9.910   0.684  0.4955 -0.2272  1.4874
23609SOL    HW274359   6.361   9.865   0.542  0.9096  0.6349  1.1170
23610SOL     OW74360   1.868   4.918   7.395  0.5370 -0.9243 -0.0446
23610SOL    HW174361   1.954   4.884   7.423  0.5537 -1.3836 -0.6279
23610SOL    HW274362   1.889   4.979   7.325  0.5349  0.6374  1.2711
23611SOL     OW74363   4.447   5.192  10.015 -0.3224 -0.3902 -0.0252
23611SOL    HW174364   4.445   5.162   9.924  0.7169  0.9159 -0.5032
23611SOL    HW274365   4.522   5.251  10.020 -1.8866  1.6875  0.9759
23612SOL     OW74366   0.357   9.218   3.746  0.6358  0.2427  0.1639
23612SOL    HW174367   0.355   9.169   3.828  2.0549 -1.7770 -0.9110
23612SOL    HW274368   0.448   9.244   3.735  0.4104  0.7521 -0.6364
23613SOL     OW74369  10.898   5.110   0.974 -0.2944  0.0113  0.3820
23613SOL    HW174370  10.879   5.168   1.048 -0.5912  1.7282 -0.9662
23613SOL    HW274371  10.851   5.149   0.901  2.2852  0.0748 -1.3753
23614SOL     OW74372   8.684   3.365   5.002 -0.0226  0.6839 -0.4245
23614SOL    HW174373   8.657   3.384   4.912  0.2290 -0.8196 -0.8428
23614SOL    HW274374   8.612   3.313   5.038  0.3045  0.4867 -0.0557
23615SOL     OW74375   6.768   6.721   2.084  0.2722  0.0515  0.3923
23615SOL    HW174376   6.762   6.648   2.144  0.4764  0.1198  0.4962
23615SOL    HW274377   6.856   6.715   2.046  0.2949  0.2485  0.4099
23616SOL     OW74378   1.846  10.161   0.616  0.0569  0.3930  0.7015
23616SOL    HW174379   1.853  10.111   0.697 -0.3648 -1.7583 -0.5148
23616SOL    HW274380   1.936  10.176   0.588  0.1954  0.8729  1.4024
23617SOL     OW74381   4.502  10.415   2.272 -0.0081 -0.1718 -0.5005
23617SOL    HW174382   4.584  10.452   2.306  0.0690  0.3149 -1.1990
23617SOL    HW274383   4.518  10.321   2.268  0.9095  0.0096 -1.6327
23618SOL     OW74384   8.161   7.311   8.295 -0.5111 -0.6056  0.2665
23618SOL    HW174385   8.162   7.257   8.216  1.6712 -0.0203 -0.1757
23618SOL    HW274386   8.194   7.396   8.266 -1.3308  0.1698  1.4955
23619SOL     OW74387   7.364   4.398   9.549  0.3666 -0.0769  0.0577
23619SOL    HW174388   7.285   4.438   9.584  0.4322  0.4417 -0.3780
23619SOL    HW274389   7.371   4.314   9.595 -1.2359 -0.7993 -0.9425
23620SOL     OW74390   6.759   7.691   9.323  0.2843 -0.4708  0.2050
23620SOL    HW174391   6.739   7.679   9.230 -0.8969  0.2026  0.3623
23620SOL    HW274392   6.716   7.617   9.366 -1.1906  0.4866  0.4444
23621SOL     OW74393   5.388   3.759   0.167  0.0918 -0.1987 -0.0649
23621SOL    HW174394   5.400   3.823   0.097  2.2117  0.4359  0.7954
23621SOL    HW274395   5.314   3.706   0.138 -1.4615  2.3212 -1.0309
23622SOL     OW74396   5.913   5.603   5.013  0.3795 -0.1326  0.5413
23622SOL    HW174397   5.979   5.668   4.988  1.3599 -2.0675 -2.2977
23622SOL    HW274398   5.963   5.532   5.052  0.4188 -2.3598 -3.1180
23623SOL     OW74399   2.540   3.097   2.013 -0.2574 -0.6765 -0.2858
23623SOL    HW174400   2.445   3.095   2.001 -0.5286  1.0401  1.1418
23623SOL    HW274401   2.556   3.180   2.057  2.0104 -0.5891 -1.1759
23624SOL     OW74402   2.572   2.381   9.055  0.4676  0.2944  0.1187
23624SOL    HW174403   2.529   2.328   9.122 -0.4194  0.1274 -0.5553
23624SOL    HW274404   2.560   2.332   8.974  0.7174  0.9334 -0.3130
23625SOL     OW74405   3.188  10.357   6.806  0.3044 -0.9086 -0.4718
23625SOL    HW174406   3.130  10.376   6.733  1.3655 -1.5549 -1.5276
23625SOL    HW274407   3.130  10.330   6.877 -0.9159  1.8103 -0.3132
23626SOL     OW74408   9.735   0.511   4.433 -0.4403  0.3896  0.1086
23626SOL    HW174409   9.739   0.476   4.522 -0.9763  1.2731  0.4883
23626SOL    HW274410   9.719   0.604   4.444  2.2879  1.0495 -0.8524
23627SOL     OW74411  10.604   7.095   1.010 -0.0918 -0.0771  0.1048
23627SOL    HW174412  10.616   7.043   0.931  1.0111  1.2669 -0.6553
23627SOL    HW274413  10.687   7.086   1.058  0.4151  1.5126 -0.4013
23628SOL     OW74414   7.986   5.371   1.067 -0.0823  0.0422 -0.7094
23628SOL    HW174415   8.045   5.359   0.992  0.5372  0.4006 -0.2855
23628SOL    HW274416   8.018   5.450   1.110 -0.3143 -0.2773  0.0568
23629SOL     OW74417   2.650   9.795   0.829  0.0172  0.7424  0.7218
23629SOL    HW174418   2.585   9.725   0.838  0.1020  0.6568  0.6748
23629SOL    HW274419   2.599   9.875   0.822 -0.2530  0.4158 -2.6177
23630SOL     OW74420   9.170   3.031   7.620  0.7904 -0.8033  0.0510
23630SOL    HW174421   9.173   3.125   7.607 -0.0758 -0.7875 -0.1053
23630SOL    HW274422   9.254   3.009   7.661  1.3303 -0.0919 -0.6492
23631SOL     OW74423   4.015   2.280   2.001 -0.0978 -0.2565  0.2637
23631SOL    HW174424   3.960   2.310   1.929  0.2514  0.2846  0.2138
23631SOL    HW274425   3.957   2.225   2.054  0.0274 -1.9382 -1.2269
23632SOL     OW74426   4.476   4.566   9.249 -0.3533  0.3805  0.0460
23632SOL    HW174427   4.526   4.484   9.249 -0.9833 -0.0151 -0.8015
23632SOL    HW274428   4.499   4.608   9.332  0.2516 -0.4832  0.3303
23633SOL     OW74429   6.029   2.894   0.769  0.0008 -0.3011  0.0112
23633SOL    HW174430   6.042   2.906   0.863  1.9972 -0.3443 -0.2172
23633SOL    HW274431   6.115   2.910   0.730 -1.0258  0.9154 -1.9582
23634SOL     OW74432   0.480   0.005   0.683  0.1495  0.8816 -0.2072
23634SOL    HW174433   0.477   0.057   0.763 -0.1528 -0.9736  1.0564
23634SOL    HW274434   0.407  -0.056   0.691  0.6069  0.1007 -1.5261
23635SOL     OW74435   8.659  10.756   4.110  0.1049 -0.0609 -0.2101
23635SOL    HW174436   8.601  10.686   4.080 -0.2147 -0.3183  0.9484
23635SOL    HW274437   8.662  10.745   4.205  2.6354 -0.5366 -0.2549
23636SOL     OW74438   1.716  10.532   1.117  0.5836 -0.5601  0.9571
23636SOL    HW174439   1.666  10.614   1.116 -0.0399 -0.9398  0.2677
23636SOL    HW274440   1.733  10.513   1.025  0.3243 -1.4454  1.0848
23637SOL     OW74441   7.691   4.769   7.259 -0.0535 -0.5559  0.3528
23637SOL    HW174442   7.634   4.721   7.319  0.9808 -0.5237  1.4149
23637SOL    HW274443   7.660   4.859   7.264  1.9867  0.1466  3.4932
23638SOL     OW74444   1.722   0.251   4.939 -0.0017 -0.0066  0.5151
23638SOL    HW174445   1.664   0.235   4.864  1.6009 -0.8499 -0.6004
23638SOL    HW274446   1.710   0.174   4.995  0.4429 -0.4591  0.0015
23639SOL     OW74447   8.514   5.995   3.471  0.1844 -0.4037 -0.1005
23639SOL    HW174448   8.573   6.052   3.420  1.5990 -0.6384  1.1991
23639SOL    HW274449   8.462   6.056   3.524  1.5481 -0.2609  1.1322
23640SOL     OW74450   7.488   5.317   3.547  0.6068 -0.0525 -0.4270
23640SOL    HW174451   7.514   5.389   3.605 -1.0932 -0.2048  0.6122
23640SOL    HW274452   7.393   5.314   3.555  0.4685 -1.0888 -2.0757
23641SOL     OW74453   0.891   9.270   9.575 -0.1833 -0.3293 -0.3324
23641SOL    HW174454   0.874   9.331   9.503  0.3869  0.4167  0.1489
23641SOL    HW274455   0.975   9.230   9.554  0.5239  0.7007  0.4394
23642SOL     OW74456   2.696   8.173  10.225  0.0276 -0.4056 -0.2785
23642SOL    HW174457   2.644   8.116  10.168 -0.6666  0.0473 -0.0997
23642SOL    HW274458   2.655   8.165  10.311  0.4579 -0.2991 -0.0584
23643SOL     OW74459  10.077   3.381   8.796  0.1794  0.0775  0.2940
23643SOL    HW174460  10.143   3.429   8.745 -0.1354 -0.0964 -0.2914
23643SOL    HW274461   9.994   3.421   8.769 -0.0014 -0.1063  0.5791
23644SOL     OW74462  11.002   4.343   0.717  0.1301  0.7301  0.1246
23644SOL    HW174463  10.946   4.309   0.648 -0.3873  0.4860  0.6567
23644SOL    HW274464  10.963   4.310   0.798 -0.8168  3.1107  0.7350
23645SOL     OW74465   2.508   7.443   4.105 -0.0809 -0.2239  0.4806
23645SOL    HW174466   2.508   7.458   4.200 -1.7790  1.3136  0.2954
23645SOL    HW274467   2.465   7.358   4.095  0.1472 -0.4220  1.0650
23646SOL     OW74468   5.352   9.961   3.975  0.3079  0.0623 -0.2946
23646SOL    HW174469   5.280   9.997   3.922 -0.0729 -0.8260 -0.3953
23646SOL    HW274470   5.364  10.025   4.045 -1.5569 -0.4570  0.5550
23647SOL     OW74471  10.594   5.001   6.597 -0.0528  0.2350 -0.2343
23647SOL    HW174472  10.580   5.092   6.623 -1.4401 -0.5615  2.1999
23647SOL    HW274473  10.541   4.990   6.518  0.0615  1.5090 -0.5004
23648SOL     OW74474   1.047   2.703   2.791 -0.0448  0.6254 -0.3673
23648SOL    HW174475   1.081   2.735   2.874 -0.4828 -0.3635  0.2156
23648SOL    HW274476   0.993   2.775   2.757 -1.2915  0.4096  1.0680
23649SOL     OW74477   1.381   5.916   7.303  0.1943  0.1459  0.9424
23649SOL    HW174478   1.400   5.991   7.360 -1.4148 -1.0381  3.1956
23649SOL    HW274479   1.454   5.856   7.318 -0.0286  0.0019  1.4650
23650SOL     OW74480   8.156   5.939   7.385  0.4763 -0.6075  0.7893
23650SOL    HW174481   8.143   6.034   7.387 -0.5401 -0.7351  0.9264
23650SOL    HW274482   8.102   5.909   7.311 -0.2107 -1.2021  1.5147
23651SOL     OW74483   7.269  10.012   6.084 -0.5256  0.1600 -0.0747
23651SOL    HW174484   7.276   9.947   6.014  0.2001  1.0617 -0.8822
23651SOL    HW274485   7.227  10.087   6.042  0.1020  0.7879  0.4077
23652SOL     OW74486  10.244  10.708   7.004  0.1392 -0.5204  0.5356
23652SOL    HW174487  10.259  10.802   7.006  0.0255 -0.4774  2.9685
23652SOL    HW274488  10.248  10.684   6.911  1.7092  1.6166 -0.0245
23653SOL     OW74489   2.178   5.079   9.260 -0.2850  0.5326  0.0605
23653SOL    HW174490   2.183   5.026   9.340  0.4395 -1.2379 -1.0808
23653SOL    HW274491   2.267   5.113   9.248 -0.1657  0.0629 -0.4337
23654SOL     OW74492   0.156  10.748   7.549  0.0031 -0.6393 -0.2891
23654SOL    HW174493   0.160  10.827   7.494 -0.3346 -0.3891  0.0332
23654SOL    HW274494   0.247  10.729   7.571  0.1257 -0.6462 -0.8042
23655SOL     OW74495   4.818   0.832   6.276  0.1574 -0.0044  0.3920
23655SOL    HW174496   4.835   0.878   6.194 -0.4195 -0.6381 -0.0873
23655SOL    HW274497   4.901   0.837   6.324  0.5171  0.3057 -0.2534
23656SOL     OW74498   4.030   0.820   0.594 -0.5612  0.0404  0.3034
23656SOL    HW174499   4.035   0.875   0.672  1.4249 -1.0967  1.0445
23656SOL    HW274500   4.009   0.880   0.523 -1.0398  1.3222  1.4860
23657SOL     OW74501   1.284  11.007   7.716  0.2829 -0.0208 -0.4191
23657SOL    HW174502   1.247  11.038   7.634  0.7752 -0.7461 -0.9311
23657SOL    HW274503   1.323  11.084   7.756 -0.8469  0.5414 -0.3695
23658SOL     OW74504   7.508   5.732  10.005 -0.1096  0.3645 -0.3771
23658SOL    HW174505   7.455   5.657  10.032 -0.8273  0.6212 -1.0393
23658SOL    HW274506   7.444   5.801   9.986  0.5508  1.3104  0.6764
23659SOL     OW74507   1.996   0.784   5.642  0.5195  0.3952  0.5296
23659SOL    HW174508   2.060   0.758   5.576  0.2808  0.7207  0.1692
23659SOL    HW274509   2.020   0.874   5.665  0.5343  0.3223  0.8033
23660SOL     OW74510  10.529   4.229   6.206 -0.3341 -0.5123 -0.9183
23660SOL    HW174511  10.510   4.136   6.221 -2.6728 -0.2766 -1.9506
23660SOL    HW274512  10.484   4.274   6.277 -0.2863 -0.0997 -1.1504
23661SOL     OW74513   6.560   8.083   5.802 -0.1118  0.4420 -0.2403
23661SOL    HW174514   6.573   8.040   5.887 -0.4232 -0.3330 -0.5710
23661SOL    HW274515   6.548   8.176   5.823 -0.7701  0.1787  0.6188
23662SOL     OW74516   7.782   9.176   0.472 -0.1284 -0.1876  0.1268
23662SOL    HW174517   7.744   9.148   0.388 -2.4095 -1.3967  1.4825
23662SOL    HW274518   7.754   9.268   0.480  0.4896  0.0786 -0.6187
23663SOL     OW74519   8.384   0.636   1.756  0.7269 -0.1940  0.1392
23663SOL    HW174520   8.346   0.634   1.668 -0.4272  0.2758  0.6137
23663SOL    HW274521   8.456   0.699   1.749  2.2109 -1.9465 -1.0570
23664SOL     OW74522   3.156   4.149   7.343  0.1014 -0.2005 -0.3404
23664SOL    HW174523   3.079   4.161   7.398 -0.8944  0.4455 -1.8375
23664SOL    HW274524   3.221   4.210   7.379  0.2732 -1.3530  1.4652
23665SOL     OW74525  10.550   6.678   7.716 -0.0347  0.9801  0.2540
23665SOL    HW174526  10.529   6.708   7.805  2.4036  0.9230  0.9122
23665SOL    HW274527  10.572   6.585   7.727 -1.0193  0.6208 -0.6625
23666SOL     OW74528   9.649  11.007   8.439 -0.5504 -0.8653  0.0909
23666SOL    HW174529   9.667  11.050   8.356 -0.0744  0.0677  0.6563
23666SOL    HW274530   9.666  10.914   8.423  1.2298 -0.4862 -0.4033
23667SOL     OW74531   8.875   2.650  10.684 -0.6295 -0.3619 -0.0759
23667SOL    HW174532   8.814   2.714  10.648  1.4347  0.0177 -3.3165
23667SOL    HW274533   8.821   2.573  10.702 -2.4600  0.8288 -0.2372
23668SOL     OW74534   8.790   1.587   8.100  0.0476 -0.2380 -0.0129
23668SOL    HW174535   8.737   1.613   8.025  0.3228  0.6800  0.0993
23668SOL    HW274536   8.850   1.660   8.114 -1.2108  0.4512  2.2298
23669SOL     OW74537   4.265   3.735   5.915  0.5577  0.0932 -0.1753
23669SOL    HW174538   4.323   3.661   5.930  0.8401 -0.0813 -1.8378
23669SOL    HW274539   4.178   3.696   5.903  0.5653  0.1059 -0.2697
23670SOL     OW74540   4.378   9.369   9.919  0.5432 -0.1858  0.0995
23670SOL    HW174541   4.405   9.305   9.854  0.8400  1.0841 -1.0546
23670SOL    HW274542   4.447   9.435   9.919  0.1566  0.2502  1.1372
23671SOL     OW74543   3.236   1.851   9.318 -0.3370 -0.1042 -0.1726
23671SOL    HW174544   3.188   1.773   9.345  0.9737 -0.8052  0.1992
23671SOL    HW274545   3.213   1.863   9.226 -1.4156 -0.2661  0.0635
23672SOL     OW74546   7.449   9.318   9.154 -0.6292  0.4969 -0.3812
23672SOL    HW174547   7.396   9.299   9.232  0.5253  0.4011  0.3933
23672SOL    HW274548   7.456   9.233   9.110  2.5807 -0.6000  1.8699
23673SOL     OW74549   8.526   3.604   1.156 -0.0464  0.1734 -0.0868
23673SOL    HW174550   8.496   3.519   1.124 -3.2658  1.1354 -0.0434
23673SOL    HW274551   8.532   3.659   1.078 -0.1187  0.4600  0.1047
23674SOL     OW74552   6.841   7.369   9.044  0.6005 -0.5889  0.4875
23674SOL    HW174553   6.776   7.426   9.085  0.2363  0.5576 -1.5130
23674SOL    HW274554   6.801   7.344   8.960  2.3217 -0.6454 -0.3615
23675SOL     OW74555   6.188  10.486   9.507 -0.1517  0.0540 -0.0463
23675SOL    HW174556   6.257  10.551   9.518  0.0109 -0.2647  0.9145
23675SOL    HW274557   6.121  10.530   9.456  0.5491  0.5280 -0.5676
23676SOL     OW74558   2.437  10.169   1.806  0.2326 -0.0366  0.4868
23676SOL    HW174559   2.404  10.130   1.725  0.6113 -0.0159  0.3187
23676SOL    HW274560   2.398  10.116   1.875  0.3101 -0.3767  0.2748
23677SOL     OW74561   6.335   4.563   3.354  0.4570  1.3030 -0.1028
23677SOL    HW174562   6.256   4.612   3.332  1.1474  2.3161 -0.4168
23677SOL    HW274563   6.365   4.602   3.436  0.6789  0.9723 -0.0223
23678SOL     OW74564   2.936   4.643   8.526 -0.2099 -0.1646  0.2039
23678SOL    HW174565   2.904   4.711   8.467 -1.1389 -2.2055 -1.7913
23678SOL    HW274566   3.027   4.668   8.544 -0.6236  1.7645 -0.1105
23679SOL     OW74567   6.862   1.432   2.296 -0.9191  0.6699 -0.0587
23679SOL    HW174568   6.867   1.404   2.387 -1.4537 -1.1183 -0.5298
23679SOL    HW274569   6.919   1.508   2.291  0.2400 -0.0335  1.4605
23680SOL     OW74570   4.823   6.866   0.490  0.2323 -0.6578  0.2903
23680SOL    HW174571   4.770   6.801   0.443  0.5478 -0.5360 -0.2518
23680SOL    HW274572   4.768   6.944   0.493  0.3797 -0.5231 -0.2932
23681SOL     OW74573   6.596   5.823   5.407  0.0114  0.1476  0.2951
23681SOL    HW174574   6.618   5.765   5.480  1.5988 -0.9990 -1.0011
23681SOL    HW274575   6.509   5.856   5.427  0.1233 -0.6669  2.3493
23682SOL     OW74576   5.488   6.463   3.700  0.1334 -0.4612 -0.4838
23682SOL    HW174577   5.493   6.393   3.764  0.2992  0.0385  0.0581
23682SOL    HW274578   5.438   6.532   3.744  1.3205  0.3824 -0.4113
23683SOL     OW74579   7.596   8.275   9.690 -0.2860 -0.3185  0.1135
23683SOL    HW174580   7.521   8.332   9.705 -0.1712 -0.1019 -0.1185
23683SOL    HW274581   7.593   8.255   9.597 -0.5015 -0.9479  0.2518
23684SOL     OW74582   0.083   1.384   2.789  0.1323  0.5768  0.2318
23684SOL    HW174583   0.037   1.306   2.757  0.5063  0.8437 -1.0114
23684SOL    HW274584   0.017   1.453   2.787 -0.4961  0.0925  2.3601
23685SOL     OW74585   0.574   5.789   3.895 -0.7143  0.4266  0.0084
23685SOL    HW174586   0.547   5.825   3.980 -2.6425  1.8078 -1.1192
23685SOL    HW274587   0.632   5.855   3.858 -0.7033  0.3057 -0.1947
23686SOL     OW74588   9.073   3.033   2.422  0.5040 -0.1831 -0.2997
23686SOL    HW174589   9.150   3.053   2.475  1.1850 -1.2991 -0.8524
23686SOL    HW274590   9.090   3.074   2.337 -1.5568  3.5765  0.8521
23687SOL     OW74591   7.814   1.145  10.464 -0.1019  0.1308  0.3817
23687SOL    HW174592   7.900   1.181  10.486 -0.4115  0.9842  0.2344
23687SOL    HW274593   7.751   1.210  10.497 -0.7479 -1.1348  1.7361
23688SOL     OW74594   0.068  10.192   0.933 -0.0395 -0.1720 -0.4342
23688SOL    HW174595   0.066  10.257   0.863 -0.3214  1.6730  1.2139
23688SOL    HW274596   0.157  10.196   0.967 -0.5204  0.6067  0.7751
23689SOL     OW74597   8.749  10.984  10.179  0.5334 -0.4852  0.4166
23689SOL    HW174598   8.665  10.960  10.219 -0.5468 -0.3739 -1.6461
23689SOL    HW274599   8.801  10.903  10.182  0.9092 -0.2210  2.8860
23690SOL     OW74600   4.856   1.158   0.847 -0.3179  0.5879  0.3844
23690SOL    HW174601   4.806   1.086   0.808  1.8337 -1.1663  0.6679
23690SOL    HW274602   4.828   1.160   0.939 -0.4479  0.1924  0.3536
23691SOL     OW74603   6.832   2.398   1.698 -0.0133  0.6697 -0.2423
23691SOL    HW174604   6.850   2.378   1.790 -0.2634  0.1183 -0.3065
23691SOL    HW274605   6.854   2.317   1.651  0.5057  1.0849 -0.7211
23692SOL     OW74606   9.983   0.381   2.424  0.1980 -0.3934  0.1492
23692SOL    HW174607  10.054   0.391   2.361  1.4786 -0.2465  1.5373
23692SOL    HW274608   9.914   0.439   2.392  0.9313 -0.0834 -0.9270
23693SOL     OW74609   1.154   7.336   6.462  0.2984 -0.8359 -0.4734
23693SOL    HW174610   1.224   7.401   6.459  0.5320 -1.0410  0.3665
23693SOL    HW274611   1.087   7.376   6.517  0.4462 -1.3108  0.0500
23694SOL     OW74612   8.869   4.269   8.042 -0.1855 -0.0696 -0.2800
23694SOL    HW174613   8.791   4.214   8.042 -0.3607  0.1711 -0.7964
23694SOL    HW274614   8.937   4.215   8.083 -1.1153  0.4399  2.0760
23695SOL     OW74615   6.448   7.892   8.842  0.4932  0.2331  0.2219
23695SOL    HW174616   6.364   7.895   8.890  0.4382  1.0015  0.0870
23695SOL    HW274617   6.443   7.811   8.791 -0.5487  0.6977 -0.4609
23696SOL     OW74618   0.600   3.536   2.977  0.1126  0.3094 -0.0950
23696SOL    HW174619   0.541   3.611   2.966  0.6535  1.1669  2.2567
23696SOL    HW274620   0.550   3.474   3.031  0.3385 -0.2360 -0.5003
23697SOL     OW74621  10.700   8.646   9.882 -0.5054 -0.0773 -0.6050
23697SOL    HW174622  10.749   8.571   9.918 -1.7646 -0.3913  0.5211
23697SOL    HW274623  10.707   8.714   9.949 -0.6301  0.2879 -0.9582
23698SOL     OW74624   7.236   6.603   2.709 -0.1013 -0.1391  0.5595
23698SOL    HW174625   7.318   6.557   2.689  0.4345  0.7270  0.7478
23698SOL    HW274626   7.255   6.695   2.692 -0.6154  0.2365  1.9209
23699SOL     OW74627   5.490   4.883   8.185  0.2099  0.0458 -0.2578
23699SOL    HW174628   5.556   4.948   8.210  0.4627  1.0221 -3.0646
23699SOL    HW274629   5.527   4.799   8.213  1.6736  0.7777  0.1023
23700SOL     OW74630   0.128   7.161   1.423 -0.6113  0.2185 -0.3593
23700SOL    HW174631   0.199   7.166   1.488 -1.3073 -0.3142  0.4668
23700SOL    HW274632   0.082   7.244   1.432 -2.2512 -0.8140  1.6963
23701SOL     OW74633   7.025   7.942   0.725 -0.2318  0.8867  0.7290
23701SOL    HW174634   7.018   8.003   0.651  1.7183  1.4523  0.9655
23701SOL    HW274635   6.935   7.913   0.740 -0.6689  0.6245 -1.9625
23702SOL     OW74636   5.082   0.897   5.422  0.5419  0.1608 -0.1526
23702SOL    HW174637   5.146   0.929   5.358  1.9521 -3.4521 -0.7772
23702SOL    HW274638   5.083   0.802   5.412 -2.5817 -0.2801  2.1422
23703SOL     OW74639   5.872  10.591   8.181  0.1592 -0.2162 -0.1552
23703SOL    HW174640   5.963  10.621   8.180  0.8828 -2.2808 -0.6120
23703SOL    HW274641   5.863  10.545   8.264 -0.1422 -0.8730 -0.5431
23704SOL     OW74642   7.965   4.782   1.560  0.7388  0.1459  0.1285
23704SOL    HW174643   7.892   4.837   1.532  0.8302 -1.3287 -3.6525
23704SOL    HW274644   7.925   4.709   1.607 -0.0597  0.3362 -0.2476
23705SOL     OW74645   1.467   1.653   3.629  0.1208 -0.2437  0.5242
23705SOL    HW174646   1.387   1.683   3.673 -0.7362 -0.2825 -0.9344
23705SOL    HW274647   1.465   1.697   3.544  0.9877 -1.2418 -0.0321
23706SOL     OW74648  11.012   0.283   3.637 -0.1638 -0.1180  0.0663
23706SOL    HW174649  10.922   0.293   3.669 -0.1680  1.3205 -0.3381
23706SOL    HW274650  11.041   0.200   3.675 -0.4512  1.0772  3.1732
23707SOL     OW74651   9.273   1.702   8.637  0.0556  0.2898  0.2451
23707SOL    HW174652   9.324   1.692   8.557 -0.0844 -2.2653  0.3856
23707SOL    HW274653   9.190   1.659   8.618  0.0832 -0.5356  1.7756
23708SOL     OW74654  11.123   6.542   3.670 -0.1641  0.3986  0.3081
23708SOL    HW174655  11.151   6.633   3.662  1.4648 -0.1519 -0.6601
23708SOL    HW274656  11.103   6.515   3.580  1.4733 -0.8102  0.2669
23709SOL     OW74657   9.640   2.964   1.354 -0.5385 -0.1701  0.0643
23709SOL    HW174658   9.698   2.898   1.393  1.2379  1.1691 -0.2327
23709SOL    HW274659   9.583   2.991   1.427  0.1034 -0.5238  0.7116
23710SOL     OW74660   7.030   2.463  10.091 -0.7332 -0.1310 -0.0614
23710SOL    HW174661   7.046   2.389  10.033 -1.6568 -0.2656 -0.1527
23710SOL    HW274662   6.963   2.433  10.152  0.7495 -0.2620  1.6140
23711SOL     OW74663   3.163   1.538   5.040  0.1572 -0.5799  0.1716
23711SOL    HW174664   3.191   1.592   5.114  1.1680 -0.6005 -0.1762
23711SOL    HW274665   3.166   1.448   5.073 -0.1211 -0.5329  0.3249
23712SOL     OW74666   6.580   1.187  11.027 -0.1926 -0.1020  0.4734
23712SOL    HW174667   6.633   1.243  10.969 -1.9993 -0.8119 -2.0009
23712SOL    HW274668   6.490   1.198  10.996 -1.3434 -0.3235  3.3960
23713SOL     OW74669   4.147   3.129   0.534 -0.6231 -0.0565  0.2264
23713SOL    HW174670   4.085   3.090   0.596  0.9255 -0.7657  1.4196
23713SOL    HW274671   4.172   3.212   0.575 -1.1396  0.4456 -0.4765
23714SOL     OW74672   5.982   9.195   5.138 -0.4588  0.0871 -0.4296
23714SOL    HW174673   6.008   9.160   5.223  1.0393  2.8214  0.4009
23714SOL    HW274674   6.028   9.141   5.074 -1.9787 -2.3100  0.3929
23715SOL     OW74675   8.865   3.896  10.792 -0.3151  0.3205  0.5944
23715SOL    HW174676   8.807   3.871  10.864 -0.5984  1.6057  0.8421
23715SOL    HW274677   8.952   3.865  10.819 -0.6320 -0.3453  0.8804
23716SOL     OW74678   7.710   7.280   3.658  0.0796  0.0088  0.0804
23716SOL    HW174679   7.632   7.330   3.632 -0.3637 -0.1428  1.0633
23716SOL    HW274680   7.677   7.215   3.720  0.6292 -1.6040 -1.2758
23717SOL     OW74681   3.030   2.285   9.434  0.3349  0.1656 -0.0140
23717SOL    HW174682   2.942   2.247   9.441  0.1896  0.8205  3.1353
23717SOL    HW274683   3.088   2.217   9.468  0.7748  0.5808  0.0695
23718SOL     OW74684   7.606   7.332   0.355  0.0582 -0.2198 -0.0263
23718SOL    HW174685   7.584   7.377   0.436  1.8448  1.3158 -0.3146
23718SOL    HW274686   7.549   7.373   0.289 -0.7025 -0.7781  0.2799
23719SOL     OW74687   0.183   1.549   3.342 -0.1652 -0.1801 -0.0970
23719SOL    HW174688   0.270   1.520   3.316  0.3167 -1.2183  2.4123
23719SOL    HW274689   0.148   1.593   3.264  1.9251 -1.1792 -1.6937
23720SOL     OW74690   6.188  10.445   6.337  0.2713 -0.1030  0.2617
23720SOL    HW174691   6.186  10.382   6.409  5.5647 -1.0086 -0.0146
23720SOL    HW274692   6.197  10.391   6.259 -0.0047  0.9715 -0.5337
23721SOL     OW74693   0.221   6.642   1.289  0.0927  0.4202  0.3827
23721SOL    HW174694   0.206   6.734   1.311  0.2716  1.2770 -2.6475
23721SOL    HW274695   0.286   6.612   1.353  2.4148  3.3527 -0.3958
23722SOL     OW74696   2.193   4.004   0.347  0.6009 -0.5084  0.2045
23722SOL    HW174697   2.237   3.944   0.407 -0.7692 -0.5881  1.1719
23722SOL    HW274698   2.137   3.949   0.294  2.0750 -0.4817 -1.4689
23723SOL     OW74699   8.019   6.794   0.461 -0.1307 -0.1085 -0.1636
23723SOL    HW174700   8.062   6.749   0.533 -1.0689 -0.9639 -0.1112
23723SOL    HW274701   8.066   6.876   0.452  0.8842 -0.6027  0.5052
23724SOL     OW74702   7.180   0.197   7.447 -0.5463  0.5113 -0.1957
23724SOL    HW174703   7.107   0.173   7.390 -0.1067  1.6686 -1.2839
23724SOL    HW274704   7.238   0.249   7.391  0.8638  0.0489  0.7853
23725SOL     OW74705   5.936   4.301   8.434 -0.6273  0.1287 -0.2856
23725SOL    HW174706   5.883   4.367   8.478 -1.2428 -0.5232 -0.0392
23725SOL    HW274707   5.875   4.231   8.411 -0.0688 -0.1558 -0.9607
23726SOL     OW74708   5.943   3.331   6.686  0.2837  0.4699 -0.2293
23726SOL    HW174709   5.914   3.416   6.654  0.4633  0.6020 -0.0416
23726SOL    HW274710   5.906   3.268   6.624  1.0519  0.7550 -0.9998
23727SOL     OW74711   1.434   1.164   4.921  0.2173  0.4216 -0.3098
23727SOL    HW174712   1.488   1.186   4.845 -0.4918  0.3011 -0.8670
23727SOL    HW274713   1.402   1.076   4.902 -0.9643  0.8711 -0.4685
23728SOL     OW74714   2.022   1.415   2.234 -0.0797  0.1856  0.5851
23728SOL    HW174715   2.006   1.499   2.192  1.3718 -1.1462 -3.0395
23728SOL    HW274716   1.943   1.363   2.215 -0.2576  0.1727  1.3262
23729SOL     OW74717   5.245   4.770   0.142 -0.3722  0.2749  0.3147
23729SOL    HW174718   5.195   4.688   0.142 -0.8007  0.4995  1.9056
23729SOL    HW274719   5.209   4.820   0.070 -2.9841  0.7054  1.7860
23730SOL     OW74720   7.955   3.578   9.441  0.1989  0.7089 -0.3091
23730SOL    HW174721   8.003   3.555   9.362  1.2907 -0.0162  0.5358
23730SOL    HW274722   7.930   3.495   9.480  0.5029  1.0306  0.5984
23731SOL     OW74723   9.050   7.456   6.661  0.1624  0.2295 -0.1316
23731SOL    HW174724   8.963   7.496   6.660 -0.3685 -0.7293  1.8737
23731SOL    HW274725   9.078   7.460   6.753  3.2339  2.4743 -0.9900
23732SOL     OW74726   2.305   4.083   9.135 -0.0081  0.1994  0.5340
23732SOL    HW174727   2.367   4.034   9.082 -0.8428 -1.8701  1.3512
23732SOL    HW274728   2.359   4.128   9.201  0.7141 -0.4390  0.3846
23733SOL     OW74729   6.380   1.150   3.134 -0.4812 -0.5132 -0.2654
23733SOL    HW174730   6.327   1.177   3.209  0.0051  0.0814 -0.1274
23733SOL    HW274731   6.461   1.118   3.174  0.4852  1.3886 -0.5750
23734SOL     OW74732   4.795   6.245   5.402  0.2009 -0.1970  0.0071
23734SOL    HW174733   4.778   6.317   5.463  0.4028  1.1311 -1.4490
23734SOL    HW274734   4.717   6.241   5.347  0.7254 -0.2129 -0.7510
23735SOL     OW74735   5.945   6.363   4.183 -0.3461 -0.4077 -0.0310
23735SOL    HW174736   6.024   6.322   4.148  0.1402  0.5935 -0.1181
23735SOL    HW274737   5.931   6.440   4.128 -0.1208  0.6502  1.3619
23736SOL     OW74738   0.906   8.277   5.963 -0.0214  0.0379 -0.4559
23736SOL    HW174739   0.966   8.208   5.992  0.0318  0.4486  0.4248
23736SOL    HW274740   0.822   8.254   6.003  0.0053  0.4973 -0.1291
23737SOL     OW74741   2.846   6.085   6.320 -0.0875  0.1528 -0.9693
23737SOL    HW174742   2.883   6.003   6.286  0.8736 -0.5022  1.4805
23737SOL    HW274743   2.911   6.152   6.296  1.3182 -0.5297  0.6718
23738SOL     OW74744   7.107   3.190   4.868 -0.2546  0.1506  0.1217
23738SOL    HW174745   7.075   3.101   4.852 -0.1514 -0.0320  0.8729
23738SOL    HW274746   7.030   3.246   4.857 -0.8017 -0.2541  1.6079
23739SOL     OW74747   7.621   5.871   5.328  0.0050  0.4542 -0.4648
23739SOL    HW174748   7.596   5.862   5.236 -1.3021  1.8146 -0.2727
23739SOL    HW274749   7.553   5.925   5.367  1.2782  1.0899  0.9979
23740SOL     OW74750   9.337   9.134   3.417 -0.2556  0.2295 -0.4195
23740SOL    HW174751   9.426   9.099   3.407  0.5533  1.1819  2.4817
23740SOL    HW274752   9.291   9.069   3.470 -0.8181  0.4756 -0.5961
23741SOL     OW74753   0.520   9.524   0.730  0.0133 -0.1661  0.8551
23741SOL    HW174754   0.593   9.550   0.673 -1.8738  1.4833 -0.9938
23741SOL    HW274755   0.482   9.448   0.685 -1.2693  0.9264  0.0176
23742SOL     OW74756   0.422   3.709   3.375  0.4538  0.5681 -0.3746
23742SOL    HW174757   0.503   3.748   3.343 -0.9878  2.9513 -1.4381
23742SOL    HW274758   0.368   3.699   3.297 -0.6825  0.0556  0.4482
23743SOL     OW74759   3.557   7.802  10.040 -0.9406  0.2212  0.4165
23743SOL    HW174760   3.468   7.784  10.010  0.1309  0.4096 -3.3900
23743SOL    HW274761   3.612   7.740   9.992  1.2621  2.5115 -0.2429
23744SOL     OW74762   2.234   2.897   4.732  0.2552 -0.5146 -0.4600
23744SOL    HW174763   2.293   2.846   4.677 -0.6068 -2.1975  0.0872
23744SOL    HW274764   2.146   2.872   4.701 -0.1912  0.2300  0.1853
23745SOL     OW74765   3.787   1.023   5.294 -0.4905 -0.0109  0.5265
23745SOL    HW174766   3.738   1.066   5.224 -0.8274 -0.9418  0.1857
23745SOL    HW274767   3.849   1.090   5.323 -0.8313  0.6260 -0.1672
23746SOL     OW74768   2.250  10.942   0.717  0.2184 -0.0346  0.5266
23746SOL    HW174769   2.250  10.944   0.813  0.2252 -1.0466  0.5620
23746SOL    HW274770   2.270  10.851   0.696 -1.5350 -0.2291 -0.4197
23747SOL     OW74771   2.309   8.773   9.579  0.1495 -0.1170 -0.5651
23747SOL    HW174772   2.330   8.721   9.501  0.4225 -0.3043 -0.3696
23747SOL    HW274773   2.391   8.779   9.627 -0.2610 -0.9745  0.2755
23748SOL     OW74774   0.922   6.267   8.754 -0.2357 -0.1395  0.2965
23748SOL    HW174775   0.919   6.172   8.738  1.2996 -0.0905 -0.3992
23748SOL    HW274776   0.876   6.278   8.837 -0.8425 -1.4403  0.1680
23749SOL     OW74777   3.809   3.405  10.713 -0.4754 -0.1922 -0.3708
23749SOL    HW174778   3.850   3.331  10.668  2.5537 -0.7048  2.7790
23749SOL    HW274779   3.875   3.474  10.712 -0.1563 -0.2467  3.0041
23750SOL     OW74780   5.523  10.621   7.126  0.1137  0.1370 -0.1614
23750SOL    HW174781   5.523  10.533   7.162  2.0684 -0.1273 -0.7018
23750SOL    HW274782   5.577  10.672   7.186 -0.5238  0.8496 -0.1688
23751SOL     OW74783   3.725   0.708   2.054 -0.2159  0.4672 -0.1047
23751SOL    HW174784   3.813   0.738   2.077 -0.7180  1.1933  0.9379
23751SOL    HW274785   3.682   0.692   2.138 -0.9079 -0.4348 -0.6080
23752SOL     OW74786   3.623   2.683   3.645 -0.3415  0.3589 -0.1242
23752SOL    HW174787   3.588   2.732   3.570 -2.1690  3.6847  2.6151
23752SOL    HW274788   3.633   2.748   3.714  2.3763 -2.2804  2.2844
23753SOL     OW74789   0.421   2.333   8.786 -0.7081  0.4241 -0.1378
23753SOL    HW174790   0.337   2.300   8.818  0.3873 -2.6593 -0.1286
23753SOL    HW274791   0.413   2.329   8.691  0.0479 -1.9248 -0.1678
23754SOL     OW74792   2.060   7.256  10.170 -0.1262  0.6113 -0.3274
23754SOL    HW174793   1.964   7.262  10.162 -0.2699  1.5228  1.5841
23754SOL    HW274794   2.089   7.227  10.084 -2.2424 -1.0835 -0.5649
23755SOL     OW74795   6.087   1.375   7.387 -0.3234  0.7149  0.4085
23755SOL    HW174796   6.109   1.308   7.451  0.3737  0.4407 -0.0964
23755SOL    HW274797   6.040   1.328   7.318 -0.1563  0.8074  0.2297
23756SOL     OW74798   3.946   3.785   8.251 -0.5233 -0.2483  0.4635
23756SOL    HW174799   3.864   3.833   8.243 -0.4759  0.0277  1.4657
23756SOL    HW274800   3.967   3.788   8.345 -0.3419 -1.9336  0.5169
23757SOL     OW74801   3.145   0.781  10.413  0.5846 -0.2443 -0.1264
23757SOL    HW174802   3.096   0.837  10.353 -0.1401  0.6089  1.1900
23757SOL    HW274803   3.087   0.706  10.428  1.2030 -0.9702 -1.2515
23758SOL     OW74804   8.307   0.147   4.537  0.4799 -0.0719 -0.0483
23758SOL    HW174805   8.393   0.185   4.519 -0.1530  0.6842 -1.6576
23758SOL    HW274806   8.293   0.084   4.466 -0.9135  0.9292 -0.7141
23759SOL     OW74807   1.670   7.726   7.589  0.0865  0.4451  0.0158
23759SOL    HW174808   1.727   7.705   7.663 -0.4591 -1.6002 -0.0912
23759SOL    HW274809   1.595   7.668   7.599 -0.3177  0.5990 -1.7847
23760SOL     OW74810  10.245   8.196   4.205 -0.4855 -0.6782  0.2712
23760SOL    HW174811  10.334   8.161   4.216 -0.6046 -1.1471 -0.1988
23760SOL    HW274812  10.192   8.143   4.264 -1.3400 -4.0402 -3.1244
23761SOL     OW74813   8.979   5.642   3.221  0.0663  0.1661 -0.1267
23761SOL    HW174814   9.007   5.730   3.247  1.2142 -0.2645  0.1541
23761SOL    HW274815   9.052   5.609   3.167 -1.6631  0.5568 -2.9131
23762SOL     OW74816   8.766  10.068   1.517  0.4267 -0.3136 -0.5684
23762SOL    HW174817   8.731  10.101   1.600  0.3389 -1.8423  0.0250
23762SOL    HW274818   8.853  10.105   1.511  0.9791 -1.3013  0.9284
23763SOL     OW74819   7.006   6.298   6.644 -0.0616  0.3649  0.2679
23763SOL    HW174820   6.990   6.393   6.644  1.9079  0.7392 -0.5340
23763SOL    HW274821   7.031   6.278   6.554  0.6763 -0.6991  0.6936
23764SOL     OW74822  10.655  10.360   3.938 -0.1669 -0.3695  0.3896
23764SOL    HW174823  10.596  10.296   3.978 -0.6972  0.2370  0.6002
23764SOL    HW274824  10.735  10.355   3.991  0.0105 -1.2503  0.0550
23765SOL     OW74825   0.942   4.548   6.463  0.3968 -0.8452  0.3124
23765SOL    HW174826   1.037   4.550   6.466  0.3721 -0.4338  1.4735
23765SOL    HW274827   0.919   4.589   6.379  1.2173  0.1247  0.5481
23766SOL     OW74828   0.583  10.403   2.492  0.0636  0.7092 -0.4692
23766SOL    HW174829   0.613  10.492   2.510  0.1081  0.4743  0.7393
23766SOL    HW274830   0.657  10.348   2.518 -0.4277  0.2654  0.0319
23767SOL     OW74831   5.261   8.139   5.035 -0.2974  0.0815  0.6964
23767SOL    HW174832   5.260   8.228   5.072  0.2769 -0.4142  1.9578
23767SOL    HW274833   5.200   8.090   5.090  1.8967 -1.1081  2.2355
23768SOL     OW74834   9.471   8.381   0.630 -0.4904 -0.2373 -0.2078
23768SOL    HW174835   9.546   8.339   0.588 -1.9582 -1.9733 -1.2305
23768SOL    HW274836   9.433   8.436   0.562 -0.5687  0.0634  0.0782
23769SOL     OW74837   4.266   4.714   2.663  0.4541 -0.2487 -0.0747
23769SOL    HW174838   4.255   4.620   2.656 -1.9843  0.0944 -2.8793
23769SOL    HW274839   4.313   4.739   2.584  0.9656  0.9187  0.5693
23770SOL     OW74840   3.983   2.186   9.340  0.3113  0.0008  0.2604
23770SOL    HW174841   3.950   2.179   9.430  0.7256  2.5166  0.6674
23770SOL    HW274842   3.909   2.219   9.290  0.8218  1.1166  0.2230
23771SOL     OW74843   7.916   8.747   3.327  0.2755  0.3110  0.6320
23771SOL    HW174844   7.853   8.819   3.317 -0.0039  0.3350  2.2914
23771SOL    HW274845   7.983   8.766   3.262  0.2652  2.1806  1.0829
23772SOL     OW74846   3.712   7.924   1.777 -0.3306 -0.3304  0.3140
23772SOL    HW174847   3.773   7.981   1.822 -1.8638  0.3468  1.6406
23772SOL    HW274848   3.637   7.979   1.757 -0.8205 -1.2941 -0.6527
23773SOL     OW74849   9.513   6.826   8.334  0.0680  0.3761 -0.0020
23773SOL    HW174850   9.521   6.915   8.300 -1.9393 -0.0877 -1.8691
23773SOL    HW274851   9.446   6.831   8.402  1.1812  0.5540  1.1224
23774SOL     OW74852   4.664   1.815   5.822  0.2076 -0.3911 -0.2682
23774SOL    HW174853   4.611   1.891   5.798  0.3066 -0.8686 -2.1646
23774SOL    HW274854   4.619   1.778   5.898  0.0971  1.4698  0.6373
23775SOL     OW74855   1.170   5.149   5.478  0.1013  0.4001  0.3104
23775SOL    HW174856   1.261   5.124   5.494 -0.1558 -0.2451  0.8195
23775SOL    HW274857   1.144   5.199   5.555 -0.4478 -0.7779  0.9162
23776SOL     OW74858   0.919   0.637   9.063  0.7067  0.1989 -1.1857
23776SOL    HW174859   0.890   0.546   9.061  1.3600 -0.0110 -1.1282
23776SOL    HW274860   0.839   0.687   9.079  0.4830 -0.4337 -0.2266
23777SOL     OW74861   0.579   7.387   0.162 -0.0473  0.2763 -0.6430
23777SOL    HW174862   0.559   7.340   0.242  0.5255  1.5462  0.2849
23777SOL    HW274863   0.493   7.406   0.124 -0.3414 -0.0070 -0.1390
23778SOL     OW74864   8.899   7.282   7.948  0.5491 -0.6675 -0.3434
23778SOL    HW174865   8.972   7.236   7.991 -0.3141 -1.2348  0.5495
23778SOL    HW274866   8.825   7.223   7.958  0.4810 -1.2671 -3.4661
23779SOL     OW74867   7.312   5.385   4.148  0.3018 -0.6325 -0.1451
23779SOL    HW174868   7.408   5.390   4.149  0.3718 -1.7060 -0.1200
23779SOL    HW274869   7.286   5.406   4.238  0.4688  0.3562 -0.3252
23780SOL     OW74870   0.721   0.802   2.015 -0.0602 -0.0101  0.2440
23780SOL    HW174871   0.665   0.732   1.981 -1.1449  1.2227 -0.6284
23780SOL    HW274872   0.675   0.834   2.093  1.3495 -1.4143  1.7268
23781SOL     OW74873   0.019  10.549   5.284  0.4697  0.1671 -0.3686
23781SOL    HW174874   0.082  10.525   5.352  0.5136  0.1463 -0.4166
23781SOL    HW274875  -0.058  10.496   5.304 -0.2330  1.5420  0.8089
23782SOL     OW74876   4.130   8.267   1.979 -0.0922  0.0405  0.3527
23782SOL    HW174877   4.183   8.212   1.921  1.0029  1.5312 -0.1447
23782SOL    HW274878   4.187   8.283   2.055 -0.5296  0.1816  0.6549
23783SOL     OW74879   4.455   7.608   2.048 -0.5838  0.3974  0.2207
23783SOL    HW174880   4.516   7.661   2.099 -1.4986  0.8903  0.8252
23783SOL    HW274881   4.389   7.670   2.018 -1.2382 -0.2634  0.2705
23784SOL     OW74882   5.249   8.215   0.048 -0.0306 -0.0828 -0.0649
23784SOL    HW174883   5.244   8.272   0.125 -1.7285 -1.2111  0.7189
23784SOL    HW274884   5.334   8.235   0.009  0.7913  0.6615  1.9844
23785SOL     OW74885   7.750   1.745   7.880  0.3357  0.3897  0.4742
23785SOL    HW174886   7.785   1.658   7.900  1.9803  0.9950  0.4128
23785SOL    HW274887   7.805   1.776   7.808 -0.1640  1.5171  0.5740
23786SOL     OW74888   3.366   0.036   7.439  0.2385  0.1796 -0.2520
23786SOL    HW174889   3.306  -0.035   7.463  2.9913 -1.4788  2.5132
23786SOL    HW274890   3.339   0.110   7.494 -1.5276  0.7901 -1.8374
23787SOL     OW74891   1.010   9.710  10.542  0.4923  0.3593  0.1945
23787SOL    HW174892   1.067   9.700  10.618 -0.5831 -1.6377  0.8146
23787SOL    HW274893   1.058   9.669  10.470  0.0744 -0.9335  0.6215
23788SOL     OW74894   4.963   5.406   1.355 -0.1718  0.1310  0.4499
23788SOL    HW174895   4.877   5.371   1.333  0.1699 -0.0879 -0.5709
23788SOL    HW274896   5.024   5.333   1.342  0.4037  0.7707 -0.6439
23789SOL     OW74897   0.664   4.163   3.987  0.4207  0.8113  0.2527
23789SOL    HW174898   0.651   4.188   3.895  1.9566 -1.1751 -0.5808
23789SOL    HW274899   0.578   4.173   4.027 -0.5632  0.6223 -1.6997
23790SOL     OW74900   3.411   9.904   4.759 -0.2914 -0.1184 -0.0072
23790SOL    HW174901   3.316   9.909   4.760 -0.5531 -3.0014 -0.5425
23790SOL    HW274902   3.437   9.956   4.683 -1.1141  2.8865  1.6058
23791SOL     OW74903   6.554   2.472   1.727 -0.5442  0.0551  0.1497
23791SOL    HW174904   6.565   2.393   1.779 -3.2813  0.0455  0.8948
23791SOL    HW274905   6.584   2.448   1.639  1.3439 -0.8586  0.9905
23792SOL     OW74906   6.574   9.492  10.850  0.2853  0.1124  0.1619
23792SOL    HW174907   6.578   9.521  10.941  1.5306  0.3724  0.0357
23792SOL    HW274908   6.535   9.566  10.803  1.7549  0.9032  0.1339
23793SOL     OW74909   6.487   7.836   0.073  0.0423  0.1934 -0.4650
23793SOL    HW174910   6.410   7.795   0.034 -1.0286  1.5399  0.1551
23793SOL    HW274911   6.505   7.912   0.017 -0.2987  1.0056  0.5022
23794SOL     OW74912   7.372   8.872   6.280  0.2837  0.3569 -0.6311
23794SOL    HW174913   7.381   8.888   6.374 -0.9545  1.7951 -0.7246
23794SOL    HW274914   7.302   8.807   6.274 -0.8154  1.5012 -0.5967
23795SOL     OW74915   9.443   1.449   4.739 -0.0629 -0.1459  0.2252
23795SOL    HW174916   9.430   1.434   4.833  0.1209 -0.6422  0.1731
23795SOL    HW274917   9.538   1.452   4.727 -0.0778  1.3112  0.2626
23796SOL     OW74918  10.032  10.356   8.564 -0.0340 -0.1760 -0.2238
23796SOL    HW174919   9.996  10.337   8.651  0.8706 -0.2324  0.1443
23796SOL    HW274920   9.987  10.295   8.506  0.8628 -1.5959  0.5237
23797SOL     OW74921   8.874   9.209   4.466  0.3746 -1.2175  0.6837
23797SOL    HW174922   8.942   9.255   4.515 -0.2365  1.0991 -0.4911
23797SOL    HW274923   8.922   9.147   4.411  1.6619  0.5791 -0.3546
23798SOL     OW74924   7.078   2.040   7.997 -0.2699 -0.7450 -0.6620
23798SOL    HW174925   7.153   2.051   8.055  0.2740 -0.1627 -1.4606
23798SOL    HW274926   7.017   2.109   8.024 -0.1308 -0.6436 -0.6018
23799SOL     OW74927   7.946   6.589   4.467 -0.2036  0.6051  0.4343
23799SOL    HW174928   7.991   6.527   4.409  0.2343  0.1928  1.1923
23799SOL    HW274929   7.868   6.542   4.496  0.2267  0.3311  1.1587
23800SOL     OW74930   8.954   2.736   2.138  0.4425  0.0480  0.3393
23800SOL    HW174931   8.915   2.764   2.220  0.9365 -0.7202  0.8483
23800SOL    HW274932   8.957   2.640   2.144 -0.6498 -0.1042 -1.0891
23801SOL     OW74933   4.247   0.353   2.494  0.8602  0.1010 -0.0682
23801SOL    HW174934   4.265   0.337   2.401  0.0236 -3.1863  0.2200
23801SOL    HW274935   4.181   0.423   2.493 -0.2918 -0.9200 -2.0736
23802SOL     OW74936   3.472  10.702   5.947 -1.0096  0.3893 -0.3098
23802SOL    HW174937   3.385  10.741   5.959 -0.4246  1.6953 -0.1258
23802SOL    HW274938   3.529  10.776   5.926 -0.2980 -0.6924 -2.4887
23803SOL     OW74939   5.603   1.587   5.372  0.0107 -0.0460 -0.4175
23803SOL    HW174940   5.565   1.573   5.286  0.9019 -0.9538 -0.6874
23803SOL    HW274941   5.550   1.656   5.411 -2.1160 -1.4560 -0.6386
23804SOL     OW74942   1.825  10.024   4.509  0.5742 -0.1736 -0.1480
23804SOL    HW174943   1.792   9.936   4.493 -0.2129  0.0432  0.2274
23804SOL    HW274944   1.787  10.049   4.593  0.7908  0.5195 -0.2506
23805SOL     OW74945   4.505   8.140   5.053 -0.3904 -0.1222 -0.2981
23805SOL    HW174946   4.488   8.047   5.040  0.4001 -0.4257  0.7473
23805SOL    HW274947   4.473   8.159   5.141 -0.1163  0.4936 -0.3232
23806SOL     OW74948   4.544   6.928  10.849  0.0659  0.3253 -0.2757
23806SOL    HW174949   4.584   6.988  10.786 -0.7812  0.5849 -0.5761
23806SOL    HW274950   4.555   6.970  10.934  1.1001  0.0333 -0.2478
23807SOL     OW74951  10.384   7.370  10.477  0.0846  0.5497 -0.0489
23807SOL    HW174952  10.392   7.452  10.428 -3.7784  1.8613  1.1598
23807SOL    HW274953  10.340   7.310  10.416 -0.9208  0.8085  0.4046
23808SOL     OW74954   4.118   6.208  10.456  0.6811  0.0255 -0.5024
23808SOL    HW174955   4.107   6.156  10.536  1.1816  0.7884  0.0719
23808SOL    HW274956   4.085   6.151  10.387  0.1257 -0.6032  0.2574
23809SOL     OW74957   8.810   3.547   0.289 -0.5392  0.1809 -0.1577
23809SOL    HW174958   8.892   3.580   0.326 -0.1713  1.6070 -2.0798
23809SOL    HW274959   8.804   3.456   0.319  1.7710  0.0262 -0.0267
23810SOL     OW74960   4.814   5.322   0.551  0.2623 -0.0518 -0.5349
23810SOL    HW174961   4.852   5.409   0.536  1.8244 -0.7865 -1.1363
23810SOL    HW274962   4.815   5.281   0.465  0.7096 -1.1047 -0.0419
23811SOL     OW74963   6.803  11.034   7.817 -0.7663 -0.2077  0.8601
23811SOL    HW174964   6.757  10.951   7.806 -0.3506 -0.3497  0.1236
23811SOL    HW274965   6.751  11.081   7.883 -2.5042  0.0159 -0.5814
23812SOL     OW74966   5.716   5.250   1.963 -0.2251  0.5453 -0.0301
23812SOL    HW174967   5.654   5.270   2.034 -0.4242  0.6904 -0.2412
23812SOL    HW274968   5.709   5.155   1.952 -0.1476  0.5139  0.1869
23813SOL     OW74969   5.353   4.504  10.771 -0.5855  0.0692 -0.7599
23813SOL    HW174970   5.285   4.443  10.799 -0.4353  0.1875 -0.1258
23813SOL    HW274971   5.351   4.500  10.676 -0.3445 -1.1823 -0.7238
23814SOL     OW74972   9.493  10.071   5.627  0.1885 -0.3624  0.0256
23814SOL    HW174973   9.562  10.062   5.561 -1.2482 -0.0041 -1.6104
23814SOL    HW274974   9.450   9.985   5.628 -0.8143  0.1024 -0.7551
23815SOL     OW74975   3.049   6.900   3.202  0.0599 -0.1103  0.0053
23815SOL    HW174976   3.009   6.939   3.125 -2.1730 -1.6606  0.2697
23815SOL    HW274977   2.986   6.915   3.273  1.5644  0.3611  1.3169
23816SOL     OW74978   7.647   1.250   5.371 -0.3903 -0.3286  0.1278
23816SOL    HW174979   7.643   1.156   5.351 -1.1125 -0.3059  0.1581
23816SOL    HW274980   7.577   1.264   5.435  0.1572  0.1088  0.6521
23817SOL     OW74981   8.363   7.333   3.897 -0.0202 -0.1317  0.5217
23817SOL    HW174982   8.348   7.244   3.866  1.3499 -1.1839  2.6132
23817SOL    HW274983   8.386   7.383   3.818 -0.8356 -1.5965 -0.6918
23818SOL     OW74984   2.682   4.742   8.321  0.4555  0.0346  0.2577
23818SOL    HW174985   2.641   4.669   8.275  1.0084  0.9343 -1.7575
23818SOL    HW274986   2.642   4.820   8.282  1.1784  0.8430  1.0953
23819SOL     OW74987   9.508   5.539   6.126  0.0570  0.2114  0.0926
23819SOL    HW174988   9.517   5.634   6.128  2.9372  0.0481 -1.0010
23819SOL    HW274989   9.558   5.509   6.202 -1.3256 -0.4493  0.7746
23820SOL     OW74990   7.778   5.166   4.840 -0.1599 -0.0203  0.8146
23820SOL    HW174991   7.724   5.114   4.899 -2.3130  0.8588 -0.2669
23820SOL    HW274992   7.832   5.220   4.898 -0.4406 -0.9169  1.9452
23821SOL     OW74993   0.695   8.798   7.921  0.6265 -0.0249  0.2884
23821SOL    HW174994   0.720   8.801   7.828 -0.7630  0.7392 -0.1016
23821SOL    HW274995   0.599   8.805   7.919  0.6384  0.8417  1.8189
23822SOL     OW74996   8.916   7.874   0.300 -0.6408  0.0773 -0.5304
23822SOL    HW174997   8.933   7.967   0.289  1.3535 -0.0522  0.8503
23822SOL    HW274998   8.920   7.838   0.211  1.3590  0.9329 -0.8409
23823SOL     OW74999   2.989   1.989   4.522 -0.5523  0.2700 -0.2480
23823SOL    HW175000   2.969   2.021   4.610 -0.4641 -0.5036  0.0699
23823SOL    HW275001   3.058   2.047   4.490 -2.0887  1.9417 -0.7101
23824SOL     OW75002   1.293   0.472   4.661 -0.2989 -0.2196 -0.1463
23824SOL    HW175003   1.290   0.392   4.608 -1.1883  0.2563 -0.8471
23824SOL    HW275004   1.386   0.484   4.681 -0.1907 -1.6576  0.3462
23825SOL     OW75005   3.186   7.625   7.752 -0.1741  0.3029  0.1686
23825SOL    HW175006   3.114   7.661   7.700  0.1971  0.5146 -0.2007
23825SOL    HW275007   3.143   7.584   7.827 -0.6926  0.2861 -0.1326
23826SOL     OW75008   5.333   2.603   0.134 -0.0772  0.3556  0.4075
23826SOL    HW175009   5.385   2.557   0.201 -0.6442 -1.3287 -0.2416
23826SOL    HW275010   5.393   2.667   0.097  0.9758 -0.2843  0.9340
23827SOL     OW75011   8.357   6.273  10.807 -0.2855 -0.1734 -0.2067
23827SOL    HW175012   8.323   6.322  10.732 -0.3690 -1.6197 -1.1779
23827SOL    HW275013   8.439   6.316  10.829 -1.5207  1.9060  0.6296
23828SOL     OW75014   2.182   1.578   4.620 -0.1632  0.1596 -0.0728
23828SOL    HW175015   2.272   1.594   4.648 -0.6272  0.4292  1.3217
23828SOL    HW275016   2.148   1.514   4.683 -0.9187 -0.0255 -0.6550
23829SOL     OW75017   1.287   8.843  10.307  0.6833  0.1330 -0.6542
23829SOL    HW175018   1.328   8.836  10.393 -2.1244 -2.2914  0.6776
23829SOL    HW275019   1.310   8.761  10.262 -1.5985 -0.8011 -0.2695
23830SOL     OW75020   8.830   7.628   5.530  0.0554  0.0314  0.2620
23830SOL    HW175021   8.793   7.618   5.442 -1.2577 -1.0187  0.8991
23830SOL    HW275022   8.899   7.693   5.520 -0.0796 -0.0676 -1.5433
23831SOL     OW75023   2.329   7.170  10.694 -0.4281  0.1416  0.0367
23831SOL    HW175024   2.385   7.237  10.654 -0.6134  1.8018  2.3426
23831SOL    HW275025   2.377   7.144  10.774 -1.6050 -0.5499  0.5418
23832SOL     OW75026   6.117   4.187   8.604  0.1611  0.0843  0.3274
23832SOL    HW175027   6.034   4.233   8.590 -0.6317 -0.9929  1.2584
23832SOL    HW275028   6.165   4.199   8.523 -1.1425  0.2604 -0.4547
23833SOL     OW75029   7.516   5.750   2.127 -0.8257 -0.5514  0.0700
23833SOL    HW175030   7.432   5.743   2.172 -1.2756 -0.1067 -0.6840
23833SOL    HW275031   7.578   5.770   2.197 -1.2760 -1.2234  0.6873
23834SOL     OW75032   9.051   6.819   5.469  0.8279 -0.1179 -0.2122
23834SOL    HW175033   8.980   6.799   5.408  1.9852 -1.8328 -1.0503
23834SOL    HW275034   9.049   6.749   5.534  0.5990  0.8453  0.8619
23835SOL     OW75035   2.927   3.215   0.003 -0.6104  0.3895 -0.3074
23835SOL    HW175036   2.923   3.238   0.096  2.6594  0.1394 -0.0039
23835SOL    HW275037   2.837   3.226  -0.028 -1.7003  1.0300  2.7291
23836SOL     OW75038  10.363   8.847   5.182  0.2227  0.1155 -0.2291
23836SOL    HW175039  10.425   8.907   5.140 -1.2340  3.2487  1.6942
23836SOL    HW275040  10.402   8.827   5.267 -0.1334 -0.2175 -0.1420
23837SOL     OW75041   1.922   7.825  10.530  0.1720  0.1591 -0.3697
23837SOL    HW175042   1.912   7.830  10.435  0.1479 -0.4258 -0.4016
23837SOL    HW275043   2.016   7.838  10.545  0.3175 -0.6416 -0.5460
23838SOL     OW75044   5.196   3.626   2.423  0.2183 -0.3234  0.3275
23838SOL    HW175045   5.238   3.629   2.336 -1.8361 -0.9670 -0.7539
23838SOL    HW275046   5.212   3.712   2.460 -1.2891  1.0535 -1.9515
23839SOL     OW75047   9.009   7.746   9.010  0.7781 -0.5855 -0.1890
23839SOL    HW175048   9.024   7.811   8.942  2.0388 -0.4849  0.1692
23839SOL    HW275049   8.972   7.671   8.963  0.7966 -0.2021 -0.8365
23840SOL     OW75050   6.533   3.301   8.812 -0.6506  0.0202 -0.1434
23840SOL    HW175051   6.583   3.280   8.733 -0.5835 -1.0722  0.1758
23840SOL    HW275052   6.585   3.368   8.856 -0.6147  0.5282 -0.9516
23841SOL     OW75053   8.133   3.194   5.220 -0.1918 -0.1978  0.0252
23841SOL    HW175054   8.074   3.266   5.196 -0.4250  0.0141  1.1935
23841SOL    HW275055   8.189   3.183   5.143 -1.9861 -0.6695 -1.2702
23842SOL     OW75056   9.917   2.888   1.163 -0.0577 -0.1886  0.4408
23842SOL    HW175057   9.923   2.967   1.110 -0.7734  0.0972  0.7625
23842SOL    HW275058  10.007   2.867   1.186  0.0709  1.2183  1.3312
23843SOL     OW75059   2.949   6.536  10.039 -0.2130  0.4756 -0.1074
23843SOL    HW175060   2.891   6.610  10.024  0.5185  0.9510 -0.6296
23843SOL    HW275061   2.926   6.504  10.126 -0.1013  1.7010  0.3808
23844SOL     OW75062   7.793   2.737   8.085 -0.5209  0.1052 -0.1319
23844SOL    HW175063   7.845   2.756   8.164 -3.1519 -0.1490  1.8094
23844SOL    HW275064   7.856   2.700   8.023  1.7175  0.4976  1.7574
23845SOL     OW75065   5.546   8.475   2.483  0.7277 -0.0194 -0.3145
23845SOL    HW175066   5.524   8.382   2.483  1.3484 -0.1719  0.4029
23845SOL    HW275067   5.617   8.482   2.418  1.9213 -0.3670  0.9111
23846SOL     OW75068   5.298   1.829   9.687 -0.0110  1.0224  0.2034
23846SOL    HW175069   5.234   1.768   9.724  1.1978 -0.5306 -0.1655
23846SOL    HW275070   5.317   1.890   9.758 -1.1685  0.9418  0.6114
23847SOL     OW75071   4.899   5.347   9.546 -0.1400 -0.4880 -0.0190
23847SOL    HW175072   4.903   5.303   9.461 -0.0181 -0.6139  0.0517
23847SOL    HW275073   4.840   5.421   9.531 -0.9851 -1.1292  0.0602
23848SOL     OW75074   2.269   3.895   3.737  0.4060 -0.2656  0.2352
23848SOL    HW175075   2.339   3.845   3.695 -0.0885  0.9693 -2.2603
23848SOL    HW275076   2.220   3.831   3.788  2.5913 -1.3713  1.0704
23849SOL     OW75077   6.512   7.027   3.141  0.0380  0.6815 -0.0979
23849SOL    HW175078   6.557   6.969   3.203 -0.0230  0.9011  0.1506
23849SOL    HW275079   6.556   7.011   3.057  0.8319  1.1799  0.2226
23850SOL     OW75080   7.954   8.521   8.586 -0.0263  0.3732  0.1163
23850SOL    HW175081   7.898   8.484   8.518 -0.5366 -2.2864  1.8537
23850SOL    HW275082   7.895   8.577   8.637 -0.4469 -0.1991  0.2707
23851SOL     OW75083   3.885   5.739   4.787 -0.2769 -0.3320  0.1728
23851SOL    HW175084   3.866   5.766   4.697 -2.0090 -0.4028  0.4907
23851SOL    HW275085   3.928   5.816   4.826  0.4770 -0.2957 -0.6971
23852SOL     OW75086   8.181   6.158   1.977 -0.2713  0.0776  0.3780
23852SOL    HW175087   8.206   6.119   2.061 -1.3331 -0.5630  0.4137
23852SOL    HW275088   8.261   6.199   1.945  0.4782 -0.7901  1.0821
23853SOL     OW75089   8.111   7.458   7.984 -0.2328 -0.0806  0.2873
23853SOL    HW175090   8.105   7.370   8.023 -0.0952 -0.2609 -0.0945
23853SOL    HW275091   8.104   7.518   8.059 -0.0010 -0.4219  0.5869
23854SOL     OW75092   6.184   9.334   6.841  0.1702  0.1783  0.1568
23854SOL    HW175093   6.193   9.319   6.747 -1.5669  0.0628 -0.0206
23854SOL    HW275094   6.257   9.286   6.880  0.3789 -0.5403 -1.0661
23855SOL     OW75095   7.407   0.889   8.050 -0.0787 -0.2620  0.2925
23855SOL    HW175096   7.352   0.817   8.078 -0.0125 -0.7495 -0.7891
23855SOL    HW275097   7.347   0.964   8.043 -0.8638 -1.0103 -1.8365
23856SOL     OW75098   8.174   3.653   2.196 -0.4520 -0.1036 -0.1427
23856SOL    HW175099   8.090   3.641   2.239 -0.9589 -0.2436 -1.1380
23856SOL    HW275100   8.160   3.726   2.135  1.1888  2.4416  2.2973
23857SOL     OW75101   3.784   0.092   0.178  0.8658 -0.3154 -0.4411
23857SOL    HW175102   3.732   0.164   0.214 -2.7859 -1.4997 -2.8093
23857SOL    HW275103   3.797   0.116   0.086  0.2973 -2.2235 -1.0616
23858SOL     OW75104   5.729   3.545   2.664  0.1539 -0.0633 -0.4867
23858SOL    HW175105   5.703   3.601   2.737  0.0724 -0.8526  0.1052
23858SOL    HW275106   5.727   3.603   2.588 -0.6192  0.5639 -0.0086
23859SOL     OW75107   2.872   0.504   6.178 -0.9804  0.0808 -0.6992
23859SOL    HW175108   2.831   0.545   6.101 -0.3943  0.1612 -0.9761
23859SOL    HW275109   2.903   0.577   6.231 -0.6438  0.0143 -0.8003
23860SOL     OW75110   9.258   7.083  10.739 -0.0679 -0.1762 -0.1654
23860SOL    HW175111   9.300   7.166  10.717  2.0516 -0.7213  1.4321
23860SOL    HW275112   9.165   7.098  10.724  0.2816  2.3803 -0.2030
23861SOL     OW75113   5.456   9.028   9.588  0.8384 -0.2269  0.0688
23861SOL    HW175114   5.407   9.048   9.668  0.4608 -0.0467 -0.2022
23861SOL    HW275115   5.522   9.096   9.582 -0.9042  1.4644 -1.2426
23862SOL     OW75116   8.359   7.522   2.214 -0.2412  0.0561 -0.1676
23862SOL    HW175117   8.340   7.602   2.166 -1.3332  0.8325  1.4837
23862SOL    HW275118   8.276   7.474   2.214  0.0764 -0.5019 -0.1019
23863SOL     OW75119   6.265   2.365   3.537 -0.3616  0.0703  0.1522
23863SOL    HW175120   6.234   2.297   3.597 -0.5388 -0.7918 -0.8720
23863SOL    HW275121   6.311   2.317   3.468  1.0596  1.1456  0.3151
23864SOL     OW75122   2.366   7.975   9.339  0.7125 -0.1835 -0.2537
23864SOL    HW175123   2.413   7.986   9.257  2.1168  2.0135  0.7471
23864SOL    HW275124   2.433   7.954   9.403 -0.3196 -1.5160  0.4502
23865SOL     OW75125  10.293   8.978   4.892 -0.3841 -0.3312  0.8544
23865SOL    HW175126  10.296   9.032   4.813 -0.1450  0.9191  1.6845
23865SOL    HW275127  10.248   9.032   4.956 -0.5883 -1.3360  1.5833
23866SOL     OW75128   7.158   2.878   3.717 -0.6019 -0.4698 -0.0576
23866SOL    HW175129   7.224   2.818   3.684  0.7398  0.3253  1.0644
23866SOL    HW275130   7.188   2.901   3.805 -0.0649  3.1306 -1.0039
23867SOL     OW75131   6.899   9.771   6.169 -0.7184  0.7103 -0.0556
23867SOL    HW175132   6.842   9.785   6.093 -0.2691 -0.1796 -0.5715
23867SOL    HW275133   6.969   9.714   6.136  0.5166  1.8368  0.5324
23868SOL     OW75134   0.539   0.420  10.821  0.0521  0.0382  0.0011
23868SOL    HW175135   0.598   0.495  10.809 -2.7350  2.3566 -0.2572
23868SOL    HW275136   0.544   0.400  10.914  0.2344  1.1068  0.2309
23869SOL     OW75137   1.263   3.799   4.828  0.2482 -0.3977 -0.1277
23869SOL    HW175138   1.172   3.822   4.807 -0.0423 -1.1807  0.2284
23869SOL    HW275139   1.316   3.857   4.772 -0.4568  0.4163  0.0275
23870SOL     OW75140   1.790   2.182   1.409  0.0652 -0.5076  0.0508
23870SOL    HW175141   1.818   2.116   1.472  0.5609  1.0490  1.5218
23870SOL    HW275142   1.761   2.256   1.462 -0.0423  0.6404 -1.5342
23871SOL     OW75143   0.178   7.437   2.652 -0.5639 -0.8951  0.6883
23871SOL    HW175144   0.107   7.380   2.682  0.7485 -2.9734  0.0732
23871SOL    HW275145   0.199   7.406   2.564  0.7649 -0.0010  0.6464
23872SOL     OW75146   3.855   6.187   1.605  0.3818 -0.2969 -0.0560
23872SOL    HW175147   3.823   6.113   1.554 -0.1162  0.2675 -0.5664
23872SOL    HW275148   3.826   6.168   1.695 -1.1226  0.0418 -0.4455
23873SOL     OW75149  10.787   1.343   9.406  0.0771  0.1575  0.1565
23873SOL    HW175150  10.740   1.355   9.489 -1.9269  0.6655 -0.9984
23873SOL    HW275151  10.879   1.339   9.432 -0.5219 -0.3646  2.4738
23874SOL     OW75152   4.065   8.930   5.554  0.5450 -0.1017 -0.1527
23874SOL    HW175153   4.125   8.968   5.618  0.3841 -0.5618  0.2702
23874SOL    HW275154   4.086   8.837   5.553 -0.7484 -0.4241  0.6436
23875SOL     OW75155   1.860   9.807   5.198  0.2048  0.2794  0.2776
23875SOL    HW175156   1.859   9.717   5.232  1.3431  0.4126  0.7015
23875SOL    HW275157   1.797   9.805   5.125  0.1496 -0.8408  0.3284
23876SOL     OW75158   7.361   2.807   7.245 -0.3125  0.1591 -0.3017
23876SOL    HW175159   7.306   2.730   7.232 -1.8677  1.2850 -0.6909
23876SOL    HW275160   7.419   2.783   7.317 -2.8779 -0.3175  1.7579
23877SOL     OW75161   3.277   3.589   6.498 -0.1231 -0.4654  0.6258
23877SOL    HW175162   3.323   3.671   6.481 -2.8542  0.9676 -0.4971
23877SOL    HW275163   3.323   3.524   6.445 -0.6225  1.3590 -2.3122
23878SOL     OW75164   0.529   2.697   2.187  0.5931  0.0865 -0.3727
23878SOL    HW175165   0.474   2.760   2.141  0.2093  0.4082  0.5079
23878SOL    HW275166   0.467   2.639   2.231  0.8873 -1.9661 -2.4907
23879SOL     OW75167  11.019   4.531   6.470  0.2078 -0.9233  0.2010
23879SOL    HW175168  11.046   4.590   6.541 -0.3928  0.0395 -0.3390
23879SOL    HW275169  10.924   4.544   6.463  0.2683 -0.9184 -0.8363
23880SOL     OW75170   0.008   6.751   3.103  0.0917  0.1772  0.5607
23880SOL    HW175171  -0.069   6.796   3.067 -0.3734 -0.1328  1.1668
23880SOL    HW275172   0.001   6.763   3.197  0.6468 -0.0873  0.6373
23881SOL     OW75173   4.569  10.484   3.647  0.0153 -0.4022  0.0828
23881SOL    HW175174   4.570  10.562   3.592  1.9607 -0.1242  0.4590
23881SOL    HW275175   4.518  10.509   3.724  0.1624  0.3159 -0.0481
23882SOL     OW75176   8.885   5.088   3.824  0.4491 -0.1271  0.2104
23882SOL    HW175177   8.950   5.154   3.848  0.4174 -0.2619  0.6710
23882SOL    HW275178   8.924   5.005   3.851 -0.0323 -0.1819  0.7395
23883SOL     OW75179  10.291   8.260   1.144  0.5804  0.1512  0.0568
23883SOL    HW175180  10.258   8.201   1.212 -1.4159  1.7372  0.5439
23883SOL    HW275181  10.214   8.285   1.094  1.8279 -0.0045 -2.0835
23884SOL     OW75182  10.253   0.489   1.170 -0.0638 -0.0124  0.3277
23884SOL    HW175183  10.237   0.413   1.114  1.6274  0.1277 -0.4274
23884SOL    HW275184  10.347   0.505   1.161 -0.1286  1.2768  1.6331
23885SOL     OW75185   0.612  10.591   6.777 -0.2885 -0.4982  0.1454
23885SOL    HW175186   0.587  10.680   6.802  1.6399 -0.1307  0.9734
23885SOL    HW275187   0.708  10.593   6.773 -0.2545 -2.1604 -1.3457
23886SOL     OW75188   7.650   1.990   0.710  0.1221  0.2552  0.2382
23886SOL    HW175189   7.644   1.906   0.756  0.6289  0.0840  0.0076
23886SOL    HW275190   7.744   2.010   0.710 -0.1187  1.4797  1.4318
23887SOL     OW75191   5.125   8.559   9.445  0.0733  0.2088 -0.4088
23887SOL    HW175192   5.126   8.501   9.369  0.9114 -1.0184  0.5033
23887SOL    HW275193   5.103   8.502   9.519 -2.3685  1.6556  0.1013
23888SOL     OW75194   3.404   0.786   3.845  0.3419  0.1497 -0.0443
23888SOL    HW175195   3.313   0.811   3.859  0.3848  0.3136 -0.0560
23888SOL    HW275196   3.434   0.754   3.930  0.6142  1.1813  0.2675
23889SOL     OW75197  11.065   8.558  10.826  0.8802  0.0764 -0.4288
23889SOL    HW175198  11.009   8.595  10.895 -0.4399 -2.2151 -0.1520
23889SOL    HW275199  11.025   8.589  10.745 -1.8578 -2.5450 -0.3048
23890SOL     OW75200   9.129   2.632   5.549  0.4658  0.2133 -0.4916
23890SOL    HW175201   9.169   2.575   5.484  0.8796 -0.8240  0.6380
23890SOL    HW275202   9.199   2.652   5.610  0.0775  1.1480 -0.3384
23891SOL     OW75203   1.482   2.823   1.431 -0.4762  0.2233 -0.6051
23891SOL    HW175204   1.536   2.902   1.436  0.3606 -0.3654 -0.0525
23891SOL    HW275205   1.475   2.805   1.337 -1.4209  1.4321 -0.7859
23892SOL     OW75206   7.726   1.808   8.460 -0.1459 -0.0623  0.4396
23892SOL    HW175207   7.809   1.760   8.460  1.3192  2.2828  2.0743
23892SOL    HW275208   7.670   1.758   8.519 -0.0565 -1.7917 -0.8502
23893SOL     OW75209   0.801   3.507   1.270  0.3311 -0.1731  0.2474
23893SOL    HW175210   0.842   3.493   1.185  1.3122  0.7180  0.5541
23893SOL    HW275211   0.775   3.600   1.269  0.9714  0.0274  1.1731
23894SOL     OW75212   8.505   8.510   2.600  0.1679  0.1865 -0.3049
23894SOL    HW175213   8.539   8.475   2.518  1.6133  0.2136  0.2656
23894SOL    HW275214   8.425   8.460   2.615 -1.7225  2.0554 -3.1120
23895SOL     OW75215   0.234  10.307   3.546  0.0945  0.3075 -0.1954
23895SOL    HW175216   0.304  10.372   3.549  2.9866 -2.5783  0.8242
23895SOL    HW275217   0.274  10.231   3.503 -2.4272 -1.5307  0.4758
23896SOL     OW75218   0.695   9.118   3.964 -0.7619  0.3515  0.0951
23896SOL    HW175219   0.714   9.167   3.884  0.3343  0.0177  0.1265
23896SOL    HW275220   0.774   9.066   3.979 -1.0007  0.3115  1.3244
23897SOL     OW75221  11.097   9.783   7.210  0.2155 -0.2538 -0.2377
23897SOL    HW175222  11.094   9.871   7.173  0.1703 -0.1939 -0.0944
23897SOL    HW275223  11.186   9.752   7.191  0.5839  0.2266  0.6201
23898SOL     OW75224   4.949   8.174   0.754  0.3195 -0.2805  0.4585
23898SOL    HW175225   4.935   8.268   0.744  0.3971 -0.2039  1.0471
23898SOL    HW275226   4.931   8.156   0.846  1.1721 -0.6933  0.5521
23899SOL     OW75227   6.969   7.255  10.116  0.3786  0.1091  0.0304
23899SOL    HW175228   6.940   7.164  10.120  1.3690 -0.2543 -0.6154
23899SOL    HW275229   6.914   7.295  10.049 -1.1022  0.4013  1.3914
23900SOL     OW75230   3.575   3.219   6.225  0.1177 -0.3531 -0.0757
23900SOL    HW175231   3.652   3.230   6.280 -0.6551  0.9658  0.7944
23900SOL    HW275232   3.575   3.295   6.168 -1.2040  0.3610  0.8199
23901SOL     OW75233  10.246  10.424   1.166 -1.0047 -0.1206 -0.8071
23901SOL    HW175234  10.247  10.504   1.113 -1.0259 -0.3152 -1.1084
23901SOL    HW275235  10.155  10.412   1.191 -0.7823  0.7458  0.4784
23902SOL     OW75236   0.454   1.573   0.543  0.4770 -0.1930  0.2155
23902SOL    HW175237   0.390   1.644   0.545 -0.4703 -0.9937 -0.4318
23902SOL    HW275238   0.496   1.576   0.629  0.4293  1.1123  0.2019
23903SOL     OW75239   7.323   8.821   4.105  0.5446 -0.1610 -0.4183
23903SOL    HW175240   7.232   8.846   4.093 -0.0702 -1.9569  0.2815
23903SOL    HW275241   7.352   8.791   4.019  0.6364  0.8447 -0.7491
23904SOL     OW75242   8.747   9.085   6.784 -0.6530  0.4492  0.5948
23904SOL    HW175243   8.741   9.052   6.695  0.2583 -1.0789  1.0545
23904SOL    HW275244   8.692   9.027   6.836 -3.0950  2.7169  0.7612
23905SOL     OW75245   7.000   8.456   4.877 -0.6691  0.0953  0.3188
23905SOL    HW175246   6.952   8.505   4.943 -0.7521  0.8852 -0.3129
23905SOL    HW275247   7.018   8.520   4.807  1.7825  0.0152  0.7611
23906SOL     OW75248   5.010   7.924   2.721 -0.3468  0.0685 -0.8970
23906SOL    HW175249   5.026   7.983   2.648 -0.9611  2.2595  0.6331
23906SOL    HW275250   4.915   7.926   2.733 -0.4279 -1.5788 -1.0537
23907SOL     OW75251   0.780   7.863   3.336 -0.4869  0.1406  0.0150
23907SOL    HW175252   0.783   7.843   3.243  0.1931 -0.5893  0.1845
23907SOL    HW275253   0.813   7.952   3.343  0.1201 -0.0497 -0.3788
23908SOL     OW75254  10.444   5.217   6.785 -0.0662  0.2086  0.0271
23908SOL    HW175255  10.386   5.153   6.745 -0.3909  1.4221 -1.5784
23908SOL    HW275256  10.388   5.293   6.800  0.8603  1.0521 -0.6342
23909SOL     OW75257   6.140   5.128   4.973  0.2342  0.1311 -0.2909
23909SOL    HW175258   6.158   5.134   5.067 -1.0858 -0.4013  0.0164
23909SOL    HW275259   6.201   5.061   4.942  0.4483  0.0694  0.2499
23910SOL     OW75260   2.409   6.601   6.445 -0.4506  0.1953 -0.0779
23910SOL    HW175261   2.331   6.583   6.392  0.4512 -3.3512 -0.4195
23910SOL    HW275262   2.470   6.641   6.383 -0.7739 -0.2563 -0.6996
23911SOL     OW75263   1.039   1.052  10.752 -0.3310  0.4624  0.2131
23911SOL    HW175264   1.075   0.963  10.754 -0.2130  0.5226  1.0452
23911SOL    HW275265   1.053   1.086  10.840 -1.5419  0.8401  0.2837
23912SOL     OW75266   1.250   4.292   0.760  0.1581  0.2853 -0.0798
23912SOL    HW175267   1.246   4.265   0.852 -1.5225 -1.1585 -0.5297
23912SOL    HW275268   1.319   4.237   0.722  0.0903  0.0882  0.0779
23913SOL     OW75269   2.492   1.908   6.037  0.1151 -0.1165 -0.0994
23913SOL    HW175270   2.444   1.950   6.109  1.5018  0.9508  0.2447
23913SOL    HW275271   2.477   1.815   6.050  0.1735  0.0591  1.5013
23914SOL     OW75272   1.231   3.355   4.391 -0.1892 -0.2070 -0.4469
23914SOL    HW175273   1.189   3.441   4.385  0.8659  0.2606 -1.6459
23914SOL    HW275274   1.204   3.321   4.477 -0.6391  1.3094  0.0496
23915SOL     OW75275   2.957   8.494   7.964  0.4346  0.3424  0.2524
23915SOL    HW175276   2.863   8.479   7.967  0.4093  0.5734  0.8269
23915SOL    HW275277   2.977   8.503   7.871 -0.0388 -0.1311  0.0978
23916SOL     OW75278   1.447   2.645   8.717 -0.4607 -0.8671  0.3915
23916SOL    HW175279   1.425   2.552   8.726 -2.8028 -0.4162  0.0627
23916SOL    HW275280   1.542   2.648   8.719 -0.3451 -3.1164  1.9230
23917SOL     OW75281   0.751   5.544   8.216  0.1004 -0.1650  0.0718
23917SOL    HW175282   0.804   5.596   8.277  0.1313  0.5978 -0.5945
23917SOL    HW275283   0.730   5.465   8.265 -1.4904  1.2347  1.7908
23918SOL     OW75284   0.511   6.615   0.615  0.0682  0.1836 -0.1089
23918SOL    HW175285   0.593   6.590   0.659  1.1315  1.5251 -1.2300
23918SOL    HW275286   0.450   6.630   0.687  0.6122 -1.3378  0.7442
23919SOL     OW75287   5.643   7.023   2.786  0.2373  0.1503  0.3596
23919SOL    HW175288   5.668   6.972   2.863  1.6533  2.1409  1.3042
23919SOL    HW275289   5.577   7.085   2.819  0.2351  0.4561 -0.2074
23920SOL     OW75290   9.252   7.631   2.686  0.1578  0.2660 -0.1683
23920SOL    HW175291   9.222   7.547   2.721  1.1381 -0.1086 -0.2067
23920SOL    HW275292   9.261   7.687   2.763 -0.0690  0.2007 -0.0928
23921SOL     OW75293   1.510   8.717   1.996  0.3355  0.1818 -0.1084
23921SOL    HW175294   1.484   8.749   2.082  0.8749 -0.5055  0.3255
23921SOL    HW275295   1.536   8.626   2.012  0.5515  0.0867 -0.9779
23922SOL     OW75296  10.143  10.624   1.706  0.5261 -0.5444 -0.1794
23922SOL    HW175297  10.227  10.579   1.716  0.7376 -0.2025 -0.3923
23922SOL    HW275298  10.110  10.592   1.622 -0.2946 -1.8661  0.6163
23923SOL     OW75299   1.166   6.321   8.710  0.2109 -0.4455 -0.2798
23923SOL    HW175300   1.176   6.231   8.743 -0.1303 -0.0866  0.8717
23923SOL    HW275301   1.071   6.334   8.704  0.2650 -0.3276 -0.9392
23924SOL     OW75302  10.714   0.889   5.509  0.0665 -0.0587  0.4474
23924SOL    HW175303  10.627   0.929   5.515  0.7059  1.4627  0.0442
23924SOL    HW275304  10.752   0.902   5.596  0.2282  0.0981  0.3536
23925SOL     OW75305   8.385  10.210   2.529  0.2777 -0.2089  0.8371
23925SOL    HW175306   8.297  10.221   2.566 -0.2723 -1.8368  0.1225
23925SOL    HW275307   8.419  10.132   2.573 -0.1452 -1.8181 -1.4791
23926SOL     OW75308   3.852  10.464   5.049 -0.9325 -0.7978 -0.0914
23926SOL    HW175309   3.775  10.494   5.098 -1.8021 -1.3939 -1.0565
23926SOL    HW275310   3.824  10.463   4.958  0.9822  1.3886 -0.8232
23927SOL     OW75311   8.075   7.564   9.420  0.4830  0.5836  0.1844
23927SOL    HW175312   8.137   7.591   9.488  1.5137  0.7241 -0.7856
23927SOL    HW275313   8.001   7.529   9.469  1.8152 -0.7288  1.3842
23928SOL     OW75314   8.209   1.166   7.242  0.1723  0.1520  0.6728
23928SOL    HW175315   8.256   1.082   7.236 -0.5236 -0.1148 -2.1550
23928SOL    HW275316   8.120   1.147   7.213  0.3384  2.0829 -1.3458
23929SOL     OW75317   5.749   3.512   6.076  0.0530  0.3664 -0.3092
23929SOL    HW175318   5.660   3.479   6.089  0.0285  0.9378  1.2230
23929SOL    HW275319   5.740   3.607   6.080  0.3266  0.6026 -3.2529
23930SOL     OW75320   5.017   9.413   2.897 -0.2570  0.0454 -0.2933
23930SOL    HW175321   4.939   9.384   2.850  2.6744 -0.7670 -5.3265
23930SOL    HW275322   5.039   9.340   2.956 -1.8870 -0.7671 -0.6519
23931SOL     OW75323   8.433  10.632   8.698  0.1035  0.1034  0.1386
23931SOL    HW175324   8.343  10.660   8.682 -0.6713 -2.9240 -1.4818
23931SOL    HW275325   8.476  10.639   8.612 -0.6251 -4.6932 -0.9188
23932SOL     OW75326  10.322   4.239   2.866 -0.1899  0.2989 -0.0035
23932SOL    HW175327  10.322   4.332   2.891  2.2782  0.9539 -2.0627
23932SOL    HW275328  10.396   4.230   2.807  0.0067 -3.1674  0.5794
23933SOL     OW75329  10.606   8.087   9.088  0.1931  0.1278  0.5622
23933SOL    HW175330  10.537   8.143   9.053 -0.2574 -1.2172 -0.8280
23933SOL    HW275331  10.571   7.998   9.079  1.8614 -0.5381  0.4239
23934SOL     OW75332   2.297   8.923   7.196  0.0204 -0.0313  0.2556
23934SOL    HW175333   2.209   8.930   7.159 -0.9263  0.2900  2.4133
23934SOL    HW275334   2.353   8.971   7.135 -1.5926  1.2527 -0.2720
23935SOL     OW75335   8.830  10.562   0.214  0.0200 -0.1360  0.5126
23935SOL    HW175336   8.885  10.507   0.158 -0.7546  0.1063 -0.5065
23935SOL    HW275337   8.812  10.640   0.161  1.7067  1.4859  2.1974
23936SOL     OW75338   6.714   9.646   0.945 -0.6397 -0.4011  0.1171
23936SOL    HW175339   6.711   9.693   0.861  1.1733 -1.7121 -0.7566
23936SOL    HW275340   6.713   9.715   1.011  0.5736  0.8494 -1.0867
23937SOL     OW75341   2.927   8.317   8.824  0.3834 -0.0167  0.2948
23937SOL    HW175342   2.922   8.405   8.861  0.7232  0.6888 -1.2678
23937SOL    HW275343   2.842   8.278   8.842 -0.1866  1.0551 -0.0302
23938SOL     OW75344   3.176   3.584   3.313  0.1418 -0.2464  0.7180
23938SOL    HW175345   3.147   3.675   3.318  0.4390 -0.0949 -0.1818
23938SOL    HW275346   3.163   3.550   3.402  0.5265  0.8230  1.1967
23939SOL     OW75347   9.180   6.347   8.844  0.2218  0.2869 -0.0734
23939SOL    HW175348   9.165   6.412   8.913 -0.7866 -0.7736  0.7555
23939SOL    HW275349   9.122   6.374   8.773 -0.1621  0.3349  0.2509
23940SOL     OW75350   4.775   5.005   0.923 -0.5468  1.2268 -0.2085
23940SOL    HW175351   4.691   4.976   0.888  0.4104 -0.6040 -1.1517
23940SOL    HW275352   4.832   5.012   0.846  0.8142 -0.0139  0.6226
23941SOL     OW75353   9.275   3.840   6.454 -0.1318 -0.3060 -0.8783
23941SOL    HW175354   9.336   3.791   6.399 -0.1286 -1.2593 -0.0548
23941SOL    HW275355   9.259   3.782   6.528 -0.2960  0.8690  0.0207
23942SOL     OW75356   6.459   8.429   8.696 -0.4012 -0.0116 -0.4679
23942SOL    HW175357   6.425   8.449   8.783  1.3421  1.8416 -0.1338
23942SOL    HW275358   6.485   8.338   8.700  0.3586  0.2507  1.2257
23943SOL     OW75359   1.622   1.211   1.560 -0.3543  0.2883 -0.3408
23943SOL    HW175360   1.672   1.147   1.611 -0.2906 -0.0956 -0.8772
23943SOL    HW275361   1.531   1.198   1.587 -0.0914  1.6907  1.4103
23944SOL     OW75362   3.610   3.341   3.353 -0.3234 -0.0635 -0.2938
23944SOL    HW175363   3.693   3.296   3.335 -0.9628 -0.0869 -4.1344
23944SOL    HW275364   3.635   3.433   3.365  0.4090 -0.3692  0.6395
23945SOL     OW75365   7.008   5.080   8.492 -0.3642 -0.1394 -0.3339
23945SOL    HW175366   7.077   5.036   8.542 -0.1600 -1.2018 -1.4823
23945SOL    HW275367   7.052   5.112   8.413 -1.0064 -0.0956 -0.6856
23946SOL     OW75368  10.291   9.891   4.653 -0.3133  0.1844 -0.1173
23946SOL    HW175369  10.375   9.883   4.609  0.5838  1.2859  1.2879
23946SOL    HW275370  10.276   9.804   4.692  0.4554  0.1227  0.0686
23947SOL     OW75371   5.086   6.107   5.988 -0.4484  0.1786  0.2190
23947SOL    HW175372   5.095   6.110   6.083  1.9452 -0.2014  0.0514
23947SOL    HW275373   5.134   6.184   5.957 -0.6423 -0.0661 -0.7249
23948SOL     OW75374   2.211   2.984   8.747 -0.6082 -0.7839 -0.1314
23948SOL    HW175375   2.224   3.002   8.654  1.2753  1.1450  0.3932
23948SOL    HW275376   2.172   3.064   8.782 -0.7080 -1.2334  0.8402
23949SOL     OW75377  10.496   8.372   2.555  0.0933 -0.4743 -0.1521
23949SOL    HW175378  10.455   8.346   2.637 -0.4826  0.7775 -0.0296
23949SOL    HW275379  10.541   8.453   2.575  1.0633 -0.8364 -0.7618
23950SOL     OW75380   9.443   6.165   0.104  0.1722  0.2106 -0.3344
23950SOL    HW175381   9.426   6.230   0.036 -0.8294 -0.5526 -0.8521
23950SOL    HW275382   9.401   6.085   0.071  2.3825 -1.0412 -0.2975
23951SOL     OW75383   1.502   6.833   9.840 -0.0265  0.0160 -0.1108
23951SOL    HW175384   1.537   6.849   9.927  1.2930 -0.4885 -0.5248
23951SOL    HW275385   1.439   6.904   9.826  0.5220  0.7164  0.8281
23952SOL     OW75386   3.651   8.889   9.574  0.1722  0.0935 -0.2683
23952SOL    HW175387   3.570   8.935   9.555 -1.7898 -2.2001  1.8404
23952SOL    HW275388   3.698   8.946   9.634  0.4932  1.7009 -1.9428
23953SOL     OW75389   4.016   5.730   0.369  0.6185 -0.4895 -0.5823
23953SOL    HW175390   4.065   5.796   0.319  0.6716 -0.5787 -0.6495
23953SOL    HW275391   4.077   5.657   0.376  1.1930  0.1120  0.9702
23954SOL     OW75392   2.159   6.265   5.959  0.1195  0.6577 -0.1443
23954SOL    HW175393   2.223   6.336   5.966 -0.3599  0.9058  2.6434
23954SOL    HW275394   2.210   6.186   5.978 -0.2743  0.8243  1.7684
23955SOL     OW75395   9.608   6.603   5.772 -0.0955  0.5485 -0.2591
23955SOL    HW175396   9.521   6.644   5.776  0.2270  1.1592  1.5617
23955SOL    HW275397   9.593   6.513   5.799 -0.1089  0.7736  0.4986
23956SOL     OW75398   7.039   8.472   1.675 -0.0749 -1.0804  0.5259
23956SOL    HW175399   6.980   8.399   1.657  2.1256 -2.8345 -0.0995
23956SOL    HW275400   7.100   8.472   1.601 -0.1550  1.6544  0.3399
23957SOL     OW75401   3.400  11.045   3.379 -0.3411  0.0228  0.3596
23957SOL    HW175402   3.490  11.031   3.410  0.7799  2.4320 -1.4218
23957SOL    HW275403   3.374  10.961   3.341  0.8091 -0.9656  1.6446
23958SOL     OW75404   4.853   0.515  10.223  0.3689 -0.5417  0.1427
23958SOL    HW175405   4.922   0.450  10.205  0.1512 -0.4859 -0.9856
23958SOL    HW275406   4.772   0.471  10.198  0.3365  0.5973 -1.9352
23959SOL     OW75407   8.540   0.812   4.878  0.2697  0.7204  0.2403
23959SOL    HW175408   8.623   0.847   4.845  0.8178 -0.2799  0.5243
23959SOL    HW275409   8.563   0.769   4.961 -0.2954 -0.6728 -0.2958
23960SOL     OW75410   8.988   5.437   7.463 -0.0215  0.2390 -0.0963
23960SOL    HW175411   8.985   5.350   7.501  0.6381  0.1289 -0.2850
23960SOL    HW275412   8.908   5.480   7.494 -2.9768 -1.9465 -3.7366
23961SOL     OW75413  10.969   4.051   7.307 -0.5412  0.1770  0.1984
23961SOL    HW175414  10.877   4.026   7.317 -0.3883 -0.1948  0.7338
23961SOL    HW275415  11.014   4.008   7.380  0.3884 -1.3169 -1.1893
23962SOL     OW75416   1.096   8.305   5.013 -0.2371 -0.1521 -0.1246
23962SOL    HW175417   1.001   8.320   5.009 -0.3503 -0.9814 -2.6704
23962SOL    HW275418   1.115   8.257   4.932  2.3238 -0.2962  0.4980
23963SOL     OW75419   8.382   6.880   2.059 -0.5143  0.1303  0.0179
23963SOL    HW175420   8.472   6.857   2.038 -0.1797  0.8899  0.5578
23963SOL    HW275421   8.376   6.866   2.154 -1.1236 -0.4195 -0.0941
23964SOL     OW75422   5.442   4.204   1.794 -0.4285 -0.0518 -0.3584
23964SOL    HW175423   5.529   4.204   1.753  0.1014  0.3146  0.7472
23964SOL    HW275424   5.435   4.118   1.835 -1.6453 -1.0970 -2.5559
23965SOL     OW75425   4.498  10.988   5.439  0.3378  0.3294  0.2776
23965SOL    HW175426   4.531  11.071   5.406  1.1909  0.3280  1.0629
23965SOL    HW275427   4.418  11.010   5.486  0.3353  0.6475  0.1223
23966SOL     OW75428  10.773   8.143   9.316 -0.1960 -0.4676 -0.1005
23966SOL    HW175429  10.852   8.187   9.283  0.2070 -0.2531  1.0959
23966SOL    HW275430  10.730   8.108   9.237 -1.0589  2.8584 -1.2562
23967SOL     OW75431   6.409   9.229   4.547 -0.0787  0.4011 -0.7394
23967SOL    HW175432   6.330   9.254   4.499  0.8061  2.8819 -1.0307
23967SOL    HW275433   6.406   9.281   4.627  2.2423  2.2692 -1.7277
23968SOL     OW75434   0.091   6.413   9.553 -0.1736  0.4723  0.2918
23968SOL    HW175435   0.089   6.485   9.490 -1.1885  2.9726  3.0129
23968SOL    HW275436   0.130   6.340   9.504  3.8683  3.6268 -1.7882
23969SOL     OW75437   5.199   6.142   4.700 -0.0322  0.5574  0.0416
23969SOL    HW175438   5.181   6.183   4.785  0.7828 -0.0891  0.5409
23969SOL    HW275439   5.211   6.216   4.640  0.2922  1.0357  0.6842
23970SOL     OW75440   2.126   8.691   9.303 -0.2208  0.0787 -0.3520
23970SOL    HW175441   2.046   8.650   9.333 -0.7736  0.7162 -0.9216
23970SOL    HW275442   2.195   8.627   9.323 -0.6719  0.0716  1.3478
23971SOL     OW75443   9.556   0.510   5.127 -0.5256  0.2245  0.2729
23971SOL    HW175444   9.483   0.495   5.188 -0.9242 -1.8294 -0.6239
23971SOL    HW275445   9.559   0.431   5.073  0.1462  1.7356 -2.0453
23972SOL     OW75446   5.445   6.134   6.494  0.5776 -0.5424  0.0386
23972SOL    HW175447   5.359   6.176   6.494  0.3253 -1.0544 -0.0708
23972SOL    HW275448   5.437   6.061   6.556  1.8048  1.1265  2.3333
23973SOL     OW75449  10.522   4.597   6.818 -0.0989 -0.0554  0.6120
23973SOL    HW175450  10.614   4.573   6.833  0.8243  0.6497 -2.8825
23973SOL    HW275451  10.512   4.682   6.861  0.9537 -0.0564  0.8872
23974SOL     OW75452   5.535   8.246   3.511 -0.5659 -0.1803  0.1018
23974SOL    HW175453   5.607   8.224   3.569  0.2419  1.5875 -0.1739
23974SOL    HW275454   5.461   8.264   3.570 -0.2930 -0.2924  0.4779
23975SOL     OW75455   8.328   5.936   5.899  1.0518 -0.4379  0.0049
23975SOL    HW175456   8.415   5.975   5.909  0.9711  0.0492 -1.1083
23975SOL    HW275457   8.337   5.877   5.824  0.4633 -0.5228 -0.0001
23976SOL     OW75458   3.609   3.646   4.969  0.0277  0.0613  0.1871
23976SOL    HW175459   3.534   3.604   4.927 -0.0753  1.8820 -1.6190
23976SOL    HW275460   3.599   3.739   4.948  2.0000  0.5421  1.1761
23977SOL     OW75461   8.212  10.194   4.354 -0.1706  0.9803  0.3238
23977SOL    HW175462   8.185  10.267   4.409  0.6833  1.5914 -0.0372
23977SOL    HW275463   8.283  10.152   4.402  0.5856  1.5215 -0.2774
23978SOL     OW75464   7.628  10.047   7.716 -0.4778  0.0139  0.2336
23978SOL    HW175465   7.578   9.973   7.679 -0.6139  0.9261 -1.5118
23978SOL    HW275466   7.710  10.008   7.745 -0.3088 -0.7764 -1.1886
23979SOL     OW75467   9.907   2.217   2.144  0.3744  0.1031 -0.1978
23979SOL    HW175468   9.931   2.229   2.236  0.6884 -0.1014 -0.2493
23979SOL    HW275469   9.918   2.123   2.130 -1.3596 -0.1563  0.0240
23980SOL     OW75470   6.313   7.927   7.084 -0.3883 -0.6087 -0.2769
23980SOL    HW175471   6.336   8.018   7.063 -1.0731 -0.6677 -1.3629
23980SOL    HW275472   6.309   7.925   7.179 -2.9720  1.2144 -0.2179
23981SOL     OW75473   8.441   2.326   1.923 -0.2731 -0.5242  0.7869
23981SOL    HW175474   8.518   2.365   1.964 -0.1134 -0.3135  0.3027
23981SOL    HW275475   8.473   2.246   1.881 -0.4364 -0.7462  1.0865
23982SOL     OW75476   3.253   1.693   9.021 -0.0174  0.1885 -0.0518
23982SOL    HW175477   3.307   1.701   8.943  0.2754  1.1150  0.2332
23982SOL    HW275478   3.301   1.633   9.077 -0.3601 -0.6944 -0.6843
23983SOL     OW75479   1.386   0.611   9.818  0.6153  0.2772  0.0170
23983SOL    HW175480   1.416   0.609   9.728  0.3439 -0.1518 -0.0701
23983SOL    HW275481   1.294   0.583   9.814  1.1524 -1.7968  0.6154
23984SOL     OW75482   1.177   8.112   2.892 -0.4033 -0.0585  0.0480
23984SOL    HW175483   1.260   8.070   2.872  0.4433  0.5747  1.9544
23984SOL    HW275484   1.158   8.085   2.982 -2.7139 -0.8521 -0.6171
23985SOL     OW75485   5.874  10.731  11.063 -0.0766  0.5730  0.6422
23985SOL    HW175486   5.819  10.653  11.072 -1.2281  1.1688 -0.8031
23985SOL    HW275487   5.841  10.791  11.130  0.7589 -0.1015  1.7018
23986SOL     OW75488   1.396   7.792   8.374 -0.1245  0.1211  0.2576
23986SOL    HW175489   1.305   7.816   8.395  0.0815  0.1440  1.1859
23986SOL    HW275490   1.419   7.847   8.299 -0.8845  0.0965 -0.0043
23987SOL     OW75491   2.236  10.975   5.407 -0.2072 -0.0091 -0.3096
23987SOL    HW175492   2.161  11.032   5.425  1.4307  1.5645  2.1617
23987SOL    HW275493   2.251  10.928   5.488  1.7273  0.0569 -0.5766
23988SOL     OW75494   6.200   2.336   0.525  0.2274 -0.2093  0.3390
23988SOL    HW175495   6.115   2.294   0.516 -1.0262  2.3883 -0.7298
23988SOL    HW275496   6.182   2.429   0.526  3.1086  0.4833 -0.6716
23989SOL     OW75497   1.907  10.156   3.131  0.1863  0.2116  0.8672
23989SOL    HW175498   1.854  10.076   3.129  1.3997 -0.7664  3.3032
23989SOL    HW275499   1.997  10.125   3.120  0.6036  1.3524  0.9879
23990SOL     OW75500   4.722   2.724   9.960  0.0142  0.4026 -0.0727
23990SOL    HW175501   4.703   2.696  10.050  0.5449  0.2370 -0.0065
23990SOL    HW275502   4.796   2.669   9.933  0.0888  0.6998 -0.4822
23991SOL     OW75503   4.005   9.891   2.346 -0.2067 -0.0547 -0.4929
23991SOL    HW175504   3.995   9.796   2.338  1.2615 -0.2874  0.0642
23991SOL    HW275505   3.936   9.917   2.409 -0.2571 -0.8329 -0.2149
23992SOL     OW75506   7.162   2.803   8.790 -0.6389  1.1388  0.5066
23992SOL    HW175507   7.193   2.893   8.784  0.0302  0.8300 -1.5626
23992SOL    HW275508   7.073   2.806   8.755 -0.6923  1.0322  0.6331
23993SOL     OW75509  10.183   4.822  10.814  0.5217  0.0342 -0.2060
23993SOL    HW175510  10.201   4.861  10.900 -0.3797  1.0995 -0.4764
23993SOL    HW275511  10.147   4.894  10.762 -3.1182 -1.5194 -0.1265
23994SOL     OW75512   1.335   9.103   9.267  0.4379  0.0834 -0.3964
23994SOL    HW175513   1.332   9.070   9.178  1.0614 -0.2984 -0.2759
23994SOL    HW275514   1.399   9.048   9.312  0.3307  0.4430  0.2171
23995SOL     OW75515   3.334   3.741   8.461 -0.3354 -0.2712  0.1516
23995SOL    HW175516   3.353   3.656   8.502  1.2970  0.6571  1.4393
23995SOL    HW275517   3.274   3.719   8.389 -1.7672 -2.2178  1.7928
23996SOL     OW75518   2.233   1.645   0.520  0.5552 -0.4683 -0.0270
23996SOL    HW175519   2.178   1.584   0.570  1.0536 -0.2141  0.8427
23996SOL    HW275520   2.293   1.588   0.471  0.2445 -0.7116 -0.1245
23997SOL     OW75521   8.141   1.779   6.693 -0.3102 -0.3605 -0.2859
23997SOL    HW175522   8.217   1.797   6.748  0.1287 -1.2648 -0.5636
23997SOL    HW275523   8.100   1.703   6.734 -0.8413 -0.1140 -0.3588
23998SOL     OW75524   1.949   9.920   0.227 -0.2664  0.1035  0.3246
23998SOL    HW175525   1.886   9.873   0.282  0.1988  0.5940  1.3018
23998SOL    HW275526   2.033   9.909   0.273  0.1927  0.2490 -0.4668
23999SOL     OW75527   3.478  11.060   8.359 -0.5459  0.5323 -0.0256
23999SOL    HW175528   3.544  10.992   8.349 -1.5713 -0.5433  0.2245
23999SOL    HW275529   3.508  11.132   8.303  0.5849 -0.1039 -0.2568
24000SOL     OW75530   1.221   4.677   8.950 -0.1391  0.1824 -0.0329
24000SOL    HW175531   1.236   4.758   8.999  0.8825  1.0884 -1.7519
24000SOL    HW275532   1.143   4.695   8.897  0.3827  0.2636 -0.7989
24001SOL     OW75533   8.883   0.575   3.161  0.1814 -0.0139  0.3490
24001SOL    HW175534   8.946   0.639   3.126  0.1183 -1.3059 -2.3921
24001SOL    HW275535   8.935   0.520   3.219  1.8795 -1.4333 -2.3150
24002SOL     OW75536   7.905   4.412   6.455 -0.0119 -0.3497 -0.0470
24002SOL    HW175537   7.876   4.333   6.409 -0.5618  0.4917 -1.2066
24002SOL    HW275538   7.824   4.460   6.473  0.4495  1.0065 -1.3819
24003SOL     OW75539   8.618   5.875   7.767  0.1958  0.2096 -0.5136
24003SOL    HW175540   8.566   5.940   7.814 -1.7335 -0.3201 -1.7996
24003SOL    HW275541   8.680   5.927   7.714  2.1832  0.8134  2.1861
24004SOL     OW75542   4.304   6.424   7.038 -0.0244  0.4817 -1.1378
24004SOL    HW175543   4.295   6.394   7.129 -0.2100  1.2865 -0.8799
24004SOL    HW275544   4.297   6.519   7.044  1.2883  0.6357 -1.8481
24005SOL     OW75545   0.846   2.455   5.796  0.9807  0.0384 -0.2122
24005SOL    HW175546   0.882   2.544   5.794 -0.4089  0.6251  0.0113
24005SOL    HW275547   0.805   2.448   5.882 -0.8483 -0.0022 -1.0369
24006SOL     OW75548   1.231   9.498   1.321  0.3638 -0.2687 -0.3899
24006SOL    HW175549   1.136   9.504   1.328 -0.2328 -2.3894 -3.9965
24006SOL    HW275550   1.252   9.411   1.356  0.9321  0.0501  0.0676
24007SOL     OW75551   4.923   0.121  10.375 -0.3311  0.1189 -0.4400
24007SOL    HW175552   4.985   0.057  10.409  0.3530 -0.8210 -3.1540
24007SOL    HW275553   4.841   0.072  10.364 -0.2364  0.1116 -1.1352
24008SOL     OW75554   3.362   7.105   4.809 -0.9688 -0.4436 -0.0992
24008SOL    HW175555   3.443   7.086   4.856 -0.7575 -1.6161 -0.9058
24008SOL    HW275556   3.381   7.183   4.757 -0.0827 -1.1924 -0.9195
24009SOL     OW75557   0.453   8.133   8.652 -0.3216 -0.4450 -0.2674
24009SOL    HW175558   0.543   8.154   8.626 -0.6576 -1.8724 -2.8824
24009SOL    HW275559   0.398   8.194   8.602 -0.8697 -0.1659  0.6496
24010SOL     OW75560   4.056   7.818   2.846  0.6088 -0.1518 -0.3995
24010SOL    HW175561   4.036   7.730   2.876 -0.7974  0.3048  0.0782
24010SOL    HW275562   3.981   7.871   2.873  1.8060  1.3864  0.1546
24011SOL     OW75563   6.162   9.140   6.306 -0.2859 -0.1730  0.3182
24011SOL    HW175564   6.149   9.107   6.218  1.3925  0.4558 -0.2034
24011SOL    HW275565   6.255   9.125   6.325 -0.7884 -1.1102  2.3392
24012SOL     OW75566   8.112   8.953   3.853 -0.1786 -0.4953  0.2488
24012SOL    HW175567   8.186   8.935   3.912 -0.1068  0.4257  0.4584
24012SOL    HW275568   8.041   8.979   3.911 -0.0497  0.6147 -0.0729
24013SOL     OW75569   3.781   7.975   8.829 -0.3149  0.4331 -0.3340
24013SOL    HW175570   3.689   8.002   8.824 -0.6775 -0.7684 -0.5602
24013SOL    HW275571   3.805   7.957   8.738 -0.2493 -0.4723 -0.1425
24014SOL     OW75572   7.414   0.068   4.477 -0.4461 -0.4053 -0.0504
24014SOL    HW175573   7.319   0.063   4.483 -0.5088  1.0632  0.7544
24014SOL    HW275574   7.433   0.063   4.384 -1.3686 -0.0728 -0.2682
24015SOL     OW75575   1.747   7.836   0.827 -0.6261 -0.1601 -0.1815
24015SOL    HW175576   1.654   7.813   0.821 -0.1947 -2.5354  0.8513
24015SOL    HW275577   1.763   7.846   0.921  0.3654 -0.8145 -0.2695
24016SOL     OW75578   7.288   4.405   2.122 -0.6482 -0.5261 -0.4203
24016SOL    HW175579   7.345   4.478   2.100 -1.7141 -0.1519 -2.1749
24016SOL    HW275580   7.228   4.440   2.188  1.3036 -1.0382  1.7274
24017SOL     OW75581  10.080   1.488   0.673 -0.0409  0.0876  0.1021
24017SOL    HW175582  10.103   1.470   0.764  0.4625 -0.7965 -0.1907
24017SOL    HW275583  10.145   1.441   0.622 -1.4879 -1.1005 -0.7349
24018SOL     OW75584  10.464   0.761   4.479  0.5993  0.0872  0.5273
24018SOL    HW175585  10.533   0.790   4.539 -0.1086  1.2162  0.8322
24018SOL    HW275586  10.465   0.825   4.408 -0.9112  0.8389  1.1386
24019SOL     OW75587   1.290   3.832  10.039 -0.2317 -0.1855 -0.2080
24019SOL    HW175588   1.225   3.895  10.069 -0.0026 -1.5747  3.7617
24019SOL    HW275589   1.365   3.885  10.013  0.1401  1.3622  3.4418
24020SOL     OW75590   2.649   7.390   7.153  0.2525  0.3677 -0.3221
24020SOL    HW175591   2.665   7.329   7.081  0.6535  1.2528 -1.0027
24020SOL    HW275592   2.558   7.418   7.140  0.7353  1.5817 -1.3442
24021SOL     OW75593   0.090   3.166   2.115 -0.4211 -0.1302 -0.0496
24021SOL    HW175594   0.087   3.072   2.135 -0.8178 -0.1699 -0.2755
24021SOL    HW275595   0.182   3.189   2.123  0.1248 -1.1150 -2.5202
24022SOL     OW75596  10.053   1.167   0.048  0.4912  0.1524  0.6503
24022SOL    HW175597  10.032   1.083   0.007  2.5569 -0.1017 -0.0297
24022SOL    HW275598  10.036   1.153   0.141 -0.2095 -0.6576  0.4210
24023SOL     OW75599   9.544   6.923   4.346 -0.0082 -0.0819 -0.2657
24023SOL    HW175600   9.570   7.015   4.347  0.9090 -0.3272 -0.4336
24023SOL    HW275601   9.601   6.881   4.411 -0.0500 -0.6154 -0.5665
24024SOL     OW75602   8.485   9.323   1.237  0.7709 -0.0603 -0.1895
24024SOL    HW175603   8.442   9.380   1.301  0.3252 -0.3971 -0.1887
24024SOL    HW275604   8.572   9.363   1.225  0.0805  1.2436 -1.0110
24025SOL     OW75605   5.042   4.324   9.120 -0.2217 -0.5458 -0.3054
24025SOL    HW175606   4.978   4.300   9.052 -0.2558  2.6835 -1.6084
24025SOL    HW275607   5.126   4.293   9.086 -0.3597  0.3044 -1.5123
24026SOL     OW75608  11.089   1.603   3.515 -0.4085  0.4260 -0.3810
24026SOL    HW175609  11.026   1.550   3.466 -0.6662  1.4003 -1.1396
24026SOL    HW275610  11.174   1.580   3.479 -0.6138  1.2739 -1.4454
24027SOL     OW75611   1.156   3.284   9.557  0.3168 -0.2634 -0.4164
24027SOL    HW175612   1.223   3.243   9.612 -1.1714 -0.8888  1.0392
24027SOL    HW275613   1.092   3.317   9.619  0.2041  2.0969 -1.6780
24028SOL     OW75614   3.044   8.953   9.346  1.0320 -0.1431 -0.0340
24028SOL    HW175615   3.011   8.867   9.374 -1.0103  0.0957 -1.4884
24028SOL    HW275616   3.138   8.941   9.335  0.9688 -1.8472  0.9798
24029SOL     OW75617   4.878   3.088   3.548 -0.1281  0.1281  0.1589
24029SOL    HW175618   4.885   3.161   3.486  2.1357 -1.1018 -1.1868
24029SOL    HW275619   4.793   3.049   3.529  0.5292 -0.2604 -2.3210
24030SOL     OW75620   0.877   7.883   0.227  0.4670 -0.0811 -0.1137
24030SOL    HW175621   0.851   7.868   0.136 -1.7914 -1.3040  0.6732
24030SOL    HW275622   0.954   7.827   0.240 -0.0688 -1.0065 -0.8656
24031SOL     OW75623   2.836   9.182   9.823  0.4413  0.1170 -0.1979
24031SOL    HW175624   2.878   9.158   9.905 -0.1556  3.1507  1.1400
24031SOL    HW275625   2.860   9.112   9.762  2.7005 -1.1405  1.9610
24032SOL     OW75626   3.707   8.481   5.192 -0.8274  0.4260  0.5766
24032SOL    HW175627   3.641   8.449   5.132  0.3046 -0.2214 -0.3620
24032SOL    HW275628   3.710   8.576   5.178 -0.6549  0.2917 -0.3126
24033SOL     OW75629   1.575   7.461   0.067  0.1070 -0.7771 -0.2009
24033SOL    HW175630   1.568   7.373   0.030 -1.7084 -0.8272  0.1725
24033SOL    HW275631   1.499   7.469   0.124  0.5788  0.8238  0.2466
24034SOL     OW75632   7.856   4.395   7.138  0.2758  0.1925  0.2622
24034SOL    HW175633   7.765   4.399   7.107  0.7294 -1.5412 -1.4171
24034SOL    HW275634   7.866   4.475   7.190 -1.2500  2.1272 -2.1656
24035SOL     OW75635  10.887   1.985   4.546 -0.4234 -1.2723  0.2679
24035SOL    HW175636  10.949   1.933   4.597 -1.2515  0.8185  3.7801
24035SOL    HW275637  10.801   1.953   4.573 -0.8863 -0.6757 -0.4766
24036SOL     OW75638  10.428   2.302   5.160  0.5632 -0.1088  1.0747
24036SOL    HW175639  10.484   2.342   5.094 -1.2897 -0.2419 -0.6598
24036SOL    HW275640  10.441   2.207   5.149 -1.3197 -0.2140 -0.6148
24037SOL     OW75641   9.480   1.313  10.807  0.0365 -0.1817  0.2872
24037SOL    HW175642   9.478   1.298  10.901 -0.7235 -1.7273  0.0609
24037SOL    HW275643   9.563   1.274  10.778 -0.3453 -0.9180  0.1568
24038SOL     OW75644   4.148   0.769   4.546  0.5704  0.0268 -0.0161
24038SOL    HW175645   4.074   0.782   4.605 -1.3011 -1.4003 -1.9033
24038SOL    HW275646   4.115   0.795   4.460  2.1236 -0.9923 -0.9794
24039SOL     OW75647   1.041   8.978   1.533  0.0495 -0.2837  0.2323
24039SOL    HW175648   1.055   9.057   1.585  0.7715 -0.3922  0.2168
24039SOL    HW275649   1.079   8.907   1.585 -0.0284 -0.5290 -0.0384
24040SOL     OW75650   7.046  10.665   3.886  0.1950  0.2407  0.3989
24040SOL    HW175651   7.070  10.736   3.827 -1.0426  0.1551 -0.2579
24040SOL    HW275652   7.125  10.646   3.935  1.5319 -0.2836 -1.8514
24041SOL     OW75653   7.317  10.080   6.590 -0.0349  0.6263  0.2059
24041SOL    HW175654   7.299  10.063   6.498  1.2666  0.4871 -0.0337
24041SOL    HW275655   7.230  10.082   6.631 -0.7888  2.4587 -1.3016
24042SOL     OW75656   0.198   4.818   3.072 -0.5057  0.1122  0.0215
24042SOL    HW175657   0.268   4.878   3.099 -0.3848 -0.7566  1.7795
24042SOL    HW275658   0.158   4.861   2.997  0.6504  1.5793  0.1880
24043SOL     OW75659   8.071   1.178   4.682 -0.2178 -0.3895  0.5393
24043SOL    HW175660   8.166   1.186   4.678 -0.1303 -1.6439 -0.4811
24043SOL    HW275661   8.039   1.246   4.622  0.0729 -0.4851  0.2731
24044SOL     OW75662   7.918   5.619   7.451  0.3967  0.4604  0.1350
24044SOL    HW175663   7.888   5.567   7.376 -0.9742  1.3212  0.0522
24044SOL    HW275664   7.955   5.698   7.412  1.0473  0.2511  0.3203
24045SOL     OW75665   1.749  10.223  10.653 -0.3960  0.1930  0.2191
24045SOL    HW175666   1.771  10.278  10.728 -0.7509  0.5830  0.0446
24045SOL    HW275667   1.740  10.285  10.580  0.8798 -0.2798 -0.3592
24046SOL     OW75668   9.182   4.306  10.835  0.0049 -0.0453 -0.2462
24046SOL    HW175669   9.131   4.225  10.836  0.4213 -0.3148  1.5322
24046SOL    HW275670   9.247   4.295  10.904 -0.0390  1.8817  0.1691
24047SOL     OW75671   8.367  10.887   5.667 -0.1754  0.3248  0.0241
24047SOL    HW175672   8.334  10.906   5.579 -0.7343 -0.4161  0.0606
24047SOL    HW275673   8.462  10.898   5.660 -0.2895  1.1188 -0.4437
24048SOL     OW75674   8.549   3.194   8.063  0.1229 -0.0017 -0.1300
24048SOL    HW175675   8.502   3.116   8.033 -0.1640  0.1369 -0.0462
24048SOL    HW275676   8.620   3.205   8.000  1.4968 -1.5819  1.0398
24049SOL     OW75677   1.401   3.573   6.621 -0.2440  0.1156  0.0368
24049SOL    HW175678   1.386   3.506   6.688 -1.1921 -0.0112 -0.2876
24049SOL    HW275679   1.321   3.572   6.568  0.8328 -0.4078 -1.6440
24050SOL     OW75680   0.680   7.026   8.455 -0.2717  0.2425 -0.0233
24050SOL    HW175681   0.743   7.061   8.518 -0.5322 -1.7446  1.4305
24050SOL    HW275682   0.696   6.932   8.454 -1.9535 -0.0861 -1.0698
24051SOL     OW75683   1.881   5.354   0.116  0.4178  0.2832  0.2204
24051SOL    HW175684   1.796   5.325   0.147 -0.6021  1.0906 -1.6133
24051SOL    HW275685   1.941   5.284   0.140 -0.8492 -0.5377  1.1045
24052SOL     OW75686   1.502   8.183  10.110  0.3447 -0.0873  0.2313
24052SOL    HW175687   1.510   8.206  10.017 -1.1680 -1.6730 -0.3570
24052SOL    HW275688   1.592   8.162  10.137  0.8561  0.7247 -0.7628
24053SOL     OW75689   9.690   3.121   4.621  0.0459 -0.1523 -0.3444
24053SOL    HW175690   9.760   3.063   4.650 -0.6131 -0.4863  0.5956
24053SOL    HW275691   9.679   3.184   4.692 -0.3063  0.1793 -0.6814
24054SOL     OW75692   1.133   9.338   6.861  0.0372 -0.4030  0.2872
24054SOL    HW175693   1.136   9.428   6.891  0.0109  0.2962 -1.6706
24054SOL    HW275694   1.186   9.289   6.924  0.2178  1.0012  1.2516
24055SOL     OW75695   2.001   8.055  10.233 -0.5725  0.5248  0.3816
24055SOL    HW175696   1.994   7.962  10.213  0.0147  0.9554 -2.1631
24055SOL    HW275697   2.016   8.058  10.328  1.6713 -2.1084  0.2398
24056SOL     OW75698   9.861   3.520  11.015  0.4864  0.5011  0.5246
24056SOL    HW175699   9.839   3.437  11.056 -3.2874  0.8326 -0.4351
24056SOL    HW275700   9.838   3.509  10.923  2.1448  1.9294 -0.1258
24057SOL     OW75701   0.269   6.865  10.289  0.6198  0.4992  0.4754
24057SOL    HW175702   0.175   6.853  10.307  0.8355  0.9360  2.0650
24057SOL    HW275703   0.281   6.960  10.283  0.7794  0.4118 -0.9532
24058SOL     OW75704   6.576  10.647   4.980  0.0252 -0.0881  0.1000
24058SOL    HW175705   6.586  10.681   5.069 -0.3793  2.3370 -0.7118
24058SOL    HW275706   6.482  10.633   4.969  0.1225 -0.8999  0.1964
24059SOL     OW75707   5.579   3.993   4.628  0.3606 -0.2439 -0.1807
24059SOL    HW175708   5.617   3.996   4.715 -1.3117 -0.9386  0.6126
24059SOL    HW275709   5.488   3.966   4.642  0.2989 -1.2725 -2.2223
24060SOL     OW75710   4.907   1.626   4.937  0.8120 -0.6518  0.1222
24060SOL    HW175711   4.870   1.676   4.864  0.4465 -0.4268  0.4545
24060SOL    HW275712   4.997   1.657   4.944  1.0889 -1.2539 -0.7385
24061SOL     OW75713   1.231   8.085   2.137  0.2205 -1.0297 -0.4718
24061SOL    HW175714   1.179   8.012   2.170  0.4505 -0.6090  0.8732
24061SOL    HW275715   1.322   8.058   2.151  0.3100 -0.0232  1.1965
24062SOL     OW75716   1.736   8.456   4.793  0.8766  0.0536 -0.5584
24062SOL    HW175717   1.793   8.402   4.848 -0.7994  0.0684  1.3301
24062SOL    HW275718   1.795   8.517   4.749  2.3839 -0.4019  0.7254
24063SOL     OW75719   8.356   8.794   3.034 -0.3018  0.3864  0.0062
24063SOL    HW175720   8.382   8.723   2.975  1.5051  0.6755  0.4192
24063SOL    HW275721   8.381   8.764   3.121 -2.1766  0.3285  0.5661
24064SOL     OW75722   0.192   6.942   4.328  0.3584  0.1140 -0.1480
24064SOL    HW175723   0.274   6.896   4.309  0.8124  0.9725 -0.3255
24064SOL    HW275724   0.143   6.882   4.384  2.8746  1.2116  3.6187
24065SOL     OW75725   8.532   5.182   8.366 -0.4442  0.0423  0.2803
24065SOL    HW175726   8.508   5.233   8.289 -1.0734 -0.0235  0.4279
24065SOL    HW275727   8.551   5.094   8.331  1.2165  0.4953 -0.0514
24066SOL     OW75728   2.860   4.806   7.249 -0.8722  0.0677  0.3211
24066SOL    HW175729   2.775   4.847   7.258 -1.7748 -1.7288  0.5529
24066SOL    HW275730   2.846   4.716   7.279  0.6786 -0.7657 -1.2450
24067SOL     OW75731   2.067   1.308   2.990 -0.8690  0.9686 -0.3639
24067SOL    HW175732   2.081   1.394   2.949  2.6630  0.2889 -0.8619
24067SOL    HW275733   2.109   1.315   3.075 -1.5504  0.0493  0.0618
24068SOL     OW75734   8.683   2.765   3.582 -0.2899  0.7428  0.0514
24068SOL    HW175735   8.771   2.800   3.577 -0.5145  1.6072  1.5827
24068SOL    HW275736   8.689   2.691   3.643 -0.0781 -1.2023 -2.1585
24069SOL     OW75737  10.248   0.310   3.052 -0.4918  0.1259  0.0428
24069SOL    HW175738  10.224   0.403   3.053  0.5461  0.4052  1.3108
24069SOL    HW275739  10.164   0.265   3.053 -1.0548  1.0847  1.7685
24070SOL     OW75740   9.108   8.474   4.625 -0.4018  0.2929 -0.3366
24070SOL    HW175741   9.125   8.520   4.543 -1.2562  0.0734 -0.6433
24070SOL    HW275742   9.116   8.381   4.602 -1.6945  0.1920 -0.4291
24071SOL     OW75743   3.597   5.504   8.791  0.2214 -0.4136 -0.3219
24071SOL    HW175744   3.504   5.526   8.787  0.5410  0.9580 -3.1850
24071SOL    HW275745   3.626   5.537   8.876 -1.3756  1.7939 -0.5304
24072SOL     OW75746   8.168  10.963   3.176 -0.4398  0.2368  0.5136
24072SOL    HW175747   8.083  10.978   3.218 -1.1088  0.2933 -0.8160
24072SOL    HW275748   8.200  10.882   3.217 -0.9998  0.3582  1.2278
24073SOL     OW75749  10.354   5.995   3.892 -0.0020  0.0681 -0.0387
24073SOL    HW175750  10.347   6.088   3.914 -0.5375  0.2734 -1.0485
24073SOL    HW275751  10.446   5.973   3.910 -0.2028  0.4192  1.5654
24074SOL     OW75752   3.704  10.843   1.219  0.1237 -0.0916 -0.2310
24074SOL    HW175753   3.654  10.908   1.169 -0.9366 -0.6212  0.0954
24074SOL    HW275754   3.706  10.878   1.308  0.4552 -0.0128 -0.2677
24075SOL     OW75755   5.463   5.513   7.978 -0.0205 -0.0116 -0.4193
24075SOL    HW175756   5.556   5.529   7.963  1.1258 -4.1858  0.6252
24075SOL    HW275757   5.437   5.453   7.908 -2.0256  1.2149 -0.7981
24076SOL     OW75758   8.695   4.814   7.478 -0.2344 -0.1382 -0.2314
24076SOL    HW175759   8.735   4.811   7.564  0.7511  1.4688 -0.5906
24076SOL    HW275760   8.719   4.730   7.437  0.4118 -0.3522  0.5686
24077SOL     OW75761   8.830   2.285   4.199 -0.2239 -0.3189  0.8259
24077SOL    HW175762   8.845   2.197   4.163  0.8636 -0.1814  0.9138
24077SOL    HW275763   8.874   2.344   4.139  1.0518 -0.0348  1.9974
24078SOL     OW75764  10.285   4.657   7.626  0.3808 -0.6215 -0.2492
24078SOL    HW175765  10.225   4.729   7.608  0.6287 -0.8268 -1.9887
24078SOL    HW275766  10.252   4.584   7.575  0.8090 -1.4227  0.5806
24079SOL     OW75767  10.242   8.576   2.894  0.2319  0.1706 -0.2443
24079SOL    HW175768  10.283   8.639   2.953 -1.0601  0.0016  0.8906
24079SOL    HW275769  10.305   8.504   2.887  0.1910 -0.0705  1.4183
24080SOL     OW75770   0.768  10.520   9.282  0.0952  0.1576  0.5207
24080SOL    HW175771   0.773  10.607   9.322 -0.3752 -0.2390  1.4917
24080SOL    HW275772   0.677  10.514   9.251 -0.1549 -0.3365  1.3192
24081SOL     OW75773   0.532   4.121   5.028 -0.3525 -0.0364  0.3606
24081SOL    HW175774   0.473   4.130   5.102 -0.9910 -1.3043  0.0310
24081SOL    HW275775   0.477   4.091   4.956  0.2896  0.9809 -0.5928
24082SOL     OW75776   5.002   9.474   9.757 -0.0994  0.2399  0.4811
24082SOL    HW175777   4.963   9.561   9.767 -0.2253  0.2307  0.1008
24082SOL    HW275778   5.045   9.457   9.841  0.6600  1.0269  0.2707
24083SOL     OW75779   5.665   9.498   4.534  0.3561  0.4008  0.0934
24083SOL    HW175780   5.664   9.590   4.560 -1.8679  0.2476  0.7969
24083SOL    HW275781   5.657   9.500   4.439 -0.5259  0.9488  0.1664
24084SOL     OW75782   9.959   5.758   1.339 -0.0296  0.1156  0.5123
24084SOL    HW175783   9.913   5.841   1.347  2.1188  1.2304  2.7375
24084SOL    HW275784   9.992   5.757   1.249 -0.8643  1.2100  0.1740
24085SOL     OW75785   0.644   0.544   5.500  0.6617 -0.0396 -0.6148
24085SOL    HW175786   0.699   0.611   5.542 -1.0134  2.6969 -2.4765
24085SOL    HW275787   0.581   0.520   5.568  0.1147  1.7482 -0.4422
24086SOL     OW75788   6.080   3.113   5.882 -0.1447  0.3817 -0.1981
24086SOL    HW175789   6.030   3.104   5.964 -0.4325  1.4843 -0.2446
24086SOL    HW275790   6.164   3.150   5.909  0.1042 -0.1000 -0.3011
24087SOL     OW75791   7.571   1.350   1.425 -0.5733 -0.0978  0.4673
24087SOL    HW175792   7.505   1.395   1.374 -0.2038  0.2861  0.3238
24087SOL    HW275793   7.570   1.260   1.392 -0.0675  0.2415 -0.4907
24088SOL     OW75794   7.048   9.986   4.975 -0.0156 -0.1593  0.6802
24088SOL    HW175795   7.070   9.957   4.887  1.6365  1.4970  0.4963
24088SOL    HW275796   6.953   9.975   4.981 -0.0882 -0.7392 -1.1314
24089SOL     OW75797   7.168   0.662   4.697  0.3762  0.5193  0.2478
24089SOL    HW175798   7.127   0.595   4.643  1.0266 -0.1369  0.5418
24089SOL    HW275799   7.215   0.613   4.765 -1.4069  1.3296  2.1952
24090SOL     OW75800   3.120   7.711   3.402 -0.4346  0.4227  0.2995
24090SOL    HW175801   3.135   7.622   3.371 -1.2515 -0.1094  1.3770
24090SOL    HW275802   3.205   7.739   3.436  0.0679  0.4345 -0.9266
24091SOL     OW75803   5.906   2.012   6.621  0.7491  0.5019 -0.1736
24091SOL    HW175804   5.916   1.918   6.605  0.9514  0.3921  0.5445
24091SOL    HW275805   5.988   2.050   6.591  1.1549  0.2910  0.6306
24092SOL     OW75806   4.847  10.398   8.981 -0.1351  0.3493  0.0800
24092SOL    HW175807   4.837  10.345   8.902  0.3492 -0.2348  0.4057
24092SOL    HW275808   4.910  10.350   9.034  0.6357  1.4536  0.2087
24093SOL     OW75809  10.267   5.815   6.150  0.0045 -0.1321 -0.3476
24093SOL    HW175810  10.220   5.895   6.173  0.5795  0.1204 -0.0286
24093SOL    HW275811  10.264   5.812   6.055  2.1011  1.6024 -0.5313
24094SOL     OW75812   3.149   9.132   1.549  0.3930 -0.1050  0.9034
24094SOL    HW175813   3.081   9.088   1.599 -0.7551  0.6224  0.0392
24094SOL    HW275814   3.155   9.220   1.587 -3.1601  1.8521 -2.3261
24095SOL     OW75815   8.641   8.510   8.377  0.4525 -0.1377  0.0242
24095SOL    HW175816   8.677   8.456   8.307 -0.2248 -0.3304 -0.1795
24095SOL    HW275817   8.547   8.494   8.374  0.0557  2.0243 -0.8609
24096SOL     OW75818   5.947  10.326   2.914 -0.0268 -0.6162  0.0612
24096SOL    HW175819   5.928  10.233   2.903  0.1730 -0.4858 -1.6571
24096SOL    HW275820   5.969  10.357   2.826 -1.7063  1.4206  0.2546
24097SOL     OW75821   0.004   6.811  10.238 -0.1836  0.3171  0.4273
24097SOL    HW175822  -0.085   6.829  10.270  0.0251 -0.7289  1.6950
24097SOL    HW275823   0.030   6.891  10.192 -1.0485  1.4053  1.7362
24098SOL     OW75824   0.473  10.409   1.983  0.3277  0.1241 -0.2710
24098SOL    HW175825   0.562  10.383   1.957  0.4394  0.8366 -0.6130
24098SOL    HW275826   0.481  10.501   2.006 -0.0625 -0.1360  0.9601
24099SOL     OW75827   0.320   7.840   7.187 -0.7712  0.3117  0.3342
24099SOL    HW175828   0.265   7.763   7.175  0.0710 -0.4249  1.0771
24099SOL    HW275829   0.409   7.806   7.191 -0.3441  1.3807  0.1484
24100SOL     OW75830   1.416   7.482  10.400  0.1006  0.1318 -0.0704
24100SOL    HW175831   1.389   7.516  10.485  0.0618  0.6701 -0.2913
24100SOL    HW275832   1.495   7.532  10.379  0.1839 -0.0915 -0.2884
24101SOL     OW75833   4.151   7.518   5.450  0.1317  0.3709 -0.2439
24101SOL    HW175834   4.070   7.467   5.451 -0.1218  0.7784  0.0646
24101SOL    HW275835   4.152   7.563   5.534  1.0162 -0.1546  0.0379
24102SOL     OW75836   2.502  11.089   8.951  0.0702 -0.4519  0.1328
24102SOL    HW175837   2.510  11.075   9.046 -1.2124 -0.2908  0.2759
24102SOL    HW275838   2.451  11.015   8.920 -1.1320  0.4645 -0.1270
24103SOL     OW75839   0.478   3.704  10.310 -0.3799 -0.0916 -0.5486
24103SOL    HW175840   0.445   3.645  10.243 -1.4028  2.2510 -2.2345
24103SOL    HW275841   0.474   3.791  10.270 -3.3574  1.8396  3.2567
24104SOL     OW75842   0.318   3.254   1.284 -0.5412  0.0780 -0.0101
24104SOL    HW175843   0.289   3.338   1.319  2.8556  1.3245  0.2398
24104SOL    HW275844   0.310   3.263   1.189 -2.0671 -0.1659  0.0644
24105SOL     OW75845   1.387   3.472   1.626 -0.4459  0.6564 -0.1646
24105SOL    HW175846   1.480   3.478   1.649 -0.3482  0.3039 -0.4430
24105SOL    HW275847   1.340   3.490   1.707 -0.1060 -1.5948  0.5986
24106SOL     OW75848  10.255   2.396   0.659  0.0358 -0.7093 -0.0446
24106SOL    HW175849  10.309   2.376   0.583  0.9485  0.5527  0.2480
24106SOL    HW275850  10.317   2.409   0.730 -0.7348 -0.6419  0.6329
24107SOL     OW75851   1.624   3.963   2.112  0.3852  0.0111  0.6238
24107SOL    HW175852   1.641   3.876   2.150 -2.0187 -1.3638 -1.1299
24107SOL    HW275853   1.582   4.012   2.182  1.1524 -0.4540  1.4335
24108SOL     OW75854   3.599   6.274   2.927 -0.2016  0.2260 -0.1120
24108SOL    HW175855   3.682   6.317   2.909  0.7398 -1.1682  0.6678
24108SOL    HW275856   3.563   6.320   3.003  0.0878  0.5526 -0.1737
24109SOL     OW75857   6.954   1.018  10.838  0.5638  0.2382 -0.1515
24109SOL    HW175858   6.886   1.084  10.826  2.1721  1.9037 -0.4635
24109SOL    HW275859   6.968   0.982  10.751  1.7988  1.7001 -0.5944
24110SOL     OW75860   6.446   2.226   3.906  0.2113 -0.0908 -0.2400
24110SOL    HW175861   6.377   2.289   3.886  0.3008  0.2103  0.3770
24110SOL    HW275862   6.402   2.159   3.959  0.9186  1.5325  2.6312
24111SOL     OW75863   7.840   3.448   7.973  0.1233  0.2730  0.0535
24111SOL    HW175864   7.779   3.482   8.038  0.0196  0.0970  0.0511
24111SOL    HW275865   7.804   3.363   7.949  0.4734  0.0783  0.1970
24112SOL     OW75866   3.646   0.944  11.028 -0.0580 -0.0378 -0.5221
24112SOL    HW175867   3.671   0.982  11.112  0.9525 -0.9949 -0.3606
24112SOL    HW275868   3.666   1.012  10.964 -0.3289  0.4998 -0.0443
24113SOL     OW75869   3.189   6.246   8.427 -0.3985  0.1569  0.1389
24113SOL    HW175870   3.268   6.292   8.457  0.2451 -1.1262  0.5041
24113SOL    HW275871   3.119   6.279   8.483 -0.4098  2.2096 -0.9712
24114SOL     OW75872   3.431   8.555   9.005  0.6748  0.2120  0.6348
24114SOL    HW175873   3.453   8.464   8.982  0.7938 -0.3075  2.6541
24114SOL    HW275874   3.478   8.571   9.086 -1.8798  0.9750  2.0798
24115SOL     OW75875  10.418   9.189   0.348  0.8031  0.4797  0.3232
24115SOL    HW175876  10.448   9.178   0.438  0.3672 -1.5693  0.2727
24115SOL    HW275877  10.491   9.160   0.294  0.6152  0.4747  0.0665
24116SOL     OW75878   0.408  10.655   7.599  0.0088  0.5195  0.0558
24116SOL    HW175879   0.410  10.560   7.610 -3.8875  0.3495  0.7295
24116SOL    HW275880   0.452  10.689   7.677  0.8607 -0.7307  0.1415
24117SOL     OW75881   9.148   4.495   5.399  0.2540  0.0687  0.7082
24117SOL    HW175882   9.199   4.568   5.364  1.0544 -1.0848 -0.6658
24117SOL    HW275883   9.214   4.433   5.431 -0.4342  0.3727  2.8367
24118SOL     OW75884   5.908  10.330   5.190  0.1397  0.1412  0.1805
24118SOL    HW175885   5.999  10.312   5.214  0.2896 -0.8081 -0.9733
24118SOL    HW275886   5.876  10.390   5.258  0.3005 -2.8417  3.1444
24119SOL     OW75887   1.066   9.019   5.621  0.2702  0.5074 -0.0102
24119SOL    HW175888   1.102   8.935   5.591  0.4218  0.3901  0.4912
24119SOL    HW275889   1.137   9.081   5.609  0.3064  0.4752  0.0365
24120SOL     OW75890   9.722   1.015  10.111  0.7121 -0.0107  0.0260
24120SOL    HW175891   9.730   1.100  10.068  0.2147 -0.3188 -0.6908
24120SOL    HW275892   9.652   1.027  10.175 -0.5781 -0.3483 -1.2817
24121SOL     OW75893   4.486   5.269   1.486 -0.5525 -0.2641  0.0678
24121SOL    HW175894   4.472   5.363   1.473 -0.7863 -0.4651 -1.2161
24121SOL    HW275895   4.419   5.245   1.550  0.0957  0.6008  1.1111
24122SOL     OW75896  11.078   5.463   7.747  0.0278 -0.2177 -0.0459
24122SOL    HW175897  11.059   5.458   7.654 -0.1246  1.5924 -0.1437
24122SOL    HW275898  11.157   5.517   7.753 -0.5196  0.5198  0.8999
24123SOL     OW75899   0.679   8.284   9.278  0.0212  0.4985  0.0024
24123SOL    HW175900   0.708   8.294   9.368 -1.6444  0.8335  0.5388
24123SOL    HW275901   0.741   8.222   9.239  1.8222  1.7060  0.8323
24124SOL     OW75902   1.687   1.969  10.165 -0.0447  0.4784 -0.6208
24124SOL    HW175903   1.702   2.036  10.099 -0.1912 -0.5660 -1.7428
24124SOL    HW275904   1.613   2.001  10.216  0.3919  1.5341 -0.6136
24125SOL     OW75905   8.806   3.282   0.868 -0.0201  0.0769  0.6984
24125SOL    HW175906   8.891   3.293   0.825  0.3176 -1.3388  0.9363
24125SOL    HW275907   8.760   3.364   0.853  1.3398  0.8155  0.4408
24126SOL     OW75908  10.520   5.049   4.699  0.6121 -0.0580  0.1399
24126SOL    HW175909  10.601   5.097   4.687  0.0659  0.7332 -0.4926
24126SOL    HW275910  10.517   5.031   4.793  1.0677  0.7303  0.3180
24127SOL     OW75911   9.943   2.262   6.739  0.2692 -0.0280 -0.7849
24127SOL    HW175912   9.872   2.273   6.803 -1.1039 -0.8846 -2.0977
24127SOL    HW275913   9.918   2.318   6.665 -0.4479 -2.3006 -2.3541
24128SOL     OW75914   2.196   2.771   7.021 -0.0380  0.3315 -0.5697
24128SOL    HW175915   2.275   2.806   7.062 -0.5626 -0.4815  1.2409
24128SOL    HW275916   2.223   2.687   6.984  0.0000  0.1447 -0.1225
24129SOL     OW75917   3.293   8.813   6.860  0.2822 -0.0403 -0.5825
24129SOL    HW175918   3.246   8.845   6.938 -0.0283 -4.1176  1.1228
24129SOL    HW275919   3.381   8.850   6.869 -0.0248  0.3762  1.1765
24130SOL     OW75920   4.459   4.706   9.477  0.0385  0.4357 -0.7530
24130SOL    HW175921   4.431   4.794   9.451 -0.5579  0.1033 -1.2717
24130SOL    HW275922   4.520   4.721   9.550 -0.5247  1.2455 -0.4305
24131SOL     OW75923  10.474   9.056   7.116 -0.2877  0.0278 -0.0521
24131SOL    HW175924  10.473   9.109   7.196  1.0178 -1.3807  0.9493
24131SOL    HW275925  10.466   8.965   7.147  0.2589 -0.5529 -1.5178
24132SOL     OW75926   9.126   2.611   8.087  0.1944  0.4778  0.1945
24132SOL    HW175927   9.062   2.610   8.158  1.1389  1.0185  1.0892
24132SOL    HW275928   9.179   2.689   8.104  0.9118  0.1954 -0.6801
24133SOL     OW75929   3.683   5.643   8.995  0.2046 -0.0356  0.3147
24133SOL    HW175930   3.753   5.703   9.018 -0.3676  1.1327 -0.8250
24133SOL    HW275931   3.608   5.673   9.047 -0.4116  1.0505 -1.1347
24134SOL     OW75932   4.683   9.519   7.562  0.1540  0.7921 -0.1966
24134SOL    HW175933   4.592   9.504   7.588  0.0910  0.2976 -0.6865
24134SOL    HW275934   4.734   9.467   7.624 -0.0521 -1.3772 -1.7281
24135SOL     OW75935   6.251   0.298   0.876  0.1270 -0.2973  0.2809
24135SOL    HW175936   6.164   0.339   0.875  0.3758  0.2969 -1.4806
24135SOL    HW275937   6.285   0.317   0.963 -0.0119  2.8473 -0.2284
24136SOL     OW75938   5.070   4.816   2.715 -0.1697 -0.4103  0.5578
24136SOL    HW175939   5.104   4.894   2.671  0.2577 -0.6953  0.3755
24136SOL    HW275940   5.033   4.763   2.645 -0.0292 -0.5893  0.6182
24137SOL     OW75941   6.033   3.131   3.219 -0.3369 -0.5721  0.7281
24137SOL    HW175942   6.085   3.136   3.300 -0.1113 -2.1057  0.7095
24137SOL    HW275943   5.948   3.098   3.248 -0.6110 -0.0959  0.4723
24138SOL     OW75944   6.608   0.882   6.808 -0.2319 -0.2356 -0.7524
24138SOL    HW175945   6.665   0.953   6.836 -1.8932 -0.2395  3.2052
24138SOL    HW275946   6.653   0.802   6.834 -0.0503 -0.4959 -1.8020
24139SOL     OW75947   4.215   1.140   9.943  0.0270  0.1905 -0.3779
24139SOL    HW175948   4.174   1.066   9.898  1.3338 -1.2043  0.5929
24139SOL    HW275949   4.267   1.184   9.875 -0.1076 -0.2856 -0.7937
24140SOL     OW75950   8.941   1.250  10.086 -0.4734 -0.2178  0.0621
24140SOL    HW175951   8.931   1.344  10.103 -2.4942 -0.4283  0.3200
24140SOL    HW275952   8.952   1.244   9.991  1.1822  0.3488  0.1900
24141SOL     OW75953   1.144   1.220   4.604  0.1053 -0.1662 -0.2011
24141SOL    HW175954   1.080   1.226   4.533 -0.9956 -1.5720  0.6022
24141SOL    HW275955   1.201   1.295   4.591  0.7701 -1.0480 -3.3247
24142SOL     OW75956   1.016   5.800   8.224 -0.0003  0.0276 -0.2430
24142SOL    HW175957   0.938   5.779   8.276 -0.3963  1.4228 -0.2545
24142SOL    HW275958   0.992   5.777   8.135 -0.7664  1.3529 -0.3952
24143SOL     OW75959   4.423   1.138   0.244 -0.1604 -0.4416 -0.1283
24143SOL    HW175960   4.474   1.147   0.163  0.3802  0.0986  0.2674
24143SOL    HW275961   4.485   1.105   0.309 -0.3919 -0.1142  0.2656
24144SOL     OW75962   3.325   5.901   5.604  1.1166  0.7762  0.2660
24144SOL    HW175963   3.348   5.990   5.578  3.6964  0.8918  2.4858
24144SOL    HW275964   3.285   5.912   5.691 -2.6821  0.0214 -1.1867
24145SOL     OW75965   9.248  10.159   5.777  0.0771 -0.3362  0.2732
24145SOL    HW175966   9.309  10.190   5.710  1.9238 -2.7254  0.6813
24145SOL    HW275967   9.161  10.173   5.740  0.9415  1.1214 -1.3130
24146SOL     OW75968   9.632   6.556   2.265 -0.3275 -0.5360 -0.2723
24146SOL    HW175969   9.578   6.635   2.260 -0.1074 -0.2742  0.9646
24146SOL    HW275970   9.705   6.572   2.205 -0.7787 -0.1987 -0.7325
24147SOL     OW75971  11.038   3.550   8.414 -0.1271 -0.2696  0.2011
24147SOL    HW175972  10.967   3.550   8.349 -1.1895  0.2698  1.3370
24147SOL    HW275973  11.010   3.613   8.480  1.1525 -0.4831  0.9678
24148SOL     OW75974  10.884  10.710   2.927  0.0346 -0.0800 -0.3397
24148SOL    HW175975  10.877  10.799   2.960 -2.5955 -0.3152  0.0021
24148SOL    HW275976  10.801  10.695   2.880  0.7420 -2.0652 -1.0862
24149SOL     OW75977   6.785   5.934  10.171 -0.3414  0.9263  0.1281
24149SOL    HW175978   6.743   6.018  10.190 -2.2289  0.0621  0.0156
24149SOL    HW275979   6.758   5.877  10.243 -0.4796 -0.0383 -0.6608
24150SOL     OW75980   1.549   0.195   6.371 -0.6983  0.0412  0.0020
24150SOL    HW175981   1.484   0.229   6.432 -0.2791 -0.4629  0.7482
24150SOL    HW275982   1.511   0.113   6.339 -0.9263  0.3143 -0.4439
24151SOL     OW75983   6.751   6.165   6.191 -0.0966 -0.0135 -0.0381
24151SOL    HW175984   6.699   6.141   6.268  0.7039 -0.6677  0.3103
24151SOL    HW275985   6.823   6.217   6.227  0.0911 -0.0282 -0.3905
24152SOL     OW75986   5.552  11.066   3.402  0.1190 -0.3827  0.6235
24152SOL    HW175987   5.603  11.036   3.327  0.2936  0.8189  0.2382
24152SOL    HW275988   5.618  11.092   3.467  0.0004  0.4117  0.4344
24153SOL     OW75989   8.346   6.309   7.724 -0.5339 -0.1340  0.1006
24153SOL    HW175990   8.334   6.382   7.784 -0.3438  1.7824 -2.0186
24153SOL    HW275991   8.441   6.294   7.724 -0.4169  0.5273 -0.3891
24154SOL     OW75992   7.394   0.179   9.936  0.2853  0.1506 -0.0662
24154SOL    HW175993   7.339   0.193   9.859  0.1469 -2.1390 -0.4759
24154SOL    HW275994   7.333   0.148  10.004  0.7121 -0.0762  0.2237
24155SOL     OW75995   1.415   8.060   0.923  0.1248 -0.9592 -0.1051
24155SOL    HW175996   1.433   7.969   0.900 -0.6848 -0.8839 -1.1500
24155SOL    HW275997   1.389   8.058   1.014  0.0232 -1.7880 -0.1478
24156SOL     OW75998   1.326   9.318   4.176  0.1474 -0.4176 -0.4096
24156SOL    HW175999   1.343   9.283   4.264 -0.8023 -0.7335 -0.3465
24156SOL    HW276000   1.346   9.411   4.184  0.8160 -0.5752 -0.0689
24157SOL     OW76001   4.564   9.920   8.651 -0.1315  0.0102 -0.0587
24157SOL    HW176002   4.612   9.854   8.601  0.4868  0.7669 -0.4958
24157SOL    HW276003   4.604   9.917   8.739 -1.8801 -2.0032  0.7383
24158SOL     OW76004  10.174   3.844  10.869  0.2247  1.0584 -0.0864
24158SOL    HW176005  10.085   3.871  10.845 -0.7366  1.2207  3.1491
24158SOL    HW276006  10.212   3.921  10.911  0.5247 -0.0338  1.7717
24159SOL     OW76007   9.324   9.607   9.041  0.4646 -0.2388  0.5754
24159SOL    HW176008   9.330   9.527   9.094 -1.2346 -0.8759 -0.1385
24159SOL    HW276009   9.409   9.614   8.998  0.9734 -1.1103  1.4032
24160SOL     OW76010   0.260   7.137   5.715 -0.0143 -0.3049  0.3268
24160SOL    HW176011   0.327   7.088   5.668 -0.8968 -3.2224  1.8215
24160SOL    HW276012   0.184   7.137   5.657  0.9240  2.4029 -1.0769
24161SOL     OW76013   4.168   1.327   0.717 -0.2577 -0.0334  0.5746
24161SOL    HW176014   4.098   1.272   0.684 -0.6928 -0.6639  2.3946
24161SOL    HW276015   4.246   1.300   0.669 -1.0753  0.1043 -0.8900
24162SOL     OW76016  11.024   5.146   5.335  0.0525 -0.4356 -0.2681
24162SOL    HW176017  10.944   5.097   5.318  1.2416 -2.6020  0.0871
24162SOL    HW276018  11.077   5.136   5.256 -1.4782  4.4714 -2.3495
24163SOL     OW76019   9.396   7.134   7.372  1.0924  0.3070  0.0279
24163SOL    HW176020   9.468   7.197   7.368  0.9288  0.4363 -1.0505
24163SOL    HW276021   9.320   7.181   7.338  0.7043 -0.1287  0.2623
24164SOL     OW76022   2.870   9.697   3.538  0.3802  0.6471  0.2479
24164SOL    HW176023   2.846   9.614   3.579  0.4627  0.6002  0.2008
24164SOL    HW276024   2.826   9.696   3.453  1.5230  0.0210 -0.3562
24165SOL     OW76025   6.325   8.368   0.329 -0.0280 -0.3476  0.3346
24165SOL    HW176026   6.264   8.401   0.395 -0.0294 -0.0817  0.2018
24165SOL    HW276027   6.377   8.302   0.375 -0.9363 -1.1410  0.2522
24166SOL     OW76028   3.571   8.932   4.090  0.8252 -0.0594 -0.0683
24166SOL    HW176029   3.502   8.916   4.155  0.9334 -1.2929 -0.2305
24166SOL    HW276030   3.649   8.948   4.142  0.8671 -0.8325  0.1283
24167SOL     OW76031   9.539   8.244   9.877  0.2631 -0.0313 -0.3959
24167SOL    HW176032   9.470   8.191   9.836 -0.7648  0.0148  1.1727
24167SOL    HW276033   9.576   8.295   9.805 -3.0097  1.7696 -1.0137
24168SOL     OW76034   4.233   4.795   6.402  1.3851  0.5801  0.4415
24168SOL    HW176035   4.306   4.734   6.414  1.6968  0.8207 -0.1979
24168SOL    HW276036   4.186   4.792   6.485  0.2738 -2.0129 -0.1654
24169SOL     OW76037   4.192   5.917   0.110 -0.3884 -0.0333  0.4370
24169SOL    HW176038   4.103   5.942   0.084 -0.3325  0.3638  0.6245
24169SOL    HW276039   4.199   5.825   0.085 -1.3714 -0.5162  1.7990
24170SOL     OW76040   1.904   6.388   4.569  0.6968  0.6529 -0.3421
24170SOL    HW176041   1.882   6.310   4.620  0.1235  0.2403 -1.2086
24170SOL    HW276042   1.929   6.453   4.635 -1.6931  0.6861  0.6306
24171SOL     OW76043   7.009   8.081  11.067 -0.1628  0.2004  0.0298
24171SOL    HW176044   7.099   8.103  11.090 -0.5146  1.6430  0.1653
24171SOL    HW276045   6.985   8.146  11.001 -0.6249 -1.1128 -1.1376
24172SOL     OW76046   8.135   8.643   7.554  1.0429 -0.4263  0.1820
24172SOL    HW176047   8.166   8.579   7.491  2.0891  1.9318 -1.8875
24172SOL    HW276048   8.084   8.706   7.501 -0.3720  0.1932  2.1665
24173SOL     OW76049   6.633   7.984   4.030  0.0025 -0.1599  0.6188
24173SOL    HW176050   6.558   8.016   4.079  0.2658  0.0806  0.8729
24173SOL    HW276051   6.704   7.979   4.095 -0.3129 -2.3756  0.8515
24174SOL     OW76052   0.143   7.903  11.007  0.0499 -0.2155  0.3513
24174SOL    HW176053   0.173   7.968  10.943  2.4511 -0.9966  0.5808
24174SOL    HW276054   0.127   7.955  11.087  2.9122  0.1194  0.8402
24175SOL     OW76055   9.959   1.060   0.318 -0.4415 -0.4015  0.2861
24175SOL    HW176056   9.965   1.088   0.410  1.4829  1.3101 -0.2830
24175SOL    HW276057  10.001   0.974   0.316 -0.8386 -0.6257  1.0445
24176SOL     OW76058   7.043   2.475   1.543  0.2334 -0.5116  0.1490
24176SOL    HW176059   6.972   2.446   1.599 -0.8894  1.2390 -0.3151
24176SOL    HW276060   7.002   2.491   1.458  1.0771  0.8830 -0.0306
24177SOL     OW76061   2.011   0.220   7.942  0.0189 -0.1324 -0.4800
24177SOL    HW176062   2.013   0.139   7.994 -0.2002 -0.0642 -0.3655
24177SOL    HW276063   2.070   0.280   7.988  0.6199 -0.4113 -0.8728
24178SOL     OW76064  10.318   2.277   3.962  0.3424  0.4079 -0.3099
24178SOL    HW176065  10.297   2.309   4.050 -0.3191  0.0335 -0.3315
24178SOL    HW276066  10.338   2.184   3.974 -0.3547  0.2110 -0.6452
24179SOL     OW76067   3.428   2.341   2.708  0.8855  0.1807 -0.0243
24179SOL    HW176068   3.344   2.314   2.672  0.7556 -1.0704  1.1081
24179SOL    HW276069   3.493   2.310   2.645  0.5650 -0.1021 -0.2158
24180SOL     OW76070   7.941   4.668   0.443 -0.6882 -0.2829 -0.5135
24180SOL    HW176071   7.947   4.587   0.494 -2.1132  0.5968  1.1476
24180SOL    HW276072   8.017   4.665   0.385  0.2796 -1.9607  0.7422
24181SOL     OW76073   3.833   2.404   1.827  0.1265 -0.0963  0.4147
24181SOL    HW176074   3.789   2.350   1.761  1.7683 -0.4510 -0.4434
24181SOL    HW276075   3.807   2.493   1.806 -1.9580 -0.4344  1.3350
24182SOL     OW76076  10.373   0.804   9.997 -0.5718  0.2400 -0.2633
24182SOL    HW176077  10.436   0.758  10.053 -1.7171 -0.5432  0.4162
24182SOL    HW276078  10.428   0.852   9.934  0.6882 -0.9953 -0.1628
24183SOL     OW76079   2.720   1.280   4.343 -0.7131 -0.1209 -0.1111
24183SOL    HW176080   2.739   1.281   4.249  0.4160  0.2556  0.0995
24183SOL    HW276081   2.701   1.371   4.364  1.3042  0.2331  0.4165
24184SOL     OW76082   7.140   2.905   6.397  0.2508  0.0662  0.1275
24184SOL    HW176083   7.203   2.835   6.380 -2.5204 -2.3051 -1.0893
24184SOL    HW276084   7.100   2.922   6.312 -1.8313  0.3419  1.1087
24185SOL     OW76085   0.862   9.723   0.977  0.1074  0.2593 -0.2448
24185SOL    HW176086   0.809   9.758   1.048 -0.5606 -0.2776 -0.4767
24185SOL    HW276087   0.877   9.798   0.919  1.5385  0.9774  0.9517
24186SOL     OW76088   1.708   4.419   3.514 -0.0436  0.3309  0.6477
24186SOL    HW176089   1.692   4.493   3.455  0.9540 -0.3627 -0.5425
24186SOL    HW276090   1.791   4.382   3.484 -0.5135 -1.2680  1.2282
24187SOL     OW76091  10.653   0.507   6.253  0.3641 -0.2552 -0.1740
24187SOL    HW176092  10.643   0.453   6.174  1.7915 -3.2473  1.5265
24187SOL    HW276093  10.570   0.495   6.301  0.0986  0.3189 -0.4786
24188SOL     OW76094   4.158   2.484   4.880  0.1248 -0.3108  0.3854
24188SOL    HW176095   4.188   2.512   4.966 -0.9260  0.6166  0.4707
24188SOL    HW276096   4.129   2.394   4.893  1.0152 -0.5504  0.7385
24189SOL     OW76097   3.523   8.746   9.941 -0.4041  0.1242  0.2862
24189SOL    HW176098   3.430   8.753   9.919 -0.2539  0.0320 -0.3743
24189SOL    HW276099   3.528   8.776  10.032 -1.2178 -0.7838  0.6383
24190SOL     OW76100   8.353   6.100   6.201 -0.6796 -0.1235 -0.2245
24190SOL    HW176101   8.326   6.045   6.127 -2.7198  1.5531 -0.8536
24190SOL    HW276102   8.380   6.182   6.160 -1.0350  0.5425  0.8413
24191SOL     OW76103   1.087  10.970   3.290  0.0985 -0.2938 -0.1418
24191SOL    HW176104   1.095  10.937   3.200  3.7702 -0.4652  0.1344
24191SOL    HW276105   1.087  11.066   3.280  4.7525 -0.0915 -0.3417
24192SOL     OW76106   9.254   3.306  10.613 -0.4674 -0.3790 -0.4603
24192SOL    HW176107   9.322   3.348  10.561  0.1043  0.7008  1.0838
24192SOL    HW276108   9.264   3.213  10.594  1.3321 -0.2341 -0.4186
24193SOL     OW76109   6.257   2.150   9.190  0.0963 -0.4563 -0.1407
24193SOL    HW176110   6.164   2.127   9.178  0.5704 -1.5432 -2.2886
24193SOL    HW276111   6.269   2.228   9.136  0.2097  0.4248  1.1073
24194SOL     OW76112   2.017   1.669   3.558  0.1652  0.1670  0.2467
24194SOL    HW176113   1.927   1.653   3.588 -0.2620  0.6642 -0.7016
24194SOL    HW276114   2.070   1.605   3.605 -0.4150  1.0259  2.1839
24195SOL     OW76115   6.881   9.828   7.886  0.2659  0.1114 -0.8356
24195SOL    HW176116   6.928   9.838   7.803  1.3871 -0.2265 -0.2662
24195SOL    HW276117   6.948   9.797   7.948 -0.9743 -1.6877 -0.3074
24196SOL     OW76118  10.246   2.700   3.209  0.1990  0.3326  0.6330
24196SOL    HW176119  10.245   2.747   3.126  1.3983  0.8358  0.8856
24196SOL    HW276120  10.255   2.768   3.275  0.6241 -0.1624  1.0907
24197SOL     OW76121   7.422   8.178   5.997  0.3406  0.4150  0.6544
24197SOL    HW176122   7.450   8.249   5.940  1.9856 -0.0903  0.7532
24197SOL    HW276123   7.495   8.115   5.994 -0.8791 -1.0777  0.8726
24198SOL     OW76124   0.663   3.852   8.784 -0.0292 -0.1418  0.0039
24198SOL    HW176125   0.743   3.869   8.835 -0.5172 -1.0857  1.1254
24198SOL    HW276126   0.662   3.921   8.718  1.0064  0.6905  0.8238
24199SOL     OW76127   5.416   9.952   5.808 -0.4109  0.7035 -0.0450
24199SOL    HW176128   5.446  10.042   5.803 -0.8238  0.8449 -0.0604
24199SOL    HW276129   5.321   9.959   5.817 -0.4176  0.2771  0.2597
24200SOL     OW76130  10.468   7.409   0.836  0.1056  0.4511  0.2227
24200SOL    HW176131  10.519   7.490   0.844 -0.3062  0.7446 -0.1157
24200SOL    HW276132  10.468   7.390   0.742 -1.0984  0.8961  0.1276
24201SOL     OW76133   5.939   4.738   0.449 -0.7434  0.0578  1.0750
24201SOL    HW176134   5.860   4.757   0.399  0.2000 -0.4731 -0.6688
24201SOL    HW276135   5.983   4.822   0.459  0.2076 -0.1270 -1.0509
24202SOL     OW76136   0.842   4.682  10.259  0.0523  0.7550 -0.1910
24202SOL    HW176137   0.848   4.706  10.351  3.0932 -1.3446  0.3266
24202SOL    HW276138   0.757   4.637  10.252  0.1644  0.1007  1.8395
24203SOL     OW76139   1.159   1.840   4.598 -0.3687  0.3157  0.4601
24203SOL    HW176140   1.072   1.867   4.625 -0.7098  1.2618 -1.4487
24203SOL    HW276141   1.168   1.750   4.632 -2.4146 -0.1297 -0.0402
24204SOL     OW76142   0.267   0.992   8.570  0.5221  0.0326  0.0079
24204SOL    HW176143   0.244   1.046   8.646  1.7461  0.8294 -0.1664
24204SOL    HW276144   0.220   1.032   8.497 -0.8008 -0.8412  0.3455
24205SOL     OW76145   1.986   0.815   9.571 -0.2311  0.0332  0.4974
24205SOL    HW176146   1.974   0.884   9.507 -0.4400  0.1733  0.6863
24205SOL    HW276147   2.081   0.804   9.578 -0.1814  0.6503  0.8381
24206SOL     OW76148   7.594   5.348   4.228 -0.1493 -0.6454  0.3570
24206SOL    HW176149   7.575   5.403   4.304  1.0827 -0.4731  0.5668
24206SOL    HW276150   7.682   5.374   4.201 -0.4292 -0.9608 -0.9150
24207SOL     OW76151   6.499   0.555   6.234 -0.7360  0.0182 -0.2076
24207SOL    HW176152   6.546   0.536   6.315  0.1464  0.6164 -0.5598
24207SOL    HW276153   6.440   0.481   6.222 -1.0130 -0.0026  1.0671
24208SOL     OW76154   1.564   4.279   2.835  0.2187 -0.2236  0.5763
24208SOL    HW176155   1.641   4.302   2.782  1.0430 -1.5415  1.1620
24208SOL    HW276156   1.554   4.352   2.895 -1.2359  1.7332 -1.8368
24209SOL     OW76157   2.640   7.972   1.791 -0.3109 -0.6741 -0.2953
24209SOL    HW176158   2.614   7.907   1.857 -0.1816 -1.4833 -1.0279
24209SOL    HW276159   2.627   8.056   1.835 -0.9534 -1.1687  0.5086
24210SOL     OW76160   9.833   3.209   3.382 -0.2477 -0.1527  0.1690
24210SOL    HW176161   9.881   3.127   3.377 -0.4755 -0.4087  1.7097
24210SOL    HW276162   9.812   3.220   3.474 -1.6787  0.8060 -0.2215
24211SOL     OW76163  10.470   2.887   3.587  0.1172  0.7077 -0.0121
24211SOL    HW176164  10.526   2.839   3.648 -1.2284  0.2262  0.8889
24211SOL    HW276165  10.523   2.895   3.508  1.4512  0.2672  0.7871
24212SOL     OW76166  10.581   7.874   2.205 -0.1250  0.3682 -0.9218
24212SOL    HW176167  10.584   7.919   2.290  1.2692 -1.6202  0.1403
24212SOL    HW276168  10.529   7.933   2.149 -0.3801  2.1275  1.0449
24213SOL     OW76169   6.027   2.248   2.290  0.0782  0.2333 -0.0185
24213SOL    HW176170   5.963   2.240   2.360 -0.2670  1.0954 -0.2280
24213SOL    HW276171   6.073   2.330   2.307 -2.3103  2.2859 -2.6115
24214SOL     OW76172  10.765   0.351   9.476  0.3450  0.1798  0.2156
24214SOL    HW176173  10.671   0.357   9.461  0.3666 -1.3592 -0.8642
24214SOL    HW276174  10.787   0.260   9.454  1.9778  0.3147  1.0941
24215SOL     OW76175   1.766   7.735   3.091 -0.0095 -0.4317 -0.1132
24215SOL    HW176176   1.702   7.693   3.034  1.3503 -0.5040 -1.6667
24215SOL    HW276177   1.762   7.827   3.068 -0.1134 -0.3070  0.3813
24216SOL     OW76178   8.550   4.067  10.440  0.1391  0.1266  0.9626
24216SOL    HW176179   8.607   4.009  10.490  0.6871 -0.2626 -0.0751
24216SOL    HW276180   8.572   4.048  10.348 -2.6556 -1.0837  0.4427
24217SOL     OW76181   6.383   5.771   8.896 -0.1960 -0.4247  0.3125
24217SOL    HW176182   6.318   5.821   8.847  0.7814 -0.7146 -1.3546
24217SOL    HW276183   6.351   5.772   8.986 -2.7433 -0.9450 -0.5085
24218SOL     OW76184   4.004   1.291   9.766  0.3572 -0.0961 -0.8023
24218SOL    HW176185   3.965   1.345   9.697  0.1384 -0.3369 -0.8699
24218SOL    HW276186   4.091   1.327   9.779 -0.1402  0.9093 -0.1496
24219SOL     OW76187   1.442   5.063   2.413  0.3860 -0.2459  0.6715
24219SOL    HW176188   1.535   5.049   2.395  0.0662 -0.2598 -1.2284
24219SOL    HW276189   1.440   5.117   2.492  2.0787  1.1164 -0.1533
24220SOL     OW76190   0.762  10.125   4.185 -0.0837  0.4467 -0.3435
24220SOL    HW176191   0.784  10.149   4.275  0.7401 -0.0048 -0.4193
24220SOL    HW276192   0.666  10.126   4.183 -0.1584 -0.8344  0.9077
24221SOL     OW76193  10.969   2.553   7.364 -0.0039  0.3890 -0.1568
24221SOL    HW176194  10.972   2.512   7.451 -0.4424 -0.0101 -0.3286
24221SOL    HW276195  10.918   2.493   7.311  1.5497 -0.1500 -1.1189
24222SOL     OW76196   2.649   2.244  10.396  0.2689  0.2722 -0.1581
24222SOL    HW176197   2.589   2.273  10.465  0.7246  1.7034 -0.3316
24222SOL    HW276198   2.600   2.259  10.314 -0.7813 -2.6341 -0.1617
24223SOL     OW76199   9.721   0.743   2.756  0.2137 -0.1120  0.1653
24223SOL    HW176200   9.714   0.726   2.662  0.5579 -0.5090  0.2058
24223SOL    HW276201   9.683   0.666   2.798 -1.4649  0.7793  0.3657
24224SOL     OW76202   0.780  10.402   8.409  0.5045 -0.0129  0.0556
24224SOL    HW176203   0.825  10.480   8.377  1.7539 -0.9298 -0.4701
24224SOL    HW276204   0.758  10.423   8.500 -0.8680  1.6521 -0.5920
24225SOL     OW76205   8.815  10.737   9.500  0.0920  0.5611  0.2319
24225SOL    HW176206   8.871  10.672   9.458  0.6921  0.9715  0.3781
24225SOL    HW276207   8.726  10.703   9.490  0.4405 -0.5767  0.8303
24226SOL     OW76208   0.094   2.426   9.513 -0.0068  0.1824 -0.2035
24226SOL    HW176209   0.037   2.377   9.453 -3.5291 -0.9781  3.6120
24226SOL    HW276210   0.182   2.392   9.496 -1.5564 -3.9376 -1.1811
24227SOL     OW76211   9.824   8.695   7.505  0.1438 -0.0363 -0.5942
24227SOL    HW176212   9.835   8.685   7.600  1.3749  2.0449 -0.4475
24227SOL    HW276213   9.747   8.751   7.496  0.0641 -0.1826 -0.8087
24228SOL     OW76214   3.801   9.889   8.528 -0.1985 -0.0066  0.1250
24228SOL    HW176215   3.860   9.867   8.456 -1.2648  0.3342 -0.8942
24228SOL    HW276216   3.843   9.852   8.606  1.2294  0.0558 -0.5901
24229SOL     OW76217   2.575   9.460   4.256 -0.1296 -0.4635  0.1354
24229SOL    HW176218   2.536   9.383   4.215  0.1736 -2.1915  2.8189
24229SOL    HW276219   2.667   9.456   4.232 -0.0202 -1.2681  0.6205
24230SOL     OW76220   3.219   2.078   9.728  0.2594 -0.0789 -0.4545
24230SOL    HW176221   3.141   2.024   9.735  1.0322 -1.0715  0.9800
24230SOL    HW276222   3.230   2.092   9.634 -1.5705  0.0202 -0.6823
24231SOL     OW76223   9.157   5.357   1.212  0.3257  0.3208  0.0211
24231SOL    HW176224   9.192   5.439   1.247 -3.7565  1.7031  1.5576
24231SOL    HW276225   9.142   5.302   1.289 -0.9080 -0.0665 -0.4598
24232SOL     OW76226   0.826   7.430   7.800 -0.0382 -0.5158 -0.0203
24232SOL    HW176227   0.841   7.405   7.708 -1.2756  0.9660 -0.6591
24232SOL    HW276228   0.913   7.452   7.833  0.5013 -1.5821 -0.6577
24233SOL     OW76229  10.704   3.751   1.059  0.0346  0.0729  0.2187
24233SOL    HW176230  10.634   3.816   1.063  0.5100  0.7703 -1.7012
24233SOL    HW276231  10.659   3.668   1.042 -0.3338  0.6124 -1.6492
24234SOL     OW76232   6.557   8.348   5.840 -0.8280  0.6681 -0.3817
24234SOL    HW176233   6.472   8.392   5.845  0.1850  2.6807  0.1417
24234SOL    HW276234   6.596   8.360   5.927  0.1386  0.0553 -0.7129
24235SOL     OW76235   0.372   5.897   2.756 -0.2508 -0.0525  0.1467
24235SOL    HW176236   0.454   5.939   2.731 -0.2802 -0.3819 -0.5474
24235SOL    HW276237   0.315   5.909   2.680 -0.6491 -0.3340  0.3937
24236SOL     OW76238  10.970   5.675   0.065 -0.3599  0.1821 -0.2597
24236SOL    HW176239  10.975   5.647   0.157 -0.0283 -0.1252 -0.3669
24236SOL    HW276240  11.008   5.602   0.016  2.2816  1.5042 -0.4122
24237SOL     OW76241   2.543   9.443   2.156 -0.1495  0.0473  0.7436
24237SOL    HW176242   2.490   9.506   2.204  0.9499  0.9786  0.7853
24237SOL    HW276243   2.623   9.434   2.207  1.0998  1.1490 -0.8902
24238SOL     OW76244   0.031   9.164  10.852 -0.5339 -0.2507 -0.5194
24238SOL    HW176245   0.012   9.179  10.945 -1.0384  0.2831 -0.7064
24238SOL    HW276246   0.126   9.174  10.846 -0.4550 -0.6214 -0.0040
24239SOL     OW76247   8.924   6.248   0.299  0.1942  0.1157 -0.1465
24239SOL    HW176248   8.835   6.235   0.267  0.3464  1.2980 -1.0867
24239SOL    HW276249   8.920   6.223   0.392 -0.7131 -1.4069 -0.5564
24240SOL     OW76250   9.774   7.002   4.768  0.1522  0.0459 -0.3482
24240SOL    HW176251   9.713   7.027   4.838 -0.3984  0.2604 -0.8963
24240SOL    HW276252   9.860   7.005   4.810 -0.2164 -0.3930  0.4792
24241SOL     OW76253   2.088   6.987   7.451 -0.2566  0.0990  0.1381
24241SOL    HW176254   2.126   6.994   7.538 -2.2352  0.5581  1.0327
24241SOL    HW276255   2.053   6.898   7.447  2.8833 -1.2215 -1.6195
24242SOL     OW76256   7.327   4.708   7.769 -0.6393 -0.1196 -0.4756
24242SOL    HW176257   7.407   4.746   7.731 -0.3411 -0.7021 -0.4447
24242SOL    HW276258   7.321   4.747   7.856  0.0414 -0.6448 -0.1797
24243SOL     OW76259   9.359   0.520   7.567 -0.1352 -0.4263 -0.3774
24243SOL    HW176260   9.350   0.496   7.475 -1.7127  0.1541 -0.4069
24243SOL    HW276261   9.359   0.616   7.567 -1.0590 -0.4195  0.2978
24244SOL     OW76262   4.703   0.729   1.174 -0.5461  0.5028 -0.6148
24244SOL    HW176263   4.651   0.808   1.162  1.4790  2.1079  0.6572
24244SOL    HW276264   4.786   0.747   1.130  0.1359 -0.7114  0.1084
24245SOL     OW76265  10.587   0.165   8.884 -0.0917 -0.5628  0.1621
24245SOL    HW176266  10.643   0.114   8.942 -0.2122  0.1343  0.9001
24245SOL    HW276267  10.525   0.101   8.849  1.3445 -1.4034 -0.9261
24246SOL     OW76268   1.757   7.011   6.336 -0.1680  0.1413  0.0039
24246SOL    HW176269   1.815   7.018   6.412 -0.7387 -0.6697  0.5267
24246SOL    HW276270   1.800   7.064   6.268 -0.1094  1.6408  1.1568
24247SOL     OW76271   6.504   5.202  10.788 -0.1774  0.1267  0.0269
24247SOL    HW176272   6.519   5.291  10.819 -1.2471  0.1061  0.6222
24247SOL    HW276273   6.496   5.211  10.693  0.2548  0.5851  0.0292
24248SOL     OW76274   3.719   0.723  10.728 -0.2552 -0.1241  0.3681
24248SOL    HW176275   3.643   0.781  10.721 -2.0975 -2.3719  0.7096
24248SOL    HW276276   3.741   0.701  10.637 -0.9329 -0.5673  0.3039
24249SOL     OW76277   7.228   8.315  10.522 -0.0981 -0.1589 -0.2959
24249SOL    HW176278   7.241   8.359  10.607  0.0167  0.7454 -0.7711
24249SOL    HW276279   7.276   8.232  10.531  0.3538  0.1578  0.3424
24250SOL     OW76280  10.706   9.846   7.826 -0.4020  0.2781 -1.0225
24250SOL    HW176281  10.692   9.937   7.853 -0.1309  0.4825 -1.5599
24250SOL    HW276282  10.799   9.830   7.841 -0.6499 -0.2591  0.0822
24251SOL     OW76283   1.141  10.608   8.133 -0.2108  0.9876 -0.3544
24251SOL    HW176284   1.048  10.598   8.111 -0.1032 -0.0244 -0.3849
24251SOL    HW276285   1.142  10.629   8.226 -0.4074 -1.4255  0.2719
24252SOL     OW76286   4.297   2.715   9.733  0.1284 -0.3367 -0.0801
24252SOL    HW176287   4.258   2.724   9.647 -1.9163 -0.1386  0.8078
24252SOL    HW276288   4.311   2.621   9.744  1.4301 -0.2759 -1.0184
24253SOL     OW76289   3.479   3.260   0.085 -0.3033  0.3186 -0.3794
24253SOL    HW176290   3.448   3.257   0.175  0.3457  0.7016 -0.1349
24253SOL    HW276291   3.414   3.313   0.039 -0.4534  0.4163 -0.0576
24254SOL     OW76292   3.891   7.184   7.726  0.1070  0.2908  0.3128
24254SOL    HW176293   3.908   7.273   7.757  1.6185  0.5797 -1.1796
24254SOL    HW276294   3.798   7.171   7.740 -0.7308  3.1059 -1.7465
24255SOL     OW76295   1.688   6.769   6.494  0.3859  0.0921  0.2540
24255SOL    HW176296   1.690   6.797   6.585  0.2105  0.8436  0.0331
24255SOL    HW276297   1.669   6.849   6.444  0.4909 -0.3043 -0.4411
24256SOL     OW76298   7.927   9.274  10.050  0.3401 -0.2412 -0.5188
24256SOL    HW176299   8.019   9.249  10.041  0.9535  1.9729 -1.1459
24256SOL    HW276300   7.919   9.307  10.139  0.6029  1.0046 -0.9230
24257SOL     OW76301   5.306   6.710   5.617 -0.0752 -0.1773  0.2673
24257SOL    HW176302   5.378   6.772   5.635 -0.5576  0.7282 -0.8087
24257SOL    HW276303   5.314   6.691   5.523 -0.6040 -0.9017  0.3634
24258SOL     OW76304  10.541  10.258   7.013 -0.3099 -0.1464  0.5592
24258SOL    HW176305  10.473  10.254   7.080 -1.4244 -0.7158 -0.5696
24258SOL    HW276306  10.510  10.324   6.951  0.6992  0.3675  0.5856
24259SOL     OW76307   5.909   1.234   7.829  0.1260  0.3261 -0.1070
24259SOL    HW176308   6.005   1.237   7.837  0.3251  1.1013 -2.2460
24259SOL    HW276309   5.881   1.177   7.900  2.2067 -0.1685  0.3780
24260SOL     OW76310   0.876  10.127   9.056 -0.0723  0.2142  0.0269
24260SOL    HW176311   0.955  10.174   9.084 -0.0582 -0.0927  0.5153
24260SOL    HW276312   0.863  10.060   9.123 -0.6954  0.1988 -0.1060
24261SOL     OW76313   5.730   0.257   2.697  0.0494 -0.0849  0.2807
24261SOL    HW176314   5.766   0.290   2.614  0.8796  2.8670  1.7008
24261SOL    HW276315   5.639   0.288   2.696 -0.0165 -0.2793  0.3592
24262SOL     OW76316   4.736   5.827  10.752 -0.4588  0.3682 -0.0580
24262SOL    HW176317   4.660   5.771  10.763 -1.2115  1.0999 -1.3537
24262SOL    HW276318   4.795   5.802  10.824 -1.6700 -0.5787  0.6362
24263SOL     OW76319   4.712   2.497   2.821  0.2036  0.5202  0.0742
24263SOL    HW176320   4.745   2.586   2.812 -0.4408  0.6759 -1.0632
24263SOL    HW276321   4.783   2.442   2.789  0.3691  0.6757  0.1720
24264SOL     OW76322   9.339   4.697   3.441 -0.1714 -0.0729 -0.3740
24264SOL    HW176323   9.266   4.698   3.503  0.6636 -1.9054  0.7203
24264SOL    HW276324   9.389   4.777   3.461 -1.0173  0.4005 -0.1004
24265SOL     OW76325   2.223  10.117   0.367  0.5419 -0.0665 -0.0837
24265SOL    HW176326   2.203  10.175   0.440 -0.8764 -0.2072 -0.3356
24265SOL    HW276327   2.213  10.029   0.402  0.4812 -0.1399 -0.2837
24266SOL     OW76328   4.479   5.618   6.688 -0.6178  0.0014  1.0784
24266SOL    HW176329   4.533   5.544   6.714  0.0522  0.4766  1.0790
24266SOL    HW276330   4.442   5.592   6.603  0.2883 -0.0074  0.6693
24267SOL     OW76331   8.054   8.749   2.266 -0.4873 -0.0647 -0.4178
24267SOL    HW176332   8.091   8.661   2.267 -1.6932 -0.6024 -0.9559
24267SOL    HW276333   8.023   8.763   2.356 -0.3166 -0.1939 -0.3382
24268SOL     OW76334  10.848   7.258   2.229 -0.3196  0.1464  0.0133
24268SOL    HW176335  10.791   7.322   2.185  1.8476  1.5628 -0.9049
24268SOL    HW276336  10.879   7.201   2.158 -0.2034 -0.2999  0.4189
24269SOL     OW76337   7.368   1.432   3.359  0.3011 -0.3121  0.4378
24269SOL    HW176338   7.302   1.363   3.352 -0.4194  0.3876  0.2017
24269SOL    HW276339   7.388   1.437   3.452 -1.1909  0.5602  0.7479
24270SOL     OW76340  10.383   5.572   3.022  0.4846 -0.3168 -0.2392
24270SOL    HW176341  10.375   5.634   2.950  1.3928  0.7014  0.5122
24270SOL    HW276342  10.293   5.563   3.056  0.3602  0.6865 -0.2816
24271SOL     OW76343  11.109   7.031   2.579 -0.3100  0.4993  0.2040
24271SOL    HW176344  11.034   7.083   2.548 -0.2119  0.2524 -0.4682
24271SOL    HW276345  11.127   6.970   2.507 -0.2101 -0.2429  0.8391
24272SOL     OW76346   9.507   3.155   2.792 -0.4943  0.1757  0.7605
24272SOL    HW176347   9.594   3.138   2.758  0.0031  2.0237  0.9726
24272SOL    HW276348   9.499   3.100   2.870  1.4196  1.6210  2.0834
24273SOL     OW76349  10.962   6.273   3.753  0.6661  0.4583  0.9751
24273SOL    HW176350  10.986   6.231   3.670 -0.3125  1.3886  0.1881
24273SOL    HW276351  11.044   6.304   3.790  1.1333 -0.1336  0.4552
24274SOL     OW76352   1.337   4.210   9.383 -0.2930 -0.1181  0.3028
24274SOL    HW176353   1.394   4.276   9.424 -0.3441 -0.2287  0.5508
24274SOL    HW276354   1.267   4.196   9.446 -1.8163  1.6104 -0.8608
24275SOL     OW76355   3.952   8.204   9.106 -0.1933  0.5384  0.0358
24275SOL    HW176356   3.898   8.283   9.116  0.4379  0.8840  0.9360
24275SOL    HW276357   3.892   8.132   9.122 -0.7002  0.8476 -0.4279
24276SOL     OW76358   6.745   2.581  11.075  0.1159  0.4034 -0.0831
24276SOL    HW176359   6.822   2.617  11.120  0.7838 -1.1099  0.0395
24276SOL    HW276360   6.671   2.614  11.125  0.7861  0.0315  1.2159
24277SOL     OW76361   0.293  10.284   1.083 -0.0054  0.4103  0.0033
24277SOL    HW176362   0.297  10.367   1.130 -0.0130  0.2645  0.2643
24277SOL    HW276363   0.370  10.284   1.026  0.7111  0.0322  0.9497
24278SOL     OW76364   0.922   1.245   8.398  0.4436  0.1080  0.1990
24278SOL    HW176365   0.942   1.157   8.365 -2.0642 -0.8856  1.0835
24278SOL    HW276366   0.997   1.298   8.371  1.8669 -2.1950 -0.7109
24279SOL     OW76367   2.305   9.313   0.929 -0.3094  0.3355  0.0393
24279SOL    HW176368   2.382   9.274   0.886  1.2187  2.7544  0.3831
24279SOL    HW276369   2.232   9.293   0.870  0.6587 -1.4981 -0.6255
24280SOL     OW76370   2.688   0.304   8.340 -0.1031 -0.0999  0.8840
24280SOL    HW176371   2.669   0.397   8.344 -1.5429 -0.3572  0.4711
24280SOL    HW276372   2.709   0.279   8.430 -1.8082  0.2120  1.4036
24281SOL     OW76373   4.933   1.104   2.550  0.1440  0.1472 -0.2620
24281SOL    HW176374   4.970   1.016   2.552  0.4265  0.2181  3.0625
24281SOL    HW276375   5.009   1.162   2.543  0.1693  0.1721  0.2081
24282SOL     OW76376   8.998   5.706   6.730 -0.3046 -0.2778  0.0477
24282SOL    HW176377   8.903   5.711   6.719 -0.3773  0.6650  0.9951
24282SOL    HW276378   9.020   5.615   6.710 -1.6338 -0.9498  1.5096
24283SOL     OW76379   0.091   1.510   4.685 -0.1050 -0.5975  0.3352
24283SOL    HW176380   0.184   1.519   4.664 -0.5748  0.7293 -1.3813
24283SOL    HW276381   0.090   1.468   4.771  2.0742 -0.3619  0.5319
24284SOL     OW76382   1.182   8.945   8.824  0.4351  0.3720 -0.2513
24284SOL    HW176383   1.138   8.860   8.815 -0.4625  0.9227 -1.3096
24284SOL    HW276384   1.191   8.977   8.735  2.0268  0.7927  0.0392
24285SOL     OW76385   2.461   2.780   4.636 -0.2916  0.2018  0.2134
24285SOL    HW176386   2.551   2.761   4.664 -0.5970 -0.5732  0.7172
24285SOL    HW276387   2.435   2.701   4.587  0.3558  1.6419 -2.6618
24286SOL     OW76388   7.604   6.728   7.347  0.5841  0.4072  0.3649
24286SOL    HW176389   7.655   6.691   7.419 -1.6081 -0.4561  1.5849
24286SOL    HW276390   7.591   6.656   7.286  2.4807  1.1502 -1.0241
24287SOL     OW76391  10.881   4.878   4.897 -0.1545 -0.1052  0.1103
24287SOL    HW176392  10.967   4.853   4.933  0.8853  1.5381 -1.0646
24287SOL    HW276393  10.820   4.814   4.934  1.4521 -0.8856  1.5741
24288SOL     OW76394   8.823   9.800   4.551 -0.1982 -0.1633 -0.2449
24288SOL    HW176395   8.766   9.830   4.622  1.1950 -0.7527  1.1895
24288SOL    HW276396   8.858   9.716   4.582  0.5926 -0.3545 -1.5632
24289SOL     OW76397   9.051   8.139   8.494  0.6584 -0.0011 -0.4908
24289SOL    HW176398   9.020   8.153   8.404  1.7817 -1.2818 -1.1034
24289SOL    HW276399   9.018   8.053   8.518  0.9563  0.0358  0.0726
24290SOL     OW76400   5.550   4.677  10.428  0.3259  0.6560 -0.4287
24290SOL    HW176401   5.579   4.764  10.402  0.6422  1.4065  2.1182
24290SOL    HW276402   5.631   4.632  10.454  0.0045  0.1334 -0.3159
24291SOL     OW76403   0.522   9.677   4.693  0.5452  0.0953 -0.1481
24291SOL    HW176404   0.572   9.720   4.763 -1.2042  1.4090  0.3557
24291SOL    HW276405   0.588   9.630   4.642  2.0301  0.1313  1.6389
24292SOL     OW76406   6.564   0.453  10.531 -0.2546  0.1607 -0.0400
24292SOL    HW176407   6.584   0.506  10.454 -0.1300 -1.5283 -1.2206
24292SOL    HW276408   6.646   0.450  10.581 -0.3003  1.1430  0.1188
24293SOL     OW76409   1.984   3.999   1.087 -0.0694  0.4184  0.4799
24293SOL    HW176410   1.999   4.035   1.000 -0.9519  0.7174  0.4402
24293SOL    HW276411   2.071   3.973   1.118  0.9548  4.1254  1.1941
24294SOL     OW76412   3.012   2.225   8.882 -0.4303 -0.1997 -0.2080
24294SOL    HW176413   2.938   2.268   8.927 -1.9200 -2.2082 -0.6172
24294SOL    HW276414   2.985   2.219   8.791  1.7031  1.9513 -1.1048
24295SOL     OW76415   5.691   6.583   1.861  0.0132 -0.0078  0.1503
24295SOL    HW176416   5.623   6.555   1.923 -1.2884  0.3277 -1.0785
24295SOL    HW276417   5.772   6.579   1.912 -0.4628 -3.1358  0.9019
24296SOL     OW76418   9.285   2.150   8.469  0.0027 -0.4063  0.5568
24296SOL    HW176419   9.307   2.179   8.557  0.1733  0.1356  0.3389
24296SOL    HW276420   9.193   2.125   8.474  0.0078 -0.3564  0.8831
24297SOL     OW76421   2.220   7.560   2.391  0.0602  0.0161 -0.1111
24297SOL    HW176422   2.296   7.584   2.338 -0.8658  0.5774 -1.2178
24297SOL    HW276423   2.225   7.465   2.400  0.7635  0.0266 -0.3553
24298SOL     OW76424   1.146   2.902   4.610  0.4145 -0.4260  0.2299
24298SOL    HW176425   1.103   2.957   4.544 -0.1454  0.1598  1.0746
24298SOL    HW276426   1.076   2.874   4.668  0.8147 -1.4142  0.2652
24299SOL     OW76427   9.850   6.935   8.347  0.5899 -0.3347 -0.7836
24299SOL    HW176428   9.834   6.995   8.420  1.7088  0.2476 -1.0017
24299SOL    HW276429   9.838   6.989   8.269 -0.0732 -0.8266 -1.0318
24300SOL     OW76430   7.615  10.127   4.127  0.3436 -0.4780  0.6741
24300SOL    HW176431   7.639  10.140   4.219 -2.2947 -0.8650  1.5036
24300SOL    HW276432   7.531  10.080   4.130  0.3069 -0.7603 -1.9513
24301SOL     OW76433   5.454   3.463  11.026 -0.1624 -0.2743  0.0629
24301SOL    HW176434   5.518   3.445  11.095 -1.2693 -1.9253  0.6931
24301SOL    HW276435   5.493   3.536  10.977  1.7092 -0.5519  1.0368
24302SOL     OW76436   1.898   8.342   8.212 -0.0013 -0.1765 -0.8104
24302SOL    HW176437   1.816   8.379   8.178  0.1179  0.4785 -0.3874
24302SOL    HW276438   1.967   8.387   8.164  0.1727  0.8017  0.3044
24303SOL     OW76439   0.330   9.537   9.885 -0.2789  0.3849  0.2779
24303SOL    HW176440   0.338   9.453   9.931 -0.8213  0.6197  0.8204
24303SOL    HW276441   0.273   9.589   9.941  1.7043  1.8777  1.0335
24304SOL     OW76442   1.499   4.177   5.734 -0.2591  0.0956 -0.2481
24304SOL    HW176443   1.474   4.166   5.642  2.4582 -0.4156 -1.0077
24304SOL    HW276444   1.544   4.261   5.737  1.2888 -0.7096  0.1806
24305SOL     OW76445   4.324  10.098   4.000 -0.5955 -0.5592 -0.5333
24305SOL    HW176446   4.297  10.123   3.912 -1.3120 -0.9789 -0.4367
24305SOL    HW276447   4.246  10.061   4.041 -0.1388 -0.8685  0.0974
24306SOL     OW76448   2.424   8.371   9.229  0.0962  0.7349  0.1633
24306SOL    HW176449   2.370   8.348   9.153  0.2741 -0.0708  0.2667
24306SOL    HW276450   2.512   8.344   9.204  0.0463 -0.2095  0.9110
24307SOL     OW76451   7.325  10.880   1.403  0.5400  0.3718  0.1302
24307SOL    HW176452   7.273  10.808   1.367  1.2821  0.0079 -0.2484
24307SOL    HW276453   7.398  10.890   1.341  2.5961 -1.1436  2.1369
24308SOL     OW76454   9.280   6.144   3.725 -0.3880  0.0202 -0.0973
24308SOL    HW176455   9.362   6.097   3.710 -1.4443 -2.1307  0.4925
24308SOL    HW276456   9.292   6.228   3.681  2.6916  0.4161  1.2814
24309SOL     OW76457   7.576   3.229   3.147 -0.5913  0.5352 -0.1617
24309SOL    HW176458   7.592   3.197   3.058 -0.9449  0.0180 -0.0485
24309SOL    HW276459   7.651   3.197   3.198  0.0846  1.6233 -0.4547
24310SOL     OW76460   1.811   0.779   6.737  0.2377  0.1477 -0.3348
24310SOL    HW176461   1.777   0.860   6.773  0.4382 -0.7625  2.0530
24310SOL    HW276462   1.882   0.807   6.679 -1.2046  1.7529 -1.4246
24311SOL     OW76463   5.298  10.572   1.644  0.3064  0.2641  0.1062
24311SOL    HW176464   5.314  10.593   1.736 -1.6143 -0.2910  0.6099
24311SOL    HW276465   5.255  10.649   1.608 -0.9623 -0.3312  0.2895
24312SOL     OW76466   3.715   8.745   3.052 -0.3889  0.2851 -0.7105
24312SOL    HW176467   3.769   8.682   3.003 -0.4033 -0.1017 -0.2333
24312SOL    HW276468   3.711   8.709   3.140 -0.3114  1.0180 -0.4075
24313SOL     OW76469   1.432   8.583   4.517 -0.5260  0.1270  0.5417
24313SOL    HW176470   1.355   8.636   4.496 -0.7936  0.5503  2.3907
24313SOL    HW276471   1.492   8.598   4.444 -1.3903  1.4113  0.0526
24314SOL     OW76472   1.674   4.197  10.935  0.1117  0.1188 -0.2529
24314SOL    HW176473   1.632   4.251  10.868 -2.2778 -1.0656  0.1624
24314SOL    HW276474   1.714   4.126  10.886 -1.6588 -0.7669 -0.4952
24315SOL     OW76475   2.478   1.599   3.395  0.7165 -0.0671  0.0643
24315SOL    HW176476   2.428   1.677   3.420  1.0319 -0.4987  2.1911
24315SOL    HW276477   2.555   1.599   3.453  0.8342 -1.8358 -0.0242
24316SOL     OW76478   6.362   9.458   1.605 -0.1798  0.1438 -0.0375
24316SOL    HW176479   6.439   9.423   1.560  0.1333 -1.1803  1.4338
24316SOL    HW276480   6.288   9.434   1.548  0.1222 -2.1628  0.4406
24317SOL     OW76481   1.209   5.183   6.912 -0.3236 -0.1511 -0.0517
24317SOL    HW176482   1.223   5.275   6.892  0.9092 -0.5896 -1.3842
24317SOL    HW276483   1.221   5.177   7.007 -0.4938  1.0524  0.0638
24318SOL     OW76484  10.157   0.906   2.347  0.2173 -0.4310 -0.3194
24318SOL    HW176485  10.151   0.953   2.263  0.8131  1.1077  0.4641
24318SOL    HW276486  10.115   0.964   2.410  0.4256 -1.2429  0.5833
24319SOL     OW76487  10.504   2.009   8.983 -0.2007  0.5201 -0.7690
24319SOL    HW176488  10.422   1.960   8.978 -0.0128  0.0455  0.4875
24319SOL    HW276489  10.571   1.946   8.957 -0.0235  0.2533  0.2729
24320SOL     OW76490   9.937   7.148   3.835  0.6495 -0.4004 -0.3486
24320SOL    HW176491   9.902   7.231   3.802 -0.0110  0.1142  1.5399
24320SOL    HW276492   9.892   7.081   3.784 -0.9572  0.3421  0.0302
24321SOL     OW76493   3.207  10.086   8.584  0.3160 -0.4390 -0.4106
24321SOL    HW176494   3.161  10.023   8.528 -1.0730 -0.9249  1.1850
24321SOL    HW276495   3.137  10.144   8.616  1.2781  0.6419 -0.2011
24322SOL     OW76496  10.935   0.287   9.124  0.3258  0.2555  0.0827
24322SOL    HW176497  10.993   0.329   9.060 -2.0543  1.2745 -1.5361
24322SOL    HW276498  10.951   0.193   9.114  0.6855  0.4522 -1.3263
24323SOL     OW76499   2.937   5.309   4.171 -0.6077  0.0433  0.3070
24323SOL    HW176500   2.913   5.389   4.124 -2.4018  0.2811  1.5115
24323SOL    HW276501   2.959   5.246   4.102  0.9378  1.5657 -0.6631
24324SOL     OW76502   5.275   1.618   3.629 -0.1986  0.5565 -0.3935
24324SOL    HW176503   5.225   1.670   3.692  0.2681 -0.0814  0.5232
24324SOL    HW276504   5.242   1.529   3.639  1.0590  0.1257  0.2212
24325SOL     OW76505   6.773   1.155  10.295  0.2092 -0.0955 -0.3278
24325SOL    HW176506   6.830   1.078  10.296  0.1762 -0.1277  1.3956
24325SOL    HW276507   6.822   1.222  10.343 -1.4839 -0.3783  1.9534
24326SOL     OW76508  11.093   2.888   1.744 -0.5816 -0.5577 -0.0733
24326SOL    HW176509  11.176   2.911   1.786  0.7065 -1.8873 -1.7494
24326SOL    HW276510  11.033   2.872   1.817 -1.4467  6.3269  1.4776
24327SOL     OW76511   5.714   6.019  10.143 -0.1732 -0.0692  0.1179
24327SOL    HW176512   5.802   6.052  10.124  0.0397 -1.2811 -1.1885
24327SOL    HW276513   5.721   5.979  10.230  0.8576 -1.0713 -0.3996
24328SOL     OW76514   8.682   3.787   7.742 -0.0269  0.2976 -0.1701
24328SOL    HW176515   8.677   3.695   7.716  2.0780 -0.0526  0.5056
24328SOL    HW276516   8.590   3.815   7.750 -0.6981 -1.5383 -1.0216
24329SOL     OW76517   6.557   9.536   6.339 -0.7218  0.5786 -0.4954
24329SOL    HW176518   6.556   9.625   6.373 -0.1159 -0.3436  2.1652
24329SOL    HW276519   6.468   9.504   6.354 -0.0600 -0.3251  1.7593
24330SOL     OW76520   2.679   5.036   5.797 -0.2945 -0.2132 -0.0824
24330SOL    HW176521   2.622   5.106   5.828 -0.9337 -1.0401  0.6929
24330SOL    HW276522   2.619   4.975   5.753  0.4040  0.2307 -1.6970
24331SOL     OW76523  10.124   3.417   6.187 -0.1457  0.3658 -0.2811
24331SOL    HW176524  10.045   3.429   6.240 -0.1681 -0.1327 -0.2000
24331SOL    HW276525  10.093   3.423   6.097 -0.0814  1.3822 -0.2507
24332SOL     OW76526   0.076   2.606   8.322  0.2770 -0.4070  0.6438
24332SOL    HW176527   0.028   2.546   8.265  0.8304 -2.2568  2.0158
24332SOL    HW276528   0.018   2.620   8.397 -0.9247  2.8906 -0.7002
24333SOL     OW76529   1.505   8.154   0.078 -0.4211 -0.0570 -0.2038
24333SOL    HW176530   1.568   8.201   0.133 -0.6334 -0.8790  0.7649
24333SOL    HW276531   1.544   8.157  -0.010 -0.3813  1.8011 -0.1536
24334SOL     OW76532   3.620   4.850   2.839 -0.0902 -0.3173  0.2536
24334SOL    HW176533   3.592   4.868   2.929  0.6170 -0.4924  0.5176
24334SOL    HW276534   3.664   4.765   2.844 -0.8967 -0.7915 -0.4478
24335SOL     OW76535   2.042   3.985   9.960 -0.2105  0.1173  0.3072
24335SOL    HW176536   2.004   3.947   9.881 -0.9576  1.2835  0.0845
24335SOL    HW276537   2.127   3.942   9.969 -0.7575 -1.1327 -0.2760
24336SOL     OW76538  10.218   9.490   9.825 -0.5437  0.4277  0.8988
24336SOL    HW176539  10.300   9.470   9.781 -1.1651  1.1793 -0.6916
24336SOL    HW276540  10.187   9.570   9.782 -3.1714 -0.9976 -0.1061
24337SOL     OW76541   4.491   9.941   3.642  0.2904  0.1647 -0.1117
24337SOL    HW176542   4.407   9.986   3.654 -0.0054 -0.4744  0.3117
24337SOL    HW276543   4.478   9.856   3.685  1.4017  0.3427  0.6046
24338SOL     OW76544   1.749   7.266  10.444  0.3506 -0.8074  0.2464
24338SOL    HW176545   1.828   7.317  10.427  2.0181 -3.4092 -0.4225
24338SOL    HW276546   1.706   7.260  10.358 -1.6139  1.9747  0.8868
24339SOL     OW76547   7.578  11.063   5.182  0.0129 -0.2926  0.2770
24339SOL    HW176548   7.506  11.109   5.139  0.4103  0.8194  0.7715
24339SOL    HW276549   7.652  11.072   5.122 -0.2247 -1.3926 -0.2071
24340SOL     OW76550   1.006   3.999   1.342 -0.2153  0.1950  0.5889
24340SOL    HW176551   0.963   3.931   1.289  1.7464 -0.5045 -0.1882
24340SOL    HW276552   1.045   4.058   1.277 -0.6654  1.2685  1.2738
24341SOL     OW76553   2.810   2.429   7.888 -0.1650 -0.0913  0.8906
24341SOL    HW176554   2.904   2.445   7.879 -0.1843 -0.0763  0.7106
24341SOL    HW276555   2.803   2.374   7.966  0.1104 -1.1248  0.2107
24342SOL     OW76556   7.469   2.844   2.352  0.4623 -0.2357 -0.4787
24342SOL    HW176557   7.381   2.858   2.388  1.1025  0.1530  0.9764
24342SOL    HW276558   7.467   2.754   2.320 -0.5159 -0.1783 -0.6197
24343SOL     OW76559   7.300   2.773   8.206 -0.1822  0.7755 -0.2205
24343SOL    HW176560   7.370   2.815   8.156 -0.5651  1.6774 -0.0187
24343SOL    HW276561   7.226   2.769   8.145  0.1637 -0.6373 -0.6020
24344SOL     OW76562   1.579   8.490   9.466  0.0719  0.4513  0.1369
24344SOL    HW176563   1.534   8.539   9.397  0.4013  0.6302  0.0464
24344SOL    HW276564   1.636   8.429   9.419 -1.2470 -0.9256  0.2208
24345SOL     OW76565   4.541   8.441   2.033 -0.1365 -0.3295 -0.7375
24345SOL    HW176566   4.450   8.464   2.048  0.3028  1.0424  0.0619
24345SOL    HW276567   4.579   8.520   1.994  0.8309 -0.6828 -0.5341
24346SOL     OW76568   3.469   2.470   4.603  0.1308 -0.1526 -0.0959
24346SOL    HW176569   3.533   2.440   4.667  1.2677 -1.4825 -1.7945
24346SOL    HW276570   3.414   2.394   4.586 -0.2852  0.2399 -0.5480
24347SOL     OW76571  11.091   9.516   7.783 -0.0867  0.2632  0.7572
24347SOL    HW176572  11.013   9.498   7.837 -0.5014  1.9443  0.7763
24347SOL    HW276573  11.159   9.460   7.820 -1.0282 -0.5008  1.3852
24348SOL     OW76574   8.491   5.160   8.703  0.6687 -0.0013  0.4910
24348SOL    HW176575   8.558   5.094   8.723  0.3740 -0.2193  0.7760
24348SOL    HW276576   8.436   5.119   8.637  0.6574  0.0727  0.4552
24349SOL     OW76577   7.290   0.657   9.066 -0.0739  0.2607  0.2006
24349SOL    HW176578   7.278   0.751   9.057 -0.4735  0.3263  1.3585
24349SOL    HW276579   7.295   0.642   9.160 -0.5075 -0.9404  0.0407
24350SOL     OW76580   2.233   1.058   3.927  0.4402  0.5353 -0.2678
24350SOL    HW176581   2.311   1.113   3.927  0.4716  0.5383 -1.8476
24350SOL    HW276582   2.264   0.971   3.902  0.1656  0.1408  0.7194
24351SOL     OW76583   0.703   3.778   5.252 -0.0793 -0.1631  0.1287
24351SOL    HW176584   0.794   3.789   5.224 -0.5240 -1.6486 -2.1667
24351SOL    HW276585   0.709   3.739   5.340  1.5720 -2.2283 -0.8200
24352SOL     OW76586   5.511   0.087   9.803 -0.8762 -0.6101 -0.3865
24352SOL    HW176587   5.443   0.098   9.869 -0.6248  0.2751 -0.2608
24352SOL    HW276588   5.462   0.068   9.722 -1.3729  1.1595 -0.5478
24353SOL     OW76589   0.670   2.318   0.382 -0.0722 -0.2274  0.1510
24353SOL    HW176590   0.589   2.368   0.374 -0.9020 -1.2752  1.6080
24353SOL    HW276591   0.695   2.328   0.474  1.3171 -0.1573 -0.2060
24354SOL     OW76592  11.037   2.796   5.334 -0.1782  0.1280  0.7033
24354SOL    HW176593  11.071   2.852   5.266 -1.5616 -0.1678 -0.2864
24354SOL    HW276594  10.995   2.855   5.396 -2.4578  0.2294 -0.8111
24355SOL     OW76595   0.870   7.750   6.706  0.7000 -0.5858 -0.0061
24355SOL    HW176596   0.788   7.717   6.670 -0.4080  0.7929  1.1344
24355SOL    HW276597   0.851   7.764   6.799  1.4835  2.0192 -0.1764
24356SOL     OW76598   6.933   1.992   0.083 -0.0712 -0.1307 -0.5150
24356SOL    HW176599   7.020   2.030   0.074 -0.9693  2.4566  0.7075
24356SOL    HW276600   6.887   2.019   0.003 -0.1214 -0.4649 -0.6025
24357SOL     OW76601  10.892   8.936   1.282 -0.5341 -0.9404  0.3903
24357SOL    HW176602  10.966   8.953   1.224 -1.0865 -1.4142 -0.4725
24357SOL    HW276603  10.897   8.843   1.303 -0.2271 -0.7378  1.2812
24358SOL     OW76604   3.419   9.153   1.724 -0.3749  0.3892  0.0327
24358SOL    HW176605   3.355   9.084   1.741 -1.1686  1.1834  0.3230
24358SOL    HW276606   3.394   9.188   1.638  0.0420  0.3131 -0.1247
24359SOL     OW76607   9.882   0.852   3.051 -0.2210 -0.0625 -0.0510
24359SOL    HW176608   9.898   0.929   3.106  0.6329  0.9199 -1.6083
24359SOL    HW276609   9.809   0.807   3.094 -1.0764  1.8767  0.6551
24360SOL     OW76610  10.331  10.720   5.498  0.8312 -0.2205  0.4743
24360SOL    HW176611  10.274  10.646   5.518  0.9645 -0.5034 -0.1587
24360SOL    HW276612  10.305  10.748   5.410  0.3103  0.9362  0.9697
24361SOL     OW76613   1.621  10.501   2.952 -0.3795 -0.2754  0.3585
24361SOL    HW176614   1.661  10.449   3.022 -2.2338 -1.7970  0.3714
24361SOL    HW276615   1.569  10.567   2.998 -2.3719 -1.8699  0.5413
24362SOL     OW76616   5.405   5.306  10.097  0.1458  0.7467  0.4786
24362SOL    HW176617   5.500   5.303  10.094  0.0912 -0.8939 -1.3756
24362SOL    HW276618   5.380   5.234  10.155  0.0294  0.3631 -0.0373
24363SOL     OW76619   2.434   0.640   9.359 -0.1035 -0.1900 -0.0015
24363SOL    HW176620   2.484   0.580   9.304 -0.2557 -0.3622  0.0455
24363SOL    HW276621   2.479   0.640   9.443 -1.3833 -2.0130  0.7389
24364SOL     OW76622   3.905   0.836   6.345 -0.5502  1.0785  0.1566
24364SOL    HW176623   3.982   0.790   6.378 -0.4778  0.1677 -1.1891
24364SOL    HW276624   3.901   0.917   6.397  1.6219  1.4133 -0.1097
24365SOL     OW76625  10.510   3.011   5.883  0.1587 -0.0583 -0.6190
24365SOL    HW176626  10.519   3.014   5.978 -0.5251 -0.3230 -0.5323
24365SOL    HW276627  10.532   3.099   5.853  3.7022 -0.7828 -0.5686
24366SOL     OW76628   4.555   6.561   6.597 -0.3520  0.2125 -0.1144
24366SOL    HW176629   4.600   6.549   6.513  1.2487 -0.8225  0.8514
24366SOL    HW276630   4.462   6.566   6.573  0.1277  0.9556 -2.0310
24367SOL     OW76631   6.852   8.667   2.566  0.4973  0.0764 -0.3921
24367SOL    HW176632   6.763   8.637   2.582  0.8480 -0.7867  0.0338
24367SOL    HW276633   6.893   8.670   2.653  1.1308 -0.3722 -0.6639
24368SOL     OW76634   8.061   9.810  10.425  0.6352  0.0651  0.1172
24368SOL    HW176635   7.977   9.767  10.442  0.5397 -0.4884 -1.5260
24368SOL    HW276636   8.121   9.739  10.406  0.9386  0.5512 -0.7993
24369SOL     OW76637   9.574   2.313   6.554 -0.6587  0.3406  0.3822
24369SOL    HW176638   9.665   2.344   6.552 -0.7796  0.7328  0.7736
24369SOL    HW276639   9.529   2.374   6.612 -0.9355 -0.4858  1.0656
24370SOL     OW76640   1.556   4.034   6.213  0.2603  0.1505  0.2401
24370SOL    HW176641   1.518   4.096   6.151  1.4378 -0.3661 -1.0467
24370SOL    HW276642   1.644   4.018   6.180  0.6574 -0.7340  1.6380
24371SOL     OW76643   0.656  10.006   8.361  0.6330  0.3535  0.5698
24371SOL    HW176644   0.705  10.080   8.326 -0.4597  0.4872 -0.7375
24371SOL    HW276645   0.620  10.038   8.444  0.6407  1.0969  0.2890
24372SOL     OW76646   9.339   2.209   3.658  0.3654  0.2566 -0.2462
24372SOL    HW176647   9.434   2.218   3.650  0.1593  1.9023 -1.2849
24372SOL    HW276648   9.308   2.206   3.568 -0.5146 -1.1891  0.0876
24373SOL     OW76649   8.306   7.130   3.181  0.0147  0.4115  0.2256
24373SOL    HW176650   8.292   7.221   3.206 -0.2143  0.1085  1.2571
24373SOL    HW276651   8.383   7.132   3.124  0.7187  1.1196  1.1688
24374SOL     OW76652   9.503   2.547   0.722  0.6204  0.5454 -0.5354
24374SOL    HW176653   9.499   2.640   0.701  1.3642  0.7149  0.0378
24374SOL    HW276654   9.568   2.540   0.792  1.2501 -0.5204 -1.1972
24375SOL     OW76655   2.812   1.321   3.527 -0.1541 -0.3115  0.1617
24375SOL    HW176656   2.752   1.296   3.457 -0.3705  1.1206 -0.2015
24375SOL    HW276657   2.899   1.316   3.487 -0.2470  0.1186 -0.1052
24376SOL     OW76658   3.237   8.115   4.579 -0.6131  0.1294  0.3843
24376SOL    HW176659   3.155   8.143   4.620 -0.4263  1.3952 -0.0607
24376SOL    HW276660   3.211   8.088   4.491 -0.3435  2.3061 -0.4184
24377SOL     OW76661   4.447   8.872   7.660  0.0600  0.5748 -0.6297
24377SOL    HW176662   4.533   8.850   7.696  1.1473  2.0474 -2.1961
24377SOL    HW276663   4.406   8.787   7.645  1.4736 -0.1887 -0.4078
24378SOL     OW76664   4.235  10.670   1.477 -0.2540 -0.0397 -0.6880
24378SOL    HW176665   4.161  10.712   1.432  0.2106  1.1674 -0.3629
24378SOL    HW276666   4.213  10.577   1.476 -1.6675  0.2623 -0.8155
24379SOL     OW76667   1.665   1.290  10.160 -0.1255 -0.6953  0.0072
24379SOL    HW176668   1.680   1.298  10.254 -1.0564 -1.8937  0.2735
24379SOL    HW276669   1.681   1.378  10.126  0.4340 -0.2939  1.2430
24380SOL     OW76670   3.443   9.696   2.292  0.0158  0.2201 -0.1550
24380SOL    HW176671   3.520   9.730   2.247 -0.3101 -0.9416 -1.6680
24380SOL    HW276672   3.477   9.629   2.351  0.1944  0.0027 -0.5087
24381SOL     OW76673  10.048   9.046   1.263  0.0791 -0.0087  0.6427
24381SOL    HW176674  10.019   8.968   1.309 -1.3857 -0.0014 -0.1914
24381SOL    HW276675   9.977   9.109   1.276  0.6509  0.7382  0.2313
24382SOL     OW76676   9.993   2.369   8.151  0.0552 -0.0811 -0.2101
24382SOL    HW176677  10.005   2.374   8.246 -3.6144  0.8063  0.3458
24382SOL    HW276678   9.967   2.279   8.135  0.4527 -0.1712 -0.3658
24383SOL     OW76679   0.859   9.973   2.293  0.2598  0.3721 -0.5452
24383SOL    HW176680   0.824   9.969   2.382  1.8296 -1.1535  0.0626
24383SOL    HW276681   0.806  10.039   2.249 -1.7799 -0.1502  0.9767
24384SOL     OW76682   2.294   6.864   6.228 -0.1798  0.7236  0.3823
24384SOL    HW176683   2.237   6.924   6.180 -1.4218 -0.3936  0.3990
24384SOL    HW276684   2.252   6.853   6.313 -1.4116 -2.0454 -0.4522
24385SOL     OW76685   1.305   8.409   9.815 -0.1248  0.4582 -0.2535
24385SOL    HW176686   1.363   8.334   9.830  0.7688  1.3486  0.9670
24385SOL    HW276687   1.225   8.371   9.779  1.7372 -0.6580 -3.5691
24386SOL     OW76688   6.695  10.530   9.514 -0.3142  0.4378 -0.5899
24386SOL    HW176689   6.649  10.486   9.442  0.7108 -0.6025 -0.6294
24386SOL    HW276690   6.764  10.469   9.539  1.0056  1.9367 -0.4827
24387SOL     OW76691   8.972   2.391   8.340  0.0412 -0.2245 -1.0207
24387SOL    HW176692   8.884   2.356   8.327  0.0903 -0.2105 -1.4019
24387SOL    HW276693   8.962   2.486   8.329 -0.3393  0.0577  1.2822
24388SOL     OW76694   7.513  11.056   0.200 -0.4279 -0.1399  0.1999
24388SOL    HW176695   7.443  11.101   0.152  0.5454  0.1934 -0.9356
24388SOL    HW276696   7.552  11.124   0.255 -1.4010 -0.4751  1.3688
24389SOL     OW76697   9.799   8.737  10.071 -0.5252 -0.1150 -0.1456
24389SOL    HW176698   9.788   8.695  10.156  1.3476 -2.4123 -0.9081
24389SOL    HW276699   9.894   8.751  10.063 -0.8630  2.2841 -0.9153
24390SOL     OW76700   7.972  10.814   7.552  0.1297  0.0552  0.1722
24390SOL    HW176701   7.878  10.797   7.561 -0.0447  1.4975  1.4111
24390SOL    HW276702   7.985  10.826   7.457 -0.9983  0.1982  0.0167
24391SOL     OW76703   8.045   2.569   0.691  0.1525 -0.0821 -0.2008
24391SOL    HW176704   8.069   2.659   0.670  1.7032 -1.1170 -3.4495
24391SOL    HW276705   7.953   2.562   0.666  0.7798 -0.0467 -2.8712
24392SOL     OW76706   5.673   3.381   0.999 -0.4551 -0.0520 -0.0843
24392SOL    HW176707   5.601   3.429   1.039  0.5878  1.0610  0.5301
24392SOL    HW276708   5.725   3.351   1.073  0.5939  0.5916 -0.5359
24393SOL     OW76709   7.411   7.838   0.066 -0.1879  0.1330 -0.2447
24393SOL    HW176710   7.477   7.771   0.047  0.1550  0.7935 -1.4818
24393SOL    HW276711   7.334   7.809   0.017  0.1475  0.9320 -1.2795
24394SOL     OW76712   2.176  10.103   9.320  0.0394 -0.0585 -0.1186
24394SOL    HW176713   2.120  10.026   9.329 -0.6988  0.2810 -1.6416
24394SOL    HW276714   2.139  10.167   9.381 -1.1237  0.0850 -0.9548
24395SOL     OW76715   0.258   0.350   8.883 -0.5532 -0.1468  0.0473
24395SOL    HW176716   0.197   0.277   8.874 -1.0990  0.2707  0.3065
24395SOL    HW276717   0.205   0.423   8.915  0.2569 -0.0378  1.2174
24396SOL     OW76718  10.257   6.162   4.915  0.0180 -0.4193 -0.0863
24396SOL    HW176719  10.235   6.220   4.988 -0.5926 -0.7968  0.0434
24396SOL    HW276720  10.292   6.083   4.958 -2.7095 -1.6975 -0.0064
24397SOL     OW76721   9.456   9.157   5.745  0.3530 -0.0635 -1.0359
24397SOL    HW176722   9.476   9.160   5.652 -2.4560  1.7384 -1.7186
24397SOL    HW276723   9.395   9.084   5.754 -2.2313  1.8825 -1.4303
24398SOL     OW76724   2.301   9.621  10.895  0.1724  0.4884 -0.0067
24398SOL    HW176725   2.334   9.705  10.927 -0.0769  0.7465 -0.4209
24398SOL    HW276726   2.228   9.644  10.838 -1.4519 -0.1213  1.7186
24399SOL     OW76727   3.246   9.518   9.190  0.0318 -0.1172  0.4319
24399SOL    HW176728   3.306   9.458   9.146 -0.3173 -1.0794  1.2234
24399SOL    HW276729   3.294   9.548   9.267 -0.0316  0.1184  0.3806
24400SOL     OW76730   8.285   2.861   3.975  0.1089 -0.0256  0.1408
24400SOL    HW176731   8.308   2.871   3.883  0.5125 -0.5922  0.1789
24400SOL    HW276732   8.264   2.950   4.004 -0.5721  0.0755 -0.6385
24401SOL     OW76733   9.270   6.758   2.998  1.2785  0.5105 -0.0781
24401SOL    HW176734   9.241   6.833   3.051  0.7980  0.8980 -0.8611
24401SOL    HW276735   9.192   6.733   2.948  1.9848  0.8444 -1.3902
24402SOL     OW76736   4.910   7.119   2.577 -0.0299 -0.1268  0.0145
24402SOL    HW176737   5.000   7.118   2.610  0.3017 -0.6098 -0.8819
24402SOL    HW276738   4.877   7.032   2.598  0.7093 -1.0170 -2.2964
24403SOL     OW76739  11.118   3.833   9.475 -0.0878 -0.3913 -0.2308
24403SOL    HW176740  11.098   3.925   9.492 -0.6003 -0.2001 -1.7461
24403SOL    HW276741  11.209   3.823   9.502 -0.1571  0.4441  0.3581
24404SOL     OW76742   4.912   2.438   9.216  0.5336  0.2440  0.2838
24404SOL    HW176743   4.950   2.353   9.192  2.8123  0.8243  1.5738
24404SOL    HW276744   4.960   2.464   9.295 -0.6137  2.4282  0.3275
24405SOL     OW76745  11.107   4.411   4.381 -0.1215  0.5870  0.2107
24405SOL    HW176746  11.013   4.428   4.381 -0.2077  0.2406 -0.8570
24405SOL    HW276747  11.128   4.387   4.471 -0.9916  1.0134  0.5303
24406SOL     OW76748   0.464   3.134   5.479 -0.4380 -0.3049 -0.1073
24406SOL    HW176749   0.380   3.090   5.486 -0.8198  0.3483 -0.4836
24406SOL    HW276750   0.525   3.079   5.529 -0.7954 -1.4975 -0.9707
24407SOL     OW76751   5.487   0.247   6.272 -0.1305  0.3220 -0.7101
24407SOL    HW176752   5.423   0.305   6.312  0.7067 -0.0141  1.1991
24407SOL    HW276753   5.547   0.307   6.226  0.3677  0.9542  0.7124
24408SOL     OW76754   6.962   9.490   6.714 -1.2658 -0.4398  0.1722
24408SOL    HW176755   6.996   9.432   6.781 -2.6179 -1.7377 -0.1936
24408SOL    HW276756   7.009   9.572   6.726 -0.9209 -0.8801  2.1939
24409SOL     OW76757   7.389   8.702   1.461 -0.0238 -0.7314 -0.1045
24409SOL    HW176758   7.295   8.689   1.452 -0.4269  1.0132  1.0530
24409SOL    HW276759   7.407   8.782   1.412  1.3073 -2.2267 -2.2295
24410SOL     OW76760   7.875   1.914   2.158 -0.2786 -0.2940  0.2517
24410SOL    HW176761   7.845   1.962   2.235  2.4025 -1.1238  1.9345
24410SOL    HW276762   7.798   1.864   2.131 -0.9529 -1.2070  3.3993
24411SOL     OW76763  11.027   0.292   5.835 -0.1244 -0.0743  0.5303
24411SOL    HW176764  11.120   0.273   5.828 -0.2698 -0.1307 -1.7934
24411SOL    HW276765  10.986   0.237   5.768 -1.7276  0.6878  0.8418
24412SOL     OW76766   1.325   9.489   2.863 -0.0953 -0.3240 -0.3080
24412SOL    HW176767   1.283   9.480   2.778  1.2203 -2.0053 -0.8601
24412SOL    HW276768   1.415   9.513   2.842 -0.0823  0.5377  0.6890
24413SOL     OW76769   7.801   4.108   8.530 -0.2323  0.1985 -0.1746
24413SOL    HW176770   7.895   4.111   8.515 -0.1328  0.8106  0.4993
24413SOL    HW276771   7.790   4.138   8.621 -1.1633  1.4047 -0.6543
24414SOL     OW76772   4.257   8.986   5.102 -0.3206  0.2649 -0.4256
24414SOL    HW176773   4.258   8.895   5.072  1.4594 -0.0070  0.3146
24414SOL    HW276774   4.222   8.982   5.191 -0.2679  0.2989 -0.4028
24415SOL     OW76775  11.122   6.305   1.078  0.0228  0.3799  0.2735
24415SOL    HW176776  11.190   6.372   1.066 -0.4971  0.8613 -0.0576
24415SOL    HW276777  11.100   6.278   0.989 -0.3939  0.4152  0.3613
24416SOL     OW76778   3.314  10.805   7.480  0.1235  0.2138 -0.3723
24416SOL    HW176779   3.352  10.833   7.397  1.5380 -0.0698  0.1609
24416SOL    HW276780   3.244  10.868   7.496  0.0333  0.4643 -1.6149
24417SOL     OW76781   5.058   4.021   1.049 -0.7074 -0.0134 -0.8030
24417SOL    HW176782   5.050   4.116   1.052  1.2572  0.1659  0.1670
24417SOL    HW276783   5.019   3.991   1.131 -2.6396 -0.2113 -1.7407
24418SOL     OW76784   7.566   0.778   7.386  0.2889  0.4136 -0.1664
24418SOL    HW176785   7.652   0.818   7.380 -0.3442  1.6503 -1.7307
24418SOL    HW276786   7.540   0.790   7.477  1.3111  0.9928  0.0585
24419SOL     OW76787   4.562   6.787   7.151  0.0546  0.4092  0.2488
24419SOL    HW176788   4.634   6.753   7.100  0.1066  0.8982 -0.0112
24419SOL    HW276789   4.604   6.831   7.226 -0.0065  0.0209  0.5149
24420SOL     OW76790   2.620   1.046   7.698 -0.3787  0.2457  0.1251
24420SOL    HW176791   2.654   1.013   7.780 -0.0749 -0.3082 -0.2170
24420SOL    HW276792   2.604   0.967   7.645 -1.7934  0.5037  0.1209
24421SOL     OW76793   7.067   3.835   7.328  0.0703 -0.2400 -0.5852
24421SOL    HW176794   6.978   3.801   7.317 -0.2731 -0.0267  1.1885
24421SOL    HW276795   7.088   3.817   7.419  2.1948 -1.0374 -1.1792
24422SOL     OW76796   3.214   6.201  10.538  0.0397  0.2224  0.3383
24422SOL    HW176797   3.143   6.221  10.476  0.7190  2.2582  0.1536
24422SOL    HW276798   3.169   6.174  10.618 -0.9137  0.3159 -0.1519
24423SOL     OW76799   7.010   8.935   8.813 -0.4542 -0.8617  0.4036
24423SOL    HW176800   7.078   8.997   8.786 -0.3858 -1.4750 -0.9012
24423SOL    HW276801   6.970   8.976   8.890  0.4734  0.1554  0.3776
24424SOL     OW76802   2.184   0.643   5.804  0.0228 -0.4168  0.0473
24424SOL    HW176803   2.140   0.677   5.726  0.5426 -0.4103 -0.2473
24424SOL    HW276804   2.271   0.683   5.802  0.0704 -0.4841  0.5852
24425SOL     OW76805  11.070   8.037  10.006 -0.0557  1.0042  0.0504
24425SOL    HW176806  11.084   8.034  10.101  0.3528  1.7084  0.0126
24425SOL    HW276807  10.998   7.974   9.991 -0.1213  0.8841  0.8192
24426SOL     OW76808   1.660   0.844   9.064  0.6313  0.5684  0.1994
24426SOL    HW176809   1.701   0.864   9.148 -1.9456  0.0539  1.7167
24426SOL    HW276810   1.680   0.751   9.049  1.1367  0.6732  0.2250
24427SOL     OW76811   3.002   2.603   5.613  0.2457 -0.4257 -0.2212
24427SOL    HW176812   2.974   2.622   5.703 -0.1000  1.8763 -0.7515
24427SOL    HW276813   3.098   2.603   5.618  0.2312 -1.7846  0.3927
24428SOL     OW76814   4.630   3.305   2.881 -0.3588  0.0663 -0.5700
24428SOL    HW176815   4.724   3.323   2.883 -0.4499  0.5958 -0.8015
24428SOL    HW276816   4.624   3.212   2.859  0.1187 -0.1807  0.2923
24429SOL     OW76817   7.010   1.025   6.784 -0.2609  0.0688  0.0443
24429SOL    HW176818   7.015   0.971   6.705 -3.3276  0.1901 -0.3422
24429SOL    HW276819   6.970   0.967   6.850 -0.9264  0.9773  0.4626
24430SOL     OW76820   5.555   2.952   3.956 -0.0313 -0.4150 -0.1744
24430SOL    HW176821   5.610   2.958   4.034 -0.5201  1.7179  0.0547
24430SOL    HW276822   5.515   2.865   3.963  1.0361 -0.8475  1.1851
24431SOL     OW76823  11.053   1.787   1.868  0.5710  0.3580  0.0534
24431SOL    HW176824  10.974   1.840   1.873 -0.0891 -0.4628 -1.2464
24431SOL    HW276825  11.066   1.753   1.957 -0.7960  0.1317  0.1810
24432SOL     OW76826   8.698   8.464   5.156 -0.2718 -0.3601 -0.2048
24432SOL    HW176827   8.646   8.488   5.233  0.3959 -0.0652  0.1579
24432SOL    HW276828   8.697   8.542   5.101  1.2202  0.2591  0.6022
24433SOL     OW76829   8.690   4.517   4.547  0.3680  0.3777 -0.3080
24433SOL    HW176830   8.731   4.437   4.579 -1.7262 -1.5902 -2.2199
24433SOL    HW276831   8.761   4.565   4.505  1.8597  0.0561  1.6781
24434SOL     OW76832   3.587   1.460  10.924 -0.5403 -0.2727 -0.0732
24434SOL    HW176833   3.511   1.403  10.935 -1.9159  1.5505  0.4491
24434SOL    HW276834   3.650   1.429  10.989 -2.5019  0.6708  2.4599
24435SOL     OW76835   4.716   7.106   4.861 -0.0320  0.4489  0.2956
24435SOL    HW176836   4.732   7.134   4.951  0.6089  1.9411 -0.2491
24435SOL    HW276837   4.781   7.037   4.846 -0.0169  0.3206  0.8990
24436SOL     OW76838   9.854   7.969   1.573 -0.1693  0.1370  0.0397
24436SOL    HW176839   9.882   7.940   1.486 -0.6368 -0.2174  0.0043
24436SOL    HW276840   9.759   7.978   1.566 -0.5209 -2.0616  1.1135
24437SOL     OW76841   6.649   5.863   2.650 -0.3877 -0.4593  0.0760
24437SOL    HW176842   6.677   5.826   2.566  0.2033  1.1601 -0.4954
24437SOL    HW276843   6.706   5.822   2.715  1.1741  0.3903 -0.6889
24438SOL     OW76844   7.076   2.722   0.733  0.0001 -0.3420 -0.2474
24438SOL    HW176845   7.045   2.811   0.749 -0.3956 -0.3054 -1.1640
24438SOL    HW276846   7.171   2.729   0.734  0.0145 -0.2833  1.6512
24439SOL     OW76847   5.067   3.387   1.579  0.0340 -0.4036  0.9588
24439SOL    HW176848   5.106   3.302   1.558 -0.1459 -0.1716 -0.4291
24439SOL    HW276849   4.973   3.371   1.580 -0.0125 -0.1889  0.4689
24440SOL     OW76850   1.460   1.681   1.735  0.6921 -0.3564 -0.1420
24440SOL    HW176851   1.513   1.667   1.657 -0.1117  0.8465 -0.9468
24440SOL    HW276852   1.384   1.624   1.723 -0.8578  1.8422 -1.7195
24441SOL     OW76853   2.946   6.488   1.430 -0.3295  0.3001  0.1989
24441SOL    HW176854   3.022   6.479   1.372 -0.6861  0.0738 -0.2377
24441SOL    HW276855   2.957   6.419   1.495 -2.2085 -2.4500 -2.1832
24442SOL     OW76856   5.877   7.695   7.473 -0.2758  0.0884 -0.0063
24442SOL    HW176857   5.876   7.642   7.553 -0.6521 -0.7266 -0.5266
24442SOL    HW276858   5.969   7.707   7.453 -0.1184 -2.2078 -1.0047
24443SOL     OW76859   9.689   7.208   8.439  0.9885  0.2542  0.3581
24443SOL    HW176860   9.704   7.150   8.514 -1.8286 -0.8861  0.1619
24443SOL    HW276861   9.601   7.242   8.452  1.2383  1.7118 -1.3690
24444SOL     OW76862   5.221   2.759   1.208 -0.5087 -0.4887  0.2242
24444SOL    HW176863   5.280   2.747   1.281 -0.1902  3.0322  0.7338
24444SOL    HW276864   5.169   2.679   1.205  1.1501 -1.7720  2.6645
24445SOL     OW76865   0.771   4.527   5.996 -0.2164  0.1130  0.0275
24445SOL    HW176866   0.806   4.446   6.031  1.6168  0.3407 -1.1386
24445SOL    HW276867   0.752   4.508   5.905  0.3388  0.9908 -0.2902
24446SOL     OW76868   7.098   4.366   8.819  0.4341  0.0875 -0.0956
24446SOL    HW176869   7.061   4.448   8.786  0.2114  0.0007 -0.0629
24446SOL    HW276870   7.140   4.326   8.742  0.6447  0.2863 -0.0860
24447SOL     OW76871   5.706   6.509   1.256 -0.1165  0.2647  0.5414
24447SOL    HW176872   5.719   6.441   1.190  1.0683  0.5811  0.4237
24447SOL    HW276873   5.768   6.487   1.326  0.9692  1.7022  0.0950
24448SOL     OW76874   6.897   4.799   6.617  0.1735 -0.1664  0.2205
24448SOL    HW176875   6.904   4.811   6.712 -2.2620 -0.0276  0.4388
24448SOL    HW276876   6.851   4.716   6.606  0.2865 -0.1018 -0.8493
24449SOL     OW76877   1.239  10.183   8.745 -0.1846  0.0308  0.3700
24449SOL    HW176878   1.204  10.107   8.792  0.8378  0.9449  2.7358
24449SOL    HW276879   1.273  10.240   8.813  2.1227  1.0982 -1.5335
24450SOL     OW76880   2.389   8.211   1.650  0.2285 -0.1178 -0.5453
24450SOL    HW176881   2.329   8.277   1.687 -0.0928  1.4536 -3.5144
24450SOL    HW276882   2.475   8.236   1.682 -0.2662 -0.2857  0.9876
24451SOL     OW76883   1.480   0.470   3.677  0.6891 -0.1908  0.7644
24451SOL    HW176884   1.538   0.529   3.629 -1.3883  1.4840  0.2228
24451SOL    HW276885   1.460   0.517   3.758 -0.0337 -0.6911  0.8833
24452SOL     OW76886   6.202   7.776   6.889  0.4313 -0.7887  0.2987
24452SOL    HW176887   6.224   7.804   6.800  0.7222 -0.6582  0.4096
24452SOL    HW276888   6.245   7.841   6.945  0.0396 -0.7292  0.5265
24453SOL     OW76889   1.255   1.830   0.832  0.5415 -0.3359  0.5175
24453SOL    HW176890   1.290   1.742   0.847  5.1676  1.3981  1.7294
24453SOL    HW276891   1.290   1.855   0.746 -0.2614  0.5137  0.4282
24454SOL     OW76892  11.064   3.902   7.520 -0.5864 -0.0899 -0.3518
24454SOL    HW176893  10.988   3.927   7.573 -1.5883  1.5455 -2.4143
24454SOL    HW276894  11.140   3.923   7.575 -1.5973  0.8874  0.7169
24455SOL     OW76895   2.394   5.415  11.038  0.3237 -0.3657 -0.3974
24455SOL    HW176896   2.459   5.470  10.994  0.4496  0.6533  1.0133
24455SOL    HW276897   2.311   5.459  11.022  0.5062  0.7208  1.3507
24456SOL     OW76898  10.222   4.570   6.452  0.1920  0.6345  0.2278
24456SOL    HW176899  10.162   4.501   6.423 -2.0865  1.6618  2.1676
24456SOL    HW276900  10.184   4.651   6.416 -0.4351  1.4614  2.5950
24457SOL     OW76901   3.922  10.250   9.939 -0.4786 -0.3015  0.1234
24457SOL    HW176902   3.915  10.161   9.974 -0.2716 -0.4550 -0.2231
24457SOL    HW276903   4.014  10.261   9.918 -0.6019 -0.2129 -0.3861
24458SOL     OW76904   8.953  10.806  10.080  0.8958 -0.5327  0.5754
24458SOL    HW176905   8.979  10.889  10.040 -1.9624  0.3605  0.3472
24458SOL    HW276906   8.921  10.753  10.006 -1.8424  0.0875  1.2040
24459SOL     OW76907   5.598   2.738   6.508 -0.5296 -0.0790 -0.4314
24459SOL    HW176908   5.546   2.665   6.473 -1.9443  0.4774  0.4325
24459SOL    HW276909   5.595   2.805   6.440 -0.0661 -0.4237 -0.8041
24460SOL     OW76910   0.584   3.503   3.775 -0.4829 -0.0693  0.2904
24460SOL    HW176911   0.541   3.495   3.690  0.3784  1.6460 -0.3500
24460SOL    HW276912   0.638   3.581   3.768  0.5975 -0.5894  1.9988
24461SOL     OW76913   4.870   5.996   8.344  0.1033  0.1718  0.1820
24461SOL    HW176914   4.815   5.957   8.412  1.1630  1.3101  1.7436
24461SOL    HW276915   4.819   5.985   8.263 -0.9515 -1.6977  1.0345
24462SOL     OW76916   9.924   0.968   9.560  0.6445  0.1426 -0.1153
24462SOL    HW176917   9.875   0.888   9.544  0.8309 -0.5762  2.3906
24462SOL    HW276918  10.016   0.940   9.562  0.9744  0.9680 -1.9825
24463SOL     OW76919   7.048   1.569   6.976  0.1463 -1.1648 -0.0595
24463SOL    HW176920   7.057   1.633   7.047 -1.7259 -1.0994  0.1656
24463SOL    HW276921   7.110   1.598   6.910 -0.8307  1.0961 -0.0804
24464SOL     OW76922   9.950  10.514   9.116 -0.4518 -0.4769  1.0254
24464SOL    HW176923  10.004  10.593   9.108 -0.8394 -0.3541 -0.6197
24464SOL    HW276924   9.908  10.522   9.202  0.2973  0.5967  1.3039
24465SOL     OW76925   6.165   3.489   6.786  0.3402 -0.0006 -0.2753
24465SOL    HW176926   6.096   3.428   6.758  0.7650 -1.5113  1.7664
24465SOL    HW276927   6.121   3.549   6.846  0.5295 -0.1750  0.0414
24466SOL     OW76928   7.935   2.156   0.238 -0.0970 -0.5611  0.4860
24466SOL    HW176929   7.854   2.118   0.272  1.1969 -4.9816 -0.6906
24466SOL    HW276930   8.003   2.121   0.295  1.2652  0.5213 -0.4052
24467SOL     OW76931   7.210   3.576   7.483  0.5429  0.0357  0.5775
24467SOL    HW176932   7.121   3.562   7.513 -0.9546  2.5988 -2.1222
24467SOL    HW276933   7.241   3.489   7.460 -1.5527 -0.8451  0.8463
24468SOL     OW76934   3.774   4.770   4.261 -0.2949 -0.2220  0.0875
24468SOL    HW176935   3.830   4.847   4.270 -0.9111  0.2415  0.0455
24468SOL    HW276936   3.725   4.766   4.343  1.2504 -1.8180  0.9815
24469SOL     OW76937   8.319   8.362   1.568  0.1980 -0.2601  0.1682
24469SOL    HW176938   8.268   8.291   1.528  0.4339 -0.5003  0.2881
24469SOL    HW276939   8.401   8.363   1.518 -0.5200  1.1565 -1.0714
24470SOL     OW76940   7.807   0.117   2.778  0.0332 -0.0938  0.2239
24470SOL    HW176941   7.745   0.181   2.814  1.0508  0.2325  1.4684
24470SOL    HW276942   7.778   0.104   2.688 -1.3808  0.6290  0.5405
24471SOL     OW76943  11.025   6.669   1.901  0.2052  0.3978  0.4147
24471SOL    HW176944  11.097   6.678   1.838  0.6831 -0.6394  0.7788
24471SOL    HW276945  10.948   6.704   1.856  0.9360  1.5836  0.0369
24472SOL     OW76946   8.124   8.613   9.574  0.3508 -0.0536 -0.0236
24472SOL    HW176947   8.059   8.574   9.516 -0.4366  0.4700  0.4819
24472SOL    HW276948   8.072   8.652   9.645  1.0789  1.7778 -0.4334
24473SOL     OW76949   8.127   0.505  11.059 -0.3272  0.5200  0.1010
24473SOL    HW176950   8.210   0.524  11.015 -0.0313 -0.9619 -0.0434
24473SOL    HW276951   8.085   0.440  11.004 -1.0061  0.3284  0.8245
24474SOL     OW76952  10.259   9.434   4.626  0.1922  0.2103  0.0464
24474SOL    HW176953  10.251   9.383   4.707 -0.9409 -0.0550 -0.2096
24474SOL    HW276954  10.175   9.421   4.581  0.7379  0.4804 -1.0998
24475SOL     OW76955   4.197   5.803  10.725 -0.2596 -0.0087 -1.0585
24475SOL    HW176956   4.197   5.726  10.668 -1.5090 -0.0727 -0.9894
24475SOL    HW276957   4.249   5.777  10.801 -1.5105 -1.1494 -0.5658
24476SOL     OW76958   6.201   4.310   1.207  0.0989 -0.3753 -0.1422
24476SOL    HW176959   6.115   4.293   1.246  1.0757 -0.6988  2.0227
24476SOL    HW276960   6.242   4.373   1.266  1.6929 -0.9095 -0.6367
24477SOL     OW76961   6.445   0.745   6.583  0.2565 -0.0924 -0.9849
24477SOL    HW176962   6.482   0.803   6.649 -0.2028 -1.4254  0.5099
24477SOL    HW276963   6.351   0.744   6.601 -0.0530  0.4333 -2.4350
24478SOL     OW76964   7.462   2.922   3.807  0.3636  0.0333  0.2850
24478SOL    HW176965   7.397   2.949   3.872  1.1469  1.2933  0.5783
24478SOL    HW276966   7.430   2.838   3.775 -2.1036  1.1805 -0.5275
24479SOL     OW76967   3.095   1.539   7.699 -0.1704  0.3086  0.1032
24479SOL    HW176968   3.009   1.579   7.689 -0.2400  0.2037  0.2718
24479SOL    HW276969   3.150   1.581   7.632 -0.0810  1.1330  0.6861
24480SOL     OW76970   3.858  10.678   8.458 -0.0167  0.5446 -0.1099
24480SOL    HW176971   3.867  10.617   8.385 -1.4970  1.6542 -1.2950
24480SOL    HW276972   3.819  10.626   8.528  1.8958 -0.6610  0.1275
24481SOL     OW76973  10.002   6.448   5.911 -0.4137  0.5477 -0.0210
24481SOL    HW176974   9.923   6.432   5.963 -0.3185  0.0467 -0.0338
24481SOL    HW276975  10.073   6.410   5.963 -0.2763  0.3306 -0.3691
24482SOL     OW76976   9.399   1.878   8.984 -0.4167  0.1418  0.3386
24482SOL    HW176977   9.364   1.942   9.046  0.2620  0.6866  0.1689
24482SOL    HW276978   9.369   1.909   8.898 -0.5333 -0.0624  0.3057
24483SOL     OW76979  10.040   5.942   7.519 -0.2095 -0.2367 -0.5357
24483SOL    HW176980  10.056   5.892   7.439  2.5111 -1.2616  0.5245
24483SOL    HW276981  10.097   6.019   7.512  2.2527 -1.6975  1.4474
24484SOL     OW76982   9.288   7.869   5.573 -0.0334 -0.0346  0.1426
24484SOL    HW176983   9.377   7.840   5.553  0.0585 -0.9411  1.7259
24484SOL    HW276984   9.299   7.943   5.632 -0.3386 -0.1838  0.3869
24485SOL     OW76985   2.263   8.225   4.925 -0.5216 -0.5860  0.1476
24485SOL    HW176986   2.322   8.287   4.882 -0.3679  0.1035  1.3076
24485SOL    HW276987   2.226   8.274   4.998 -2.4404 -1.0516 -0.4460
24486SOL     OW76988   5.190   8.115   8.620  0.0033  0.6658  0.1215
24486SOL    HW176989   5.263   8.082   8.567  0.0710  1.7003 -0.4451
24486SOL    HW276990   5.227   8.187   8.671 -0.4393  0.6945  0.4144
24487SOL     OW76991   3.883   6.450  10.314 -0.2439  1.1531  0.3771
24487SOL    HW176992   3.893   6.383  10.246 -0.1598 -1.7728  3.0686
24487SOL    HW276993   3.792   6.477  10.308 -0.0451  1.5695 -1.3387
24488SOL     OW76994   6.964   2.697   0.464 -0.3327  0.1761 -0.9451
24488SOL    HW176995   6.953   2.692   0.559  0.7781  0.0264 -0.8096
24488SOL    HW276996   6.881   2.730   0.432 -2.0084 -2.9509 -0.2383
24489SOL     OW76997   4.277  10.991   7.824 -0.7619  0.0754 -0.0171
24489SOL    HW176998   4.227  11.000   7.743 -2.5977 -4.5388  0.3132
24489SOL    HW276999   4.365  10.967   7.795 -0.3171  2.1194 -0.5373
24490SOL     OW77000   8.498   0.287   5.202  0.0568 -0.2031 -0.1185
24490SOL    HW177001   8.457   0.371   5.183 -0.5055 -0.3629  0.3469
24490SOL    HW277002   8.588   0.296   5.171 -0.1684  0.3558 -0.6271
24491SOL     OW77003   9.557   9.579   3.453 -0.1125  0.2101  0.0924
24491SOL    HW177004   9.470   9.574   3.494  0.0056  0.7054  0.4224
24491SOL    HW277005   9.596   9.658   3.491  0.1373  0.4924 -0.7328
24492SOL     OW77006   9.226  10.230   1.282  0.4286 -0.6065 -0.2170
24492SOL    HW177007   9.296  10.165   1.285 -0.2328 -1.3574 -0.8698
24492SOL    HW277008   9.214  10.249   1.189  0.0725 -0.1328 -0.0790
24493SOL     OW77009  10.386   4.401   0.381  0.6494 -0.3068 -0.0512
24493SOL    HW177010  10.338   4.394   0.299  0.5040  0.1366 -0.0079
24493SOL    HW277011  10.352   4.329   0.435 -1.0075  0.8204  0.4909
24494SOL     OW77012   1.414   7.527   1.345  0.0864  0.0207  0.4724
24494SOL    HW177013   1.320   7.511   1.343  0.2709 -1.0528 -0.2552
24494SOL    HW277014   1.430   7.592   1.278  0.0133 -0.7510 -0.3120
24495SOL     OW77015   7.189   9.682  10.347  0.4801  0.0772 -0.2243
24495SOL    HW177016   7.235   9.687  10.263 -0.7245 -0.8632 -0.9791
24495SOL    HW277017   7.129   9.757  10.346 -0.9088 -0.9949 -1.1036
24496SOL     OW77018   4.423   0.214   5.816  0.0836  0.1494 -0.0437
24496SOL    HW177019   4.413   0.306   5.793 -1.9202  0.5117  1.9535
24496SOL    HW277020   4.492   0.214   5.883 -0.9706  0.4496  1.0752
24497SOL     OW77021   7.051   6.665   6.249 -0.0542 -0.3736  0.3209
24497SOL    HW177022   6.988   6.709   6.307 -0.6013 -1.6378  0.7099
24497SOL    HW277023   7.135   6.675   6.293 -0.5358 -1.7517  1.6294
24498SOL     OW77024   8.506   6.637   4.580 -0.1010 -0.0490  0.0557
24498SOL    HW177025   8.517   6.543   4.591  0.6595  0.2146  1.7438
24498SOL    HW277026   8.551   6.657   4.498 -0.7498 -1.2044 -0.6207
24499SOL     OW77027   7.922  10.275   1.066  0.2384  0.0509 -0.3874
24499SOL    HW177028   7.878  10.221   1.000  0.3614 -1.9628  1.0684
24499SOL    HW277029   7.876  10.358   1.064 -1.2116 -0.7257 -1.4494
24500SOL     OW77030   1.890   2.807   5.832  0.0887  0.2073 -0.2823
24500SOL    HW177031   1.895   2.711   5.832  0.1629  0.2104 -1.0365
24500SOL    HW277032   1.838   2.827   5.910  0.0258 -0.4470 -0.1437
24501SOL     OW77033   9.738   5.569   9.353 -0.0345 -0.6300 -0.2594
24501SOL    HW177034   9.782   5.616   9.282 -0.1470  1.9640  1.2839
24501SOL    HW277035   9.809   5.544   9.412 -0.1974 -0.4996 -0.0101
24502SOL     OW77036   9.739   9.963   7.976  0.3192  0.1007 -0.4676
24502SOL    HW177037   9.827   9.924   7.975  0.0531 -0.4996 -1.1040
24502SOL    HW277038   9.680   9.888   7.973 -0.2375  0.4681  0.6588
24503SOL     OW77039   1.406   0.244  10.922  0.2132 -0.0402 -0.4599
24503SOL    HW177040   1.454   0.249  10.839 -0.8548 -0.3496 -1.1206
24503SOL    HW277041   1.402   0.334  10.954 -0.2164  0.2422 -1.2665
24504SOL     OW77042   8.315   1.601   7.803  0.3750 -0.2906  0.4903
24504SOL    HW177043   8.270   1.673   7.848  1.4115  0.7886 -0.1521
24504SOL    HW277044   8.354   1.642   7.726  0.7997 -1.5975 -0.0069
24505SOL     OW77045   7.872   8.367   8.378 -0.1373 -0.2490  0.1258
24505SOL    HW177046   7.944   8.372   8.315 -0.2151  0.5898  0.1030
24505SOL    HW277047   7.816   8.296   8.344  0.3577 -0.4940 -0.1859
24506SOL     OW77048   9.477   3.462  10.697  0.2355  0.2185 -0.1698
24506SOL    HW177049   9.493   3.422  10.611  0.1842  1.6785 -0.8962
24506SOL    HW277050   9.496   3.555  10.683  1.4849  0.3007  1.7453
24507SOL     OW77051   1.714   8.747   1.496  0.3810 -0.1256  0.4286
24507SOL    HW177052   1.782   8.737   1.562  0.7379  0.7574  0.1989
24507SOL    HW277053   1.636   8.706   1.535  1.4163 -2.6638  0.0364
24508SOL     OW77054   4.448   3.217   7.423  0.2127 -0.3342 -0.3331
24508SOL    HW177055   4.426   3.222   7.516  2.1716 -1.8275  0.2654
24508SOL    HW277056   4.438   3.307   7.391 -1.0901  0.0924  1.1495
24509SOL     OW77057   2.529   1.939   0.007 -0.0373  0.1951  0.4423
24509SOL    HW177058   2.558   2.011   0.064  0.1293  0.5641 -0.1063
24509SOL    HW277059   2.455   1.975  -0.041 -1.3217 -0.6821  1.6903
24510SOL     OW77060   7.679   4.297   6.798  0.5003 -0.2081 -0.3858
24510SOL    HW177061   7.732   4.364   6.754 -0.0550  0.4148 -0.1139
24510SOL    HW277062   7.647   4.341   6.877  2.3788 -1.6179  1.2637
24511SOL     OW77063   4.252   0.216   0.658  0.5412  0.0297 -0.4557
24511SOL    HW177064   4.243   0.292   0.600  1.9431 -0.3404 -1.2046
24511SOL    HW277065   4.184   0.229   0.725 -0.1883  1.1885 -1.3781
24512SOL     OW77066   5.256   3.908   5.487 -0.0324  0.0157 -0.1016
24512SOL    HW177067   5.238   3.818   5.460  1.8191 -0.7054  0.8987
24512SOL    HW277068   5.291   3.950   5.408  2.0006 -1.0683  0.1434
24513SOL     OW77069   1.064   8.298   5.736 -0.7688 -0.5551  0.0905
24513SOL    HW177070   1.071   8.211   5.697 -3.6539 -0.3501 -1.1417
24513SOL    HW277071   0.997   8.288   5.804 -1.5226  0.8111 -0.4242
24514SOL     OW77072   3.535   0.754   0.165  0.4789 -0.1351  0.3947
24514SOL    HW177073   3.623   0.739   0.198  0.5246 -0.2214  0.2333
24514SOL    HW277074   3.544   0.757   0.070 -0.0079 -2.5517  0.1882
24515SOL     OW77075   7.116  10.924   0.791  0.4405 -0.1420  0.1430
24515SOL    HW177076   7.182  10.936   0.723  1.9724 -0.0432  1.5910
24515SOL    HW277077   7.035  10.904   0.743  1.4480 -0.0131 -1.6826
24516SOL     OW77078   8.026   4.877   3.422  0.0332 -0.3140  0.7718
24516SOL    HW177079   8.081   4.950   3.450 -0.4121  0.5164 -0.4348
24516SOL    HW277080   8.086   4.803   3.415  0.7489  0.2601  0.7311
24517SOL     OW77081   9.476   7.964   6.038 -0.2111  0.1908 -0.4383
24517SOL    HW177082   9.409   7.961   6.106  1.0558  1.0218  0.9172
24517SOL    HW277083   9.447   7.901   5.973 -2.1392  0.3110  0.2326
24518SOL     OW77084   6.775   3.507   8.019  0.2434 -0.2911 -0.1938
24518SOL    HW177085   6.698   3.486   8.071  0.5208 -2.1122 -0.4521
24518SOL    HW277086   6.838   3.438   8.041  0.6225 -0.6935 -2.3979
24519SOL     OW77087   5.645   3.151   5.650 -0.1226 -0.6562 -0.0094
24519SOL    HW177088   5.636   3.202   5.570 -0.5119 -2.4574 -1.1684
24519SOL    HW277089   5.738   3.131   5.656 -0.2686 -1.6300 -0.7628
24520SOL     OW77090   4.764   9.320   2.840  0.3075 -0.0715  0.0517
24520SOL    HW177091   4.770   9.238   2.889  0.6613  0.3906  0.7901
24520SOL    HW277092   4.694   9.369   2.882 -1.5668 -0.9401 -1.8636
24521SOL     OW77093  11.032   0.034   3.759 -0.4861 -0.4019  0.1043
24521SOL    HW177094  11.021   0.083   3.841 -1.5447 -0.4462 -0.0007
24521SOL    HW277095  10.991  -0.050   3.776 -1.3503 -0.1604 -0.6950
24522SOL     OW77096   8.887   3.048   8.457 -0.3826  0.1164  0.2442
24522SOL    HW177097   8.856   2.982   8.394 -1.4603  0.8385 -0.0093
24522SOL    HW277098   8.823   3.045   8.528 -0.8740  1.3944 -0.1203
24523SOL     OW77099   8.738   8.621   6.996 -0.0168  0.2927 -0.3290
24523SOL    HW177100   8.782   8.543   6.961 -1.6634 -0.6307 -0.4770
24523SOL    HW277101   8.737   8.607   7.091  2.1648  1.5426 -0.0678
24524SOL     OW77102   7.247   5.990   6.280  0.7175 -0.3162 -0.1753
24524SOL    HW177103   7.337   6.022   6.279  0.9221 -0.8385 -1.8026
24524SOL    HW277104   7.246   5.923   6.349  1.6096 -0.4113 -0.2490
24525SOL     OW77105   6.071   9.902   3.218  0.2766  0.0865 -0.2805
24525SOL    HW177106   6.093   9.883   3.309  0.3089 -3.3540 -0.8849
24525SOL    HW277107   5.976   9.912   3.218  0.2769  0.1058  0.1138
24526SOL     OW77108   4.626   7.831   3.350 -0.9195  0.2800 -0.2984
24526SOL    HW177109   4.532   7.812   3.348 -1.4184  2.2765  0.7191
24526SOL    HW277110   4.639   7.875   3.434  0.7484  0.8754 -0.8389
24527SOL     OW77111   1.488   7.752   3.292 -0.2424 -0.0209 -0.0718
24527SOL    HW177112   1.498   7.718   3.382  1.3121 -1.3041 -0.6824
24527SOL    HW277113   1.573   7.791   3.272 -1.1445  1.8753 -0.3960
24528SOL     OW77114   3.688   0.020   7.701 -0.6357 -0.0690  0.2376
24528SOL    HW177115   3.699  -0.058   7.646  0.2164  0.4274 -0.3242
24528SOL    HW277116   3.607   0.004   7.749 -1.1811 -0.7199 -0.8501
24529SOL     OW77117   2.578  10.970   4.957  0.0901  0.3001 -0.1019
24529SOL    HW177118   2.519  11.042   4.980  1.6242  1.9743 -1.1475
24529SOL    HW277119   2.643  10.968   5.027 -0.1455 -0.3561  0.1154
24530SOL     OW77120   8.301   9.924   2.991 -0.7474  0.0816  0.2457
24530SOL    HW177121   8.246   9.869   2.934  2.2127 -3.4977  0.4717
24530SOL    HW277122   8.374   9.867   3.015  1.1210  3.3271  3.0056
24531SOL     OW77123   4.918   8.206   2.018  0.2793  0.9332 -0.0530
24531SOL    HW177124   4.943   8.118   2.045 -0.4342  0.7025 -0.1177
24531SOL    HW277125   4.929   8.260   2.096 -2.1350  0.2085  0.9078
24532SOL     OW77126   8.408   3.889   7.714  0.0196  0.0198  0.0852
24532SOL    HW177127   8.338   3.905   7.777  0.5803 -0.0260  0.7305
24532SOL    HW277128   8.363   3.857   7.636 -0.5581 -1.4512  0.9874
24533SOL     OW77129   0.963   1.876   4.156  0.6686 -0.8896  0.1912
24533SOL    HW177130   1.002   1.959   4.127 -2.6146  1.7292  2.4923
24533SOL    HW277131   0.926   1.895   4.242 -1.6961 -4.2696  0.1312
24534SOL     OW77132   8.999  10.803   2.224 -0.2599 -0.0408 -0.4955
24534SOL    HW177133   9.091  10.783   2.210 -0.3009 -1.1967  0.6929
24534SOL    HW277134   8.999  10.888   2.268  0.2701 -0.3134  0.0385
24535SOL     OW77135   3.974   0.524   3.580 -0.2642 -0.7068 -0.3035
24535SOL    HW177136   3.912   0.501   3.649  0.8392  2.1518  1.8117
24535SOL    HW277137   4.033   0.449   3.576  0.5666 -0.3805  3.0604
24536SOL     OW77138   9.619   8.954  10.647 -0.1533  0.2145  0.1834
24536SOL    HW177139   9.558   8.907  10.591 -0.3592  1.1580 -0.4042
24536SOL    HW277140   9.566   9.021  10.690  0.4585  1.0562 -0.3397
24537SOL     OW77141   9.181  10.125   7.731  0.2271  0.0237 -0.1482
24537SOL    HW177142   9.095  10.161   7.756  0.3835 -0.1856  0.7274
24537SOL    HW277143   9.164  10.077   7.650 -0.2293  1.0556 -0.6852
24538SOL     OW77144   3.407   2.213   5.474 -0.4247 -0.0182 -0.0020
24538SOL    HW177145   3.448   2.182   5.394  1.3244  3.3033 -0.5843
24538SOL    HW277146   3.323   2.250   5.446 -0.2591  0.2525 -0.1415
24539SOL     OW77147   3.288   4.898   2.639  0.7217 -0.0952 -0.3265
24539SOL    HW177148   3.372   4.871   2.603  0.7709 -0.8435  0.3117
24539SOL    HW277149   3.264   4.977   2.590  1.8340  0.1761 -0.4489
24540SOL     OW77150   8.172   2.650   6.852 -0.3067  0.1880  0.0933
24540SOL    HW177151   8.256   2.603   6.852  1.7685  3.4590  2.3493
24540SOL    HW277152   8.160   2.678   6.761  1.8145  0.7228 -0.0830
24541SOL     OW77153   5.852   9.841   5.676  0.5596  0.2638  0.0281
24541SOL    HW177154   5.774   9.844   5.732 -1.9329 -1.7270 -3.0184
24541SOL    HW277155   5.904   9.768   5.710 -0.4695 -0.3628  0.2747
24542SOL     OW77156   9.036   5.234   8.111 -0.3261  0.1150 -0.4862
24542SOL    HW177157   9.049   5.327   8.125  1.3075 -0.4439  2.5495
24542SOL    HW277158   9.068   5.218   8.022  3.8614  1.8131  0.4764
24543SOL     OW77159   7.445   8.129   0.480 -0.4031  0.0653 -0.3203
24543SOL    HW177160   7.526   8.088   0.450  1.5248  1.8592  2.0048
24543SOL    HW277161   7.414   8.072   0.551 -0.2863  0.2116 -0.1512
24544SOL     OW77162  10.170   9.218   0.326 -0.0892 -0.1769  0.1303
24544SOL    HW177163  10.134   9.131   0.312  0.3913 -0.0745 -2.2743
24544SOL    HW277164  10.264   9.206   0.330 -0.0600  0.1584  0.5584
24545SOL     OW77165   5.289   3.260   7.416  0.5385  0.2571 -0.0463
24545SOL    HW177166   5.240   3.336   7.450 -0.6432 -0.7761  0.6410
24545SOL    HW277167   5.376   3.295   7.396 -0.4103  2.1615 -1.2145
24546SOL     OW77168   1.594   6.446   6.273 -0.0023  0.4223  0.2689
24546SOL    HW177169   1.512   6.476   6.313 -0.0718 -1.1897  1.4415
24546SOL    HW277170   1.663   6.487   6.326 -0.0866 -0.1813  0.8618
24547SOL     OW77171   4.495  10.264   8.564  0.0205  0.0819 -0.4408
24547SOL    HW177172   4.406  10.230   8.569 -0.4936  1.4727  0.9290
24547SOL    HW277173   4.484  10.359   8.565  1.5390  0.2786  0.3281
24548SOL     OW77174   8.200  10.262   7.710  0.1516  0.1221  0.7431
24548SOL    HW177175   8.136  10.202   7.749  0.6592 -1.0550 -0.1546
24548SOL    HW277176   8.184  10.255   7.616 -0.7944  2.6126  0.6462
24549SOL     OW77177   1.176   6.277   3.236 -0.0416 -0.3006 -0.1442
24549SOL    HW177178   1.082   6.295   3.239 -0.0944  0.3326 -2.9589
24549SOL    HW277179   1.182   6.193   3.189  0.7994 -0.5203  0.3415
24550SOL     OW77180   1.472   6.309   3.372 -0.2737 -0.5998  0.0260
24550SOL    HW177181   1.419   6.292   3.295  1.6089 -2.6247 -0.9005
24550SOL    HW277182   1.500   6.223   3.403  1.7479  0.3193  0.9754
24551SOL     OW77183   0.928  10.906   7.443  0.3606 -0.1843 -0.6663
24551SOL    HW177184   0.978  10.856   7.378  1.7343  0.3946 -0.0796
24551SOL    HW277185   0.981  10.983   7.461 -0.1998 -0.1162  0.8305
24552SOL     OW77186   6.846   7.590  10.469 -0.0204  0.6388  0.0472
24552SOL    HW177187   6.762   7.625  10.500 -0.5142 -1.5174  1.3410
24552SOL    HW277188   6.822   7.507  10.426  1.5375 -0.8220  1.8410
24553SOL     OW77189   0.118   9.355   3.018 -0.0920 -0.7567 -0.1528
24553SOL    HW177190   0.200   9.307   3.026  0.5186  0.3548  0.4915
24553SOL    HW277191   0.133   9.416   2.946 -0.9285 -1.6233 -1.0960
24554SOL     OW77192  10.422   9.625   7.370  0.2384 -0.4543  0.2697
24554SOL    HW177193  10.471   9.570   7.310  0.0357  0.2311 -0.5375
24554SOL    HW277194  10.331   9.597   7.360  0.3888 -1.4177  1.4355
24555SOL     OW77195   7.345   0.157   6.127 -0.3106 -0.5146  0.2146
24555SOL    HW177196   7.397   0.233   6.156 -0.2206 -0.7993  0.8100
24555SOL    HW277197   7.373   0.086   6.184 -0.5808 -0.9381 -0.1774
24556SOL     OW77198   6.352   6.479   8.565 -0.1012 -0.0096  0.5976
24556SOL    HW177199   6.268   6.512   8.595 -1.9245 -2.5754 -1.2518
24556SOL    HW277200   6.345   6.476   8.470  2.9654  1.6967  0.1979
24557SOL     OW77201   0.412   1.924   3.778 -0.2282 -0.4390  0.0900
24557SOL    HW177202   0.404   1.996   3.841  0.1559 -0.4904  0.2004
24557SOL    HW277203   0.492   1.943   3.729 -0.3508 -0.5724 -0.1633
24558SOL     OW77204   2.753  10.531  10.361  0.2406 -0.2967 -0.3545
24558SOL    HW177205   2.701  10.573  10.293  0.4550  0.2004 -0.2231
24558SOL    HW277206   2.738  10.437  10.350 -1.4908 -0.1395  0.3110
24559SOL     OW77207   5.675   4.968   3.884 -0.0115  0.5870 -0.5386
24559SOL    HW177208   5.769   4.949   3.884 -0.1765 -0.2756 -1.0205
24559SOL    HW277209   5.633   4.883   3.881 -0.8392  0.9295  0.5863
24560SOL     OW77210   9.904   7.683   5.215 -0.4413  0.6574 -0.4725
24560SOL    HW177211   9.931   7.635   5.294  0.8582  3.9867  1.2813
24560SOL    HW277212   9.860   7.761   5.248  0.5102  2.3851 -3.0369
24561SOL     OW77213   8.426   1.341   5.491  0.3959 -0.1739  0.4993
24561SOL    HW177214   8.441   1.433   5.469 -0.3848 -0.2656 -0.4827
24561SOL    HW277215   8.332   1.335   5.509  0.2928 -0.9197 -0.2151
24562SOL     OW77216  10.949   0.379   7.669  0.3239 -0.5198 -0.2000
24562SOL    HW177217  10.878   0.379   7.733 -0.2396 -1.3045 -0.8059
24562SOL    HW277218  10.987   0.291   7.676 -0.3707 -0.9613 -1.6048
24563SOL     OW77219   1.189   9.198   1.151 -0.6005 -1.0210  0.5323
24563SOL    HW177220   1.255   9.247   1.102 -0.8326 -1.8728 -0.7014
24563SOL    HW277221   1.231   9.175   1.233 -0.2212  0.5386  0.8090
24564SOL     OW77222   8.047   8.425   4.412  0.1501 -0.2971 -0.0646
24564SOL    HW177223   8.094   8.438   4.330 -0.8418  0.8106 -0.4858
24564SOL    HW277224   7.959   8.397   4.387  0.1260 -0.9100  0.6579
24565SOL     OW77225   8.641   7.497   2.221  0.0157 -0.0187  0.3198
24565SOL    HW177226   8.677   7.486   2.133 -0.7049 -0.6757  0.0954
24565SOL    HW277227   8.546   7.487   2.209 -0.1032  0.1051  1.1337
24566SOL     OW77228   6.394   6.013  10.294  0.5205 -0.2690  0.2429
24566SOL    HW177229   6.421   6.055  10.376  0.7134  0.2579 -0.0830
24566SOL    HW277230   6.377   6.086  10.234 -1.0835 -0.5853  0.2527
24567SOL     OW77231   8.329   2.959   4.575  0.7664  0.3270 -0.0212
24567SOL    HW177232   8.305   2.985   4.486  1.1115 -0.5134 -0.3724
24567SOL    HW277233   8.418   2.924   4.566 -0.1762 -2.2705  0.1531
24568SOL     OW77234   2.348   4.661   8.351 -0.4096  0.2354 -0.0924
24568SOL    HW177235   2.366   4.671   8.258 -0.9759 -0.9833 -0.3407
24568SOL    HW277236   2.303   4.742   8.375 -0.1110  0.6324 -0.8268
24569SOL     OW77237   0.610   5.859   1.247 -0.0957 -0.3238  0.8916
24569SOL    HW177238   0.649   5.875   1.333  1.0147  1.2124  0.1411
24569SOL    HW277239   0.681   5.823   1.194 -0.3717  0.0713  0.2278
24570SOL     OW77240   8.255   3.745   7.500  0.2133  0.3350 -0.3631
24570SOL    HW177241   8.239   3.823   7.447 -0.8169 -0.4334 -1.2616
24570SOL    HW277242   8.285   3.680   7.437 -2.3576 -1.0215 -0.3573
24571SOL     OW77243   5.131   1.966   8.519 -0.5227  0.4461  0.1971
24571SOL    HW177244   5.177   1.990   8.599 -2.8746  1.8716  1.2475
24571SOL    HW277245   5.093   2.049   8.488  0.7888  0.0336 -2.7600
24572SOL     OW77246   2.599   4.655   2.189 -0.4253  0.4983 -0.2160
24572SOL    HW177247   2.627   4.591   2.255  0.2223  0.7890 -0.2005
24572SOL    HW277248   2.536   4.607   2.135 -0.7472  0.1705  0.4358
24573SOL     OW77249   8.595   7.456  10.959 -0.3475 -0.0177  0.2931
24573SOL    HW177250   8.619   7.520  10.891 -1.8776 -1.0584 -1.3065
24573SOL    HW277251   8.519   7.494  11.001 -0.6959 -0.3523 -0.0322
24574SOL     OW77252   7.028  10.213   8.912  0.0647  0.0383  0.2672
24574SOL    HW177253   7.107  10.259   8.881  0.8097 -0.7799  0.8856
24574SOL    HW277254   7.010  10.149   8.843 -0.4481  0.6436 -0.1741
24575SOL     OW77255   9.766   5.166   6.410 -0.1198 -0.1795  0.1635
24575SOL    HW177256   9.711   5.091   6.434  0.8147 -1.3274 -1.1354
24575SOL    HW277257   9.800   5.144   6.324 -0.6138  2.2223 -0.7248
24576SOL     OW77258   8.999   5.055   9.659 -0.7744 -0.2626  0.2441
24576SOL    HW177259   9.067   5.052   9.592  0.1338  1.1317  1.0390
24576SOL    HW277260   9.037   5.008   9.734  0.4098  2.5233  1.5393
24577SOL     OW77261   7.298   4.384   3.441  0.4975 -0.7340  0.1788
24577SOL    HW177262   7.246   4.435   3.503  1.0848 -0.7828  0.7190
24577SOL    HW277263   7.382   4.371   3.485  2.0191  1.6939 -1.7681
24578SOL     OW77264   6.509  10.128   9.419 -0.1382 -0.5097  0.1665
24578SOL    HW177265   6.515  10.042   9.376 -1.7606 -0.6823  0.2125
24578SOL    HW277266   6.573  10.182   9.373  1.6802 -1.9851  0.7992
24579SOL     OW77267   8.194   9.691   8.948 -0.8172 -0.2079 -0.3609
24579SOL    HW177268   8.248   9.770   8.952  0.9829 -1.3654 -0.6730
24579SOL    HW277269   8.143   9.693   9.029 -0.4887  1.0494 -0.1556
24580SOL     OW77270   8.265   9.329   6.861 -0.3587 -0.4390  0.1253
24580SOL    HW177271   8.324   9.273   6.811 -0.7144 -0.5357 -0.1892
24580SOL    HW277272   8.234   9.395   6.798  0.5686  0.5294  0.6421
24581SOL     OW77273   8.138   8.866   3.569 -0.0995 -0.5455 -0.1484
24581SOL    HW177274   8.128   8.950   3.524  0.3983  0.0862  0.8746
24581SOL    HW277275   8.144   8.889   3.661  2.6532 -1.4602 -0.0180
24582SOL     OW77276   6.902   2.430   7.749 -0.0393 -0.6462 -0.1724
24582SOL    HW177277   6.904   2.390   7.836 -1.7475 -0.0238  0.1838
24582SOL    HW277278   6.809   2.442   7.730  0.2925 -0.8361 -2.1314
24583SOL     OW77279   6.528   0.049   3.389  0.0573 -0.2412 -0.4672
24583SOL    HW177280   6.440   0.080   3.409 -0.6334 -2.6283  0.4896
24583SOL    HW277281   6.585   0.124   3.409 -1.5176  0.5640  1.2765
24584SOL     OW77282   8.872   9.292   9.775  0.0751  0.3619 -0.0680
24584SOL    HW177283   8.917   9.298   9.690 -0.5262 -1.5753 -0.5800
24584SOL    HW277284   8.811   9.220   9.764 -0.0430  0.0944  2.0283
24585SOL     OW77285   5.846   4.420   3.654  0.1579 -0.4218 -0.5389
24585SOL    HW177286   5.928   4.464   3.677 -0.1982 -0.6392  1.2894
24585SOL    HW277287   5.863   4.328   3.673  0.1318 -0.7880 -2.1283
24586SOL     OW77288   0.223  10.080   9.164  0.3306 -0.2774 -0.5805
24586SOL    HW177289   0.279  10.096   9.088 -0.5352  0.3646 -1.0903
24586SOL    HW277290   0.211   9.985   9.166  0.2011 -0.2791 -1.3586
24587SOL     OW77291   3.868   8.509   7.933 -0.2103 -0.4915 -0.5064
24587SOL    HW177292   3.865   8.594   7.977 -2.5869 -0.5360 -0.4563
24587SOL    HW277293   3.834   8.447   7.997 -1.7365 -0.9009 -1.6547
24588SOL     OW77294   7.351   0.730   9.325 -0.1513 -0.3792  0.5708
24588SOL    HW177295   7.357   0.818   9.362 -0.8385 -0.5585  1.1265
24588SOL    HW277296   7.279   0.689   9.372  0.0002 -1.1590  0.1398
24589SOL     OW77297   8.633   3.019   9.295  0.0572  0.1508 -0.3632
24589SOL    HW177298   8.702   3.015   9.229  1.0192 -0.1907  0.6465
24589SOL    HW277299   8.562   2.966   9.258  0.7239 -0.3475 -0.9591
24590SOL     OW77300   7.726   2.176   4.997  0.0997 -0.0453  0.6517
24590SOL    HW177301   7.806   2.160   4.947  0.9016  0.7376  1.6801
24590SOL    HW277302   7.711   2.094   5.045 -0.4056 -0.6262 -0.4534
24591SOL     OW77303   9.640   8.937   7.433  0.1190  0.0927 -0.2597
24591SOL    HW177304   9.589   8.934   7.513 -1.8102  1.2224 -1.3775
24591SOL    HW277305   9.618   9.021   7.393  1.3319 -0.2650 -1.7839
24592SOL     OW77306   2.785  10.522   3.103 -0.3605 -0.1786 -0.2410
24592SOL    HW177307   2.737  10.531   3.185  0.1297 -1.6498  0.2404
24592SOL    HW277308   2.721  10.488   3.041 -0.7020  0.8243 -0.4486
24593SOL     OW77309   7.356   1.798   9.420  0.3706  0.1707  0.5330
24593SOL    HW177310   7.281   1.780   9.476 -0.0369  0.1448 -0.0116
24593SOL    HW277311   7.323   1.787   9.331  0.9747  0.3324  0.2807
24594SOL     OW77312  10.997   1.835   9.122  0.2843  0.5620  0.6179
24594SOL    HW177313  10.991   1.843   9.027  0.6386 -1.4637  0.3741
24594SOL    HW277314  11.091   1.831   9.140  0.2338 -1.5806  0.7224
24595SOL     OW77315   7.406   8.520   5.950 -0.1543  0.0660  0.2446
24595SOL    HW177316   7.414   8.546   5.859  1.5310 -0.9993  0.0416
24595SOL    HW277317   7.373   8.598   5.995 -1.8303  0.3455 -1.3712
24596SOL     OW77318   8.654   5.766   0.019  0.8443 -0.3169 -0.0647
24596SOL    HW177319   8.587   5.834   0.013  1.5069  0.3268 -0.3368
24596SOL    HW277320   8.613   5.697   0.070 -0.7790 -0.8460 -1.9666
24597SOL     OW77321   9.368   9.097   2.581  0.3892  0.3771 -0.1726
24597SOL    HW177322   9.456   9.076   2.611 -0.3086 -0.6192  1.2993
24597SOL    HW277323   9.362   9.192   2.590  1.0670  0.3742  0.4608
24598SOL     OW77324  10.694   8.944   5.223 -0.2713 -0.2177  0.2203
24598SOL    HW177325  10.706   9.030   5.262 -1.3760  0.1960 -0.2826
24598SOL    HW277326  10.683   8.962   5.129  2.9857 -1.2347 -0.4573
24599SOL     OW77327   0.896   3.348   0.724  0.3134 -0.4846 -0.1009
24599SOL    HW177328   0.957   3.385   0.787 -3.7490  3.0152  2.3410
24599SOL    HW277329   0.891   3.413   0.654 -0.8123 -0.5121 -0.0671
24600SOL     OW77330   5.620   3.492   9.458  0.4751 -0.6020  0.6653
24600SOL    HW177331   5.577   3.486   9.372 -0.3182 -2.2362  1.1415
24600SOL    HW277332   5.611   3.584   9.483 -0.1679 -0.3115 -0.5528
24601SOL     OW77333   8.056   3.185   3.496  0.3720  0.3072 -0.0720
24601SOL    HW177334   7.992   3.209   3.428  0.1778  0.2391  0.0837
24601SOL    HW277335   8.005   3.134   3.559  0.4016  0.9183  0.4521
24602SOL     OW77336   9.267   6.356   8.064 -0.0471  0.0772  0.0327
24602SOL    HW177337   9.232   6.268   8.078  1.0161  0.0010  2.7280
24602SOL    HW277338   9.360   6.350   8.087 -0.2394  2.1555  1.7605
24603SOL     OW77339  10.377   1.842   8.604  0.2604  0.3350 -0.1820
24603SOL    HW177340  10.407   1.751   8.595 -2.4717 -0.6121 -0.7303
24603SOL    HW277341  10.288   1.834   8.640 -1.3298  2.5633 -3.1832
24604SOL     OW77342   5.179   3.955   1.427  0.2691  0.6358  0.2688
24604SOL    HW177343   5.218   4.038   1.399  2.2918 -0.7635 -1.3058
24604SOL    HW277344   5.114   3.980   1.493  1.8386  3.3390  0.9265
24605SOL     OW77345   2.282   6.287   9.112 -0.3834 -0.3899 -0.1738
24605SOL    HW177346   2.345   6.215   9.116  0.2029  0.0689 -0.8171
24605SOL    HW277347   2.220   6.261   9.044  0.5843  0.2661 -1.3635
24606SOL     OW77348  10.436   7.320   5.997 -0.4129  0.3488  0.6826
24606SOL    HW177349  10.401   7.304   6.084  0.3594  0.7783  1.0793
24606SOL    HW277350  10.359   7.324   5.940 -0.8812 -0.7222  1.2048
24607SOL     OW77351   2.765   3.225   9.779  0.4082  0.3134  0.5971
24607SOL    HW177352   2.777   3.192   9.690 -0.2667 -1.9744  1.2666
24607SOL    HW277353   2.852   3.217   9.819  0.3094 -0.5325  0.6733
24608SOL     OW77354   8.165   1.112   1.511 -0.3410  0.2582 -0.7147
24608SOL    HW177355   8.094   1.169   1.539 -0.0294  0.3552 -0.1064
24608SOL    HW277356   8.171   1.045   1.578  0.3663  0.4508 -0.5677
24609SOL     OW77357   5.425  10.118   3.541  0.2494  0.3284  0.4142
24609SOL    HW177358   5.490  10.090   3.476 -0.6982 -0.5889 -0.1584
24609SOL    HW277359   5.421  10.044   3.602 -0.4806  0.2432  0.2652
24610SOL     OW77360   7.958   6.502   2.823 -0.0637 -0.7308  0.3607
24610SOL    HW177361   8.035   6.537   2.778  0.8009 -0.1305  2.1960
24610SOL    HW277362   7.886   6.517   2.763  1.3797 -2.3815 -1.9343
24611SOL     OW77363   8.106   5.346   1.861 -0.1038  0.2443  0.3825
24611SOL    HW177364   8.151   5.428   1.844  1.3212 -0.3324  1.1928
24611SOL    HW277365   8.135   5.287   1.791  0.3476 -0.1129  0.8689
24612SOL     OW77366   8.631  10.249  10.782  0.2345  0.3302 -0.5915
24612SOL    HW177367   8.590  10.250  10.695 -1.4311  0.6434  0.1654
24612SOL    HW277368   8.664  10.159  10.791 -0.7192 -0.0866 -1.0541
24613SOL     OW77369   4.082   6.004   8.712  0.0058  0.1803  0.4874
24613SOL    HW177370   4.161   6.010   8.658 -0.0575  0.3530  0.4141
24613SOL    HW277371   4.027   6.076   8.682 -2.0512 -2.3616 -2.4795
24614SOL     OW77372   9.412   1.156   5.685  0.2703 -0.3386  0.0588
24614SOL    HW177373   9.390   1.144   5.592 -0.9799  0.8507  0.1600
24614SOL    HW277374   9.379   1.077   5.727  0.3357 -0.6360 -0.4360
24615SOL     OW77375   5.947  10.596   3.354 -0.0562 -0.1124  0.1336
24615SOL    HW177376   5.918  10.535   3.421 -1.0050 -0.1621 -0.2993
24615SOL    HW277377   6.011  10.547   3.302  0.2995 -0.2384  0.6912
24616SOL     OW77378  10.189  10.554  10.205 -0.4772 -0.2371  1.1220
24616SOL    HW177379  10.261  10.495  10.184 -0.6664 -0.6506  1.6038
24616SOL    HW277380  10.207  10.583  10.294 -0.9184 -0.3608  1.2519
24617SOL     OW77381   9.972   1.949   2.137 -0.3508  0.8906  0.0341
24617SOL    HW177382   9.895   1.897   2.116  2.1623 -2.2766 -2.4425
24617SOL    HW277383   9.989   1.929   2.229 -0.7837 -0.9634 -0.2349
24618SOL     OW77384   9.013  10.029   7.985  0.2865  0.6775 -0.5349
24618SOL    HW177385   8.976   9.987   7.907  0.5469  1.1814 -0.9295
24618SOL    HW277386   9.050   9.957   8.035  0.7186  0.4218 -1.2038
24619SOL     OW77387   8.394   0.165   9.324 -0.1044  0.5013 -0.0516
24619SOL    HW177388   8.446   0.239   9.292  0.1183 -0.3535 -1.7724
24619SOL    HW277389   8.452   0.117   9.382  0.2754  0.8024 -0.1829
24620SOL     OW77390   8.599  10.991   5.665 -0.3165  0.6781  1.0130
24620SOL    HW177391   8.679  10.941   5.682 -0.9524 -0.6709  0.2302
24620SOL    HW277392   8.585  11.042   5.744 -0.6411 -1.8192  2.6619
24621SOL     OW77393   9.563   1.936   6.128 -0.4751 -0.3594 -0.0789
24621SOL    HW177394   9.551   1.862   6.069 -2.6141  0.8654 -1.3582
24621SOL    HW277395   9.485   1.935   6.184 -0.2976  0.6033  0.2057
24622SOL     OW77396  10.256   3.837   3.716 -0.2248 -0.1828  0.1707
24622SOL    HW177397  10.312   3.903   3.677  1.8515 -2.6572 -1.3633
24622SOL    HW277398  10.196   3.812   3.646  0.7646 -1.7089 -0.1827
24623SOL     OW77399   4.183   7.139   5.629 -0.0404 -0.4048  0.4375
24623SOL    HW177400   4.261   7.194   5.632  1.2841 -2.2419  2.0905
24623SOL    HW277401   4.120   7.186   5.684  0.6019  0.1008  0.7649
24624SOL     OW77402   8.285   8.870   4.050 -0.2447  0.4643 -0.2186
24624SOL    HW177403   8.244   8.897   4.132 -0.8962 -0.3958 -0.2520
24624SOL    HW277404   8.341   8.797   4.074  1.9239  2.0972 -0.0392
24625SOL     OW77405   5.332  10.782   0.880  0.3637  0.6777  0.0398
24625SOL    HW177406   5.369  10.695   0.897 -0.9146 -0.1677 -1.2481
24625SOL    HW277407   5.396  10.825   0.824  0.8376  0.4419  0.3903
24626SOL     OW77408   1.829   1.072   7.713 -0.7780  0.5167  0.6782
24626SOL    HW177409   1.767   1.104   7.647  0.1881  0.3756 -0.3218
24626SOL    HW277410   1.846   0.981   7.688 -0.7505  0.3174  1.3967
24627SOL     OW77411   6.639   3.187  11.109  0.1695  0.3391 -0.2034
24627SOL    HW177412   6.562   3.173  11.164  0.1392  0.9515 -0.0868
24627SOL    HW277413   6.608   3.244  11.038  0.4122  0.2367 -0.3931
24628SOL     OW77414   1.831   5.339   6.158  0.2134 -0.2658  0.6802
24628SOL    HW177415   1.895   5.408   6.142  0.3251 -0.1699  1.4880
24628SOL    HW277416   1.881   5.270   6.201  0.5265 -1.6538 -1.7083
24629SOL     OW77417   0.956   3.823   2.251  0.4992  0.1922 -0.0046
24629SOL    HW177418   1.051   3.828   2.245  0.5529 -1.2219 -0.7886
24629SOL    HW277419   0.939   3.754   2.314  0.0334 -1.1208 -1.5053
24630SOL     OW77420   4.097   8.512  10.133  0.0998 -0.0104  0.0727
24630SOL    HW177421   4.082   8.418  10.139 -0.5666  0.1410  0.9765
24630SOL    HW277422   4.097   8.530  10.039  1.0181 -1.0184 -0.1369
24631SOL     OW77423   9.413   7.517   1.904 -0.0580 -0.5836 -0.0026
24631SOL    HW177424   9.452   7.528   1.992 -1.6561 -0.2757  0.6941
24631SOL    HW277425   9.428   7.602   1.862 -0.4286 -0.2868  0.4508
24632SOL     OW77426   8.255   8.965   4.864 -0.0425 -0.4055 -0.1024
24632SOL    HW177427   8.229   8.924   4.946  0.3825  1.1449  0.8412
24632SOL    HW277428   8.181   9.020   4.839 -0.3099 -1.1318 -0.9537
24633SOL     OW77429   5.690   2.523   7.853 -0.1341  0.1677 -0.0680
24633SOL    HW177430   5.600   2.553   7.861 -0.0370  0.9531 -1.6390
24633SOL    HW277431   5.742   2.594   7.892 -0.1532 -0.0534  0.3689
24634SOL     OW77432   5.793   0.667   1.837 -0.2519  0.0633  0.8397
24634SOL    HW177433   5.742   0.649   1.916 -0.8613  3.5075  1.3817
24634SOL    HW277434   5.838   0.749   1.856 -0.3546  0.9652 -2.3609
24635SOL     OW77435  10.694   2.772   3.258  0.0597 -0.0976 -0.2818
24635SOL    HW177436  10.662   2.849   3.306 -0.1759  0.8609 -1.8803
24635SOL    HW277437  10.621   2.747   3.202  0.3836 -1.0678 -0.2823
24636SOL     OW77438   3.010   4.734   1.821  1.1452  0.7341 -0.2245
24636SOL    HW177439   2.937   4.708   1.877  0.5755  2.5189 -0.0650
24636SOL    HW277440   3.064   4.655   1.812  0.1847 -0.1126  1.1825
24637SOL     OW77441   8.250   4.380   4.267  0.1534  0.3168 -0.2760
24637SOL    HW177442   8.214   4.465   4.241  0.3194 -0.0764 -1.9037
24637SOL    HW277443   8.317   4.401   4.331 -0.1995  1.3699 -0.2266
24638SOL     OW77444   0.274   9.859   3.619  0.1293 -0.7730 -0.0093
24638SOL    HW177445   0.284   9.935   3.677  0.3665  0.5151 -1.6753
24638SOL    HW277446   0.231   9.793   3.674 -0.1703  0.5771  1.4626
24639SOL     OW77447   6.882   0.520   8.513  0.2325  0.3777  0.4317
24639SOL    HW177448   6.808   0.476   8.470  0.6987 -1.0372  1.0234
24639SOL    HW277449   6.842   0.566   8.587 -0.0759 -0.2981  0.6925
24640SOL     OW77450   8.784   6.176   9.903 -0.1023 -0.1462  0.2259
24640SOL    HW177451   8.752   6.098   9.949 -0.4332  0.8895  1.8235
24640SOL    HW277452   8.737   6.175   9.819 -1.2236 -0.8632  0.8384
24641SOL     OW77453   2.592   9.633   7.234  0.4332  0.0832  0.4061
24641SOL    HW177454   2.510   9.601   7.271  0.6268 -1.6539 -0.5387
24641SOL    HW277455   2.565   9.697   7.168 -0.1297 -0.0389  0.5124
24642SOL     OW77456   7.808   1.310   5.852  0.1088  0.0753  0.0116
24642SOL    HW177457   7.843   1.342   5.769 -1.7973  0.7093 -0.6016
24642SOL    HW277458   7.713   1.312   5.840 -0.2028 -0.0855  2.1143
24643SOL     OW77459   7.816   3.079   7.068  0.4567  0.3011  0.0456
24643SOL    HW177460   7.744   3.108   7.012  2.0081  1.3075 -1.5579
24643SOL    HW277461   7.806   3.130   7.149 -1.8408 -1.1921  0.7900
24644SOL     OW77462   7.623   0.262   4.329  0.0404  0.2373  0.8241
24644SOL    HW177463   7.549   0.292   4.382 -0.0047  2.0664 -0.1790
24644SOL    HW277464   7.700   0.299   4.371 -0.0039  1.7752 -0.3750
24645SOL     OW77465   3.509  11.036   1.570 -0.1394  0.0364 -0.0214
24645SOL    HW177466   3.462  10.997   1.643 -1.2814  0.5471 -0.4687
24645SOL    HW277467   3.568  11.099   1.610  0.0008 -0.4337  0.5237
24646SOL     OW77468   9.111   1.823   1.622 -0.3541 -0.0825  0.0150
24646SOL    HW177469   9.099   1.865   1.707 -0.3363  0.0929 -0.0698
24646SOL    HW277470   9.096   1.730   1.639  1.1523 -0.2506  0.5099
24647SOL     OW77471   2.293   4.077   3.298 -0.0042 -0.2516  0.2662
24647SOL    HW177472   2.281   4.145   3.232  0.8737 -0.1506  0.1975
24647SOL    HW277473   2.282   3.995   3.250 -3.9707 -0.2543  0.8721
24648SOL     OW77474   7.097   1.524   7.460 -0.3316  0.1420  0.2154
24648SOL    HW177475   7.173   1.470   7.481 -0.3431  0.5767  1.4309
24648SOL    HW277476   7.123   1.613   7.484 -1.1150  0.3383  0.3634
24649SOL     OW77477   2.165   4.426   8.328 -0.1597 -0.1489 -0.2244
24649SOL    HW177478   2.112   4.420   8.248 -1.4132 -1.7526  0.6729
24649SOL    HW277479   2.213   4.508   8.318  0.3050 -0.6274 -2.9614
24650SOL     OW77480   9.810   3.281   3.637  0.3053 -0.5156  0.4620
24650SOL    HW177481   9.864   3.217   3.685  0.0968 -1.2566 -0.2600
24650SOL    HW277482   9.729   3.284   3.687  0.1414 -1.1778  0.2548
24651SOL     OW77483   8.381   7.344   7.309 -0.1777  0.7901  0.0844
24651SOL    HW177484   8.305   7.403   7.307 -0.6205  0.2082 -0.9104
24651SOL    HW277485   8.442   7.387   7.369 -1.3781  1.1510  1.0975
24652SOL     OW77486   8.859   1.494  10.926  0.2603 -0.1772 -0.0411
24652SOL    HW177487   8.944   1.511  10.965 -0.0517  0.6833  0.2798
24652SOL    HW277488   8.839   1.404  10.950  1.2237 -0.5033 -0.4054
24653SOL     OW77489  10.922   8.297   8.623 -0.1268  0.3882 -0.2071
24653SOL    HW177490  10.858   8.341   8.567 -0.7592 -0.7007 -0.3696
24653SOL    HW277491  10.997   8.279   8.566  1.0134  2.9851  0.3261
24654SOL     OW77492   7.329   1.930   2.362  0.9106 -0.1838 -0.1787
24654SOL    HW177493   7.249   1.954   2.409  0.4260 -2.4540  0.2865
24654SOL    HW277494   7.396   1.990   2.395 -0.3081  0.8871  0.4089
24655SOL     OW77495   0.242   8.214  10.227  0.7433 -0.5527  0.0333
24655SOL    HW177496   0.255   8.142  10.287  0.4928 -0.9242 -0.3526
24655SOL    HW277497   0.237   8.173  10.141 -2.4080 -0.4499  0.0591
24656SOL     OW77498   8.330  10.113   3.201  0.4238 -0.2904  0.2657
24656SOL    HW177499   8.318  10.049   3.131  0.2575  0.4229 -0.3694
24656SOL    HW277500   8.285  10.191   3.169  1.4031  0.4328  0.6344
24657SOL     OW77501   9.657   3.438   5.116 -0.2109  0.2707  0.6117
24657SOL    HW177502   9.729   3.475   5.066  0.8416  0.0641  1.8999
24657SOL    HW277503   9.700   3.387   5.185 -1.5893 -1.7751  0.0478
24658SOL     OW77504   3.955   3.708   0.203  0.4318  0.6032 -0.4155
24658SOL    HW177505   4.048   3.708   0.228  0.2824  0.0841  0.1634
24658SOL    HW277506   3.921   3.790   0.238  0.0928 -0.3637  1.6457
24659SOL     OW77507   3.952   8.815   0.523 -0.4314  0.2228 -0.4935
24659SOL    HW177508   3.982   8.760   0.450 -0.0273 -1.7690  1.0988
24659SOL    HW277509   3.858   8.798   0.528 -0.1184 -1.3261  0.7422
24660SOL     OW77510   7.527   7.837  10.524 -0.1441 -0.3627 -0.7469
24660SOL    HW177511   7.591   7.842  10.452 -0.2220  1.7811 -0.7247
24660SOL    HW277512   7.526   7.745  10.548  2.0763 -0.6651 -1.5351
24661SOL     OW77513   0.223   9.084   3.258  0.4064 -0.3160  0.0319
24661SOL    HW177514   0.243   9.132   3.339  0.4559 -1.7688  0.9265
24661SOL    HW277515   0.174   9.146   3.205 -0.4631  0.3854  1.5776
24662SOL     OW77516   8.914   7.193   1.614 -0.0845  0.0127 -0.2077
24662SOL    HW177517   8.972   7.197   1.690 -0.2318  0.7929 -0.1302
24662SOL    HW277518   8.968   7.152   1.546  0.3176  0.0656  0.0732
24663SOL     OW77519   5.041   7.685  10.357 -0.5638  0.7228 -0.1872
24663SOL    HW177520   4.987   7.710  10.432  0.2944  1.3224  0.2395
24663SOL    HW277521   5.040   7.762  10.299 -0.2913  0.6857 -0.2448
24664SOL     OW77522   8.631   5.857  10.493 -0.1317 -0.3892  0.1929
24664SOL    HW177523   8.716   5.859  10.450 -0.5023  1.5755 -0.6046
24664SOL    HW277524   8.631   5.936  10.548 -1.1441 -0.7750  0.7648
24665SOL     OW77525   0.222   6.579  10.731 -0.0935  0.7281 -0.3225
24665SOL    HW177526   0.194   6.668  10.750  3.1995  1.6053  1.0296
24665SOL    HW277527   0.190   6.527  10.805 -1.1508  0.9419 -0.6156
24666SOL     OW77528   1.569   0.530   4.712 -0.0070  1.1001  0.2519
24666SOL    HW177529   1.571   0.459   4.647 -2.1299  0.9927  0.2343
24666SOL    HW277530   1.655   0.526   4.754 -0.8814 -3.3469  2.2087
24667SOL     OW77531   3.873   0.030   9.020 -0.5661  0.5253 -0.5712
24667SOL    HW177532   3.935  -0.012   8.961  1.9890  1.9172  0.9631
24667SOL    HW277533   3.823   0.089   8.964  3.6310  3.8994 -1.2797
24668SOL     OW77534   4.688  10.081   3.524  0.1647  0.0365  0.3135
24668SOL    HW177535   4.618  10.033   3.567  1.0875 -1.0573  0.6246
24668SOL    HW277536   4.666  10.173   3.538 -1.3011 -0.2832  0.2361
24669SOL     OW77537   6.874  10.436   8.556 -0.1783  0.5325 -0.1231
24669SOL    HW177538   6.824  10.469   8.481  0.5855 -0.6758 -1.2174
24669SOL    HW277539   6.810  10.387   8.608 -1.1273  2.8886  1.0570
24670SOL     OW77540   0.568   4.703   1.048  0.4166  0.6108  0.0171
24670SOL    HW177541   0.637   4.749   1.096  1.0444  0.9265 -1.1570
24670SOL    HW277542   0.575   4.612   1.079  2.2560  0.3398 -1.0091
24671SOL     OW77543   6.551   1.967   5.957  0.3362 -0.2447 -0.1848
24671SOL    HW177544   6.499   2.033   5.911 -0.1060 -0.3402  0.1756
24671SOL    HW277545   6.488   1.902   5.986  0.3535  0.6275  1.9954
24672SOL     OW77546   0.971   9.982   4.343 -0.1110 -0.0478 -0.1042
24672SOL    HW177547   0.897  10.010   4.398 -0.8430 -3.0087  0.6090
24672SOL    HW277548   0.941   9.997   4.254 -0.6861  0.7950  0.2136
24673SOL     OW77549   0.538   7.180   4.098 -0.0580 -0.4688  0.2316
24673SOL    HW177550   0.592   7.166   4.020 -0.5545 -1.0659 -0.0200
24673SOL    HW277551   0.469   7.113   4.091 -0.5126 -0.0710  0.8191
24674SOL     OW77552   1.174  10.165   4.353  0.2655 -0.8682  0.0404
24674SOL    HW177553   1.099  10.106   4.364  0.5152 -1.2747 -0.3829
24674SOL    HW277554   1.186  10.206   4.438 -0.3073 -0.9597  0.1677
24675SOL     OW77555   9.868   6.551  10.283  0.3409 -0.0822  0.4552
24675SOL    HW177556   9.925   6.557  10.359 -0.1260 -0.7431  0.8618
24675SOL    HW277557   9.900   6.620  10.224 -0.5033  1.7576  2.0318
24676SOL     OW77558   4.321  10.250   8.987 -0.2837  0.1205 -0.0541
24676SOL    HW177559   4.357  10.174   8.941 -0.0216  0.1246  0.1464
24676SOL    HW277560   4.383  10.321   8.968  0.0933  0.0007  0.7161
24677SOL     OW77561   0.218   9.088   8.133 -0.5413  0.2027 -0.0770
24677SOL    HW177562   0.176   9.083   8.047 -1.3573  0.3105  0.3067
24677SOL    HW277563   0.270   9.007   8.138  1.5581  1.3576 -1.6801
24678SOL     OW77564  10.721   3.465   3.981  0.1497  0.5236  0.8496
24678SOL    HW177565  10.800   3.479   3.929  1.1724 -2.3240  1.4158
24678SOL    HW277566  10.654   3.519   3.939  1.5073  0.2473 -1.9102
24679SOL     OW77567   8.976   8.872   1.267  0.9120  0.4340 -0.0037
24679SOL    HW177568   9.003   8.906   1.182  0.0821  2.0626  0.3404
24679SOL    HW277569   8.882   8.889   1.272  0.6129 -1.2182  0.5545
24680SOL     OW77570   8.455   8.631   4.717  0.0819  0.9501 -0.1018
24680SOL    HW177571   8.528   8.681   4.679 -0.5299  2.6100  0.7978
24680SOL    HW277572   8.383   8.643   4.655 -0.6282  2.8475  1.0175
24681SOL     OW77573   2.274   1.162   3.360 -0.3023  0.7366  0.8736
24681SOL    HW177574   2.264   1.067   3.354  0.3841  0.7020 -3.8469
24681SOL    HW277575   2.367   1.176   3.374 -0.3273  0.6960  1.0762
24682SOL     OW77576  11.113   4.318   8.712  0.2539  0.3967 -0.5275
24682SOL    HW177577  11.129   4.371   8.790 -1.5033  0.7835 -0.3797
24682SOL    HW277578  11.199   4.283   8.689  0.8894  0.6028  1.3294
24683SOL     OW77579   6.230   8.324   5.098  0.5393  0.0020 -0.5744
24683SOL    HW177580   6.218   8.372   5.180 -0.4746 -1.7243  0.3453
24683SOL    HW277581   6.324   8.316   5.088  0.7099  1.3524 -0.2815
24684SOL     OW77582   7.892   7.103   7.242  0.2028 -0.2481 -0.0417
24684SOL    HW177583   7.835   7.148   7.305 -0.1668  0.9223 -1.1642
24684SOL    HW277584   7.897   7.013   7.274  0.0025  0.2901  1.6325
24685SOL     OW77585   8.519  10.915   7.873  0.1018 -0.0695 -0.5796
24685SOL    HW177586   8.598  10.896   7.822  2.2535  2.2429  1.5993
24685SOL    HW277587   8.510  10.838   7.930 -0.9173 -1.5759 -2.6516
24686SOL     OW77588   4.517   4.268   1.750  0.1198 -0.0785 -0.6195
24686SOL    HW177589   4.571   4.254   1.828  0.9243  0.0504 -1.1348
24686SOL    HW277590   4.549   4.203   1.687  0.3347  0.6372 -1.2572
24687SOL     OW77591   0.247   3.186   1.635 -0.2062 -0.4618 -0.1013
24687SOL    HW177592   0.177   3.242   1.668  0.0166 -0.3608  0.2051
24687SOL    HW277593   0.254   3.209   1.542  1.2329  1.4997  0.4168
24688SOL     OW77594   3.906   9.682   5.782  0.1938  0.2885  0.4720
24688SOL    HW177595   3.870   9.748   5.723 -1.8119 -0.2958  0.9912
24688SOL    HW277596   3.909   9.602   5.730  1.4035  0.4548  0.2447
24689SOL     OW77597   7.064  10.128   7.715 -0.1547 -0.1345 -0.3854
24689SOL    HW177598   7.089  10.188   7.645  1.4891 -1.9568 -1.4873
24689SOL    HW277599   7.043  10.046   7.670 -1.1009 -0.7756  1.1364
24690SOL     OW77600   6.612   6.719   2.945  0.1338  0.3591  0.1074
24690SOL    HW177601   6.618   6.625   2.960  0.7848  0.6837  2.1869
24690SOL    HW277602   6.692   6.741   2.896  0.9837  0.1041  1.3452
24691SOL     OW77603  11.010   8.932   1.680  0.5488  0.4826 -0.6126
24691SOL    HW177604  11.046   8.883   1.606 -1.0374  0.5524 -1.4906
24691SOL    HW277605  11.011   9.023   1.651 -2.1875  0.3052 -1.5915
24692SOL     OW77606   1.267   3.974   2.781 -0.1129 -0.4268  0.0060
24692SOL    HW177607   1.277   4.049   2.840  0.1048 -0.0801 -0.4631
24692SOL    HW277608   1.278   3.897   2.837  1.2886 -0.0990  0.2128
24693SOL     OW77609   1.436   7.235   6.471 -0.1299  0.1777 -0.2344
24693SOL    HW177610   1.464   7.312   6.420  1.4106 -0.1778  0.0285
24693SOL    HW277611   1.367   7.269   6.528  1.4407  1.7573  0.8613
24694SOL     OW77612   3.884   5.501   9.898 -0.2831 -0.4897 -0.7001
24694SOL    HW177613   3.796   5.510   9.861 -0.1979  2.3436 -0.4200
24694SOL    HW277614   3.869   5.475   9.989 -0.8107 -0.4124 -0.7623
24695SOL     OW77615   1.017   4.417   9.732  0.4067  0.4152 -0.2524
24695SOL    HW177616   1.112   4.427   9.724  0.4613  0.7678  0.7255
24695SOL    HW277617   0.986   4.505   9.755 -0.1646  0.3114 -0.6032
24696SOL     OW77618   8.164   7.972   2.489 -0.1020 -0.1201  0.1208
24696SOL    HW177619   8.219   7.924   2.551 -2.4895 -3.2970  0.0415
24696SOL    HW277620   8.208   7.961   2.405  1.6529  1.7768  0.6960
24697SOL     OW77621   4.563   4.946   2.735 -0.1513 -0.2738 -0.5051
24697SOL    HW177622   4.504   4.957   2.810 -1.2270 -0.1423 -1.3375
24697SOL    HW277623   4.588   4.854   2.737 -2.8664 -1.1421 -1.8590
24698SOL     OW77624   8.170   4.878   7.693 -0.3708 -0.8107  0.2576
24698SOL    HW177625   8.206   4.824   7.622 -0.3429  2.4166 -2.4485
24698SOL    HW277626   8.244   4.932   7.721 -0.7267 -1.1298  1.8960
24699SOL     OW77627   6.464   7.812   4.342 -0.2923 -0.2460  0.4271
24699SOL    HW177628   6.380   7.774   4.367 -0.0123 -0.7360  0.6304
24699SOL    HW277629   6.519   7.801   4.420 -0.8566  2.5984  1.3602
24700SOL     OW77630   8.287  10.480   9.325  0.5216  0.2575  0.1586
24700SOL    HW177631   8.280  10.499   9.231  2.4051  0.3084 -0.0016
24700SOL    HW277632   8.299  10.385   9.330 -3.0924 -0.3201  0.6280
24701SOL     OW77633   6.929   0.941   4.253  0.0495 -0.1838 -0.3812
24701SOL    HW177634   6.861   0.930   4.319  0.9194 -0.0326  0.5766
24701SOL    HW277635   6.912   1.027   4.215  0.8305  0.7425  1.2457
24702SOL     OW77636   8.337  10.783   6.479 -0.1127 -0.1709  0.2961
24702SOL    HW177637   8.381  10.843   6.420  0.1340 -1.6188 -1.0548
24702SOL    HW277638   8.261  10.832   6.510  0.4310  1.0564 -0.2346
24703SOL     OW77639   0.766   7.962   0.479 -0.0125 -0.0724 -0.3681
24703SOL    HW177640   0.680   7.921   0.471  0.4300 -1.0756 -0.1989
24703SOL    HW277641   0.801   7.964   0.390 -0.7951  1.6956 -0.6634
24704SOL     OW77642   4.603   7.972   9.525  0.2304  0.1177  0.4696
24704SOL    HW177643   4.571   8.058   9.553  2.0802  0.5076  1.5572
24704SOL    HW277644   4.527   7.931   9.484 -1.4613  1.2451  2.2515
24705SOL     OW77645   2.133   7.627   3.139  0.4635  0.1725 -0.0746
24705SOL    HW177646   2.225   7.624   3.167  0.7067  1.5818 -0.6422
24705SOL    HW277647   2.088   7.677   3.207  0.1707 -0.2431  0.0412
24706SOL     OW77648   9.231   7.460   0.037 -0.3078 -0.3947 -0.3166
24706SOL    HW177649   9.148   7.442  -0.006 -1.2732  0.2746  1.2133
24706SOL    HW277650   9.248   7.553   0.019  0.1250 -0.5215 -0.6022
24707SOL     OW77651   5.907   5.130   0.975  0.0593  0.5772 -0.2235
24707SOL    HW177652   5.990   5.089   0.952 -0.6566 -0.8643 -0.3624
24707SOL    HW277653   5.931   5.205   1.030  1.3410 -1.1586  1.7050
24708SOL     OW77654   9.061   9.359   2.136 -0.1656 -0.9251 -0.4161
24708SOL    HW177655   9.141   9.327   2.095 -1.0338 -0.2095 -2.8915
24708SOL    HW277656   9.081   9.449   2.161  0.1073 -1.0899 -0.0272
24709SOL     OW77657   3.770   7.598   3.446 -0.0484 -0.0886  0.4386
24709SOL    HW177658   3.720   7.526   3.485 -0.0604  0.3572  1.2687
24709SOL    HW277659   3.803   7.648   3.521 -0.9073  1.3769 -0.1199
24710SOL     OW77660   1.759   1.817   1.333 -0.2876 -0.2648  0.0806
24710SOL    HW177661   1.841   1.805   1.380 -0.2384 -3.1499 -0.5358
24710SOL    HW277662   1.785   1.831   1.242 -0.4545  0.0293  0.0781
24711SOL     OW77663   0.502   8.387   6.703 -0.0658  0.3176  0.1216
24711SOL    HW177664   0.498   8.405   6.609 -0.8280  1.7794  0.3944
24711SOL    HW277665   0.410   8.386   6.730  0.0743 -1.5061  0.6289
24712SOL     OW77666  10.992   5.922   9.955  0.3815  0.7426 -0.2752
24712SOL    HW177667  10.971   6.016   9.959 -1.3041  0.3780  0.0597
24712SOL    HW277668  10.964   5.888  10.040  0.9220 -0.0978 -0.4241
24713SOL     OW77669   7.402   1.059   8.685 -0.2414 -0.1993  0.5522
24713SOL    HW177670   7.316   1.080   8.722 -1.2281 -2.5799 -0.1731
24713SOL    HW277671   7.395   0.967   8.660  1.8027  0.1231 -1.5743
24714SOL     OW77672   8.456   6.572   3.619 -0.5180  0.4284 -0.5721
24714SOL    HW177673   8.421   6.634   3.683  0.9412  0.5044  0.1890
24714SOL    HW277674   8.413   6.489   3.641 -0.4699  0.5826  0.1418
24715SOL     OW77675  10.668   8.666   2.824  0.2551  0.0791 -0.1169
24715SOL    HW177676  10.717   8.735   2.869 -0.6522 -0.8497  2.5036
24715SOL    HW277677  10.734   8.615   2.778  0.9842  2.3797 -1.8033
24716SOL     OW77678   6.490   3.515   8.571 -0.0461  0.2088 -0.1152
24716SOL    HW177679   6.502   3.485   8.661 -2.0850 -0.7993 -0.1403
24716SOL    HW277680   6.574   3.557   8.549  0.3874  0.7658  2.3251
24717SOL     OW77681   7.801  11.102  10.072  0.1282  0.1116  0.2332
24717SOL    HW177682   7.710  11.073  10.080  0.2776 -0.7783 -0.9660
24717SOL    HW277683   7.849  11.024  10.042  0.9841  0.9810 -0.7756
24718SOL     OW77684   9.926   1.614  10.414  0.2801 -0.2465 -0.3181
24718SOL    HW177685   9.894   1.703  10.429 -1.3853 -0.8928  0.1796
24718SOL    HW277686   9.997   1.603  10.477  0.3421  0.6458 -0.2210
24719SOL     OW77687   1.290   5.116   7.551  1.1496  0.1654  0.5574
24719SOL    HW177688   1.296   5.031   7.595 -1.9913 -0.7859 -0.5874
24719SOL    HW277689   1.225   5.165   7.601 -1.5794 -0.4828 -2.0870
24720SOL     OW77690   0.055   0.437   2.239  0.1655  0.2912  0.2213
24720SOL    HW177691  -0.005   0.363   2.229 -0.2191  0.5497  0.5686
24720SOL    HW277692   0.069   0.468   2.149 -2.4866  1.9890  0.2645
24721SOL     OW77693   6.031   5.348   5.762 -0.6660  0.6362  0.3377
24721SOL    HW177694   5.948   5.337   5.808 -1.0428 -0.8696 -0.6270
24721SOL    HW277695   6.090   5.389   5.826 -1.5556 -0.1462  1.6857
24722SOL     OW77696   5.506   6.489   2.021 -0.2244  0.9379 -0.1273
24722SOL    HW177697   5.574   6.433   2.058  0.7106  2.5768  0.7079
24722SOL    HW277698   5.440   6.427   1.989 -0.1593 -0.6636  2.4716
24723SOL     OW77699   7.461  10.317   5.795 -0.3152  0.0399  0.3644
24723SOL    HW177700   7.488  10.381   5.860  2.0257  1.2395 -1.5955
24723SOL    HW277701   7.536  10.258   5.786 -0.5584 -0.0902 -1.1787
24724SOL     OW77702   5.221   3.163   9.952 -0.6924 -0.5636 -0.1227
24724SOL    HW177703   5.239   3.240   9.897 -1.0131 -0.2673  0.1812
24724SOL    HW277704   5.307   3.132   9.979 -0.5946  0.9135  1.4191
24725SOL     OW77705   0.748   0.603   1.233  0.1700  0.1564  0.4005
24725SOL    HW177706   0.828   0.556   1.211  0.6826  0.8473  0.7883
24725SOL    HW277707   0.731   0.582   1.325  0.1604  0.3899  0.4518
24726SOL     OW77708   2.246   3.395   5.916 -0.1838 -0.3109  0.3752
24726SOL    HW177709   2.218   3.362   5.831 -1.7805  0.6931  0.4681
24726SOL    HW277710   2.342   3.391   5.913 -0.2448 -1.3227 -1.0287
24727SOL     OW77711   0.172   2.130   8.323 -0.8192  0.5447 -0.0847
24727SOL    HW177712   0.092   2.168   8.359 -1.5235 -0.1556 -0.8589
24727SOL    HW277713   0.166   2.147   8.229 -0.9684 -1.0813 -0.4034
24728SOL     OW77714   3.434   6.364   2.454 -0.1342  0.0677 -0.4436
24728SOL    HW177715   3.389   6.403   2.379 -1.0885  1.0316  0.5915
24728SOL    HW277716   3.406   6.417   2.529  0.9802 -0.7182  0.5644
24729SOL     OW77717   3.267  10.962   4.854  0.4167 -0.3532  0.2941
24729SOL    HW177718   3.207  10.972   4.927 -1.0223 -0.9177 -0.7774
24729SOL    HW277719   3.270  11.049   4.814 -3.1172 -1.1645 -2.1733
24730SOL     OW77720   5.092   9.798   0.554  0.4151  0.1919 -0.0952
24730SOL    HW177721   5.130   9.711   0.569 -0.9607 -0.4240 -0.0465
24730SOL    HW277722   4.999   9.781   0.540  0.4285  1.4508 -2.0673
24731SOL     OW77723   7.272   7.366   5.809 -0.0512  0.2196  0.1908
24731SOL    HW177724   7.275   7.458   5.785  1.4101  0.7752  2.1917
24731SOL    HW277725   7.280   7.319   5.726  0.5935  1.9021 -0.7557
24732SOL     OW77726   6.590   6.600   2.646  0.0784  0.2279 -0.4305
24732SOL    HW177727   6.637   6.681   2.623 -0.3691  0.8863  0.8949
24732SOL    HW277728   6.498   6.622   2.635 -0.0034 -0.6898 -1.8338
24733SOL     OW77729   2.718   0.543   5.127  0.0105 -0.5253 -0.0205
24733SOL    HW177730   2.680   0.525   5.214 -0.5882  2.3691  0.4296
24733SOL    HW277731   2.728   0.638   5.125  0.9100 -0.5998 -2.8041
24734SOL     OW77732   8.579   9.796   0.015  0.0066 -0.8378 -0.9316
24734SOL    HW177733   8.571   9.728   0.082 -0.2518 -0.3105 -0.4100
24734SOL    HW277734   8.494   9.841   0.018 -0.6127 -1.7858 -2.7186
24735SOL     OW77735   0.806   2.079   0.936  0.1497 -0.4017  0.5410
24735SOL    HW177736   0.756   2.045   1.010 -2.1115 -0.8274 -1.0818
24735SOL    HW277737   0.879   2.018   0.926  0.0991 -0.7188  1.9675
24736SOL     OW77738   3.388  10.462   2.027 -0.0424  0.2280 -0.0675
24736SOL    HW177739   3.340  10.533   1.983 -0.4632  0.8160  1.2795
24736SOL    HW277740   3.480  10.482   2.011 -0.1984 -0.0433 -1.3701
24737SOL     OW77741   0.423   9.997   1.571 -0.4803 -0.7579 -0.2925
24737SOL    HW177742   0.473   9.916   1.576  0.5537 -0.0976  3.0189
24737SOL    HW277743   0.369   9.996   1.650 -1.4984  1.1518 -0.8975
24738SOL     OW77744   0.761  10.104   7.801 -0.2870 -0.3545 -0.2083
24738SOL    HW177745   0.754  10.113   7.896  1.5607 -0.9932  0.0368
24738SOL    HW277746   0.767  10.195   7.769 -1.8450 -0.0966  0.1563
24739SOL     OW77747   8.775   3.666   2.769 -0.0321 -0.3686  0.6281
24739SOL    HW177748   8.833   3.617   2.827  0.2667  0.9008  1.4430
24739SOL    HW277749   8.693   3.617   2.771  0.1412 -0.6578  1.7106
24740SOL     OW77750   0.814   0.541   1.492 -0.1652  0.6806 -0.7045
24740SOL    HW177751   0.845   0.498   1.572  0.2460 -0.5873 -1.5176
24740SOL    HW277752   0.892   0.554   1.439 -0.4842  1.2041 -1.0583
24741SOL     OW77753   3.238   7.768   4.276  0.1285 -0.1971 -0.0219
24741SOL    HW177754   3.270   7.762   4.366  2.4346 -0.7074 -0.7938
24741SOL    HW277755   3.251   7.860   4.252 -0.3356 -0.0958  0.1112
24742SOL     OW77756   7.269   6.651   9.160  0.1513  0.6897  0.1552
24742SOL    HW177757   7.318   6.643   9.078  1.0967 -2.1426  0.8711
24742SOL    HW277758   7.212   6.726   9.147 -0.0075  0.1471 -3.2307
24743SOL     OW77759   5.245  10.980  10.336  0.4874  0.6371  0.0633
24743SOL    HW177760   5.229  11.012  10.425 -0.8259  0.0889  0.0481
24743SOL    HW277761   5.270  10.889  10.348 -1.8773 -0.1322 -0.1862
24744SOL     OW77762   0.398   6.967   4.049 -0.4006  0.0997  0.1547
24744SOL    HW177763   0.411   7.007   3.963  0.7251 -0.3806  0.0768
24744SOL    HW277764   0.348   6.887   4.032 -0.7021  0.3191  0.0197
24745SOL     OW77765   2.045   1.772   6.245  0.2421 -0.2701 -0.1351
24745SOL    HW177766   2.007   1.779   6.332 -0.1279  0.9484 -0.3806
24745SOL    HW277767   2.123   1.827   6.248  0.0655  0.0161 -0.6612
24746SOL     OW77768  10.629   2.137   9.495 -0.5389  0.7289 -0.4855
24746SOL    HW177769  10.688   2.213   9.495  0.0486  0.3310  1.2931
24746SOL    HW277770  10.612   2.120   9.403  3.2389  0.0241 -1.2216
24747SOL     OW77771   1.591   1.905   4.256 -0.2183  0.0412 -0.0927
24747SOL    HW177772   1.522   1.966   4.281  1.1628  2.0668 -0.8684
24747SOL    HW277773   1.632   1.879   4.339  0.0933  1.3951  0.2143
24748SOL     OW77774   1.053   3.291   3.010  0.2534 -0.4576 -0.1923
24748SOL    HW177775   1.076   3.279   3.102  0.4833  2.7401  0.2812
24748SOL    HW277776   0.958   3.306   3.010  0.3791  0.4268 -0.3138
24749SOL     OW77777   8.624   0.225   9.122 -0.4992 -0.0825 -1.0560
24749SOL    HW177778   8.711   0.262   9.132 -0.1414 -0.8782 -1.1844
24749SOL    HW277779   8.587   0.270   9.045  0.7408 -1.4911 -2.5422
24750SOL     OW77780   0.544   1.609  10.321  0.8604 -0.0921 -0.4437
24750SOL    HW177781   0.527   1.635  10.231  3.8910  0.9552 -0.8505
24750SOL    HW277782   0.528   1.688  10.372  1.1341 -0.0926 -0.3561
24751SOL     OW77783   6.770  10.281   3.723 -0.3554 -0.5683  0.0281
24751SOL    HW177784   6.740  10.307   3.810  1.0965  0.8905  0.1577
24751SOL    HW277785   6.861  10.311   3.720  0.4673 -2.9122 -1.0598
24752SOL     OW77786  10.746   0.009   0.947 -0.6564 -0.2418  0.6147
24752SOL    HW177787  10.791   0.091   0.968  0.3371  0.6264 -3.8916
24752SOL    HW277788  10.653   0.030   0.953 -0.4759  0.2188  2.4470
24753SOL     OW77789   9.753   4.082   2.508 -0.4727  0.4223  0.0545
24753SOL    HW177790   9.665   4.047   2.525 -0.2427  0.3992  1.2837
24753SOL    HW277791   9.779   4.122   2.591  1.1937 -0.7150  0.1246
24754SOL     OW77792   0.513   9.684  10.957  0.4260 -0.1249  0.3035
24754SOL    HW177793   0.446   9.619  10.979  0.1234  0.3990  0.9327
24754SOL    HW277794   0.535   9.665  10.865  0.6114 -1.3509  0.5808
24755SOL     OW77795   5.088  10.447   0.630 -0.1263 -0.1032  0.0289
24755SOL    HW177796   4.996  10.469   0.615 -0.3811 -1.4664 -0.5461
24755SOL    HW277797   5.111  10.387   0.559  1.4446  0.8149 -0.2772
24756SOL     OW77798   0.974   9.514   0.768  0.0421 -0.8437 -0.3543
24756SOL    HW177799   1.059   9.477   0.791  0.1553 -0.5820 -0.3465
24756SOL    HW277800   0.959   9.582   0.833  0.4339  0.0062 -1.1190
24757SOL     OW77801   4.027   9.518   8.677  0.0721  0.1739  0.0593
24757SOL    HW177802   4.042   9.612   8.689 -1.1631  0.3446  0.3294
24757SOL    HW277803   3.933   9.510   8.661  0.1149 -1.0454  0.3274
24758SOL     OW77804   9.912   8.767  10.856  0.0053 -0.4012  0.0680
24758SOL    HW177805   9.936   8.818  10.778 -1.0238  1.2122  0.7684
24758SOL    HW277806   9.817   8.766  10.855  0.0003 -1.1052  0.8501
24759SOL     OW77807   5.601   0.600   8.400 -0.3507 -0.1176  0.8259
24759SOL    HW177808   5.575   0.549   8.324  0.0121  0.1860  0.4924
24759SOL    HW277809   5.541   0.572   8.469 -0.0323 -1.1400  0.7082
24760SOL     OW77810   0.760   9.517   2.518 -0.4588  0.3460 -0.5269
24760SOL    HW177811   0.772   9.612   2.522 -0.3224  0.3411 -0.7642
24760SOL    HW277812   0.755   9.489   2.609  0.9030  0.4118 -0.4111
24761SOL     OW77813  11.027   0.313   6.126 -0.4101  0.2872 -0.4757
24761SOL    HW177814  10.998   0.343   6.040 -1.3072 -2.0815 -1.0984
24761SOL    HW277815  11.114   0.350   6.137  0.0694 -0.0279 -2.8166
24762SOL     OW77816   7.895   8.028   1.104 -0.0186 -0.0536 -0.2014
24762SOL    HW177817   7.924   7.943   1.070  0.4851 -0.3736  0.9735
24762SOL    HW277818   7.801   8.016   1.118  0.1138 -0.5609  0.3193
24763SOL     OW77819   1.383   4.205   5.473 -0.0433  0.2348 -0.1791
24763SOL    HW177820   1.296   4.204   5.515 -0.9749 -1.0433 -1.9651
24763SOL    HW277821   1.377   4.274   5.408  0.4034  0.3477 -0.0991
24764SOL     OW77822   7.141   5.163   2.691  0.1153  0.1771  0.6684
24764SOL    HW177823   7.112   5.239   2.641 -1.4374 -1.2136 -0.6659
24764SOL    HW277824   7.101   5.173   2.777 -0.8107  0.4588  0.2177
24765SOL     OW77825   7.582   8.482  10.890 -0.2450  0.3930  0.1711
24765SOL    HW177826   7.605   8.495  10.798  0.0532 -0.6399  0.0847
24765SOL    HW277827   7.587   8.387  10.903  2.0002  0.6582  1.8291
24766SOL     OW77828   7.076   5.711   3.355 -0.2326 -0.0856  0.2246
24766SOL    HW177829   7.152   5.693   3.410 -0.0151  0.5700  0.1403
24766SOL    HW277830   7.112   5.725   3.268 -0.2967  1.6000  0.4413
24767SOL     OW77831   4.108   5.389   0.950  0.4013  0.5127 -0.2749
24767SOL    HW177832   4.109   5.392   0.854  1.1113  0.6445 -0.2676
24767SOL    HW277833   4.198   5.367   0.974  0.1244  0.0486  0.3495
24768SOL     OW77834   3.347   4.806   3.286 -0.4550 -0.2240 -0.2723
24768SOL    HW177835   3.305   4.884   3.321 -0.0143  0.3482 -0.9998
24768SOL    HW277836   3.378   4.759   3.363 -0.7080  0.3207  0.1658
24769SOL     OW77837   5.558   0.782   0.397  0.0785 -0.3109 -0.1648
24769SOL    HW177838   5.606   0.809   0.475 -0.1551  0.5879 -0.3163
24769SOL    HW277839   5.476   0.746   0.429 -0.5686  1.2214 -0.0236
24770SOL     OW77840   4.981   2.618   0.243  0.5834 -0.1504  0.2703
24770SOL    HW177841   5.063   2.572   0.259  0.8972 -0.5176 -1.9949
24770SOL    HW277842   4.915   2.549   0.241  0.8239 -0.3770 -1.5879
24771SOL     OW77843   5.815  10.278   4.517  0.0934 -0.7453 -0.5063
24771SOL    HW177844   5.752  10.257   4.448  0.0795 -1.5759 -0.2437
24771SOL    HW277845   5.898  10.244   4.485  0.1909 -0.6558 -0.3505
24772SOL     OW77846   3.006   9.911   9.049  0.4410 -0.1423 -0.0430
24772SOL    HW177847   2.934   9.970   9.073  0.3881 -0.6024  0.9940
24772SOL    HW277848   3.014   9.920   8.954 -0.7033  0.2367 -0.1211
24773SOL     OW77849   2.541   5.678   8.673 -0.3120  0.4831 -0.2514
24773SOL    HW177850   2.586   5.747   8.721 -0.8470  0.4865  0.2587
24773SOL    HW277851   2.464   5.658   8.726 -0.3951 -0.2012 -0.6138
24774SOL     OW77852   4.945   7.870   0.625 -0.6538 -0.0247  0.3406
24774SOL    HW177853   4.960   7.964   0.638 -0.3332  0.1619 -1.1393
24774SOL    HW277854   4.869   7.866   0.566 -0.2456 -0.6665 -0.1500
24775SOL     OW77855   2.520   7.566   4.936 -0.9984  0.0463 -0.2153
24775SOL    HW177856   2.599   7.617   4.952 -1.4626  0.0584  2.6184
24775SOL    HW277857   2.454   7.631   4.912 -0.7329  0.3391 -0.1562
24776SOL     OW77858   1.440   8.091   8.888  0.6995  0.2972  0.2347
24776SOL    HW177859   1.480   8.011   8.854  3.5658  1.0897  1.4239
24776SOL    HW277860   1.398   8.064   8.969  2.8102  0.1173  1.3412
24777SOL     OW77861   5.337   4.129   7.143 -0.6544 -0.6910 -0.2574
24777SOL    HW177862   5.304   4.066   7.207 -0.3054  0.4793  1.1311
24777SOL    HW277863   5.430   4.136   7.164 -0.9441  1.2897  0.5423
24778SOL     OW77864   0.033   2.033   2.137  0.0069  0.5306 -0.3453
24778SOL    HW177865   0.018   2.072   2.050 -1.0853  1.8555  0.3904
24778SOL    HW277866  -0.019   2.088   2.196 -0.3471 -1.1519  0.9741
24779SOL     OW77867   3.594   8.620   9.626 -0.6581  0.1690  0.0694
24779SOL    HW177868   3.575   8.636   9.718 -1.0007 -0.0163  0.0330
24779SOL    HW277869   3.626   8.703   9.592  0.9866 -0.1394  0.7299
24780SOL     OW77870  10.015   8.550   6.585 -0.8220 -0.6328 -0.2346
24780SOL    HW177871   9.967   8.563   6.666 -0.2129 -1.5633  0.2970
24780SOL    HW277872  10.002   8.457   6.564  0.6108 -0.8840 -0.1404
24781SOL     OW77873   1.571   6.881   7.712  0.0093  0.3570 -0.1470
24781SOL    HW177874   1.534   6.969   7.714 -0.3996  0.1778  0.7346
24781SOL    HW277875   1.647   6.885   7.769 -1.1591 -0.3290  1.5418
24782SOL     OW77876   0.257   1.561   4.265 -0.5534  0.6610 -0.1399
24782SOL    HW177877   0.174   1.558   4.313  0.4306 -1.1549  1.5846
24782SOL    HW277878   0.309   1.627   4.311  0.4307 -1.1568  1.5082
24783SOL     OW77879   6.395   6.959   5.644  0.0678 -0.1858  0.8500
24783SOL    HW177880   6.445   6.980   5.723  0.6524  1.8773 -0.0072
24783SOL    HW277881   6.447   6.892   5.600  1.9324  1.5366  0.2468
24784SOL     OW77882   2.731   2.717   4.741  0.0374  0.0991  0.5193
24784SOL    HW177883   2.809   2.691   4.693  0.3919  1.5616  0.2541
24784SOL    HW277884   2.752   2.699   4.832  0.3993 -0.1895  0.3815
24785SOL     OW77885   2.325   4.124   0.621  0.1532 -0.0759 -0.0156
24785SOL    HW177886   2.316   4.107   0.527  0.4074  2.2625 -0.5320
24785SOL    HW277887   2.411   4.089   0.643  1.6907  2.4583 -1.5381
24786SOL     OW77888  10.720   6.530   2.059 -0.1612 -0.5986 -0.0356
24786SOL    HW177889  10.794   6.501   2.006 -0.3859 -0.2611 -0.5524
24786SOL    HW277890  10.657   6.563   1.995  0.3030  1.5237  0.5126
24787SOL     OW77891   8.530   4.072   4.367  0.0887  0.3534  0.1493
24787SOL    HW177892   8.622   4.067   4.395  0.1179  0.0585  0.0037
24787SOL    HW277893   8.531   4.041   4.277 -0.1170  0.6115  0.0566
24788SOL     OW77894   4.692   9.603   3.989 -0.0384  0.4096 -0.2288
24788SOL    HW177895   4.744   9.523   3.993  0.4223  0.7419  1.7872
24788SOL    HW277896   4.645   9.605   4.072 -0.3179  2.0327 -0.3872
24789SOL     OW77897   5.968   2.200   0.547  0.2746 -0.2760 -0.2670
24789SOL    HW177898   5.983   2.108   0.572  0.1084 -0.0946  0.5307
24789SOL    HW277899   5.873   2.207   0.539  0.3053 -0.2399 -0.6224
24790SOL     OW77900   9.396  10.745   7.628 -0.2862  0.3797  0.5908
24790SOL    HW177901   9.419  10.812   7.692 -0.7735  1.1768 -0.0569
24790SOL    HW277902   9.388  10.665   7.680  2.0233  0.4324  1.1230
24791SOL     OW77903   6.817   7.759   8.305  0.7632  0.5466  0.1543
24791SOL    HW177904   6.863   7.822   8.360 -0.2294  0.0775  1.5751
24791SOL    HW277905   6.863   7.676   8.320  0.5054  0.4226  0.2655
24792SOL     OW77906   1.549   7.904   7.318 -0.4812  0.4580  0.0303
24792SOL    HW177907   1.485   7.859   7.373 -0.3810 -0.2483 -0.4258
24792SOL    HW277908   1.509   7.989   7.300  0.3327  1.5288  2.8310
24793SOL     OW77909   3.457   7.050   6.018  0.4632  0.1541  0.5471
24793SOL    HW177910   3.392   7.050   5.948 -0.2504  2.2608  1.1291
24793SOL    HW277911   3.485   6.958   6.025  0.7343 -0.1069 -2.5933
24794SOL     OW77912   3.634   8.229   3.695 -0.0171 -0.0541 -0.0588
24794SOL    HW177913   3.582   8.229   3.776  0.7579 -3.5118  0.5791
24794SOL    HW277914   3.581   8.179   3.632 -0.5858  2.5404 -1.7905
24795SOL     OW77915   6.444   8.558   8.415 -0.2371 -0.3318  0.5640
24795SOL    HW177916   6.538   8.550   8.397  0.0041 -0.7397  1.8493
24795SOL    HW277917   6.430   8.501   8.491 -1.6206 -0.6465  0.0941
24796SOL     OW77918   4.991   1.200   1.887  0.0408 -1.0476 -0.2243
24796SOL    HW177919   4.943   1.117   1.892 -2.5306  0.3064 -0.4385
24796SOL    HW277920   4.951   1.254   1.955  0.9252  0.3469 -0.7741
24797SOL     OW77921   3.851   7.251   9.505 -0.8856  0.6180 -0.0789
24797SOL    HW177922   3.912   7.187   9.467  0.0349  1.2078  0.3703
24797SOL    HW277923   3.904   7.300   9.568 -1.8225  1.1793  0.2871
24798SOL     OW77924   5.508   5.879   3.123 -0.4804  0.9500 -0.2424
24798SOL    HW177925   5.447   5.863   3.052 -1.0909  0.4381  0.3821
24798SOL    HW277926   5.564   5.801   3.125 -0.1098  1.2048 -0.5039
24799SOL     OW77927   1.269   9.238   1.490  0.2976 -0.0910  0.3284
24799SOL    HW177928   1.300   9.149   1.471 -0.0154  0.1732 -1.6180
24799SOL    HW277929   1.202   9.226   1.557  0.7104 -1.2586  0.5603
24800SOL     OW77930   4.839   1.920   4.084 -0.4757  0.3128 -0.5561
24800SOL    HW177931   4.849   1.939   3.990 -0.5525  1.4548 -0.3391
24800SOL    HW277932   4.840   2.006   4.126  0.2220 -0.2283  0.5661
24801SOL     OW77933   8.643   8.726   2.003 -0.1449  0.8513  0.1698
24801SOL    HW177934   8.561   8.718   2.052 -0.2079 -0.3358 -0.0994
24801SOL    HW277935   8.706   8.676   2.054 -0.2518 -0.5634 -1.0100
24802SOL     OW77936   9.632   2.028   7.152  0.0009  0.5262 -0.1817
24802SOL    HW177937   9.584   2.016   7.070 -0.5060 -2.1383  0.4062
24802SOL    HW277938   9.716   2.065   7.125 -0.5129  0.5845 -1.8057
24803SOL     OW77939   2.985   3.804   7.565 -0.1303 -0.1140  0.1526
24803SOL    HW177940   2.980   3.709   7.563  0.3744 -0.1397 -1.1067
24803SOL    HW277941   3.038   3.827   7.488 -0.3914  1.1902  0.3295
24804SOL     OW77942   6.213  10.625   4.414  0.2708 -0.7335 -0.1310
24804SOL    HW177943   6.165  10.707   4.426  0.1862 -0.8055  0.0206
24804SOL    HW277944   6.242  10.628   4.323  2.6983  0.8075  0.5624
24805SOL     OW77945   0.595   1.048   3.217  0.3875  0.0892  0.6579
24805SOL    HW177946   0.676   1.016   3.176  0.1091 -0.3443  0.4485
24805SOL    HW277947   0.557   1.107   3.152  0.0949 -0.3749  0.4004
24806SOL     OW77948   1.026   4.851   9.096 -0.8290  0.1775 -0.4354
24806SOL    HW177949   0.965   4.901   9.150 -0.1595  0.7343 -0.1880
24806SOL    HW277950   0.979   4.838   9.013 -1.1085  1.0100 -0.4153
24807SOL     OW77951   3.463   4.499   2.923 -0.3607 -0.4066 -0.4761
24807SOL    HW177952   3.544   4.502   2.974  0.1962 -1.5734 -1.2346
24807SOL    HW277953   3.393   4.502   2.988  0.3259 -1.9463  0.3832
24808SOL     OW77954   8.491   2.228   7.035  0.0335 -0.4894 -0.0327
24808SOL    HW177955   8.441   2.202   7.113  1.4940 -0.8251  0.8344
24808SOL    HW277956   8.515   2.320   7.052  0.8279 -0.7281  0.2025
24809SOL     OW77957   4.838   0.648   1.837 -0.1547 -0.1278  0.5779
24809SOL    HW177958   4.857   0.721   1.778 -1.9220  0.6836  0.9525
24809SOL    HW277959   4.796   0.689   1.913  0.8189 -1.3035  1.8177
24810SOL     OW77960   6.296   9.439   6.349 -0.4312  0.3224  0.1530
24810SOL    HW177961   6.253   9.381   6.412 -1.3246 -1.1477 -1.6975
24810SOL    HW277962   6.242   9.518   6.349 -0.1276  0.5570  1.5481
24811SOL     OW77963   9.207   0.584   4.292 -0.1550  0.3162  0.1328
24811SOL    HW177964   9.125   0.618   4.329  0.1353  0.5934  0.5224
24811SOL    HW277965   9.274   0.609   4.355  0.0682 -0.9823  0.4454
24812SOL     OW77966   9.315   9.355   3.548 -0.1811 -0.2960  0.0701
24812SOL    HW177967   9.339   9.283   3.489  0.2777  0.4558 -0.6804
24812SOL    HW277968   9.219   9.359   3.543 -0.0723  0.7113 -1.8035
24813SOL     OW77969   3.196   8.644   8.635 -0.1417 -0.1965 -0.2650
24813SOL    HW177970   3.162   8.654   8.547  1.9167 -0.0614 -1.0997
24813SOL    HW277971   3.238   8.559   8.635 -1.8709 -1.1314  1.2661
24814SOL     OW77972   7.133  10.968   2.954  0.8050 -0.1110 -0.4209
24814SOL    HW177973   7.157  10.930   2.869  1.3796 -0.0197 -0.3025
24814SOL    HW277974   7.080  10.900   2.996  3.2545 -1.5506  0.5145
24815SOL     OW77975   6.769  10.703   4.672 -0.5087  0.3457 -0.1182
24815SOL    HW177976   6.674  10.713   4.686 -0.5414  0.5613 -0.4962
24815SOL    HW277977   6.795  10.783   4.628  0.0007  0.6474  0.7023
24816SOL     OW77978   7.872  10.198   7.185  0.3681  0.1352  0.0082
24816SOL    HW177979   7.818  10.170   7.112  0.5314  0.2634 -0.1604
24816SOL    HW277980   7.960  10.166   7.164  0.0051 -1.8094  1.1967
24817SOL     OW77981   5.092   9.924   9.799  0.6088 -0.1739  0.1557
24817SOL    HW177982   5.052   9.837   9.802  1.8294 -0.7477  0.1596
24817SOL    HW277983   5.084   9.952   9.708 -0.1002 -0.1322  0.2268
24818SOL     OW77984   4.182   6.813   0.971  0.2140  0.7306  0.2910
24818SOL    HW177985   4.183   6.738   0.910  1.1191  1.1991 -0.2896
24818SOL    HW277986   4.161   6.774   1.056  1.8346 -0.3898  0.2312
24819SOL     OW77987   7.414   6.710   2.001  0.1901 -0.2567 -0.5461
24819SOL    HW177988   7.418   6.707   1.905 -2.5193  2.1807 -0.8752
24819SOL    HW277989   7.349   6.643   2.024  0.6541 -0.6676 -0.4256
24820SOL     OW77990   1.723   1.571   8.550 -0.4337 -0.0910 -0.4643
24820SOL    HW177991   1.814   1.594   8.535 -0.3893  0.5711  0.7051
24820SOL    HW277992   1.724   1.517   8.629 -1.1299  0.7753  0.1751
24821SOL     OW77993   2.460   8.518   9.847  0.1674  0.1125  1.0865
24821SOL    HW177994   2.444   8.451   9.780  0.0713  0.4120  0.8080
24821SOL    HW277995   2.420   8.483   9.926 -4.0614  1.7985 -0.0292
24822SOL     OW77996  10.121   2.722  10.196 -0.2443 -0.1156  0.4239
24822SOL    HW177997  10.037   2.692  10.162  1.0123  0.1562 -3.4641
24822SOL    HW277998  10.160   2.645  10.238 -1.6521 -0.7263  0.6417
24823SOL     OW77999   2.709   8.533   9.391 -0.1932 -0.0860 -0.2686
24823SOL    HW178000   2.686   8.458   9.336  0.3794 -0.1438 -0.4326
24823SOL    HW278001   2.743   8.494   9.471  0.5405 -0.0057 -0.5380
24824SOL     OW78002  11.066   6.145   1.794  0.1535 -0.2741 -0.3448
24824SOL    HW178003  11.154   6.110   1.808  0.4124 -0.7017 -2.6514
24824SOL    HW278004  11.025   6.082   1.735 -1.0548  0.8570 -0.7533
24825SOL     OW78005   1.248   1.794   7.414  0.2258  0.5714 -0.1890
24825SOL    HW178006   1.169   1.841   7.438  1.1643  1.0109  2.2700
24825SOL    HW278007   1.297   1.855   7.358 -0.5685  0.7780 -0.6699
24826SOL     OW78008  10.587   4.398   1.087 -0.2109  0.2063  0.4829
24826SOL    HW178009  10.582   4.351   1.004  1.7712 -0.1862  0.5336
24826SOL    HW278010  10.616   4.332   1.150  4.0631  1.6003  0.2845
24827SOL     OW78011   5.418   4.446   3.673 -0.1896  0.0487 -0.3058
24827SOL    HW178012   5.436   4.468   3.764 -0.5960  0.2756 -0.2781
24827SOL    HW278013   5.418   4.531   3.628 -2.0787  0.1679 -0.1528
24828SOL     OW78014   4.417   8.482   4.012 -0.4487 -1.0304  0.6700
24828SOL    HW178015   4.464   8.496   4.094 -0.2508 -1.6589  0.6706
24828SOL    HW278016   4.456   8.403   3.976  0.6528  0.1612 -0.8795
24829SOL     OW78017   7.838   0.933   1.763 -0.0015  0.0267  0.1609
24829SOL    HW178018   7.797   0.936   1.676  0.7793  0.9841 -0.1804
24829SOL    HW278019   7.805   1.010   1.808  2.2064  1.4325 -0.4956
24830SOL     OW78020   5.437  10.211   9.455  0.1577  0.0379 -0.4016
24830SOL    HW178021   5.373  10.203   9.526 -0.8587 -0.0812 -1.3016
24830SOL    HW278022   5.500  10.141   9.472 -0.4695 -0.4475 -0.0090
24831SOL     OW78023   8.525  10.029   6.197  0.0187 -0.1109  0.8499
24831SOL    HW178024   8.500  10.121   6.206 -0.4542 -0.4331  3.7795
24831SOL    HW278025   8.507  10.008   6.105  0.8087  2.8655 -0.0925
24832SOL     OW78026  11.066   3.833   0.637  0.7668 -0.4957 -0.1664
24832SOL    HW178027  11.140   3.893   0.632  0.4702 -0.1268 -0.2012
24832SOL    HW278028  10.995   3.879   0.593  0.1908 -0.3431  0.8918
24833SOL     OW78029   8.394   1.748   8.953 -0.8718 -0.1616  0.4139
24833SOL    HW178030   8.464   1.807   8.926 -1.5895  0.6681  0.3397
24833SOL    HW278031   8.422   1.714   9.038 -0.5045  0.3663  0.5035
24834SOL     OW78032   0.932   3.635   5.669  0.0563 -0.5903  0.2563
24834SOL    HW178033   0.951   3.717   5.624 -0.7533 -0.8631 -0.6119
24834SOL    HW278034   0.960   3.650   5.759  0.4520  0.4353 -0.0277
24835SOL     OW78035   1.109   5.775   1.726  0.0154 -0.0950  0.5582
24835SOL    HW178036   1.122   5.681   1.742  0.2614 -0.2604 -0.5306
24835SOL    HW278037   1.035   5.798   1.782 -0.9562 -1.2739 -0.1658
24836SOL     OW78038   0.792   8.787   7.651 -0.4242 -0.2670 -0.4805
24836SOL    HW178039   0.865   8.742   7.692 -0.5102  1.0849  1.2924
24836SOL    HW278040   0.795   8.759   7.559 -0.1445 -3.3396  0.3472
24837SOL     OW78041   3.371   4.818   6.807  0.4927 -0.2317  0.1628
24837SOL    HW178042   3.409   4.888   6.753  0.4767  0.2528  0.7699
24837SOL    HW278043   3.446   4.766   6.835  0.9155  1.3705  2.2849
24838SOL     OW78044   7.014   5.511   5.577 -0.2055  0.1458  0.1753
24838SOL    HW178045   7.079   5.444   5.553 -0.6688 -0.4562  0.5835
24838SOL    HW278046   6.950   5.508   5.506 -0.3007  0.0647  0.2662
24839SOL     OW78047  10.972  10.379   2.391 -0.3694 -0.2934  0.0210
24839SOL    HW178048  11.046  10.439   2.403 -0.3336 -0.2774 -0.2782
24839SOL    HW278049  10.969  10.328   2.472  0.8979 -1.3282 -0.5545
24840SOL     OW78050   0.488  10.710   1.708 -0.1971 -0.2558 -0.0484
24840SOL    HW178051   0.395  10.702   1.727 -0.5762  0.7102 -1.3703
24840SOL    HW278052   0.502  10.654   1.631  0.6266 -1.4920  0.9474
24841SOL     OW78053   8.859   4.722   0.313 -0.2704 -0.2705  0.4764
24841SOL    HW178054   8.827   4.652   0.256 -0.6462 -0.1002  0.4744
24841SOL    HW278055   8.803   4.717   0.391 -0.7429  0.4601  0.1879
24842SOL     OW78056  10.616   6.216   3.352 -0.0139 -0.4237  0.0221
24842SOL    HW178057  10.555   6.288   3.370 -1.8315 -1.7948 -0.3404
24842SOL    HW278058  10.684   6.255   3.298  0.8624  1.7625  2.4942
24843SOL     OW78059  11.035   1.741   0.861 -0.2826  0.1203 -0.0507
24843SOL    HW178060  10.976   1.718   0.932  2.5085 -2.1818  1.7643
24843SOL    HW278061  11.086   1.815   0.895  1.9399 -1.7896  1.0817
24844SOL     OW78062   5.698   9.444   7.199 -0.0147 -0.0318 -0.0854
24844SOL    HW178063   5.767   9.415   7.139 -0.2635 -1.8919  0.4565
24844SOL    HW278064   5.691   9.373   7.263 -1.7441  0.5885  0.4658
24845SOL     OW78065   1.252  10.253   8.491  0.1920  0.2866  0.2934
24845SOL    HW178066   1.240  10.211   8.576 -0.6765 -1.2941 -0.5720
24845SOL    HW278067   1.247  10.182   8.427  0.9536  1.4124 -1.0983
24846SOL     OW78068   5.636   5.922   9.062 -0.0923  0.4738  0.4600
24846SOL    HW178069   5.583   5.947   9.137  1.2241  0.7774  1.3242
24846SOL    HW278070   5.606   5.835   9.038 -0.4134  0.3049  1.4488
24847SOL     OW78071   0.747   9.415   6.114 -0.6611  0.2454  0.0488
24847SOL    HW178072   0.752   9.510   6.130 -0.1116  0.2703 -0.2259
24847SOL    HW278073   0.717   9.407   6.024 -2.6639  0.1179  0.6852
24848SOL     OW78074  10.360  11.093   8.876  0.7522 -0.0911  0.4540
24848SOL    HW178075  10.379  11.049   8.959  0.7768 -0.3764  0.2983
24848SOL    HW278076  10.308  11.030   8.827  1.7335 -0.3887 -0.2214
24849SOL     OW78077   5.334   6.652   3.910 -0.1426 -0.2113 -0.0417
24849SOL    HW178078   5.348   6.683   3.999 -0.4423 -0.1476 -0.0150
24849SOL    HW278079   5.273   6.579   3.919 -0.2059 -0.1787 -0.1965
24850SOL     OW78080   3.115   9.102   7.193 -0.4554 -0.0444 -0.3274
24850SOL    HW178081   3.079   9.165   7.255  0.3522 -0.8696  1.0141
24850SOL    HW278082   3.209   9.104   7.208 -0.0971  0.5334 -2.3103
24851SOL     OW78083   2.508   3.127   5.326 -0.7337  0.9004 -0.2421
24851SOL    HW178084   2.530   3.034   5.320  1.0566  1.3279 -1.1678
24851SOL    HW278085   2.543   3.155   5.411 -1.9980  0.5853  0.4052
24852SOL     OW78086   3.407   9.987   5.218  0.2406 -0.0070 -0.9925
24852SOL    HW178087   3.430   9.998   5.310  0.4004  1.3268 -1.1761
24852SOL    HW278088   3.491   9.990   5.172  0.0998  0.0570 -1.2447
24853SOL     OW78089   0.306   5.941   3.960 -0.0514  0.0622  0.6381
24853SOL    HW178090   0.231   5.982   4.003 -1.6283 -1.4394 -0.5702
24853SOL    HW278091   0.272   5.860   3.922  1.5483  0.5544 -2.1760
24854SOL     OW78092   2.062   3.925   9.457 -0.1088 -1.4761  0.0256
24854SOL    HW178093   2.156   3.935   9.474 -0.5145  0.1362  1.6186
24854SOL    HW278094   2.046   3.978   9.380 -0.1801  0.8701  1.5623
24855SOL     OW78095   6.768   0.189   8.440  0.0628 -0.2814  0.6543
24855SOL    HW178096   6.777   0.173   8.534  1.4109 -1.5150  0.3551
24855SOL    HW278097   6.797   0.107   8.400 -2.9075 -0.7558 -0.8204
24856SOL     OW78098   0.684   9.260   8.732 -0.1146  0.5190 -0.3551
24856SOL    HW178099   0.617   9.229   8.793  0.0284  1.3720  0.2664
24856SOL    HW278100   0.637   9.272   8.650 -0.7167  1.0098  0.0486
24857SOL     OW78101   0.373   5.924   7.443 -0.1354  0.2550  0.2945
24857SOL    HW178102   0.358   5.849   7.501  2.6723  0.7186  1.7949
24857SOL    HW278103   0.399   5.995   7.502  3.7601  0.5161 -1.4292
24858SOL     OW78104   6.062   5.281  10.060  0.1680  0.1738  0.1075
24858SOL    HW178105   6.099   5.237   9.984  1.6850  1.4111  0.0691
24858SOL    HW278106   6.073   5.374  10.041 -0.4690  0.5239  1.3538
24859SOL     OW78107   1.599   7.489   1.527 -0.2746  0.3812 -0.1915
24859SOL    HW178108   1.557   7.522   1.447  0.4935 -0.3607 -0.9260
24859SOL    HW278109   1.542   7.518   1.598 -1.7511 -0.1575 -1.1082
24860SOL     OW78110   5.673   4.970   0.952 -0.1171  0.8763  0.3055
24860SOL    HW178111   5.749   5.027   0.942  1.4856 -1.0742  0.7906
24860SOL    HW278112   5.675   4.943   1.044  0.4031 -1.5438 -0.3508
24861SOL     OW78113   7.456   8.907   1.304  0.5819 -0.5435 -0.0957
24861SOL    HW178114   7.524   8.864   1.253 -0.0800 -1.6317 -0.0836
24861SOL    HW278115   7.412   8.965   1.242 -0.0594 -1.6704 -0.7322
24862SOL     OW78116   0.243   3.448   9.267  0.8551 -0.2661  0.2958
24862SOL    HW178117   0.262   3.540   9.286  1.4508 -0.1415 -0.8086
24862SOL    HW278118   0.157   3.449   9.226  1.2885 -0.0590 -0.6495
24863SOL     OW78119   5.478   5.407   3.897  0.1316  0.0293  0.0704
24863SOL    HW178120   5.478   5.475   3.965 -0.2909  0.2452 -0.1402
24863SOL    HW278121   5.559   5.420   3.849 -1.1970  2.2358 -1.7843
24864SOL     OW78122   2.734   9.445   1.931 -0.2211 -0.4234  0.3721
24864SOL    HW178123   2.729   9.476   1.841  0.0657 -0.8302  0.2098
24864SOL    HW278124   2.659   9.484   1.975 -0.4226 -0.3105 -0.0735
24865SOL     OW78125   2.353   0.740   8.473  0.0832  0.5419  0.0466
24865SOL    HW178126   2.281   0.684   8.501  1.2170 -0.8226  0.3941
24865SOL    HW278127   2.316   0.828   8.469 -0.8224  0.4036  3.2112
24866SOL     OW78128   0.929  11.121   2.066  0.6142 -0.6101 -0.4068
24866SOL    HW178129   0.997  11.052   2.067  2.0822  0.6761  2.6848
24866SOL    HW278130   0.856  11.083   2.114  2.0938  0.3342  2.9445
24867SOL     OW78131   7.769   3.396   8.682  0.4214  0.3894 -0.0891
24867SOL    HW178132   7.739   3.352   8.602  0.6867  0.0537 -0.0065
24867SOL    HW278133   7.748   3.489   8.667  4.0380  1.0399 -2.2949
24868SOL     OW78134   3.268   1.418   3.409 -0.1516  0.3650  0.5500
24868SOL    HW178135   3.215   1.366   3.470  0.4348 -0.8361  0.0673
24868SOL    HW278136   3.355   1.379   3.413 -0.5631 -1.2589 -2.6638
24869SOL     OW78137   9.586   3.351   1.932  0.0836 -0.2199 -0.3827
24869SOL    HW178138   9.543   3.429   1.899  1.8687  0.5304 -1.0701
24869SOL    HW278139   9.657   3.384   1.987 -0.1002 -1.3964  0.6175
24870SOL     OW78140   0.794   3.980   6.389 -0.5722  0.6398  0.3163
24870SOL    HW178141   0.785   4.073   6.367 -2.0662  0.0520 -1.9662
24870SOL    HW278142   0.708   3.955   6.422 -0.1553  0.0674  0.9973
24871SOL     OW78143   5.202   9.935   0.931 -0.1560  0.3199  0.3121
24871SOL    HW178144   5.229   9.876   0.861 -0.5198  0.6085 -0.0723
24871SOL    HW278145   5.114   9.907   0.953  0.4407 -0.6525  1.5997
24872SOL     OW78146   9.824   8.536   5.083 -0.0048 -0.9590  0.7835
24872SOL    HW178147   9.808   8.627   5.059  0.5538 -0.6710  1.4967
24872SOL    HW278148   9.919   8.527   5.081 -0.0606 -1.5612  0.6121
24873SOL     OW78149  10.517   5.717   5.647 -0.3959  0.2957 -0.1642
24873SOL    HW178150  10.499   5.699   5.555  1.3286  0.1746 -0.5241
24873SOL    HW278151  10.431   5.732   5.686 -1.1020  1.4223 -2.0100
24874SOL     OW78152   9.854   9.968  10.963 -0.4651 -0.1780 -0.2438
24874SOL    HW178153   9.915   9.949  11.034  0.4794  1.1192 -0.6662
24874SOL    HW278154   9.883   9.912  10.891  0.3161  0.4984 -0.4725
24875SOL     OW78155   5.593   5.200  10.941 -0.0519 -0.3194 -0.2143
24875SOL    HW178156   5.564   5.110  10.928  0.9035 -1.0877  2.4449
24875SOL    HW278157   5.559   5.247  10.865 -1.5702 -2.6635 -1.0884
24876SOL     OW78158   9.857   5.223   2.109 -0.7411  0.6427  0.0751
24876SOL    HW178159   9.832   5.243   2.019 -0.2534 -0.2320 -0.2733
24876SOL    HW278160   9.942   5.266   2.120  0.1358 -0.8539 -0.5544
24877SOL     OW78161   7.559   1.130   0.675 -0.0621  0.6133  0.6723
24877SOL    HW178162   7.494   1.078   0.723 -0.5934  0.1247 -0.5429
24877SOL    HW278163   7.508   1.180   0.612  0.6501  1.0619  0.4442
24878SOL     OW78164   2.094  10.904   4.901 -0.5126 -0.2103 -0.5955
24878SOL    HW178165   2.104  10.821   4.854  2.3115 -1.8487  2.4784
24878SOL    HW278166   2.182  10.928   4.927 -1.4217  3.0403 -0.0230
24879SOL     OW78167   9.135   2.308   1.958  0.3377 -0.0892  0.1136
24879SOL    HW178168   9.210   2.320   2.016 -0.7549  2.0676  1.2153
24879SOL    HW278169   9.141   2.380   1.895 -2.5550  2.4316  2.3807
24880SOL     OW78170   6.079   5.830  10.157  0.2229 -1.4099  0.5835
24880SOL    HW178171   6.031   5.913  10.149  0.3189 -1.4037  0.0019
24880SOL    HW278172   6.103   5.825  10.249  1.5670 -0.0342  0.3393
24881SOL     OW78173   8.761   7.062   6.171 -0.2916 -0.2097  0.6289
24881SOL    HW178174   8.718   7.021   6.246 -0.0618 -1.2148  0.2283
24881SOL    HW278175   8.772   6.991   6.108 -3.2812  1.1334 -1.6855
24882SOL     OW78176   3.624   2.841   9.463  0.3789  0.2438 -0.3651
24882SOL    HW178177   3.611   2.768   9.402 -0.5044  0.6590 -0.6872
24882SOL    HW278178   3.554   2.903   9.442  0.1004  0.4343  1.0120
24883SOL     OW78179   9.101   0.745   6.024  0.0560  0.0500 -0.0952
24883SOL    HW178180   9.060   0.783   6.102  0.0705 -0.7948  0.3285
24883SOL    HW278181   9.057   0.789   5.951 -0.6456  0.1388  0.3717
24884SOL     OW78182   4.519   7.160   6.249  0.1858  0.1465 -0.0678
24884SOL    HW178183   4.460   7.235   6.250 -0.5666 -0.4323 -0.0019
24884SOL    HW278184   4.472   7.093   6.199  1.3144  0.0854 -1.1060
24885SOL     OW78185  10.217   0.041   3.657  0.0361  0.2811  0.7172
24885SOL    HW178186  10.294   0.088   3.625  0.5861 -0.6197  0.6515
24885SOL    HW278187  10.245   0.005   3.741  0.4695 -1.8102 -0.2270
24886SOL     OW78188   6.143   2.576   2.959  0.3897 -1.1160  0.0130
24886SOL    HW178189   6.054   2.540   2.962 -0.0263 -0.3445 -1.5546
24886SOL    HW278190   6.195   2.508   2.916  0.5608 -1.5676  0.9298
24887SOL     OW78191  11.115  10.100   5.501 -0.1054 -0.3195  0.5612
24887SOL    HW178192  11.146  10.076   5.413  0.3199  0.5841  0.4512
24887SOL    HW278193  11.073  10.021   5.534  0.9272 -1.1000  0.0771
24888SOL     OW78194   6.995   1.552   9.184  0.3481  0.3399 -0.2428
24888SOL    HW178195   6.993   1.645   9.162  0.6057  0.5168  0.4604
24888SOL    HW278196   7.029   1.509   9.106  2.0458  1.0355  0.0816
24889SOL     OW78197   9.729   2.327   9.897 -0.2576  0.3570 -0.2498
24889SOL    HW178198   9.673   2.352   9.970  1.3094 -0.2401  1.2176
24889SOL    HW278199   9.818   2.347   9.927  0.4162  0.4263 -2.1412
24890SOL     OW78200   6.749   1.830   7.538 -0.0540  0.0437  0.5495
24890SOL    HW178201   6.677   1.769   7.521 -1.1873  0.7846  2.4271
24890SOL    HW278202   6.796   1.792   7.612  1.0765 -0.0337 -0.1677
24891SOL     OW78203   6.940   0.015   3.563  0.3596 -0.5826  0.6412
24891SOL    HW178204   6.936  -0.072   3.603  1.6814 -0.6592  0.6640
24891SOL    HW278205   6.990   0.002   3.482  1.7529  0.3547  1.3093
24892SOL     OW78206   5.925   6.539   7.639 -0.1467 -0.1849  0.0904
24892SOL    HW178207   5.905   6.448   7.620 -1.3946 -0.1416  1.0868
24892SOL    HW278208   6.007   6.536   7.689 -1.0407 -0.9237  1.5780
24893SOL     OW78209   0.593   7.823   1.839  0.0876 -0.0698 -0.3379
24893SOL    HW178210   0.558   7.743   1.799 -0.2216 -0.6689  1.0514
24893SOL    HW278211   0.676   7.838   1.795  0.4724 -1.5672 -0.1651
24894SOL     OW78212   9.209   6.562   6.881 -0.1284 -1.0424  0.4503
24894SOL    HW178213   9.242   6.640   6.836 -0.6941 -0.9650  0.1650
24894SOL    HW278214   9.281   6.535   6.938  0.1366 -0.4157  0.4183
24895SOL     OW78215   6.802   6.872   4.492  0.1936 -0.0806  0.2444
24895SOL    HW178216   6.897   6.879   4.495  0.3905 -2.1018 -0.2423
24895SOL    HW278217   6.776   6.924   4.415  0.7130  1.7832  1.2781
24896SOL     OW78218  10.517   2.040   2.162  0.1033 -0.2961  0.3263
24896SOL    HW178219  10.605   2.005   2.151 -1.0159 -3.0341 -1.1056
24896SOL    HW278220  10.486   2.001   2.244 -0.5584 -1.3180 -0.3899
24897SOL     OW78221   6.483   0.700   9.326  0.0014 -0.2627  0.2425
24897SOL    HW178222   6.403   0.715   9.276  0.8261  1.4535 -0.6399
24897SOL    HW278223   6.468   0.746   9.409  1.0383  2.4486 -0.9672
24898SOL     OW78224   7.802   7.741   9.376  0.0140 -0.2365  0.2539
24898SOL    HW178225   7.730   7.714   9.433  0.6983 -0.5908  0.9687
24898SOL    HW278226   7.878   7.744   9.433  0.0146  3.4307  0.3415
24899SOL     OW78227   9.021   0.525   9.328  0.4592 -0.2021 -0.3056
24899SOL    HW178228   8.984   0.466   9.262 -0.6970  0.9491 -0.7374
24899SOL    HW278229   9.022   0.473   9.409  0.6243 -1.1936 -0.9227
24900SOL     OW78230   5.477   6.073   4.355 -0.0311 -0.4296 -0.8038
24900SOL    HW178231   5.571   6.081   4.370  0.2501 -0.4817 -2.3206
24900SOL    HW278232   5.443   6.162   4.366  0.4780 -0.0928 -1.8083
24901SOL     OW78233   4.160   7.073  10.840 -0.4358 -0.6241  0.4815
24901SOL    HW178234   4.177   7.039  10.928  0.3041 -0.4757  0.3992
24901SOL    HW278235   4.236   7.048  10.789 -1.7546 -2.5392 -0.6908
24902SOL     OW78236   3.025   3.458   9.059 -0.2353  0.1571  0.4471
24902SOL    HW178237   3.015   3.436   9.152 -0.2445 -0.0753  0.3922
24902SOL    HW278238   3.085   3.532   9.058  0.5436 -0.4605  0.5799
24903SOL     OW78239   3.934   1.479   1.482 -0.4246 -0.0247  0.2419
24903SOL    HW178240   3.979   1.562   1.496  0.6532  0.1981 -3.4365
24903SOL    HW278241   3.891   1.489   1.397 -3.3633 -2.0435  1.3056
24904SOL     OW78242   5.895  10.946   7.904 -0.0402 -0.2383 -0.0546
24904SOL    HW178243   5.987  10.956   7.880 -0.3562  0.5789 -1.0021
24904SOL    HW278244   5.892  10.864   7.954  1.2708 -0.0061  0.4357
24905SOL     OW78245   7.861   6.431   9.229  0.2572 -0.1807  0.0263
24905SOL    HW178246   7.922   6.358   9.238 -0.9142 -1.6997 -3.0021
24905SOL    HW278247   7.883   6.469   9.143 -0.5695  1.7078  0.6020
24906SOL     OW78248   9.110   5.591   5.860 -0.2268  0.2489  0.2584
24906SOL    HW178249   9.199   5.580   5.893  0.1172  0.4337 -0.5669
24906SOL    HW278250   9.122   5.626   5.772 -1.0604 -1.1411 -0.4468
24907SOL     OW78251   6.860   2.677   1.743  0.1000  0.2765 -0.3398
24907SOL    HW178252   6.862   2.711   1.654 -0.8584  1.5612  0.0954
24907SOL    HW278253   6.842   2.583   1.733  1.4721  0.1112 -1.5248
24908SOL     OW78254   5.401   9.482   7.308 -0.1851  0.5995 -0.7999
24908SOL    HW178255   5.483   9.504   7.264  1.1462  0.8888  1.6102
24908SOL    HW278256   5.415   9.509   7.399 -2.0847 -1.4514  0.2118
24909SOL     OW78257  11.075   9.585   9.806  0.0264 -0.3315 -0.2591
24909SOL    HW178258  11.048   9.601   9.715 -2.4259  1.7888  0.7062
24909SOL    HW278259  11.018   9.642   9.858  0.8582 -1.9835  2.6901
24910SOL     OW78260  10.350   6.692   2.276  0.7867  0.1468 -0.6762
24910SOL    HW178261  10.290   6.651   2.338 -0.1203  0.8800 -1.0423
24910SOL    HW278262  10.367   6.779   2.312 -1.0270  1.2054 -2.1898
24911SOL     OW78263   8.319  10.456   8.238  0.0518  0.2014  0.4613
24911SOL    HW178264   8.296  10.401   8.164 -4.1129  1.8195  0.2670
24911SOL    HW278265   8.321  10.396   8.313 -0.0266 -0.8212 -0.3339
24912SOL     OW78266   5.574   7.631   3.474 -0.4336 -0.5468  0.1137
24912SOL    HW178267   5.549   7.677   3.394  0.0669  3.3027  1.9469
24912SOL    HW278268   5.667   7.612   3.464 -0.5306 -0.7122 -0.4799
24913SOL     OW78269   5.283   0.849   4.813  0.0195  0.0194  0.0459
24913SOL    HW178270   5.374   0.842   4.844 -0.8396  1.6805  3.3965
24913SOL    HW278271   5.249   0.759   4.821  0.6787 -0.1457  1.3490
24914SOL     OW78272   7.961   3.486  10.856 -0.0928  0.1404  0.2576
24914SOL    HW178273   8.007   3.495  10.939 -0.1059 -0.1833  0.3015
24914SOL    HW278274   8.022   3.521  10.791 -0.6236  1.6749  0.5555
24915SOL     OW78275   1.952   0.995   9.075  0.5560 -0.0067  0.0668
24915SOL    HW178276   2.020   1.023   9.014 -0.3454 -0.1823 -1.0436
24915SOL    HW278277   1.899   1.074   9.089  1.0561  0.1759  1.0649
24916SOL     OW78278   5.261   9.200  10.016  0.8172  0.4348 -0.3734
24916SOL    HW178279   5.213   9.183   9.935  0.0624 -1.3830  0.3848
24916SOL    HW278280   5.350   9.171   9.998  0.5026 -0.5719 -0.3932
24917SOL     OW78281   0.387   4.105   5.836 -0.0965  0.2481 -0.2549
24917SOL    HW178282   0.295   4.085   5.853  0.0468  1.1438  2.0030
24917SOL    HW278283   0.436   4.035   5.881  0.3809 -0.3891 -1.6781
24918SOL     OW78284   9.661   7.773   2.291 -0.5855  0.4344  0.3758
24918SOL    HW178285   9.633   7.779   2.200 -0.3335 -2.4110  0.0379
24918SOL    HW278286   9.589   7.729   2.337  0.5035 -0.8711  0.8938
24919SOL     OW78287   0.816   4.074  10.157  0.0623  0.2523 -0.2807
24919SOL    HW178288   0.749   4.013  10.127 -0.3529  1.1220 -1.1681
24919SOL    HW278289   0.835   4.128  10.080  1.1359  0.5937  0.2136
24920SOL     OW78290   6.754   6.323  10.480 -0.0067 -0.1543  0.1834
24920SOL    HW178291   6.689   6.381  10.520 -0.2149 -1.5851  2.0349
24920SOL    HW278292   6.741   6.238  10.523  0.9451 -1.3451 -1.7273
24921SOL     OW78293   8.775  10.228   5.417  0.0236 -0.1696 -0.1487
24921SOL    HW178294   8.824  10.168   5.474  1.3147  1.6033  0.7046
24921SOL    HW278295   8.689  10.235   5.458 -0.2616 -1.6287 -0.4309
24922SOL     OW78296   9.221   7.634   5.008  0.5432 -0.1593  0.1650
24922SOL    HW178297   9.149   7.575   4.986 -0.0116  0.3933  0.4671
24922SOL    HW278298   9.187   7.688   5.080  0.6434  1.2694 -0.8290
24923SOL     OW78299   2.667   9.717   1.396  0.0402  0.7927  0.6031
24923SOL    HW178300   2.578   9.685   1.382  0.0805  0.8662  0.1398
24923SOL    HW278301   2.709   9.708   1.310  1.3180 -1.7883  1.3881
24924SOL     OW78302   0.904   4.874   7.971  0.3118  0.5254 -0.3028
24924SOL    HW178303   0.905   4.960   8.012 -1.0564  0.6158 -0.4332
24924SOL    HW278304   0.991   4.838   7.989  0.3818  1.3180  1.0547
24925SOL     OW78305  10.569   7.390   4.908  0.0430  0.5222  0.6416
24925SOL    HW178306  10.601   7.354   4.826 -0.5523  0.5816  0.3823
24925SOL    HW278307  10.487   7.344   4.925 -0.0346  0.7845  1.0049
24926SOL     OW78308   5.812   1.242   4.517 -0.2376 -0.6354 -0.0744
24926SOL    HW178309   5.743   1.300   4.486 -0.8812 -1.3000  0.0802
24926SOL    HW278310   5.803   1.164   4.462  1.9640  0.1846 -1.7342
24927SOL     OW78311   7.383   5.042   2.671 -0.0889  0.2328  0.0967
24927SOL    HW178312   7.387   5.067   2.579 -0.0142 -2.0472 -0.5795
24927SOL    HW278313   7.299   5.077   2.702  0.5123  2.2445 -0.3930
24928SOL     OW78314   0.319   2.906   5.361 -0.0977 -0.5666  0.0721
24928SOL    HW178315   0.411   2.898   5.339  0.1980  2.3291 -0.0965
24928SOL    HW278316   0.315   2.892   5.456  0.6226 -0.0957  0.1766
24929SOL     OW78317   8.725   1.064  10.749  0.8848 -0.1048 -0.1609
24929SOL    HW178318   8.766   1.004  10.687  2.6998 -0.7827  1.5975
24929SOL    HW278319   8.670   1.120  10.695  1.5758 -1.3137 -2.2401
24930SOL     OW78320   3.238   1.347   5.887 -0.8143  0.3123  0.0668
24930SOL    HW178321   3.195   1.428   5.914 -2.0215  0.4432 -1.9724
24930SOL    HW278322   3.249   1.357   5.792  2.4097 -0.3911  0.2636
24931SOL     OW78323   6.743   8.313   9.400 -0.1374 -0.0637 -0.0199
24931SOL    HW178324   6.768   8.236   9.349 -0.2988 -0.6837  0.8279
24931SOL    HW278325   6.669   8.284   9.454 -0.3159  0.7322  0.1827
24932SOL     OW78326  11.078   1.120   5.683  0.0609  0.5442 -0.1021
24932SOL    HW178327  11.082   1.161   5.597  0.3374 -0.3936 -0.5586
24932SOL    HW278328  11.170   1.110   5.710  0.0329 -0.2766 -0.2662
24933SOL     OW78329   5.386   4.376   4.021  0.6564 -0.0502 -0.5113
24933SOL    HW178330   5.363   4.417   4.105 -1.5234  2.2989 -2.0801
24933SOL    HW278331   5.444   4.439   3.979  2.2304 -1.4869 -0.6064
24934SOL     OW78332   4.070  11.000   1.964  0.1573  0.0546 -0.5467
24934SOL    HW178333   4.149  11.031   2.008  0.2652  0.4275 -0.9942
24934SOL    HW278334   4.102  10.939   1.897 -0.1767 -3.4334  2.1480
24935SOL     OW78335   7.781   9.606  10.867  0.1575 -0.4011  0.1734
24935SOL    HW178336   7.711   9.663  10.835  1.4042  1.5887  0.8610
24935SOL    HW278337   7.740   9.558  10.940 -0.8598 -0.3025 -0.3086
24936SOL     OW78338   6.255   1.862   1.345 -0.1860 -0.0997 -0.2154
24936SOL    HW178339   6.201   1.896   1.273  0.9116 -1.7735 -1.9232
24936SOL    HW278340   6.298   1.785   1.309  0.1275 -1.2624  2.3998
24937SOL     OW78341   4.034  10.814   1.301 -1.0240  0.0177  0.3673
24937SOL    HW178342   4.010  10.853   1.384 -0.8063  0.2007  0.3463
24937SOL    HW278343   3.977  10.738   1.292  0.5267 -1.3684  1.7844
24938SOL     OW78344   5.272   3.357   6.856  0.6817 -0.2749  0.6693
24938SOL    HW178345   5.313   3.403   6.783  0.8369  0.8913  1.4626
24938SOL    HW278346   5.333   3.286   6.877  1.8495  0.8633  1.2202
24939SOL     OW78347   0.362   5.176   8.326  1.0570  0.5961 -0.4262
24939SOL    HW178348   0.450   5.138   8.321  0.9478  0.1162  0.8715
24939SOL    HW278349   0.328   5.170   8.237  1.2540 -1.9003 -0.4264
24940SOL     OW78350   8.667   5.632   0.594 -0.3118  0.1688 -0.0991
24940SOL    HW178351   8.717   5.583   0.660  0.1638  0.7665 -0.0120
24940SOL    HW278352   8.730   5.651   0.525 -0.8215 -0.4944 -0.7584
24941SOL     OW78353   8.255   7.137   8.538  0.0144 -0.2600  0.2181
24941SOL    HW178354   8.223   7.206   8.480  1.3114 -0.4117 -0.7099
24941SOL    HW278355   8.326   7.095   8.489  1.2947 -0.2663  1.9751
24942SOL     OW78356   7.786   6.716   3.905 -0.3593  0.1142 -0.6639
24942SOL    HW178357   7.787   6.620   3.906  1.6187  0.0432 -2.4862
24942SOL    HW278358   7.844   6.742   3.977 -0.2655 -0.0877 -0.6658
24943SOL     OW78359   3.072   9.957   7.652  0.0115  0.1960  0.2001
24943SOL    HW178360   3.068   9.865   7.628 -0.4591 -0.1861  1.6475
24943SOL    HW278361   2.981   9.987   7.649 -0.0816  0.1024  1.5455
24944SOL     OW78362   6.104   3.390   4.786  0.8151  0.1437 -0.3276
24944SOL    HW178363   6.131   3.377   4.695 -2.3890 -1.8665 -1.1289
24944SOL    HW278364   6.083   3.483   4.792  0.3269  0.1562 -1.9054
24945SOL     OW78365   3.462  10.656   6.774  0.5130 -0.2506  0.2952
24945SOL    HW178366   3.519  10.615   6.710 -1.4484 -2.3990 -0.2000
24945SOL    HW278367   3.466  10.600   6.851 -0.1745  0.1022  0.6051
24946SOL     OW78368   9.458   9.793   5.504 -0.4468  0.0866 -0.2907
24946SOL    HW178369   9.389   9.785   5.438  0.2914  0.4650 -1.1314
24946SOL    HW278370   9.421   9.753   5.582 -2.2780  1.8420 -0.1910
24947SOL     OW78371   0.824   1.003   0.153  0.0781  0.2569 -0.3782
24947SOL    HW178372   0.777   0.945   0.212 -0.5703  1.7621  0.6631
24947SOL    HW278373   0.877   1.058   0.211 -1.0655  2.2167 -1.0997
24948SOL     OW78374   8.999   7.516   8.518 -0.1392 -0.1238 -0.1589
24948SOL    HW178375   8.942   7.462   8.572  0.0733  0.1649  0.3599
24948SOL    HW278376   8.978   7.606   8.543 -0.2711  0.0294 -0.7933
24949SOL     OW78377   3.405   5.865   5.326  0.7197  0.1965  0.1785
24949SOL    HW178378   3.383   5.787   5.377 -0.2559  2.1807  2.9987
24949SOL    HW278379   3.335   5.927   5.345  2.4595  2.4518 -0.3718
24950SOL     OW78380  10.002   8.510   3.099  0.9643 -0.5552 -0.6043
24950SOL    HW178381  10.042   8.590   3.133  0.9546 -1.6303  2.1419
24950SOL    HW278382  10.076   8.454   3.077  0.9645  0.0195 -2.2079
24951SOL     OW78383   8.161   8.116   3.847  0.2273 -0.0284 -0.0336
24951SOL    HW178384   8.119   8.154   3.925  0.7051  1.6319 -0.5570
24951SOL    HW278385   8.132   8.171   3.775  0.9086 -0.7124 -0.8471
24952SOL     OW78386   9.448   6.711   3.704 -0.4269 -0.4918  0.1632
24952SOL    HW178387   9.531   6.740   3.667 -0.7821 -0.5250 -0.6718
24952SOL    HW278388   9.473   6.647   3.771  0.2356 -0.2003  0.1981
24953SOL     OW78389   2.958   2.996   6.719 -0.0080  0.3151  0.2714
24953SOL    HW178390   3.011   3.046   6.657 -2.2478 -0.0035 -2.0491
24953SOL    HW278391   2.871   3.036   6.713 -0.9505 -1.4985  1.1543
24954SOL     OW78392  10.961   0.006   0.731  0.1095 -0.2407 -0.0461
24954SOL    HW178393  11.057   0.011   0.735  0.1593 -1.1069  0.0075
24954SOL    HW278394  10.937  -0.049   0.805 -0.3119 -1.3195 -0.9735
24955SOL     OW78395   1.678   3.491   6.765 -0.4246 -0.5753 -0.2261
24955SOL    HW178396   1.591   3.496   6.802 -0.0175  0.2319  0.6752
24955SOL    HW278397   1.672   3.543   6.684 -1.1417 -1.7752 -0.9621
24956SOL     OW78398   1.528   9.350  10.333 -0.1888 -0.0583  0.1283
24956SOL    HW178399   1.604   9.403  10.358 -0.8515  0.3362  1.4243
24956SOL    HW278400   1.481   9.336  10.415 -0.6765 -1.6581 -0.3920
24957SOL     OW78401   0.231   3.623   3.180 -0.5228 -0.4817 -0.2052
24957SOL    HW178402   0.223   3.621   3.085 -0.7410  1.5047 -0.2675
24957SOL    HW278403   0.175   3.552   3.211 -1.7978 -0.0709 -1.4913
24958SOL     OW78404   0.923   9.643   5.342  0.1403 -0.4257  0.2999
24958SOL    HW178405   0.897   9.599   5.261  0.3897  1.7249 -1.0086
24958SOL    HW278406   0.861   9.612   5.408 -2.1565  0.2516 -1.4563
24959SOL     OW78407   4.742   0.503   8.359 -0.7826 -0.1622 -0.2944
24959SOL    HW178408   4.674   0.435   8.362  1.7429 -2.8807  1.9586
24959SOL    HW278409   4.716   0.567   8.424 -1.7311 -0.5771 -0.2535
24960SOL     OW78410   9.829   5.997   0.403 -0.6317  0.2984  0.1841
24960SOL    HW178411   9.842   6.074   0.347 -2.0556  0.1024 -0.4475
24960SOL    HW278412   9.912   5.989   0.450 -0.2012  1.8087 -0.2331
24961SOL     OW78413   8.328   7.603   1.320  0.0576 -0.5669 -0.2854
24961SOL    HW178414   8.373   7.553   1.251  3.2711  3.5664 -1.5759
24961SOL    HW278415   8.391   7.605   1.392 -0.2127  1.1038 -0.0773
24962SOL     OW78416   8.862   1.470  10.244 -0.2804  0.5495 -0.4015
24962SOL    HW178417   8.792   1.497  10.184 -0.3032  0.6846 -0.3157
24962SOL    HW278418   8.819   1.409  10.304  0.2815 -1.5043 -1.9821
24963SOL     OW78419   4.326   7.788   3.308 -0.3006 -0.3219 -0.8818
24963SOL    HW178420   4.244   7.743   3.327 -0.5694  0.2200 -0.7663
24963SOL    HW278421   4.313   7.827   3.221 -0.8242  1.2603 -0.1255
24964SOL     OW78422   7.245  10.666   4.287  0.3519  0.0595  0.0640
24964SOL    HW178423   7.150  10.653   4.297 -0.0919  2.3583 -0.4237
24964SOL    HW278424   7.276  10.684   4.376  0.2339 -0.2042  0.1595
24965SOL     OW78425   6.830   0.700   6.448 -0.2192 -0.4686 -0.4867
24965SOL    HW178426   6.790   0.779   6.483 -2.0243 -1.9531  1.0201
24965SOL    HW278427   6.811   0.703   6.355 -1.4802  0.2078 -0.2284
24966SOL     OW78428   8.039   5.437   8.855  0.3708 -0.4684 -0.0276
24966SOL    HW178429   7.943   5.445   8.855  0.4243  0.4189 -0.7162
24966SOL    HW278430   8.057   5.368   8.791  0.2200 -0.0423 -0.5361
24967SOL     OW78431   1.043   4.041   6.493  0.0737  0.4969 -0.7839
24967SOL    HW178432   0.964   3.997   6.461  0.1766  0.2876 -0.7513
24967SOL    HW278433   1.013   4.098   6.563  0.0383 -0.0318 -0.3655
24968SOL     OW78434   6.636  10.025   3.791 -0.1665 -0.1187  0.6083
24968SOL    HW178435   6.653  10.114   3.819  2.5040 -0.8738  1.6005
24968SOL    HW278436   6.625  10.031   3.696 -0.1019  1.2554  0.6803
24969SOL     OW78437   1.207   4.762   7.347  0.0789 -0.7108 -0.0943
24969SOL    HW178438   1.173   4.713   7.423  0.9901 -0.7294  0.3195
24969SOL    HW278439   1.269   4.702   7.307 -0.3826 -0.6860 -0.8550
24970SOL     OW78440  11.051   8.001   5.393 -0.4083  0.4642 -0.2058
24970SOL    HW178441  11.087   7.959   5.314  0.9145  2.0082 -0.4860
24970SOL    HW278442  11.122   7.994   5.457 -1.1250  0.0699  0.5516
24971SOL     OW78443   7.572   1.720   1.454  0.3416  0.2381  0.0214
24971SOL    HW178444   7.547   1.682   1.370  0.0481 -0.3753  0.3840
24971SOL    HW278445   7.610   1.648   1.503 -0.2303  0.4054  0.7218
24972SOL     OW78446  11.019   6.820   4.441  0.2732 -0.7520 -0.1521
24972SOL    HW178447  11.090   6.774   4.486  0.1879 -0.7022  0.0348
24972SOL    HW278448  11.003   6.768   4.362  0.3991 -0.8605 -0.1067
24973SOL     OW78449   0.779   3.615   2.666 -0.1035  0.1736 -1.0314
24973SOL    HW178450   0.861   3.627   2.619  0.0506  1.4054 -0.4702
24973SOL    HW278451   0.765   3.520   2.666  1.5299 -0.0926 -0.7580
24974SOL     OW78452   8.286   4.102  10.186 -0.8612  0.4311  0.1523
24974SOL    HW178453   8.296   4.018  10.232  1.5890  0.3053 -0.4490
24974SOL    HW278454   8.236   4.157  10.246 -2.6030 -1.4540  0.5303
24975SOL     OW78455   2.684   8.784  10.640  0.1624 -0.0246 -0.0768
24975SOL    HW178456   2.725   8.810  10.558 -0.6924 -0.0974 -0.5428
24975SOL    HW278457   2.744   8.813  10.708  2.1516 -2.2103 -0.7838
24976SOL     OW78458   5.365   3.908  11.016 -0.9818 -0.2270  0.2152
24976SOL    HW178459   5.348   3.988  11.065 -2.2356  0.3447 -1.0809
24976SOL    HW278460   5.281   3.887  10.973 -0.3733 -1.5847 -0.3886
24977SOL     OW78461   3.648   6.376   2.269  0.0800 -0.0240 -0.2574
24977SOL    HW178462   3.569   6.359   2.320 -0.6101  1.2934 -0.8467
24977SOL    HW278463   3.641   6.318   2.194  0.3819 -0.9114  0.3764
24978SOL     OW78464   5.430   5.173   3.579 -0.0956 -0.2108  0.8949
24978SOL    HW178465   5.446   5.089   3.536 -0.4590 -0.2757  0.8813
24978SOL    HW278466   5.515   5.218   3.578 -0.2876  0.1611 -0.6881
24979SOL     OW78467   9.816   5.986  10.312 -0.0946 -0.5487  0.1579
24979SOL    HW178468   9.834   5.893  10.328  1.3295 -0.1621  0.8940
24979SOL    HW278469   9.893   6.032  10.345 -0.3685  0.8480 -1.0467
24980SOL     OW78470   1.216   4.591   6.529  0.1082 -0.3724 -0.1568
24980SOL    HW178471   1.256   4.660   6.582  0.0186  1.5909 -2.4657
24980SOL    HW278472   1.282   4.522   6.525  1.5066  0.9121 -0.2413
24981SOL     OW78473   7.623  10.310   9.851 -0.0549 -0.0233 -0.2396
24981SOL    HW178474   7.714  10.292   9.873  0.2535 -0.1694 -1.5614
24981SOL    HW278475   7.619  10.405   9.839 -0.0217 -0.0453 -0.4208
24982SOL     OW78476   2.721   4.867   2.411 -0.0500  0.1642  0.4194
24982SOL    HW178477   2.817   4.864   2.403  0.0041 -2.2896  1.1997
24982SOL    HW278478   2.689   4.824   2.331 -0.4249 -0.4201  0.8760
24983SOL     OW78479   2.242   2.123   1.283 -0.7492 -0.3601 -0.1961
24983SOL    HW178480   2.211   2.082   1.363 -1.3040 -0.8363 -0.6381
24983SOL    HW278481   2.185   2.088   1.215 -1.1060  0.9833 -0.6296
24984SOL     OW78482   7.242   2.815   4.532 -0.3031 -0.3757 -0.2274
24984SOL    HW178483   7.276   2.841   4.446 -0.9413 -0.8894 -0.6414
24984SOL    HW278484   7.172   2.877   4.551 -2.0496 -1.8981 -1.3648
24985SOL     OW78485   7.559   9.367   4.342  0.7057  0.0468  0.4387
24985SOL    HW178486   7.588   9.283   4.307 -0.6809 -0.3062  0.0574
24985SOL    HW278487   7.553   9.425   4.266  0.2178  0.0427  0.4671
24986SOL     OW78488   1.506   0.814  10.630  0.1692  0.3598  0.1547
24986SOL    HW178489   1.474   0.750  10.566  0.5720  1.8689 -1.6494
24986SOL    HW278490   1.509   0.766  10.713 -1.7047 -1.3073 -0.6494
24987SOL     OW78491   0.084   4.650   4.403  0.3716 -0.1578 -0.5703
24987SOL    HW178492   0.062   4.565   4.366  0.6577  0.6395 -2.6826
24987SOL    HW278493   0.008   4.705   4.385  0.1036  0.0346  0.9580
24988SOL     OW78494   1.379   9.109   1.762 -0.1079  0.0847 -0.0674
24988SOL    HW178495   1.285   9.108   1.779 -0.0953 -0.9197  0.0245
24988SOL    HW278496   1.388   9.067   1.676  0.2666 -0.0162  0.0201
24989SOL     OW78497  10.324   7.662   4.435  0.0036 -0.6432  0.3129
24989SOL    HW178498  10.251   7.720   4.412 -0.0867 -1.1714 -0.7834
24989SOL    HW278499  10.328   7.665   4.531  0.4842  1.7684  0.2887
24990SOL     OW78500   1.447   7.362  10.723  0.4128  0.6211  0.3333
24990SOL    HW178501   1.501   7.303  10.671  0.0510  0.2321  0.3943
24990SOL    HW278502   1.496   7.444  10.725  1.0038  0.2719  0.3924
24991SOL     OW78503   4.805  10.246   5.003  0.5886  0.3182 -0.0844
24991SOL    HW178504   4.817  10.243   4.908 -0.6254  2.2424 -0.3453
24991SOL    HW278505   4.879  10.300   5.035  1.5554 -1.1289  0.2195
24992SOL     OW78506   7.772   8.684   5.777  0.0013  0.5378 -0.6130
24992SOL    HW178507   7.853   8.687   5.728 -0.4155  0.4356 -1.3200
24992SOL    HW278508   7.720   8.757   5.743 -0.8460 -0.3729 -1.3347
24993SOL     OW78509   3.359   2.460   3.728 -0.0651 -0.1447 -0.4444
24993SOL    HW178510   3.410   2.389   3.689  0.5548 -0.1865  0.4125
24993SOL    HW278511   3.384   2.459   3.820 -1.0634  0.3244 -0.1630
24994SOL     OW78512   7.815   3.511   7.473 -0.2728 -0.0599 -0.2380
24994SOL    HW178513   7.867   3.567   7.416  0.7538 -0.2230  0.5088
24994SOL    HW278514   7.867   3.502   7.553 -1.7083  0.2475  0.7874
24995SOL     OW78515   0.658   8.697   5.463  0.0013 -0.3625 -0.5341
24995SOL    HW178516   0.649   8.653   5.547  0.3105 -0.7833 -0.7204
24995SOL    HW278517   0.746   8.675   5.433  0.3366  0.7493 -0.4193
24996SOL     OW78518   8.939   9.849   8.280  0.2221 -0.4153 -0.4999
24996SOL    HW178519   9.027   9.874   8.306 -0.2210 -0.2501  0.9429
24996SOL    HW278520   8.925   9.763   8.321 -0.6560  0.0469  0.2154
24997SOL     OW78521   7.341   9.962   4.426  0.7203 -0.1270  0.2949
24997SOL    HW178522   7.359   9.905   4.500  1.2970 -0.3059  0.0274
24997SOL    HW278523   7.249   9.985   4.434  0.7988 -0.0764  1.1145
24998SOL     OW78524   5.666   3.086   7.654 -0.2199 -0.3014 -0.3157
24998SOL    HW178525   5.744   3.069   7.603 -0.8034 -0.5212 -1.1552
24998SOL    HW278526   5.596   3.041   7.607 -0.8460 -0.1436  0.4380
24999SOL     OW78527   2.534   9.025   1.278  0.0152  0.1026 -0.2869
24999SOL    HW178528   2.491   8.958   1.226  2.5695 -1.6389 -0.3087
24999SOL    HW278529   2.486   9.106   1.257 -1.0536 -1.0939 -2.8281
25000SOL     OW78530   8.524   1.436   8.995 -0.2989 -0.3267 -0.1208
25000SOL    HW178531   8.489   1.348   9.004 -1.0079 -0.0564 -0.1408
25000SOL    HW278532   8.516   1.455   8.901 -0.5948 -0.0729 -0.0480
25001SOL     OW78533   4.527   2.908   4.075  0.5411  0.2238  0.1425
25001SOL    HW178534   4.588   2.913   4.149  1.3450  0.1029 -0.5028
25001SOL    HW278535   4.530   2.817   4.048  1.0047  0.4674 -0.6529
25002SOL     OW78536  10.679   1.161   2.715  0.2864  0.2478 -0.2413
25002SOL    HW178537  10.680   1.146   2.621  1.2757 -1.3696 -0.0117
25002SOL    HW278538  10.718   1.082   2.753  0.0054  0.8979  1.5225
25003SOL     OW78539   5.510   3.177   7.935 -0.2910  0.2593  0.1015
25003SOL    HW178540   5.470   3.263   7.941 -0.5098  0.3213 -1.7164
25003SOL    HW278541   5.552   3.175   7.849  0.2590 -1.2211  0.3604
25004SOL     OW78542   8.187   7.658   6.435  0.1200 -0.1132 -0.5066
25004SOL    HW178543   8.198   7.624   6.347  0.9749 -1.2380 -0.0000
25004SOL    HW278544   8.225   7.745   6.433  1.6785 -0.7682 -0.8636
25005SOL     OW78545   4.057   8.590   0.684  0.1826  0.3682  0.3108
25005SOL    HW178546   4.121   8.659   0.702  0.3774  0.1976  0.2791
25005SOL    HW278547   3.984   8.635   0.642  0.5113  0.4845 -0.1455
25006SOL     OW78548   5.643   4.469   9.259 -0.3809  0.0065 -0.0059
25006SOL    HW178549   5.675   4.427   9.340  1.3400  1.5747  0.2052
25006SOL    HW278550   5.702   4.435   9.191  0.2121  1.0519 -0.0376
25007SOL     OW78551   0.127   9.357   7.163  0.2712  0.0234  0.5439
25007SOL    HW178552   0.176   9.372   7.244 -1.5861  1.4981  1.4720
25007SOL    HW278553   0.068   9.284   7.184 -0.1348  0.3355  0.5173
25008SOL     OW78554   1.551   1.017  10.354 -0.5936 -0.1673 -0.2601
25008SOL    HW178555   1.513   1.096  10.315  0.5694  0.6632  0.2231
25008SOL    HW278556   1.536   1.027  10.448 -0.4645 -0.5370 -0.1988
25009SOL     OW78557   4.437   4.210   7.300  0.0683  0.0571  0.0658
25009SOL    HW178558   4.458   4.278   7.364 -1.2041  0.6653 -0.1287
25009SOL    HW278559   4.408   4.259   7.223  0.6185 -0.6873 -0.6346
25010SOL     OW78560  10.405   5.980   7.525  0.2201 -0.1901  0.5135
25010SOL    HW178561  10.389   5.896   7.482  1.4094 -0.4433  0.5258
25010SOL    HW278562  10.331   6.035   7.500  0.4329 -0.6033 -1.1440
25011SOL     OW78563   1.685   6.130  10.457  0.2817  0.2742 -0.3295
25011SOL    HW178564   1.753   6.156  10.394  0.0949  0.5125 -0.4349
25011SOL    HW278565   1.603   6.157  10.416  0.0541 -0.7758 -0.5715
25012SOL     OW78566   6.357   4.984   0.396 -0.0249  0.6731  0.7652
25012SOL    HW178567   6.399   5.047   0.338 -0.6841 -0.8717 -1.5123
25012SOL    HW278568   6.428   4.926   0.425 -0.0528 -0.0144 -0.4992
25013SOL     OW78569   4.820   7.068   0.734  0.0751  0.3933  0.2263
25013SOL    HW178570   4.811   7.001   0.667 -0.7202  0.0749  0.6301
25013SOL    HW278571   4.810   7.021   0.817 -0.4785  0.9937  0.5193
25014SOL     OW78572   0.766   7.094  11.031  0.3662 -0.5913 -0.2054
25014SOL    HW178573   0.755   7.189  11.039  0.2031 -0.5515 -0.8395
25014SOL    HW278574   0.841   7.074  11.087  0.4333 -0.0846 -0.1056
25015SOL     OW78575   3.615   4.562   0.725  0.5108 -0.1173  0.0692
25015SOL    HW178576   3.568   4.537   0.646  1.5599  0.0765 -0.6253
25015SOL    HW278577   3.589   4.496   0.790  0.1678 -0.6708 -0.6199
25016SOL     OW78578   7.485   3.698   2.348 -0.1999 -0.3268 -0.1968
25016SOL    HW178579   7.471   3.793   2.349  0.8768 -0.1454  0.2721
25016SOL    HW278580   7.398   3.660   2.355 -1.0485  0.5321 -4.0839
25017SOL     OW78581   4.501   5.381   7.750 -0.3109  0.2808 -0.4440
25017SOL    HW178582   4.560   5.330   7.805 -1.6852 -0.3355  0.4968
25017SOL    HW278583   4.558   5.417   7.681  1.1916 -0.0612  0.5776
25018SOL     OW78584   8.853   3.324   6.681  0.2654  0.2515 -0.0893
25018SOL    HW178585   8.798   3.368   6.617  0.8673 -0.7827 -1.3557
25018SOL    HW278586   8.888   3.248   6.635 -0.2216 -1.2089  1.8252
25019SOL     OW78587   9.474   4.752   5.942 -0.4275  0.0355  0.0283
25019SOL    HW178588   9.419   4.784   6.013  1.2162  1.5552  0.6882
25019SOL    HW278589   9.559   4.735   5.983 -0.2387 -1.8653 -1.0280
25020SOL     OW78590   3.723   4.690  10.076  0.1213 -0.8287  0.1802
25020SOL    HW178591   3.720   4.777  10.035  3.0444 -0.5946  0.1992
25020SOL    HW278592   3.640   4.683  10.123 -1.1615  1.0029 -1.6311
25021SOL     OW78593   4.975   0.225   6.122 -0.6253 -0.1037 -0.2051
25021SOL    HW178594   4.999   0.222   6.030  1.1656 -0.3650  0.2353
25021SOL    HW278595   4.985   0.317   6.146 -0.0366 -0.2066 -0.0313
25022SOL     OW78596   1.009   7.093   7.544 -0.1615 -0.2816 -0.6032
25022SOL    HW178597   1.096   7.065   7.515 -0.1452  0.3731 -1.2134
25022SOL    HW278598   0.998   7.053   7.630  0.5870 -0.6853 -0.6920
25023SOL     OW78599   2.710   6.828   3.024  0.0291  0.1765 -0.2904
25023SOL    HW178600   2.738   6.867   2.942  1.6373 -0.9075 -0.2903
25023SOL    HW278601   2.776   6.854   3.087 -1.0716  0.8083  0.6557
25024SOL     OW78602   8.075   3.290   6.854  0.0808  0.7497 -0.2166
25024SOL    HW178603   7.992   3.287   6.805 -0.6979  1.7162  0.9844
25024SOL    HW278604   8.080   3.206   6.899 -0.1999  0.6474 -0.3732
25025SOL     OW78605   7.837  10.271   0.472 -0.6431  0.3036 -0.0104
25025SOL    HW178606   7.854  10.334   0.402  1.9067  0.7825  0.9232
25025SOL    HW278607   7.881  10.191   0.444 -1.3915 -0.1699  0.1290
25026SOL     OW78608   8.727   0.725   3.707  0.7872  0.7741  0.2212
25026SOL    HW178609   8.660   0.679   3.656  0.0694  2.3468 -0.3228
25026SOL    HW278610   8.807   0.714   3.656  1.5570 -2.8943  1.8872
25027SOL     OW78611   8.048   2.032  10.856 -0.0855  0.1651  0.3796
25027SOL    HW178612   8.101   2.111  10.863  0.4770 -0.0137 -1.3806
25027SOL    HW278613   7.967   2.053  10.902 -0.3314  2.1247 -0.8172
25028SOL     OW78614   8.554   6.202   8.275  0.1984  0.1877 -0.0625
25028SOL    HW178615   8.577   6.279   8.327  1.4791  0.2182 -0.6570
25028SOL    HW278616   8.613   6.204   8.200 -2.3594  0.8129 -2.2324
25029SOL     OW78617   2.616   3.717   1.606  0.4792 -0.2750  0.4385
25029SOL    HW178618   2.571   3.634   1.622  1.8161 -1.2489 -0.5949
25029SOL    HW278619   2.592   3.740   1.516 -0.1520  0.6449  0.8350
25030SOL     OW78620   5.776   9.536   8.225 -0.0274  0.2445  0.7341
25030SOL    HW178621   5.697   9.489   8.199 -0.3007 -0.2589  2.3792
25030SOL    HW278622   5.847   9.475   8.207 -0.0546  0.4581 -0.1515
25031SOL     OW78623   2.585   1.245  10.334 -0.1308  0.2378  0.0425
25031SOL    HW178624   2.511   1.231  10.393  0.7708 -1.0392  0.9070
25031SOL    HW278625   2.545   1.247  10.247 -1.1641 -0.6399  0.4730
25032SOL     OW78626   5.088   6.857   9.474  0.4769  0.1054 -0.2909
25032SOL    HW178627   5.040   6.928   9.516 -0.7556 -0.3220 -0.9413
25032SOL    HW278628   5.161   6.838   9.534 -0.2179  0.6914  0.7615
25033SOL     OW78629   5.760   7.063   0.455 -0.3346  0.1846  0.8817
25033SOL    HW178630   5.784   7.038   0.544 -1.5582 -0.3393  1.0888
25033SOL    HW278631   5.721   7.150   0.464 -0.7995 -0.0228  0.9268
25034SOL     OW78632   6.229   6.742   8.955  0.3244  0.2050 -0.4242
25034SOL    HW178633   6.251   6.649   8.943  0.3640  0.0340  0.9182
25034SOL    HW278634   6.179   6.764   8.876  2.8400 -0.1331 -2.2634
25035SOL     OW78635   1.396  10.715   6.248  0.0962  0.1305 -0.5219
25035SOL    HW178636   1.308  10.732   6.216 -0.2828  1.9464  1.3151
25035SOL    HW278637   1.428  10.800   6.277  1.6211 -0.8544  0.8547
25036SOL     OW78638   0.600   2.654   6.729 -0.7222  0.0831 -0.0731
25036SOL    HW178639   0.546   2.732   6.716 -1.0032 -0.1153 -0.1055
25036SOL    HW278640   0.606   2.614   6.642 -0.0500  0.4076 -0.1858
25037SOL     OW78641   6.110   7.415   7.299  0.1131 -0.3945 -1.1484
25037SOL    HW178642   6.178   7.481   7.285  0.4024 -0.4403 -0.0705
25037SOL    HW278643   6.118   7.393   7.392 -2.7456  1.1408 -0.4297
25038SOL     OW78644   9.543   3.323   6.857  0.0354 -0.8271  0.0961
25038SOL    HW178645   9.500   3.275   6.928 -0.2551 -2.7543 -1.3247
25038SOL    HW278646   9.574   3.256   6.797  0.5801  0.7403 -1.4644
25039SOL     OW78647   9.651   0.100   7.368  0.0353  0.1595 -0.1759
25039SOL    HW178648   9.640   0.019   7.318 -0.2004 -0.1109  0.3059
25039SOL    HW278649   9.744   0.121   7.358  0.0534 -0.0508 -0.4803
25040SOL     OW78650   9.241   4.317   9.880 -0.1977  0.4037  0.4608
25040SOL    HW178651   9.165   4.273   9.918 -0.3947  0.8452  0.5806
25040SOL    HW278652   9.206   4.399   9.844  0.4783  1.3646  1.9110
25041SOL     OW78653   7.164   3.239   7.909 -0.2797 -0.3643  0.3641
25041SOL    HW178654   7.181   3.327   7.943 -1.4786 -0.8205  2.2835
25041SOL    HW278655   7.120   3.254   7.825 -0.2301  0.8600  0.5309
25042SOL     OW78656   7.543   2.573   9.510 -0.0685 -0.4420  0.1155
25042SOL    HW178657   7.505   2.504   9.456  0.0565  0.3429 -0.9889
25042SOL    HW278658   7.526   2.654   9.463  0.6097  0.2046  0.9368
25043SOL     OW78659   2.062  10.660   8.329 -0.1865  0.1755 -0.4412
25043SOL    HW178660   2.042  10.608   8.251 -1.0300  1.0259 -0.8148
25043SOL    HW278661   2.157  10.672   8.325 -0.1330 -0.3477 -0.9758
25044SOL     OW78662   1.001   1.366   3.104 -0.5001  0.4169 -0.1433
25044SOL    HW178663   1.028   1.405   3.187 -0.9233  0.4883 -0.0376
25044SOL    HW278664   1.083   1.337   3.063 -0.2609  0.6891  0.1422
25045SOL     OW78665   1.511   7.276   6.958 -0.4492 -0.2660  0.3228
25045SOL    HW178666   1.418   7.297   6.954 -0.3115  0.2241 -2.8371
25045SOL    HW278667   1.545   7.332   7.028 -2.1639  1.1635  0.1005
25046SOL     OW78668   4.537   7.231  10.180 -0.0991 -0.6929  0.0811
25046SOL    HW178669   4.469   7.165  10.196 -0.4418  0.1106  2.2950
25046SOL    HW278670   4.613   7.181  10.151 -0.1552 -2.1957  2.3022
25047SOL     OW78671   6.880   7.820   8.981  0.2341  0.4376  0.9463
25047SOL    HW178672   6.948   7.868   9.029  3.2718 -3.0325  0.5225
25047SOL    HW278673   6.883   7.857   8.892 -1.3309  2.9131  1.8095
25048SOL     OW78674   5.722   2.362   1.867  0.0920 -0.7517  0.3434
25048SOL    HW178675   5.816   2.369   1.852 -0.0388  0.6404  0.0420
25048SOL    HW278676   5.714   2.306   1.945  1.2627  0.6864  1.5521
25049SOL     OW78677   7.454   7.603  10.633  0.1811 -0.0911  0.0875
25049SOL    HW178678   7.385   7.624  10.697  1.1675 -0.6853  1.3682
25049SOL    HW278679   7.407   7.560  10.561 -0.7643 -0.7274  1.0547
25050SOL     OW78680   4.438   8.903   3.862 -0.9391  0.7552  0.1224
25050SOL    HW178681   4.487   8.823   3.846 -1.0436  0.7742 -0.3081
25050SOL    HW278682   4.450   8.955   3.782 -0.7551  1.2271  0.4532
25051SOL     OW78683   2.295   6.771   7.355  0.3781  0.1286  0.8255
25051SOL    HW178684   2.219   6.733   7.398 -0.1789  0.1459 -0.1176
25051SOL    HW278685   2.277   6.865   7.353 -0.0797  0.0309 -0.3274
25052SOL     OW78686   4.558   3.572   0.091 -0.0422 -0.7499  0.0189
25052SOL    HW178687   4.634   3.534   0.047  0.1367 -1.6671  1.0832
25052SOL    HW278688   4.498   3.595   0.019  1.3422  0.2927 -0.8605
25053SOL     OW78689   1.239   6.056   3.467 -0.3816  0.0727 -0.4437
25053SOL    HW178690   1.159   6.039   3.418 -0.2402  0.0299 -0.6594
25053SOL    HW278691   1.252   6.151   3.460  0.1161 -0.0479 -1.2308
25054SOL     OW78692   7.315   6.611   3.385 -0.3000  0.4198  0.1519
25054SOL    HW178693   7.348   6.701   3.386  0.0169  0.3126 -0.2744
25054SOL    HW278694   7.291   6.594   3.476  2.0586  0.0781  0.7877
25055SOL     OW78695   9.123   4.577   3.151  0.4507  0.9680 -0.2717
25055SOL    HW178696   9.035   4.614   3.143  0.4547  1.0418  0.0011
25055SOL    HW278697   9.118   4.495   3.102  0.3000  1.0890 -0.4629
25056SOL     OW78698   9.884   3.259   4.338 -0.3427  0.0765 -0.8392
25056SOL    HW178699   9.838   3.307   4.408 -1.7727 -1.4420 -0.6592
25056SOL    HW278700   9.848   3.294   4.257 -0.2421  0.3814 -0.7525
25057SOL     OW78701   4.700  10.769  10.856 -0.4078 -0.1229 -0.2218
25057SOL    HW178702   4.719  10.691  10.804 -0.4190 -1.3410  1.5126
25057SOL    HW278703   4.615  10.751  10.896  0.3296  0.0205  1.4882
25058SOL     OW78704   9.293   8.041   7.748  0.1937 -0.0437  0.2202
25058SOL    HW178705   9.252   7.977   7.807  1.8197 -1.9834 -0.6382
25058SOL    HW278706   9.386   8.020   7.751  0.7530  2.0935 -0.4064
25059SOL     OW78707   5.151   0.395   1.707 -0.6756 -0.1192  0.2146
25059SOL    HW178708   5.195   0.339   1.770 -0.3239 -0.8477 -0.6552
25059SOL    HW278709   5.060   0.399   1.738 -0.8065 -1.5140  0.0885
25060SOL     OW78710   9.487   6.986   0.528 -0.1905 -0.0347 -0.0487
25060SOL    HW178711   9.440   7.063   0.560  0.6042 -0.1666  1.5136
25060SOL    HW278712   9.427   6.913   0.544 -0.3385  0.0630 -0.1484
25061SOL     OW78713   7.009   2.350   3.655  0.2395  0.1796  0.6698
25061SOL    HW178714   6.958   2.422   3.617  0.6212  0.9988  1.6576
25061SOL    HW278715   7.008   2.281   3.588  0.1237  1.2221 -0.4335
25062SOL     OW78716   9.994   2.713   9.911 -0.0739  0.4237 -0.4114
25062SOL    HW178717   9.972   2.694   9.820  0.3140  0.5038 -0.5193
25062SOL    HW278718   9.924   2.772   9.941  0.3803  1.2387 -0.9627
25063SOL     OW78719   1.736  10.730   9.373 -0.0039  0.3327 -0.2532
25063SOL    HW178720   1.681  10.721   9.296  0.4562  2.1621 -0.8608
25063SOL    HW278721   1.738  10.825   9.390  1.8472  0.2033  0.5310
25064SOL     OW78722   5.967   4.320   4.622 -0.1850 -0.5986 -0.4619
25064SOL    HW178723   5.984   4.391   4.561 -2.5284  1.0030  0.5863
25064SOL    HW278724   5.887   4.278   4.589 -0.9112 -0.3483  0.8705
25065SOL     OW78725   9.980   7.781   5.476 -0.2864 -0.1787 -0.3999
25065SOL    HW178726   9.901   7.753   5.521 -0.3437 -0.6973 -0.8135
25065SOL    HW278727  10.015   7.852   5.530  0.2385 -1.4903  1.0645
25066SOL     OW78728   1.860   8.666   5.019 -0.2639 -0.5339 -0.4400
25066SOL    HW178729   1.866   8.741   5.078  0.3732 -0.9093 -0.0159
25066SOL    HW278730   1.824   8.596   5.074 -0.4212 -0.6704 -0.7143
25067SOL     OW78731   3.859   6.871   7.007 -0.3700 -0.2900  0.0433
25067SOL    HW178732   3.913   6.826   7.073 -0.7922  0.5082  0.9580
25067SOL    HW278733   3.922   6.898   6.940  0.6998  1.8743  1.7636
25068SOL     OW78734   9.808  10.580   9.349  0.3043  0.1150  0.1710
25068SOL    HW178735   9.776  10.654   9.296 -0.4803  1.4266  2.3135
25068SOL    HW278736   9.817  10.617   9.437 -0.2229 -2.3901  1.3514
25069SOL     OW78737   7.518   3.071   7.464 -0.2215  0.1454 -0.4770
25069SOL    HW178738   7.519   3.153   7.414  1.8372  0.2933 -0.3085
25069SOL    HW278739   7.458   3.088   7.536 -1.4675  0.7344 -1.6089
25070SOL     OW78740   6.053   4.462   4.182  0.6414  0.6104 -0.1518
25070SOL    HW178741   6.012   4.406   4.116  1.5395  0.1164 -0.3076
25070SOL    HW278742   6.009   4.546   4.173 -1.4417 -0.3107  0.7597
25071SOL     OW78743   3.282   9.626   6.772  0.0791  0.2603 -0.2283
25071SOL    HW178744   3.327   9.707   6.747 -0.9064  1.5930  1.9920
25071SOL    HW278745   3.339   9.586   6.838 -0.3369  0.1714  0.0834
25072SOL     OW78746   4.493   6.782   3.544 -0.0067  0.6865 -0.1496
25072SOL    HW178747   4.486   6.868   3.585  0.7327 -0.4879  2.6708
25072SOL    HW278748   4.582   6.754   3.563 -0.5065 -1.0547 -0.2461
25073SOL     OW78749   7.902   6.233   4.023  0.0565  0.2373 -0.1919
25073SOL    HW178750   7.833   6.168   4.040  1.8521 -1.1592  2.4934
25073SOL    HW278751   7.962   6.189   3.962 -0.5901  0.8557 -1.3014
25074SOL     OW78752  10.602   9.652   3.603  0.4592 -0.5945 -0.2436
25074SOL    HW178753  10.619   9.646   3.509 -1.8300 -1.0950 -0.6828
25074SOL    HW278754  10.665   9.717   3.634  1.5307 -0.6908 -2.0313
25075SOL     OW78755   2.284   7.134   5.385  0.8529 -0.0296 -0.4212
25075SOL    HW178756   2.318   7.198   5.447  0.9589 -0.8108  0.3494
25075SOL    HW278757   2.292   7.050   5.430 -0.7908 -0.4140 -0.7758
25076SOL     OW78758   1.946  11.088   1.444 -0.2777  0.3575  0.3505
25076SOL    HW178759   1.894  11.125   1.372  1.0021 -0.4419 -1.0697
25076SOL    HW278760   1.927  11.143   1.519 -2.6914  0.4513 -0.2409
25077SOL     OW78761   1.791   4.843  10.965 -0.4354  0.2605 -0.1861
25077SOL    HW178762   1.824   4.903  10.898  0.3478  0.6573  0.5490
25077SOL    HW278763   1.807   4.756  10.928 -3.4011  0.4000 -2.1755
25078SOL     OW78764   5.199   9.178   6.296 -0.2289  0.0182 -0.0222
25078SOL    HW178765   5.141   9.150   6.226 -1.3237  1.8263  0.0866
25078SOL    HW278766   5.145   9.178   6.375  0.4961 -0.2677  0.4879
25079SOL     OW78767   5.265   8.660   8.322  0.0785 -0.1550 -0.4388
25079SOL    HW178768   5.316   8.726   8.370  0.4182 -0.8412  0.1536
25079SOL    HW278769   5.247   8.592   8.386 -0.9979 -0.2522 -0.8338
25080SOL     OW78770   1.599   6.117   5.980 -0.1408 -0.1126 -0.4400
25080SOL    HW178771   1.539   6.181   6.018 -2.4235 -2.0798 -0.4287
25080SOL    HW278772   1.683   6.162   5.973 -1.3270  2.4304  0.6595
25081SOL     OW78773   6.727   7.811   8.047 -0.3491  0.4767 -0.0563
25081SOL    HW178774   6.793   7.881   8.049 -0.8251  0.9223  0.1919
25081SOL    HW278775   6.738   7.765   8.130 -0.3542  0.5555 -0.0123
25082SOL     OW78776   1.187   4.062   1.917 -0.1334  0.3068  0.5116
25082SOL    HW178777   1.276   4.037   1.891 -1.4029 -1.3261 -2.8770
25082SOL    HW278778   1.198   4.144   1.965  3.2622 -0.5049  1.3849
25083SOL     OW78779   8.966   3.845   8.949 -0.1454  0.1337  0.1241
25083SOL    HW178780   8.962   3.766   9.003  1.4951  0.8317  1.3451
25083SOL    HW278781   8.921   3.820   8.868  2.5078 -2.9462 -0.6320
25084SOL     OW78782   5.930   0.108   5.083  0.4721 -0.3327  0.6174
25084SOL    HW178783   5.911   0.044   5.152 -3.8054  0.0622  0.0662
25084SOL    HW278784   5.898   0.067   5.003  1.6454  0.8390 -0.5018
25085SOL     OW78785  10.975   1.972   5.282  0.1677  0.8486  0.2384
25085SOL    HW178786  11.048   1.986   5.222 -1.1208  0.9100 -1.3966
25085SOL    HW278787  11.013   1.983   5.369  1.9358  1.5816 -0.5717
25086SOL     OW78788   9.350   6.398   1.184  0.1289  0.0234  0.5356
25086SOL    HW178789   9.342   6.394   1.088 -1.4959 -1.6522  0.6822
25086SOL    HW278790   9.264   6.430   1.213  0.0835 -0.9505  1.4952
25087SOL     OW78791   8.181   8.462   2.169 -0.3914 -0.4493 -0.2283
25087SOL    HW178792   8.197   8.406   2.093 -1.4763 -1.0070 -0.0600
25087SOL    HW278793   8.214   8.411   2.243 -0.4474 -0.4282 -0.1887
25088SOL     OW78794   2.680   9.677   3.336 -0.0986 -0.3775  0.4881
25088SOL    HW178795   2.697   9.692   3.243  0.6083 -1.1464  0.4846
25088SOL    HW278796   2.624   9.750   3.362 -0.9101 -0.5437 -0.7095
25089SOL     OW78797   5.771   6.797   5.259  0.1932 -0.4543 -0.1715
25089SOL    HW178798   5.785   6.884   5.296  0.7775  0.3723 -2.2160
25089SOL    HW278799   5.841   6.787   5.194  0.5258 -2.7241  0.4459
25090SOL     OW78800   9.961   5.085  11.067 -0.6104  0.0356 -0.2419
25090SOL    HW178801  10.014   5.081  10.988 -0.6783  0.2453 -0.2980
25090SOL    HW278802   9.901   5.158  11.052 -0.0144  0.6609  0.3843
25091SOL     OW78803  11.051   6.807   0.810 -0.0680 -0.0234 -0.5392
25091SOL    HW178804  11.124   6.823   0.749  0.6109  1.6213  0.6331
25091SOL    HW278805  11.090   6.817   0.897 -1.5296  0.0544  0.1278
25092SOL     OW78806  10.847   3.148   9.640 -0.0784  0.0350 -0.0328
25092SOL    HW178807  10.797   3.145   9.558  3.7802  2.7019 -2.8833
25092SOL    HW278808  10.926   3.096   9.622  1.9085  2.4762  0.9705
25093SOL     OW78809   7.589   0.559   3.937 -0.3213  0.5135  0.0847
25093SOL    HW178810   7.530   0.552   4.012  1.0950 -0.2207  1.1776
25093SOL    HW278811   7.675   0.572   3.975  0.2489  1.5513 -1.4768
25094SOL     OW78812   2.726  11.030   1.981  0.3622  0.0926 -0.1158
25094SOL    HW178813   2.740  11.094   1.911  2.0556 -0.1092  0.0164
25094SOL    HW278814   2.661  10.969   1.944 -0.7932  1.4815 -0.4832
25095SOL     OW78815   5.053   7.903   3.459  0.1429 -0.5155 -0.7401
25095SOL    HW178816   5.131   7.946   3.423 -0.5244  0.6355 -0.8657
25095SOL    HW278817   5.031   7.836   3.394 -0.2548  0.6363 -1.8329
25096SOL     OW78818   1.983   9.068   8.362 -0.0016 -0.1405 -0.0212
25096SOL    HW178819   2.019   9.052   8.449 -0.6816 -0.3293  0.2309
25096SOL    HW278820   2.039   9.136   8.325  0.8938 -0.7647  0.1764
25097SOL     OW78821   3.031   1.894   3.054 -0.0496  0.0912 -0.2083
25097SOL    HW178822   3.088   1.894   2.977  0.3890 -0.4027  0.1099
25097SOL    HW278823   3.048   1.978   3.097 -0.2823  0.3602 -0.6307
25098SOL     OW78824   2.458   2.195   6.479  0.1988  0.4483  0.0159
25098SOL    HW178825   2.529   2.222   6.421  0.2146  0.0267 -0.1620
25098SOL    HW278826   2.437   2.274   6.529 -0.3334  1.0502 -1.1002
25099SOL     OW78827   8.224   0.414  10.560 -0.6912  0.2454  1.0582
25099SOL    HW178828   8.200   0.498  10.600 -0.8452 -0.2975  2.1213
25099SOL    HW278829   8.141   0.379  10.528 -0.2934  1.7832 -2.0233
25100SOL     OW78830   4.380   5.528   6.431  0.4747  0.4707 -0.0894
25100SOL    HW178831   4.412   5.438   6.431  2.1774  1.0145  2.1697
25100SOL    HW278832   4.293   5.522   6.470 -0.0661 -0.3312 -1.3385
25101SOL     OW78833   0.835   7.845   3.751  0.1247 -0.6379  0.4820
25101SOL    HW178834   0.830   7.888   3.836 -1.3502  0.2816 -0.0346
25101SOL    HW278835   0.891   7.903   3.698 -1.0099  0.1401  0.0994
25102SOL     OW78836   7.003   1.312  10.705  0.0967 -0.4365 -0.2754
25102SOL    HW178837   7.076   1.369  10.726  0.1751 -0.9350  0.9281
25102SOL    HW278838   7.031   1.262  10.628 -0.0037  1.1570 -1.3830
25103SOL     OW78839   3.951   1.948   5.198 -0.2294  0.4907 -0.0720
25103SOL    HW178840   4.042   1.922   5.190 -0.1955  0.2271  0.9218
25103SOL    HW278841   3.923   1.970   5.110  0.2781 -1.1641 -0.6787
25104SOL     OW78842   0.562   0.281   9.492  0.5411 -0.2054  0.1849
25104SOL    HW178843   0.536   0.189   9.486 -2.6460  0.6559 -1.6516
25104SOL    HW278844   0.485   0.326   9.525  0.4303  2.2865 -2.9183
25105SOL     OW78845   8.935   1.816   8.097  0.1283  0.2139  0.6325
25105SOL    HW178846   8.976   1.881   8.154 -0.6166 -0.9170  2.5576
25105SOL    HW278847   8.946   1.851   8.008  1.0333  2.2183  1.4798
25106SOL     OW78848   5.074   5.109   2.125 -0.2937  0.4080  0.3122
25106SOL    HW178849   5.085   5.040   2.191 -0.5886 -0.0459 -0.1050
25106SOL    HW278850   5.160   5.119   2.086 -0.4622 -0.4137 -0.2903
25107SOL     OW78851   3.164   4.013   4.870  0.0802 -0.3277 -0.2289
25107SOL    HW178852   3.238   3.967   4.830  1.2093 -0.2789  1.6620
25107SOL    HW278853   3.181   4.106   4.852 -0.0100 -0.3723 -0.5537
25108SOL     OW78854   1.444   4.099   2.297  0.0272  0.0947  0.0153
25108SOL    HW178855   1.392   4.180   2.295 -0.3106 -0.1353 -0.7364
25108SOL    HW278856   1.484   4.099   2.384 -0.2199  0.9147  0.1385
25109SOL     OW78857  10.547   1.103   7.173  0.0145 -0.5283 -0.2243
25109SOL    HW178858  10.560   1.195   7.152  0.0203 -0.2948  0.7664
25109SOL    HW278859  10.623   1.079   7.226 -0.5817 -0.7786  0.5264
25110SOL     OW78860  10.631   9.261   8.549 -0.1125 -0.0520  0.1308
25110SOL    HW178861  10.695   9.196   8.521 -0.9354 -0.0350 -2.0708
25110SOL    HW278862  10.547   9.216   8.540 -0.5387  0.5170  1.1279
25111SOL     OW78863   6.507   6.737   6.226  0.6257 -0.0900  0.3590
25111SOL    HW178864   6.414   6.727   6.205  0.7375  0.3818 -0.3976
25111SOL    HW278865   6.510   6.743   6.322 -0.0245 -1.0270  0.4448
25112SOL     OW78866   2.687   0.433  10.899  0.3233 -0.3498 -0.7235
25112SOL    HW178867   2.766   0.453  10.950  1.1408  0.1522 -2.1260
25112SOL    HW278868   2.696   0.341  10.876 -0.2882 -0.7120  0.3956
25113SOL     OW78869  10.356   5.790   1.936 -0.2438 -0.5898  0.3142
25113SOL    HW178870  10.447   5.767   1.922  1.1491  3.9876  0.3200
25113SOL    HW278871  10.309   5.748   1.863  2.2216 -1.2086 -1.0257
25114SOL     OW78872   0.382   9.326  10.077  0.6395  0.2931  0.0083
25114SOL    HW178873   0.475   9.332  10.096  0.6408 -1.0368  0.5281
25114SOL    HW278874   0.345   9.282  10.154 -0.3292  0.3255 -0.4263
25115SOL     OW78875   8.884   4.897   1.449  0.2619 -0.0660 -0.0087
25115SOL    HW178876   8.968   4.920   1.408  0.1485  0.3610 -0.0034
25115SOL    HW278877   8.901   4.901   1.543  0.0049  0.9111  0.0057
25116SOL     OW78878   8.250   2.458   6.398  0.0117  0.6786  0.1712
25116SOL    HW178879   8.328   2.430   6.447 -0.9469 -0.5768  1.0609
25116SOL    HW278880   8.283   2.521   6.335  1.7821  0.0714  0.4191
25117SOL     OW78881  10.933   0.776   1.709  0.0078  0.0476 -0.2573
25117SOL    HW178882  11.004   0.756   1.649  1.2735  0.6458  0.9804
25117SOL    HW278883  10.974   0.778   1.796 -1.5900  0.0219  0.5500
25118SOL     OW78884   5.897   5.733   5.814 -0.0984 -0.0733  0.0124
25118SOL    HW178885   5.958   5.695   5.877 -1.8953 -1.0838  1.2411
25118SOL    HW278886   5.820   5.757   5.866 -0.3828  2.1362 -1.3067
25119SOL     OW78887   8.237   4.734   5.859  0.2743 -0.0169  0.3848
25119SOL    HW178888   8.148   4.769   5.865  0.9784  1.6134  2.8296
25119SOL    HW278889   8.225   4.644   5.828 -2.0327  0.7438 -1.1837
25120SOL     OW78890   7.424   8.653   3.904 -0.3503  0.4604 -0.0099
25120SOL    HW178891   7.447   8.645   3.812  0.7599 -3.2043  0.4492
25120SOL    HW278892   7.487   8.598   3.950 -3.4375 -1.3952  2.4310
25121SOL     OW78893   9.379   0.895   0.338 -0.6823  0.1325 -0.1588
25121SOL    HW178894   9.293   0.869   0.372 -1.4976  1.5298 -1.0101
25121SOL    HW278895   9.361   0.976   0.289  0.9973  0.0355 -1.0024
25122SOL     OW78896   3.972   9.095   2.999 -0.1819 -0.1329  0.0035
25122SOL    HW178897   4.023   9.023   3.037 -1.2296 -0.8133  0.1789
25122SOL    HW278898   4.004   9.173   3.043  1.6471 -0.3329 -0.8518
25123SOL     OW78899   6.632   9.923   9.215  0.5024 -0.0706  0.2931
25123SOL    HW178900   6.558   9.875   9.253  2.3384 -2.5989  1.0021
25123SOL    HW278901   6.699   9.855   9.201  2.4688  1.9875 -0.8449
25124SOL     OW78902   3.654   2.351   8.016  0.4198 -0.2783  0.1971
25124SOL    HW178903   3.694   2.320   8.097 -0.7038 -1.1826  0.4292
25124SOL    HW278904   3.595   2.421   8.043  2.2093  1.4890 -0.2162
25125SOL     OW78905   5.575   5.759   7.655 -0.5127  0.1711  0.3289
25125SOL    HW178906   5.637   5.815   7.608 -0.6675  0.2787  0.2496
25125SOL    HW278907   5.502   5.749   7.595 -2.0393  2.6963  1.5692
25126SOL     OW78908   5.302   8.476   7.267 -0.2117  0.5074  0.3445
25126SOL    HW178909   5.244   8.528   7.210  0.5279  1.0257  0.0491
25126SOL    HW278910   5.389   8.511   7.251 -0.2513  2.9446  4.1733
25127SOL     OW78911   4.452  10.410  10.842  0.5265  0.5774  0.2732
25127SOL    HW178912   4.493  10.433  10.759  1.9436 -0.4404  0.6578
25127SOL    HW278913   4.398  10.486  10.865  2.4005  2.0880 -0.1356
25128SOL     OW78914   8.799   3.354   9.504 -0.8195 -0.1099  0.1429
25128SOL    HW178915   8.846   3.390   9.579 -0.0817  0.3402 -0.5106
25128SOL    HW278916   8.795   3.260   9.521  1.1757 -0.3083 -0.1854
25129SOL     OW78917   2.841   4.029   6.647 -0.3547 -0.0718 -0.1413
25129SOL    HW178918   2.830   4.113   6.692 -1.4509 -0.9153  1.2270
25129SOL    HW278919   2.808   4.046   6.558  0.3699  1.1945 -0.1976
25130SOL     OW78920   2.489   5.242   3.505 -0.1432  0.0536  0.2899
25130SOL    HW178921   2.495   5.235   3.409 -2.1551 -1.0634  0.1906
25130SOL    HW278922   2.518   5.156   3.536  1.0341  0.5952  0.7539
25131SOL     OW78923   1.060   4.938  10.482  0.9231 -0.0735  0.2972
25131SOL    HW178924   1.069   4.883  10.404  1.6404 -0.1611  0.4387
25131SOL    HW278925   1.121   4.901  10.545  1.0735  0.6015  0.5577
25132SOL     OW78926   8.618   3.743   7.113 -0.3764  0.4630 -0.2417
25132SOL    HW178927   8.654   3.816   7.063  0.2827  0.5047  0.2913
25132SOL    HW278928   8.523   3.757   7.110 -0.2030  2.4104  1.4455
25133SOL     OW78929   2.860   4.056   0.818 -0.1043  0.4154  0.4075
25133SOL    HW178930   2.832   3.989   0.880 -1.0301 -0.5695 -1.0185
25133SOL    HW278931   2.942   4.023   0.782 -0.5720  0.0359 -0.3119
25134SOL     OW78932   3.426   1.867   9.924  0.1909  0.1723 -0.4840
25134SOL    HW178933   3.361   1.805   9.889  0.1516  0.5533 -1.0955
25134SOL    HW278934   3.508   1.842   9.883  0.1400  0.6370 -0.8823
25135SOL     OW78935   1.269   1.518   5.280  0.2019 -0.3800 -0.0204
25135SOL    HW178936   1.312   1.449   5.229 -0.2093 -0.3686 -0.3914
25135SOL    HW278937   1.175   1.499   5.271  0.0422  0.6557 -0.7401
25136SOL     OW78938   6.163   5.003   6.810  0.3142 -0.3159  0.7131
25136SOL    HW178939   6.186   4.963   6.894  2.5967 -1.3277 -0.3160
25136SOL    HW278940   6.244   5.042   6.778 -0.4329 -0.1721 -1.1579
25137SOL     OW78941   5.064   1.840   1.708 -0.5955  0.0379  0.0573
25137SOL    HW178942   5.067   1.912   1.772 -1.9093  0.8701 -0.7693
25137SOL    HW278943   5.149   1.842   1.666 -0.2853  0.5068  0.6827
25138SOL     OW78944   6.062   3.695   7.752 -0.3495  0.0849 -0.9292
25138SOL    HW178945   6.065   3.769   7.813  1.0375 -0.0221 -0.8543
25138SOL    HW278946   5.992   3.639   7.787  0.5964 -0.1056  0.7354
25139SOL     OW78947   3.595   6.828   0.233 -0.1116 -0.3065 -0.4218
25139SOL    HW178948   3.652   6.785   0.168  0.1191  1.6750 -1.6190
25139SOL    HW278949   3.511   6.838   0.187 -0.3309  0.0173  0.0518
25140SOL     OW78950   1.269   5.037   3.809  0.4920  0.2451 -0.1478
25140SOL    HW178951   1.259   5.131   3.794 -0.6920  0.6013  2.3597
25140SOL    HW278952   1.195   4.998   3.762  0.5832  0.6053 -0.6111
25141SOL     OW78953   7.973   5.350   9.289 -0.5334  0.4354 -0.3900
25141SOL    HW178954   7.976   5.416   9.220 -0.9908  0.2583 -0.5827
25141SOL    HW278955   8.053   5.299   9.278 -0.8456  0.0944 -1.0961
25142SOL     OW78956   7.436  10.876   3.679 -0.0285 -0.5871  0.1725
25142SOL    HW178957   7.428  10.962   3.638  0.0084 -1.7319 -2.4302
25142SOL    HW278958   7.510  10.835   3.635  0.7284 -1.5627  2.2041
25143SOL     OW78959   4.569   4.313   9.241 -0.0370 -0.0073  0.4107
25143SOL    HW178960   4.619   4.344   9.165  0.7482  2.1488  1.7137
25143SOL    HW278961   4.626   4.247   9.282  1.2748  1.5598  1.2040
25144SOL     OW78962   8.178   1.938   5.899 -0.7147 -0.2452  0.6985
25144SOL    HW178963   8.210   1.991   5.972 -1.5729  1.8226 -0.3521
25144SOL    HW278964   8.100   1.895   5.933 -0.3116 -0.4208  1.4195
25145SOL     OW78965   0.869   0.298   1.665 -0.1610 -0.0750 -0.6885
25145SOL    HW178966   0.869   0.242   1.743 -0.6225  3.0051  1.7127
25145SOL    HW278967   0.961   0.325   1.656  0.0490 -1.0855 -1.8000
25146SOL     OW78968   7.826   8.371   6.145  0.4403 -0.5590 -0.2444
25146SOL    HW178969   7.875   8.449   6.172  0.2766 -0.2179 -0.8989
25146SOL    HW278970   7.855   8.355   6.055 -0.8848 -0.1413 -0.7694
25147SOL     OW78971  10.146   7.736   6.008  0.0413 -0.0327 -0.2296
25147SOL    HW178972  10.104   7.819   6.029  0.1177 -0.2364  0.7617
25147SOL    HW278973  10.236   7.745   6.041  0.7188  0.2798 -2.0330
25148SOL     OW78974   7.337   1.028  10.999 -0.0767 -0.0922 -0.2276
25148SOL    HW178975   7.414   0.974  11.016 -0.8721 -0.5690  2.3047
25148SOL    HW278976   7.370   1.102  10.947  1.6666 -1.2559 -0.8613
25149SOL     OW78977   2.615   0.943   5.971 -0.2306  0.2264 -0.1589
25149SOL    HW178978   2.569   0.865   6.001  0.6095  0.4068  1.7780
25149SOL    HW278979   2.690   0.951   6.031  0.8187  1.4101 -1.5488
25150SOL     OW78980   9.940   0.771   4.107 -0.5525  0.1939 -0.1125
25150SOL    HW178981  10.013   0.778   4.045 -1.2316  0.6439 -0.8840
25150SOL    HW278982   9.982   0.754   4.191  0.4141 -0.1273 -0.6364
25151SOL     OW78983   0.947  10.177  10.956  0.1245  0.1714  0.6459
25151SOL    HW178984   0.865  10.136  10.926  0.3088 -1.1801  1.8646
25151SOL    HW278985   1.016  10.119  10.923  0.3822 -0.7438  2.6465
25152SOL     OW78986   4.171   7.210   0.806 -0.2135  0.0645 -0.0374
25152SOL    HW178987   4.220   7.196   0.724  0.1995 -1.1333  0.3842
25152SOL    HW278988   4.181   7.303   0.825  2.0710 -0.1623  0.1240
25153SOL     OW78989   3.586   5.521   8.178 -0.4531  0.0264 -0.5171
25153SOL    HW178990   3.663   5.563   8.141 -0.0212  0.2769  0.6255
25153SOL    HW278991   3.537   5.592   8.219 -0.1553 -0.4346  0.6732
25154SOL     OW78992   3.716   8.745   5.185  0.0258 -0.0765 -0.0025
25154SOL    HW178993   3.672   8.807   5.127 -0.8885 -1.4608 -0.8417
25154SOL    HW278994   3.718   8.789   5.270 -0.4203  1.1690 -0.6105
25155SOL     OW78995   7.742   8.797   7.682 -0.3073 -0.6548 -0.3340
25155SOL    HW178996   7.749   8.766   7.592  0.2762 -0.2756 -0.4271
25155SOL    HW278997   7.666   8.752   7.718  0.1579 -1.7080 -0.6464
25156SOL     OW78998   2.240   6.303  10.348  0.4025  0.2945  0.5913
25156SOL    HW178999   2.219   6.361  10.275  1.9846 -0.1440 -0.2843
25156SOL    HW279000   2.312   6.347  10.394  0.7619 -0.3622  0.6745
25157SOL     OW79001   4.108   8.248   3.360  0.0131  0.2678 -0.5284
25157SOL    HW179002   4.167   8.173   3.358  0.6197  0.6479  1.5293
25157SOL    HW279003   4.020   8.211   3.367  0.3376 -0.2781  0.9148
25158SOL     OW79004   1.830   9.491   8.565 -0.1397 -0.3290 -0.5792
25158SOL    HW179005   1.922   9.497   8.539  0.2546 -2.0023  0.2310
25158SOL    HW279006   1.799   9.581   8.566  0.8940  0.1141 -2.8790
25159SOL     OW79007  10.178   9.966   3.438  0.4390  0.0773 -0.5380
25159SOL    HW179008  10.198   9.897   3.374 -1.2283  0.2343 -1.2748
25159SOL    HW279009  10.156   9.920   3.518  1.9521 -0.1407 -0.2217
25160SOL     OW79010   1.924   0.844   7.241 -0.2306 -0.2758 -0.0595
25160SOL    HW179011   1.923   0.753   7.271 -2.2685 -0.7258 -1.2396
25160SOL    HW279012   1.860   0.846   7.169  1.3289  1.6348 -1.5166
25161SOL     OW79013   5.939   2.276   6.442  0.4200  0.1374  0.2177
25161SOL    HW179014   5.847   2.272   6.417  0.2294 -0.2114  0.9503
25161SOL    HW279015   5.938   2.302   6.534  0.9780 -1.3036  0.6581
25162SOL     OW79016   5.814   5.581   5.627 -0.0749  1.0461  0.2071
25162SOL    HW179017   5.842   5.638   5.699  0.7538 -1.2049  1.7697
25162SOL    HW279018   5.783   5.502   5.670  2.3417 -1.2352 -1.8932
25163SOL     OW79019   9.816   9.577   9.715 -0.5125  0.0695 -0.5908
25163SOL    HW179020   9.865   9.551   9.637 -0.2506 -0.0667 -0.3800
25163SOL    HW279021   9.735   9.615   9.680 -0.6483 -0.5046 -0.9099
25164SOL     OW79022   0.933   7.570   9.413  0.2426  0.1630 -0.0905
25164SOL    HW179023   0.854   7.623   9.406 -1.0569 -1.7218 -0.3456
25164SOL    HW279024   1.004   7.634   9.421 -1.2784  1.9058  0.0886
25165SOL     OW79025   2.461   5.338   3.193 -0.2913 -0.3106  0.1645
25165SOL    HW179026   2.422   5.291   3.120 -0.9085  0.1399  0.1988
25165SOL    HW279027   2.539   5.380   3.156 -2.1748  2.3544 -1.0077
25166SOL     OW79028  10.543   5.703   7.047 -0.1314 -0.4169  0.2856
25166SOL    HW179029  10.501   5.730   6.965 -1.6811  0.3174  1.2628
25166SOL    HW279030  10.515   5.612   7.059 -1.0006 -0.1279  0.6078
25167SOL     OW79031   5.485   5.332   8.884 -0.6093 -0.3908 -0.2588
25167SOL    HW179032   5.522   5.353   8.970 -0.5445 -0.1882 -0.3353
25167SOL    HW279033   5.558   5.295   8.835 -1.1516 -2.5579  0.4793
25168SOL     OW79034   0.706   3.465   5.197 -0.4756 -0.1302 -0.6688
25168SOL    HW179035   0.707   3.413   5.278 -0.2592 -0.2042 -0.7185
25168SOL    HW279036   0.613   3.481   5.180 -0.6790 -2.1526 -1.7169
25169SOL     OW79037   9.694   8.291  10.759 -0.3602  0.1517 -0.0258
25169SOL    HW179038   9.783   8.317  10.779  0.2056 -1.3613 -0.4330
25169SOL    HW279039   9.676   8.219  10.820 -1.1187  0.1136 -0.2844
25170SOL     OW79040   0.830   4.009   4.266  0.3004 -0.3473 -0.1749
25170SOL    HW179041   0.888   4.082   4.288 -0.5493  0.6467 -1.1203
25170SOL    HW279042   0.754   4.050   4.226 -0.8619 -1.6655  0.6160
25171SOL     OW79043   6.190   6.771   1.470  0.0543  0.5660 -0.3580
25171SOL    HW179044   6.193   6.708   1.398  0.9714 -1.3279  1.2419
25171SOL    HW279045   6.281   6.778   1.499 -0.4876 -0.0537  1.6756
25172SOL     OW79046   7.880   5.940   4.342 -0.2671 -0.1382  0.0191
25172SOL    HW179047   7.802   5.952   4.288 -0.9211  0.9614  1.1362
25172SOL    HW279048   7.926   6.023   4.338  0.1598 -0.3475  0.4113
25173SOL     OW79049   7.717  11.114   0.560  0.1416 -0.4540 -0.3347
25173SOL    HW179050   7.622  11.117   0.549  0.3660 -1.0291 -3.0753
25173SOL    HW279051   7.737  11.021   0.568  0.4278 -0.2831  1.2351
25174SOL     OW79052   8.128   7.069  11.045 -0.4324  0.1183 -0.0169
25174SOL    HW179053   8.126   6.974  11.035 -0.1342  0.0173  0.7703
25174SOL    HW279054   8.094   7.085  11.134  1.7089  0.5570  0.7943
25175SOL     OW79055  11.021   7.127   1.656  0.1598  0.1070 -0.2026
25175SOL    HW179056  11.107   7.164   1.633  0.0062  0.1120 -0.7631
25175SOL    HW279057  10.979   7.196   1.708 -0.0734  0.6739 -1.1324
25176SOL     OW79058   5.513   2.657   2.731 -0.4164 -0.1807 -0.0673
25176SOL    HW179059   5.578   2.724   2.753 -0.2304 -0.7398  1.2189
25176SOL    HW279060   5.429   2.700   2.742 -0.2833  0.1829 -0.4588
25177SOL     OW79061  10.392   2.385   8.596 -0.4686 -0.0573 -0.3474
25177SOL    HW179062  10.400   2.293   8.569 -2.0861 -0.0455 -0.9888
25177SOL    HW279063  10.376   2.381   8.691  0.7986 -0.3364 -0.1215
25178SOL     OW79064   8.971   2.116   2.505  1.2917 -0.2944 -0.9227
25178SOL    HW179065   9.061   2.146   2.515  0.4412  3.0030 -1.8991
25178SOL    HW279066   8.933   2.125   2.592  1.4127  0.2496 -0.9221
25179SOL     OW79067   1.904  10.193   5.036  0.2205 -0.5828  0.2091
25179SOL    HW179068   1.947  10.125   4.985  1.4659 -0.3407  0.8955
25179SOL    HW279069   1.943  10.275   5.006 -0.3301 -0.2804  0.2975
25180SOL     OW79070   6.092   8.536   7.631  0.2127  0.2447 -0.2878
25180SOL    HW179071   6.154   8.493   7.572 -0.4050 -0.2484 -0.5801
25180SOL    HW279072   6.018   8.476   7.638  0.4153  0.1143  1.2818
25181SOL     OW79073   6.849   2.963   7.373  0.0176  0.1135  0.6514
25181SOL    HW179074   6.897   3.005   7.302  3.3115 -0.8521  2.1061
25181SOL    HW279075   6.865   3.020   7.449  1.2996 -1.6655  1.7844
25182SOL     OW79076   8.902   8.408   6.866 -0.3653  0.2350 -0.1797
25182SOL    HW179077   8.888   8.460   6.787  0.3034  0.0641 -0.4181
25182SOL    HW279078   8.988   8.436   6.898 -0.3176 -0.2079  0.0897
25183SOL     OW79079   9.132   9.776   9.787  0.1183 -0.4814  0.6864
25183SOL    HW179080   9.048   9.814   9.761  0.3784 -0.5616 -0.3054
25183SOL    HW279081   9.139   9.696   9.735  1.1866 -0.0460  0.1271
25184SOL     OW79082   9.961   2.643   1.341  0.2660 -0.1628  0.3670
25184SOL    HW179083  10.052   2.670   1.325 -0.2087  0.9079 -0.7451
25184SOL    HW279084   9.911   2.689   1.274 -0.9479 -1.8564  0.0625
25185SOL     OW79085   1.112   7.824   0.888  0.1014  0.4870  0.3928
25185SOL    HW179086   1.108   7.917   0.863  0.8947  0.4603  0.1322
25185SOL    HW279087   1.039   7.812   0.948  0.3666  1.4409  0.9339
25186SOL     OW79088   2.516   3.418   7.382 -0.2764  0.0479  0.5138
25186SOL    HW179089   2.519   3.351   7.313  0.7189  0.7455 -0.1539
25186SOL    HW279090   2.430   3.458   7.372 -0.5507 -0.5594  0.3639
25187SOL     OW79091   7.710   7.220   7.403  0.5876 -0.2989 -0.2533
25187SOL    HW179092   7.662   7.139   7.383 -0.2921 -0.4128  1.9783
25187SOL    HW279093   7.645   7.278   7.441  1.4574  1.0600 -0.7617
25188SOL     OW79094  10.048   2.853   7.624 -0.3202  0.7290  0.2512
25188SOL    HW179095  10.054   2.820   7.714  0.2770  0.7611  0.2286
25188SOL    HW279096   9.962   2.824   7.594  0.2644 -1.0173  0.1487
25189SOL     OW79097  10.095  10.336   4.934  0.0895 -0.5687 -0.0375
25189SOL    HW179098  10.145  10.280   4.875  0.7823  1.8550 -1.9071
25189SOL    HW279099  10.004  10.321   4.909  0.1906 -1.5128  0.1288
25190SOL     OW79100   0.637   5.243   1.272  0.1376  0.3389 -0.1956
25190SOL    HW179101   0.715   5.191   1.254  0.0766 -0.3316  1.3594
25190SOL    HW279102   0.671   5.332   1.284  0.8317 -0.1202  1.4951
25191SOL     OW79103   2.754   5.044  10.153 -0.2479 -0.7097 -0.3042
25191SOL    HW179104   2.678   5.052  10.212 -1.1470 -0.4505 -1.4517
25191SOL    HW279105   2.790   5.133  10.148 -0.5593 -0.5999 -0.6346
25192SOL     OW79106   9.941   3.671   7.182  0.2553 -0.0368 -0.1172
25192SOL    HW179107  10.012   3.653   7.121  0.5961 -2.1517  0.7968
25192SOL    HW279108   9.863   3.640   7.137  0.3891 -0.7995  0.1613
25193SOL     OW79109   3.075   7.218   6.990 -0.2113  0.1947  0.2415
25193SOL    HW179110   3.100   7.131   6.960 -0.9142 -0.6355  1.9549
25193SOL    HW279111   3.156   7.270   6.981  0.2394 -0.6376 -0.6939
25194SOL     OW79112   1.575   6.623   5.796  0.2971 -0.1694  0.1808
25194SOL    HW179113   1.525   6.603   5.875  0.3171  1.4607  0.6447
25194SOL    HW279114   1.655   6.663   5.828  0.1024  0.9507 -0.6567
25195SOL     OW79115  10.575   0.323   3.116 -0.3726 -0.6078  0.2710
25195SOL    HW179116  10.600   0.400   3.065  1.4855 -1.8174 -0.7783
25195SOL    HW279117  10.587   0.349   3.207 -1.3862  0.8235  0.0423
25196SOL     OW79118   0.932   7.740   7.186 -0.3015  0.1329 -0.1361
25196SOL    HW179119   0.859   7.746   7.125 -1.8252 -0.4918  1.5307
25196SOL    HW279120   0.910   7.800   7.257  1.5381  1.0219 -0.2577
25197SOL     OW79121   2.021   3.441   1.066 -0.1231 -0.2381  0.3825
25197SOL    HW179122   2.043   3.530   1.039  2.1073 -0.8890 -0.1243
25197SOL    HW279123   2.048   3.436   1.157  1.0963 -0.7628  0.0209
25198SOL     OW79124   2.706   5.961   2.993  0.3017  0.7506 -0.1691
25198SOL    HW179125   2.756   5.893   2.947  0.1379 -0.6554  1.6142
25198SOL    HW279126   2.637   5.912   3.039  0.4630  2.0596  1.5480
25199SOL     OW79127   2.412   6.948   3.629  0.0761 -0.1074 -0.4560
25199SOL    HW179128   2.351   6.996   3.572 -0.8914 -0.2410  0.4321
25199SOL    HW279129   2.464   7.017   3.671 -0.9971  0.1823  0.4640
25200SOL     OW79130   1.684   0.364  10.540  0.3131 -0.4222 -0.3529
25200SOL    HW179131   1.603   0.343  10.587  0.0795  1.5665  0.2022
25200SOL    HW279132   1.657   0.367  10.448 -0.0654 -0.5467 -0.2474
25201SOL     OW79133   5.053   6.401   4.176  0.2417  0.2276 -0.4421
25201SOL    HW179134   4.974   6.384   4.125 -0.0645  0.5780 -0.0932
25201SOL    HW279135   5.023   6.397   4.267  0.2576  2.1022 -0.3166
25202SOL     OW79136   2.333  10.709   8.265  0.2533 -0.1287 -0.0988
25202SOL    HW179137   2.402  10.716   8.331  0.8368 -0.9532 -0.6058
25202SOL    HW279138   2.368  10.754   8.188  0.1871 -0.4370 -0.3132
25203SOL     OW79139   0.022   0.384   3.985 -0.4846 -0.0630  0.7462
25203SOL    HW179140  -0.025   0.432   3.917 -1.1934  0.2670  1.4422
25203SOL    HW279141  -0.028   0.402   4.065  0.1746 -0.6546  1.3039
25204SOL     OW79142   2.355   2.922  10.632  0.1109  0.2407  0.2508
25204SOL    HW179143   2.309   2.840  10.652  0.7382 -0.2520 -0.2805
25204SOL    HW279144   2.436   2.894  10.589  1.2014  1.0551  1.6753
25205SOL     OW79145   4.651   2.422   5.228  0.3030 -0.6538  0.0738
25205SOL    HW179146   4.682   2.497   5.177 -0.3136  1.4951  2.6079
25205SOL    HW279147   4.727   2.396   5.280 -0.4139  0.8184  1.9967
25206SOL     OW79148   6.956   3.036   0.313  0.2665  0.1248  0.3693
25206SOL    HW179149   6.916   3.022   0.227  0.1258 -0.0917  0.4695
25206SOL    HW279150   6.882   3.039   0.373  0.3928 -0.1155  0.5356
25207SOL     OW79151   6.057  10.195   8.274  0.0406 -0.1909  0.2116
25207SOL    HW179152   6.124  10.180   8.207  0.4415  0.6604  0.4092
25207SOL    HW279153   5.974  10.186   8.227  0.2769 -1.1420 -0.0589
25208SOL     OW79154   7.810   7.212   0.773  0.2470 -0.5861  0.3724
25208SOL    HW179155   7.741   7.270   0.807  0.8618 -0.4314  1.4090
25208SOL    HW279156   7.891   7.249   0.808  0.5773 -2.6088  1.8916
25209SOL     OW79157   7.378  10.106   0.955  0.0349 -0.3439 -0.2064
25209SOL    HW179158   7.451  10.081   0.898  1.1344  0.9068  0.6173
25209SOL    HW279159   7.382  10.044   1.028 -0.4417 -0.9875 -0.7147
25210SOL     OW79160   1.709   7.546   6.393  0.3896  0.0899 -0.3485
25210SOL    HW179161   1.740   7.462   6.428  0.5412  0.6251  0.8665
25210SOL    HW279162   1.620   7.527   6.362  0.1334 -0.3629  0.6146
25211SOL     OW79163   0.200   7.987   3.434  0.3445  0.1945  0.0392
25211SOL    HW179164   0.283   7.945   3.410  0.7443  0.0981  1.4551
25211SOL    HW279165   0.134   7.920   3.419  0.9295 -0.8818  1.8920
25212SOL     OW79166   2.752   7.365   6.161  0.0386 -0.6789 -0.0547
25212SOL    HW179167   2.673   7.340   6.209 -0.6119 -0.9350 -1.2150
25212SOL    HW279168   2.785   7.282   6.126  0.6759 -0.5326  0.1803
25213SOL     OW79169   4.989   8.518   5.353  0.0583  0.6186  0.3037
25213SOL    HW179170   5.041   8.581   5.302 -1.1155  0.0645 -1.6968
25213SOL    HW279171   5.045   8.441   5.359 -0.2455  0.2260 -1.3477
25214SOL     OW79172   0.633   6.470   9.683  0.4457 -0.1682 -0.4248
25214SOL    HW179173   0.684   6.470   9.764  2.1449  0.6694 -1.4541
25214SOL    HW279174   0.602   6.380   9.675  1.1562 -0.5272  0.5907
25215SOL     OW79175   8.705  10.316   3.940 -0.5638 -0.1216 -0.0946
25215SOL    HW179176   8.611  10.320   3.921 -0.5729  0.7259  0.0825
25215SOL    HW279177   8.746  10.303   3.855 -0.8063  0.1405 -0.2538
25216SOL     OW79178   7.300   6.349  10.418 -0.6931  0.7481 -0.0045
25216SOL    HW179179   7.258   6.332  10.334  0.6719  3.2487 -1.3192
25216SOL    HW279180   7.393   6.364  10.396  0.1946 -0.8578  2.2872
25217SOL     OW79181  10.080   1.305   2.921 -0.6362 -0.3943  0.3500
25217SOL    HW179182  10.169   1.333   2.900 -0.6628 -0.6294 -0.1088
25217SOL    HW279183  10.041   1.379   2.966 -0.3376 -0.1304  0.1788
25218SOL     OW79184   3.010   1.237  10.481  0.4133  0.0546  0.5053
25218SOL    HW179185   3.103   1.216  10.488  0.4943  0.2777  0.1352
25218SOL    HW279186   2.973   1.211  10.565  0.6490 -0.8721  0.3400
25219SOL     OW79187   5.605   9.337   8.110 -0.1147  0.0164  0.0710
25219SOL    HW179188   5.525   9.375   8.074  1.0158  1.9601 -0.5141
25219SOL    HW279189   5.575   9.264   8.165 -2.2348  0.4555 -0.4468
25220SOL     OW79190   1.547   0.012   7.247  0.2726  0.2249  0.4185
25220SOL    HW179191   1.484   0.029   7.176 -1.6632 -0.3728  1.8909
25220SOL    HW279192   1.631   0.005   7.203 -1.1470 -2.7094 -2.2436
25221SOL     OW79193   2.883  10.354   7.909  0.2860 -0.1433  0.3475
25221SOL    HW179194   2.959  10.338   7.853  0.1617 -1.0465  0.4273
25221SOL    HW279195   2.918  10.405   7.982  0.7544 -0.2854  0.2275
25222SOL     OW79196   2.681   2.262   0.965  0.0196 -0.3341  0.0968
25222SOL    HW179197   2.631   2.224   0.893 -2.5353  0.8607  1.1208
25222SOL    HW279198   2.652   2.353   0.969  1.8683  0.2593  1.1667
25223SOL     OW79199   5.790   9.389   1.166  0.1610  0.1632 -0.1494
25223SOL    HW179200   5.744   9.308   1.145  2.0248 -1.2519  0.8930
25223SOL    HW279201   5.880   9.374   1.137  1.3878  0.4460  3.0448
25224SOL     OW79202   8.627   7.187   4.921 -0.3476 -0.2874 -0.1678
25224SOL    HW179203   8.601   7.222   4.837 -0.2558  0.3387  0.0596
25224SOL    HW279204   8.644   7.094   4.905  0.7192  0.0570 -1.0651
25225SOL     OW79205   8.659   4.898   0.247 -0.1445  0.5422 -0.0807
25225SOL    HW179206   8.680   4.937   0.162  0.0813  0.5590 -0.0179
25225SOL    HW279207   8.732   4.838   0.264 -0.9480 -0.6399 -0.6254
25226SOL     OW79208   9.786   7.151  10.264 -0.3362  0.3831  0.0674
25226SOL    HW179209   9.753   7.166  10.352  1.2165  0.2094  0.7008
25226SOL    HW279210   9.825   7.235  10.238 -0.2825  0.2688 -0.2356
25227SOL     OW79211  10.122   6.207   2.473  0.4885 -0.0514 -0.2371
25227SOL    HW179212  10.216   6.195   2.461  0.3437 -2.2655  0.3801
25227SOL    HW279213  10.113   6.244   2.561  0.7611 -0.0195 -0.2226
25228SOL     OW79214   9.007   3.550   7.402 -0.0137  0.2586  0.1755
25228SOL    HW179215   9.012   3.617   7.469 -2.6225  1.5515 -0.7920
25228SOL    HW279216   9.011   3.598   7.319  1.9252 -1.1843 -0.6448
25229SOL     OW79217   8.040   4.460   0.887 -0.3069 -0.0663 -0.2486
25229SOL    HW179218   8.120   4.504   0.915 -0.5025 -0.8448  1.7252
25229SOL    HW279219   7.979   4.531   0.866  0.2113  0.5660  0.3482
25230SOL     OW79220   7.328   6.516   8.244 -0.2180 -0.1642 -0.2371
25230SOL    HW179221   7.370   6.591   8.286 -2.0826  0.9198 -0.2013
25230SOL    HW279222   7.297   6.462   8.317 -0.3877 -0.0741 -0.2413
25231SOL     OW79223   1.892   7.482   4.087  0.7033 -0.3005 -0.0828
25231SOL    HW179224   1.912   7.455   4.176  0.2980 -2.2215 -0.5264
25231SOL    HW279225   1.977   7.485   4.043  0.8051 -0.3326  0.1123
25232SOL     OW79226   9.796   8.465   0.812 -0.0518 -0.0537  0.0086
25232SOL    HW179227   9.730   8.484   0.878  1.3566  1.1561  1.1372
25232SOL    HW279228   9.808   8.548   0.766 -0.1380 -0.5707 -0.9859
25233SOL     OW79229   1.657   6.469   8.181 -0.0259  0.2873 -0.7972
25233SOL    HW179230   1.599   6.450   8.255 -1.8728  0.5849 -2.1111
25233SOL    HW279231   1.744   6.474   8.221 -0.7191 -1.1711  1.1006
25234SOL     OW79232   6.646   0.456   2.635 -0.1109  0.3644  0.4954
25234SOL    HW179233   6.571   0.403   2.663 -0.7658  0.8719 -0.2631
25234SOL    HW279234   6.711   0.392   2.607 -0.0683 -0.1001  1.5813
25235SOL     OW79235   0.592   6.137   1.020  0.1505  0.4947  0.1811
25235SOL    HW179236   0.504   6.172   1.035 -0.0893 -1.0126  3.1703
25235SOL    HW279237   0.578   6.046   0.993  0.7317  0.0099  1.4156
25236SOL     OW79238   5.423   1.351   1.903  0.3349  0.0135  0.3708
25236SOL    HW179239   5.339   1.364   1.946 -0.2342 -0.6796 -0.4987
25236SOL    HW279240   5.425   1.258   1.881  1.8022 -0.2200  1.3136
25237SOL     OW79241   9.368   7.361   6.390  0.0698 -0.0328  0.1918
25237SOL    HW179242   9.383   7.374   6.297 -0.3140  0.0576  0.1411
25237SOL    HW279243   9.314   7.436   6.417 -0.7801 -0.6499  0.2455
25238SOL     OW79244   2.107   8.295   3.076  0.5750  0.2817 -0.5623
25238SOL    HW179245   2.021   8.285   3.117  0.2740  0.5169 -1.1195
25238SOL    HW279246   2.169   8.291   3.148  0.1536 -0.7810 -0.2358
25239SOL     OW79247   4.774   0.129   6.287 -0.3582  0.1886 -0.0533
25239SOL    HW179248   4.773   0.052   6.229 -0.9969  0.2426 -0.1294
25239SOL    HW279249   4.845   0.184   6.254 -0.9949  0.4279 -1.0845
25240SOL     OW79250   9.598   4.994   4.167  0.2211  0.1391 -0.3022
25240SOL    HW179251   9.641   4.911   4.190 -1.7505 -0.7224  0.4421
25240SOL    HW279252   9.643   5.022   4.087  0.8685 -1.7184 -0.6441
25241SOL     OW79253   6.811   8.563   3.961  0.1127 -0.4167  0.6702
25241SOL    HW179254   6.819   8.489   3.901  0.1516  0.2197 -0.1193
25241SOL    HW279255   6.741   8.616   3.925  1.1124  0.7281  0.3597
25242SOL     OW79256   2.686   0.264   5.892  1.0973  0.2681 -0.1770
25242SOL    HW179257   2.728   0.212   5.961  0.5744 -0.4055 -0.3567
25242SOL    HW279258   2.600   0.224   5.881  0.9380  0.7654 -0.7852
25243SOL     OW79259   9.588   8.749   0.233 -0.1628  0.1432 -0.5827
25243SOL    HW179260   9.622   8.683   0.172  0.7439  0.6643 -0.6525
25243SOL    HW279261   9.550   8.816   0.176  0.6135  0.5920 -0.5722
25244SOL     OW79262   5.924   2.898   4.866  0.7757 -0.6016  0.4583
25244SOL    HW179263   5.938   2.931   4.955 -0.7446  0.5171  0.3241
25244SOL    HW279264   5.917   2.977   4.812 -1.8017 -1.1005 -0.0676
25245SOL     OW79265   6.583   8.428   6.383  0.0798 -0.2445 -0.0325
25245SOL    HW179266   6.565   8.340   6.414 -0.2174 -0.0268  0.4351
25245SOL    HW279267   6.563   8.484   6.458  0.4249  0.2059 -0.2694
25246SOL     OW79268  10.185  10.134  10.009 -0.4857 -0.1386 -0.8355
25246SOL    HW179269  10.279  10.152  10.005 -0.6047  0.9853  0.7581
25246SOL    HW279270  10.168  10.081   9.931  1.2089  0.7936 -1.9106
25247SOL     OW79271   5.285   4.591   9.349  0.0152  0.0580  0.2648
25247SOL    HW179272   5.199   4.581   9.309 -0.3189 -2.7155  1.4679
25247SOL    HW279273   5.341   4.531   9.300  0.7422  0.2064  0.8962
25248SOL     OW79274   4.170   1.983   1.153 -0.4846 -0.3227 -0.2401
25248SOL    HW179275   4.102   1.975   1.220 -1.0688  1.0926 -0.6159
25248SOL    HW279276   4.232   2.046   1.190 -1.7345  1.9017 -1.6638
25249SOL     OW79277   2.184   3.332   2.825  1.5907 -0.5745  0.3360
25249SOL    HW179278   2.165   3.278   2.748  0.3074 -1.3515  1.1548
25249SOL    HW279279   2.241   3.401   2.792  0.3027 -0.3140 -1.5255
25250SOL     OW79280   6.831   8.978   7.426  0.4762  0.4504  0.2611
25250SOL    HW179281   6.927   8.975   7.422  0.4385  0.4802 -1.6694
25250SOL    HW279282   6.803   8.902   7.375 -0.4837  1.9405 -1.5701
25251SOL     OW79283   3.409   8.362   3.320 -0.4919 -0.2494  0.1793
25251SOL    HW179284   3.344   8.378   3.252  0.3858  1.7048 -0.2786
25251SOL    HW279285   3.371   8.401   3.399 -0.3603 -0.1298  0.1832
25252SOL     OW79286  10.509   9.467   9.795  0.5646  0.1751  0.3694
25252SOL    HW179287  10.603   9.450   9.805  0.5883 -0.6536 -0.9363
25252SOL    HW279288  10.499   9.559   9.818  1.8393  0.4966 -0.2443
25253SOL     OW79289  10.539   2.262   4.188 -0.2108  0.0596 -0.0688
25253SOL    HW179290  10.476   2.334   4.196  0.9308  1.4377 -2.3672
25253SOL    HW279291  10.491   2.194   4.141 -0.3412  0.7120 -0.9211
25254SOL     OW79292   2.751   6.422   1.962  0.3811  0.1562 -1.1619
25254SOL    HW179293   2.678   6.389   2.014 -0.0185  0.0703 -1.7693
25254SOL    HW279294   2.714   6.436   1.875  0.6981  1.5957 -1.0896
25255SOL     OW79295   3.259   3.307  11.068  0.0637  0.1998  0.0106
25255SOL    HW179296   3.194   3.283  11.133 -0.1994  0.6233 -0.0891
25255SOL    HW279297   3.208   3.319  10.987 -0.1462  2.9331  0.4518
25256SOL     OW79298  11.007   1.125   7.795 -0.0665 -0.2029 -0.1181
25256SOL    HW179299  10.955   1.201   7.772  0.7173 -0.1822 -1.9808
25256SOL    HW279300  11.097   1.154   7.788  0.2404 -1.2308 -0.6739
25257SOL     OW79301   6.635   5.466   8.049 -0.3753 -0.2939  0.0561
25257SOL    HW179302   6.727   5.490   8.054 -0.5116  0.1285  0.6518
25257SOL    HW279303   6.591   5.526   8.109 -0.9086 -1.1180  0.5099
25258SOL     OW79304   5.060   2.936   0.575 -0.5942 -0.2054 -0.3225
25258SOL    HW179305   5.147   2.964   0.546 -1.0170 -0.0697 -1.5356
25258SOL    HW279306   5.055   2.962   0.667 -0.4422  2.5167 -0.9908
25259SOL     OW79307   0.917   8.896   9.495 -0.5596 -0.3904 -0.0246
25259SOL    HW179308   0.967   8.969   9.531  0.2350  0.1086 -2.0119
25259SOL    HW279309   0.831   8.934   9.475 -0.3503 -0.1464 -0.4800
25260SOL     OW79310   9.772   6.869   1.075  0.2711  0.3892 -0.0750
25260SOL    HW179311   9.789   6.822   0.994  1.8468  0.1875  0.3491
25260SOL    HW279312   9.743   6.801   1.136  1.8371  0.0610  0.3276
25261SOL     OW79313   1.099   0.806   3.431 -0.3345  0.3202  0.2855
25261SOL    HW179314   1.148   0.868   3.486 -0.4315  0.2824  0.4167
25261SOL    HW279315   1.121   0.720   3.467 -1.6750  0.3760  1.3282
25262SOL     OW79316   7.963   3.312   4.111  0.5112 -0.2563 -0.0149
25262SOL    HW179317   8.056   3.334   4.107  0.7261 -1.0547  0.3706
25262SOL    HW279318   7.940   3.324   4.203  0.1007  0.4132 -0.1952
25263SOL     OW79319   1.463   9.700   2.206  0.2183 -0.8598 -0.3145
25263SOL    HW179320   1.539   9.728   2.258 -0.5670  1.4184 -0.2952
25263SOL    HW279321   1.388   9.731   2.257 -0.6773 -1.7117 -1.1023
25264SOL     OW79322   6.827   3.730   7.326 -0.3857 -0.4389 -0.8257
25264SOL    HW179323   6.744   3.777   7.340 -0.9603 -1.7315  0.2968
25264SOL    HW279324   6.832   3.668   7.398  2.1681  0.3895 -0.1730
25265SOL     OW79325   2.548   0.670   4.842 -0.0312 -0.5424 -0.1135
25265SOL    HW179326   2.573   0.672   4.749 -1.7551  1.8980 -0.6234
25265SOL    HW279327   2.553   0.761   4.870 -0.9363 -1.0357  1.8292
25266SOL     OW79328   1.173   2.980   1.480 -0.2578 -0.0536  0.0314
25266SOL    HW179329   1.234   2.956   1.550  1.0941 -0.3466 -1.1808
25266SOL    HW279330   1.148   3.070   1.500 -0.6759 -0.4446  1.4007
25267SOL     OW79331  11.001   9.219  11.112 -1.0727  0.1519  0.0197
25267SOL    HW179332  11.072   9.211  11.176 -0.2237  1.0548 -0.7749
25267SOL    HW279333  10.959   9.302  11.133 -1.9567 -0.4122  0.5277
25268SOL     OW79334   1.589   6.291   3.666  0.4222  0.2935 -0.9052
25268SOL    HW179335   1.554   6.333   3.588 -0.5693  0.9811 -0.1038
25268SOL    HW279336   1.537   6.325   3.739  0.6830 -1.0491 -0.0346
25269SOL     OW79337   2.467   7.145   1.873 -0.0132  0.5664 -0.2526
25269SOL    HW179338   2.484   7.090   1.797 -0.7747  1.3322 -1.0082
25269SOL    HW279339   2.488   7.090   1.948 -0.0436 -0.4910 -0.9963
25270SOL     OW79340   0.882   2.522   0.848  0.7378  0.0596 -0.6383
25270SOL    HW179341   0.930   2.443   0.873  1.4755  0.6835 -0.0448
25270SOL    HW279342   0.853   2.560   0.931  0.8415  0.6924 -0.8863
25271SOL     OW79343   2.616   4.256   8.152  0.1426  0.6622  0.1425
25271SOL    HW179344   2.674   4.272   8.078 -0.5215 -1.2326 -0.8393
25271SOL    HW279345   2.528   4.250   8.114 -0.1758 -0.6819  1.0271
25272SOL     OW79346  10.971   4.771   7.376  0.6696  0.0653 -0.0179
25272SOL    HW179347  10.966   4.732   7.289  0.8508  0.3241 -0.1497
25272SOL    HW279348  10.937   4.704   7.436 -1.3587  0.5973 -0.4901
25273SOL     OW79349   3.046   0.634   3.384  0.1560  0.3934 -0.0347
25273SOL    HW179350   3.134   0.644   3.419  0.0058  1.8575 -0.0424
25273SOL    HW279351   3.052   0.665   3.294  0.4080 -2.8099 -1.2501
25274SOL     OW79352   8.243   1.153   6.376 -0.0860  0.3454  0.0168
25274SOL    HW179353   8.226   1.198   6.293 -0.6869  0.6837  0.3160
25274SOL    HW279354   8.248   1.060   6.353  0.3300  0.4852 -0.4809
25275SOL     OW79355   0.912   2.748   0.432  1.0634  0.2543  0.6418
25275SOL    HW179356   0.894   2.696   0.511  2.8224  0.1492  1.0004
25275SOL    HW279357   0.846   2.818   0.435 -0.7767 -1.3881  0.6154
25276SOL     OW79358  11.113   7.081   9.819 -0.0508  0.3526  0.7968
25276SOL    HW179359  11.190   7.067   9.763 -0.3256 -0.5314  0.6130
25276SOL    HW279360  11.147   7.130   9.894  1.2243 -1.9143  1.8336
25277SOL     OW79361  10.060   4.109   4.019  0.8820 -0.6871  0.4056
25277SOL    HW179362  10.136   4.160   3.992  0.8286 -1.2269 -0.8182
25277SOL    HW279363  10.044   4.049   3.946 -1.2063 -0.0371  0.2608
25278SOL     OW79364   4.186   7.888   5.567 -0.6474  0.6966  0.3367
25278SOL    HW179365   4.131   7.812   5.585  0.2613  0.2701  1.4017
25278SOL    HW279366   4.141   7.934   5.495  0.1030 -2.2206 -2.1963
25279SOL     OW79367  10.838   5.115   7.512  0.1730  0.7629  0.0641
25279SOL    HW179368  10.797   5.028   7.513  2.2518 -0.2970  1.5450
25279SOL    HW279369  10.785   5.167   7.572  0.8124 -0.5379  1.8629
25280SOL     OW79370   9.807   1.789   6.518 -0.3925  0.1984  0.3274
25280SOL    HW179371   9.775   1.701   6.494 -2.2603  0.9697 -0.1878
25280SOL    HW279372   9.744   1.821   6.582  1.8154  0.1370  2.6920
25281SOL     OW79373   6.038   3.271   8.960  0.5627 -0.4279  0.4234
25281SOL    HW179374   6.128   3.303   8.963  0.7081 -0.8161  0.1835
25281SOL    HW279375   6.038   3.203   8.893 -0.2672  0.7030 -0.7678
25282SOL     OW79376   3.588   6.162   9.356  0.3945 -0.2459  0.4306
25282SOL    HW179377   3.632   6.128   9.434  0.8221  1.3348  0.9072
25282SOL    HW279378   3.515   6.213   9.391 -0.7460 -1.3243 -0.2981
25283SOL     OW79379  11.117   6.185   2.808  0.2594 -0.0189  1.1603
25283SOL    HW179380  11.035   6.235   2.805  0.7784  0.8087 -1.0443
25283SOL    HW279381  11.089   6.096   2.831 -1.2420  0.2691  0.5915
25284SOL     OW79382   9.468   6.010   1.549  0.5299  0.6369 -0.8574
25284SOL    HW179383   9.399   6.040   1.490 -0.9699 -0.8146  0.0556
25284SOL    HW279384   9.491   5.923   1.516  0.2822  0.1670  0.1791
25285SOL     OW79385   9.720   2.402   3.428 -0.6443 -0.2316 -0.1498
25285SOL    HW179386   9.756   2.345   3.360  1.5971 -0.6073  1.2576
25285SOL    HW279387   9.788   2.467   3.443 -1.3303  0.1912  1.3253
25286SOL     OW79388   7.352   3.016   0.288 -0.0178  0.0574 -0.5142
25286SOL    HW179389   7.316   3.089   0.238  0.6185  0.8024  0.0995
25286SOL    HW279390   7.285   2.996   0.353 -1.1143 -1.3006 -1.9678
25287SOL     OW79391  10.495   9.718  11.086 -0.1370  0.4114 -0.3406
25287SOL    HW179392  10.497   9.700  10.992 -1.3636  1.3042 -0.5635
25287SOL    HW279393  10.518   9.634  11.127 -1.9408 -0.6831 -1.4099
25288SOL     OW79394   0.584   2.106   9.475 -0.3599  0.5370 -0.4741
25288SOL    HW179395   0.599   2.019   9.438 -0.7040  0.2880 -0.0365
25288SOL    HW279396   0.606   2.097   9.567 -0.1244  0.9926 -0.4810
25289SOL     OW79397   0.614   3.371  10.379 -0.0756 -0.2570 -0.7289
25289SOL    HW179398   0.569   3.413  10.453  1.3734  0.9418 -0.4740
25289SOL    HW279399   0.634   3.283  10.410 -0.0432  0.0247  0.0769
25290SOL     OW79400   3.018   1.993   7.867  0.1419  0.1546 -0.3249
25290SOL    HW179401   2.928   2.024   7.866 -0.0376 -0.1814  1.6248
25290SOL    HW279402   3.071   2.072   7.850 -0.4009  1.1626  2.2014
25291SOL     OW79403   9.685  10.189   2.032 -0.5091  0.4684  0.0191
25291SOL    HW179404   9.690  10.263   2.093  0.2916  0.3823  0.0678
25291SOL    HW279405   9.645  10.226   1.953 -0.5710  0.8361  0.2190
25292SOL     OW79406   3.916   7.793   6.348  0.5587 -0.3677 -0.2687
25292SOL    HW179407   3.873   7.791   6.262  0.7646  1.1692 -0.4269
25292SOL    HW279408   3.844   7.792   6.411  0.2138  1.9410 -0.5299
25293SOL     OW79409   1.276   8.968   4.052  0.4814  0.4541  0.0707
25293SOL    HW179410   1.255   9.031   3.983  0.4221 -0.1612 -0.4920
25293SOL    HW279411   1.275   8.883   4.007 -3.2817 -0.4436  1.4918
25294SOL     OW79412   1.265   3.355  11.014 -0.4037  0.1777  0.0478
25294SOL    HW179413   1.314   3.351  11.096  0.7877  0.3573 -0.6375
25294SOL    HW279414   1.263   3.264  10.983 -0.8821  0.1046  0.2702
25295SOL     OW79415   0.883   0.662   4.159 -0.2440 -0.5038  0.1366
25295SOL    HW179416   0.933   0.737   4.192  0.9702 -1.1053 -0.2706
25295SOL    HW279417   0.870   0.681   4.066 -1.1103 -0.1846  0.3125
25296SOL     OW79418   8.744   2.562   5.247 -0.2884 -0.5074  0.5870
25296SOL    HW179419   8.775   2.475   5.274 -1.2201 -1.0178  0.0967
25296SOL    HW279420   8.775   2.572   5.157 -0.4618 -0.4784  0.5305
25297SOL     OW79421   0.901   5.944   6.678 -0.2594 -0.1199 -0.1435
25297SOL    HW179422   0.944   5.985   6.753 -1.9952 -0.4786  1.1240
25297SOL    HW279423   0.813   5.925   6.709 -1.0829 -0.1677 -2.3523
25298SOL     OW79424   9.551   8.097  10.220  0.2661 -0.3320 -0.2311
25298SOL    HW179425   9.611   8.040  10.172  2.2666  0.9784  0.5676
25298SOL    HW279426   9.555   8.065  10.310  0.9136  0.6206  0.0983
25299SOL     OW79427   4.116   6.207   4.828 -0.0753 -0.0731 -0.6099
25299SOL    HW179428   4.208   6.194   4.805 -0.1364 -0.0004 -0.8972
25299SOL    HW279429   4.081   6.263   4.759  0.0196  1.0793  0.2627
25300SOL     OW79430  10.937   1.270   7.257  0.4439  0.5960 -0.2012
25300SOL    HW179431  10.997   1.246   7.186  0.5647 -1.0016  0.4037
25300SOL    HW279432  10.881   1.193   7.267  0.0214  1.0501  1.0136
25301SOL     OW79433   8.665   1.872   8.669  0.3201  0.6505  0.2980
25301SOL    HW179434   8.619   1.810   8.613  1.8152  0.1319 -0.4135
25301SOL    HW279435   8.718   1.817   8.727 -1.7275  1.1349  2.8205
25302SOL     OW79436   4.439   2.651   4.815 -0.5111 -0.3477  0.3896
25302SOL    HW179437   4.490   2.680   4.740 -1.4518 -0.6781 -0.4003
25302SOL    HW279438   4.452   2.556   4.818  1.4627 -0.0884  2.1419
25303SOL     OW79439   9.432   7.329   9.764  0.0894  0.0604 -0.4158
25303SOL    HW179440   9.385   7.273   9.826 -1.0522  1.0257 -0.3816
25303SOL    HW279441   9.394   7.416   9.776  3.4045  1.4323  1.2118
25304SOL     OW79442   5.942   3.458   0.197  0.2112  0.2682  0.3831
25304SOL    HW179443   5.981   3.545   0.204  2.0789 -0.1819 -2.8037
25304SOL    HW279444   6.016   3.398   0.194 -1.0136 -1.3726  1.2462
25305SOL     OW79445   2.319   2.772   2.328 -0.0424  0.5125 -0.3448
25305SOL    HW179446   2.258   2.777   2.254  0.9637  0.6959 -1.1746
25305SOL    HW279447   2.388   2.834   2.307  0.8607 -0.2828  0.1936
25306SOL     OW79448   0.616   0.075   4.989  0.0160 -0.0521 -0.1218
25306SOL    HW179449   0.640   0.131   4.915 -0.7142 -1.4706 -1.4706
25306SOL    HW279450   0.528   0.105   5.014 -0.2828 -0.4510 -0.6947
25307SOL     OW79451   0.773  10.764   4.186 -0.8152 -0.1614  0.0320
25307SOL    HW179452   0.810  10.757   4.274  2.7783 -0.4299 -1.3477
25307SOL    HW279453   0.810  10.845   4.152 -0.2100 -1.2321 -1.9952
25308SOL     OW79454   7.569   7.482   1.573 -0.1428  0.3880 -0.2952
25308SOL    HW179455   7.508   7.552   1.550 -1.2976 -0.8716 -1.2142
25308SOL    HW279456   7.522   7.429   1.638  0.2510 -0.2003 -0.4815
25309SOL     OW79457   9.192   9.394   8.179 -0.2958  0.3146  0.0006
25309SOL    HW179458   9.128   9.359   8.117  1.3350  0.1387 -1.6787
25309SOL    HW279459   9.208   9.323   8.240 -1.3322  0.2033  0.1665
25310SOL     OW79460   8.050   2.692   6.230  0.0578 -0.6071  0.0388
25310SOL    HW179461   8.022   2.736   6.310 -1.0888  0.0764 -0.7098
25310SOL    HW279462   8.136   2.729   6.211 -0.5396  0.7480 -0.1356
25311SOL     OW79463   5.008   1.352   1.063 -0.5589 -0.1449 -0.5606
25311SOL    HW179464   5.080   1.290   1.046 -1.2567 -0.9887 -0.5193
25311SOL    HW279465   4.983   1.335   1.154  2.2242  3.3838  1.1050
25312SOL     OW79466  10.824   6.686   1.509  0.4428 -0.4815  0.4416
25312SOL    HW179467  10.871   6.769   1.514  0.7680 -0.6344 -0.0938
25312SOL    HW279468  10.737   6.710   1.478 -0.2327 -0.0541  2.4783
25313SOL     OW79469   3.720   9.874   2.124  0.2078  0.2256 -0.2909
25313SOL    HW179470   3.756   9.785   2.125  0.6312  0.3896 -0.5941
25313SOL    HW279471   3.719   9.899   2.031 -0.7534  0.2068 -0.2972
25314SOL     OW79472   9.802   8.259   5.964 -0.3895 -0.3199 -0.1527
25314SOL    HW179473   9.896   8.255   5.946 -0.5749  0.2489 -1.3692
25314SOL    HW279474   9.788   8.194   6.032  0.9079 -0.3383  0.1271
25315SOL     OW79475  10.423   6.024  10.673 -0.2185 -0.2000  0.0553
25315SOL    HW179476  10.424   6.013  10.578  1.6273  1.0259 -0.1246
25315SOL    HW279477  10.511   5.998  10.701  0.4830  2.7114  0.9277
25316SOL     OW79478   3.647   5.548   2.827 -0.0848  0.2351 -0.4803
25316SOL    HW179479   3.702   5.482   2.785  1.7006  1.5490 -0.3039
25316SOL    HW279480   3.708   5.604   2.875 -1.5963  1.6236 -0.0751
25317SOL     OW79481   1.229   0.247   2.928 -0.3309  0.2003 -0.1261
25317SOL    HW179482   1.166   0.300   2.977 -0.5663 -0.2672  0.0904
25317SOL    HW279483   1.203   0.157   2.946  0.2805  0.0033 -0.1982
25318SOL     OW79484  10.277   0.724  10.370 -0.6792  0.3873  0.2660
25318SOL    HW179485  10.235   0.638  10.366 -0.3954  0.2751 -0.6684
25318SOL    HW279486  10.327   0.723  10.451 -2.7491  0.6688  1.5998
25319SOL     OW79487   0.690   0.663   0.886 -0.0469 -0.1590 -0.4497
25319SOL    HW179488   0.726   0.714   0.958  2.9265 -1.2235 -1.0473
25319SOL    HW279489   0.722   0.574   0.900 -1.4215 -0.9310 -1.8181
25320SOL     OW79490   5.896   8.785   5.986  0.1618  0.6823  1.0737
25320SOL    HW179491   5.891   8.847   5.914  0.9337 -0.7881 -0.3360
25320SOL    HW279492   5.970   8.814   6.038  3.2286 -1.1477 -1.8474
25321SOL     OW79493   0.176   1.633   8.720 -0.5294 -0.5544 -0.3869
25321SOL    HW179494   0.163   1.571   8.792 -2.2934 -0.4234 -0.5399
25321SOL    HW279495   0.192   1.578   8.644 -1.1467 -0.7975 -0.3480
25322SOL     OW79496  10.675   4.003   7.361  0.2618  0.7502 -0.0969
25322SOL    HW179497  10.594   4.034   7.321  0.0444 -0.7277 -0.8947
25322SOL    HW279498  10.651   3.981   7.451 -0.6771 -1.1609 -0.7470
25323SOL     OW79499   7.927   2.526   6.037 -0.3761  0.2070 -0.1606
25323SOL    HW179500   7.954   2.594   6.099  0.3226 -0.2839  0.0815
25323SOL    HW279501   7.951   2.444   6.079 -0.1568 -0.1440 -0.9480
25324SOL     OW79502  10.995   0.415   8.409  0.5749 -0.4180  0.1636
25324SOL    HW179503  11.008   0.358   8.333  2.8969 -0.4636  0.5143
25324SOL    HW279504  11.054   0.489   8.394 -0.9790  0.9755  0.6389
25325SOL     OW79505   4.084  10.819   5.305  0.3079  0.5270  1.2379
25325SOL    HW179506   4.060  10.825   5.397  0.2227  1.8849  1.1491
25325SOL    HW279507   4.010  10.860   5.258  0.3549 -0.1287  0.5693
25326SOL     OW79508   9.829   7.906   1.892 -0.3255  0.6698  0.0321
25326SOL    HW179509   9.837   8.001   1.881  0.3213  0.5640 -0.4635
25326SOL    HW279510   9.765   7.895   1.962  1.1447  1.5231  1.5800
25327SOL     OW79511   5.137   4.839   7.469 -0.3039  0.1525  0.4964
25327SOL    HW179512   5.178   4.855   7.383  1.6438 -1.1790  1.1084
25327SOL    HW279513   5.075   4.768   7.453  1.4495 -1.4655  0.4682
25328SOL     OW79514   9.530   1.714   8.168  0.7221 -0.4309 -0.1909
25328SOL    HW179515   9.523   1.752   8.080 -0.6426 -0.4653 -0.1135
25328SOL    HW279516   9.596   1.645   8.158 -0.9808 -1.9357 -1.7719
25329SOL     OW79517   4.856   3.271   8.067  0.1472  0.0111  0.2615
25329SOL    HW179518   4.839   3.340   8.131  1.6907  1.4381 -0.7825
25329SOL    HW279519   4.871   3.192   8.119  0.0835  0.8408  1.5777
25330SOL     OW79520   6.154   9.446   3.588  0.2695 -0.2668 -0.0175
25330SOL    HW179521   6.066   9.477   3.609  1.3593  2.0809  1.4886
25330SOL    HW279522   6.164   9.466   3.495 -0.9187 -1.0185 -0.3372
25331SOL     OW79523   2.668   2.465   4.054 -0.0921 -0.3243 -0.2084
25331SOL    HW179524   2.751   2.417   4.057 -0.6991 -1.3690  1.4396
25331SOL    HW279525   2.614   2.423   4.121 -2.3451 -0.3728 -1.9393
25332SOL     OW79526   8.337   4.886   3.593 -0.0845 -0.2622 -0.1899
25332SOL    HW179527   8.283   4.821   3.549 -0.9368 -0.5423  1.2057
25332SOL    HW279528   8.420   4.842   3.608 -0.2268 -0.5955 -0.3597
25333SOL     OW79529  10.053   1.117   2.463  0.2645  0.0756  0.1431
25333SOL    HW179530  10.132   1.125   2.516  1.7578 -0.3434 -1.8980
25333SOL    HW279531   9.989   1.173   2.507  1.4126 -0.1769  2.2894
25334SOL     OW79532  10.561   2.181   2.980  0.4168 -0.7935 -0.1506
25334SOL    HW179533  10.637   2.230   2.950 -0.2256 -0.3605 -1.1394
25334SOL    HW279534  10.596   2.096   3.006  1.1849 -0.7649 -1.0275
25335SOL     OW79535   2.720   6.609   3.286 -0.0566 -0.2638  0.2140
25335SOL    HW179536   2.772   6.620   3.366  0.4408  0.8632 -0.2351
25335SOL    HW279537   2.695   6.699   3.262 -1.4337 -0.7066 -0.1073
25336SOL     OW79538   6.204   0.565   2.369 -0.0506 -0.6034 -0.2061
25336SOL    HW179539   6.185   0.480   2.408 -2.8705 -0.7995 -1.7010
25336SOL    HW279540   6.291   0.555   2.330 -0.7016 -3.1700 -1.1843
25337SOL     OW79541   8.748   5.130  10.664 -0.1524 -0.3800 -0.1899
25337SOL    HW179542   8.779   5.214  10.631 -0.1623 -0.0625  0.5774
25337SOL    HW279543   8.819   5.069  10.646  1.1935  0.4239  1.9470
25338SOL     OW79544   4.258   1.394   0.033  0.3840  0.5751  0.5578
25338SOL    HW179545   4.223   1.479   0.010  1.2006  0.8107  0.1738
25338SOL    HW279546   4.352   1.401   0.017  0.3512 -0.6719 -0.3421
25339SOL     OW79547   1.857   1.384   3.350  0.2935  0.2593 -0.2967
25339SOL    HW179548   1.950   1.373   3.371  0.2552 -0.0715 -0.3006
25339SOL    HW279549   1.824   1.443   3.418 -0.4750 -2.9838  2.3769
25340SOL     OW79550   8.441   4.046   7.204  0.0213  0.4528 -0.4427
25340SOL    HW179551   8.500   4.016   7.273 -0.2851 -1.1127 -0.8335
25340SOL    HW279552   8.356   4.007   7.227 -0.1625  0.1990 -1.5246
25341SOL     OW79553   1.858   8.220   8.462 -0.5042 -0.0386 -0.0483
25341SOL    HW179554   1.902   8.281   8.403  1.0617 -1.6324 -0.6062
25341SOL    HW279555   1.769   8.212   8.427  0.0162  0.0426 -1.4298
25342SOL     OW79556   3.072   6.185   7.204  0.1417  0.9084  0.3940
25342SOL    HW179557   3.099   6.126   7.275 -0.1614 -0.4419 -0.5838
25342SOL    HW279558   2.984   6.155   7.180  0.3182  1.2111 -0.6846
25343SOL     OW79559   9.430   4.049  10.687 -0.0892  0.3721  0.4992
25343SOL    HW179560   9.338   4.045  10.660 -0.6088  1.8421  1.8532
25343SOL    HW279561   9.434   3.994  10.765 -0.4992  2.3129  1.9833
25344SOL     OW79562   9.166  10.466  10.022 -0.6031 -0.1495  0.4266
25344SOL    HW179563   9.185  10.375   9.999 -0.6601 -0.0904  0.1419
25344SOL    HW279564   9.212  10.480  10.104 -1.0632 -0.6162  0.7775
25345SOL     OW79565   1.215   5.879  10.859  0.1394 -0.0369 -0.1118
25345SOL    HW179566   1.241   5.787  10.864  0.3905  0.0358 -0.0460
25345SOL    HW279567   1.197   5.905  10.949  0.6080  0.1287 -0.0630
25346SOL     OW79568   8.500   5.935   8.253 -0.5103  0.4257  0.0656
25346SOL    HW179569   8.540   6.022   8.260  1.8656 -0.2726 -2.7780
25346SOL    HW279570   8.422   5.949   8.200  1.5684  0.5670 -3.2266
25347SOL     OW79571   9.786   7.854   3.555 -0.5118 -0.1772  0.2269
25347SOL    HW179572   9.798   7.948   3.562  1.1833 -0.2534 -0.9848
25347SOL    HW279573   9.705   7.843   3.505 -0.2825  0.6630 -0.3428
25348SOL     OW79574   4.732   2.266   7.505  0.3598  0.1280  0.2464
25348SOL    HW179575   4.643   2.294   7.483  0.4775  1.5356  1.4196
25348SOL    HW279576   4.738   2.176   7.472 -1.2886  0.2163 -0.3733
25349SOL     OW79577   5.888   3.404   9.500  0.1890  0.4632 -0.7486
25349SOL    HW179578   5.796   3.428   9.514 -0.6990 -2.2689 -1.2482
25349SOL    HW279579   5.932   3.430   9.580 -1.9536 -2.0218  1.4412
25350SOL     OW79580   1.315   2.106   1.289 -0.2754 -0.3389 -0.1996
25350SOL    HW179581   1.388   2.045   1.301 -1.3328 -1.9854 -1.6196
25350SOL    HW279582   1.255   2.087   1.361  1.1025  1.7957  1.6385
25351SOL     OW79583   2.580   5.624   2.666 -0.0749  0.2640  0.7046
25351SOL    HW179584   2.515   5.689   2.694 -1.1015 -0.6142  0.4198
25351SOL    HW279585   2.662   5.654   2.705 -0.5013  1.8018  0.4712
25352SOL     OW79586   6.527   3.343   5.010  0.0443 -0.0270 -0.1007
25352SOL    HW179587   6.489   3.389   4.935 -0.2609  0.7803  0.5351
25352SOL    HW279588   6.505   3.251   4.995  0.1107  0.0996 -1.0643
25353SOL     OW79589   4.212   8.851   0.647  0.2063 -0.3520  0.4482
25353SOL    HW179590   4.269   8.784   0.610 -0.3873  0.7396 -2.7177
25353SOL    HW279591   4.132   8.847   0.594 -1.3253  0.4413  2.5551
25354SOL     OW79592  11.024   1.099   9.410  0.2950  0.3107 -0.6249
25354SOL    HW179593  10.956   1.092   9.343 -0.5469  0.7793  0.1491
25354SOL    HW279594  10.978   1.080   9.492  1.4678 -1.0551 -0.2467
25355SOL     OW79595   9.190   1.870   5.338 -0.1100 -0.1608 -0.0293
25355SOL    HW179596   9.212   1.922   5.261  1.2325  0.3835  0.6941
25355SOL    HW279597   9.274   1.851   5.380 -0.9059  2.0386  2.8998
25356SOL     OW79598   0.595   8.598   5.907 -0.6547 -0.1084  0.1232
25356SOL    HW179599   0.571   8.633   5.822 -2.0153 -1.1054  0.0660
25356SOL    HW279600   0.686   8.626   5.920  0.4019 -1.8393 -2.6860
25357SOL     OW79601   3.421   5.372   5.011 -0.5867  0.1075  0.2157
25357SOL    HW179602   3.490   5.350   4.948 -1.2893 -1.8008  0.0625
25357SOL    HW279603   3.443   5.321   5.089 -0.6495  1.1739  0.9561
25358SOL     OW79604   3.637   5.229   3.797 -0.1447 -0.4427  0.1182
25358SOL    HW179605   3.664   5.168   3.728  0.5219  0.1902 -0.1959
25358SOL    HW279606   3.647   5.316   3.758 -0.9723 -0.1144  0.5944
25359SOL     OW79607   6.079   1.764   7.295 -0.0169 -0.1585  0.0418
25359SOL    HW179608   6.152   1.708   7.322 -1.7506 -2.8776 -0.5264
25359SOL    HW279609   6.109   1.804   7.213  1.4311  0.0961  0.6612
25360SOL     OW79610   0.219   4.415   5.866  0.3834  0.5137 -0.6962
25360SOL    HW179611   0.141   4.398   5.813 -0.5576  0.4240  0.6684
25360SOL    HW279612   0.292   4.394   5.809 -0.5695  1.1363 -2.1986
25361SOL     OW79613   1.993   8.200   4.948 -0.1525 -0.2646  0.5471
25361SOL    HW179614   2.005   8.244   5.032  0.4142  1.6293 -0.4468
25361SOL    HW279615   2.081   8.199   4.909 -0.6101  0.0317 -0.5316
25362SOL     OW79616   4.364   0.144   8.413 -0.2237 -0.5599 -0.1748
25362SOL    HW179617   4.359   0.240   8.412  0.0933 -0.4433  2.6903
25362SOL    HW279618   4.292   0.116   8.356 -1.3108  1.3882  0.1409
25363SOL     OW79619   6.330   9.615   7.554 -0.2308 -0.1230  0.1182
25363SOL    HW179620   6.403   9.578   7.603 -0.7645 -1.4779 -0.0706
25363SOL    HW279621   6.254   9.607   7.613 -0.4672  0.1221 -0.1494
25364SOL     OW79622   3.280   1.381   6.782  0.7184  0.3759 -0.4734
25364SOL    HW179623   3.283   1.309   6.846  0.9357  1.5951  0.9533
25364SOL    HW279624   3.187   1.392   6.763  0.7174 -0.5531 -1.0264
25365SOL     OW79625   8.629   9.547   2.398 -0.1232  0.3152  0.2305
25365SOL    HW179626   8.663   9.622   2.349  1.1280 -0.5512 -0.2820
25365SOL    HW279627   8.543   9.576   2.430  0.8126  2.3936  1.0707
25366SOL     OW79628   4.126   1.456   6.098 -0.0600  0.4345 -0.5087
25366SOL    HW179629   4.045   1.434   6.051  0.4660 -0.6649 -0.9299
25366SOL    HW279630   4.172   1.373   6.107  0.7965  0.9663  0.1836
25367SOL     OW79631   1.785   6.889   3.400  0.0577  0.4751 -1.0294
25367SOL    HW179632   1.861   6.896   3.342 -1.2626  1.1036 -2.7718
25367SOL    HW279633   1.719   6.846   3.346 -0.4253 -1.3679  0.9061
25368SOL     OW79634   0.282   1.008   5.552  0.2312 -0.0237  0.1604
25368SOL    HW179635   0.353   0.975   5.607  0.8198 -0.1644 -0.6553
25368SOL    HW279636   0.324   1.070   5.493  0.0543 -1.3953 -1.5225
25369SOL     OW79637   8.841   0.382   6.848 -0.1190 -0.0634  0.1458
25369SOL    HW179638   8.850   0.428   6.765  2.8631 -0.1467  0.3093
25369SOL    HW279639   8.927   0.389   6.889 -1.3733 -0.3319  3.1032
25370SOL     OW79640   8.529   9.781   4.141  0.3282 -0.7505  0.6873
25370SOL    HW179641   8.585   9.796   4.218 -2.2604 -0.5688  2.6884
25370SOL    HW279642   8.531   9.686   4.128  1.1571 -0.7358  0.6784
25371SOL     OW79643   0.736   4.548   3.967  0.2828 -0.4328  0.3991
25371SOL    HW179644   0.669   4.588   4.023  0.3642  0.0950  0.1309
25371SOL    HW279645   0.688   4.487   3.912  0.1310 -0.6003  0.7138
25372SOL     OW79646   3.293  10.598   9.651  0.4906  0.4045  0.0462
25372SOL    HW179647   3.248  10.551   9.721  1.3302 -1.7217 -0.7557
25372SOL    HW279648   3.244  10.576   9.571  2.0433 -0.8022 -0.6310
25373SOL     OW79649  10.441   1.494   9.951 -0.2559  0.3111  0.7638
25373SOL    HW179650  10.486   1.422   9.996  1.8826 -0.1914 -1.8922
25373SOL    HW279651  10.361   1.454   9.917 -0.1798 -0.2211  1.1920
25374SOL     OW79652   4.586  10.566   3.272 -0.1620  0.4725 -0.4780
25374SOL    HW179653   4.612  10.653   3.301 -0.5046  0.5863 -0.5145
25374SOL    HW279654   4.556  10.579   3.182  0.8723  0.1282 -0.8912
25375SOL     OW79655   1.025   5.298   3.720 -0.3477 -0.3209 -0.0709
25375SOL    HW179656   1.007   5.254   3.636  2.2601  0.5537 -1.1949
25375SOL    HW279657   1.119   5.287   3.732 -0.2199  1.8910  1.3900
25376SOL     OW79658   1.868   5.013   3.340  0.4144  0.1375  0.2358
25376SOL    HW179659   1.922   4.935   3.349  0.0768 -0.0821  0.3763
25376SOL    HW279660   1.900   5.056   3.261  1.1949  0.3238  0.6426
25377SOL     OW79661   4.746   8.562   8.763  0.0164  0.2771  0.0057
25377SOL    HW179662   4.841   8.562   8.771 -0.0428 -1.4573  1.2177
25377SOL    HW279663   4.729   8.524   8.676  0.4041  2.7276 -1.2333
25378SOL     OW79664   3.842   3.519   1.523 -0.1390 -0.3254 -0.3455
25378SOL    HW179665   3.926   3.560   1.544  0.9950 -2.3034 -0.8441
25378SOL    HW279666   3.829   3.454   1.592 -1.3180 -0.0037 -0.2378
25379SOL     OW79667   6.959   8.136   9.701  0.1529 -0.1646  0.5463
25379SOL    HW179668   6.968   8.069   9.633  0.4411 -1.3090  1.6786
25379SOL    HW279669   7.030   8.198   9.684  0.7962 -0.9433  0.3469
25380SOL     OW79670   9.890   5.240  10.680  0.5306  0.1886 -0.1690
25380SOL    HW179671   9.827   5.191  10.734  2.6541  0.6042  2.9498
25380SOL    HW279672   9.936   5.296  10.742  2.6743  1.3217 -2.6140
25381SOL     OW79673   9.468   0.774   2.137  0.1313 -0.3000  0.2396
25381SOL    HW179674   9.500   0.841   2.077 -0.1428 -1.5038 -1.3051
25381SOL    HW279675   9.456   0.820   2.220  1.2625  1.2353 -0.4063
25382SOL     OW79676   1.389   9.145   8.442 -0.1400  0.2859  0.0447
25382SOL    HW179677   1.384   9.102   8.356 -0.3973  0.5777 -0.0874
25382SOL    HW279678   1.344   9.229   8.430  0.4859  0.6617  0.2618
25383SOL     OW79679   5.792   8.178   5.886  0.1651  1.1347  0.0192
25383SOL    HW179680   5.884   8.160   5.905 -0.0773 -0.0570  0.1366
25383SOL    HW279681   5.773   8.259   5.934  0.9277  0.9403  0.6721
25384SOL     OW79682   2.442   3.353  10.984 -0.6699  0.4593 -0.2394
25384SOL    HW179683   2.404   3.266  10.983 -3.6639  1.5854  1.9309
25384SOL    HW279684   2.537   3.338  10.986 -1.0672 -2.8916  3.1324
25385SOL     OW79685   0.078  11.022   7.967 -0.1978  0.0001 -0.0686
25385SOL    HW179686   0.128  11.033   8.048  0.2310 -0.2824 -0.2914
25385SOL    HW279687   0.004  10.968   7.993 -0.8059  1.0357  0.4237
25386SOL     OW79688   1.983   5.134   6.267 -0.0263 -0.4319 -0.4385
25386SOL    HW179689   1.954   5.059   6.215  1.9664 -1.2313 -0.4854
25386SOL    HW279690   2.058   5.169   6.219  1.4598 -0.7744  1.4983
25387SOL     OW79691   9.533   0.670   0.336  0.4497 -0.0199 -0.1725
25387SOL    HW179692   9.499   0.639   0.252 -2.4795 -0.4882  1.0705
25387SOL    HW279693   9.486   0.752   0.353  3.3637  1.8450 -0.3818
25388SOL     OW79694   1.600   5.539   4.905  0.0084  0.0942  0.0528
25388SOL    HW179695   1.522   5.567   4.951 -0.1293  0.7832 -0.5817
25388SOL    HW279696   1.574   5.536   4.813  0.1591 -1.6518  0.0277
25389SOL     OW79697   3.958   7.883   4.304 -0.0032 -0.1144 -0.3247
25389SOL    HW179698   3.889   7.924   4.355  0.4624 -0.4274  0.5808
25389SOL    HW279699   4.029   7.948   4.303 -0.9101  0.9690 -2.7710
25390SOL     OW79700  10.871   7.525   4.017 -0.0717 -0.2322 -0.3397
25390SOL    HW179701  10.779   7.498   4.020  0.4736 -2.1766  0.1812
25390SOL    HW279702  10.918   7.454   4.061  1.4171  2.0432  2.0279
25391SOL     OW79703   6.836   5.601   5.386  0.2692  0.6590 -0.1361
25391SOL    HW179704   6.849   5.579   5.294  0.7618  0.0017  0.0874
25391SOL    HW279705   6.795   5.524   5.425  1.7966  0.1844  0.5968
25392SOL     OW79706  10.261   8.770   9.350  0.0695 -0.9121 -0.2563
25392SOL    HW179707  10.317   8.748   9.425 -1.4024 -1.8340  0.6253
25392SOL    HW279708  10.320   8.770   9.275  1.6279  0.2208  0.9071
25393SOL     OW79709   8.459   8.630   4.291 -0.5235  0.5133  0.0363
25393SOL    HW179710   8.495   8.545   4.317  0.2827 -0.0970 -2.7183
25393SOL    HW279711   8.436   8.619   4.199 -1.6915  2.9047 -0.0330
25394SOL     OW79712  10.730   9.836   1.005 -0.1838 -0.4817 -0.4954
25394SOL    HW179713  10.697   9.924   0.988  1.4887  0.6041  1.3931
25394SOL    HW279714  10.715   9.788   0.923 -0.6041  1.7190 -1.7865
25395SOL     OW79715   4.591  10.518   3.955 -0.6176  0.3089 -0.4241
25395SOL    HW179716   4.678  10.558   3.958 -0.2085 -0.5283 -0.6805
25395SOL    HW279717   4.607  10.425   3.971 -1.6496  0.3688  1.1402
25396SOL     OW79718   8.210   6.120   6.865  0.0215 -0.6226 -0.0343
25396SOL    HW179719   8.141   6.144   6.803  1.0269  0.8499 -0.6749
25396SOL    HW279720   8.263   6.055   6.819 -0.4211 -1.0783  0.1021
25397SOL     OW79721   9.930  10.961   5.506  0.7344 -0.2146  0.1770
25397SOL    HW179722   9.841  10.947   5.539  0.5659 -0.6307 -0.4391
25397SOL    HW279723   9.982  10.981   5.584 -0.0746  0.9796  0.4391
25398SOL     OW79724   2.645   2.031   0.286 -0.3089 -0.2842 -0.6904
25398SOL    HW179725   2.602   2.063   0.365  2.1739 -0.1962  0.7101
25398SOL    HW279726   2.629   1.937   0.286  0.9690 -0.5409  0.8255
25399SOL     OW79727   9.539   8.970   5.307 -0.1541  0.1047  0.7170
25399SOL    HW179728   9.550   8.973   5.212 -0.8151  2.1721  0.6416
25399SOL    HW279729   9.609   8.914   5.338  0.6373  0.1199 -0.9292
25400SOL     OW79730   6.943   3.600   1.577 -0.7436 -0.4525 -0.0587
25400SOL    HW179731   6.903   3.672   1.527 -0.3961 -0.1051  0.1588
25400SOL    HW279732   6.901   3.521   1.542  1.3039 -0.4965 -2.7730
25401SOL     OW79733   3.450   3.103   9.409  0.1201 -0.2181  0.1352
25401SOL    HW179734   3.528   3.138   9.452 -0.5806 -0.2659  1.4820
25401SOL    HW279735   3.385   3.173   9.415 -0.6328 -0.9607  0.9950
25402SOL     OW79736   4.618  10.676   5.431  0.0559  0.2317  0.3345
25402SOL    HW179737   4.617  10.588   5.392 -0.4970  0.4881 -0.2450
25402SOL    HW279738   4.546  10.722   5.388  0.7691  1.1852  0.1322
25403SOL     OW79739   4.177   8.630   2.852 -0.4419  0.0887 -0.1499
25403SOL    HW179740   4.244   8.565   2.828  0.2135  0.9880 -0.8159
25403SOL    HW279741   4.160   8.679   2.772 -0.6372  0.9966  0.4288
25404SOL     OW79742   4.771   0.536   4.815  0.0437 -0.3785  0.5184
25404SOL    HW179743   4.755   0.447   4.785  2.2406 -0.0746 -1.9591
25404SOL    HW279744   4.752   0.534   4.909 -1.1992 -3.0806  0.3051
25405SOL     OW79745   4.576   3.665   3.950 -0.2084  0.3467  0.0308
25405SOL    HW179746   4.587   3.760   3.950 -2.2590  0.6288 -0.3879
25405SOL    HW279747   4.600   3.638   3.861  0.0110  0.5231  0.0353
25406SOL     OW79748   5.470   2.481   5.313 -0.2012 -0.3924  0.3813
25406SOL    HW179749   5.526   2.467   5.236  0.5467 -1.8923  1.1595
25406SOL    HW279750   5.527   2.525   5.376  0.9308 -3.7356  1.9635
25407SOL     OW79751   5.554   9.000   6.622 -0.0795  0.0861 -0.3086
25407SOL    HW179752   5.539   8.960   6.537  0.3096 -1.4809  0.3214
25407SOL    HW279753   5.635   8.961   6.654 -0.3804  0.3891  0.9148
25408SOL     OW79754   7.234   9.268   4.924  0.3795  0.2284 -0.6679
25408SOL    HW179755   7.318   9.292   4.964 -0.8381  0.5493  1.9637
25408SOL    HW279756   7.185   9.351   4.921  0.4228  0.2160 -3.0161
25409SOL     OW79757   9.205   6.100   7.825 -0.0484  0.2245 -0.0527
25409SOL    HW179758   9.292   6.097   7.784 -0.1822 -0.8034 -0.2948
25409SOL    HW279759   9.220   6.138   7.911  0.6908 -0.1693 -0.0009
25410SOL     OW79760   2.351   5.783  10.384  0.1037 -0.6527 -0.0329
25410SOL    HW179761   2.290   5.856  10.395  1.4289  0.3092  1.4141
25410SOL    HW279762   2.415   5.814  10.320  0.2346 -0.8294  0.0122
25411SOL     OW79763   9.624   0.641   8.582 -0.0972  0.0015 -0.3243
25411SOL    HW179764   9.679   0.683   8.648 -0.8025  0.0608  0.2413
25411SOL    HW279765   9.571   0.712   8.545  1.0273  0.1611 -1.7368
25412SOL     OW79766   8.275   3.260   1.996  0.3857 -0.2300  0.1803
25412SOL    HW179767   8.286   3.340   2.047 -0.1200  0.8032 -1.2593
25412SOL    HW279768   8.181   3.246   1.993  0.4338 -0.4994 -0.1310
25413SOL     OW79769  10.388   8.412   1.548 -0.4196  0.4950 -0.2434
25413SOL    HW179770  10.356   8.499   1.570  0.9900  0.7655  0.9095
25413SOL    HW279771  10.482   8.424   1.533 -0.4550 -0.5827 -1.5533
25414SOL     OW79772   6.610   4.303   2.046  0.3848 -0.0888 -0.2230
25414SOL    HW179773   6.585   4.388   2.083  0.5601 -1.2848  2.8948
25414SOL    HW279774   6.704   4.311   2.029  1.0353 -0.3733  2.6338
25415SOL     OW79775   9.698  10.958   6.590 -0.2560  0.1183 -0.1850
25415SOL    HW179776   9.616  10.922   6.557  0.1283 -0.7049 -0.2642
25415SOL    HW279777   9.720  11.027   6.528 -0.9748  0.4710 -0.0632
25416SOL     OW79778   1.038   7.016   5.370  0.4353  0.5728 -0.0532
25416SOL    HW179779   1.006   6.925   5.366  0.8314  0.4674 -1.2180
25416SOL    HW279780   0.966   7.064   5.410 -1.3086  0.3393 -2.6077
25417SOL     OW79781  10.579   9.373  10.122 -0.2269  0.2587 -0.6644
25417SOL    HW179782  10.536   9.371  10.207  0.3116 -0.9704 -0.3944
25417SOL    HW279783  10.515   9.336  10.061  0.3011 -1.3916 -0.2952
25418SOL     OW79784   0.466   7.500   7.586 -0.5812  0.3457  0.3817
25418SOL    HW179785   0.438   7.584   7.550  1.0477  0.4550 -0.7117
25418SOL    HW279786   0.425   7.435   7.529 -0.9673  0.4135  0.5762
25419SOL     OW79787   2.174   6.280   2.470  0.4934  0.4897 -0.2862
25419SOL    HW179788   2.142   6.324   2.391 -0.5707 -1.4384 -0.9981
25419SOL    HW279789   2.099   6.229   2.501  1.6536 -0.8464  0.4451
25420SOL     OW79790   8.579   1.035   4.377 -0.4487  0.2517  0.2329
25420SOL    HW179791   8.527   0.965   4.417 -0.2312 -0.4548 -0.6785
25420SOL    HW279792   8.560   1.112   4.430 -4.2748  0.6158 -1.3235
25421SOL     OW79793   6.624  10.890   8.141  0.4083 -0.0080  0.0170
25421SOL    HW179794   6.716  10.871   8.121 -0.1788 -2.5612 -0.6533
25421SOL    HW279795   6.627  10.944   8.219  2.4679 -1.5591  1.1235
25422SOL     OW79796   5.535   9.561   9.489 -0.4347 -0.6890 -0.0241
25422SOL    HW179797   5.578   9.617   9.424 -0.3290  1.3904  1.7243
25422SOL    HW279798   5.447   9.597   9.498 -0.8829 -1.7676  0.0640
25423SOL     OW79799   9.579   4.182   1.240  0.3660 -0.0633 -0.0955
25423SOL    HW179800   9.517   4.208   1.171  0.5171 -1.2720 -0.7199
25423SOL    HW279801   9.553   4.233   1.316 -1.9591 -1.1047 -0.0802
25424SOL     OW79802   9.050   6.992  10.442  0.0473  0.3147  0.0929
25424SOL    HW179803   9.107   7.060  10.408  0.8569  0.1053  1.0018
25424SOL    HW279804   9.028   7.020  10.530 -1.3846  0.4578 -0.2756
25425SOL     OW79805   5.096   5.677   3.661 -0.0172 -0.3522  0.1872
25425SOL    HW179806   5.114   5.651   3.751 -2.6393 -0.2713  0.8183
25425SOL    HW279807   5.134   5.608   3.608 -0.5756 -1.7243  1.5064
25426SOL     OW79808  10.853   3.189   8.577  0.3896 -0.6169  0.1464
25426SOL    HW179809  10.946   3.208   8.568  0.3299 -0.6848 -0.6326
25426SOL    HW279810  10.810   3.273   8.563  0.4208 -0.1046  2.7025
25427SOL     OW79811   7.197   6.217   0.427 -0.3805 -0.0572 -0.0418
25427SOL    HW179812   7.213   6.190   0.336 -0.1645 -2.2258  0.5775
25427SOL    HW279813   7.275   6.269   0.450 -0.8482  1.2780 -1.3320
25428SOL     OW79814   6.175   4.935   0.052  0.4456 -0.2230  0.0045
25428SOL    HW179815   6.251   4.993   0.054  0.6953 -0.5484  0.2286
25428SOL    HW279816   6.188   4.877   0.127 -1.1491  1.1155  1.3990
25429SOL     OW79817   2.472   1.992   5.442 -0.4648  0.3926 -0.2528
25429SOL    HW179818   2.382   1.999   5.476  0.0133  2.1137  0.7569
25429SOL    HW279819   2.503   1.908   5.476 -1.6057 -0.1221 -0.4190
25430SOL     OW79820   9.955   7.444   8.118  0.0425  0.0510 -0.0334
25430SOL    HW179821   9.947   7.512   8.185 -0.5374 -0.8673  0.8718
25430SOL    HW279822   9.970   7.491   8.037  1.8819  1.1797  0.8839
25431SOL     OW79823   4.953  10.781   9.656 -0.0513 -0.0555 -0.1442
25431SOL    HW179824   4.893  10.811   9.724 -1.6014 -2.4467 -0.3572
25431SOL    HW279825   5.009  10.716   9.700  0.7368  0.3165 -0.5632
25432SOL     OW79826   8.452   0.043  10.534  0.2404  0.2933  0.2076
25432SOL    HW179827   8.380  -0.016  10.512  0.0811 -0.6569  2.9653
25432SOL    HW279828   8.525   0.013  10.481 -0.7430 -0.1686 -0.9435
25433SOL     OW79829  10.427   4.245   8.882 -0.2001  0.7169 -0.5306
25433SOL    HW179830  10.349   4.206   8.921  0.1785  2.2593  2.0477
25433SOL    HW279831  10.499   4.212   8.935  0.5075  1.8649 -0.7418
25434SOL     OW79832   2.525   5.549   6.653 -0.1721  0.0289  0.2761
25434SOL    HW179833   2.540   5.460   6.683  1.0830 -0.2852 -1.1836
25434SOL    HW279834   2.571   5.604   6.716 -1.3312 -0.2966  1.4416
25435SOL     OW79835   7.579   5.074   4.188  0.4169  0.3896  0.7428
25435SOL    HW179836   7.570   5.168   4.174 -0.0589  0.2216 -0.1455
25435SOL    HW279837   7.515   5.054   4.256  0.2624  0.6418  0.6734
25436SOL     OW79838   0.945   0.922   4.171 -0.4690 -0.1202 -0.3121
25436SOL    HW179839   0.883   0.936   4.100  0.8059 -0.0409 -1.4440
25436SOL    HW279840   1.024   0.969   4.145 -0.6992  1.9084  2.2605
25437SOL     OW79841   0.474   4.949   2.480 -0.1429 -0.2756 -0.0302
25437SOL    HW179842   0.435   4.891   2.414 -1.8494  0.2592  0.4597
25437SOL    HW279843   0.549   4.987   2.436 -1.5311  0.4742 -1.8932
25438SOL     OW79844   1.387   5.042   2.043 -0.2718 -0.0349 -0.1268
25438SOL    HW179845   1.477   5.055   2.012  0.1849 -2.0246  0.2703
25438SOL    HW279846   1.334   5.043   1.964  0.0824  1.0200 -0.3767
25439SOL     OW79847   8.211   4.975   5.408  0.3958  0.3743 -0.4482
25439SOL    HW179848   8.181   4.937   5.326  1.0189 -3.4045  0.8452
25439SOL    HW279849   8.138   4.964   5.468  0.6101  1.3247  0.0111
25440SOL     OW79850   3.635   9.076   6.190  0.3266 -0.0775 -0.9937
25440SOL    HW179851   3.596   8.997   6.152  1.9211 -1.5149  0.2006
25440SOL    HW279852   3.581   9.093   6.268  1.6672 -1.8223  0.4258
25441SOL     OW79853   6.494  10.167   8.614  0.0433 -0.3822 -0.3592
25441SOL    HW179854   6.413  10.181   8.566 -0.4126 -0.6284  0.3271
25441SOL    HW279855   6.505  10.072   8.618 -0.2149 -0.3819  0.4939
25442SOL     OW79856   2.435   2.257   0.750  0.0172  0.2443  0.4894
25442SOL    HW179857   2.371   2.283   0.816  0.8965  1.4175  0.9158
25442SOL    HW279858   2.405   2.300   0.669 -1.7322 -2.1444 -0.2586
25443SOL     OW79859   3.559   5.773  11.057 -0.2301 -0.3864  0.0150
25443SOL    HW179860   3.534   5.839  10.992 -0.3433 -0.9228 -0.4926
25443SOL    HW279861   3.646   5.800  11.086 -0.4987  0.2834  0.1981
25444SOL     OW79862  10.623   8.391   6.592 -0.0883 -0.5537  0.6699
25444SOL    HW179863  10.588   8.321   6.648 -0.0576 -0.4027  0.8749
25444SOL    HW279864  10.711   8.361   6.568 -0.2910 -0.8576  0.2875
25445SOL     OW79865  10.892  10.466   4.131 -0.5248 -0.5320 -0.0710
25445SOL    HW179866  10.836  10.415   4.188  0.0472 -0.0232  0.9853
25445SOL    HW279867  10.974  10.477   4.180  0.0550 -0.2227 -1.0575
25446SOL     OW79868   7.556   5.083   9.876 -0.6442 -0.5447 -0.0837
25446SOL    HW179869   7.623   5.026   9.915 -0.0216 -1.1279 -1.8851
25446SOL    HW279870   7.566   5.166   9.922 -0.3110 -1.3254  1.3231
25447SOL     OW79871   7.936   1.777   1.442 -0.1705 -0.3733 -0.3213
25447SOL    HW179872   7.935   1.684   1.421  1.4805 -0.4324 -0.2643
25447SOL    HW279873   7.854   1.811   1.406  0.4011 -1.3514 -2.7310
25448SOL     OW79874  10.143   4.374   2.553  0.5825  0.1280  0.3096
25448SOL    HW179875  10.074   4.361   2.488  2.1480  0.1919 -1.4725
25448SOL    HW279876  10.206   4.432   2.510  2.2251 -0.7161  1.4622
25449SOL     OW79877   3.190   8.539   0.525  0.4636 -0.3370  0.4358
25449SOL    HW179878   3.206   8.588   0.444 -1.1161 -1.1243 -0.3999
25449SOL    HW279879   3.249   8.578   0.589 -0.3903  2.3405 -0.2863
25450SOL     OW79880   9.609   0.998   7.835 -0.1554 -0.1357  0.7994
25450SOL    HW179881   9.672   0.963   7.898 -1.2112  0.2650  2.1432
25450SOL    HW279882   9.579   1.080   7.875 -0.0690  0.6840 -0.7616
25451SOL     OW79883   8.054   9.838   6.659 -0.3502 -0.4111 -0.4485
25451SOL    HW179884   7.976   9.839   6.604 -0.1280 -0.0570 -0.7619
25451SOL    HW279885   8.061   9.927   6.693 -1.0571 -0.8710  0.9839
25452SOL     OW79886   5.585   0.852   0.001  0.2385 -0.1491 -0.1176
25452SOL    HW179887   5.554   0.762   0.010 -0.2396 -0.0904 -1.1403
25452SOL    HW279888   5.672   0.843  -0.037 -0.3260 -0.1377 -1.4423
25453SOL     OW79889   0.795   3.562  10.586 -0.5538  0.0174 -0.2846
25453SOL    HW179890   0.700   3.553  10.592 -0.4662 -0.7350  0.1088
25453SOL    HW279891   0.826   3.475  10.562  0.1526 -0.1368  1.0620
25454SOL     OW79892   7.672   3.762  10.890 -0.0853  0.0292  0.0284
25454SOL    HW179893   7.613   3.687  10.887  0.2894 -0.2690 -0.0611
25454SOL    HW279894   7.747   3.731  10.942  0.6459 -0.0886 -1.0587
25455SOL     OW79895   5.475   7.614   5.003 -0.0227  0.0935 -0.1967
25455SOL    HW179896   5.567   7.595   5.018 -0.3015 -0.9466  0.2677
25455SOL    HW279897   5.475   7.678   4.932  1.1936  2.4469  1.7376
25456SOL     OW79898  10.505   8.990   2.411 -0.2671 -0.5778  0.2404
25456SOL    HW179899  10.568   8.949   2.471  0.2743 -1.2039 -0.7268
25456SOL    HW279900  10.419   8.962   2.444 -0.0235 -0.1974  1.2264
25457SOL     OW79901   4.505   0.453   3.245 -0.4570  0.2249 -0.1588
25457SOL    HW179902   4.458   0.474   3.165 -0.8713 -1.1082 -0.2823
25457SOL    HW279903   4.548   0.370   3.228 -0.5696 -0.0981  1.0033
25458SOL     OW79904   8.072   9.539   6.678  0.7608  0.2409 -0.4225
25458SOL    HW179905   8.081   9.472   6.610  3.2606  0.8813 -0.8187
25458SOL    HW279906   8.094   9.621   6.634 -0.6695  1.1464  0.4459
25459SOL     OW79907   7.230   0.333   8.050 -0.0885 -0.1382 -0.2534
25459SOL    HW179908   7.245   0.342   8.144  0.6092  0.4722 -0.4167
25459SOL    HW279909   7.297   0.272   8.021  0.4038  0.5137 -0.5257
25460SOL     OW79910   4.029  10.552   5.254 -0.2929 -0.5603 -0.1203
25460SOL    HW179911   4.000  10.643   5.246 -0.7691 -0.7843 -1.1249
25460SOL    HW279912   3.987  10.507   5.181  1.5162 -1.1787 -0.8417
25461SOL     OW79913  11.018   5.670   9.843  0.0084 -0.1893  0.7654
25461SOL    HW179914  10.970   5.605   9.894 -0.9395 -0.7084 -0.7181
25461SOL    HW279915  11.010   5.751   9.893  0.6511 -1.0429  2.3205
25462SOL     OW79916   3.280   6.465   3.311 -0.1267 -0.3037  0.1232
25462SOL    HW179917   3.191   6.467   3.347  0.4296  1.6714  1.5908
25462SOL    HW279918   3.310   6.555   3.318  1.6953 -0.7606 -1.1879
25463SOL     OW79919   6.880   7.814   4.989  0.9528 -0.7785 -0.1128
25463SOL    HW179920   6.789   7.842   4.990  0.2843 -2.7692  0.5981
25463SOL    HW279921   6.928   7.888   4.952 -0.9026  0.4167 -0.2535
25464SOL     OW79922   6.361   0.741   2.751  0.6959  0.2552  0.3204
25464SOL    HW179923   6.358   0.835   2.732 -0.2051  0.3222  0.7790
25464SOL    HW279924   6.404   0.703   2.674  0.4643  0.9654 -0.1689
25465SOL     OW79925   5.055  10.054   0.384 -0.3106 -0.3771  0.2180
25465SOL    HW179926   5.123  10.096   0.437 -0.6222 -0.1277  0.4260
25465SOL    HW279927   5.065   9.960   0.403 -0.6680 -0.2598  1.0237
25466SOL     OW79928   0.031  10.352   7.737  0.0276 -0.1092  0.2781
25466SOL    HW179929   0.014  10.262   7.712  1.1655 -0.4727  0.7662
25466SOL    HW279930   0.064  10.393   7.656 -1.2897  0.1087 -0.1674
25467SOL     OW79931   7.921   8.692   7.084 -0.6151 -0.3646 -0.6681
25467SOL    HW179932   7.829   8.694   7.060 -0.7836  0.1529 -0.0110
25467SOL    HW279933   7.966   8.665   7.004 -1.4057 -1.4790 -0.7639
25468SOL     OW79934   0.323   5.631   0.019 -0.3755 -0.3503  0.5224
25468SOL    HW179935   0.343   5.538   0.011  1.3012  0.0468 -0.3666
25468SOL    HW279936   0.257   5.647  -0.048  0.2709 -0.6560 -0.1954
25469SOL     OW79937   7.621   1.943   3.255 -0.2546 -0.5575  0.0409
25469SOL    HW179938   7.553   1.946   3.188 -1.5474 -1.9707  1.2321
25469SOL    HW279939   7.575   1.920   3.336  1.2259  1.2987  1.5081
25470SOL     OW79940   3.332   0.574   9.375 -0.3430  0.7272  0.4138
25470SOL    HW179941   3.314   0.528   9.293  1.9718  1.4380 -0.5803
25470SOL    HW279942   3.347   0.665   9.349 -0.8886  1.2382  1.8128
25471SOL     OW79943   0.354   8.882   6.651  0.1661  0.4235 -0.3538
25471SOL    HW179944   0.337   8.856   6.741  0.0045 -1.8082 -0.9722
25471SOL    HW279945   0.449   8.873   6.641  0.3160  1.6235 -0.1603
25472SOL     OW79946   3.714  10.005   9.714  0.3654 -0.0468  0.0170
25472SOL    HW179947   3.800  10.007   9.672  0.0360 -0.1039 -0.6895
25472SOL    HW279948   3.688   9.913   9.710  0.4252 -0.0891  0.5596
25473SOL     OW79949   9.230  10.090   0.516 -0.1318  0.8634 -0.4963
25473SOL    HW179950   9.257  10.131   0.434 -0.3623 -1.0354 -1.5714
25473SOL    HW279951   9.279  10.007   0.519 -2.1125 -0.3522 -0.0631
25474SOL     OW79952   6.488  10.053   0.156 -0.1259  0.6433  0.0339
25474SOL    HW179953   6.473  10.064   0.062 -0.1632  0.0050 -0.0404
25474SOL    HW279954   6.425  10.112   0.197  0.2523  1.3262 -0.3470
25475SOL     OW79955  10.085   6.653   3.916 -0.6724  0.0465  0.0173
25475SOL    HW179956  10.004   6.646   3.966 -0.9915  0.9945 -0.3474
25475SOL    HW279957  10.058   6.691   3.832 -0.3261 -2.4355 -1.3356
25476SOL     OW79958   1.051   9.089   8.295 -0.5256 -0.4091  0.1477
25476SOL    HW179959   1.004   9.096   8.212  1.2537  2.7596 -0.7499
25476SOL    HW279960   1.141   9.070   8.271 -0.6168 -3.5004  1.6936
25477SOL     OW79961   3.270   8.261  10.216  0.1088 -0.2354 -0.3396
25477SOL    HW179962   3.271   8.339  10.161  1.7647 -0.3197 -0.4840
25477SOL    HW279963   3.203   8.279  10.282 -0.2205  0.8763 -0.9582
25478SOL     OW79964   7.868   2.926   5.694  0.1650  0.3613 -0.1885
25478SOL    HW179965   7.935   2.985   5.726  0.1396 -0.7607  2.1278
25478SOL    HW279966   7.878   2.927   5.598  4.3176 -0.6785  0.0484
25479SOL     OW79967   7.607   6.616   2.192  0.5772 -0.6339 -0.0546
25479SOL    HW179968   7.548   6.598   2.119  0.5027  0.6483 -0.3420
25479SOL    HW279969   7.657   6.692   2.163  4.2059 -3.1053 -0.8964
25480SOL     OW79970   9.497   7.850   0.908 -0.9968 -0.2721 -0.1135
25480SOL    HW179971   9.475   7.927   0.856 -0.7684  0.3126  0.6453
25480SOL    HW279972   9.412   7.815   0.935 -1.1103 -0.4683 -0.7025
25481SOL     OW79973   5.541   0.922   4.144  0.4016 -0.3038 -0.0635
25481SOL    HW179974   5.501   0.894   4.062  0.2768  2.1675 -0.9556
25481SOL    HW279975   5.471   0.916   4.209 -0.1114 -0.3427 -0.6094
25482SOL     OW79976  10.542   2.129   5.754  0.6429 -0.3186 -0.2717
25482SOL    HW179977  10.626   2.103   5.793  1.1510  2.7175  0.8867
25482SOL    HW279978  10.477   2.084   5.807  1.4546 -1.7716 -0.4334
25483SOL     OW79979   0.634   7.629   5.188 -0.4142 -0.2276 -0.3101
25483SOL    HW179980   0.716   7.676   5.199 -0.0580 -0.4919 -1.6051
25483SOL    HW279981   0.568   7.684   5.231  0.2863  0.4613 -0.0992
25484SOL     OW79982   4.464   0.035   3.889  0.7743 -0.3763  0.0122
25484SOL    HW179983   4.488  -0.051   3.852  2.4310 -1.1785  2.6723
25484SOL    HW279984   4.477   0.096   3.816 -0.0115 -2.2963 -1.8380
25485SOL     OW79985   1.576   6.306   2.084  0.5535  0.1154  0.6329
25485SOL    HW179986   1.525   6.264   2.153 -2.8220 -0.0330 -1.6655
25485SOL    HW279987   1.631   6.235   2.048 -0.3674 -0.7382  0.8583
25486SOL     OW79988   0.405   8.428  10.242 -0.7938  0.4663  0.1670
25486SOL    HW179989   0.369   8.481  10.171 -1.8039 -0.1520  0.1949
25486SOL    HW279990   0.341   8.358  10.254 -1.6078  1.5901  2.9456
25487SOL     OW79991   6.946   3.708   3.908 -0.2086  0.0828  0.1394
25487SOL    HW179992   6.947   3.782   3.968  0.4484 -1.3504  2.0059
25487SOL    HW279993   7.038   3.679   3.904 -0.7452 -1.9994  1.3349
25488SOL     OW79994   7.233   3.168   7.034  0.3382 -0.2723  0.2213
25488SOL    HW179995   7.237   3.258   7.065 -2.1279  0.1153 -0.4102
25488SOL    HW279996   7.323   3.149   7.005  0.9664  1.8703  0.6068
25489SOL     OW79997   3.163   2.352   6.558 -0.8149 -0.7348 -0.6415
25489SOL    HW179998   3.168   2.446   6.543  1.1994 -0.5864  0.4851
25489SOL    HW279999   3.118   2.343   6.642  1.3853 -0.5086  0.6600
25490SOL     OW80000  10.014   2.157   1.410  0.0072  0.4076 -0.4978
25490SOL    HW180001  10.107   2.178   1.412 -0.2504  1.5362  0.8398
25490SOL    HW280002   9.971   2.229   1.456 -1.3953 -0.7551  0.1221
25491SOL     OW80003   7.901   9.598   0.667  0.4877  0.3634 -0.3049
25491SOL    HW180004   7.822   9.590   0.615 -0.2243  0.8600  0.6673
25491SOL    HW280005   7.919   9.509   0.698 -0.7396  0.5126  0.9415
25492SOL     OW80006   5.685  10.795   6.375  0.5934  0.0719  0.2818
25492SOL    HW180007   5.707  10.873   6.425  0.5072  1.7182 -2.0953
25492SOL    HW280008   5.740  10.726   6.413  1.9539  1.6633  1.3378
25493SOL     OW80009   8.351   0.634   7.019  0.0596 -0.2585  0.1583
25493SOL    HW180010   8.397   0.653   7.100 -0.4033 -2.0211  0.8837
25493SOL    HW280011   8.414   0.656   6.950  0.4289  1.3313  0.9630
25494SOL     OW80012   5.875  10.727   7.201  0.0651  0.4111  0.5054
25494SOL    HW180013   5.860  10.667   7.274  1.7201 -0.8860 -0.1595
25494SOL    HW280014   5.795  10.781   7.198 -0.8143 -0.7062  2.0971
25495SOL     OW80015   0.110   5.407   2.309  0.1656 -0.2133 -0.1623
25495SOL    HW180016   0.097   5.464   2.233 -0.9548 -0.8754 -0.4807
25495SOL    HW280017   0.174   5.454   2.363 -1.5931  1.9822  0.1850
25496SOL     OW80018   5.108   5.377   7.259  0.0319  0.8871 -0.0463
25496SOL    HW180019   5.111   5.472   7.247 -1.0831  0.6947 -2.7474
25496SOL    HW280020   5.180   5.344   7.206 -0.0421  0.2086  0.2663
25497SOL     OW80021   5.119   9.030   2.923 -0.3115  0.4934 -0.2297
25497SOL    HW180022   5.112   9.118   2.960  1.4065  0.8406 -0.6662
25497SOL    HW280023   5.189   9.036   2.859 -0.3787 -1.1260 -0.5027
25498SOL     OW80024   2.807  10.044   7.626 -0.4491  0.1796  0.1798
25498SOL    HW180025   2.754  10.062   7.549 -0.2578 -1.3431 -0.3427
25498SOL    HW280026   2.745  10.046   7.699 -0.3842  3.1507  0.2550
25499SOL     OW80027   2.458   1.099   0.425  0.3777 -0.4918 -0.2151
25499SOL    HW180028   2.533   1.065   0.473  0.6527  0.5679  0.1234
25499SOL    HW280029   2.396   1.026   0.423  1.3176 -1.3094 -0.3160
25500SOL     OW80030   6.881   3.900   4.118  0.7158 -0.2532  0.5167
25500SOL    HW180031   6.837   3.929   4.198 -0.3719 -0.6397  0.0770
25500SOL    HW280032   6.821   3.924   4.047  0.6462 -1.8424  0.0009
25501SOL     OW80033   5.618   6.441   8.939 -0.3304  0.2040  0.1269
25501SOL    HW180034   5.646   6.352   8.915  0.6186  0.7951 -1.0407
25501SOL    HW280035   5.678   6.467   9.009  0.0545  0.2957 -0.2318
25502SOL     OW80036   6.022   6.217   5.327  0.4058 -0.1677  0.1999
25502SOL    HW180037   6.113   6.194   5.308 -0.7888 -2.6824 -3.7149
25502SOL    HW280038   6.006   6.296   5.276  0.0528 -0.5530 -0.2945
25503SOL     OW80039   7.617   8.473   4.904 -0.3276 -0.3407 -0.4668
25503SOL    HW180040   7.566   8.393   4.921 -0.1517 -0.4406 -0.4026
25503SOL    HW280041   7.706   8.441   4.889 -0.3889 -0.2172 -1.1361
25504SOL     OW80042   0.454   0.744   5.832 -0.1266 -0.5127 -0.3222
25504SOL    HW180043   0.413   0.827   5.857 -0.7151 -0.4154 -1.5740
25504SOL    HW280044   0.534   0.741   5.885  1.6598  2.4556 -2.4872
25505SOL     OW80045   1.374   7.218   3.187  0.1684  0.4584 -0.1094
25505SOL    HW180046   1.398   7.308   3.162 -0.4678  0.0947 -2.1898
25505SOL    HW280047   1.280   7.213   3.171  0.1807 -0.5510  0.1057
25506SOL     OW80048  10.613   0.233   4.784  0.1493  0.4207 -0.3929
25506SOL    HW180049  10.667   0.194   4.716  1.2266  0.0481  0.6479
25506SOL    HW280050  10.568   0.159   4.825 -1.5122  0.7627 -1.5214
25507SOL     OW80051   4.221   1.390   5.702 -0.3318  0.5080 -0.4006
25507SOL    HW180052   4.231   1.366   5.610  2.2324  0.5943 -0.2173
25507SOL    HW280053   4.213   1.485   5.701 -1.4589  0.4285 -0.5672
25508SOL     OW80054   0.381   5.018   3.177 -0.2552 -0.0726 -0.0136
25508SOL    HW180055   0.432   5.086   3.132  1.0098  0.0511  1.5088
25508SOL    HW280056   0.321   5.066   3.233 -1.5050 -0.2293 -1.1766
25509SOL     OW80057   0.841   0.427   9.806 -0.1583 -0.6546 -0.1897
25509SOL    HW180058   0.822   0.411   9.714  3.2034  1.6816 -1.5210
25509SOL    HW280059   0.785   0.501   9.831  1.1916  0.8838 -1.4930
25510SOL     OW80060   3.942   9.484   3.936  0.5131  0.2731 -0.2298
25510SOL    HW180061   3.881   9.556   3.946  0.9266  0.5723  0.1782
25510SOL    HW280062   4.006   9.497   4.006  2.1410  1.0927 -1.7865
25511SOL     OW80063   4.608   7.200   3.375  0.2948  0.5571 -0.3291
25511SOL    HW180064   4.630   7.132   3.312 -1.4406  1.1530 -1.6649
25511SOL    HW280065   4.589   7.153   3.456 -0.5011 -0.5136 -1.1175
25512SOL     OW80066   9.493   1.370   2.187 -0.0371 -0.0914 -0.5866
25512SOL    HW180067   9.559   1.338   2.249 -1.0368  0.3345  0.7385
25512SOL    HW280068   9.526   1.456   2.159 -0.1698  0.2558  0.3034
25513SOL     OW80069   6.082   8.768   8.286 -0.4749  0.0457  0.1766
25513SOL    HW180070   6.011   8.810   8.334 -1.5788  0.8138 -1.9835
25513SOL    HW280071   6.040   8.735   8.206  1.7977  1.8619 -1.9274
25514SOL     OW80072   2.677   4.355   1.950 -0.2701 -0.0948  0.5969
25514SOL    HW180073   2.626   4.308   1.884  0.3708  1.0390 -0.7494
25514SOL    HW280074   2.625   4.346   2.030 -1.1688 -1.3358 -0.0877
25515SOL     OW80075   6.337   2.390   4.337 -0.6184 -0.3878  0.5477
25515SOL    HW180076   6.373   2.302   4.337  0.3610 -0.1070 -2.7033
25515SOL    HW280077   6.396   2.440   4.281 -2.9011  1.5357 -0.3114
25516SOL     OW80078   4.453   3.291   6.869 -0.4730  0.1330  0.5059
25516SOL    HW180079   4.398   3.329   6.800  0.0522  1.5935  0.8618
25516SOL    HW280080   4.507   3.364   6.899  3.5244 -1.6586 -1.5421
25517SOL     OW80081   6.851   6.093   8.159 -0.0297 -0.1307 -0.0893
25517SOL    HW180082   6.915   6.150   8.200 -1.4265  0.4197  1.4246
25517SOL    HW280083   6.780   6.151   8.131 -0.7500 -0.9322  0.0169
25518SOL     OW80084   9.609   4.005   8.287 -0.4885 -0.4915 -0.0107
25518SOL    HW180085   9.683   3.950   8.312 -0.5790 -0.4009  0.4747
25518SOL    HW280086   9.576   4.040   8.370 -1.0569 -0.5094 -0.2225
25519SOL     OW80087   5.974   4.756   3.231  0.6591  0.0528 -0.7076
25519SOL    HW180088   5.933   4.723   3.151  0.2269  0.1677 -0.5363
25519SOL    HW280089   6.066   4.765   3.209  0.5466  0.0567 -1.1840
25520SOL     OW80090   3.902   4.878   8.177  0.5517 -0.5548  0.1291
25520SOL    HW180091   3.987   4.897   8.139 -0.6411 -0.1187 -2.5598
25520SOL    HW280092   3.878   4.793   8.141 -0.9812  0.2318 -0.8231
25521SOL     OW80093   4.277   8.233   8.331  0.8565  0.5690 -0.4118
25521SOL    HW180094   4.306   8.216   8.242  0.6299  1.2734 -0.6278
25521SOL    HW280095   4.242   8.150   8.362  2.0837  0.0019 -0.5323
25522SOL     OW80096   7.407   2.054   7.056  0.3482  0.1193  0.1467
25522SOL    HW180097   7.326   2.007   7.035  1.2475 -1.3452 -0.1495
25522SOL    HW280098   7.423   2.109   6.979  0.2405 -0.4482 -0.2876
25523SOL     OW80099   2.399   5.799   7.093 -0.7778  0.5448 -0.2704
25523SOL    HW180100   2.395   5.794   6.997 -0.6805  0.2272 -0.2596
25523SOL    HW280101   2.344   5.727   7.123  0.3184 -0.2449 -0.0999
25524SOL     OW80102   4.372   9.444   1.738  0.2430  0.3355  0.2125
25524SOL    HW180103   4.431   9.518   1.732 -0.4912  0.9249  0.0634
25524SOL    HW280104   4.285   9.481   1.722 -0.2543 -0.3761  1.1025
25525SOL     OW80105   3.176   0.814   6.614 -0.0698  0.2849  0.2700
25525SOL    HW180106   3.147   0.872   6.544 -2.1056 -0.2440  0.6055
25525SOL    HW280107   3.124   0.735   6.603  1.3627 -0.7843  0.8973
25526SOL     OW80108   1.025   3.536   1.943  0.0938  1.1320 -0.1863
25526SOL    HW180109   1.041   3.493   1.859 -1.3263  0.8316 -0.3259
25526SOL    HW280110   1.019   3.629   1.922  0.2596  1.1124 -0.3262
25527SOL     OW80111   0.850   4.731   5.515  0.1601  0.2925 -0.1997
25527SOL    HW180112   0.796   4.742   5.436 -0.2299  0.9028  0.1432
25527SOL    HW280113   0.931   4.691   5.483 -1.0340 -2.0861 -0.5390
25528SOL     OW80114   3.885   6.850   0.564  0.5312  0.1467  0.1965
25528SOL    HW180115   3.849   6.767   0.596 -1.6372  0.5418 -1.0045
25528SOL    HW280116   3.867   6.913   0.634  1.7091 -0.2482  0.8864
25529SOL     OW80117   7.523   3.813   1.998  0.0303 -0.0286  0.1349
25529SOL    HW180118   7.570   3.854   1.925  1.0416 -0.0551  0.7553
25529SOL    HW280119   7.432   3.838   1.984  0.4411  1.3779 -0.2170
25530SOL     OW80120   4.136   1.051   6.973 -0.3786  0.2127  0.3287
25530SOL    HW180121   4.183   1.132   6.995 -0.1691  0.0707  0.4069
25530SOL    HW280122   4.058   1.081   6.926  0.9027  0.3271 -1.8211
25531SOL     OW80123   3.023   3.398   1.422  0.8334 -0.1060  0.7698
25531SOL    HW180124   3.100   3.413   1.368 -0.0992 -0.3665 -0.6913
25531SOL    HW280125   3.051   3.333   1.486  1.7768 -0.3251  0.1616
25532SOL     OW80126   0.265   7.999   3.035 -0.1946  0.6133  0.0798
25532SOL    HW180127   0.189   8.042   3.075 -1.1038 -0.7812 -0.0885
25532SOL    HW280128   0.256   8.019   2.942 -0.7429 -0.0831 -0.0290
25533SOL     OW80129   4.156   1.225   1.843  0.0039 -0.3522 -0.4790
25533SOL    HW180130   4.159   1.223   1.747  1.4965  0.2963 -0.4761
25533SOL    HW280131   4.118   1.141   1.867  2.8879 -2.1274 -1.5844
25534SOL     OW80132   1.933   7.990   5.713 -0.4055 -0.3555 -0.1970
25534SOL    HW180133   2.010   8.005   5.659  0.2013 -0.8857  0.4889
25534SOL    HW280134   1.899   7.905   5.684  0.6758 -1.2740  1.0672
25535SOL     OW80135   9.442   3.724   5.888  0.0187 -0.2372 -0.1543
25535SOL    HW180136   9.448   3.729   5.793 -0.8724  1.7715 -0.1352
25535SOL    HW280137   9.460   3.632   5.908 -2.9039 -1.4736 -2.4911
25536SOL     OW80138   0.910   3.001   9.725 -0.1273 -0.7259 -0.3659
25536SOL    HW180139   0.932   3.053   9.803 -0.2045 -2.5786  0.9693
25536SOL    HW280140   0.907   3.065   9.654  0.8496  0.9149  0.9726
25537SOL     OW80141   2.506   9.278   0.149  0.2506  0.1442  0.1290
25537SOL    HW180142   2.597   9.278   0.178  0.8791  0.5626 -1.7199
25537SOL    HW280143   2.495   9.194   0.105  0.3683  0.8885 -1.3871
25538SOL     OW80144   4.029   8.996   6.854 -0.2061 -0.8250 -0.4739
25538SOL    HW180145   4.037   8.955   6.768 -0.2987  0.8170 -1.3162
25538SOL    HW280146   4.107   9.050   6.863 -0.9271  0.2124 -0.2116
25539SOL     OW80147   4.420   9.946   9.750  0.1960  0.3804  0.3532
25539SOL    HW180148   4.426   9.870   9.693 -0.2891  0.8513 -0.3351
25539SOL    HW280149   4.327   9.968   9.753  0.3863  1.2727  0.1017
25540SOL     OW80150   8.431   2.665   9.474 -0.1076  0.3854 -0.1573
25540SOL    HW180151   8.366   2.669   9.544 -1.9290  1.0854 -1.7974
25540SOL    HW280152   8.473   2.751   9.475  1.2667 -0.2447  1.2492
25541SOL     OW80153   4.144   3.533   0.763 -0.0544  0.2288 -0.5042
25541SOL    HW180154   4.078   3.492   0.706  0.1451  0.8242 -1.1738
25541SOL    HW280155   4.103   3.532   0.849 -1.1839  1.0529 -0.9940
25542SOL     OW80156   7.737   0.210   8.266 -0.0559 -0.8427 -0.2873
25542SOL    HW180157   7.691   0.262   8.332  1.9358  1.0635 -0.2895
25542SOL    HW280158   7.669   0.153   8.230 -2.0044  0.5760  0.8989
25543SOL     OW80159   0.033   2.580   6.363 -0.7130  0.6773  0.0877
25543SOL    HW180160  -0.040   2.520   6.378  1.2278 -1.8502  0.0593
25543SOL    HW280161   0.083   2.579   6.444 -0.0497  1.4153 -0.2966
25544SOL     OW80162   7.862   8.812   4.588  0.6868  0.3795 -0.1057
25544SOL    HW180163   7.830   8.831   4.676 -1.7693  1.3026 -1.1103
25544SOL    HW280164   7.791   8.839   4.530  1.8616 -1.0114 -2.3447
25545SOL     OW80165   0.889   1.679  10.302 -0.1889 -0.1091  0.4159
25545SOL    HW180166   0.846   1.705  10.384  0.2302  0.9739  0.3044
25545SOL    HW280167   0.916   1.588  10.318 -1.4274 -0.4163  0.9234
25546SOL     OW80168   0.089   1.219  10.016 -0.0310 -0.2106  0.4745
25546SOL    HW180169  -0.003   1.193  10.022 -0.1914  0.4034  0.8828
25546SOL    HW280170   0.104   1.235   9.923 -0.1777 -0.8659  0.3377
25547SOL     OW80171   3.173   3.111   7.638  0.2249  0.6184 -0.2088
25547SOL    HW180172   3.256   3.152   7.614 -0.0606  1.0820 -0.4250
25547SOL    HW280173   3.123   3.180   7.680  0.7069 -0.1787  1.7733
25548SOL     OW80174   4.133   8.543   2.175  0.0084 -0.2002 -0.4315
25548SOL    HW180175   4.077   8.588   2.238  0.9327 -0.1815  0.4006
25548SOL    HW280176   4.142   8.455   2.210 -1.0931 -0.8251 -1.6082
25549SOL     OW80177  10.910   3.676   2.066 -0.1933 -0.5028 -0.0395
25549SOL    HW180178  10.952   3.591   2.078 -0.2961 -0.4809  0.4912
25549SOL    HW280179  10.963   3.720   2.000 -0.8681 -1.4676 -1.2611
25550SOL     OW80180   7.679  10.539   2.064  0.3559  0.2933 -0.7770
25550SOL    HW180181   7.754  10.597   2.079  0.9615 -0.8918  1.2047
25550SOL    HW280182   7.604  10.598   2.057  0.8818  1.3802  1.6349
25551SOL     OW80183   0.533   1.445   7.147 -0.3998 -0.3275 -0.0085
25551SOL    HW180184   0.574   1.457   7.233  1.8459  1.6979 -1.2451
25551SOL    HW280185   0.529   1.350   7.136  1.3287 -0.6366  1.4535
25552SOL     OW80186   5.178   9.661   5.881 -0.5203 -0.7373  0.4854
25552SOL    HW180187   5.245   9.728   5.889 -0.3663 -0.9947  1.5171
25552SOL    HW280188   5.114   9.682   5.949 -2.5909  0.6800 -1.7320
25553SOL     OW80189  10.975   5.789   2.172 -0.1449 -0.0031 -0.3032
25553SOL    HW180190  10.913   5.851   2.134 -0.5624  0.2262  0.6985
25553SOL    HW280191  10.923   5.711   2.190 -0.8365  0.9933  2.7604
25554SOL     OW80192   7.979   8.985   4.235  0.1229 -0.3843  0.2765
25554SOL    HW180193   7.991   8.890   4.235  1.5113 -0.2450 -0.4050
25554SOL    HW280194   8.032   9.016   4.309  0.8434 -0.0498 -0.3589
25555SOL     OW80195   0.949   4.791  10.775  0.2004 -0.2914 -0.0459
25555SOL    HW180196   0.919   4.718  10.829 -0.3916  0.2768  0.4111
25555SOL    HW280197   0.903   4.781  10.692  0.6747 -0.8423 -0.2462
25556SOL     OW80198   5.593   9.702   7.219 -0.1342  0.1460  0.2006
25556SOL    HW180199   5.600   9.692   7.314  0.8982 -0.8513  0.0548
25556SOL    HW280200   5.662   9.645   7.184  1.6109  2.8328 -1.0759
25557SOL     OW80201  10.053   0.650   2.544 -0.8689  0.4149 -0.1176
25557SOL    HW180202  10.009   0.626   2.626  0.0596 -0.6200  0.0965
25557SOL    HW280203   9.982   0.680   2.487 -1.8395 -0.9901  0.2971
25558SOL     OW80204  10.407   4.533   0.798 -0.0558 -0.4773 -0.3351
25558SOL    HW180205  10.434   4.460   0.854 -0.5930  0.0015  0.5628
25558SOL    HW280206  10.464   4.526   0.721  2.3631  0.2322  1.2735
25559SOL     OW80207   4.112   8.792   4.750 -0.0990  0.0754 -0.0194
25559SOL    HW180208   4.129   8.764   4.840  1.7783 -1.7836 -0.8717
25559SOL    HW280209   4.198   8.802   4.711 -0.8684  1.0693 -1.5882
25560SOL     OW80210   3.435   1.000   2.285  0.9224  0.3121 -0.4349
25560SOL    HW180211   3.403   1.084   2.318 -1.4225 -1.3924  2.0630
25560SOL    HW280212   3.395   0.991   2.199  0.8294  1.5149 -0.5360
25561SOL     OW80213   6.760  10.289   6.056  0.4656  0.0323 -0.2637
25561SOL    HW180214   6.671  10.302   6.023  0.6372 -0.5287 -0.9724
25561SOL    HW280215   6.751  10.290   6.151 -0.2616  0.1942 -0.3299
25562SOL     OW80216   1.348   0.267   9.381 -1.0961  0.0207  0.3923
25562SOL    HW180217   1.370   0.213   9.457  1.2814  0.9903  0.4778
25562SOL    HW280218   1.280   0.326   9.412 -1.4040 -0.7640  1.2431
25563SOL     OW80219   5.500   6.462   6.744  0.3010  0.1872  0.2969
25563SOL    HW180220   5.446   6.489   6.818 -2.3567 -0.1444 -1.3747
25563SOL    HW280221   5.522   6.545   6.701  0.2613  0.2750  0.4429
25564SOL     OW80222   8.803   8.833   3.384  0.0055  0.2992  0.0187
25564SOL    HW180223   8.858   8.798   3.454 -0.9943  1.0029  1.1785
25564SOL    HW280224   8.732   8.879   3.429 -1.0496  0.1749 -1.4509
25565SOL     OW80225   5.501   4.873   5.886  0.1657  0.5418 -0.8637
25565SOL    HW180226   5.511   4.921   5.804 -0.5168  0.5962 -0.9189
25565SOL    HW280227   5.516   4.781   5.862 -1.7966  0.3097 -1.4406
25566SOL     OW80228   2.487   7.832   0.929  0.1992  0.3198 -0.2262
25566SOL    HW180229   2.504   7.886   1.007  0.1914 -0.3035  0.2126
25566SOL    HW280230   2.394   7.809   0.936  0.4735 -0.7117  0.2147
25567SOL     OW80231   3.962   2.591   8.529 -0.0872  0.1986 -0.1543
25567SOL    HW180232   4.009   2.557   8.606 -0.6484 -3.0063 -1.0963
25567SOL    HW280233   3.870   2.591   8.555 -0.0132  2.5343  0.2954
25568SOL     OW80234   8.419   7.947   7.691 -0.0185  0.4531 -0.0199
25568SOL    HW180235   8.506   7.981   7.668 -0.7647  0.6901 -2.8659
25568SOL    HW280236   8.432   7.853   7.702  0.6333  0.5030 -0.3067
25569SOL     OW80237   8.676   1.820   5.513 -0.8938 -0.5462  0.4274
25569SOL    HW180238   8.741   1.800   5.446 -0.6613  0.5651  0.3139
25569SOL    HW280239   8.709   1.778   5.593  1.0479  1.6637  0.8899
25570SOL     OW80240   7.596  10.051  11.019 -0.0942  0.0433 -0.3107
25570SOL    HW180241   7.676  10.062  10.967  1.1747 -0.0277  1.5395
25570SOL    HW280242   7.627  10.020  11.104 -2.2208 -1.2340  0.0565
25571SOL     OW80243   0.871   9.403   9.311  0.4379 -0.9501  0.2747
25571SOL    HW180244   0.859   9.316   9.273 -0.3876 -0.5873 -0.3111
25571SOL    HW280245   0.782   9.438   9.319  0.8507  0.4301 -0.8833
25572SOL     OW80246   3.431   4.904   7.297  1.1961 -0.1161 -0.0191
25572SOL    HW180247   3.479   4.830   7.260  1.2695 -0.6200  1.0512
25572SOL    HW280248   3.339   4.881   7.285  1.0827  1.3163 -3.0260
25573SOL     OW80249   4.454   7.401   8.155 -0.8034 -0.4491 -0.0055
25573SOL    HW180250   4.528   7.412   8.096 -2.6177  0.1039 -2.3308
25573SOL    HW280251   4.475   7.456   8.231  0.7085  0.4790 -1.0361
25574SOL     OW80252   6.189   5.724   2.934  0.1929  0.6997  0.2605
25574SOL    HW180253   6.114   5.671   2.959 -1.4591  2.2519 -1.1229
25574SOL    HW280254   6.200   5.708   2.841  1.1521  1.0337  0.3045
25575SOL     OW80255   8.035   7.752   6.651  0.0159  0.0418  0.0007
25575SOL    HW180256   8.067   7.842   6.654 -1.8139  0.8431 -1.7644
25575SOL    HW280257   8.090   7.709   6.586 -0.2814  0.4419 -0.5270
25576SOL     OW80258   9.335   7.261   4.683 -0.1092  0.0653 -0.0739
25576SOL    HW180259   9.318   7.188   4.623  0.5503 -0.1892  0.0419
25576SOL    HW280260   9.365   7.331   4.626  1.0525 -0.3521  0.0030
25577SOL     OW80261   2.827   9.406   2.921  0.0354  0.7603 -0.5183
25577SOL    HW180262   2.911   9.403   2.874  1.9516 -0.0368  2.6556
25577SOL    HW280263   2.780   9.329   2.890  2.2156 -1.0658  0.3886
25578SOL     OW80264   4.518   1.888   0.648  0.1334  0.2547  0.6912
25578SOL    HW180265   4.586   1.956   0.650 -0.7899  1.2189  0.2539
25578SOL    HW280266   4.553   1.817   0.701  1.3350  0.8788  0.7545
25579SOL     OW80267   5.514   6.326   4.779 -0.0909 -0.3295  0.0705
25579SOL    HW180268   5.553   6.240   4.799 -2.4593 -1.1406  1.5761
25579SOL    HW280269   5.517   6.332   4.684  0.9696 -1.6602 -0.0136
25580SOL     OW80270   8.373   3.982   1.860  0.0622 -0.3297  0.0751
25580SOL    HW180271   8.466   3.973   1.880  0.1107  1.2949  0.6949
25580SOL    HW280272   8.350   3.900   1.816  0.7455 -2.6730  3.7019
25581SOL     OW80273   9.626   7.786   6.572 -0.0350  0.2506 -0.5340
25581SOL    HW180274   9.693   7.733   6.528  0.8205  1.3890 -0.6541
25581SOL    HW280275   9.598   7.850   6.506  0.0861  0.9400  0.0641
25582SOL     OW80276   3.930   4.284   1.359 -0.0013 -0.1274  0.2931
25582SOL    HW180277   3.917   4.318   1.447 -2.3332 -0.0192 -0.0275
25582SOL    HW280278   3.924   4.361   1.302  1.7524 -0.1577  0.0253
25583SOL     OW80279   3.704   8.210   9.847  0.3211 -0.7412  0.1974
25583SOL    HW180280   3.755   8.149   9.900 -0.8173 -0.9959  1.0318
25583SOL    HW280281   3.641   8.154   9.800 -0.3176 -0.2738  0.4892
25584SOL     OW80282   9.816   8.441   2.564 -0.2187 -0.0284 -0.4199
25584SOL    HW180283   9.895   8.493   2.555  0.3189 -0.8178 -0.3492
25584SOL    HW280284   9.820   8.378   2.493  2.0340 -3.6545  2.5643
25585SOL     OW80285   6.104   2.748   4.696 -0.2286 -0.2276  0.4809
25585SOL    HW180286   6.195   2.721   4.680  0.1240  0.2287  1.5946
25585SOL    HW280287   6.103   2.842   4.676 -0.9701 -0.5968 -1.4638
25586SOL     OW80288   8.447   7.645   0.425 -0.5528 -0.2602  0.2172
25586SOL    HW180289   8.473   7.700   0.350 -0.0611  0.8238  1.1572
25586SOL    HW280290   8.455   7.556   0.392  0.5466  0.1667 -0.7550
25587SOL     OW80291   7.387   6.240   3.466 -0.4912 -0.3116 -0.6280
25587SOL    HW180292   7.433   6.291   3.532  0.5930 -1.3303 -0.5706
25587SOL    HW280293   7.452   6.178   3.433 -1.8209 -1.8332 -0.5244
25588SOL     OW80294  10.844   2.100   8.932 -0.3366  0.1296 -0.0343
25588SOL    HW180295  10.908   2.083   8.863  0.1906  0.3550  0.3862
25588SOL    HW280296  10.785   2.025   8.929 -1.0392  0.7052 -1.5041
25589SOL     OW80297   0.555   3.343   0.602 -0.1815 -0.2218  0.2297
25589SOL    HW180298   0.479   3.311   0.554  0.7565 -0.3871 -1.1969
25589SOL    HW280299   0.592   3.266   0.644 -0.5397 -0.2102  0.5765
25590SOL     OW80300   4.364   7.011   9.558 -0.1503 -0.4827  0.2446
25590SOL    HW180301   4.311   7.091   9.561 -0.2922 -0.5594 -0.1944
25590SOL    HW280302   4.415   7.020   9.477 -1.1180 -1.4336 -0.4994
25591SOL     OW80303   2.130   7.278   0.752  0.0950  0.3064  0.1361
25591SOL    HW180304   2.070   7.344   0.717  0.7789  1.2930  0.7862
25591SOL    HW280305   2.072   7.215   0.796 -0.4887  1.0254  0.4141
25592SOL     OW80306   3.609   2.960   3.191  0.4771 -0.3296 -0.0704
25592SOL    HW180307   3.529   3.011   3.179  0.2166 -0.6335  0.3863
25592SOL    HW280308   3.664   3.015   3.247  0.7310  0.0272 -0.6544
25593SOL     OW80309  10.221   0.724   1.488  0.2396  0.1235  0.8350
25593SOL    HW180310  10.129   0.727   1.515  0.5858  1.7319  2.0005
25593SOL    HW280311  10.228   0.647   1.432 -2.0596  0.5739 -0.1751
25594SOL     OW80312   2.468   3.458   9.961  0.3228 -0.0349 -0.2574
25594SOL    HW180313   2.476   3.368   9.993 -0.9682  0.0482  0.3821
25594SOL    HW280314   2.518   3.459   9.880 -0.9819 -1.8033 -1.1673
25595SOL     OW80315   2.432   0.508  10.125  0.7859 -0.0166  0.7477
25595SOL    HW180316   2.414   0.582  10.066  0.6169  0.6190  1.5820
25595SOL    HW280317   2.442   0.548  10.211  1.3120 -0.9087  1.1117
25596SOL     OW80318   5.257   2.195   9.991  0.5175  0.0410 -0.6698
25596SOL    HW180319   5.251   2.110   9.947 -0.7143 -0.9077  1.2179
25596SOL    HW280320   5.221   2.180  10.078  1.1197  2.3012  0.0430
25597SOL     OW80321   4.095  10.897  10.309 -0.1721  0.0173  0.9346
25597SOL    HW180322   4.019  10.929  10.259 -0.5829  1.5025  2.4328
25597SOL    HW280323   4.090  10.801  10.300 -0.3324  0.1781 -1.6344
25598SOL     OW80324   0.346   7.274   3.741  0.4286  0.6665  0.1228
25598SOL    HW180325   0.257   7.249   3.765  0.5971  0.3018  0.3661
25598SOL    HW280326   0.337   7.362   3.704 -0.2889 -0.0892 -1.5737
25599SOL     OW80327   6.371   3.600   2.090 -0.5524 -0.2109  0.1805
25599SOL    HW180328   6.420   3.559   2.161  2.8951  0.5555 -1.5456
25599SOL    HW280329   6.390   3.693   2.098 -0.4275 -0.0600 -1.4490
25600SOL     OW80330  10.792  10.484   4.940  0.4737 -0.3275  0.0251
25600SOL    HW180331  10.715  10.524   4.979  0.7976  0.2127  0.1191
25600SOL    HW280332  10.863  10.505   5.001  0.8682 -0.0071 -0.5410
25601SOL     OW80333   5.284   2.559   0.681  0.1697  0.2034 -0.6353
25601SOL    HW180334   5.189   2.560   0.674 -0.1322 -0.7701  2.0706
25601SOL    HW280335   5.310   2.474   0.644 -0.4483 -1.0692  1.6358
25602SOL     OW80336   8.943   0.160   6.697 -0.4465 -0.5834  0.4136
25602SOL    HW180337   8.900   0.240   6.728  2.3858  0.5450  1.8375
25602SOL    HW280338   8.977   0.119   6.777  0.5676 -1.6826 -0.5459
25603SOL     OW80339   9.660   1.441  10.515 -0.0076  0.3813 -0.4630
25603SOL    HW180340   9.699   1.372  10.570 -0.0173  1.0239  0.3691
25603SOL    HW280341   9.669   1.408  10.426 -0.2796 -0.8343 -0.0598
25604SOL     OW80342   9.303  10.812   4.554  0.3212  0.0721 -0.1761
25604SOL    HW180343   9.318  10.763   4.635  0.6231  0.9660  0.3307
25604SOL    HW280344   9.242  10.882   4.579  1.8077  1.4717 -0.2392
25605SOL     OW80345   4.527   7.918   8.000 -0.0083  0.0281  0.0806
25605SOL    HW180346   4.583   7.872   8.061  2.4098 -2.1500 -3.3845
25605SOL    HW280347   4.465   7.851   7.969  0.2423  0.4257 -1.3562
25606SOL     OW80348   1.471   8.473  11.124 -0.1693  0.5592 -0.0381
25606SOL    HW180349   1.468   8.512  11.036  1.5723  1.7867  0.4055
25606SOL    HW280350   1.400   8.409  11.123 -0.8625  1.2575 -1.9967
25607SOL     OW80351   4.908   8.559  11.105 -0.0733 -1.0020  0.0038
25607SOL    HW180352   4.860   8.577  11.186  1.2781 -2.2705  1.1455
25607SOL    HW280353   4.968   8.633  11.096 -0.7565 -0.4747 -0.2651
25608SOL     OW80354   2.831   4.191   8.583  0.0523 -0.1760  0.0014
25608SOL    HW180355   2.764   4.159   8.522  1.2646 -0.9514 -0.9590
25608SOL    HW280356   2.811   4.284   8.594 -0.3966 -0.0911 -1.3141
25609SOL     OW80357   2.506   9.867  10.663 -0.1846 -0.1148  0.4891
25609SOL    HW180358   2.431   9.895  10.714 -1.7402 -0.3885 -1.5284
25609SOL    HW280359   2.516   9.935  10.596 -0.4551 -1.4964 -1.0074
25610SOL     OW80360   1.502   0.950   3.792 -0.2639  0.0174  0.6082
25610SOL    HW180361   1.483   1.018   3.728 -1.4810 -1.6897 -0.9487
25610SOL    HW280362   1.594   0.963   3.814 -0.6157  2.5453  0.9239
25611SOL     OW80363   0.518   0.860   6.664 -0.3571  0.0538  0.1191
25611SOL    HW180364   0.432   0.901   6.666 -0.1003  0.8694 -2.5579
25611SOL    HW280365   0.501   0.769   6.638 -0.4133  0.1622 -0.2164
25612SOL     OW80366  10.326  11.080   7.757  0.3421 -0.1597  0.5667
25612SOL    HW180367  10.408  11.117   7.790 -0.4572  2.0191  0.2731
25612SOL    HW280368  10.261  11.104   7.824 -0.2215 -1.1258  0.3835
25613SOL     OW80369   9.169   3.222   7.386 -0.2038 -0.0885 -0.0660
25613SOL    HW180370   9.230   3.168   7.334 -0.4303  0.1395 -0.5695
25613SOL    HW280371   9.209   3.309   7.387 -0.9235  0.2710 -1.0994
25614SOL     OW80372   0.171   1.694   7.436 -0.0842 -0.0142 -0.2021
25614SOL    HW180373   0.236   1.714   7.369 -0.0752  0.0672 -0.1694
25614SOL    HW280374   0.092   1.739   7.405 -0.5345 -1.2847 -0.9863
25615SOL     OW80375   0.550   2.021   0.167  0.0074  0.0138  0.7967
25615SOL    HW180376   0.550   2.090   0.234 -0.4987 -0.9928  1.8632
25615SOL    HW280377   0.493   1.953   0.203  1.3829 -1.4501  0.2697
25616SOL     OW80378   2.797   2.156   5.572 -0.0173  0.8651 -0.5241
25616SOL    HW180379   2.811   2.137   5.479  0.8827  2.1220 -0.6776
25616SOL    HW280380   2.885   2.158   5.609 -0.3997 -0.2297  0.5073
25617SOL     OW80381   0.992   5.231   2.048 -0.3390  0.1351 -0.2005
25617SOL    HW180382   0.903   5.239   2.081 -0.5952  1.2339 -1.0780
25617SOL    HW280383   1.047   5.237   2.126 -1.0130 -0.1320  0.3074
25618SOL     OW80384   9.385   7.385   9.093  0.2955 -0.0260  0.1419
25618SOL    HW180385   9.321   7.400   9.023  0.0508 -0.2663  0.3123
25618SOL    HW280386   9.357   7.445   9.163  0.9146  0.6875 -0.1986
25619SOL     OW80387   7.592   5.172   8.959  0.0054 -0.7576 -0.9523
25619SOL    HW180388   7.517   5.225   8.983  0.1694 -0.5563 -0.8856
25619SOL    HW280389   7.559   5.082   8.958  0.1844 -0.8816  0.8849
25620SOL     OW80390   8.669   4.543   1.748 -0.4556  0.1884  0.6138
25620SOL    HW180391   8.691   4.581   1.833 -2.4492  1.6818  0.5261
25620SOL    HW280392   8.583   4.503   1.760 -1.0106  0.8657 -0.8056
25621SOL     OW80393   9.993   3.272   9.340 -0.6943  0.2668 -0.2422
25621SOL    HW180394  10.030   3.194   9.299 -1.9851 -0.0415 -0.8561
25621SOL    HW280395  10.060   3.300   9.402  0.0911 -0.9121 -0.5268
25622SOL     OW80396   3.294   8.012  10.129  0.7354 -0.4880 -0.3704
25622SOL    HW180397   3.274   8.095  10.173  0.7667 -0.7034  0.0512
25622SOL    HW280398   3.375   7.982  10.171  0.3858 -1.0439 -0.0877
25623SOL     OW80399  10.611  11.066   7.512 -0.7485  0.0250 -0.2998
25623SOL    HW180400  10.569  11.079   7.428  1.6340  0.1562 -1.5514
25623SOL    HW280401  10.610  11.152   7.554  0.9346  0.7544 -1.6609
25624SOL     OW80402   8.533   8.579   8.682 -0.0699  0.5874  0.3599
25624SOL    HW180403   8.543   8.656   8.626  0.8548 -0.0809 -0.4202
25624SOL    HW280404   8.502   8.614   8.765  0.1381  1.7770 -0.0458
25625SOL     OW80405   3.595   4.265   5.221 -0.3012  0.2243  0.0249
25625SOL    HW180406   3.625   4.224   5.303  0.4690  0.0142 -0.3551
25625SOL    HW280407   3.662   4.242   5.157 -1.1120  0.0284 -0.7731
25626SOL     OW80408   6.335   4.957   5.515 -0.2106 -0.3931 -0.2228
25626SOL    HW180409   6.274   4.964   5.589  0.1849 -0.4091  0.1087
25626SOL    HW280410   6.283   4.981   5.438 -0.7806 -0.9654 -0.0153
25627SOL     OW80411   5.417   0.776   3.705 -0.1167 -0.0897  0.6932
25627SOL    HW180412   5.483   0.845   3.698 -0.6297  0.3349 -0.3263
25627SOL    HW280413   5.344   0.808   3.651 -0.6729 -1.0827  0.8327
25628SOL     OW80414   5.817   6.396  10.288 -0.2642  0.2027  0.8941
25628SOL    HW180415   5.898   6.346  10.296  1.2020  2.1759 -0.7159
25628SOL    HW280416   5.807   6.412  10.194 -1.1906  2.0786  1.2663
25629SOL     OW80417   6.110   5.460   0.336 -0.0080  0.1497  0.1301
25629SOL    HW180418   6.181   5.521   0.358  1.2580 -1.3266  0.3148
25629SOL    HW280419   6.154   5.383   0.302 -1.6570 -0.0665 -1.6911
25630SOL     OW80420   8.092   4.767   3.103  0.0773 -0.1021  0.8437
25630SOL    HW180421   8.032   4.805   3.040  1.2875  0.4222 -0.0286
25630SOL    HW280422   8.172   4.819   3.095  1.3451 -2.0030  0.5533
25631SOL     OW80423   6.297   7.953   6.151  1.0217  0.1554 -0.1882
25631SOL    HW180424   6.316   7.863   6.174  1.6119  0.0233 -1.1420
25631SOL    HW280425   6.295   7.954   6.055 -2.3691  0.4600 -0.2379
25632SOL     OW80426   2.162   7.208   7.039 -0.1461  0.4244  0.1055
25632SOL    HW180427   2.228   7.274   7.058 -0.3777  0.8458 -0.5278
25632SOL    HW280428   2.179   7.138   7.102  0.8031  0.5993  0.0500
25633SOL     OW80429  10.644   8.231   1.104  0.6537  0.2196 -0.2401
25633SOL    HW180430  10.595   8.289   1.045 -1.7415 -0.8151  0.6119
25633SOL    HW280431  10.584   8.216   1.177  1.4421 -2.7886 -0.1020
25634SOL     OW80432  10.777   8.670   6.254  0.9329  0.1779 -0.4454
25634SOL    HW180433  10.779   8.761   6.228  0.8884  0.3592  0.1639
25634SOL    HW280434  10.751   8.672   6.346 -2.2886 -0.6375 -1.2353
25635SOL     OW80435   9.582   8.426   9.653 -0.0742 -0.0287  0.5807
25635SOL    HW180436   9.542   8.413   9.567 -1.4410  1.2706  0.9876
25635SOL    HW280437   9.586   8.521   9.664  2.1096 -0.1088  1.0666
25636SOL     OW80438  10.919   0.077   4.710  0.0542  0.0982 -0.0536
25636SOL    HW180439  11.006   0.062   4.747 -0.0163  1.3429  0.6917
25636SOL    HW280440  10.932   0.152   4.651 -0.2963 -0.4403 -0.8393
25637SOL     OW80441   5.403   7.187   3.661 -0.1248  0.1337 -0.4841
25637SOL    HW180442   5.423   7.248   3.732 -2.4106  0.6151 -0.1498
25637SOL    HW280443   5.387   7.244   3.585 -1.3633 -0.0581 -0.3985
25638SOL     OW80444   9.445   2.407   1.792 -0.2072 -0.1524 -0.0870
25638SOL    HW180445   9.354   2.425   1.769  0.0907 -0.3153 -1.4868
25638SOL    HW280446   9.478   2.490   1.829 -1.0744 -0.2788  1.0193
25639SOL     OW80447   9.414  10.714   0.571 -0.5571 -0.0235  0.2185
25639SOL    HW180448   9.403  10.627   0.532  0.7990  0.1628 -0.6693
25639SOL    HW280449   9.377  10.774   0.506 -2.8203  0.0357  1.4557
25640SOL     OW80450   1.534   1.100   2.247 -0.0711  0.0186  0.5360
25640SOL    HW180451   1.507   1.144   2.328 -1.4512 -0.8278  0.5629
25640SOL    HW280452   1.578   1.021   2.276 -1.8284 -1.0187  0.4959
25641SOL     OW80453   7.456  10.191   1.568  0.1822  0.2072  0.1314
25641SOL    HW180454   7.416  10.230   1.646 -1.5108  0.0883 -0.6320
25641SOL    HW280455   7.514  10.260   1.534 -0.8344  1.1375  0.2158
25642SOL     OW80456   8.632  10.305   9.398  0.0096  0.5802  0.0935
25642SOL    HW180457   8.544  10.286   9.365  1.2434 -0.9333 -2.6985
25642SOL    HW280458   8.674  10.219   9.402  1.2058  1.2111  1.9810
25643SOL     OW80459  11.078   9.101   5.861  0.0041  0.5332  0.2058
25643SOL    HW180460  11.034   9.038   5.804  0.6269  1.2783 -1.1640
25643SOL    HW280461  11.147   9.050   5.903 -0.5867 -0.0769  0.4566
25644SOL     OW80462   8.738   0.391   1.592  0.8250 -0.2197 -0.3282
25644SOL    HW180463   8.713   0.460   1.530 -2.6104 -1.5703 -0.6610
25644SOL    HW280464   8.717   0.309   1.547  1.1666 -1.3679  1.4872
25645SOL     OW80465   0.209  10.612   4.202  0.3687 -0.0884 -0.3152
25645SOL    HW180466   0.130  10.565   4.229  0.1625  0.1893 -0.4264
25645SOL    HW280467   0.281  10.557   4.231  0.1321 -1.0867 -1.5110
25646SOL     OW80468   8.321   0.239   2.283  0.4391  0.3130  0.0516
25646SOL    HW180469   8.290   0.149   2.275  1.9657 -0.2213 -0.3415
25646SOL    HW280470   8.265   0.278   2.349 -0.8231 -0.6540 -0.4014
25647SOL     OW80471   9.093   2.853   9.703  0.2901 -1.3900 -0.1352
25647SOL    HW180472   9.109   2.922   9.639 -0.1510 -0.3398  0.8244
25647SOL    HW280473   9.011   2.812   9.675 -0.8231  0.1805  0.6022
25648SOL     OW80474   5.191   5.812   5.547 -0.2545  0.2965 -0.1709
25648SOL    HW180475   5.196   5.903   5.519  1.3988  0.4464  0.5054
25648SOL    HW280476   5.098   5.789   5.538 -0.2592  1.1068 -3.1662
25649SOL     OW80477   6.569   9.064   1.247 -0.5825 -0.0101  0.9391
25649SOL    HW180478   6.623   9.032   1.174  1.5262  0.6523  2.1161
25649SOL    HW280479   6.536   9.149   1.216  0.2931  0.2688  0.7329
25650SOL     OW80480   3.762   9.544   5.978  0.3405 -0.2678 -0.0228
25650SOL    HW180481   3.729   9.616   6.033 -0.9506  0.0488 -1.1559
25650SOL    HW280482   3.819   9.587   5.914  2.7772 -0.7657  1.6589
25651SOL     OW80483   0.404   4.645   0.056 -0.0592  0.7285  0.2527
25651SOL    HW180484   0.352   4.716   0.094 -0.2740  0.5186  0.3563
25651SOL    HW280485   0.435   4.595   0.131 -0.7790  0.1055  0.1507
25652SOL     OW80486   4.420   7.854   0.986 -0.2703  0.0851  0.0179
25652SOL    HW180487   4.344   7.805   1.018  1.0455 -3.0436 -1.2161
25652SOL    HW280488   4.486   7.844   1.054 -0.7068  2.4567  0.9025
25653SOL     OW80489   9.812   4.272   2.687 -0.0539  0.0613 -0.4129
25653SOL    HW180490   9.897   4.251   2.726  0.8480  1.5657 -1.4916
25653SOL    HW280491   9.762   4.312   2.759  1.3960  2.3111 -0.5561
25654SOL     OW80492  10.349   2.762   7.444  0.1025 -0.3637 -0.3596
25654SOL    HW180493  10.278   2.809   7.488 -1.4631 -1.9068 -1.1253
25654SOL    HW280494  10.352   2.800   7.357  0.4078 -0.1154 -0.2421
25655SOL     OW80495   5.842   8.426   9.723  0.2200 -0.5783  0.3948
25655SOL    HW180496   5.779   8.450   9.655  0.5764 -0.9100 -0.0666
25655SOL    HW280497   5.927   8.431   9.679  0.3270 -2.4907  0.2999
25656SOL     OW80498   9.364   8.120   4.772 -0.2063  0.1197 -0.2842
25656SOL    HW180499   9.365   8.210   4.805 -1.2081  0.7237 -1.7988
25656SOL    HW280500   9.353   8.066   4.850  0.9144  1.2618  0.7076
25657SOL     OW80501   7.656   9.669   3.844 -0.0655  0.0730 -0.0602
25657SOL    HW180502   7.634   9.606   3.776  1.4389 -1.2730  0.6030
25657SOL    HW280503   7.589   9.737   3.838 -0.8785 -0.8231 -1.8004
25658SOL     OW80504   4.760  10.961   5.049  0.2622  0.7473 -0.0295
25658SOL    HW180505   4.685  10.988   4.995 -1.7776 -2.9042  0.6225
25658SOL    HW280506   4.724  10.958   5.138  1.8077  0.8472  0.6205
25659SOL     OW80507   2.219   5.267   7.131 -0.1449 -0.0468  0.3930
25659SOL    HW180508   2.211   5.231   7.220  1.9533  2.4098  1.6929
25659SOL    HW280509   2.306   5.240   7.102 -0.9640 -1.1648 -1.1490
25660SOL     OW80510  10.114   6.040   5.781 -0.3188 -0.1441  0.3442
25660SOL    HW180511  10.185   6.103   5.792  0.6469 -0.8532 -1.5187
25660SOL    HW280512  10.045   6.090   5.736 -0.1130 -0.0519  0.1303
25661SOL     OW80513   5.740   6.629   0.799  0.3398  0.0444 -0.2521
25661SOL    HW180514   5.753   6.673   0.883 -0.9554  0.5775 -0.3008
25661SOL    HW280515   5.650   6.596   0.804 -1.3237  3.6083 -2.9507
25662SOL     OW80516   7.116   5.652   2.028 -0.4560 -0.2154 -0.2908
25662SOL    HW180517   7.198   5.634   1.982 -0.6027 -1.5952 -0.0431
25662SOL    HW280518   7.052   5.592   1.989 -1.2697  0.5722 -0.2201
25663SOL     OW80519   4.023   7.971  10.977 -0.1289  0.0138 -0.2160
25663SOL    HW180520   4.073   7.912  11.034 -0.6924 -1.1597 -0.8924
25663SOL    HW280521   3.942   7.923  10.959 -1.2473  1.6107  0.3592
25664SOL     OW80522   1.590   7.082   8.388 -0.2627  0.1677 -0.1762
25664SOL    HW180523   1.638   6.999   8.398 -0.2916  0.2217  0.4542
25664SOL    HW280524   1.612   7.132   8.467  0.9701  1.3904 -1.2399
25665SOL     OW80525   2.094   1.814   9.268 -0.7799  0.2929 -0.3313
25665SOL    HW180526   2.122   1.831   9.358 -1.5342 -1.1728  0.2079
25665SOL    HW280527   2.026   1.879   9.252 -0.5394  0.6613  0.1020
25666SOL     OW80528   0.991   9.608   6.667 -0.3039 -0.2504 -0.4008
25666SOL    HW180529   1.030   9.574   6.586 -0.1604  0.0790 -0.4685
25666SOL    HW280530   0.934   9.537   6.697  0.3383 -0.7317 -0.3009
25667SOL     OW80531   9.056   2.401   2.929 -0.6474  0.4916 -0.7507
25667SOL    HW180532   9.043   2.447   3.012  1.5438  1.2326 -0.7599
25667SOL    HW280533   9.022   2.461   2.863  3.4039  2.9459 -0.8949
25668SOL     OW80534   4.633  10.318   6.536  0.0525 -0.0659  0.9757
25668SOL    HW180535   4.579  10.338   6.613 -0.5209  0.6137  0.4092
25668SOL    HW280536   4.571  10.319   6.463  0.6693 -0.2745  0.4429
25669SOL     OW80537   1.417   4.198   7.051  0.7026  0.0444  0.0106
25669SOL    HW180538   1.423   4.135   6.979 -0.3412 -1.4762  1.1893
25669SOL    HW280539   1.492   4.177   7.107  1.2661  0.9412 -0.3837
25670SOL     OW80540   9.694   1.319   9.591 -0.0410  0.0579  0.0161
25670SOL    HW180541   9.674   1.374   9.667 -0.8363 -2.9029  2.1432
25670SOL    HW280542   9.659   1.232   9.615  4.7981 -2.5607 -1.1893
25671SOL     OW80543   4.251   9.819  10.554 -0.2651 -0.4088  0.3858
25671SOL    HW180544   4.157   9.832  10.562 -0.1971  1.6565 -1.3280
25671SOL    HW280545   4.288   9.867  10.628 -0.4794  0.5576 -0.1273
25672SOL     OW80546  11.071   9.918   3.595  0.0529 -0.7873  0.4300
25672SOL    HW180547  11.035  10.004   3.618 -0.9566 -1.4814  1.5190
25672SOL    HW280548  11.082   9.922   3.500  2.3114  1.3879  0.6696
25673SOL     OW80549   2.421   3.349   0.967 -0.3941 -0.1872  0.6584
25673SOL    HW180550   2.411   3.272   1.022  0.1203 -1.2975 -0.7648
25673SOL    HW280551   2.389   3.322   0.881  0.9186  0.8020 -0.1714
25674SOL     OW80552  10.913   6.275   8.608 -0.4876  0.2414 -0.3562
25674SOL    HW180553  10.996   6.282   8.656  0.0192 -0.3181 -1.1334
25674SOL    HW280554  10.928   6.323   8.527 -1.1569  0.7017 -0.2172
25675SOL     OW80555   1.635   5.393   7.708 -0.2379  0.1330 -0.4695
25675SOL    HW180556   1.713   5.446   7.690  0.4518 -0.9439 -0.7082
25675SOL    HW280557   1.667   5.321   7.762 -1.5351  1.0367  1.6338
25676SOL     OW80558   4.237   8.668   7.828  0.2602  0.7771  0.2262
25676SOL    HW180559   4.282   8.652   7.745 -1.6644 -0.9581 -0.5564
25676SOL    HW280560   4.157   8.714   7.804 -0.0897  0.6934  1.1947
25677SOL     OW80561  10.505   7.042   3.981 -0.2346 -0.3234 -0.3301
25677SOL    HW180562  10.424   7.033   3.930 -0.9598  0.2852  0.6720
25677SOL    HW280563  10.511   6.960   4.030  0.7191 -1.1124 -1.7046
25678SOL     OW80564   5.795   6.442   7.360  0.0587 -0.4278 -0.4436
25678SOL    HW180565   5.868   6.414   7.416  0.5690  1.8169  0.1043
25678SOL    HW280566   5.805   6.537   7.353 -0.7835 -0.4639 -3.2738
25679SOL     OW80567   6.112   1.536  11.126 -0.2761  0.4947 -0.1269
25679SOL    HW180568   6.184   1.585  11.085  0.5666 -1.1875 -0.7509
25679SOL    HW280569   6.079   1.480  11.056 -1.7820  0.7632  0.3422
25680SOL     OW80570   4.132   9.813   8.788 -0.7471 -0.8852 -0.4170
25680SOL    HW180571   4.207   9.785   8.841 -1.6020 -0.5155  1.0421
25680SOL    HW280572   4.070   9.850   8.851 -0.2873  3.1614 -1.9929
25681SOL     OW80573   2.837   3.452   3.983  0.7202 -0.0083  0.1042
25681SOL    HW180574   2.796   3.526   4.028 -1.5715 -1.4602  0.6212
25681SOL    HW280575   2.806   3.375   4.032  1.8186 -1.3900 -1.2863
25682SOL     OW80576   0.985  10.492   8.659  0.1733  0.2911 -0.0731
25682SOL    HW180577   0.965  10.399   8.649  0.0001  0.2288  0.7860
25682SOL    HW280578   1.061  10.507   8.603  0.4473 -0.4510  0.0961
25683SOL     OW80579   2.355   3.559   6.314 -0.2738 -0.4449  0.5269
25683SOL    HW180580   2.320   3.618   6.247  1.3722 -0.6570 -0.5769
25683SOL    HW280581   2.291   3.488   6.319 -0.7707 -0.0753 -0.2993
25684SOL     OW80582   6.131   3.863   4.974 -0.7897  0.1065 -0.2662
25684SOL    HW180583   6.197   3.890   4.911 -1.0890  1.2813 -0.1109
25684SOL    HW280584   6.180   3.827   5.047 -0.2970  1.1322 -0.0748
25685SOL     OW80585   1.019   5.963  10.630  0.0087  0.1798  0.3435
25685SOL    HW180586   1.034   5.951  10.724  2.0843  0.0394  0.0323
25685SOL    HW280587   1.011   5.874  10.596  0.7356  0.1651  0.1907
25686SOL     OW80588   7.979   1.674   8.692 -0.2080 -0.0133  0.4307
25686SOL    HW180589   7.948   1.617   8.622 -0.4522 -0.6758  1.0674
25686SOL    HW280590   8.072   1.653   8.701 -0.2420 -0.1430  0.4936
25687SOL     OW80591   1.185   8.461   2.329  0.5722 -0.2343  0.6577
25687SOL    HW180592   1.169   8.473   2.423  0.1355  2.5420  0.3022
25687SOL    HW280593   1.216   8.547   2.299  3.0152 -1.6703 -1.3274
25688SOL     OW80594  10.649   3.714   9.585 -0.5845 -0.3423  0.2786
25688SOL    HW180595  10.738   3.701   9.553 -0.2981 -1.1137  1.3462
25688SOL    HW280596  10.619   3.793   9.541  1.0676  0.6306  0.8073
25689SOL     OW80597   8.694   9.001   2.238 -0.3223 -1.0051 -0.0590
25689SOL    HW180598   8.600   8.989   2.250 -0.2441 -0.0823  1.8339
25689SOL    HW280599   8.708   9.096   2.246  0.8456 -1.1892  0.3656
25690SOL     OW80600   6.281   7.827   5.624 -0.2440  0.0341 -0.5761
25690SOL    HW180601   6.357   7.883   5.606 -0.5038  0.9846  1.0456
25690SOL    HW280602   6.237   7.818   5.540  1.7073 -0.6498 -1.5976
25691SOL     OW80603   0.993   5.149   8.039  0.6067  0.1585 -0.3245
25691SOL    HW180604   1.025   5.085   8.102 -0.2781  0.5477  0.5556
25691SOL    HW280605   1.009   5.234   8.081 -1.6800  0.3731  0.2616
25692SOL     OW80606   7.488   9.961   0.500  0.6641 -0.4025 -0.2095
25692SOL    HW180607   7.549   9.976   0.428  0.5098  1.5257 -0.0125
25692SOL    HW280608   7.416   9.911   0.462  1.2830 -0.6863 -1.0221
25693SOL     OW80609   5.168   1.514   0.858  0.6407 -0.3316 -0.1970
25693SOL    HW180610   5.125   1.585   0.811  0.5261 -1.9745 -2.7515
25693SOL    HW280611   5.098   1.453   0.880  0.8265 -0.0221  1.4172
25694SOL     OW80612   8.301   8.250  10.418  0.2341  0.1751 -0.1998
25694SOL    HW180613   8.272   8.236  10.329  2.0398 -1.1908 -0.6289
25694SOL    HW280614   8.397   8.247  10.413  0.3803 -0.9714  1.9146
25695SOL     OW80615   6.108   1.263   5.253 -0.0791  0.0864 -0.1562
25695SOL    HW180616   6.197   1.296   5.267  0.3106 -1.1980  0.6395
25695SOL    HW280617   6.084   1.293   5.166  1.8375 -1.0085 -1.1346
25696SOL     OW80618   7.391   4.781   4.088 -0.0233  0.4521 -0.0948
25696SOL    HW180619   7.389   4.876   4.081  0.6155  0.3945 -1.1527
25696SOL    HW280620   7.399   4.750   3.998 -1.3815 -0.6503  0.1205
25697SOL     OW80621   4.873   1.195   4.861  0.0981 -0.2053 -0.2665
25697SOL    HW180622   4.788   1.151   4.868  0.0340  0.1178  1.4969
25697SOL    HW280623   4.932   1.140   4.912  0.5404  0.5139 -0.0005
25698SOL     OW80624   2.026   1.535   9.254 -0.1593 -0.1922 -0.1223
25698SOL    HW180625   1.946   1.530   9.308 -2.2662 -1.4743 -3.0858
25698SOL    HW280626   2.054   1.626   9.263 -1.6550  0.1905  1.4072
25699SOL     OW80627   2.415   4.278   5.787  0.5647  0.2768 -0.1890
25699SOL    HW180628   2.443   4.223   5.860  0.2054  0.2143 -0.0941
25699SOL    HW280629   2.436   4.227   5.708 -1.1721 -0.7147 -0.0744
25700SOL     OW80630   0.310  10.915   1.129  0.0323 -0.3612 -0.6602
25700SOL    HW180631   0.319  10.833   1.080 -0.1471 -2.4220  2.4679
25700SOL    HW280632   0.400  10.942   1.147  0.0805 -0.3279 -0.9347
25701SOL     OW80633   1.034  10.511   5.163  0.0076 -0.0877  0.0808
25701SOL    HW180634   1.057  10.576   5.230  0.6635 -0.2236 -0.0070
25701SOL    HW280635   1.011  10.433   5.212 -4.2201  1.1164  0.4155
25702SOL     OW80636  10.428   1.792   5.372 -0.0489  0.1438 -0.3495
25702SOL    HW180637  10.413   1.700   5.350 -1.4799  0.3723 -0.4381
25702SOL    HW280638  10.517   1.809   5.344 -0.5029 -0.6286 -2.4608
25703SOL     OW80639   0.880   5.832   4.084 -0.1575 -0.1516 -0.5644
25703SOL    HW180640   0.849   5.787   4.006  0.6054 -0.7999 -0.5084
25703SOL    HW280641   0.813   5.897   4.103 -1.3391 -1.3339 -0.5879
25704SOL     OW80642   2.652   7.222   1.583  0.3100  0.2109  0.1068
25704SOL    HW180643   2.672   7.231   1.489 -0.1085 -2.0654 -0.2688
25704SOL    HW280644   2.564   7.257   1.592  0.4555  0.6971 -0.3062
25705SOL     OW80645   5.544   7.070  10.851  0.1838 -0.4595  0.2371
25705SOL    HW180646   5.531   6.976  10.861  0.2680 -0.6003 -0.8225
25705SOL    HW280647   5.473   7.098  10.794 -0.1649  0.2322  0.9863
25706SOL     OW80648   9.243   7.311   0.340 -0.4709 -0.2957 -0.3958
25706SOL    HW180649   9.152   7.329   0.317 -1.3064 -2.5509  0.7108
25706SOL    HW280650   9.248   7.215   0.343  1.6861 -0.2192  0.5184
25707SOL     OW80651   6.756   2.182   1.452  0.2361 -0.1354  0.6143
25707SOL    HW180652   6.749   2.260   1.396 -0.0017 -0.0579  0.7488
25707SOL    HW280653   6.688   2.123   1.420  0.5818 -0.3938  0.3505
25708SOL     OW80654   3.739   5.162   4.503  0.0057  0.6110 -0.3860
25708SOL    HW180655   3.714   5.125   4.588  0.8256 -2.1585 -1.2543
25708SOL    HW280656   3.670   5.225   4.484 -1.6631 -0.6227  1.1317
25709SOL     OW80657   7.325   8.523   8.109  0.5531 -0.2436 -0.6192
25709SOL    HW180658   7.261   8.569   8.054 -0.9593 -1.4759  0.0468
25709SOL    HW280659   7.322   8.569   8.193 -0.0390 -0.7465 -0.3531
25710SOL     OW80660   4.251   5.389   0.090  0.0672 -0.3341 -0.3216
25710SOL    HW180661   4.189   5.331   0.045  0.1032  1.1955 -2.5098
25710SOL    HW280662   4.317   5.407   0.024  0.3759  1.6884  0.5011
25711SOL     OW80663   2.893   5.166   0.866 -0.3022 -0.2340 -0.1292
25711SOL    HW180664   2.963   5.101   0.856 -0.2657  0.0056 -1.5870
25711SOL    HW280665   2.840   5.132   0.938 -0.2441 -1.8547 -0.8046
25712SOL     OW80666   6.539   8.680   1.444 -0.1209  0.1727  0.4759
25712SOL    HW180667   6.481   8.749   1.412  1.2150  0.3166 -1.8549
25712SOL    HW280668   6.625   8.701   1.408  0.4278 -2.4559 -0.0184
25713SOL     OW80669   9.522   8.853  11.082  0.0351  0.2241 -0.1437
25713SOL    HW180670   9.530   8.826  10.990 -0.5619 -0.9238  0.1267
25713SOL    HW280671   9.437   8.818  11.110  0.5173 -0.0428  1.0346
25714SOL     OW80672   5.408   8.713  10.367 -0.2665 -0.4585 -0.2183
25714SOL    HW180673   5.393   8.649  10.436  0.4632 -0.1124  0.2746
25714SOL    HW280674   5.412   8.797  10.413  0.6141 -0.2658 -0.6246
25715SOL     OW80675   7.495   4.136   7.063  0.1803  0.1937  0.2306
25715SOL    HW180676   7.458   4.182   6.986 -1.1485  0.7133  1.1340
25715SOL    HW280677   7.456   4.181   7.138  0.6482 -0.9730  1.1972
25716SOL     OW80678   0.598   2.238   3.483 -0.6222  0.5059 -0.3486
25716SOL    HW180679   0.564   2.267   3.568  2.5942 -0.5448  1.4713
25716SOL    HW280680   0.647   2.313   3.449  0.4982  0.0430  0.1856
25717SOL     OW80681   9.914  10.850   2.991 -0.1798  0.5752 -0.2035
25717SOL    HW180682   9.870  10.934   2.980  0.6692  1.1552  0.6459
25717SOL    HW280683   9.995  10.858   2.941 -1.0080 -0.5100 -1.8051
25718SOL     OW80684  11.039   1.719   2.150 -0.0419  0.1254  0.0883
25718SOL    HW180685  11.113   1.693   2.205  0.7491  1.9554 -0.0704
25718SOL    HW280686  10.990   1.782   2.202 -0.8245 -0.1692 -0.2698
25719SOL     OW80687   3.763   3.287   5.892  0.1022  0.0961 -0.2633
25719SOL    HW180688   3.772   3.327   5.805  2.0188 -0.4926 -0.3843
25719SOL    HW280689   3.844   3.238   5.904  0.0052  0.3939  1.9955
25720SOL     OW80690   1.452   9.977   2.730 -0.0435 -0.0030 -0.4322
25720SOL    HW180691   1.443   9.891   2.688 -2.7153  0.1300 -0.3464
25720SOL    HW280692   1.519   9.964   2.797  0.5960 -1.6456 -1.3281
25721SOL     OW80693   6.607   8.719   1.141  0.4146  0.5730 -0.0021
25721SOL    HW180694   6.652   8.795   1.103  0.1221  0.9533  0.4126
25721SOL    HW280695   6.674   8.677   1.195  0.6889  0.3152 -0.5396
25722SOL     OW80696   3.241   4.210   0.317  0.4557  0.2487  0.1408
25722SOL    HW180697   3.300   4.138   0.340  0.2169  0.5328  1.8385
25722SOL    HW280698   3.219   4.250   0.402 -2.1135  0.2105 -0.4217
25723SOL     OW80699   2.988   8.264   9.477  0.0636 -0.2861  0.5290
25723SOL    HW180700   2.958   8.288   9.390 -0.5209  0.2606  0.8661
25723SOL    HW280701   3.028   8.178   9.466 -0.3880 -0.4148 -0.1998
25724SOL     OW80702   1.302   5.600   5.717  0.3647  0.3898 -0.1163
25724SOL    HW180703   1.306   5.523   5.774  1.3613  1.2678  1.0467
25724SOL    HW280704   1.294   5.674   5.777  1.3317  1.3385 -1.1172
25725SOL     OW80705   5.514   5.597   1.492  0.0755  0.7467  0.2911
25725SOL    HW180706   5.455   5.526   1.466 -0.6232  0.8972  1.3623
25725SOL    HW280707   5.470   5.676   1.461  0.4973  0.7595 -0.2761
25726SOL     OW80708   5.266   9.632   1.835 -0.4563 -0.6687  0.0596
25726SOL    HW180709   5.297   9.683   1.760 -1.3220 -0.5812 -0.2557
25726SOL    HW280710   5.243   9.547   1.798  1.1278 -1.3665  0.6103
25727SOL     OW80711  10.480   3.055   8.065  0.1538 -0.4601  0.1024
25727SOL    HW180712  10.416   3.127   8.074  0.6247  0.1678 -1.3607
25727SOL    HW280713  10.429   2.982   8.030 -0.0570 -0.4309  0.3436
25728SOL     OW80714   9.238   1.679   0.421 -0.4499 -0.1432 -0.1664
25728SOL    HW180715   9.258   1.699   0.329 -2.0716  1.7015 -0.1947
25728SOL    HW280716   9.295   1.738   0.471  0.1531 -0.8705  0.0143
25729SOL     OW80717  10.229   1.482   9.212 -0.1717 -0.1599  0.0452
25729SOL    HW180718  10.186   1.563   9.238 -1.4373 -1.5304  2.6946
25729SOL    HW280719  10.158   1.419   9.201  0.8151 -1.1044 -1.2616
25730SOL     OW80720   3.986   1.237   1.590 -0.7792 -0.1662  0.3251
25730SOL    HW180721   3.969   1.322   1.550 -1.2874 -0.2840  0.2745
25730SOL    HW280722   3.933   1.238   1.670 -0.3104 -0.2000  0.6360
25731SOL     OW80723   6.019   9.064   2.691  0.6882  0.4660 -0.2373
25731SOL    HW180724   5.959   9.029   2.625  0.2835  0.5100  0.1093
25731SOL    HW280725   6.091   9.000   2.693 -0.7568 -1.2056  1.4859
25732SOL     OW80726   4.840   6.188   7.110  0.1576 -0.4462 -0.2666
25732SOL    HW180727   4.784   6.185   7.032 -1.5861 -0.5661  0.9478
25732SOL    HW280728   4.923   6.151   7.080 -0.3882 -0.2899 -2.1262
25733SOL     OW80729   5.552   7.056   6.113 -0.5657  0.2612  0.1583
25733SOL    HW180730   5.627   7.022   6.065  0.1639 -1.6358  2.4526
25733SOL    HW280731   5.571   7.149   6.124  0.8566  0.0598 -0.3642
25734SOL     OW80732   1.421   4.288   4.385  0.3261 -0.6830 -0.2081
25734SOL    HW180733   1.463   4.374   4.378  0.2664 -0.7348 -1.4991
25734SOL    HW280734   1.412   4.273   4.479  1.2623  0.2725  0.0550
25735SOL     OW80735  10.143   2.764   1.043 -1.0209 -0.0594 -0.5710
25735SOL    HW180736  10.131   2.671   1.060  0.3049 -0.1840 -0.2198
25735SOL    HW280737  10.097   2.779   0.960 -1.6730 -0.9000 -0.3771
25736SOL     OW80738   9.669  10.712   9.153  0.4146  0.2118  0.3597
25736SOL    HW180739   9.662  10.751   9.066 -1.2486 -0.1031  0.3078
25736SOL    HW280740   9.659  10.618   9.137  0.5370  0.1149  0.8426
25737SOL     OW80741   8.432   2.780   0.381  0.2842 -0.3159  0.1124
25737SOL    HW180742   8.485   2.780   0.460  0.0490 -4.1218  0.4320
25737SOL    HW280743   8.481   2.728   0.318 -0.7632  0.4058 -1.3733
25738SOL     OW80744   3.039   0.969   8.061 -0.3555 -0.6205  0.0306
25738SOL    HW180745   3.050   1.057   8.097  3.3360 -1.0714  0.4029
25738SOL    HW280746   2.963   0.933   8.106 -0.3732  1.4728  1.8015
25739SOL     OW80747   9.946   8.666   1.079  0.0855  0.2050  0.1592
25739SOL    HW180748   9.938   8.708   1.165 -1.1979  1.0555 -0.3479
25739SOL    HW280749  10.040   8.657   1.065  0.3297  0.9517  1.2213
25740SOL     OW80750   8.868   9.870   5.340 -0.1836  0.4743 -0.1201
25740SOL    HW180751   8.909   9.948   5.303  0.7414 -0.9311 -2.2965
25740SOL    HW280752   8.941   9.820   5.376 -0.3649 -0.5732 -1.1430
25741SOL     OW80753   2.520   5.722  10.633  0.0886 -0.1403  0.3086
25741SOL    HW180754   2.560   5.677  10.559  0.2798 -1.0120  0.9251
25741SOL    HW280755   2.429   5.737  10.606  0.7063  1.6728 -1.0242
25742SOL     OW80756   8.041  11.100   9.499  0.3343  0.1644  0.2933
25742SOL    HW180757   8.113  11.150   9.538 -0.4962  1.1034  0.6769
25742SOL    HW280758   8.054  11.011   9.530  1.1968  0.3694  0.5463
25743SOL     OW80759   5.014   0.994   9.782 -0.2634  0.6910 -0.3651
25743SOL    HW180760   5.011   1.052   9.858 -0.1065  0.2997 -0.0564
25743SOL    HW280761   4.930   0.947   9.785 -0.0020  0.2377 -0.0823
25744SOL     OW80762   8.594   1.843   6.815 -0.2281 -0.4534 -0.6016
25744SOL    HW180763   8.602   1.927   6.770  4.2367 -0.5850 -0.5909
25744SOL    HW280764   8.556   1.784   6.750 -0.3660  0.8617 -1.7625
25745SOL     OW80765   7.808   2.481   0.180 -0.0173  0.1202 -0.2338
25745SOL    HW180766   7.725   2.482   0.227  0.1790  0.9290  0.1283
25745SOL    HW280767   7.824   2.389   0.159 -0.9084 -0.0597 -0.1429
25746SOL     OW80768   6.814   2.055   0.711 -0.1227 -0.4203  0.0584
25746SOL    HW180769   6.887   1.998   0.736 -0.0239  0.4328  1.8866
25746SOL    HW280770   6.825   2.133   0.766 -1.9450  0.0760 -0.2247
25747SOL     OW80771   7.637   4.993   5.028 -0.8531 -0.6575 -0.2940
25747SOL    HW180772   7.616   4.900   5.038 -1.1151 -0.3534  3.5187
25747SOL    HW280773   7.699   5.011   5.099 -1.2695  2.1995 -0.5332
25748SOL     OW80774   0.848   8.916   5.477 -0.9817 -0.1848 -0.1144
25748SOL    HW180775   0.898   8.924   5.558 -2.1525  0.1235  0.6090
25748SOL    HW280776   0.798   8.836   5.487 -3.8839  1.6203  1.1347
25749SOL     OW80777   5.258   0.880   1.081 -0.1120 -0.1623 -0.0518
25749SOL    HW180778   5.278   0.810   1.019 -2.0493 -1.2803  0.5097
25749SOL    HW280779   5.231   0.835   1.161 -4.2197  1.0380 -0.5248
25750SOL     OW80780   6.540   6.521   8.090 -0.3488 -0.3216  0.4878
25750SOL    HW180781   6.552   6.530   8.184 -1.6308 -1.0008  0.7454
25750SOL    HW280782   6.548   6.610   8.055 -0.4761  0.0203  1.3163
25751SOL     OW80783   3.430   8.200   6.264 -0.2155  0.0345 -0.6702
25751SOL    HW180784   3.407   8.275   6.209 -1.4725  0.1066 -0.0844
25751SOL    HW280785   3.349   8.150   6.271 -0.1345  0.0981  1.1861
25752SOL     OW80786   7.582   7.979   2.016 -0.3025  0.3371 -0.0077
25752SOL    HW180787   7.602   7.943   1.930 -2.1103  1.6121 -1.0262
25752SOL    HW280788   7.519   7.918   2.054  0.1497  0.0105  0.2137
25753SOL     OW80789   5.426   7.773   2.206 -0.1126 -0.2485 -0.4408
25753SOL    HW180790   5.497   7.721   2.245 -0.2948  0.0566  0.3157
25753SOL    HW280791   5.467   7.858   2.186 -0.1598 -0.2153 -0.3960
25754SOL     OW80792  10.006   5.199   0.244 -0.0678 -0.5396 -0.4519
25754SOL    HW180793   9.957   5.279   0.228  1.2030  0.1683 -0.9785
25754SOL    HW280794   9.979   5.140   0.173 -0.2168 -0.1849 -0.6906
25755SOL     OW80795   8.433   8.916   3.398  0.1321  0.1036 -0.0433
25755SOL    HW180796   8.419   8.821   3.399 -0.6718  0.2153  0.6568
25755SOL    HW280797   8.515   8.928   3.445 -0.2761 -0.1799  0.7630
25756SOL     OW80798  10.728   4.317   8.007  0.3906  0.2534 -0.4481
25756SOL    HW180799  10.712   4.287   8.096 -0.4069 -1.2235 -1.0676
25756SOL    HW280800  10.823   4.330   8.002  0.5529 -0.6334  0.3132
25757SOL     OW80801   1.665   5.165  10.706 -0.5177  0.0442  0.5084
25757SOL    HW180802   1.729   5.108  10.747  0.3113  0.6368  0.0690
25757SOL    HW280803   1.652   5.236  10.769  0.8853  1.0454 -0.2751
25758SOL     OW80804   9.764   7.277   0.284  0.6314  0.7424  0.1531
25758SOL    HW180805   9.758   7.296   0.377 -0.2301  0.8547  0.0848
25758SOL    HW280806   9.681   7.309   0.247  0.2636 -0.7460 -0.3851
25759SOL     OW80807   4.743   0.848   3.020  0.3327  0.3096 -0.5807
25759SOL    HW180808   4.829   0.834   2.980  0.1918 -0.2890 -0.6767
25759SOL    HW280809   4.732   0.775   3.080  0.6339  1.3151  0.7388
25760SOL     OW80810   8.770   7.285   3.173 -0.2140 -0.0597  0.3272
25760SOL    HW180811   8.761   7.193   3.198  0.4658 -0.1717  0.1711
25760SOL    HW280812   8.792   7.330   3.255  2.1640 -0.4490 -0.0085
25761SOL     OW80813   8.027   2.214  10.030  0.5800 -0.4003  0.6900
25761SOL    HW180814   7.952   2.260   9.993  1.0247  0.0338  0.3158
25761SOL    HW280815   8.018   2.226  10.125  0.5817  0.2922  0.6083
25762SOL     OW80816   0.770   1.239   3.707 -0.1943 -0.4687 -0.1205
25762SOL    HW180817   0.679   1.220   3.728 -0.2366 -0.7945 -0.5946
25762SOL    HW280818   0.770   1.258   3.613 -0.0434  1.1987  0.1877
25763SOL     OW80819   4.179   8.305   5.466 -0.2316 -0.1372  0.1036
25763SOL    HW180820   4.201   8.218   5.500 -3.2086 -0.4614  1.4944
25763SOL    HW280821   4.176   8.361   5.543 -0.8678  0.6066 -0.4492
25764SOL     OW80822   5.266  11.110   2.059 -0.1070 -0.2614 -0.2858
25764SOL    HW180823   5.354  11.078   2.076  0.0648 -0.0298 -0.7095
25764SOL    HW280824   5.260  11.192   2.108  0.4388  0.4837 -1.4064
25765SOL     OW80825   1.868   9.719   4.001 -0.0510 -0.1401  0.0914
25765SOL    HW180826   1.912   9.746   4.081  0.6559  0.3784 -0.4572
25765SOL    HW280827   1.814   9.644   4.027  0.6661 -0.3887  0.9100
25766SOL     OW80828   0.834   2.700   5.239  0.6068 -0.8884  0.0092
25766SOL    HW180829   0.846   2.671   5.148  0.3286 -1.5718  0.1800
25766SOL    HW280830   0.909   2.664   5.286  0.8441 -0.3868  0.0239
25767SOL     OW80831   7.484   8.132   7.083  0.3166 -0.1198 -0.0995
25767SOL    HW180832   7.462   8.119   7.175  0.0904  0.3702 -0.0810
25767SOL    HW280833   7.400   8.147   7.040  0.5587  1.5330 -0.0703
25768SOL     OW80834   9.515  10.451   6.831  0.4065  0.1082 -0.0189
25768SOL    HW180835   9.460  10.524   6.801 -0.7655 -0.6876  0.0833
25768SOL    HW280836   9.537  10.403   6.751  0.0884 -0.1336  0.0331
25769SOL     OW80837   4.490   0.172   2.317  0.6927  0.3850  0.5648
25769SOL    HW180838   4.578   0.140   2.295  1.1992  1.5252  0.8939
25769SOL    HW280839   4.441   0.092   2.339  0.4772 -0.7524 -3.3250
25770SOL     OW80840   0.945   9.849   6.987 -0.3534  0.7585  0.1714
25770SOL    HW180841   0.853   9.874   6.994 -1.0906 -0.7428 -2.4621
25770SOL    HW280842   0.974   9.886   6.904  0.3800 -1.5405 -0.6758
25771SOL     OW80843   1.071   2.265   1.549 -0.1871  0.0382 -0.4137
25771SOL    HW180844   1.112   2.244   1.633 -0.1064  2.0106  0.0674
25771SOL    HW280845   0.982   2.230   1.557 -0.2782  0.4573  0.6154
25772SOL     OW80846   8.939  10.113   8.862  0.0605  0.6859  0.0361
25772SOL    HW180847   8.849  10.143   8.861 -0.2440 -0.2153 -0.4781
25772SOL    HW280848   8.960  10.096   8.770  0.5587  0.3431  0.2066
25773SOL     OW80849   4.467   6.746   6.804 -0.1780  0.8943  0.5618
25773SOL    HW180850   4.406   6.806   6.762 -0.3776  1.2269  1.3086
25773SOL    HW280851   4.419   6.712   6.880  1.5092  3.4928  3.0020
25774SOL     OW80852   0.422   2.883   2.591 -0.7050  0.4601 -0.3753
25774SOL    HW180853   0.434   2.957   2.651  0.3420 -0.2131  0.2693
25774SOL    HW280854   0.484   2.817   2.621 -1.3428 -0.5401 -1.1903
25775SOL     OW80855   0.866   2.869   8.450 -0.2000  0.6090 -0.0578
25775SOL    HW180856   0.807   2.924   8.399  1.1125  1.9761 -0.1933
25775SOL    HW280857   0.923   2.828   8.385  1.8971  2.8491  0.1978
25776SOL     OW80858  10.827   1.345   8.313  0.0524 -0.0765 -0.7228
25776SOL    HW180859  10.775   1.265   8.312  1.4492 -1.0714  1.0660
25776SOL    HW280860  10.782   1.403   8.253 -1.6329 -1.8068 -1.2289
25777SOL     OW80861   4.705   3.074   7.234  0.2156 -0.4768 -0.0216
25777SOL    HW180862   4.626   3.053   7.184  0.0670 -2.2992  0.9059
25777SOL    HW280863   4.777   3.057   7.174 -0.0471  0.9182 -0.7800
25778SOL     OW80864  10.539   0.287   1.220  0.6174  0.1360  0.2636
25778SOL    HW180865  10.615   0.233   1.241  0.5214 -0.3096 -0.5102
25778SOL    HW280866  10.468   0.223   1.207  0.1828  0.5285  0.6560
25779SOL     OW80867   6.407   3.667   7.918  0.8972 -0.4804 -0.4009
25779SOL    HW180868   6.350   3.675   7.995 -1.3238  0.8898 -2.0485
25779SOL    HW280869   6.437   3.757   7.901 -1.1537 -0.1379 -2.7977
25780SOL     OW80870   7.758   7.832   5.681 -0.1184  1.0672  0.4490
25780SOL    HW180871   7.818   7.884   5.627 -0.7299  1.7729  0.4528
25780SOL    HW280872   7.811   7.756   5.707  0.0903  0.5358 -1.4144
25781SOL     OW80873   6.855   7.866   6.267  1.1027  0.2300  0.7634
25781SOL    HW180874   6.941   7.852   6.306  1.2760  0.1084  0.3542
25781SOL    HW280875   6.871   7.859   6.172  0.2941 -1.9107  0.7275
25782SOL     OW80876   7.336   8.956   5.678 -0.1155 -0.4365  0.0325
25782SOL    HW180877   7.394   8.917   5.743 -1.0201  0.1175  1.2225
25782SOL    HW280878   7.275   9.008   5.730 -1.3254 -0.5622 -1.2178
25783SOL     OW80879   4.224   0.266   1.733  0.6249 -0.0650  0.0239
25783SOL    HW180880   4.237   0.328   1.661  1.9803 -1.3378 -0.8788
25783SOL    HW280881   4.176   0.193   1.694  1.6289 -0.9021  0.3108
25784SOL     OW80882   1.596   9.278   8.918 -0.0596  0.2014 -0.5657
25784SOL    HW180883   1.577   9.196   8.964  1.2454  0.3678  0.3138
25784SOL    HW280884   1.638   9.251   8.836  1.6467 -0.0087  0.3425
25785SOL     OW80885   2.639  10.985  11.047 -0.0413 -0.3047  0.3176
25785SOL    HW180886   2.603  11.031  11.123  0.0133 -1.3779  1.0015
25785SOL    HW280887   2.733  10.997  11.053 -0.1222  1.2208 -0.6536
25786SOL     OW80888   8.942   4.327   5.741 -0.1060  0.5129 -0.9019
25786SOL    HW180889   8.860   4.345   5.695 -0.9765 -1.3614 -0.1864
25786SOL    HW280890   8.984   4.413   5.749 -0.6245  1.1406 -3.7673
25787SOL     OW80891   2.451   4.342   7.153 -0.1873  0.6293 -0.1819
25787SOL    HW180892   2.443   4.251   7.123 -0.8084  1.3275 -2.2755
25787SOL    HW280893   2.362   4.377   7.147  0.1341  1.5345  0.1375
25788SOL     OW80894  11.117   3.117  11.047  0.6473 -0.2808  0.3221
25788SOL    HW180895  11.167   3.177  10.992 -0.9174  0.3864 -0.4394
25788SOL    HW280896  11.049   3.172  11.086  0.1905 -1.2475  0.9237
25789SOL     OW80897   4.409   0.086  10.013 -0.3669  0.1026  0.0104
25789SOL    HW180898   4.460   0.156   9.971 -0.3546 -0.2457 -0.5667
25789SOL    HW280899   4.403   0.113  10.104  2.4825 -0.7617  0.5421
25790SOL     OW80900   2.735   1.138   7.960  0.0297  0.1370 -0.1425
25790SOL    HW180901   2.720   1.054   8.003  0.6717 -0.2787 -0.7098
25790SOL    HW280902   2.765   1.196   8.029 -1.2058  0.1436  0.4186
25791SOL     OW80903   9.421   9.760   6.151  0.0520 -0.6585  0.4106
25791SOL    HW180904   9.445   9.709   6.074  0.1760 -0.3893  0.2699
25791SOL    HW280905   9.358   9.706   6.197 -0.0456 -0.8073  0.1022
25792SOL     OW80906   4.152   6.075  10.149  0.2495 -0.4408 -0.2130
25792SOL    HW180907   4.137   5.981  10.141 -0.2417 -0.3794 -0.0240
25792SOL    HW280908   4.073   6.116  10.113  0.5418 -0.0962 -0.4702
25793SOL     OW80909   8.712   7.411   0.772  0.1176  0.0005  0.0221
25793SOL    HW180910   8.765   7.356   0.715  0.4295 -0.2213  0.5162
25793SOL    HW280911   8.765   7.489   0.785 -0.8868  1.0647 -1.7726
25794SOL     OW80912   0.698   8.000   5.540 -0.3406 -0.5855  0.1478
25794SOL    HW180913   0.783   7.960   5.556  0.4199  0.3826 -1.2722
25794SOL    HW280914   0.716   8.072   5.479 -1.9248  0.7259  1.1295
25795SOL     OW80915  10.188   6.855   4.410 -0.5190  0.4830  0.2460
25795SOL    HW180916  10.154   6.845   4.321  0.0713  1.4735 -0.1101
25795SOL    HW280917  10.219   6.768   4.434 -0.2583  0.3012 -0.7043
25796SOL     OW80918   1.891   3.656   4.669 -0.0701  0.6118 -0.6335
25796SOL    HW180919   1.869   3.707   4.746  0.6080  1.8552 -1.2338
25796SOL    HW280920   1.820   3.673   4.607  0.6038  1.5730 -1.1640
25797SOL     OW80921   5.490   4.766   1.655 -0.5843  0.1855  0.1410
25797SOL    HW180922   5.477   4.859   1.637  0.6415  0.0660 -1.6582
25797SOL    HW280923   5.556   4.764   1.724  0.0542  0.6731 -0.4423
25798SOL     OW80924   2.540   5.565   9.061  0.4523  0.4747 -0.3451
25798SOL    HW180925   2.457   5.596   9.025  1.4766  0.9236 -2.4980
25798SOL    HW280926   2.585   5.645   9.090  0.7883  0.4088 -0.6783
25799SOL     OW80927   8.655   2.788  10.658  0.2864  1.0025  0.7498
25799SOL    HW180928   8.563   2.771  10.640  0.3104  0.4775  1.1048
25799SOL    HW280929   8.660   2.882  10.671 -0.1422  1.0763  0.4007
25800SOL     OW80930   1.424   4.612   3.604 -0.1675 -0.3312  0.6769
25800SOL    HW180931   1.475   4.674   3.553 -0.2941 -0.3206  0.5642
25800SOL    HW280932   1.405   4.658   3.686  0.3064 -0.4629  0.8656
25801SOL     OW80933   4.247   8.289   3.848  0.2776  0.0259 -0.4159
25801SOL    HW180934   4.238   8.273   3.942  0.1796  0.4229 -0.3535
25801SOL    HW280935   4.215   8.379   3.837 -1.0781 -0.5087 -1.0488
25802SOL     OW80936   3.280  10.295   0.830  0.2986 -0.0398 -0.2909
25802SOL    HW180937   3.342  10.334   0.769  1.7608 -1.0637  0.4802
25802SOL    HW280938   3.331  10.229   0.878 -0.8872  0.4151  1.7277
25803SOL     OW80939   7.856   3.302   6.340 -0.4142 -0.5016 -0.2671
25803SOL    HW180940   7.897   3.216   6.335 -0.6852 -0.7022  0.7569
25803SOL    HW280941   7.872   3.341   6.254  0.3979 -1.2577 -0.4747
25804SOL     OW80942   9.368   3.451   3.504  0.2363 -0.5176  0.3130
25804SOL    HW180943   9.341   3.377   3.558 -1.1657 -0.0473  0.2958
25804SOL    HW280944   9.311   3.523   3.530  0.0518 -0.0563 -1.2283
25805SOL     OW80945   6.589   2.303   7.291  0.1564 -0.4449 -0.0287
25805SOL    HW180946   6.552   2.223   7.328  1.0225 -0.4124  0.9403
25805SOL    HW280947   6.570   2.370   7.356  1.3142 -0.2972  0.1777
25806SOL     OW80948   3.042   1.089   4.519 -0.2147 -0.0703  0.4593
25806SOL    HW180949   3.097   1.164   4.494 -0.2963  0.0425  0.6174
25806SOL    HW280950   3.098   1.034   4.572 -0.2023 -0.0415  0.4758
25807SOL     OW80951   6.204   7.717   4.404  0.1322 -0.2537  0.1855
25807SOL    HW180952   6.131   7.655   4.412 -0.0393  0.0563  1.0738
25807SOL    HW280953   6.170   7.799   4.441  1.0016 -0.1708  0.8205
25808SOL     OW80954   2.382   8.044   4.758  0.6166 -0.0607  0.2083
25808SOL    HW180955   2.386   8.091   4.675 -1.1031 -0.5698 -0.1915
25808SOL    HW280956   2.333   8.103   4.816  1.8999  0.3404  0.9144
25809SOL     OW80957   3.291   5.618   9.529 -0.0008 -0.0214  0.0428
25809SOL    HW180958   3.249   5.655   9.451 -1.2519 -0.8114  0.3115
25809SOL    HW280959   3.382   5.645   9.522 -0.0695 -0.1389 -1.7420
25810SOL     OW80960   8.674   3.647  10.699  0.0328 -0.8068  0.2141
25810SOL    HW180961   8.766   3.621  10.702  0.2778 -0.2924 -1.6038
25810SOL    HW280962   8.640   3.605  10.620 -0.6487  0.9172 -0.4568
25811SOL     OW80963   0.301   0.698   6.114  0.6079  0.4228 -0.0682
25811SOL    HW180964   0.301   0.659   6.201 -0.4038 -0.0129 -0.2451
25811SOL    HW280965   0.326   0.626   6.056 -0.4036  0.2444 -0.3048
25812SOL     OW80966   4.966   4.741  10.225  0.1347  0.4339  0.5777
25812SOL    HW180967   4.909   4.758  10.300 -0.3097 -0.0377  0.3568
25812SOL    HW280968   5.045   4.791  10.242 -0.7841  2.0132  0.3616
25813SOL     OW80969   3.402   7.524   7.917 -0.3433  0.2668 -0.3455
25813SOL    HW180970   3.330   7.544   7.857  0.5088  0.7222 -1.2475
25813SOL    HW280971   3.463   7.473   7.863  0.5932  0.9655  0.0388
25814SOL     OW80972   2.353   6.159   3.115  0.2828 -0.3580  0.0975
25814SOL    HW180973   2.446   6.149   3.137  0.2777 -0.7039 -0.0451
25814SOL    HW280974   2.349   6.140   3.022  0.5129  2.2895 -0.5483
25815SOL     OW80975   8.634   8.113   6.769 -0.2577 -0.5479  0.0736
25815SOL    HW180976   8.678   8.125   6.853  1.5049 -1.7611 -0.6171
25815SOL    HW280977   8.704   8.090   6.708 -1.5095  0.1121 -1.7106
25816SOL     OW80978   4.229   6.220   5.943  0.0356  0.4839 -0.1929
25816SOL    HW180979   4.262   6.307   5.965 -0.1408  0.3048  0.8248
25816SOL    HW280980   4.267   6.201   5.857  1.9516  0.6232  0.5652
25817SOL     OW80981   2.251   2.712   7.319 -0.0339  0.6004  0.3233
25817SOL    HW180982   2.167   2.751   7.345  0.6557  1.7957  0.8406
25817SOL    HW280983   2.230   2.621   7.299 -1.6286  1.1230 -0.5034
25818SOL     OW80984   2.829   4.465   1.144  0.9021 -0.4972 -0.0489
25818SOL    HW180985   2.737   4.475   1.166  0.6984 -1.5635 -0.3827
25818SOL    HW280986   2.830   4.402   1.072  1.9213 -0.8028  0.2156
25819SOL     OW80987   9.457   8.509   3.223  0.1220  0.1843 -0.3084
25819SOL    HW180988   9.392   8.574   3.249  1.3216  1.1488  0.4269
25819SOL    HW280989   9.455   8.510   3.128 -0.9002  0.2180 -0.3000
25820SOL     OW80990   8.601   6.512   9.090 -0.0491 -0.4781 -0.3114
25820SOL    HW180991   8.670   6.565   9.051  0.6629 -0.3355  1.0745
25820SOL    HW280992   8.589   6.549   9.178 -3.3899  0.8856 -1.1704
25821SOL     OW80993  10.338  10.622   8.076  0.4881  0.1009 -0.0584
25821SOL    HW180994  10.358  10.570   8.153 -0.7780  0.4415  0.5364
25821SOL    HW280995  10.364  10.711   8.099 -1.6676  0.5835  0.7952
25822SOL     OW80996   7.672   4.280   2.593  0.0653  0.0626  0.1915
25822SOL    HW180997   7.654   4.373   2.606 -1.4363 -0.0290 -0.9766
25822SOL    HW280998   7.590   4.244   2.559  0.5975 -1.7061  0.6637
25823SOL     OW80999   5.111   7.442   1.651 -0.0258  0.0074  0.0827
25823SOL    HW181000   5.187   7.473   1.701 -0.6706  1.2056  0.3500
25823SOL    HW281001   5.056   7.519   1.640 -1.0966 -0.7887 -0.3271
25824SOL     OW81002   9.311   6.102   7.157  0.1731  0.4723  0.3456
25824SOL    HW181003   9.272   6.113   7.244  1.4312  0.3607  0.9496
25824SOL    HW281004   9.406   6.106   7.173  0.4403 -0.5554 -0.8827
25825SOL     OW81005   5.472   5.602   5.777  0.9875  0.0281  0.6864
25825SOL    HW181006   5.504   5.550   5.704 -1.1202 -0.3558 -0.0448
25825SOL    HW281007   5.377   5.593   5.773  0.4837  3.5713  0.7538
25826SOL     OW81008   1.394   8.127   4.859  0.1751 -0.0381 -0.8317
25826SOL    HW181009   1.423   8.217   4.845 -0.6436  0.1760 -1.2134
25826SOL    HW281010   1.383   8.120   4.954  1.1100 -0.0186 -0.7149
25827SOL     OW81011   9.219   4.474   8.998 -0.3923  0.0840  0.8299
25827SOL    HW181012   9.290   4.501   9.056  1.2442  1.0298 -1.4626
25827SOL    HW281013   9.197   4.553   8.948  0.1961 -1.2749 -1.7315
25828SOL     OW81014   7.777   5.636   0.068 -0.0426  0.2132  0.2071
25828SOL    HW181015   7.717   5.681   0.009 -1.5366 -0.4785  1.1340
25828SOL    HW281016   7.725   5.617   0.146  0.3009 -3.5531 -0.2883
25829SOL     OW81017   5.127   6.970   5.799  0.0383 -0.1151 -0.4467
25829SOL    HW181018   5.043   6.995   5.761 -0.2137  0.9265  0.7569
25829SOL    HW281019   5.188   7.038   5.771 -0.2139  0.8215  1.2209
25830SOL     OW81020   7.899   9.384  10.788 -0.3317  0.1104 -0.3673
25830SOL    HW181021   7.860   9.469  10.810  0.3056 -0.0702  1.6334
25830SOL    HW281022   7.828   9.321  10.802 -0.4260  0.1811 -0.5298
25831SOL     OW81023   6.204   6.617  10.323  0.0907 -0.3415 -0.3892
25831SOL    HW181024   6.269   6.687  10.328 -0.0399 -0.0490 -2.2353
25831SOL    HW281025   6.221   6.573  10.240 -0.4396 -1.9149  0.2957
25832SOL     OW81026   4.174   8.597   4.035 -0.6444  0.4552  0.1104
25832SOL    HW181027   4.255   8.547   4.025 -0.9269  0.0493 -0.1641
25832SOL    HW281028   4.112   8.555   3.976 -0.9068  1.0918 -0.0736
25833SOL     OW81029   8.086   5.340   3.768 -0.2963 -0.0397 -0.3410
25833SOL    HW181030   7.998   5.304   3.777 -0.1437 -0.6498 -1.1155
25833SOL    HW281031   8.141   5.264   3.747  0.4823  0.2773  0.4874
25834SOL     OW81032   4.037   2.450   3.406  0.5158  0.4739 -0.2075
25834SOL    HW181033   4.033   2.521   3.341  0.5474  1.3266  0.6903
25834SOL    HW281034   3.979   2.479   3.477 -1.0741 -1.3366 -0.6813
25835SOL     OW81035   2.295   2.824   3.481  0.9207  0.3999  0.2818
25835SOL    HW181036   2.315   2.749   3.425  0.7189  0.6803 -0.1806
25835SOL    HW281037   2.265   2.786   3.563  2.9415 -0.0300  0.8681
25836SOL     OW81038   1.555   8.593   7.890 -0.2920 -0.2707  0.3510
25836SOL    HW181039   1.614   8.638   7.950 -1.7156  1.2334  0.6849
25836SOL    HW281040   1.591   8.611   7.803 -1.0386  1.9162  0.4441
25837SOL     OW81041   4.644   2.207   4.420 -0.1377  0.2350 -0.0776
25837SOL    HW181042   4.638   2.208   4.516  0.3128  2.0156 -0.0319
25837SOL    HW281043   4.615   2.294   4.393 -1.0881 -0.5159 -1.6469
25838SOL     OW81044  10.277   0.658   3.079  0.1623  0.3379  0.0442
25838SOL    HW181045  10.357   0.656   3.131  0.3512 -0.1769 -0.2543
25838SOL    HW281046  10.222   0.724   3.121  1.3164  1.7837 -0.6141
25839SOL     OW81047   3.032   7.490  10.225  0.1860 -0.3373  0.0791
25839SOL    HW181048   2.942   7.466  10.249 -0.1223 -0.3279 -1.0265
25839SOL    HW281049   3.050   7.567  10.278 -0.3705 -0.4796  0.4939
25840SOL     OW81050   0.937   0.486  10.801  0.2074 -0.2916  0.2150
25840SOL    HW181051   0.874   0.475  10.730 -0.8114  2.0704  0.6710
25840SOL    HW281052   0.915   0.415  10.863 -0.0437 -1.2725 -0.9586
25841SOL     OW81053   6.120   0.882   7.261  0.2189 -0.2691  0.0604
25841SOL    HW181054   6.209   0.903   7.288  0.1351  0.6255 -0.3207
25841SOL    HW281055   6.115   0.909   7.169 -0.5353 -0.0065  0.1699
25842SOL     OW81056   3.076   8.771   3.657  0.1994 -0.6648  0.1856
25842SOL    HW181057   3.126   8.853   3.649 -0.2411 -0.0805  2.4993
25842SOL    HW281058   3.107   8.733   3.740  0.7291 -3.1300 -1.0381
25843SOL     OW81059   5.876   4.304   3.260 -0.6755  0.3383  0.0392
25843SOL    HW181060   5.805   4.345   3.308  0.0312  1.3673  0.2491
25843SOL    HW281061   5.950   4.306   3.321 -0.0581  0.6829 -0.6998
25844SOL     OW81062   2.278   8.214  10.284 -0.5948  0.2408  0.1213
25844SOL    HW181063   2.223   8.141  10.313 -0.5410 -0.0689 -0.5330
25844SOL    HW281064   2.331   8.237  10.360 -0.0253 -0.9503  0.1047
25845SOL     OW81065  10.052   8.012   6.062  0.0077  0.0535 -0.3546
25845SOL    HW181066  10.016   8.073   6.125  0.7207 -0.1978  0.3089
25845SOL    HW281067  10.145   8.033   6.058  0.4184 -1.4548  0.4600
25846SOL     OW81068   2.005   8.634   4.783 -0.1038 -0.2872 -0.0866
25846SOL    HW181069   1.934   8.653   4.845 -0.2805 -0.1016 -0.3446
25846SOL    HW281070   2.071   8.590   4.836 -0.2749 -0.1745  0.2261
25847SOL     OW81071   5.077  10.184   0.133 -0.4728 -0.0430  0.2830
25847SOL    HW181072   5.049  10.143   0.215  1.0587 -0.4269  0.6398
25847SOL    HW281073   5.001  10.235   0.105 -1.1140 -0.1194  1.7955
25848SOL     OW81074   3.055   9.574   0.762 -0.6641 -0.0385 -0.3913
25848SOL    HW181075   3.066   9.586   0.856 -3.1140 -1.5711  0.1964
25848SOL    HW281076   3.133   9.527   0.734 -0.5113 -0.7523  1.1469
25849SOL     OW81077   5.134   4.417   8.332 -0.4409  0.0566 -0.3473
25849SOL    HW181078   5.126   4.501   8.377 -2.2791 -0.4246  0.2930
25849SOL    HW281079   5.071   4.422   8.260 -2.1157 -1.4991  0.9296
25850SOL     OW81080   2.006   0.930   6.635 -0.0825 -0.1919 -0.1801
25850SOL    HW181081   2.062   0.975   6.699 -1.1209  2.1804 -0.8289
25850SOL    HW281082   2.059   0.856   6.605  2.0486  0.9902  0.4569
25851SOL     OW81083   5.422   7.352   2.138 -0.2099 -0.0429  0.0920
25851SOL    HW181084   5.442   7.281   2.199  0.2337 -0.4467 -0.5120
25851SOL    HW281085   5.343   7.392   2.173  0.4399  0.2105  1.3529
25852SOL     OW81086   5.543   9.793   7.569  0.2356 -0.4053  0.3584
25852SOL    HW181087   5.599   9.720   7.542 -0.5892 -0.0543 -2.6609
25852SOL    HW281088   5.536   9.784   7.664  0.8071 -3.7954  0.2115
25853SOL     OW81089   2.995   9.359   9.146 -0.2527 -0.0749 -0.4500
25853SOL    HW181090   3.052   9.421   9.192 -0.8276  1.3846 -1.6019
25853SOL    HW281091   2.914   9.360   9.196 -0.9109  1.5830 -1.4653
25854SOL     OW81092   2.479   7.073   6.001 -0.2368 -0.3988  1.1256
25854SOL    HW181093   2.430   7.067   6.083 -0.1203  0.4025  1.2615
25854SOL    HW281094   2.462   7.161   5.969  0.5672 -0.3355  0.8315
25855SOL     OW81095   5.870   0.117   4.616 -0.1747  0.2685 -0.2605
25855SOL    HW181096   5.922   0.117   4.536  1.6235 -0.6664  0.8252
25855SOL    HW281097   5.816   0.039   4.610 -0.0241  0.1853 -0.5459
25856SOL     OW81098   1.909  10.018   0.873 -0.0576  0.6943 -0.4679
25856SOL    HW181099   1.955  10.101   0.884 -0.5906  1.2871 -2.2849
25856SOL    HW281100   1.924   9.971   0.954  4.0192  0.6849 -1.0359
25857SOL     OW81101   3.981   2.164   7.661  0.0574 -0.2846  0.0044
25857SOL    HW181102   3.981   2.181   7.755 -0.1553  0.4466 -0.1213
25857SOL    HW281103   4.068   2.127   7.643 -0.1103 -0.9816  0.5733
25858SOL     OW81104   4.867   7.635   7.840  0.4551  0.4881  0.3558
25858SOL    HW181105   4.775   7.614   7.822 -0.7725  5.6768 -1.1223
25858SOL    HW281106   4.916   7.574   7.785 -2.3397  0.0998 -2.0124
25859SOL     OW81107  10.522   3.105   2.248 -0.0927  0.1341  0.6912
25859SOL    HW181108  10.499   3.095   2.340  0.8882  0.6333  1.0051
25859SOL    HW281109  10.459   3.050   2.201  0.0216 -0.8987  1.7247
25860SOL     OW81110   5.346   6.370   9.982 -0.5598 -0.3037 -0.5220
25860SOL    HW181111   5.424   6.325  10.014 -0.5120  0.4571  0.4876
25860SOL    HW281112   5.312   6.415  10.059  0.0109  2.2780 -1.6796
25861SOL     OW81113  10.439   3.640   0.456 -0.2452  0.0936  0.4993
25861SOL    HW181114  10.411   3.685   0.376 -0.7917 -0.5814  0.3077
25861SOL    HW281115  10.427   3.547   0.437  0.7154 -0.1345  0.9568
25862SOL     OW81116   8.415   1.850   5.467  0.4937 -0.2984 -0.4006
25862SOL    HW181117   8.420   1.908   5.392 -1.2712  1.7987  0.9845
25862SOL    HW281118   8.507   1.834   5.491  1.0770  2.4098 -0.5172
25863SOL     OW81119   1.409   5.976   4.110  0.3850  0.8035 -0.2747
25863SOL    HW181120   1.458   6.029   4.047  1.4156  0.0202 -0.1585
25863SOL    HW281121   1.356   5.917   4.057  1.5279 -0.1084 -0.4407
25864SOL     OW81122   0.755   6.649   6.974 -0.1074  0.0523  0.4613
25864SOL    HW181123   0.760   6.626   6.881 -1.4800 -0.3756  0.4604
25864SOL    HW281124   0.765   6.565   7.020  2.4387  0.4850  0.8194
25865SOL     OW81125   2.395   8.432   4.817 -0.0516 -0.0554 -0.0362
25865SOL    HW181126   2.462   8.436   4.886  1.4765 -1.0314 -1.3914
25865SOL    HW281127   2.420   8.500   4.755  0.3215 -1.0862 -1.0590
25866SOL     OW81128   2.647   5.404   8.851 -0.2465  0.1497 -0.1128
25866SOL    HW181129   2.559   5.370   8.839 -0.3067  0.5968 -1.0364
25866SOL    HW281130   2.637   5.473   8.916  0.3237 -3.3245  4.1674
25867SOL     OW81131   6.212   0.946   4.195  0.3233 -0.3145 -0.2345
25867SOL    HW181132   6.155   0.874   4.165  0.2620 -0.8738  1.1192
25867SOL    HW281133   6.174   1.024   4.156 -0.6358 -0.8299 -0.3825
25868SOL     OW81134   7.732   0.770   6.593 -0.2573 -0.4299  0.2553
25868SOL    HW181135   7.780   0.691   6.568  0.6362 -0.1315  0.9672
25868SOL    HW281136   7.647   0.761   6.550  0.8346 -0.3969 -2.0216
25869SOL     OW81137   7.625   0.920   1.056  0.0560  0.6670 -0.3328
25869SOL    HW181138   7.657   0.884   1.139  0.5085  1.7171 -0.0471
25869SOL    HW281139   7.543   0.873   1.041 -0.6410  1.2704  1.3172
25870SOL     OW81140  10.385   2.066   8.176 -0.2357 -0.2636  0.2838
25870SOL    HW181141  10.381   2.074   8.081 -0.9410 -2.3183  0.0869
25870SOL    HW281142  10.293   2.058   8.203 -0.1416  1.5122  1.3114
25871SOL     OW81143   3.955  10.054   7.549 -0.2237 -0.0782 -0.2520
25871SOL    HW181144   3.985   9.979   7.499 -1.7562 -0.6571 -0.3707
25871SOL    HW281145   3.863  10.035   7.568 -0.9482  2.2030 -1.1055
25872SOL     OW81146   8.850   5.699   5.931 -0.1088 -0.1976 -0.2026
25872SOL    HW181147   8.868   5.704   6.025  0.4417  0.4226 -0.3299
25872SOL    HW281148   8.936   5.686   5.891 -0.3104 -0.2000 -0.6381
25873SOL     OW81149   1.573  10.011   1.332  0.3614  0.4103 -0.3830
25873SOL    HW181150   1.592  10.045   1.244  1.7936 -0.8450 -0.5856
25873SOL    HW281151   1.564  10.090   1.386 -2.2710  1.2840 -1.9343
25874SOL     OW81152   5.050   3.211   6.771  0.1852 -0.4768  0.0819
25874SOL    HW181153   5.059   3.250   6.684 -0.2267 -1.2981 -0.3510
25874SOL    HW281154   5.114   3.256   6.825  0.5737 -0.0754 -0.6989
25875SOL     OW81155   8.525   9.455   4.367 -0.3394 -0.1890 -0.1861
25875SOL    HW181156   8.500   9.469   4.275  0.4837  0.2309 -0.3509
25875SOL    HW281157   8.441   9.453   4.413 -0.8573 -1.7748 -1.1145
25876SOL     OW81158  10.877   7.026   0.031 -0.5641 -0.1418  0.2939
25876SOL    HW181159  10.845   7.109  -0.004  0.1224  0.0767  0.1829
25876SOL    HW281160  10.911   6.980  -0.046 -2.0000 -1.0386  0.1442
25877SOL     OW81161   1.468   0.108   5.302 -0.1659 -0.6391  0.4042
25877SOL    HW181162   1.484   0.099   5.208 -0.0430  0.0839  0.3523
25877SOL    HW281163   1.545   0.068   5.343 -0.0379 -0.6138  0.1904
25878SOL     OW81164   6.994   9.795  10.668 -0.3570  0.4304 -0.5649
25878SOL    HW181165   6.981   9.889  10.681 -0.2665  0.2487  1.0682
25878SOL    HW281166   6.918   9.767  10.618 -0.9704  1.1684 -0.0661
25879SOL     OW81167   0.017   8.864   4.374  0.3891  0.0037 -0.4594
25879SOL    HW181168   0.071   8.785   4.371  1.4319  0.6921 -0.3164
25879SOL    HW281169  -0.022   8.864   4.461  2.2959  0.8568  0.4477
25880SOL     OW81170   4.834   7.713  10.545 -0.8077 -0.2924 -0.6061
25880SOL    HW181171   4.780   7.759  10.481 -2.4382  1.3771  1.7903
25880SOL    HW281172   4.775   7.652  10.588 -0.3295  0.0814  0.6551
25881SOL     OW81173   1.183  10.787   7.596  0.0364 -0.2118 -0.4232
25881SOL    HW181174   1.224  10.854   7.650 -1.8366  1.2305 -0.7142
25881SOL    HW281175   1.151  10.722   7.659  0.4497 -0.0353 -0.0247
25882SOL     OW81176   5.426   8.449   2.747 -0.5881  0.0581 -0.0674
25882SOL    HW181177   5.438   8.468   2.655  1.0126  0.9593  0.2987
25882SOL    HW281178   5.414   8.354   2.750 -0.4833 -0.0029 -1.1751
25883SOL     OW81179   6.678   0.397   0.717 -0.3776  1.0995  0.0971
25883SOL    HW181180   6.599   0.345   0.704 -0.5010  1.0610  0.9263
25883SOL    HW281181   6.695   0.391   0.811  1.4556 -0.1214 -0.2612
25884SOL     OW81182   7.070   9.503   7.358  0.3164 -0.6303  0.0582
25884SOL    HW181183   7.101   9.572   7.417  2.0260 -0.6934 -0.7016
25884SOL    HW281184   6.977   9.523   7.345  0.6319  1.1893  0.3176
25885SOL     OW81185   0.679  10.715   7.433  0.0235 -0.6547 -0.6930
25885SOL    HW181186   0.737  10.790   7.421  0.0214 -0.7492 -1.3023
25885SOL    HW281187   0.684  10.667   7.351  1.9917 -2.7293  0.5311
25886SOL     OW81188   3.059   4.835   6.472 -0.1165 -0.1256 -0.6319
25886SOL    HW181189   3.137   4.887   6.490 -0.7243  0.6109 -0.0514
25886SOL    HW281190   3.017   4.826   6.558 -0.3230 -1.0905 -0.8226
25887SOL     OW81191   3.184   4.775   5.623 -0.6151  0.7217 -0.2665
25887SOL    HW181192   3.218   4.822   5.699 -2.9579  2.5316 -0.2275
25887SOL    HW281193   3.183   4.683   5.650 -1.6996  1.3396  2.0519
25888SOL     OW81194   6.695   8.800   7.041 -0.1747  0.3474 -0.2490
25888SOL    HW181195   6.607   8.814   7.008  0.3713 -1.1853 -2.6033
25888SOL    HW281196   6.751   8.799   6.963  1.8165  0.4415  1.0824
25889SOL     OW81197   2.037   0.703   8.180 -0.2812 -0.0308 -0.0461
25889SOL    HW181198   2.016   0.734   8.268  0.1642  0.4848 -0.1160
25889SOL    HW281199   2.089   0.773   8.141  0.3499 -0.6620 -0.3783
25890SOL     OW81200   6.777   2.977   2.527 -0.2306 -0.1359  0.2977
25890SOL    HW181201   6.852   3.028   2.559  0.3317  0.1709 -1.4131
25890SOL    HW281202   6.783   2.894   2.574  0.9550  0.0320  0.4825
25891SOL     OW81203   4.980   0.850  11.005 -0.3750 -0.0598  0.2443
25891SOL    HW181204   5.000   0.762  11.036 -0.4850 -0.0193  0.4303
25891SOL    HW281205   4.901   0.875  11.053 -0.2690  0.1928  0.2884
25892SOL     OW81206   9.435  10.393   0.735  0.3858  0.1775 -0.6622
25892SOL    HW181207   9.481  10.350   0.663  2.5370  3.4558 -1.4786
25892SOL    HW281208   9.371  10.449   0.693 -0.9241 -0.5938  0.2449
25893SOL     OW81209   7.320   0.337   2.153 -0.3204 -0.2818  0.0010
25893SOL    HW181210   7.247   0.314   2.095 -0.8865 -0.3365  0.7233
25893SOL    HW281211   7.293   0.304   2.239 -0.1347  1.0461  0.5981
25894SOL     OW81212   3.519   6.947   5.386  0.5838 -0.2505 -0.0223
25894SOL    HW181213   3.449   6.926   5.448 -0.4775  1.2834 -0.6414
25894SOL    HW281214   3.529   7.042   5.393  1.0203 -0.1547 -1.5882
25895SOL     OW81215   8.656   6.930   8.762  0.2614 -0.4011 -0.0820
25895SOL    HW181216   8.597   6.858   8.741 -0.3143  0.4763 -1.6288
25895SOL    HW281217   8.639   6.949   8.854 -1.2053 -0.7669 -0.2510
25896SOL     OW81218   0.165   8.615   4.962  0.5294  0.0055 -0.4045
25896SOL    HW181219   0.139   8.550   5.027 -0.1153 -0.4388 -1.1025
25896SOL    HW281220   0.153   8.699   5.007 -1.6334 -0.1925 -0.4904
25897SOL     OW81221   3.283   8.212   5.779 -0.0355  0.1269  0.6367
25897SOL    HW181222   3.311   8.278   5.716  1.0580  0.4124  1.3920
25897SOL    HW281223   3.189   8.229   5.791 -0.9123 -1.4862 -2.7071
25898SOL     OW81224   9.103   4.417   4.322  0.3205  0.0954  0.1098
25898SOL    HW181225   9.122   4.509   4.342 -0.4075  0.1588  0.5579
25898SOL    HW281226   9.014   4.418   4.286 -0.0798 -0.5409  1.0516
25899SOL     OW81227   2.685   3.402   3.057  0.4099 -0.0557 -0.1492
25899SOL    HW181228   2.592   3.377   3.058 -0.2219  1.4557 -3.6261
25899SOL    HW281229   2.727   3.333   3.006  1.0591 -0.2633  0.6476
25900SOL     OW81230   1.400   9.228   3.708 -0.2060 -0.5019 -0.0449
25900SOL    HW181231   1.376   9.311   3.666 -1.0782  0.4039  2.1134
25900SOL    HW281232   1.488   9.244   3.743 -0.7345 -0.1185  1.1692
25901SOL     OW81233   2.910   7.607   9.693  0.1134  0.0987  0.0291
25901SOL    HW181234   2.858   7.541   9.647  1.7160 -0.4215 -1.1079
25901SOL    HW281235   2.885   7.690   9.652  0.8886 -0.2631 -1.2028
25902SOL     OW81236   5.290   8.882   5.630 -0.5987  0.0199  0.3751
25902SOL    HW181237   5.269   8.843   5.714  1.6292 -1.6600  0.2492
25902SOL    HW281238   5.223   8.849   5.570  0.6028 -2.9713  0.5020
25903SOL     OW81239   1.182   3.087   6.329 -0.1636 -0.0755 -0.0739
25903SOL    HW181240   1.221   3.094   6.241 -1.7249 -1.5611 -0.9581
25903SOL    HW281241   1.246   3.038   6.380  0.4405  0.1327 -0.6202
25904SOL     OW81242  10.048   5.213   7.816  0.0766 -0.3726 -0.4604
25904SOL    HW181243   9.956   5.196   7.793  0.4291 -1.6529 -0.9854
25904SOL    HW281244  10.052   5.195   7.910 -0.0568 -1.0270 -0.5769
25905SOL     OW81245   7.713   6.835   6.165  0.2964  0.1905 -0.0325
25905SOL    HW181246   7.754   6.894   6.229  0.0365 -0.3427  0.6318
25905SOL    HW281247   7.623   6.868   6.156 -0.1605 -0.6812  1.0979
25906SOL     OW81248  10.397   1.065   8.561 -0.1514 -0.8242  0.4952
25906SOL    HW181249  10.338   0.994   8.537  0.5103 -0.7572 -1.5193
25906SOL    HW281250  10.440   1.089   8.479  0.5893  1.0366  1.3788
25907SOL     OW81251   8.298   2.955   0.196 -0.8291 -0.0159 -0.3811
25907SOL    HW181252   8.293   2.976   0.289  2.1067 -1.9555  0.3454
25907SOL    HW281253   8.301   2.860   0.192  2.1227  0.0243 -2.1371
25908SOL     OW81254   1.867   4.440  10.265 -0.0530  0.2008 -0.1274
25908SOL    HW181255   1.817   4.359  10.254 -1.8230  1.1511  0.5384
25908SOL    HW281256   1.819   4.506  10.215  1.7191  0.7611 -1.2097
25909SOL     OW81257   2.806   1.960   0.658  0.0665 -0.4487 -0.3477
25909SOL    HW181258   2.895   1.983   0.630 -0.5284  1.2486 -0.9699
25909SOL    HW281259   2.749   2.012   0.601 -1.2508  1.9781  2.8603
25910SOL     OW81260  10.677   4.609   2.717 -1.0337 -0.2172 -0.2773
25910SOL    HW181261  10.724   4.693   2.719  2.2208 -1.8008 -1.7441
25910SOL    HW281262  10.617   4.617   2.643 -1.0312  0.9333 -0.1766
25911SOL     OW81263   9.717   4.179  10.806 -0.7990  0.3205 -0.2682
25911SOL    HW181264   9.647   4.202  10.867 -0.2928 -3.0060  1.8159
25911SOL    HW281265   9.750   4.095  10.837  1.0952 -0.4767 -3.8529
25912SOL     OW81266   6.910   8.596   8.301  0.3570  0.2721 -0.0079
25912SOL    HW181267   6.941   8.670   8.354  1.7560 -0.9797  1.0091
25912SOL    HW281268   6.898   8.525   8.364  1.2507 -1.0292 -1.2414
25913SOL     OW81269   0.390   5.347   3.086  0.2048  0.0349  0.1642
25913SOL    HW181270   0.296   5.351   3.066  0.1270  0.4329  0.5920
25913SOL    HW281271   0.394   5.341   3.181  0.6530  2.5843  0.3701
25914SOL     OW81272   8.385   6.734   4.291 -0.4546  0.4954  0.1010
25914SOL    HW181273   8.474   6.768   4.293 -0.4903  0.5947 -0.0144
25914SOL    HW281274   8.393   6.645   4.326 -0.1831  0.2297 -0.6187
25915SOL     OW81275   2.859   2.994   4.401  0.2548 -0.0297  0.0988
25915SOL    HW181276   2.887   3.009   4.311 -0.6284 -0.3038 -0.2308
25915SOL    HW281277   2.764   2.993   4.397  0.0717  2.8940  1.5233
25916SOL     OW81278  10.911   0.700   8.603 -0.1553 -0.1574 -0.4020
25916SOL    HW181279  11.001   0.705   8.570 -0.7700 -1.0371 -2.3710
25916SOL    HW281280  10.918   0.653   8.685  1.1805 -0.2510 -0.5415
25917SOL     OW81281   5.633   7.627   2.301 -0.8311 -0.5549 -0.2023
25917SOL    HW181282   5.583   7.567   2.356  1.3396 -3.2639 -0.9689
25917SOL    HW281283   5.697   7.666   2.361 -1.4987  0.1572  0.0660
25918SOL     OW81284   0.280   0.746   8.277 -0.0407 -0.0844 -0.4165
25918SOL    HW181285   0.256   0.671   8.223  0.4225 -0.7302  0.2583
25918SOL    HW281286   0.292   0.710   8.365 -0.9052  0.9744  0.1577
25919SOL     OW81287   7.084   2.616   6.132 -0.1096 -0.1099 -0.1304
25919SOL    HW181288   7.092   2.554   6.205 -1.2978 -1.9544 -1.4941
25919SOL    HW281289   7.012   2.674   6.157 -2.1561 -2.2268 -0.7637
25920SOL     OW81290   8.261   7.072  10.140 -0.1936  0.2563  0.4872
25920SOL    HW181291   8.224   7.068  10.052  0.2815  1.0386  0.2402
25920SOL    HW281292   8.350   7.037  10.131  0.3453  1.5759  0.3544
25921SOL     OW81293   6.689   2.213   4.013 -0.2740  0.5884  0.1919
25921SOL    HW181294   6.754   2.265   3.966 -0.4197 -0.0136 -0.6893
25921SOL    HW281295   6.606   2.235   3.971 -0.2632 -0.7987 -0.6089
25922SOL     OW81296   4.739   2.110   6.686  0.0923  0.6394  0.1577
25922SOL    HW181297   4.721   2.199   6.656 -0.8890  0.2233 -0.5201
25922SOL    HW281298   4.677   2.055   6.638  1.5473 -0.5755 -0.4080
25923SOL     OW81299   0.542   0.250  10.601 -0.1177 -0.4280  0.7008
25923SOL    HW181300   0.513   0.292  10.682 -0.2242 -0.4260  0.6610
25923SOL    HW281301   0.498   0.298  10.531 -0.8913 -1.1218  0.6898
25924SOL     OW81302   3.592   7.582   8.591 -0.2899  0.4028 -0.0495
25924SOL    HW181303   3.570   7.551   8.503  0.3131 -0.9799  0.2697
25924SOL    HW281304   3.507   7.593   8.634 -0.5327 -0.7249 -0.2108
25925SOL     OW81305   8.544   9.436   0.051 -0.4975 -0.2604  0.1252
25925SOL    HW181306   8.516   9.494   0.122  0.2841 -0.1492  0.3550
25925SOL    HW281307   8.635   9.415   0.072 -1.1175 -2.6293  0.7689
25926SOL     OW81308   4.911   9.062   0.542  0.0976 -0.3363 -0.2994
25926SOL    HW181309   4.999   9.036   0.570 -0.0065 -0.4944 -0.1125
25926SOL    HW281310   4.919   9.153   0.517 -0.1348  0.3088  1.7739
25927SOL     OW81311   9.283   0.336   6.198 -0.1151  0.3851 -0.0536
25927SOL    HW181312   9.247   0.422   6.178 -0.4337  0.0032 -1.2524
25927SOL    HW281313   9.318   0.343   6.287 -1.1557  1.4097  0.2894
25928SOL     OW81314  10.311   6.607   0.855 -0.5005 -0.2657  0.4740
25928SOL    HW181315  10.220   6.577   0.848 -0.6721  0.5498 -1.0740
25928SOL    HW281316  10.335   6.587   0.946 -1.1234 -3.5714  0.0311
25929SOL     OW81317   2.408   3.803   4.188  0.2252 -0.0746 -0.0598
25929SOL    HW181318   2.390   3.741   4.258  1.3673 -0.3516  0.0032
25929SOL    HW281319   2.343   3.872   4.199 -0.0967 -0.5099  0.7882
25930SOL     OW81320   3.699  10.863   8.330  0.4436  0.4528  0.5145
25930SOL    HW181321   3.658  10.794   8.278 -0.4299  0.3811  1.2875
25930SOL    HW281322   3.759  10.817   8.388 -0.7904  0.2269  1.6554
25931SOL     OW81323   7.990   3.866   6.030 -0.7174  0.5498 -0.2183
25931SOL    HW181324   8.016   3.949   6.071  1.2548 -0.0457 -0.1764
25931SOL    HW281325   8.052   3.854   5.958 -1.0559 -0.8233 -0.3050
25932SOL     OW81326   1.850   2.270   3.772 -0.0245  0.2679 -0.2515
25932SOL    HW181327   1.908   2.252   3.698  0.0369  1.3437 -0.4757
25932SOL    HW281328   1.826   2.183   3.805  2.3604 -0.2183  0.3772
25933SOL     OW81329   8.778   9.724   8.845  0.1573  0.9067 -0.1023
25933SOL    HW181330   8.846   9.775   8.800  1.1802 -0.2995  0.0327
25933SOL    HW281331   8.823   9.685   8.919 -0.5817 -0.2660 -0.2568
25934SOL     OW81332   1.889   5.736   8.153 -0.1477 -0.3399  0.0367
25934SOL    HW181333   1.968   5.764   8.107 -0.1452  0.4375  0.4845
25934SOL    HW281334   1.868   5.651   8.116  0.9170 -0.5682 -0.0750
25935SOL     OW81335   6.194   7.273   6.887  0.0020  0.3489 -0.4684
25935SOL    HW181336   6.177   7.366   6.903 -0.0692  0.2280  0.2051
25935SOL    HW281337   6.107   7.235   6.872  0.1176  0.5609 -1.7451
25936SOL     OW81338   5.319   7.360   4.937  0.3252 -0.1659 -0.2293
25936SOL    HW181339   5.379   7.429   4.967  0.1416 -0.0379 -0.1551
25936SOL    HW281340   5.283   7.323   5.018  0.0317 -0.0015 -0.2832
25937SOL     OW81341   4.959   2.904   2.336  0.1496  0.3718 -0.0285
25937SOL    HW181342   4.929   2.964   2.269  0.7365  1.0603  0.3160
25937SOL    HW281343   4.919   2.820   2.312  0.7835  0.4725 -1.5383
25938SOL     OW81344   0.791   9.241   3.331 -0.9466  1.0389  0.2450
25938SOL    HW181345   0.826   9.249   3.242 -1.1849 -2.2234 -0.2595
25938SOL    HW281346   0.868   9.240   3.387 -0.6997  1.5189 -0.0772
25939SOL     OW81347   9.739   5.650   9.925 -0.0817 -0.2670 -0.3236
25939SOL    HW181348   9.817   5.651   9.980 -0.7392  2.1063  0.7371
25939SOL    HW281349   9.759   5.711   9.854 -0.7116 -0.1747 -0.4293
25940SOL     OW81350   7.206   3.581   3.871  0.7640  0.2682 -0.2089
25940SOL    HW181351   7.234   3.506   3.923  0.0735 -0.0408 -0.2679
25940SOL    HW281352   7.287   3.621   3.840  1.1663  0.0780  0.5709
25941SOL     OW81353   8.988   3.971   3.237  0.2964  0.2327  0.2402
25941SOL    HW181354   9.070   4.020   3.235 -1.0214  2.7548 -3.1753
25941SOL    HW281355   8.986   3.924   3.153 -1.5733  0.0704  0.3209
25942SOL     OW81356   3.993   5.951   7.418  0.2907  0.4202 -0.8114
25942SOL    HW181357   4.060   6.004   7.375  1.0486 -0.5771 -0.8772
25942SOL    HW281358   3.935   6.016   7.460  0.4731  1.3372 -1.9245
25943SOL     OW81359   9.137   0.292   9.002  0.2964  0.0864  0.4150
25943SOL    HW181360   9.196   0.361   8.973  0.8787  0.0923  1.5541
25943SOL    HW281361   9.180   0.211   8.974  1.1397  0.0651  1.7067
25944SOL     OW81362   7.613   3.374   1.338 -0.3904  0.4206 -0.1168
25944SOL    HW181363   7.704   3.386   1.310 -1.1951 -0.4364 -3.7081
25944SOL    HW281364   7.611   3.404   1.428  3.1519  1.7377 -0.3133
25945SOL     OW81365   2.831   7.143   4.479  0.2874 -0.4298 -0.3409
25945SOL    HW181366   2.742   7.110   4.486 -0.1024  0.8811  1.5576
25945SOL    HW281367   2.821   7.236   4.460  1.2316 -0.1270  0.5521
25946SOL     OW81368   3.650   0.822   1.157  0.4483 -0.0045  1.0062
25946SOL    HW181369   3.723   0.786   1.107  1.1702  2.2044  0.3643
25946SOL    HW281370   3.573   0.808   1.101  0.8816  0.3343  0.3090
25947SOL     OW81371   5.572   8.537   6.824  0.6052  0.3084 -0.3493
25947SOL    HW181372   5.649   8.517   6.770 -0.3642 -0.9362 -1.3220
25947SOL    HW281373   5.573   8.470   6.893  0.1586  0.0301 -0.6135
25948SOL     OW81374   5.045   9.129   2.064  0.2027  0.4948 -0.2673
25948SOL    HW181375   5.131   9.096   2.091  1.5180  0.1150 -4.3161
25948SOL    HW281376   5.000   9.054   2.027 -0.3719  1.4197 -1.5219
25949SOL     OW81377   9.523   9.346  11.061 -0.3192  0.0732 -0.2274
25949SOL    HW181378   9.489   9.286  11.127  0.9795 -0.9773 -0.4576
25949SOL    HW281379   9.601   9.384  11.102  0.5198 -0.6141 -1.1109
25950SOL     OW81380   8.986   0.040   3.981  0.3530 -0.2380  0.0514
25950SOL    HW181381   8.932  -0.027   4.023  0.3180 -0.2096  0.0508
25950SOL    HW281382   9.051  -0.011   3.932  0.1891 -0.2754 -0.1307
25951SOL     OW81383   9.472   5.371   0.086 -0.2839  0.3396  0.2438
25951SOL    HW181384   9.395   5.427   0.075 -0.4348  0.3357  1.2079
25951SOL    HW281385   9.537   5.427   0.128 -0.3443 -0.1301  0.9715
25952SOL     OW81386   1.640   5.422   8.831  0.0578 -0.0609  0.6149
25952SOL    HW181387   1.732   5.444   8.844  0.2703 -0.0801 -0.6914
25952SOL    HW281388   1.629   5.420   8.736 -1.0224 -1.1796  0.7343
25953SOL     OW81389   6.925   5.440   6.048  0.9632  0.0935  0.5417
25953SOL    HW181390   6.950   5.407   5.962  0.6565  0.9108  0.1331
25953SOL    HW281391   6.960   5.529   6.051 -0.8042  0.8260  0.4365
25954SOL     OW81392   9.501   2.093   7.542  0.3490  0.6808 -0.2381
25954SOL    HW181393   9.418   2.132   7.571 -0.0156  1.1738 -1.8503
25954SOL    HW281394   9.516   2.130   7.455  2.1165  0.3537 -0.1059
25955SOL     OW81395   6.822   6.464   9.028  0.1662 -0.1948 -0.4255
25955SOL    HW181396   6.793   6.508   8.948  1.7535  2.6727  0.3941
25955SOL    HW281397   6.833   6.373   9.003 -0.1111  0.4526 -3.2903
25956SOL     OW81398   3.897   4.094   6.444  0.6676  0.2210 -0.0072
25956SOL    HW181399   3.911   4.037   6.520  1.6773 -0.6408 -0.8280
25956SOL    HW281400   3.802   4.108   6.443  0.6062  0.0443  1.2588
25957SOL     OW81401   6.044   3.730   7.450 -0.5083 -0.4404  0.2923
25957SOL    HW181402   6.031   3.636   7.443 -0.4601 -0.3803 -0.6166
25957SOL    HW281403   6.026   3.750   7.543 -0.5875 -1.3223  0.4690
25958SOL     OW81404   3.953   5.646   3.545  0.2132  0.7590 -0.0837
25958SOL    HW181405   3.886   5.601   3.596 -1.8551  2.6170 -0.9857
25958SOL    HW281406   4.034   5.597   3.563 -1.2194 -1.1883  1.5642
25959SOL     OW81407   0.397   9.298   3.056 -0.2153  0.2997  0.2370
25959SOL    HW181408   0.443   9.380   3.041 -0.0874  0.3300  0.7542
25959SOL    HW281409   0.448   9.232   3.009  0.8783  0.1904  1.5117
25960SOL     OW81410   6.935  10.280  10.810  0.4817  0.6385  1.2019
25960SOL    HW181411   7.006  10.299  10.749  0.1389  0.6678  0.8004
25960SOL    HW281412   6.952  10.190  10.839 -0.6119 -0.2815 -0.7751
25961SOL     OW81413   9.648   2.495  10.517  0.3624  0.0127  0.1459
25961SOL    HW181414   9.564   2.519  10.557  0.4261  1.5726 -0.6041
25961SOL    HW281415   9.632   2.409  10.478 -0.9555  0.3905 -0.1921
25962SOL     OW81416   5.025  11.056   1.933  0.0303 -0.2875  0.2741
25962SOL    HW181417   5.110  11.096   1.950  0.4453 -0.7185 -0.6570
25962SOL    HW281418   5.023  11.044   1.838  0.5457 -3.7024  0.5399
25963SOL     OW81419   6.381   3.186   3.735  0.2446  0.0141  0.3481
25963SOL    HW181420   6.437   3.131   3.790  1.0266 -0.8191 -1.2091
25963SOL    HW281421   6.313   3.128   3.703 -0.1994  0.4925  0.4049
25964SOL     OW81422   5.724   8.633   4.290  0.2218 -0.1704 -0.3798
25964SOL    HW181423   5.709   8.586   4.372 -0.4489 -0.8245 -0.8704
25964SOL    HW281424   5.729   8.565   4.223 -0.6734  0.4424 -1.0889
25965SOL     OW81425   2.536  10.383   8.552 -0.0322  0.3468 -0.1017
25965SOL    HW181426   2.536  10.442   8.477  1.8741  0.2054 -0.2592
25965SOL    HW281427   2.612  10.326   8.538 -0.3487 -0.4865  1.3263
25966SOL     OW81428   2.263  10.685   7.160 -0.0872  0.0545  0.2734
25966SOL    HW181429   2.291  10.655   7.247  1.1608 -1.5280 -0.6271
25966SOL    HW281430   2.248  10.605   7.110 -1.0690  0.9329 -0.8989
25967SOL     OW81431   0.191   9.070   8.414  0.0771 -0.1454 -0.2947
25967SOL    HW181432   0.272   9.082   8.463  0.7519 -1.3527 -1.0509
25967SOL    HW281433   0.219   9.040   8.327 -1.1783 -0.9307 -0.4597
25968SOL     OW81434   8.794   6.101   1.514  0.4668 -0.1252  0.0278
25968SOL    HW181435   8.704   6.081   1.491  0.1314 -0.6097  1.6754
25968SOL    HW281436   8.817   6.175   1.457 -0.3850 -1.0709 -1.5926
25969SOL     OW81437   9.120   8.983   7.150 -0.2186 -0.2392  0.8181
25969SOL    HW181438   9.069   9.014   7.075  2.0558 -0.6398 -1.0323
25969SOL    HW281439   9.159   9.062   7.187  1.0351 -0.2420 -0.3739
25970SOL     OW81440   5.869   2.753  11.060  0.0659  0.4276  0.2490
25970SOL    HW181441   5.780   2.740  11.026  0.3093 -1.7160  0.2560
25970SOL    HW281442   5.912   2.669  11.044  2.5352  1.8101 -0.9601
25971SOL     OW81443   6.979   9.035   1.103  0.1990 -0.5811 -0.3837
25971SOL    HW181444   6.939   8.974   1.165 -0.5002 -0.1794 -0.4264
25971SOL    HW281445   7.062   9.060   1.144 -0.6184  0.3168  0.8188
25972SOL     OW81446   7.660   0.269   1.993 -0.2029  0.1878  0.3031
25972SOL    HW181447   7.608   0.253   1.914  1.4372 -0.7245 -0.6334
25972SOL    HW281448   7.702   0.353   1.977 -0.0927  0.1391  0.3393
25973SOL     OW81449   9.854   1.974  10.200 -0.4959 -0.6363 -0.5707
25973SOL    HW181450   9.831   2.065  10.219 -1.4870 -1.0048  0.0948
25973SOL    HW281451   9.931   1.980  10.145 -1.2794  0.6416 -1.5868
25974SOL     OW81452   6.343   4.963   2.718  0.6276 -0.2668  0.3627
25974SOL    HW181453   6.422   5.014   2.700 -0.1446  0.6887 -0.4760
25974SOL    HW281454   6.311   4.996   2.801  0.1387  0.6402 -0.1700
25975SOL     OW81455   3.047   6.246   9.059 -0.2664  0.2057  0.2079
25975SOL    HW181456   3.091   6.283   9.135 -2.1779 -3.2168  3.3253
25975SOL    HW281457   3.104   6.175   9.030  0.0549  0.9650 -1.0878
25976SOL     OW81458   8.946   1.158   8.342  0.0439 -0.3797 -0.3893
25976SOL    HW181459   8.914   1.194   8.259  0.2104 -1.7530 -1.0872
25976SOL    HW281460   8.892   1.200   8.409  0.7060  1.6594 -1.0707
25977SOL     OW81461  10.518  11.115  11.090  0.3009  0.3229  0.2160
25977SOL    HW181462  10.568  11.042  11.052 -1.5333 -1.3853  0.8974
25977SOL    HW281463  10.459  11.073  11.153 -0.4600  2.4842  1.0170
25978SOL     OW81464  11.073   9.460   2.634  0.3842 -0.1193 -0.2184
25978SOL    HW181465  10.985   9.425   2.650 -0.1137  0.6912 -1.0704
25978SOL    HW281466  11.088   9.444   2.541  0.5376  1.0206 -0.4036
25979SOL     OW81467   8.434  10.033   0.310 -0.5098 -0.2905 -0.1884
25979SOL    HW181468   8.363   9.974   0.337  0.1671 -1.3194 -0.5787
25979SOL    HW281469   8.393  10.119   0.304 -2.2055 -1.1516 -2.2187
25980SOL     OW81470   0.874   0.920   7.049 -0.0437  0.2599  0.1099
25980SOL    HW181471   0.850   0.921   6.956  0.0676 -2.3524 -0.0144
25980SOL    HW281472   0.805   0.869   7.091  1.3528 -0.9949  0.9829
25981SOL     OW81473   3.634   4.871   9.637 -0.6196 -0.2607  0.5064
25981SOL    HW181474   3.698   4.918   9.691  0.3657  0.5134 -1.2236
25981SOL    HW281475   3.582   4.940   9.596 -1.5760 -0.8354  0.7305
25982SOL     OW81476   8.368   5.339   4.596  0.0607 -0.5786  0.1243
25982SOL    HW181477   8.348   5.266   4.537 -1.0369  0.3186 -0.6535
25982SOL    HW281478   8.285   5.357   4.640  0.6050 -0.5363  1.1717
25983SOL     OW81479   7.457   7.544   8.625  0.6916  0.0254  0.2303
25983SOL    HW181480   7.410   7.563   8.706  1.6247 -0.5549  0.9372
25983SOL    HW281481   7.434   7.453   8.604  2.5035 -0.7756  1.3691
25984SOL     OW81482   5.973   4.960   2.579 -0.2232  0.5947  0.4720
25984SOL    HW181483   5.921   5.008   2.643  0.6004  0.1749  1.4793
25984SOL    HW281484   6.048   4.927   2.628  0.1845 -0.1528 -0.6025
25985SOL     OW81485   3.119   6.045   2.189  0.3467 -0.2122 -0.5825
25985SOL    HW181486   3.200   5.995   2.179  1.2031  1.0266 -0.1436
25985SOL    HW281487   3.146   6.136   2.181 -1.1042  0.2147 -0.9474
25986SOL     OW81488   9.865   1.927   4.515  0.3700  0.6893  0.2234
25986SOL    HW181489   9.951   1.891   4.495  0.2587  1.7046 -2.4069
25986SOL    HW281490   9.807   1.851   4.519  1.1872  0.0843  1.0854
25987SOL     OW81491   0.380   1.270   8.204 -0.5902 -0.4171  0.2520
25987SOL    HW181492   0.338   1.319   8.133  1.4539 -0.5184 -1.0986
25987SOL    HW281493   0.356   1.179   8.187 -0.1167 -0.4412 -0.3463
25988SOL     OW81494   1.826   4.255   0.217 -0.5089 -0.1791 -0.0026
25988SOL    HW181495   1.887   4.210   0.276 -1.1153  0.0090  0.7809
25988SOL    HW281496   1.874   4.263   0.134  0.9457  0.9034  0.9001
25989SOL     OW81497   8.667   6.851   4.116  0.4077  0.5041 -0.3687
25989SOL    HW181498   8.642   6.870   4.206  0.3994  2.9597 -0.8165
25989SOL    HW281499   8.703   6.934   4.083  0.5808 -0.3717 -2.5709
25990SOL     OW81500   8.434   2.065   7.449  0.3370 -0.6701 -0.4363
25990SOL    HW181501   8.465   2.009   7.378 -0.4019 -0.6170 -0.8115
25990SOL    HW281502   8.374   2.126   7.407 -1.2731 -1.5751  0.4559
25991SOL     OW81503   1.195  10.932   3.039  0.0452 -0.1893 -0.0847
25991SOL    HW181504   1.171  11.001   2.977 -1.0163  2.1325  2.6900
25991SOL    HW281505   1.290  10.924   3.029  0.0815  1.0928 -1.0425
25992SOL     OW81506   1.677   6.796   0.739  0.3318 -0.4369  0.3684
25992SOL    HW181507   1.625   6.868   0.705  3.1162 -0.2238 -4.3242
25992SOL    HW281508   1.653   6.721   0.684  1.6090 -1.5110  1.2106
25993SOL     OW81509   1.824   2.638   6.609 -0.1387 -0.5044  0.4595
25993SOL    HW181510   1.822   2.612   6.701  0.4085  1.7803  1.2073
25993SOL    HW281511   1.866   2.724   6.610  2.4919 -1.5602 -2.2310
25994SOL     OW81512   8.734   4.812  10.088 -0.2921  0.5397 -0.6753
25994SOL    HW181513   8.770   4.724  10.075 -0.3327  0.6521 -1.6190
25994SOL    HW281514   8.790   4.851  10.155 -1.0530 -0.6375  0.7245
25995SOL     OW81515   6.113   6.512   6.051 -0.1198  0.0493 -0.1288
25995SOL    HW181516   6.182   6.471   6.103 -0.7638 -0.3842  0.4016
25995SOL    HW281517   6.031   6.480   6.090 -0.6175 -0.4457 -1.5473
25996SOL     OW81518   0.747   9.403   8.313 -0.0219 -0.6125  0.2670
25996SOL    HW181519   0.681   9.470   8.328 -1.8192 -1.8437 -1.5228
25996SOL    HW281520   0.806   9.441   8.248 -0.0474 -0.1624  0.5089
25997SOL     OW81521   4.456   0.477   5.660 -0.2753  0.2807  0.3018
25997SOL    HW181522   4.504   0.560   5.653  2.3813 -0.8391  2.8121
25997SOL    HW281523   4.457   0.441   5.571  2.7381  0.8910 -0.0383
25998SOL     OW81524   2.692   1.304   7.746 -0.0642  0.1198 -0.0144
25998SOL    HW181525   2.703   1.394   7.776  0.1451  0.4911 -1.1412
25998SOL    HW281526   2.693   1.252   7.825  1.4671  0.9584  0.5546
25999SOL     OW81527   3.711   6.521   4.500  0.1221 -0.0628 -0.1866
25999SOL    HW181528   3.688   6.523   4.593 -0.7032  0.4457 -0.3863
25999SOL    HW281529   3.783   6.458   4.494 -0.8916 -1.3346  0.5541
26000SOL     OW81530   1.945   8.400   4.105 -0.5097 -0.2660  0.5914
26000SOL    HW181531   2.023   8.384   4.157 -1.3265  0.1703  2.0206
26000SOL    HW281532   1.940   8.495   4.098  0.2242 -0.3376 -1.3417
26001SOL     OW81533   4.077  10.539   6.459 -0.5843 -0.1290 -0.1819
26001SOL    HW181534   4.059  10.586   6.540  0.6596  0.6467 -0.3352
26001SOL    HW281535   4.017  10.577   6.395 -1.3282 -0.5065  0.2780
26002SOL     OW81536   2.858   2.348   1.285 -0.2673  0.1844  0.1261
26002SOL    HW181537   2.902   2.429   1.260  0.9153 -0.9478 -1.7742
26002SOL    HW281538   2.832   2.308   1.202  0.4909 -2.0481  0.8662
26003SOL     OW81539  11.118   1.599   6.436  0.3037 -0.8283  0.7508
26003SOL    HW181540  11.139   1.658   6.364 -1.0668 -1.4533 -0.1963
26003SOL    HW281541  11.198   1.597   6.489  0.3339  1.9783  0.9340
26004SOL     OW81542   1.628  10.584   4.633  0.6359 -0.1149 -0.0539
26004SOL    HW181543   1.695  10.644   4.664  0.6687  1.4533 -2.7869
26004SOL    HW281544   1.547  10.614   4.675  1.4779 -2.0272  3.2664
26005SOL     OW81545   9.166   3.386   8.871  0.1192  0.4225 -0.1958
26005SOL    HW181546   9.193   3.298   8.846 -0.0721  0.3509 -0.1499
26005SOL    HW281547   9.089   3.405   8.817 -0.8159 -0.0650  0.9109
26006SOL     OW81548   4.310   7.295   9.239 -0.1117 -0.2623  0.1774
26006SOL    HW181549   4.402   7.305   9.263 -0.3769  0.5175  0.9403
26006SOL    HW281550   4.276   7.385   9.239 -0.6458 -0.4427 -1.0535
26007SOL     OW81551   1.111   4.832   4.018  0.6731  0.1001  0.3054
26007SOL    HW181552   1.024   4.872   4.027  0.3019 -0.7150  0.4011
26007SOL    HW281553   1.172   4.903   4.041 -0.0104  0.1877  2.0302
26008SOL     OW81554   8.434   2.872   2.624 -0.3008 -0.0932  0.2283
26008SOL    HW181555   8.385   2.877   2.541 -1.2927  0.5293  0.8319
26008SOL    HW281556   8.487   2.793   2.615 -0.3120  0.0153 -1.0423
26009SOL     OW81557   7.381   8.272  10.243  0.1750  0.1240 -0.0633
26009SOL    HW181558   7.355   8.206  10.179  0.5782  0.3279 -0.4495
26009SOL    HW281559   7.342   8.243  10.325 -0.0027 -0.3664 -0.3151
26010SOL     OW81560  10.014   4.107   7.984  0.0401 -0.2606  0.1138
26010SOL    HW181561  10.011   4.186   8.038  0.8802 -0.3608  0.3187
26010SOL    HW281562  10.097   4.065   8.007 -0.2130 -1.0002 -0.2816
26011SOL     OW81563   8.221   2.268   1.106  0.3701 -0.7846  0.3586
26011SOL    HW181564   8.203   2.309   1.021  1.2173 -0.2788  0.4185
26011SOL    HW281565   8.217   2.339   1.169  2.6761 -0.5945  0.3570
26012SOL     OW81566   3.417  10.349   1.323 -0.0305  0.4578  0.5412
26012SOL    HW181567   3.448  10.370   1.235  1.3820  0.5402  1.0231
26012SOL    HW281568   3.490  10.301   1.362 -0.9149 -0.2000  1.4377
26013SOL     OW81569   5.931   6.527   1.994  0.1711  0.1742 -0.3067
26013SOL    HW181570   5.950   6.516   2.087 -1.2230 -0.8719 -0.1042
26013SOL    HW281571   5.988   6.464   1.950  0.1439 -0.0248 -0.0608
26014SOL     OW81572  10.631   5.528   2.515  0.2216 -0.3996 -0.2903
26014SOL    HW181573  10.536   5.528   2.509  0.2899  0.6419 -1.8587
26014SOL    HW281574  10.655   5.621   2.518  1.2380 -0.6302 -0.8409
26015SOL     OW81575   1.622  10.974   1.648 -0.0347 -0.1754  0.2473
26015SOL    HW181576   1.639  11.062   1.616 -1.4948 -0.2034 -0.6823
26015SOL    HW281577   1.649  10.917   1.576 -0.8194 -0.3746  0.0983
26016SOL     OW81578   9.679   1.565  10.065 -0.4989 -0.1824  0.3409
26016SOL    HW181579   9.713   1.495  10.121 -2.0176  0.3001  1.9424
26016SOL    HW281580   9.668   1.640  10.123 -1.4374  0.5817 -0.7666
26017SOL     OW81581   9.565   8.723   3.964  0.5723 -0.3336  0.4040
26017SOL    HW181582   9.644   8.670   3.969  1.6477  1.0460 -1.0983
26017SOL    HW281583   9.581   8.796   4.024  0.2675 -0.2720  0.4105
26018SOL     OW81584   0.496   8.193   0.880 -0.3932 -0.5040  0.2701
26018SOL    HW181585   0.493   8.099   0.860 -1.4450 -0.3689 -0.2265
26018SOL    HW281586   0.521   8.234   0.797 -0.2021 -0.3132  0.4206
26019SOL     OW81587   3.956   3.265   8.760 -0.2779 -0.0853 -0.1081
26019SOL    HW181588   3.948   3.190   8.818  0.8905  0.5723  0.9550
26019SOL    HW281589   3.899   3.331   8.799  0.9363  0.5492  0.6625
26020SOL     OW81590   8.898   6.780   2.160  0.9099 -0.2225  0.0355
26020SOL    HW181591   8.944   6.851   2.116  0.4838  0.8638  1.2883
26020SOL    HW281592   8.957   6.705   2.152  0.2787 -0.5153 -3.5504
26021SOL     OW81593   2.248   8.092   3.553 -0.1757 -0.5335 -0.1852
26021SOL    HW181594   2.303   8.138   3.616 -0.1129  0.2501 -0.8083
26021SOL    HW281595   2.162   8.087   3.596  0.0510 -0.6525  0.2616
26022SOL     OW81596   4.526  10.897   6.957  0.5607  0.1330 -0.2937
26022SOL    HW181597   4.613  10.879   6.921  0.2442  0.2390 -1.1354
26022SOL    HW281598   4.528  10.990   6.979  0.6187  0.1688 -0.4455
26023SOL     OW81599   8.302   4.928   8.858  0.4433  0.4966  0.0875
26023SOL    HW181600   8.278   4.980   8.781 -1.1943 -1.4527 -0.8112
26023SOL    HW281601   8.366   4.864   8.825  1.5896  1.1556  0.9343
26024SOL     OW81602   3.084   4.389   1.287  0.0005  0.0603  0.0259
26024SOL    HW181603   3.019   4.418   1.223 -0.3452  1.0961  0.8155
26024SOL    HW281604   3.036   4.332   1.347  0.5070 -1.5869 -1.0731
26025SOL     OW81605   8.268   8.691   5.340 -0.5497  0.0642 -0.5115
26025SOL    HW181606   8.337   8.711   5.402 -1.5712  0.0814  0.6640
26025SOL    HW281607   8.292   8.607   5.303  0.7629  0.6831 -1.1130
26026SOL     OW81608   8.704   7.667   8.850  0.3067 -0.0595  0.3502
26026SOL    HW181609   8.662   7.582   8.846  0.5910 -0.1666 -0.5133
26026SOL    HW281610   8.636   7.729   8.824 -0.3704  0.1737  2.4930
26027SOL     OW81611   8.814   6.790   6.085 -0.0477  0.1992  0.0187
26027SOL    HW181612   8.872   6.795   6.161 -0.3011 -1.4435  0.3528
26027SOL    HW281613   8.781   6.700   6.085 -2.7985  1.1315 -0.0293
26028SOL     OW81614  10.951   6.921   5.776  0.2082 -0.2346 -0.4267
26028SOL    HW181615  10.891   6.966   5.717 -0.5376  1.5305  1.5534
26028SOL    HW281616  11.010   6.990   5.808 -0.2401 -0.8278  1.8426
26029SOL     OW81617   1.674   6.074   1.933  0.1202  0.3698 -0.1366
26029SOL    HW181618   1.731   6.071   2.010  0.6779  2.1609 -0.4379
26029SOL    HW281619   1.634   5.987   1.929 -0.0632  0.2892  2.2624
26030SOL     OW81620   8.560   7.962  10.370  0.0307  0.1865 -0.1167
26030SOL    HW181621   8.598   7.876  10.390 -0.9660 -0.4311 -0.7706
26030SOL    HW281622   8.564   7.968  10.274 -2.9623 -0.6680 -0.4069
26031SOL     OW81623   4.144   2.710   1.269  0.1292 -0.3274 -0.1826
26031SOL    HW181624   4.193   2.778   1.314  0.3725 -0.7741  0.2367
26031SOL    HW281625   4.056   2.715   1.306  0.4524 -1.0120  0.7091
26032SOL     OW81626   6.879   1.781   1.328 -0.3295 -0.1699 -0.3052
26032SOL    HW181627   6.816   1.753   1.394  0.0812 -0.6333 -0.1130
26032SOL    HW281628   6.825   1.802   1.251 -0.6505 -1.3870 -0.4264
26033SOL     OW81629  10.250   7.354   9.473 -0.4204  0.3687  0.8660
26033SOL    HW181630  10.203   7.271   9.482  0.2778 -0.5053 -2.2708
26033SOL    HW281631  10.185   7.414   9.437 -0.3124  0.4613  0.8256
26034SOL     OW81632   5.609   6.984   9.442  0.0227 -0.0153  0.0655
26034SOL    HW181633   5.654   7.067   9.455  0.8802  0.0009 -2.4790
26034SOL    HW281634   5.554   6.998   9.364 -1.8363 -1.0871  1.0986
26035SOL     OW81635   4.548   9.085   2.307 -0.8091  0.0247 -0.0281
26035SOL    HW181636   4.628   9.033   2.304 -0.0010  1.1833  0.6337
26035SOL    HW281637   4.510   9.068   2.393  1.3916  3.1904  1.7603
26036SOL     OW81638   9.104   1.559   6.905 -0.3916 -0.3526  0.3913
26036SOL    HW181639   9.025   1.537   6.855 -0.1180  1.5873 -1.0114
26036SOL    HW281640   9.075   1.626   6.967  0.2930  1.2002 -0.8887
26037SOL     OW81641   6.430   8.998   3.388  0.0563 -0.0734 -0.3722
26037SOL    HW181642   6.503   9.059   3.392 -0.0884  0.0956 -0.3055
26037SOL    HW281643   6.410   8.977   3.479  0.2663 -0.4134 -0.4014
26038SOL     OW81644  10.626   6.139   5.401 -0.2475 -0.0865  0.1304
26038SOL    HW181645  10.608   6.101   5.487 -1.1745  0.7493  0.3334
26038SOL    HW281646  10.649   6.231   5.420 -1.6210  0.4273 -0.5714
26039SOL     OW81647   1.422   7.589   8.886 -0.0472 -0.3984 -0.0171
26039SOL    HW181648   1.335   7.603   8.850  0.4481 -0.8279 -1.4451
26039SOL    HW281649   1.407   7.535   8.964 -0.9757 -1.6892 -1.0329
26040SOL     OW81650   8.769   0.469   1.836 -0.4240 -0.3372  0.7913
26040SOL    HW181651   8.822   0.546   1.816 -1.6585  0.3033 -0.1364
26040SOL    HW281652   8.758   0.424   1.752 -1.4744 -0.3611  0.9228
26041SOL     OW81653   7.794   6.734   4.690 -0.2029 -0.1198  0.2012
26041SOL    HW181654   7.877   6.764   4.652  0.2060 -0.2770  0.9563
26041SOL    HW281655   7.787   6.643   4.663 -0.6222  0.1603 -0.6852
26042SOL     OW81656   9.702   0.650   3.649  0.9920  0.4439  0.1843
26042SOL    HW181657   9.763   0.709   3.693  0.8732  0.0281  0.9276
26042SOL    HW281658   9.681   0.584   3.715  1.0831 -0.4015 -0.6189
26043SOL     OW81659   1.015   8.765   4.168 -0.5002  0.3745 -0.0045
26043SOL    HW181660   1.079   8.830   4.142  0.1970 -0.4178 -0.3194
26043SOL    HW281661   0.949   8.814   4.218 -0.1176  1.3416 -0.4309
26044SOL     OW81662   4.997   8.398   6.812  0.0810  0.0830 -0.0636
26044SOL    HW181663   4.983   8.487   6.846 -0.7448 -0.1139  0.1275
26044SOL    HW281664   4.999   8.409   6.717 -0.1219  0.2932 -0.0453
26045SOL     OW81665   4.786   6.481   2.760  0.3420  0.2765  0.6029
26045SOL    HW181666   4.867   6.456   2.804  2.0134  2.5063 -0.9638
26045SOL    HW281667   4.778   6.418   2.687  1.2737  0.6567  0.1518
26046SOL     OW81668  10.556   8.565  10.598  0.2608  0.1699  0.1542
26046SOL    HW181669  10.615   8.503  10.557  0.6443  1.1640 -0.8497
26046SOL    HW281670  10.545   8.533  10.687  1.7583 -0.4112  0.1516
26047SOL     OW81671   2.864   8.969   2.562 -0.7505 -0.1822 -0.9223
26047SOL    HW181672   2.785   9.024   2.569  0.5979  1.6157  2.1530
26047SOL    HW281673   2.898   8.986   2.474 -1.7496  1.9924 -0.9391
26048SOL     OW81674   5.584   3.201   1.733 -0.4439 -0.0147  0.0173
26048SOL    HW181675   5.602   3.151   1.812 -0.6770 -0.6506 -0.3262
26048SOL    HW281676   5.624   3.150   1.662 -1.9723 -0.5155 -0.5253
26049SOL     OW81677   6.052  10.377   7.758  0.1286 -0.3106  0.0416
26049SOL    HW181678   6.045  10.386   7.663  0.0958  0.5890  0.1204
26049SOL    HW281679   6.034  10.285   7.775  1.9967 -0.9240 -1.0071
26050SOL     OW81680   0.083   4.014   8.952 -0.1814  0.0698 -0.0515
26050SOL    HW181681  -0.009   3.992   8.968 -0.5612  0.5246 -1.5011
26050SOL    HW281682   0.132   3.948   9.002 -1.2925 -1.4710 -0.9106
26051SOL     OW81683  10.775   2.145  10.378 -0.3752 -0.2085 -0.2229
26051SOL    HW181684  10.826   2.096  10.444  2.0717  1.1894 -0.9423
26051SOL    HW281685  10.782   2.092  10.299  0.7804  0.4003 -0.5486
26052SOL     OW81686  10.910   7.424   9.313 -0.0591  0.3413 -0.0399
26052SOL    HW181687  10.949   7.461   9.392 -0.1061 -1.8179  1.0676
26052SOL    HW281688  10.984   7.388   9.264 -0.0812  1.2589 -0.7681
26053SOL     OW81689   4.366   4.873   1.329  0.0469  0.0682  0.2577
26053SOL    HW181690   4.306   4.940   1.297  0.4490 -0.0978 -0.8932
26053SOL    HW281691   4.347   4.866   1.422 -3.0009 -1.2622 -0.3530
26054SOL     OW81692   3.271   5.937   7.810 -0.3027 -0.4114 -0.4576
26054SOL    HW181693   3.210   5.864   7.811 -0.6462 -0.1396  0.9633
26054SOL    HW281694   3.249   5.987   7.889  1.8531 -0.3872  0.1733
26055SOL     OW81695   9.274   2.784   8.293 -0.1610 -0.1310 -0.2078
26055SOL    HW181696   9.357   2.753   8.256  0.2670  1.6094 -0.7876
26055SOL    HW281697   9.252   2.719   8.359  0.5421 -1.8041 -1.5315
26056SOL     OW81698   0.472   7.143   0.979 -0.4620  0.0925 -0.0676
26056SOL    HW181699   0.552   7.174   1.022  0.0924  0.5607 -1.3998
26056SOL    HW281700   0.418   7.110   1.051  0.4540  0.8049  0.9841
26057SOL     OW81701   0.187   6.258   2.604 -0.0069 -0.0917  0.6309
26057SOL    HW181702   0.138   6.304   2.537  0.0997 -1.8897 -0.7570
26057SOL    HW281703   0.122   6.239   2.672 -0.2618  1.1778  0.7633
26058SOL     OW81704   9.218   2.119   9.664  0.5684  0.2589  0.8201
26058SOL    HW181705   9.210   2.032   9.624 -0.3209  0.9284 -0.5382
26058SOL    HW281706   9.141   2.127   9.720 -0.5676  0.9823 -0.7688
26059SOL     OW81707   6.863   2.988   3.739  0.1574  0.5767 -0.7173
26059SOL    HW181708   6.782   3.002   3.690  0.1363  1.2276 -0.5058
26059SOL    HW281709   6.887   2.897   3.720  0.0751  0.7676 -1.8219
26060SOL     OW81710   7.871   3.064  10.693 -0.1556 -0.6288 -0.6126
26060SOL    HW181711   7.822   2.986  10.720  2.3167 -2.2090 -0.3117
26060SOL    HW281712   7.909   3.098  10.775 -0.5821  0.4720 -0.8520
26061SOL     OW81713   2.668   2.998   9.939 -0.5097 -0.4311 -0.1831
26061SOL    HW181714   2.717   3.062   9.887 -0.1025 -1.5526 -1.2282
26061SOL    HW281715   2.640   3.046  10.017  2.3764  0.2645  0.5585
26062SOL     OW81716   1.119   4.569   3.097  0.1685  0.4033 -0.0147
26062SOL    HW181717   1.122   4.548   3.191 -1.7054 -1.0833 -0.2253
26062SOL    HW281718   1.209   4.555   3.068  0.2067 -2.2180  1.0221
26063SOL     OW81719   7.353   7.123   4.446 -0.7953 -0.4563  0.0528
26063SOL    HW181720   7.268   7.167   4.442 -1.2759 -1.1406  1.7453
26063SOL    HW281721   7.380   7.131   4.537  0.6573 -0.8129 -0.3257
26064SOL     OW81722   8.756   6.120   9.636  0.3471 -0.0356 -0.0102
26064SOL    HW181723   8.664   6.096   9.649  0.9438 -2.7916 -0.2342
26064SOL    HW281724   8.781   6.076   9.555  1.4905  1.9814 -0.8093
26065SOL     OW81725  10.796   5.638   7.112 -0.2114  0.0962 -0.4387
26065SOL    HW181726  10.796   5.553   7.156 -2.8088  0.2039 -0.0340
26065SOL    HW281727  10.703   5.662   7.108  0.4279  2.8455 -0.6721
26066SOL     OW81728   3.343   9.552   5.375  0.4826 -0.3730  0.0822
26066SOL    HW181729   3.384   9.604   5.444 -0.4687 -1.1184  1.2400
26066SOL    HW281730   3.351   9.462   5.405 -2.5125 -0.5284  0.6604
26067SOL     OW81731   3.672   5.863   5.430 -0.0428  0.0991  0.4297
26067SOL    HW181732   3.587   5.835   5.397 -0.3078  0.1973  1.0243
26067SOL    HW281733   3.699   5.794   5.491 -0.6923  1.0812  1.8922
26068SOL     OW81734   9.076   9.675   5.376 -0.0214  0.1717  0.2039
26068SOL    HW181735   9.049   9.656   5.465  2.4291 -1.3398  0.7174
26068SOL    HW281736   9.074   9.591   5.331  1.0193  0.4916 -0.4803
26069SOL     OW81737   8.778   9.263  10.652 -0.4856 -0.4083 -0.2688
26069SOL    HW181738   8.780   9.265  10.747 -3.3539  2.0976 -0.1047
26069SOL    HW281739   8.851   9.320  10.625 -0.9680  0.6445  0.5688
26070SOL     OW81740   7.180   4.981   2.997  0.3902  0.3622 -0.4851
26070SOL    HW181741   7.116   5.045   2.965 -0.4656 -0.7306 -1.0356
26070SOL    HW281742   7.254   5.034   3.027 -0.0283  1.5700 -1.4975
26071SOL     OW81743   5.854   7.175   5.624 -0.7754 -0.2703 -0.6514
26071SOL    HW181744   5.924   7.113   5.647 -1.2363 -1.0536 -1.3036
26071SOL    HW281745   5.826   7.147   5.537 -0.8396  1.0138 -1.0558
26072SOL     OW81746   7.127   8.933   3.621  0.3765  0.1483 -0.1606
26072SOL    HW181747   7.213   8.967   3.643 -0.6062  1.5223  1.8441
26072SOL    HW281748   7.108   8.968   3.534  1.4321  0.6240 -0.2066
26073SOL     OW81749   1.832  10.945   7.447 -0.6519  0.5584 -0.3406
26073SOL    HW181750   1.868  11.031   7.425 -0.0677  0.8555  1.5934
26073SOL    HW281751   1.790  10.957   7.532  1.9524 -1.6266  1.4339
26074SOL     OW81752   1.589   6.618   8.562  0.1200  0.3598  0.4152
26074SOL    HW181753   1.534   6.542   8.543 -0.1675  0.0600  2.2670
26074SOL    HW281754   1.529   6.693   8.556  0.1956  0.3494 -0.5044
26075SOL     OW81755   6.981   8.672   0.555  0.0803 -0.2937 -0.0925
26075SOL    HW181756   7.026   8.588   0.567  1.5116  0.2190 -1.3972
26075SOL    HW281757   7.005   8.724   0.632 -1.3621 -1.2722  1.0560
26076SOL     OW81758   1.702   1.542   9.745  0.0886 -0.2670 -0.0631
26076SOL    HW181759   1.614   1.506   9.733  0.8938 -1.7688 -1.9651
26076SOL    HW281760   1.696   1.631   9.710 -0.8575 -0.0263  0.6505
26077SOL     OW81761   3.844   2.703   5.701  0.2143  0.2343 -0.1039
26077SOL    HW181762   3.801   2.788   5.702 -1.5531 -0.6287  1.0734
26077SOL    HW281763   3.844   2.676   5.609 -0.1666  1.0189 -0.3338
26078SOL     OW81764   1.250   3.846   2.260  0.3295  0.2236 -0.4440
26078SOL    HW181765   1.291   3.933   2.256 -0.0815  0.6313  2.0676
26078SOL    HW281766   1.317   3.787   2.227  1.5143  1.2926 -0.0715
26079SOL     OW81767   6.710  10.329   4.001 -0.5665 -0.0302  0.1870
26079SOL    HW181768   6.702  10.417   4.037  0.9289  0.1855  0.0394
26079SOL    HW281769   6.743  10.276   4.073 -1.3123 -0.4443  0.2312
26080SOL     OW81770   6.304   5.359   4.760  0.2191 -0.2854  0.0737
26080SOL    HW181771   6.386   5.352   4.809 -0.6125 -0.2060  1.5174
26080SOL    HW281772   6.299   5.277   4.711  0.2702 -1.1420  1.4411
26081SOL     OW81773   8.138   4.291   6.057  0.0051 -0.4748  0.3815
26081SOL    HW181774   8.050   4.328   6.056  0.2659  0.1946  1.1426
26081SOL    HW281775   8.140   4.230   5.983 -1.7509 -2.0612  1.5439
26082SOL     OW81776   0.113   4.928   5.177 -0.3549  0.7153 -0.4272
26082SOL    HW181777   0.092   5.015   5.141 -0.0664  1.1282  0.3803
26082SOL    HW281778   0.074   4.867   5.115 -1.2081  1.4302 -0.6178
26083SOL     OW81779   1.867   4.944   7.875  0.9834  0.1131  0.1670
26083SOL    HW181780   1.835   4.862   7.837  2.0360 -0.8285  1.2132
26083SOL    HW281781   1.896   4.996   7.800  0.8706 -0.7253 -0.4718
26084SOL     OW81782   3.178   7.834   1.466  0.2864  0.1260  0.1508
26084SOL    HW181783   3.093   7.875   1.484 -1.0202 -2.4689  0.2999
26084SOL    HW281784   3.225   7.840   1.549  0.7272  2.4458 -0.1829
26085SOL     OW81785   7.924  10.755   6.902  0.2073  0.1742  0.0749
26085SOL    HW181786   7.990  10.818   6.932  3.3055 -3.3419  1.3644
26085SOL    HW281787   7.955  10.726   6.817 -0.0673 -1.0285  0.3731
26086SOL     OW81788   9.606   2.339   9.140 -0.0858 -0.5788 -0.0178
26086SOL    HW181789   9.532   2.354   9.081  1.1202  1.6636 -1.1186
26086SOL    HW281790   9.569   2.343   9.228 -1.4224 -0.6012 -0.5558
26087SOL     OW81791   0.677   8.296   3.587 -0.2962  1.0580  0.0549
26087SOL    HW181792   0.647   8.384   3.566 -0.7766  1.6109  2.6678
26087SOL    HW281793   0.632   8.274   3.669  0.5814 -1.2251  0.0142
26088SOL     OW81794   4.529   8.257   4.790  0.1882  0.4374 -0.1924
26088SOL    HW181795   4.437   8.261   4.763  0.3053  0.4489 -0.5834
26088SOL    HW281796   4.525   8.224   4.880 -0.1464 -0.4042 -0.5034
26089SOL     OW81797   0.641  10.223   9.312 -0.4924 -0.1800  0.1911
26089SOL    HW181798   0.687  10.242   9.394 -0.3892 -0.1371  0.1228
26089SOL    HW281799   0.676  10.138   9.285 -0.7405 -0.3365  0.3431
26090SOL     OW81800   5.449   2.723   6.076  0.9885 -0.6782  0.3326
26090SOL    HW181801   5.448   2.733   5.981  0.3144  0.7109  0.4574
26090SOL    HW281802   5.360   2.694   6.098  0.5096  0.9332  0.6786
26091SOL     OW81803   1.086   0.743   8.495 -0.5263 -0.7298  0.1726
26091SOL    HW181804   1.070   0.731   8.589  1.4338  0.0145  0.6523
26091SOL    HW281805   1.117   0.658   8.465 -0.8651 -0.8902  0.2804
26092SOL     OW81806   2.658   6.174   8.124 -0.1755 -0.2882  0.2483
26092SOL    HW181807   2.584   6.114   8.130  1.0489 -1.7772  1.6428
26092SOL    HW281808   2.733   6.117   8.108  1.1665  0.7260  2.4130
26093SOL     OW81809   9.006   9.475   6.598  0.1728 -0.2940  0.5594
26093SOL    HW181810   8.933   9.414   6.610 -0.8765  0.5186 -1.1820
26093SOL    HW281811   8.973   9.538   6.534  1.4219  1.7860  1.8801
26094SOL     OW81812   9.597   4.082   0.767 -0.3673  0.4486 -0.2099
26094SOL    HW181813   9.659   4.013   0.744  0.4784  0.9405  0.5417
26094SOL    HW281814   9.651   4.159   0.783 -1.2687  1.1975 -0.6606
26095SOL     OW81815   6.739   5.599   9.269  0.0427 -0.0217  0.0126
26095SOL    HW181816   6.694   5.540   9.208 -0.3606 -0.2702  0.5399
26095SOL    HW281817   6.679   5.606   9.343  0.1396  0.9736  0.0043
26096SOL     OW81818   8.275  10.195   8.950 -0.2240  0.9591 -0.1051
26096SOL    HW181819   8.181  10.190   8.970 -0.6489 -0.8458 -2.1260
26096SOL    HW281820   8.279  10.186   8.854  2.1020 -2.1276  0.1178
26097SOL     OW81821   2.151   1.984   8.364  0.1044  0.0206 -0.1966
26097SOL    HW181822   2.118   1.967   8.452  2.6575 -1.1314  0.6545
26097SOL    HW281823   2.151   1.898   8.322  3.7417 -0.5513  0.6157
26098SOL     OW81824   6.562   2.885  10.926 -0.1460 -0.5634 -0.1333
26098SOL    HW181825   6.555   2.963  10.872 -0.5083  0.1483  0.9100
26098SOL    HW281826   6.487   2.890  10.985  0.1968 -1.3566  0.3886
26099SOL     OW81827   3.915   8.190   5.143  0.0968 -0.0498 -0.0314
26099SOL    HW181828   3.980   8.121   5.133 -2.2717 -2.5049  0.4306
26099SOL    HW281829   3.954   8.251   5.206  1.7859 -1.6208  0.5238
26100SOL     OW81830   6.952   4.729   1.479  0.2697  0.4802  0.1392
26100SOL    HW181831   6.902   4.789   1.535 -0.1056  0.6030 -0.3281
26100SOL    HW281832   6.908   4.645   1.488 -1.7672  1.1571 -2.4107
26101SOL     OW81833   6.655   2.256   1.063  0.0017  0.2261  0.6899
26101SOL    HW181834   6.696   2.264   1.149  0.1211 -0.3328  0.6904
26101SOL    HW281835   6.726   2.272   1.001 -0.3386  1.8822  0.6743
26102SOL     OW81836   7.823   1.979   6.985 -0.1167  0.7080 -0.3230
26102SOL    HW181837   7.783   2.037   7.049 -2.7858 -1.9009  0.5591
26102SOL    HW281838   7.917   1.994   6.995 -0.6059  4.5450  0.0261
26103SOL     OW81839   5.341   3.430   6.606  0.0757  0.4989  1.1122
26103SOL    HW181840   5.373   3.479   6.530 -0.0106 -0.1636  0.6376
26103SOL    HW281841   5.389   3.347   6.602 -0.4191  0.1964  1.3964
26104SOL     OW81842   2.732   0.590   6.500 -0.2180 -0.0090  0.0348
26104SOL    HW181843   2.698   0.541   6.425 -0.6520 -1.3684  1.0874
26104SOL    HW281844   2.728   0.682   6.472 -1.1287 -0.4212 -1.3010
26105SOL     OW81845   8.661   6.648   9.333  0.2280 -0.4313  0.2633
26105SOL    HW181846   8.618   6.719   9.381 -0.6067  0.0771 -1.1770
26105SOL    HW281847   8.749   6.681   9.315 -0.0719  0.1485 -0.1790
26106SOL     OW81848   4.968  10.988   7.366  0.2153 -0.0129  0.3433
26106SOL    HW181849   4.898  10.925   7.347  1.9573 -1.2934 -2.4004
26106SOL    HW281850   4.938  11.070   7.326  0.1135 -0.4472 -0.4762
26107SOL     OW81851   4.050  10.288   5.088 -0.2700 -0.2601  0.0107
26107SOL    HW181852   3.983  10.354   5.069  0.3934  0.3714 -0.1322
26107SOL    HW281853   4.042  10.225   5.016  0.0954  0.4542 -0.6683
26108SOL     OW81854   7.347   1.794   5.435  0.8510  0.2409 -0.4582
26108SOL    HW181855   7.347   1.886   5.406  2.8527 -0.4582 -3.1370
26108SOL    HW281856   7.291   1.749   5.372  0.3438 -0.4899  0.4889
26109SOL     OW81857   4.945   2.800  10.871 -0.2353  0.3001 -0.1090
26109SOL    HW181858   4.952   2.781  10.778  0.0801  0.7858 -0.1897
26109SOL    HW281859   4.968   2.893  10.878 -2.1028  0.7857  0.2058
26110SOL     OW81860   2.466   9.402   3.528 -0.3158  0.4717 -0.4627
26110SOL    HW181861   2.443   9.480   3.579  1.2709 -0.3552  1.6798
26110SOL    HW281862   2.561   9.396   3.536 -0.2763 -0.9556 -1.7210
26111SOL     OW81863   6.743   2.463  10.800 -0.3171  0.2490  0.0730
26111SOL    HW181864   6.734   2.471  10.895  2.5312  1.4056  0.3431
26111SOL    HW281865   6.742   2.554  10.768  0.6435 -0.0034 -0.7371
26112SOL     OW81866   5.562  10.622   1.066 -0.6625 -0.1754 -0.5570
26112SOL    HW181867   5.622  10.618   0.991 -0.5371  0.4697 -0.4963
26112SOL    HW281868   5.535  10.532   1.080 -0.9430 -0.2667 -1.5946
26113SOL     OW81869   4.084   3.394   5.018 -0.1099 -1.2834  0.1378
26113SOL    HW181870   4.123   3.308   5.031 -0.1935 -1.1777  1.2319
26113SOL    HW281871   4.016   3.400   5.085  0.1464 -0.2277  0.3350
26114SOL     OW81872  11.061   5.534   9.396  0.3071  0.3956 -0.5560
26114SOL    HW181873  11.046   5.457   9.340  2.6596 -0.0872 -0.6171
26114SOL    HW281874  11.063   5.499   9.485 -3.4405  1.1657  0.0015
26115SOL     OW81875   5.682   4.356   1.401 -0.3380  0.6127 -0.3146
26115SOL    HW181876   5.689   4.291   1.331 -1.3395 -0.3771  0.4729
26115SOL    HW281877   5.602   4.333   1.448 -0.6860  2.3851  0.0455
26116SOL     OW81878   8.290   4.982   8.562 -0.7046  0.0547 -0.2727
26116SOL    HW181879   8.349   4.944   8.496 -0.1829 -1.0245  0.7744
26116SOL    HW281880   8.207   4.937   8.547 -0.0968 -1.6095  0.9443
26117SOL     OW81881   7.444   6.336   0.842  0.3549 -0.6269  0.0855
26117SOL    HW181882   7.489   6.266   0.794 -1.2691 -1.4363 -0.3460
26117SOL    HW281883   7.458   6.414   0.790 -1.9777 -1.6200 -2.2228
26118SOL     OW81884   0.267  10.110   9.778 -0.4578 -0.4506 -0.1574
26118SOL    HW181885   0.327  10.036   9.763  0.5223  0.5384 -1.2548
26118SOL    HW281886   0.281  10.133   9.870  0.2391 -0.7610 -0.1744
26119SOL     OW81887   3.456   8.246   3.914 -0.1095  0.3856  0.6317
26119SOL    HW181888   3.469   8.165   3.962  0.0435  0.2580  0.3807
26119SOL    HW281889   3.366   8.242   3.883  0.3547 -0.4219 -0.7018
26120SOL     OW81890  10.004   9.051   0.685 -0.0422 -0.5353 -0.0660
26120SOL    HW181891   9.913   9.081   0.691 -0.1616 -1.1707  2.2191
26120SOL    HW281892  10.055   9.132   0.682 -0.6170 -0.1550  0.1063
26121SOL     OW81893  11.118   4.390   5.447  0.1397  0.0359  0.1461
26121SOL    HW181894  11.167   4.347   5.377 -0.3824  1.8961 -1.4670
26121SOL    HW281895  11.039   4.423   5.404 -1.8629 -1.5781  2.3457
26122SOL     OW81896   5.834   5.506   6.169 -0.7668 -0.4694 -0.2029
26122SOL    HW181897   5.788   5.560   6.233  0.1434 -1.2833  1.1922
26122SOL    HW281898   5.917   5.552   6.154 -0.8687 -0.4152 -0.6079
26123SOL     OW81899  10.712   6.915   4.719 -0.3836 -0.1372  0.3790
26123SOL    HW181900  10.674   6.842   4.671 -0.4782  0.4067 -0.3931
26123SOL    HW281901  10.776   6.953   4.659  0.6024 -0.3682  1.2555
26124SOL     OW81902   7.254   1.431   9.593  0.0967  0.5226  0.2638
26124SOL    HW181903   7.270   1.495   9.663 -0.5197  1.0563 -0.0685
26124SOL    HW281904   7.198   1.478   9.531  0.3176 -0.0749 -0.3937
26125SOL     OW81905   4.101   2.582   4.413  0.1427 -0.3579  0.0401
26125SOL    HW181906   4.149   2.536   4.344  0.3556  1.8015 -1.3207
26125SOL    HW281907   4.146   2.557   4.494  1.5484 -0.9043 -0.8761
26126SOL     OW81908   9.860   8.593   6.808 -0.4288  0.2500 -0.0568
26126SOL    HW181909   9.797   8.533   6.849 -0.6559  0.4092 -0.1742
26126SOL    HW281910   9.808   8.669   6.784  0.1641  1.2745  1.7230
26127SOL     OW81911   0.062   5.680   5.907  0.5920  0.0455 -0.0425
26127SOL    HW181912  -0.034   5.678   5.911  0.6321 -1.8889  1.2243
26127SOL    HW281913   0.082   5.748   5.842 -1.6080  0.9000  0.0942
26128SOL     OW81914   4.096   4.185   3.016  0.3598  0.1946  0.2799
26128SOL    HW181915   4.025   4.215   2.958  0.5882 -0.0064 -0.1123
26128SOL    HW281916   4.137   4.113   2.967 -0.0757 -0.6564  1.1276
26129SOL     OW81917   0.475   3.635   7.803  0.5503 -0.1084 -0.4902
26129SOL    HW181918   0.527   3.638   7.883  1.3894  0.5529 -1.0404
26129SOL    HW281919   0.524   3.689   7.741 -0.8218  0.5845 -1.0170
26130SOL     OW81920   3.045   7.483   9.397 -0.0532  0.3822 -0.3143
26130SOL    HW181921   3.050   7.575   9.423  0.1775 -0.1386  1.6238
26130SOL    HW281922   3.108   7.439   9.453 -1.4375 -1.2321  0.0477
26131SOL     OW81923   4.610   0.418   5.393 -0.0576  0.4352  0.0694
26131SOL    HW181924   4.675   0.348   5.398  0.4868  0.9791  0.8454
26131SOL    HW281925   4.639   0.483   5.456 -1.8126  0.3257  1.0668
26132SOL     OW81926   0.902  10.679   6.528 -0.5276 -0.1280  0.2428
26132SOL    HW181927   0.991  10.671   6.562 -0.6408  2.9656  1.6138
26132SOL    HW281928   0.847  10.694   6.605 -2.1955 -1.4261 -0.6234
26133SOL     OW81929  10.042  10.689  11.111  0.8356  0.4705  0.4370
26133SOL    HW181930  10.129  10.706  11.075  0.6750  0.6167  0.1080
26133SOL    HW281931  10.048  10.711  11.204  1.1323  0.5334  0.4014
26134SOL     OW81932   9.604   7.467   9.992 -0.5106  0.1843 -0.0331
26134SOL    HW181933   9.697   7.490   9.998 -0.2463 -1.0862  1.2236
26134SOL    HW281934   9.581   7.484   9.901  0.1518  3.3854  0.2797
26135SOL     OW81935   5.017   9.559   6.883  0.0122  0.4814  0.5281
26135SOL    HW181936   5.039   9.589   6.794  0.5174  2.9076  1.3824
26135SOL    HW281937   5.088   9.499   6.906 -0.1026 -0.1527 -0.6884
26136SOL     OW81938   4.250   7.984  10.833 -0.4265 -0.7098 -0.3544
26136SOL    HW181939   4.256   7.917  10.765 -1.3892  0.4007 -1.5861
26136SOL    HW281940   4.158   7.981  10.861 -0.6653  0.5284 -0.9236
26137SOL     OW81941   5.525   1.467   5.704  0.6146 -0.3607  0.2864
26137SOL    HW181942   5.472   1.443   5.780 -1.4737  0.2727 -0.8639
26137SOL    HW281943   5.532   1.563   5.710 -0.7267 -0.1377 -0.9352
26138SOL     OW81944   7.882   6.792   9.226  0.0324  0.1164 -0.5505
26138SOL    HW181945   7.912   6.702   9.226 -0.6921 -0.1540 -2.0008
26138SOL    HW281946   7.960   6.844   9.247  0.9108 -0.7195 -1.6232
26139SOL     OW81947   9.104   4.577  10.738 -0.5759  0.5256  0.4778
26139SOL    HW181948   9.070   4.615  10.819 -1.9224 -1.6969  1.0511
26139SOL    HW281949   9.138   4.491  10.765  0.9402  0.6215 -0.9794
26140SOL     OW81950   9.718   8.704   2.010 -0.3590  0.4465 -0.1845
26140SOL    HW181951   9.785   8.716   1.943 -1.5770 -0.0458 -1.5436
26140SOL    HW281952   9.635   8.719   1.964 -1.2285  0.2404  1.2550
26141SOL     OW81953   8.887   4.706   4.496  0.1890 -0.2331 -0.1154
26141SOL    HW181954   8.845   4.760   4.429  0.8661 -0.8131 -1.0356
26141SOL    HW281955   8.980   4.726   4.488  0.4124 -1.2547 -0.2305
26142SOL     OW81956   4.999   8.317   2.243 -0.1802  0.2148 -0.2207
26142SOL    HW181957   5.084   8.293   2.280 -0.7921  1.1632  1.9814
26142SOL    HW281958   5.002   8.413   2.237 -1.1041  0.2650 -0.0519
26143SOL     OW81959   9.682   9.936   9.201  0.1123  0.1077  0.0726
26143SOL    HW181960   9.621   9.996   9.245  1.8810  1.1600  1.1917
26143SOL    HW281961   9.737   9.992   9.147  1.1843 -0.6005  0.3967
26144SOL     OW81962   9.709  10.289   0.872  0.1503 -0.0039 -0.1437
26144SOL    HW181963   9.666  10.224   0.927  0.5786  0.6353  0.9875
26144SOL    HW281964   9.638  10.332   0.825 -0.8113  2.2484  2.9889
26145SOL     OW81965   9.967   7.421  10.279  0.4207 -0.8982 -0.1832
26145SOL    HW181966  10.026   7.383  10.345  0.1051  0.8471  1.1765
26145SOL    HW281967  10.024   7.438  10.204  1.4608 -0.1870  0.7371
26146SOL     OW81968   3.792   9.391   1.597  0.1503  0.1643  0.1264
26146SOL    HW181969   3.765   9.329   1.665  1.3777  0.4410  0.8842
26146SOL    HW281970   3.767   9.348   1.515 -2.6014  0.4197  0.7274
26147SOL     OW81971  10.250   3.421   2.747  0.2703  0.2263  0.2230
26147SOL    HW181972  10.260   3.515   2.757 -0.0056  0.2195  0.5845
26147SOL    HW281973  10.325   3.394   2.694 -0.3864  0.8501 -1.0823
26148SOL     OW81974   8.669   0.758   7.984  0.4298 -0.5030 -0.1649
26148SOL    HW181975   8.653   0.851   7.999 -0.2072 -0.8353  1.3957
26148SOL    HW281976   8.762   0.746   8.005  0.3451 -0.3464  0.3036
26149SOL     OW81977   4.961  10.453   4.523  0.0276  0.0528 -0.2995
26149SOL    HW181978   4.908  10.405   4.460 -1.0418 -0.1361  0.7070
26149SOL    HW281979   5.048  10.457   4.483 -0.6531  0.1100 -1.8640
26150SOL     OW81980   5.216   1.509   5.338 -0.0420 -0.1496  0.5190
26150SOL    HW181981   5.183   1.421   5.319  0.6667 -0.3383  0.1363
26150SOL    HW281982   5.297   1.494   5.387 -0.5023  0.3095  1.4499
26151SOL     OW81983   5.927   0.895   1.917 -0.0689 -0.0735  0.2238
26151SOL    HW181984   5.938   0.897   2.012  1.2553 -1.9701  0.1536
26151SOL    HW281985   6.016   0.901   1.882 -0.4159 -0.8593 -0.8533
26152SOL     OW81986   9.435   7.236   8.503 -0.9102 -0.1809 -0.1699
26152SOL    HW181987   9.406   7.327   8.506  1.0670  0.5488 -1.1360
26152SOL    HW281988   9.401   7.203   8.420 -0.6241  0.0661 -0.3893
26153SOL     OW81989  10.133   7.391   6.513  0.1361 -0.2558 -0.0635
26153SOL    HW181990  10.062   7.449   6.542 -0.4998 -0.8114 -0.4843
26153SOL    HW281991  10.207   7.450   6.500  0.1306  0.1758  1.5783
26154SOL     OW81992   0.173  10.619   5.099 -0.2429  0.4358 -0.2626
26154SOL    HW181993   0.107  10.600   5.165 -1.1319  1.4802 -0.8149
26154SOL    HW281994   0.256  10.624   5.148 -1.0325  2.3473  0.9855
26155SOL     OW81995   1.941   2.935   5.478  0.7714  0.4525 -0.2793
26155SOL    HW181996   1.896   2.899   5.554 -0.0593 -1.9000 -1.7662
26155SOL    HW281997   1.888   3.010   5.452  0.6711  0.8521  1.0173
26156SOL     OW81998   8.607   9.806   5.313 -0.1772 -0.4543 -0.1134
26156SOL    HW181999   8.695   9.840   5.330 -0.0563 -0.6678 -0.2981
26156SOL    HW282000   8.559   9.880   5.276  0.0199 -0.4232 -0.3097
26157SOL     OW82001   2.295   8.442   3.952  0.1382 -0.6677 -0.2612
26157SOL    HW182002   2.208   8.482   3.956 -0.5059 -2.1223  1.6312
26157SOL    HW282003   2.348   8.494   4.014  0.4272 -0.2716 -0.8285
26158SOL     OW82004   7.540  10.683   5.835  0.0699 -0.5736  0.7014
26158SOL    HW182005   7.453  10.673   5.797  0.4748 -1.5629  0.0051
26158SOL    HW282006   7.601  10.664   5.764  0.8478 -1.1446  1.4877
26159SOL     OW82007  10.759   1.045   7.358  0.1992 -0.6705  0.2540
26159SOL    HW182008  10.815   0.975   7.326 -0.7337 -1.5953  0.5991
26159SOL    HW282009  10.746   1.025   7.451 -1.0964 -0.7591  0.0713
26160SOL     OW82010   0.362   2.532   2.925  0.3619  0.2449 -0.1168
26160SOL    HW182011   0.291   2.552   2.864 -0.4999  0.2818  0.8587
26160SOL    HW282012   0.400   2.450   2.892  0.8371  0.9759 -1.4702
26161SOL     OW82013   6.408   2.906   0.151  0.1584  0.1854 -0.0408
26161SOL    HW182014   6.423   3.001   0.150  0.7532  0.1644  1.8568
26161SOL    HW282015   6.333   2.895   0.210 -1.0787 -0.4394 -1.6500
26162SOL     OW82016   1.499   2.225   7.044  0.1496 -0.0237 -0.2089
26162SOL    HW182017   1.471   2.239   6.954  0.4785  0.5750 -0.2218
26162SOL    HW282018   1.558   2.150   7.040 -0.5215 -0.5651 -0.3517
26163SOL     OW82019   5.111   6.028   8.606 -0.4433  0.2491 -1.0197
26163SOL    HW182020   5.063   5.973   8.544 -1.5033 -1.4387  1.1821
26163SOL    HW282021   5.122   5.974   8.684 -1.5465  3.0860  1.3147
26164SOL     OW82022  11.119   5.215   9.787 -0.1875  0.4275  0.0433
26164SOL    HW182023  11.062   5.139   9.798  0.8840 -0.3645  0.4304
26164SOL    HW282024  11.207   5.180   9.803  0.3845  1.6350 -0.3648
26165SOL     OW82025   4.896   5.097  10.084 -0.4576 -0.2057 -0.4472
26165SOL    HW182026   4.976   5.137  10.048 -0.1801 -1.6269 -1.4806
26165SOL    HW282027   4.831   5.168  10.082  0.9392  1.2278  1.1762
26166SOL     OW82028   3.518   0.396   7.694  0.2664 -0.1297  0.5108
26166SOL    HW182029   3.452   0.464   7.676  0.8453  0.3746  0.2473
26166SOL    HW282030   3.564   0.429   7.771 -1.0597 -1.4396  1.9393
26167SOL     OW82031   3.662   4.960   1.346  0.1192  0.7665 -0.0773
26167SOL    HW182032   3.619   4.884   1.385  1.2992  0.1313  0.0357
26167SOL    HW282033   3.590   5.012   1.309 -0.6779 -0.6329 -0.5815
26168SOL     OW82034   5.790   3.880   1.953  0.4302  0.1423  0.0542
26168SOL    HW182035   5.882   3.889   1.977  0.5242  0.5428 -0.4433
26168SOL    HW282036   5.790   3.864   1.859 -0.0710  1.8216 -0.2644
26169SOL     OW82037  11.036  10.454   6.528 -0.0841 -0.8979  0.1126
26169SOL    HW182038  11.009  10.533   6.575  1.3479 -0.2362 -0.1570
26169SOL    HW282039  11.084  10.403   6.593  0.0183 -1.0029 -0.0466
26170SOL     OW82040   5.114   1.997   6.810  0.0531  0.4200 -0.0686
26170SOL    HW182041   5.056   2.007   6.886  1.3028 -0.6311  1.0807
26170SOL    HW282042   5.180   2.065   6.820  1.0480 -0.6063  0.6159
26171SOL     OW82043   4.566   2.693   6.498 -0.0127  0.0030  0.4118
26171SOL    HW182044   4.625   2.714   6.570  0.6192 -2.3262  0.6499
26171SOL    HW282045   4.620   2.702   6.419 -0.1585  0.6353  0.3780
26172SOL     OW82046   3.306   0.135   8.527  0.6167 -0.5216  0.0977
26172SOL    HW182047   3.261   0.145   8.612 -1.0738 -1.3718 -0.6514
26172SOL    HW282048   3.324   0.042   8.520  0.7810 -0.4516 -0.4742
26173SOL     OW82049   0.956   0.742   3.848 -0.2089 -0.3700 -0.3812
26173SOL    HW182050   1.027   0.678   3.846  0.7021  0.6322 -1.5944
26173SOL    HW282051   0.998   0.825   3.824 -1.2573  0.7982  1.5998
26174SOL     OW82052   2.221   9.721   3.984  0.1296 -0.3033 -0.3526
26174SOL    HW182053   2.274   9.788   3.942  0.9423 -0.6479  0.0956
26174SOL    HW282054   2.155   9.770   4.034  0.7235  0.1598 -0.0145
26175SOL     OW82055   8.328   9.632   2.838  0.1164 -0.1128  0.4426
26175SOL    HW182056   8.423   9.626   2.833  0.0626 -0.0345 -1.1152
26175SOL    HW282057   8.300   9.547   2.870  0.7246 -0.0157  1.2584
26176SOL     OW82058   5.040  10.807   7.085 -0.5889 -0.5395  0.3781
26176SOL    HW182059   5.068  10.745   7.153  0.0063  0.4738  1.0875
26176SOL    HW282060   5.031  10.754   7.006 -0.6698 -1.6323  1.0995
26177SOL     OW82061   6.680   2.396   1.305 -0.5100 -0.3875 -0.7054
26177SOL    HW182062   6.614   2.399   1.374 -1.6970 -0.1665 -1.7996
26177SOL    HW282063   6.682   2.485   1.270  0.6051 -0.3187 -0.4778
26178SOL     OW82064   5.072  10.113   4.527 -0.0270  0.0383  0.0763
26178SOL    HW182065   4.997  10.059   4.553  0.9487 -0.9956  0.8063
26178SOL    HW282066   5.070  10.112   4.432  0.6314 -2.2804  0.0268
26179SOL     OW82067   6.005   9.996   5.171 -0.1330 -0.0875 -0.0606
26179SOL    HW182068   6.049  10.068   5.216 -0.9951  0.1335  0.4570
26179SOL    HW282069   6.072   9.928   5.163  0.0561 -0.1152  1.5334
26180SOL     OW82070   9.285   0.735   8.248  0.1854  0.4720 -0.2138
26180SOL    HW182071   9.227   0.660   8.262 -0.0077  0.4368 -1.1539
26180SOL    HW282072   9.231   0.811   8.271  0.1431  0.3727  0.0241
26181SOL     OW82073   2.599   0.493   6.298 -0.5961  0.7344  0.0698
26181SOL    HW182074   2.616   0.522   6.209 -2.0627  1.3026 -0.0450
26181SOL    HW282075   2.551   0.411   6.288 -1.1297  1.0124  0.3300
26182SOL     OW82076   2.188   3.523   3.175  0.2785 -0.2695  0.0662
26182SOL    HW182077   2.176   3.437   3.134 -0.3416 -0.0487 -0.2278
26182SOL    HW282078   2.256   3.509   3.241  0.2911 -0.9501 -0.0845
26183SOL     OW82079   5.866   6.857   1.269 -0.7301  0.4714 -0.5378
26183SOL    HW182080   5.832   6.947   1.273  0.5669  0.9511  0.6643
26183SOL    HW282081   5.911   6.845   1.352  0.3862 -0.7795 -1.2808
26184SOL     OW82082   7.316   4.268   8.200 -0.4409  0.4699  0.0887
26184SOL    HW182083   7.381   4.217   8.249 -0.4757  0.5633  0.2319
26184SOL    HW282084   7.367   4.325   8.143 -0.4049 -0.0312 -0.3880
26185SOL     OW82085   4.267   9.330   7.410 -0.3508  0.1959 -0.3664
26185SOL    HW182086   4.345   9.298   7.366 -0.1340  0.9643 -0.5470
26185SOL    HW282087   4.206   9.256   7.408  0.1623 -0.2202 -0.7202
26186SOL     OW82088   1.029  10.104   0.480  0.3039 -0.2076 -0.1042
26186SOL    HW182089   1.100  10.168   0.488 -1.2868  1.9318 -1.7523
26186SOL    HW282090   1.056  10.046   0.409 -0.0605  1.3802 -1.6101
26187SOL     OW82091  10.567   7.577  10.071 -0.1408 -0.4763 -0.2360
26187SOL    HW182092  10.582   7.664  10.106 -2.3147 -0.4524  0.8212
26187SOL    HW282093  10.487   7.585  10.019 -1.4875 -2.1446  1.4036
26188SOL     OW82094   2.961   5.083   3.610 -0.1064  0.0544  0.4291
26188SOL    HW182095   2.928   5.101   3.522  0.2032  1.6470  0.6032
26188SOL    HW282096   2.893   5.116   3.669  0.7934  1.4046  0.7717
26189SOL     OW82097   5.471   4.955   9.479 -0.8208  0.1709 -0.2436
26189SOL    HW182098   5.515   5.031   9.519  1.8609 -1.2748 -0.2111
26189SOL    HW282099   5.478   4.970   9.385  1.6316 -0.9511 -0.2978
26190SOL     OW82100   0.442   4.239   1.649  0.4650  0.1509 -0.4344
26190SOL    HW182101   0.461   4.165   1.591  1.0829  1.1915 -1.6187
26190SOL    HW282102   0.463   4.316   1.596  1.1702  1.1498  1.2286
26191SOL     OW82103   5.383   9.635   5.404  0.1296  0.4001 -0.1796
26191SOL    HW182104   5.458   9.695   5.415 -0.4026  0.6526  2.9086
26191SOL    HW282105   5.392   9.572   5.475 -3.1428  1.0979  1.0128
26192SOL     OW82106   4.635   7.262   7.454  0.0642 -0.3077  0.3154
26192SOL    HW182107   4.699   7.331   7.439 -0.2635  0.4550  2.1742
26192SOL    HW282108   4.571   7.272   7.383  1.1908 -0.1588 -0.7140
26193SOL     OW82109  10.671   3.379   3.612  0.3656 -0.0872  0.2083
26193SOL    HW182110  10.658   3.440   3.684  1.2607  0.2643  0.0821
26193SOL    HW282111  10.703   3.432   3.540  2.2837 -0.8243  0.4448
26194SOL     OW82112   9.352   7.867   1.541  0.1423  0.5798 -1.0986
26194SOL    HW182113   9.300   7.788   1.548  1.2045 -0.1730 -1.4258
26194SOL    HW282114   9.288   7.938   1.536 -0.8331  0.0005  1.7006
26195SOL     OW82115   8.327  10.181   0.561  0.5633 -0.6607  0.6708
26195SOL    HW182116   8.240  10.174   0.601  0.5165 -0.5092  0.5975
26195SOL    HW282117   8.346  10.093   0.528 -0.5303 -0.2081 -1.3295
26196SOL     OW82118  10.128   0.913  10.113  0.4404  0.3807  0.0137
26196SOL    HW182119  10.211   0.882  10.078  0.0890  0.9526 -1.4167
26196SOL    HW282120  10.153   0.982  10.175  1.0255  1.3652 -1.2669
26197SOL     OW82121   8.879   7.401   1.249  0.4854 -0.4227  0.1329
26197SOL    HW182122   8.818   7.360   1.188  0.4945 -1.3842  0.7484
26197SOL    HW282123   8.839   7.389   1.335 -0.0858  1.9121  0.2596
26198SOL     OW82124   0.180   4.974   4.215  0.0901  0.2898 -0.0130
26198SOL    HW182125   0.148   4.951   4.302 -1.5530  0.2771 -0.5820
26198SOL    HW282126   0.140   5.059   4.196  0.9318  0.5844 -0.5186
26199SOL     OW82127   3.776   0.787   7.453 -0.3353 -0.4761  0.1028
26199SOL    HW182128   3.798   0.840   7.376 -1.0203 -0.1440  0.1263
26199SOL    HW282129   3.768   0.850   7.524 -1.5974 -0.5313  0.0382
26200SOL     OW82130   1.403   0.587   0.563 -0.1014  0.1771  0.8606
26200SOL    HW182131   1.358   0.647   0.503  1.4675  1.2251  0.6658
26200SOL    HW282132   1.371   0.500   0.539 -0.4013  0.6891 -0.7192
26201SOL     OW82133   8.173   2.351   8.607 -0.6909 -0.8101 -0.7614
26201SOL    HW182134   8.260   2.312   8.605 -0.4059 -0.1664 -0.9161
26201SOL    HW282135   8.157   2.379   8.517 -1.0926 -1.0074 -0.7520
26202SOL     OW82136   2.268  10.028  10.708  0.0162  0.0412 -0.3277
26202SOL    HW182137   2.208  10.092  10.669 -1.1274 -1.3296 -0.9163
26202SOL    HW282138   2.226   9.944  10.691  1.1264 -0.8179  1.0580
26203SOL     OW82139   7.257   6.976   2.405 -0.0371 -0.0324  0.1711
26203SOL    HW182140   7.229   7.068   2.406  0.2891  0.0665  1.1047
26203SOL    HW282141   7.332   6.973   2.464 -0.2399 -0.9582  0.3968
26204SOL     OW82142   7.915   4.817   6.204  0.5722  0.3196  0.4098
26204SOL    HW182143   7.947   4.877   6.271 -0.4585  1.0807  0.2578
26204SOL    HW282144   7.952   4.850   6.122  1.7058 -0.5192  0.5558
26205SOL     OW82145   6.784  10.297   3.013 -0.2110 -0.5209 -0.1026
26205SOL    HW182146   6.767  10.239   2.938  0.5655 -0.0523 -0.6571
26205SOL    HW282147   6.846  10.361   2.979  0.5826 -0.6298  1.1110
26206SOL     OW82148   6.543   8.186   0.727  0.0896  0.1269 -0.4390
26206SOL    HW182149   6.614   8.163   0.667  0.6579  1.7148 -0.4331
26206SOL    HW282150   6.463   8.174   0.676  0.4644 -0.1089 -0.9748
26207SOL     OW82151   0.988   8.231   8.901 -0.1304 -0.0909  0.5276
26207SOL    HW182152   1.052   8.160   8.896 -0.0028  0.0433  0.2636
26207SOL    HW282153   1.014   8.292   8.832  0.4228  0.7585  1.4628
26208SOL     OW82154  10.342   3.395  10.795 -0.1347 -0.0473 -0.3653
26208SOL    HW182155  10.431   3.428  10.811 -0.2182 -0.4222  1.0255
26208SOL    HW282156  10.292   3.425  10.871 -1.9116  2.4879 -2.3601
26209SOL     OW82157   3.384   4.703   1.700 -0.0339 -0.6872  0.4563
26209SOL    HW182158   3.312   4.641   1.703 -0.1752 -0.8638 -2.7745
26209SOL    HW282159   3.407   4.709   1.607  0.6819  3.2510  0.6907
26210SOL     OW82160   2.830   8.870   3.801  0.1163  0.6078 -0.2817
26210SOL    HW182161   2.850   8.876   3.708  0.8433 -1.4219 -0.2986
26210SOL    HW282162   2.891   8.931   3.843  1.4880 -0.2559 -0.9532
26211SOL     OW82163   1.218   5.603   8.333 -0.7860 -0.3789  0.5284
26211SOL    HW182164   1.259   5.577   8.250  2.8388  1.1190  1.6497
26211SOL    HW282165   1.169   5.682   8.312 -0.3461 -0.3145 -0.2843
26212SOL     OW82166   7.733   7.098   0.282 -0.5945 -0.7317  0.9869
26212SOL    HW182167   7.693   7.181   0.307 -1.0522  0.3843 -2.8033
26212SOL    HW282168   7.665   7.032   0.298 -0.2801 -0.4805  3.8740
26213SOL     OW82169   8.667   5.036   1.201 -0.4130 -0.4706  0.1168
26213SOL    HW182170   8.634   4.965   1.145 -0.4457 -0.3709  0.0084
26213SOL    HW282171   8.643   5.010   1.289 -2.0102  0.2277 -0.0621
26214SOL     OW82172   3.981   9.805   7.418 -0.0094 -0.0144  0.9566
26214SOL    HW182173   3.999   9.821   7.326 -2.2782  0.4703  0.5454
26214SOL    HW282174   4.063   9.768   7.452  0.7037 -0.7616 -1.3579
26215SOL     OW82175   3.747  10.727   9.025 -0.2665 -0.1275 -0.0514
26215SOL    HW182176   3.710  10.807   9.063 -0.7337 -0.2236 -0.3009
26215SOL    HW282177   3.683  10.699   8.960 -1.2631 -2.0004  1.6514
26216SOL     OW82178   3.081   7.031  10.876 -0.6914 -0.2911 -0.1237
26216SOL    HW182179   3.089   6.989  10.791 -0.7987  0.0346 -0.2948
26216SOL    HW282180   3.150   7.097  10.878 -2.2677  1.4822 -0.9954
26217SOL     OW82181  10.739  10.726   5.231  0.1198  0.5411 -0.2331
26217SOL    HW182182  10.828  10.720   5.197 -0.3541 -0.9609 -1.3631
26217SOL    HW282183  10.684  10.691   5.160 -1.4269  1.9105  0.2317
26218SOL     OW82184   9.345  10.177   2.853 -0.9297  0.3257  0.5948
26218SOL    HW182185   9.440  10.166   2.855 -0.8173  1.2601  2.6715
26218SOL    HW282186   9.331  10.259   2.806 -0.8050 -0.3018 -0.5814
26219SOL     OW82187   9.932   3.688   3.160 -0.1209 -0.1847  0.6631
26219SOL    HW182188   9.906   3.620   3.222  0.3726  1.1007  2.3543
26219SOL    HW282189   9.904   3.770   3.200 -1.4884  0.6144 -1.7333
26220SOL     OW82190   4.787   5.989   5.562  0.1528  0.0025  0.2992
26220SOL    HW182191   4.739   6.049   5.505 -0.4157 -0.7311 -0.0026
26220SOL    HW282192   4.847   6.046   5.611  2.5742  0.4317 -2.8289
26221SOL     OW82193   5.448   9.373   0.901  0.0211  0.0116 -0.0404
26221SOL    HW182194   5.397   9.432   0.957 -1.5970 -0.4295 -0.9824
26221SOL    HW282195   5.442   9.288   0.945  1.5527  0.3020  0.8133
26222SOL     OW82196   2.055   8.835   7.729  0.1380  0.8171 -0.0282
26222SOL    HW182197   2.114   8.777   7.777 -0.7544 -0.2940 -0.2205
26222SOL    HW282198   2.112   8.900   7.688  1.0870  0.5943  0.9045
26223SOL     OW82199   2.937   3.927   2.665  1.0212  0.0751  0.2784
26223SOL    HW182200   2.963   4.011   2.704  2.0792  1.7249 -3.4861
26223SOL    HW282201   2.845   3.939   2.640  1.5661  0.8183 -1.5859
26224SOL     OW82202   2.774   9.043   8.775 -0.2517  0.1243  0.3253
26224SOL    HW182203   2.815   8.957   8.771 -1.1129 -0.3074  0.6241
26224SOL    HW282204   2.697   9.036   8.719 -0.4652  0.6282  0.5465
26225SOL     OW82205   9.967   4.572   4.823 -0.0909 -0.4883 -0.3575
26225SOL    HW182206   9.913   4.651   4.830 -1.4079 -1.4193  0.5692
26225SOL    HW282207  10.002   4.575   4.734  0.3937  1.4342 -0.1485
26226SOL     OW82208   2.127   6.925   0.235 -0.4272 -0.6276 -0.6172
26226SOL    HW182209   2.207   6.883   0.268  0.1115 -0.7130 -1.9227
26226SOL    HW282210   2.153   6.958   0.149 -1.4953  0.3669 -0.5692
26227SOL     OW82211   2.485   7.050   0.077 -0.2300 -0.3964 -0.1695
26227SOL    HW182212   2.396   7.085   0.086  0.7526  1.7647  2.9356
26227SOL    HW282213   2.491   6.984   0.146  0.2162 -1.4597 -1.2043
26228SOL     OW82214   2.653   8.152   3.580  0.4453  0.6587 -0.0479
26228SOL    HW182215   2.651   8.228   3.638 -0.1115  1.5409 -1.1625
26228SOL    HW282216   2.647   8.077   3.638  1.3734  1.4470  1.1167
26229SOL     OW82217   3.224   3.950   5.121  0.2347  0.2569  0.5260
26229SOL    HW182218   3.179   3.942   5.037 -1.8523  0.4321  1.5498
26229SOL    HW282219   3.259   4.039   5.121 -0.5877  0.5877  0.2169
26230SOL     OW82220   8.843   4.353   8.332  0.4036  0.4072 -0.3212
26230SOL    HW182221   8.847   4.258   8.343 -1.3811  0.3073 -0.3093
26230SOL    HW282222   8.890   4.369   8.250  1.1399 -0.4097 -0.0809
26231SOL     OW82223   1.180   9.612   6.970  0.2432 -0.6126 -0.0132
26231SOL    HW182224   1.274   9.619   6.952 -0.1884  0.3187 -2.1733
26231SOL    HW282225   1.140   9.598   6.885 -1.5832 -1.4576  0.9194
26232SOL     OW82226   5.447   5.568   1.752  0.0594  0.5064  0.0739
26232SOL    HW182227   5.474   5.594   1.663  0.9707 -0.4166  0.0587
26232SOL    HW282228   5.376   5.628   1.774  0.9651  1.8947 -0.6058
26233SOL     OW82229   1.705   8.066   9.490  0.2112 -0.3611  0.1628
26233SOL    HW182230   1.626   8.077   9.437 -1.5742 -0.4880  2.5892
26233SOL    HW282231   1.685   8.111   9.573  2.0626 -1.7251  1.4507
26234SOL     OW82232   1.704   0.291   9.531  0.0633  0.0406 -0.0162
26234SOL    HW182233   1.767   0.219   9.523 -1.0050 -1.1549  1.4819
26234SOL    HW282234   1.730   0.336   9.612 -0.5876 -0.0449  0.2455
26235SOL     OW82235  10.950   2.254   7.005 -0.5208 -0.2176 -0.4769
26235SOL    HW182236  11.035   2.297   6.991  0.9757 -1.4872  3.4462
26235SOL    HW282237  10.888   2.326   7.014  0.7306  0.8779 -0.2676
26236SOL     OW82238   3.654   5.936   5.838  0.7552  0.1478 -0.4711
26236SOL    HW182239   3.709   5.917   5.915  0.5473  0.9523 -0.1075
26236SOL    HW282240   3.709   5.992   5.783  0.1939  1.2447  0.0580
26237SOL     OW82241   1.273   7.319   4.902 -0.6607 -0.3731  0.2891
26237SOL    HW182242   1.206   7.363   4.851 -0.3048 -1.0695 -0.8003
26237SOL    HW282243   1.236   7.312   4.990 -0.5688  2.4509  0.6316
26238SOL     OW82244   0.076   9.902   4.423  0.1108  0.4999  0.0648
26238SOL    HW182245   0.143   9.856   4.474 -0.3228 -0.3190 -0.0872
26238SOL    HW282246   0.022   9.833   4.386 -0.2783  1.1219 -0.5660
26239SOL     OW82247   4.884  11.093   9.287  0.4789 -0.1263  0.6353
26239SOL    HW182248   4.867  11.134   9.372  0.8480  0.2535  0.5281
26239SOL    HW282249   4.936  11.158   9.239  1.2858 -0.8110  0.5595
26240SOL     OW82250   7.719   9.209   1.164  0.3465 -0.5280 -0.1471
26240SOL    HW182251   7.805   9.233   1.130  0.7710 -2.9533 -0.9518
26240SOL    HW282252   7.736   9.169   1.249 -0.1734  0.4515  0.4353
26241SOL     OW82253   7.482   5.395   2.580 -0.1896  0.4058 -0.2596
26241SOL    HW182254   7.530   5.350   2.511  0.1999  0.4414 -0.0148
26241SOL    HW282255   7.508   5.351   2.661 -0.0262  0.8764 -0.0483
26242SOL     OW82256   7.879  10.894   0.450  0.0587 -0.2829 -0.2366
26242SOL    HW182257   7.856  10.955   0.381  0.3700  2.5573  2.0021
26242SOL    HW282258   7.969  10.916   0.473 -0.2628 -0.6054  1.5363
26243SOL     OW82259   1.163   8.889   5.193  0.0804 -0.5187 -0.1838
26243SOL    HW182260   1.094   8.953   5.209 -0.2384 -1.0097  0.5099
26243SOL    HW282261   1.245   8.937   5.208 -0.1249 -0.0423 -0.5872
26244SOL     OW82262   2.282   2.991   7.409  0.3891 -0.9317 -0.2594
26244SOL    HW182263   2.319   3.020   7.325  3.4778 -0.8032  1.0002
26244SOL    HW282264   2.309   2.900   7.416  2.4640 -0.2440  1.6527
26245SOL     OW82265   2.340   4.781   5.009 -0.3145 -0.1547  0.1614
26245SOL    HW182266   2.325   4.864   5.055  0.1152  0.3536 -0.6112
26245SOL    HW282267   2.407   4.737   5.061 -0.4054  0.0619  0.4674
26246SOL     OW82268   8.936   0.830   9.632  0.1495  0.2646  0.4560
26246SOL    HW182269   8.911   0.745   9.667  0.1533  0.4579  0.9425
26246SOL    HW282270   8.890   0.893   9.687 -2.0610  0.5638 -1.6134
26247SOL     OW82271   4.213   0.268   4.905 -0.0759 -0.6439  0.1773
26247SOL    HW182272   4.280   0.243   4.969  0.3049  0.9650  0.4561
26247SOL    HW282273   4.173   0.185   4.879  0.9496 -1.4990  1.1876
26248SOL     OW82274   7.371   5.071   9.311 -0.1727  0.1767 -0.0649
26248SOL    HW182275   7.314   5.000   9.339  1.5673 -0.9493  0.7865
26248SOL    HW282276   7.460   5.037   9.322  0.7179  2.3168 -0.0698
26249SOL     OW82277   4.248   7.441  10.309 -0.2434  0.2550 -0.8471
26249SOL    HW182278   4.275   7.533  10.316 -0.6059  0.3574 -0.7499
26249SOL    HW282279   4.228   7.429  10.216 -1.7986  0.7461 -0.6069
26250SOL     OW82280   3.534   9.084   8.876 -0.0965  0.2989 -0.2284
26250SOL    HW182281   3.608   9.139   8.901  0.4196 -0.6048  0.2865
26250SOL    HW282282   3.473   9.144   8.834  0.6030  1.1958 -0.0022
26251SOL     OW82283   2.337   7.599   1.651  1.3551 -0.5079  0.0238
26251SOL    HW182284   2.431   7.615   1.642  1.2738 -0.9609 -2.2393
26251SOL    HW282285   2.331   7.507   1.677  1.5628 -1.3395 -2.5744
26252SOL     OW82286   8.933   4.608   6.823  0.0288 -0.6039 -0.6931
26252SOL    HW182287   9.024   4.603   6.852  0.4922 -0.2107 -2.0355
26252SOL    HW282288   8.894   4.527   6.856  0.4497 -0.1011  1.1862
26253SOL     OW82289   1.064   7.966   6.393  0.7548  0.0935 -0.1469
26253SOL    HW182290   1.084   7.878   6.426 -0.5870 -0.3999 -0.5494
26253SOL    HW282291   1.147   8.013   6.396  1.3840 -1.0231  0.5912
26254SOL     OW82292   1.921   7.812   4.190  0.1328  0.3551  0.0452
26254SOL    HW182293   2.012   7.787   4.177  0.1633 -0.7641  2.0408
26254SOL    HW282294   1.922   7.869   4.266 -0.7257  1.2960 -0.6196
26255SOL     OW82295   4.865   2.720   8.899  0.0426 -0.2550  0.2102
26255SOL    HW182296   4.815   2.800   8.916 -0.2188 -0.4225  0.2458
26255SOL    HW282297   4.956   2.745   8.912 -0.0412  0.0273  0.2605
26256SOL     OW82298   3.398   0.413   4.483  0.0932 -0.4276 -0.2599
26256SOL    HW182299   3.321   0.439   4.432  0.8546 -0.4429 -1.4522
26256SOL    HW282300   3.427   0.331   4.443 -0.1550 -1.2436  1.1593
26257SOL     OW82301   3.839   1.856   4.656 -0.1802 -0.0526  0.0373
26257SOL    HW182302   3.771   1.920   4.676 -0.8464 -1.1563  1.4573
26257SOL    HW282303   3.811   1.817   4.573 -2.0045 -1.3457  1.1861
26258SOL     OW82304   0.109   1.402   4.100 -0.0997 -0.6583 -0.5852
26258SOL    HW182305   0.082   1.437   4.015 -0.8141 -0.9046 -0.4676
26258SOL    HW282306   0.178   1.461   4.130  1.7323 -1.7701 -2.3249
26259SOL     OW82307   3.702   6.341   8.166 -0.7555  0.0106 -0.2999
26259SOL    HW182308   3.667   6.259   8.201 -0.8433  0.4972  0.8226
26259SOL    HW282309   3.632   6.405   8.179 -0.1124  0.6111  0.3726
26260SOL     OW82310   8.161   8.627   4.588 -0.4943 -0.4296  0.3899
26260SOL    HW182311   8.146   8.705   4.535  2.4678  0.1982  0.3258
26260SOL    HW282312   8.106   8.560   4.548 -1.4759  1.0686 -0.8693
26261SOL     OW82313   3.284   9.442   0.676 -0.2013  1.1004  0.7211
26261SOL    HW182314   3.374   9.468   0.696 -0.5124  2.7006  0.1691
26261SOL    HW282315   3.277   9.353   0.710  2.1047  0.2799 -0.6904
26262SOL     OW82316   9.815   7.352   7.508  0.0372 -0.2928  0.2470
26262SOL    HW182317   9.816   7.273   7.455 -0.2339  0.4296 -0.8691
26262SOL    HW282318   9.907   7.369   7.529  0.1272 -0.6851  0.1783
26263SOL     OW82319   0.780   8.455   5.602 -0.0125  0.2041 -0.0964
26263SOL    HW182320   0.710   8.408   5.649  0.9419 -0.0871  1.0900
26263SOL    HW282321   0.828   8.386   5.556 -1.0351  0.5042 -1.7144
26264SOL     OW82322   1.987  10.901   8.654 -0.2066  0.4878 -0.0418
26264SOL    HW182323   2.067  10.936   8.694  0.0792  1.1611 -1.1299
26264SOL    HW282324   1.929  10.977   8.647  0.3361  0.7900 -2.2308
26265SOL     OW82325   1.026   3.864   7.354 -0.0656 -0.8860  0.3303
26265SOL    HW182326   1.044   3.773   7.330  0.0312 -0.4884 -1.1468
26265SOL    HW282327   1.106   3.894   7.398  1.1699 -0.5618 -2.0258
26266SOL     OW82328   3.935  11.014   4.301 -0.6000 -0.5509  0.0289
26266SOL    HW182329   3.949  10.951   4.230 -0.2513  0.9949 -1.3337
26266SOL    HW282330   3.893  10.963   4.370  0.1798 -2.3988 -0.7840
26267SOL     OW82331   7.827   1.371  11.082 -0.2485 -0.6200  0.2363
26267SOL    HW182332   7.883   1.442  11.052 -1.1021  0.9825  2.1335
26267SOL    HW282333   7.886   1.311  11.128  0.4006 -0.8776 -0.9021
26268SOL     OW82334   4.873   1.188   6.737 -0.2312  0.3111 -0.1206
26268SOL    HW182335   4.847   1.275   6.706  2.9679  1.9034  1.2237
26268SOL    HW282336   4.934   1.204   6.809  0.6235 -3.0475  0.1104
26269SOL     OW82337  10.303   2.029   1.088 -0.1094 -0.3761 -0.0192
26269SOL    HW182338  10.234   2.011   1.152  0.1777 -0.8356  0.1648
26269SOL    HW282339  10.347   1.945   1.076  0.9505  0.0951  0.4837
26270SOL     OW82340   2.138   2.943   4.295  0.0873  0.2923 -0.1669
26270SOL    HW182341   2.176   2.933   4.208 -0.0482  2.0857 -0.4842
26270SOL    HW282342   2.196   2.893   4.353  0.0520 -1.1061 -1.2856
26271SOL     OW82343  10.826   0.494   2.353 -0.3224 -0.4619 -0.3995
26271SOL    HW182344  10.782   0.412   2.376 -0.6887 -0.1514  0.0125
26271SOL    HW282345  10.899   0.500   2.414  0.5337 -1.1545 -1.3096
26272SOL     OW82346   1.409   1.821   1.121 -0.6036  0.2723 -0.1865
26272SOL    HW182347   1.405   1.815   1.216 -1.8815 -0.3965 -0.2647
26272SOL    HW282348   1.435   1.734   1.092  0.9021  0.7728 -0.4201
26273SOL     OW82349   6.388   2.962   7.980 -0.1738 -0.1657 -0.3139
26273SOL    HW182350   6.416   2.976   7.889  0.4081 -1.9977 -0.4551
26273SOL    HW282351   6.294   2.948   7.973 -0.0310 -1.0141 -0.7577
26274SOL     OW82352   2.473   7.086   5.175 -0.3697  0.2521  0.3180
26274SOL    HW182353   2.417   7.144   5.228 -0.2575  2.2402 -1.6076
26274SOL    HW282354   2.460   7.116   5.085  2.5709 -0.2447 -0.3716
26275SOL     OW82355   3.386   0.482   4.011  0.3230  0.4022 -0.0362
26275SOL    HW182356   3.379   0.563   4.062  0.3541  0.3895 -0.0119
26275SOL    HW282357   3.339   0.502   3.930 -2.4041 -0.5594  1.1982
26276SOL     OW82358   9.256   3.803  10.824 -0.2291 -0.4632  0.1784
26276SOL    HW182359   9.216   3.876  10.870 -2.5387 -2.1351  0.9670
26276SOL    HW282360   9.347   3.802  10.855 -0.3466  1.5539  0.7123
26277SOL     OW82361   7.967   1.509   4.727  0.3282  0.9170 -0.2950
26277SOL    HW182362   7.985   1.603   4.722 -0.9224  1.3376  1.7492
26277SOL    HW282363   7.885   1.498   4.678  0.2835  0.9620 -0.2310
26278SOL     OW82364  10.313   4.535   8.766 -0.1278 -0.8836 -0.7517
26278SOL    HW182365  10.375   4.608   8.758 -0.8994 -0.0751  0.2598
26278SOL    HW282366  10.367   4.457   8.757  0.6216 -0.2188 -2.5998
26279SOL     OW82367   5.647   1.506   7.946  0.5464 -0.7146  0.7533
26279SOL    HW182368   5.575   1.460   7.902 -0.3101  1.1245  0.1125
26279SOL    HW282369   5.605   1.549   8.021  0.4856  1.9932 -0.7281
26280SOL     OW82370   3.118   6.878  10.038 -0.5209 -0.1432  0.1578
26280SOL    HW182371   3.120   6.951   9.977 -0.8712 -1.7970 -1.9461
26280SOL    HW282372   3.043   6.897  10.095 -0.2426  1.4028  0.0483
26281SOL     OW82373   6.415   8.084   2.484 -0.0850  0.4073 -0.0795
26281SOL    HW182374   6.333   8.036   2.474  0.8083 -2.0387  2.8275
26281SOL    HW282375   6.405   8.130   2.568  1.1888  0.7422 -0.0901
26282SOL     OW82376   8.521   8.523   7.295  0.2535  0.1056  0.3158
26282SOL    HW182377   8.454   8.472   7.249  0.2660 -0.3705  0.8148
26282SOL    HW282378   8.484   8.537   7.382  0.8805 -0.3254  0.6538
26283SOL     OW82379   3.570   9.730   3.016 -0.3890 -0.0959 -0.0601
26283SOL    HW182380   3.528   9.744   3.100  0.4573 -0.9191  0.5226
26283SOL    HW282381   3.552   9.638   2.994  0.4992 -0.2707 -0.1203
26284SOL     OW82382   2.171   1.710   9.739 -0.0905  0.4395  0.0937
26284SOL    HW182383   2.091   1.658   9.739  0.8713 -1.0928 -0.1066
26284SOL    HW282384   2.169   1.758   9.656 -1.8858  2.2565  1.0815
26285SOL     OW82385   0.062   9.259   0.174  0.1435  0.5825 -0.1008
26285SOL    HW182386   0.031   9.276   0.263  1.5632  0.4312  0.4376
26285SOL    HW282387   0.100   9.342   0.145  0.4098  0.4058 -0.2646
26286SOL     OW82388   9.826   6.838   7.032  0.0191 -0.0551  0.0146
26286SOL    HW182389   9.814   6.919   7.082 -1.2378 -0.1533 -0.0957
26286SOL    HW282390   9.910   6.804   7.062  0.0374  0.7130  0.8936
26287SOL     OW82391   7.217   2.455   9.809 -0.5975  0.1032 -0.0877
26287SOL    HW182392   7.210   2.548   9.785  0.4466  0.4849  0.9700
26287SOL    HW282393   7.311   2.437   9.805 -0.8870 -1.2969 -1.5454
26288SOL     OW82394   9.352   6.043   0.341  0.0777 -1.1421 -0.2949
26288SOL    HW182395   9.378   5.957   0.309 -2.6392 -0.8155 -4.0816
26288SOL    HW282396   9.387   6.104   0.275  0.7883  0.5915  1.5666
26289SOL     OW82397   7.304   0.874   1.299 -0.3371  0.2097 -0.2829
26289SOL    HW182398   7.376   0.843   1.355  0.7530 -1.1044 -2.2880
26289SOL    HW282399   7.344   0.940   1.242 -1.3194  1.1929  0.1204
26290SOL     OW82400   5.851   2.294   9.251  0.3919  0.4169  0.2916
26290SOL    HW182401   5.765   2.283   9.209  1.0149 -0.0311 -0.9149
26290SOL    HW282402   5.862   2.389   9.257  1.1237  0.5839 -2.4362
26291SOL     OW82403   5.890   1.606  10.769  0.3797  0.2597  0.2336
26291SOL    HW182404   5.960   1.611  10.703  1.9738  2.6040  1.9367
26291SOL    HW282405   5.911   1.675  10.831 -1.7532 -1.0248  2.5622
26292SOL     OW82406   9.754  10.613   1.160  0.6154  0.1093 -0.2416
26292SOL    HW182407   9.734  10.575   1.074 -2.8436 -0.2808  0.6004
26292SOL    HW282408   9.742  10.707   1.147  2.0050  0.2568 -0.5953
26293SOL     OW82409   1.533   2.468   3.378  0.5657 -0.0637 -0.1661
26293SOL    HW182410   1.530   2.410   3.454  1.8426 -1.6266 -1.2265
26293SOL    HW282411   1.442   2.491   3.361  0.0669 -1.3835  0.5882
26294SOL     OW82412   5.070   2.023   7.797  0.3882  0.4270  0.7612
26294SOL    HW182413   5.088   1.948   7.853  0.4030  1.2738  1.9177
26294SOL    HW282414   5.156   2.048   7.762  0.3046 -0.4427 -0.1235
26295SOL     OW82415   8.989   8.437   1.443  0.4401 -0.3201 -0.3305
26295SOL    HW182416   8.970   8.376   1.514 -2.1666 -3.2404 -3.2451
26295SOL    HW282417   8.911   8.493   1.438  0.2918 -0.5943 -1.2856
26296SOL     OW82418   7.560   8.752   2.605  0.0209 -0.6653  0.1387
26296SOL    HW182419   7.543   8.710   2.521 -0.8738 -1.7942  0.8550
26296SOL    HW282420   7.533   8.843   2.592 -2.2185 -1.3179 -0.1991
26297SOL     OW82421   4.600   1.694   8.895 -0.0711  0.2534 -0.3934
26297SOL    HW182422   4.580   1.684   8.988 -0.2342  0.4051 -0.4105
26297SOL    HW282423   4.676   1.751   8.892 -1.6221  2.4410 -0.4301
26298SOL     OW82424   3.929   9.447   6.556  0.3444 -0.3382 -0.0879
26298SOL    HW182425   4.004   9.388   6.562 -0.1932 -1.1775 -1.2034
26298SOL    HW282426   3.954   9.510   6.488 -0.0992 -0.8531 -0.7385
26299SOL     OW82427   3.103   9.224   5.586  0.0721 -0.2081  0.4016
26299SOL    HW182428   3.184   9.275   5.593 -0.2906  0.6906 -1.3890
26299SOL    HW282429   3.034   9.291   5.579 -0.7167 -0.9694  0.7373
26300SOL     OW82430   2.242  10.024   6.433 -0.4589  0.3968 -0.1483
26300SOL    HW182431   2.162  10.073   6.413  0.2198  2.1478  1.2270
26300SOL    HW282432   2.215   9.961   6.500 -0.4519  1.9345  1.3687
26301SOL     OW82433   6.698   5.887   4.463  0.3265  0.3057  0.4525
26301SOL    HW182434   6.626   5.829   4.440  0.7752 -1.1049  2.4185
26301SOL    HW282435   6.730   5.920   4.379 -1.0155 -0.9758 -0.5971
26302SOL     OW82436   9.966   5.076   4.668  0.0990  0.3942  0.3622
26302SOL    HW182437   9.986   5.149   4.610 -0.9071  0.5586  0.2096
26302SOL    HW282438   9.910   5.114   4.737  1.6351  0.3069  1.7261
26303SOL     OW82439   3.614   3.180   3.618  0.0426 -0.1124 -0.4583
26303SOL    HW182440   3.673   3.245   3.657  1.2701 -2.7325  2.5051
26303SOL    HW282441   3.663   3.146   3.543  0.6068  0.4470 -0.3543
26304SOL     OW82442   8.004   6.865   4.525 -0.1649 -0.0737 -0.7243
26304SOL    HW182443   7.993   6.780   4.480 -0.8351 -0.5275  0.2721
26304SOL    HW282444   8.080   6.853   4.580 -0.1920  0.0150 -0.6681
26305SOL     OW82445   3.376  10.793   7.979  0.1308 -0.2512  0.6487
26305SOL    HW182446   3.352  10.828   7.893 -1.7053  0.5649  1.4198
26305SOL    HW282447   3.388  10.699   7.965 -1.9293 -0.4378 -0.2168
26306SOL     OW82448   9.613   1.262   6.105 -0.5491 -0.1448  0.0948
26306SOL    HW182449   9.593   1.315   6.027 -1.6876 -0.3793  0.2120
26306SOL    HW282450   9.674   1.195   6.073  0.5112  0.8964 -0.1684
26307SOL     OW82451   1.139   9.451   2.659  0.4072  0.0956  0.2406
26307SOL    HW182452   1.109   9.528   2.709  0.0573  0.7932 -0.9918
26307SOL    HW282453   1.061   9.420   2.614  0.5415 -1.0285  0.7692
26308SOL     OW82454   1.327   0.428   6.789 -0.1462 -0.1510  0.3394
26308SOL    HW182455   1.415   0.391   6.798 -0.5041 -0.9259  0.7382
26308SOL    HW282456   1.338   0.521   6.809  0.7098 -0.1024 -0.3431
26309SOL     OW82457   3.440   0.713   4.118 -0.4655  0.4266 -0.2332
26309SOL    HW182458   3.422   0.800   4.154  1.0831  0.9557 -0.6413
26309SOL    HW282459   3.523   0.687   4.159 -0.8439 -0.8114 -0.2169
26310SOL     OW82460   4.860  10.642   0.682  0.4906  0.5317 -0.0692
26310SOL    HW182461   4.792  10.594   0.728  0.9790  0.0958  0.2121
26310SOL    HW282462   4.898  10.700   0.748 -1.7513  3.2242 -0.9559
26311SOL     OW82463   1.754   3.336   1.396  0.2053 -0.0429 -0.0661
26311SOL    HW182464   1.790   3.408   1.345  0.2164 -1.8012 -2.7577
26311SOL    HW282465   1.674   3.312   1.350 -0.9984 -0.3263  2.0889
26312SOL     OW82466   7.277   2.716   2.007 -0.0233  0.1060 -0.0623
26312SOL    HW182467   7.256   2.680   1.921 -1.7545 -0.2520  0.4632
26312SOL    HW282468   7.313   2.802   1.989  0.3695 -0.2701 -1.1649
26313SOL     OW82469   6.370   0.015   7.788  0.1121  0.8034 -0.8841
26313SOL    HW182470   6.392  -0.025   7.704 -0.6727  1.7464 -1.5654
26313SOL    HW282471   6.429   0.090   7.796  0.1599  0.7385 -0.6027
26314SOL     OW82472   5.589   6.257   5.478 -0.0078  0.4659  0.0787
26314SOL    HW182473   5.579   6.247   5.572  0.2324 -1.0542 -0.0204
26314SOL    HW282474   5.553   6.343   5.458  0.3322  0.9808  1.6055
26315SOL     OW82475   1.868   3.381  10.768 -0.4054 -0.3307  0.3650
26315SOL    HW182476   1.836   3.307  10.819 -0.5931  0.2280  1.0735
26315SOL    HW282477   1.807   3.452  10.787 -0.0664  0.0885 -0.0841
26316SOL     OW82478   0.747   2.153   8.993  0.4317 -0.0576 -0.3992
26316SOL    HW182479   0.796   2.081   8.953  1.6090  0.3120  0.3151
26316SOL    HW282480   0.790   2.166   9.078  0.2730  1.5046 -0.5405
26317SOL     OW82481   9.271   6.395   7.144 -0.0700 -0.1496 -0.2204
26317SOL    HW182482   9.354   6.439   7.165 -0.9061  0.9069  1.0761
26317SOL    HW282483   9.292   6.302   7.148  0.8466  0.0816  1.1573
26318SOL     OW82484   2.088   8.571   9.705 -0.1555 -0.3183 -0.0211
26318SOL    HW182485   2.146   8.647   9.698 -0.6435  0.0386 -0.2419
26318SOL    HW282486   2.146   8.496   9.693  0.9625 -0.1839  3.2711
26319SOL     OW82487   8.071   6.065   9.569  0.2202 -0.6692  0.0429
26319SOL    HW182488   8.006   6.122   9.529  1.3134  0.1151 -0.6434
26319SOL    HW282489   8.019   5.994   9.608 -1.2710  1.2659  1.8333
26320SOL     OW82490   4.974   4.205   3.579  0.4823 -0.3944  0.0148
26320SOL    HW182491   5.026   4.138   3.624  3.1013  2.7940  2.1941
26320SOL    HW282492   4.883   4.181   3.599  1.3476 -2.4034  2.0749
26321SOL     OW82493   2.446   6.300   5.040  0.0788 -0.1419 -0.0677
26321SOL    HW182494   2.424   6.209   5.019  0.9357 -0.1478 -0.9688
26321SOL    HW282495   2.536   6.311   5.010  0.7325  0.4007  1.9343
26322SOL     OW82496   2.238   4.361   4.720  0.3116 -0.2963  0.0180
26322SOL    HW182497   2.309   4.381   4.781  0.8198  0.0047 -0.6599
26322SOL    HW282498   2.275   4.298   4.659  0.9167  1.8431 -1.9808
26323SOL     OW82499   3.719   3.209   7.895  0.1969 -0.0118 -0.2931
26323SOL    HW182500   3.722   3.301   7.922  1.3614  0.3095 -1.4037
26323SOL    HW282501   3.727   3.160   7.977 -1.1613  0.8564  0.3908
26324SOL     OW82502   3.474   6.016  10.892  0.1388  0.7716 -0.1688
26324SOL    HW182503   3.473   6.112  10.897 -2.8875  0.8740 -1.0943
26324SOL    HW282504   3.412   5.995  10.823  0.5264 -1.8962  0.2001
26325SOL     OW82505   9.436   8.059   3.860  0.0601 -0.1152  0.1945
26325SOL    HW182506   9.451   8.043   3.953  0.3082 -0.0172  0.1725
26325SOL    HW282507   9.349   8.023   3.843  0.2367 -0.6347  0.3469
26326SOL     OW82508   2.356   0.535   5.015 -0.2758  0.0535 -0.0638
26326SOL    HW182509   2.283   0.551   4.956  0.0506  1.3795 -0.1290
26326SOL    HW282510   2.432   0.573   4.971  0.1151  0.3615  0.8479
26327SOL     OW82511   2.899   2.744  10.431 -0.3893 -0.5439 -0.6910
26327SOL    HW182512   2.883   2.789  10.348  2.4285 -0.2637 -1.1736
26327SOL    HW282513   2.951   2.805  10.483 -0.7337 -1.3441  0.6442
26328SOL     OW82514   6.800   4.011   9.564  0.0876 -0.1305 -0.0193
26328SOL    HW182515   6.740   3.980   9.632  0.6138 -0.9700  0.0949
26328SOL    HW282516   6.861   3.937   9.552  1.5515  0.9498  0.4175
26329SOL     OW82517   4.788   7.150   5.175 -0.1496 -0.1098  0.5271
26329SOL    HW182518   4.883   7.139   5.173 -0.0824  0.0623  1.8686
26329SOL    HW282519   4.754   7.061   5.170 -0.0861 -0.1018 -3.2849
26330SOL     OW82520  10.730   8.205   3.893 -0.6916  0.2547 -0.5871
26330SOL    HW182521  10.798   8.207   3.826 -0.5436 -1.4394 -0.5106
26330SOL    HW282522  10.708   8.298   3.907  2.1838  0.9519 -0.0034
26331SOL     OW82523   1.888   2.688   8.835 -0.3521  0.0719 -0.2486
26331SOL    HW182524   1.853   2.676   8.747 -0.3206  2.6800 -0.7030
26331SOL    HW282525   1.979   2.712   8.821 -0.2094  0.0065  0.5337
26332SOL     OW82526   9.525   3.200   3.365  0.0652 -0.8715 -0.1531
26332SOL    HW182527   9.619   3.180   3.366  0.4444  0.6649 -1.5048
26332SOL    HW282528   9.503   3.216   3.456  1.0597 -1.4865  0.2157
26333SOL     OW82529   3.385   9.459   7.671  0.1590 -0.5417  0.3638
26333SOL    HW182530   3.440   9.536   7.658  0.0007 -0.6496 -1.0987
26333SOL    HW282531   3.416   9.395   7.606 -2.2766 -0.2554 -1.2512
26334SOL     OW82532   8.464   2.570   2.872 -0.3491 -0.0853  0.0583
26334SOL    HW182533   8.466   2.576   2.776 -1.7479  0.4653  0.0464
26334SOL    HW282534   8.523   2.640   2.901 -1.0825  0.7361 -0.3883
26335SOL     OW82535   0.246   4.339  10.111  1.0151  0.2763  0.2497
26335SOL    HW182536   0.287   4.415  10.153  0.0988  0.9757 -0.0939
26335SOL    HW282537   0.301   4.321  10.035  0.7214  1.2010 -0.1991
26336SOL     OW82538   4.052   2.969   2.129 -0.1767  0.2939  0.0726
26336SOL    HW182539   4.086   3.053   2.159 -0.2358  0.2934  0.1437
26336SOL    HW282540   3.962   2.989   2.101 -1.0682 -0.1719  2.3594
26337SOL     OW82541   3.384   8.908   4.308 -0.0203  0.1226 -0.7559
26337SOL    HW182542   3.438   8.964   4.363  0.2756  1.3020 -2.1853
26337SOL    HW282543   3.389   8.822   4.349 -0.2791  1.0434  1.3648
26338SOL     OW82544   8.436   1.819   7.252  0.4807 -0.2267  0.0910
26338SOL    HW182545   8.424   1.733   7.292  0.3584 -0.1070  0.3137
26338SOL    HW282546   8.518   1.812   7.203  0.4910 -0.4574  0.1405
26339SOL     OW82547   5.577  10.438   5.412 -0.3494  0.5018 -0.4792
26339SOL    HW182548   5.542  10.521   5.380  2.1646  0.8549 -2.6405
26339SOL    HW282549   5.657  10.462   5.460 -0.4451 -0.5836  0.2872
26340SOL     OW82550  10.612   8.159   5.956 -0.0911 -0.7531 -0.2334
26340SOL    HW182551  10.540   8.142   5.895 -0.1262  0.6951 -0.6339
26340SOL    HW282552  10.674   8.089   5.940 -0.3576 -0.7063 -1.5668
26341SOL     OW82553   9.378   7.371   3.408  0.8057 -0.1577  0.2008
26341SOL    HW182554   9.314   7.308   3.441  1.5308 -0.6878  0.6173
26341SOL    HW282555   9.442   7.318   3.361  0.1845  0.5049 -1.4896
26342SOL     OW82556   2.432   3.775   1.228 -0.5151  0.2607  0.0214
26342SOL    HW182557   2.518   3.744   1.257  0.4827  0.7642 -2.1812
26342SOL    HW282558   2.386   3.696   1.201 -1.1794 -0.1268  2.0628
26343SOL     OW82559  11.066   6.190   9.345  0.1065  0.4399 -0.3077
26343SOL    HW182560  11.101   6.113   9.389 -1.2934  0.6090  1.2080
26343SOL    HW282561  11.115   6.196   9.263  1.0653 -1.3543  0.0950
26344SOL     OW82562   6.880  10.831   8.134 -0.2785  0.2352  0.0313
26344SOL    HW182563   6.896  10.737   8.133  0.6815  0.3942 -0.4883
26344SOL    HW282564   6.872  10.852   8.227  0.7307 -0.1693  0.2238
26345SOL     OW82565   3.065   1.217   9.873  0.6907 -0.3377  0.2418
26345SOL    HW182566   3.060   1.253   9.785  2.3826 -0.1986  0.1704
26345SOL    HW282567   3.079   1.123   9.860 -1.2827 -0.6968  0.4108
26346SOL     OW82568   4.536   6.064   5.817 -0.7307 -0.1858 -0.4304
26346SOL    HW182569   4.614   6.085   5.767 -0.4865  0.5035  0.2286
26346SOL    HW282570   4.470   6.125   5.785 -0.7138 -0.0803 -0.2629
26347SOL     OW82571   0.058   5.164   5.071 -0.4882 -0.1620  0.1893
26347SOL    HW182572   0.025   5.254   5.061 -0.2622 -0.0951  0.0356
26347SOL    HW282573   0.019   5.116   4.998 -0.9691 -0.2969  0.5281
26348SOL     OW82574   1.575   1.182   4.053 -0.3991 -0.3367  0.0349
26348SOL    HW182575   1.576   1.139   3.968 -2.1862 -0.0192 -0.1785
26348SOL    HW282576   1.524   1.123   4.109 -3.0941  1.4832 -0.3181
26349SOL     OW82577   1.513   0.875   5.060  0.1405  0.1695  0.5347
26349SOL    HW182578   1.476   0.798   5.102  0.0832  0.4356  0.9779
26349SOL    HW282579   1.559   0.841   4.983  0.1018 -0.3012  0.7185
26350SOL     OW82580   1.190   0.390   8.884  0.8097  0.9190  0.3245
26350SOL    HW182581   1.156   0.389   8.794 -1.0370  1.1298  0.9807
26350SOL    HW282582   1.273   0.343   8.878 -1.1705 -2.9223 -0.7990
26351SOL     OW82583   5.821   1.052   2.285  0.4528 -0.3881  0.1395
26351SOL    HW182584   5.823   0.963   2.251  0.3321 -0.5899  0.6613
26351SOL    HW282585   5.816   1.042   2.380 -0.0386  0.1757  0.1755
26352SOL     OW82586   9.250   9.156  11.089 -0.0439 -0.1384 -0.2153
26352SOL    HW182587   9.330   9.117  11.123 -0.5400 -1.6924 -0.7539
26352SOL    HW282588   9.200   9.181  11.167 -0.6568 -2.5922  0.2701
26353SOL     OW82589   6.607   7.976   8.321 -0.1557  0.5311 -0.1618
26353SOL    HW182590   6.693   7.939   8.301 -0.3755  0.3325 -0.7547
26353SOL    HW282591   6.554   7.955   8.244 -0.8815  0.1851  0.4275
26354SOL     OW82592   0.962   2.646   4.982 -0.8508 -0.0349  0.9579
26354SOL    HW182593   0.997   2.602   5.059  0.3030  0.5964  0.8200
26354SOL    HW282594   0.988   2.591   4.908  0.3533  0.6968  0.8095
26355SOL     OW82595  11.055   2.809   9.242 -0.0534 -0.1498  0.2224
26355SOL    HW182596  11.086   2.873   9.177  0.7591  0.6971  1.4078
26355SOL    HW282597  10.969   2.842   9.268  0.1176  0.1384  0.4190
26356SOL     OW82598   4.577   1.929   6.543 -0.0918 -0.6992  0.1096
26356SOL    HW182599   4.578   1.842   6.582  1.2726 -0.8056 -0.0929
26356SOL    HW282600   4.554   1.915   6.451  1.1101 -0.9818 -0.1628
26357SOL     OW82601   9.196   9.770   6.871  0.3501  0.2214  0.5716
26357SOL    HW182602   9.131   9.836   6.893 -0.5593 -0.4283 -0.0855
26357SOL    HW282603   9.231   9.740   6.955 -1.2750 -0.4755  1.0312
26358SOL     OW82604   1.193   3.166   1.767 -0.2287 -0.0918  0.0189
26358SOL    HW182605   1.162   3.253   1.741 -0.6457  0.0064  0.8024
26358SOL    HW282606   1.247   3.183   1.844 -0.8827 -0.5872  0.6002
26359SOL     OW82607   0.302   1.309  10.405 -0.0333 -0.2553 -0.3618
26359SOL    HW182608   0.230   1.249  10.424 -1.0896  0.7004 -1.2413
26359SOL    HW282609   0.262   1.380  10.356  1.2579  1.0037  0.3360
26360SOL     OW82610   7.856   8.205   5.858  0.2424  0.2432  0.2633
26360SOL    HW182611   7.852   8.126   5.912  0.0234  1.0434  1.4453
26360SOL    HW282612   7.766   8.221   5.832  0.1992  0.4465  0.5359
26361SOL     OW82613   0.406  10.337   4.634  0.4639 -0.3649 -0.4688
26361SOL    HW182614   0.434  10.346   4.725  0.6506 -1.6916 -0.3716
26361SOL    HW282615   0.464  10.396   4.585 -0.1911  0.9828  0.3489
26362SOL     OW82616   2.970   5.813   7.138  0.2273 -0.6579  0.4346
26362SOL    HW182617   3.033   5.832   7.069 -0.0831 -0.3608  0.2255
26362SOL    HW282618   2.892   5.863   7.113 -0.1989 -1.2771  0.5163
26363SOL     OW82619  10.096   8.630   5.848 -0.7191  0.0410  0.5737
26363SOL    HW182620  10.040   8.678   5.788  0.3133  0.1419 -0.3336
26363SOL    HW282621  10.076   8.666   5.934 -1.8254  0.2683  0.2275
26364SOL     OW82622   5.868   0.293   1.124  0.5237 -0.5994 -0.2295
26364SOL    HW182623   5.913   0.334   1.050 -1.0062 -0.1389 -0.9538
26364SOL    HW282624   5.929   0.227   1.155  1.6055 -0.1448 -1.2901
26365SOL     OW82625   1.214   9.850   2.838 -0.2689 -0.4309  0.5585
26365SOL    HW182626   1.264   9.867   2.918  0.2159  2.0097 -0.1685
26365SOL    HW282627   1.279   9.851   2.768 -1.1417  2.1637 -0.3375
26366SOL     OW82628   9.685   4.084   5.641 -0.2909 -0.4743 -0.4469
26366SOL    HW182629   9.723   4.001   5.669 -1.3309 -0.8256 -0.0266
26366SOL    HW282630   9.744   4.115   5.573  1.3332 -0.4598  0.8970
26367SOL     OW82631  10.151  10.320   9.007  0.1795 -0.0202  0.0633
26367SOL    HW182632  10.105  10.375   9.070 -2.1432 -2.2315  0.4755
26367SOL    HW282633  10.173  10.378   8.935 -0.7348  1.7490  1.1541
26368SOL     OW82634   7.803   5.100  10.941 -0.5786  0.6594 -0.0085
26368SOL    HW182635   7.788   5.015  10.899  0.2325 -0.3668  1.6833
26368SOL    HW282636   7.836   5.156  10.871 -0.7767 -0.5144 -1.0728
26369SOL     OW82637  10.424   7.668   3.382  0.2873 -0.1020  0.3971
26369SOL    HW182638  10.451   7.709   3.464 -0.1842  0.4612  0.2705
26369SOL    HW282639  10.506   7.638   3.343  0.5794  0.2023  0.7652
26370SOL     OW82640  10.580   6.129   8.201 -0.0672  0.4114 -0.4487
26370SOL    HW182641  10.626   6.136   8.285  0.3610  0.7113 -0.7039
26370SOL    HW282642  10.637   6.175   8.139 -1.4437  2.1803 -0.4806
26371SOL     OW82643   2.162   4.007   2.968  0.7616 -0.1337 -0.4306
26371SOL    HW182644   2.242   4.053   2.944  2.2576  0.5274  4.6300
26371SOL    HW282645   2.193   3.927   3.012 -1.2349  0.3318  2.0263
26372SOL     OW82646   3.275   5.794   6.701 -0.0347 -0.0571  0.6348
26372SOL    HW182647   3.361   5.789   6.660  0.0085  0.3564  0.6642
26372SOL    HW282648   3.291   5.838   6.785 -0.2689  0.0005  0.6516
26373SOL     OW82649   8.963   6.466   7.920 -0.2762 -0.5159 -0.0021
26373SOL    HW182650   8.886   6.472   7.977  0.3525 -0.8879  0.9269
26373SOL    HW282651   8.964   6.374   7.892 -0.1283 -0.5300  0.0492
26374SOL     OW82652   0.044   0.069   6.179 -0.4074  0.0162  0.2022
26374SOL    HW182653   0.028   0.158   6.146  0.8059  0.2312  0.1453
26374SOL    HW282654  -0.038   0.022   6.162 -0.6725  0.8136 -0.8237
26375SOL     OW82655   7.007   0.751   7.028  0.0181  0.3984 -0.8764
26375SOL    HW182656   7.011   0.838   7.066 -1.4318  0.9747 -1.9717
26375SOL    HW282657   6.982   0.694   7.100  3.5667  0.3545  0.5288
26376SOL     OW82658   9.173   9.449   0.554  0.3770  0.3605 -0.3960
26376SOL    HW182659   9.158   9.406   0.638  0.1446  1.3533  0.0773
26376SOL    HW282660   9.086   9.479   0.527  0.1982 -1.1457 -1.6789
26377SOL     OW82661   4.689   9.803   9.983 -0.1320 -0.0503  0.0459
26377SOL    HW182662   4.652   9.891   9.978  0.4300  0.2737  1.1759
26377SOL    HW282663   4.684   9.780  10.075  0.2715 -0.9681 -0.1480
26378SOL     OW82664   8.333   3.834  10.284 -0.3281 -0.0827 -0.2271
26378SOL    HW182665   8.323   3.739  10.279 -0.4373 -0.0611 -0.4396
26378SOL    HW282666   8.428   3.848  10.287 -0.2496 -0.1409 -1.6472
26379SOL     OW82667   1.928   6.723   2.323  0.0371 -0.3816 -0.0727
26379SOL    HW182668   1.847   6.773   2.333 -0.1549 -0.3592 -1.4394
26379SOL    HW282669   1.901   6.642   2.280  0.8186 -0.0245 -1.3029
26380SOL     OW82670   8.731   0.143   7.011 -0.5988  0.3727 -0.3529
26380SOL    HW182671   8.734   0.059   6.966  2.0063 -0.1105  0.5396
26380SOL    HW282672   8.806   0.192   6.975 -0.6113  1.3432  0.8780
26381SOL     OW82673   9.588   0.878   9.458 -0.5558 -0.2168  0.7298
26381SOL    HW182674   9.549   0.857   9.543 -0.0482 -0.8454  0.8154
26381SOL    HW282675   9.668   0.825   9.455 -1.5132 -1.6429 -0.9296
26382SOL     OW82676   2.200   0.373   8.102  0.0752 -0.7658 -0.4531
26382SOL    HW182677   2.281   0.333   8.135  0.3952 -0.0483 -0.3457
26382SOL    HW282678   2.154   0.401   8.181  1.0601  1.3802 -0.5560
26383SOL     OW82679   3.306  10.845   9.943 -0.4906  0.4042 -0.2612
26383SOL    HW182680   3.225  10.795   9.954 -0.9002  1.3250  1.1665
26383SOL    HW282681   3.353  10.833  10.026 -0.1245  1.5347 -0.2886
26384SOL     OW82682   9.607   6.626   9.994 -0.3485  0.4562  0.2379
26384SOL    HW182683   9.602   6.710  10.040  0.5421  0.7041 -0.1074
26384SOL    HW282684   9.700   6.610   9.982 -0.4376 -1.1950  1.3832
26385SOL     OW82685   1.499   5.451   2.672 -0.1698  0.2441 -0.5292
26385SOL    HW182686   1.511   5.529   2.619  1.1572 -1.3180 -2.6950
26385SOL    HW282687   1.587   5.427   2.700 -0.7586  0.6047  1.8724
26386SOL     OW82688   5.271   1.178   9.214 -0.2835 -0.1914  0.3260
26386SOL    HW182689   5.291   1.164   9.122  0.1881 -1.9875  0.6509
26386SOL    HW282690   5.302   1.098   9.257  0.5314  1.0739  2.2005
26387SOL     OW82691   2.890   9.411   0.586  0.6655  0.3278 -0.0628
26387SOL    HW182692   2.905   9.467   0.663  0.9732  0.9206 -0.5447
26387SOL    HW282693   2.947   9.448   0.519 -0.9013  0.9298 -1.1233
26388SOL     OW82694   9.821   8.499   5.361  0.0824  0.5754  0.2720
26388SOL    HW182695   9.807   8.482   5.268  2.5205  2.5086 -0.5544
26388SOL    HW282696   9.734   8.490   5.401 -1.2154  0.7549 -2.3508
26389SOL     OW82697   1.483   1.871   5.970 -0.0967  0.7118 -0.2114
26389SOL    HW182698   1.407   1.821   6.000  0.8377  0.0671  1.2233
26389SOL    HW282699   1.448   1.954   5.940 -1.5337 -0.2037 -1.1865
26390SOL     OW82700   5.633  10.007   5.293 -0.2389 -0.8348  0.2137
26390SOL    HW182701   5.707  10.023   5.352  1.5322 -1.8862 -1.5878
26390SOL    HW282702   5.633  10.082   5.233 -0.6009 -0.8585  0.1842
26391SOL     OW82703  10.549   6.451   9.355  0.4411 -0.3204  0.2718
26391SOL    HW182704  10.511   6.409   9.432  0.8911 -0.2313  0.5485
26391SOL    HW282705  10.540   6.387   9.285 -0.5289 -0.1652  0.2452
26392SOL     OW82706   3.360   3.352   1.608 -0.2036 -0.2270 -0.0119
26392SOL    HW182707   3.412   3.420   1.564 -3.2200  1.0270 -2.0033
26392SOL    HW282708   3.343   3.389   1.695 -0.9199  1.1811 -0.7024
26393SOL     OW82709   1.142   6.333  10.237 -0.4465  0.3128  0.1220
26393SOL    HW182710   1.215   6.375  10.190  0.0532 -0.4150  0.2218
26393SOL    HW282711   1.101   6.403  10.286  1.5154  0.4071  1.7709
26394SOL     OW82712   5.247   0.589   6.558 -0.4923 -0.3132  0.3177
26394SOL    HW182713   5.270   0.548   6.641 -1.2163 -3.1287 -0.7741
26394SOL    HW282714   5.327   0.586   6.506  0.6858  3.5789  1.5107
26395SOL     OW82715   8.544   7.811   0.810  0.1717 -0.1306  0.2507
26395SOL    HW182716   8.469   7.815   0.751  1.3970  1.9148 -1.3572
26395SOL    HW282717   8.557   7.902   0.838  0.9398 -0.7343  1.9979
26396SOL     OW82718   1.786  10.531   0.557 -0.3387  0.4587 -0.1062
26396SOL    HW182719   1.792  10.502   0.466  1.2269 -0.5662  0.2895
26396SOL    HW282720   1.839  10.611   0.561  3.0354 -1.6376  0.6671
26397SOL     OW82721   6.512   3.794   6.745 -0.1029  0.0161  0.1431
26397SOL    HW182722   6.510   3.745   6.827  0.3458  0.7892  0.6263
26397SOL    HW282723   6.460   3.873   6.763 -1.3089 -0.5255 -0.7999
26398SOL     OW82724   1.578   1.677   0.513 -0.0643 -0.4730 -0.0668
26398SOL    HW182725   1.662   1.723   0.510 -0.0048 -0.6082 -0.6723
26398SOL    HW282726   1.568   1.640   0.425 -0.6772 -0.5998  0.0516
26399SOL     OW82727   5.380  11.044   4.008 -0.4175 -0.0369 -0.1588
26399SOL    HW182728   5.301  10.999   4.038 -0.3206 -0.7194 -0.8839
26399SOL    HW282729   5.379  11.032   3.913  1.0979 -0.9497 -0.0856
26400SOL     OW82730   9.596   1.242   3.974  0.0386 -0.2090 -0.3911
26400SOL    HW182731   9.557   1.284   4.051  0.8811 -1.0504  0.5156
26400SOL    HW282732   9.521   1.208   3.925 -0.4522 -0.6467  0.6401
26401SOL     OW82733   7.566   4.433   7.028  0.8524  0.4524  0.3233
26401SOL    HW182734   7.518   4.512   7.003 -0.1062 -0.5258 -1.0970
26401SOL    HW282735   7.508   4.386   7.087 -0.0251 -0.7260 -1.3853
26402SOL     OW82736   7.495  10.880   1.637 -0.0870 -0.7968  0.3960
26402SOL    HW182737   7.577  10.877   1.589 -1.0866  1.4556 -1.7130
26402SOL    HW282738   7.427  10.882   1.569 -1.5806  3.0987  1.6836
26403SOL     OW82739   0.397   1.340   1.157  0.0257 -0.6964  0.0538
26403SOL    HW182740   0.479   1.331   1.205 -0.3092  0.3574  0.8674
26403SOL    HW282741   0.422   1.333   1.065  0.8313 -1.6803  0.3303
26404SOL     OW82742   5.993   0.558   2.658 -0.1586  0.1270  0.3666
26404SOL    HW182743   5.967   0.500   2.586 -0.7766 -0.8871  1.3628
26404SOL    HW282744   6.014   0.641   2.616 -0.0603 -0.5678 -1.0297
26405SOL     OW82745   1.546   0.836   2.929  0.1739 -0.4396 -0.2377
26405SOL    HW182746   1.456   0.868   2.924  0.1803 -0.3759  0.0222
26405SOL    HW282747   1.598   0.915   2.945  0.2035 -0.5621  0.2894
26406SOL     OW82748   6.510   2.383   0.525 -0.2091 -0.1865 -0.3710
26406SOL    HW182749   6.495   2.387   0.620  1.2959 -0.0938 -0.1270
26406SOL    HW282750   6.421   2.377   0.488 -1.2093  4.1058  0.7857
26407SOL     OW82751   0.661   6.047   6.062  0.6734 -0.5898 -0.1139
26407SOL    HW182752   0.755   6.063   6.062  0.4681  0.8400 -0.7530
26407SOL    HW282753   0.627   6.109   5.997 -0.6860 -1.1856  0.0061
26408SOL     OW82754   4.420   1.351   4.203 -0.6718  0.0589 -0.6698
26408SOL    HW182755   4.514   1.359   4.221 -0.7554 -2.0680  1.1447
26408SOL    HW282756   4.387   1.441   4.213  0.7769  0.4546  1.3642
26409SOL     OW82757   1.098  10.681   3.871 -0.2622  0.0534 -0.2658
26409SOL    HW182758   1.192  10.686   3.890 -0.2201  0.3221 -0.5309
26409SOL    HW282759   1.091  10.614   3.802 -0.1190  0.8979 -1.1234
26410SOL     OW82760  10.635   3.111   9.215 -0.4665  0.4868 -0.5313
26410SOL    HW182761  10.592   3.061   9.146  0.2634  0.2133 -0.8014
26410SOL    HW282762  10.648   3.198   9.177 -1.6294  0.8618 -0.1043
26411SOL     OW82763   0.488   9.597   3.740 -0.4207  0.1757  0.4760
26411SOL    HW182764   0.487   9.562   3.651 -1.4192  1.1854  0.0582
26411SOL    HW282765   0.409   9.562   3.781 -1.6150  2.0579 -0.0513
26412SOL     OW82766   7.609   9.436   5.263  0.6242  0.0593 -0.2297
26412SOL    HW182767   7.688   9.490   5.253  0.8127 -0.0195  0.7827
26412SOL    HW282768   7.549   9.490   5.314 -0.0844  0.2096 -1.1934
26413SOL     OW82769   7.635   4.268   5.574  0.3185  0.0951 -0.1888
26413SOL    HW182770   7.583   4.205   5.524  0.6589  0.7261 -1.3855
26413SOL    HW282771   7.612   4.353   5.537  0.6581  0.5833  0.6785
26414SOL     OW82772   1.094   4.656   2.010  0.0106  0.2026  0.0644
26414SOL    HW182773   1.020   4.598   1.991  0.5988  0.1858 -2.6049
26414SOL    HW282774   1.062   4.743   1.987  0.3275  0.4073  0.4006
26415SOL     OW82775   5.178  10.019   6.294 -0.3391  0.3863  0.3914
26415SOL    HW182776   5.218   9.938   6.325  0.1134  0.4368 -0.0510
26415SOL    HW282777   5.249  10.084   6.299 -0.0679  0.2756 -1.2588
26416SOL     OW82778   7.684   5.308  10.484  0.4392  0.1354  0.3048
26416SOL    HW182779   7.624   5.247  10.442  0.1699 -0.1920  1.1443
26416SOL    HW282780   7.767   5.261  10.490  0.4762  0.1797  0.1627
26417SOL     OW82781   2.299   4.233   0.270 -0.0664  0.4606  0.3077
26417SOL    HW182782   2.261   4.149   0.294  0.6297  0.5672  1.9648
26417SOL    HW282783   2.227   4.282   0.231 -1.0293 -0.1599  1.2572
26418SOL     OW82784   0.785   2.276   7.096 -0.1001  0.6565 -0.1878
26418SOL    HW182785   0.838   2.286   7.017 -0.0926  1.1845 -0.1212
26418SOL    HW282786   0.702   2.319   7.075 -1.0140 -1.2666 -0.7487
26419SOL     OW82787   0.162   6.157   0.032 -0.1924  0.7920 -0.2877
26419SOL    HW182788   0.188   6.173  -0.059 -0.9649  0.2508 -0.6124
26419SOL    HW282789   0.075   6.117   0.025  0.2815 -0.4537  0.6296
26420SOL     OW82790   8.522   2.312   0.758 -0.0923 -0.2647  0.0002
26420SOL    HW182791   8.437   2.319   0.714 -1.1442 -0.5080  1.8927
26420SOL    HW282792   8.554   2.224   0.736 -0.4581 -0.2721 -0.5036
26421SOL     OW82793   6.242   0.513   5.915 -0.2428  0.1079 -0.7331
26421SOL    HW182794   6.186   0.510   5.837 -1.1440  2.1715 -0.2496
26421SOL    HW282795   6.181   0.506   5.989  0.3845  0.1503 -0.1962
26422SOL     OW82796   3.485  10.556   8.519  0.0561 -0.8722 -0.1354
26422SOL    HW182797   3.469  10.537   8.427 -0.1486 -1.1476 -0.0438
26422SOL    HW282798   3.448  10.481   8.566 -1.1094 -0.0762  0.2455
26423SOL     OW82799   5.779   5.596   2.883 -0.4376  0.1427  0.3344
26423SOL    HW182800   5.752   5.608   2.974 -0.3590 -2.0472  0.6796
26423SOL    HW282801   5.861   5.546   2.889  0.2634  1.0777 -0.9179
26424SOL     OW82802   4.091   4.401   5.703 -0.1109 -0.0126  0.3035
26424SOL    HW182803   4.150   4.461   5.748 -1.1651  0.4070  1.1714
26424SOL    HW282804   4.050   4.454   5.635 -0.1035 -0.0896  0.2378
26425SOL     OW82805   8.591   8.639  11.091 -0.0105 -0.0755  0.5492
26425SOL    HW182806   8.547   8.708  11.140 -0.7848 -0.6071  0.6135
26425SOL    HW282807   8.667   8.616  11.145  1.6027  2.2812 -0.5353
26426SOL     OW82808   4.438   5.098   7.656  0.1791  0.1976  0.3627
26426SOL    HW182809   4.421   5.192   7.655  0.2103  0.2359 -1.7413
26426SOL    HW282810   4.531   5.090   7.633  0.5197 -0.3318  1.8124
26427SOL     OW82811  10.758   9.059   7.276 -0.3092  0.2066  0.0391
26427SOL    HW182812  10.825   9.033   7.339 -1.0261  2.1708  1.7328
26427SOL    HW282813  10.798   9.044   7.191  1.8724  0.2659  0.9926
26428SOL     OW82814   8.248   1.636   7.347 -0.2269  0.7160 -0.2460
26428SOL    HW182815   8.193   1.674   7.415  0.1905  1.6688 -0.4267
26428SOL    HW282816   8.232   1.690   7.270 -0.3338 -0.0583 -0.7767
26429SOL     OW82817   2.014   4.657  10.721  0.0273  0.1113  0.0332
26429SOL    HW182818   2.063   4.638  10.641  0.3818 -0.1133  0.2980
26429SOL    HW282819   2.081   4.676  10.786 -0.2076 -0.6992  0.5328
26430SOL     OW82820   5.632   5.156   9.552  0.0613 -0.2760 -0.0930
26430SOL    HW182821   5.605   5.144   9.643 -0.2128  0.1467 -0.1171
26430SOL    HW282822   5.727   5.149   9.555  0.0827  0.1564  0.2897
26431SOL     OW82823   4.104   4.721   5.318 -0.4323 -0.1692  0.1365
26431SOL    HW182824   4.034   4.739   5.381  1.0204  0.7836  1.5876
26431SOL    HW282825   4.160   4.657   5.362 -0.2828 -0.7870 -0.9220
26432SOL     OW82826   9.669   4.702   0.534  0.8155 -0.7179  0.2687
26432SOL    HW182827   9.628   4.626   0.493  2.1358 -1.7259  0.7272
26432SOL    HW282828   9.736   4.730   0.471  0.9892 -0.5531  0.5243
26433SOL     OW82829   2.197   2.907   5.352 -0.0749 -0.1174 -0.0451
26433SOL    HW182830   2.161   2.945   5.272  0.2768  0.2601 -0.0248
26433SOL    HW282831   2.121   2.884   5.404 -0.2970  1.8209  0.5512
26434SOL     OW82832   2.852   8.140   0.425  0.2223  0.4737  0.5024
26434SOL    HW182833   2.760   8.127   0.402  0.8791  0.1232 -2.2102
26434SOL    HW282834   2.875   8.225   0.389  1.1386  0.2427  0.5033
26435SOL     OW82835   7.058  11.076   0.139 -0.3432 -0.0671  0.1560
26435SOL    HW182836   7.042  11.141   0.207 -0.8420 -1.1511  1.1307
26435SOL    HW282837   7.005  11.000   0.166  0.3386 -0.9338 -0.8431
26436SOL     OW82838   0.902   0.759   9.354  0.1561  0.5776 -0.2371
26436SOL    HW182839   0.933   0.677   9.313  0.7278 -0.3067  1.8343
26436SOL    HW282840   0.813   0.769   9.322 -0.4896 -1.7346  0.6066
26437SOL     OW82841   9.900   8.717   9.668 -0.4451  0.6522 -0.1340
26437SOL    HW182842   9.891   8.731   9.574 -0.4272  0.3210 -0.1875
26437SOL    HW282843   9.980   8.765   9.691  0.9302 -1.2089 -0.7422
26438SOL     OW82844   7.278   3.384  10.909  0.1428 -0.4010  0.1783
26438SOL    HW182845   7.330   3.402  10.830 -0.0384 -1.7108 -0.2503
26438SOL    HW282846   7.220   3.312  10.884  0.7606 -1.4985  1.7768
26439SOL     OW82847   1.135   4.280   8.076  0.2221  0.2250  0.3207
26439SOL    HW182848   1.092   4.210   8.026 -0.8692  1.2016 -0.1596
26439SOL    HW282849   1.121   4.256   8.167 -1.0996  0.3345  0.1747
26440SOL     OW82850   5.812   6.568   5.062 -0.2787 -0.6325  0.0801
26440SOL    HW182851   5.718   6.553   5.074 -0.1413 -1.0156  0.7607
26440SOL    HW282852   5.827   6.556   4.968 -0.8798 -0.7237 -0.0086
26441SOL     OW82853   3.691   9.691   6.924 -0.0045  0.5452  0.3083
26441SOL    HW182854   3.718   9.756   6.860  0.3272  1.6574  1.5296
26441SOL    HW282855   3.765   9.631   6.930  0.3005  0.9122  0.2508
26442SOL     OW82856   1.835   3.147   0.694 -0.1643  0.1686  0.3040
26442SOL    HW182857   1.768   3.118   0.632  1.1349 -0.2587 -0.9591
26442SOL    HW282858   1.819   3.095   0.773 -0.9242 -0.3944 -0.2063
26443SOL     OW82859   9.109   7.422   2.811 -0.0085  0.2586 -0.4656
26443SOL    HW182860   9.050   7.437   2.885  0.4405 -0.6002  0.0771
26443SOL    HW282861   9.106   7.328   2.796  1.6392  0.1125 -0.0687
26444SOL     OW82862   1.401   9.731   2.630  0.4955  0.0737  0.3400
26444SOL    HW182863   1.454   9.652   2.620 -1.5068 -1.3262  0.3760
26444SOL    HW282864   1.352   9.738   2.549 -0.4942  0.3939  0.9520
26445SOL     OW82865   7.151   1.250   4.102 -0.2431  0.0195  0.4687
26445SOL    HW182866   7.224   1.203   4.144  0.2455  0.6943  0.3823
26445SOL    HW282867   7.073   1.208   4.138  0.1561  0.5558  2.0633
26446SOL     OW82868   6.183   8.943   5.312 -0.3551  0.0635  0.2481
26446SOL    HW182869   6.091   8.966   5.325 -0.3218  0.6686 -0.5137
26446SOL    HW282870   6.187   8.849   5.330 -1.0130  0.1359  0.8151
26447SOL     OW82871   8.630   5.818   2.440  0.4823  0.8749  0.1813
26447SOL    HW182872   8.714   5.771   2.446  0.1845 -0.0311 -1.7895
26447SOL    HW282873   8.579   5.786   2.515  1.1845 -0.1030  0.2667
26448SOL     OW82874   0.913   4.739   5.176  0.2381  0.2650  0.3630
26448SOL    HW182875   0.975   4.775   5.239  1.8702 -0.9610 -0.4613
26448SOL    HW282876   0.829   4.778   5.200  1.1840  1.4515  1.9540
26449SOL     OW82877   1.629   3.392   0.233  0.0551  0.0092  0.0210
26449SOL    HW182878   1.561   3.393   0.300 -0.5364  1.1828 -0.5683
26449SOL    HW282879   1.595   3.334   0.165  1.8084 -3.4194  1.7884
26450SOL     OW82880   8.268   5.609   8.328  0.1876  0.0160 -0.3232
26450SOL    HW182881   8.197   5.657   8.284  0.5123 -1.0147 -2.0942
26450SOL    HW282882   8.333   5.596   8.259  0.9179 -1.3157  0.5939
26451SOL     OW82883   3.231   3.277   6.715  0.0454 -0.1203  0.7308
26451SOL    HW182884   3.180   3.295   6.794  0.4767 -1.5129  1.3493
26451SOL    HW282885   3.319   3.308   6.736  0.6017 -2.0887  1.5119
26452SOL     OW82886   3.482   3.871   9.983 -0.5126  0.2926  0.5724
26452SOL    HW182887   3.402   3.899  10.026  0.1356 -1.4067  3.1586
26452SOL    HW282888   3.549   3.876  10.051  0.9472 -1.1316 -0.6571
26453SOL     OW82889   0.735   3.778  10.187  0.0711  0.3466  0.3980
26453SOL    HW182890   0.681   3.707  10.222  1.9101 -0.7663  1.1327
26453SOL    HW282891   0.688   3.807  10.108 -0.8903 -1.4781  0.2312
26454SOL     OW82892   0.309   8.463   4.235 -0.0016  0.1024 -0.1212
26454SOL    HW182893   0.316   8.468   4.139 -1.5203  3.1704 -0.2232
26454SOL    HW282894   0.369   8.531   4.267 -0.6222  0.1512  0.9877
26455SOL     OW82895   5.958   7.743   8.336 -0.3275  0.2669 -0.4389
26455SOL    HW182896   5.884   7.682   8.340 -0.0591 -0.0328  0.2096
26455SOL    HW282897   5.927   7.820   8.385  0.0170 -0.1259  0.4215
26456SOL     OW82898   6.046   4.511   7.425 -0.3942  0.5268  0.1260
26456SOL    HW182899   6.089   4.558   7.353 -0.7319  1.3194  0.4318
26456SOL    HW282900   5.954   4.508   7.400 -0.3287 -0.3051 -0.0574
26457SOL     OW82901   6.969   0.597   1.994  0.5575  0.1594  0.0993
26457SOL    HW182902   6.929   0.516   1.961 -0.1853  1.0820 -1.3644
26457SOL    HW282903   6.898   0.661   1.993  1.3753  1.0911  0.2763
26458SOL     OW82904   2.694   4.465   2.345 -0.1418  0.0321 -1.0249
26458SOL    HW182905   2.676   4.438   2.435  0.4656  1.5926 -0.4009
26458SOL    HW282906   2.766   4.408   2.317 -0.3571 -0.4869 -0.5360
26459SOL     OW82907   5.852   9.754  10.168 -0.1728  0.6688  1.0899
26459SOL    HW182908   5.925   9.709  10.211  2.2210  1.2064 -2.0298
26459SOL    HW282909   5.814   9.688  10.109 -0.6333  1.0665  0.9293
26460SOL     OW82910   5.813   2.335   6.937 -0.4291 -0.2276 -0.3771
26460SOL    HW182911   5.832   2.409   6.995 -0.2222  0.6688 -1.5544
26460SOL    HW282912   5.866   2.263   6.971  0.6847  0.6436 -0.2038
26461SOL     OW82913   8.624   4.942   8.804 -0.0021 -0.5503  0.1392
26461SOL    HW182914   8.583   4.855   8.796  1.3924 -1.1425 -1.2352
26461SOL    HW282915   8.624   4.960   8.898  1.5196 -3.0124  0.7006
26462SOL     OW82916   0.976   6.561   6.195 -0.7856 -0.0837  0.0305
26462SOL    HW182917   0.973   6.472   6.229 -1.2457  0.6138  1.9143
26462SOL    HW282918   1.019   6.552   6.110 -0.8157 -2.0886  0.1718
26463SOL     OW82919   7.184  10.097   5.154  0.2036  0.1769 -0.4719
26463SOL    HW182920   7.121  10.111   5.225  0.5081 -0.2234 -0.1233
26463SOL    HW282921   7.134  10.053   5.086 -0.0075  0.2670 -0.3769
26464SOL     OW82922   4.800   6.035   9.657  0.7868 -0.2879  0.1355
26464SOL    HW182923   4.877   6.034   9.714  1.5358 -2.1329 -0.8241
26464SOL    HW282924   4.768   5.945   9.658 -0.7348  0.2151 -0.3499
26465SOL     OW82925   7.067   2.238   9.923 -0.5179 -0.3139  0.1203
26465SOL    HW182926   7.098   2.307   9.865  0.6067 -1.0258 -0.1715
26465SOL    HW282927   6.988   2.204   9.881 -1.3055  1.0404  0.4749
26466SOL     OW82928  10.710   8.985   9.964  0.2162  0.1991 -0.4237
26466SOL    HW182929  10.738   9.070   9.999 -0.2559  0.4161 -0.5724
26466SOL    HW282930  10.678   8.937  10.041 -1.1341  0.7976 -0.5829
26467SOL     OW82931   0.229   3.971   6.369  0.2422 -0.2070  0.0664
26467SOL    HW182932   0.150   4.025   6.368  0.3905  0.0071 -0.3929
26467SOL    HW282933   0.202   3.889   6.411  0.2682  0.6029  1.7718
26468SOL     OW82934   6.699   4.223   6.844 -0.5193 -0.1503  0.2046
26468SOL    HW182935   6.668   4.207   6.754  0.5431  0.1349 -0.2277
26468SOL    HW282936   6.681   4.141   6.890  1.8787 -1.5430 -1.1255
26469SOL     OW82937   2.982   9.556   6.462  0.5646  0.4537  0.3977
26469SOL    HW182938   3.001   9.562   6.368  0.3599 -0.5196  0.2783
26469SOL    HW282939   3.068   9.546   6.503  0.7277  1.7581  0.4109
26470SOL     OW82940   6.708   1.106   6.940  0.6665  0.4452  0.4953
26470SOL    HW182941   6.658   1.140   6.866  1.2026 -2.2755 -1.2667
26470SOL    HW282942   6.793   1.149   6.933  0.1429  1.5247  0.6240
26471SOL     OW82943   1.981   8.438   9.036 -0.8120 -0.1449 -0.5066
26471SOL    HW182944   2.061   8.389   9.053 -0.6596  0.8848  2.2561
26471SOL    HW282945   1.911   8.373   9.040 -0.1824 -1.2154 -3.8111
26472SOL     OW82946  10.398   0.628   1.650  0.3762  0.3729  0.9017
26472SOL    HW182947  10.333   0.680   1.602 -0.5103 -1.2339  0.2656
26472SOL    HW282948  10.463   0.604   1.584 -0.4003 -1.1407  0.6442
26473SOL     OW82949   4.532   8.918   6.739 -0.0634  0.0989  0.2557
26473SOL    HW182950   4.568   8.853   6.679 -0.3653  0.2067 -0.0471
26473SOL    HW282951   4.608   8.968   6.769 -0.0704  1.1826 -1.3914
26474SOL     OW82952  10.304   7.135   5.720 -0.0769 -0.2149  0.4924
26474SOL    HW182953  10.269   7.184   5.795 -0.6315 -0.5262  0.4406
26474SOL    HW282954  10.235   7.140   5.654  0.3076 -0.1569  0.0888
26475SOL     OW82955   5.724   3.185   3.139  0.6228  0.1180  0.2524
26475SOL    HW182956   5.726   3.170   3.234  3.0468 -2.0949 -0.0236
26475SOL    HW282957   5.695   3.101   3.103  0.1370  0.8022 -0.9998
26476SOL     OW82958   0.378   7.467   5.360  0.1112 -0.5495 -0.1374
26476SOL    HW182959   0.309   7.406   5.333  0.5160 -0.5402 -1.2085
26476SOL    HW282960   0.433   7.416   5.419 -1.6014 -0.1504  1.9619
26477SOL     OW82961   9.549   5.101   0.486 -0.1276 -0.3869  0.2085
26477SOL    HW182962   9.547   5.026   0.546  0.8113  0.0214  0.7719
26477SOL    HW282963   9.623   5.153   0.515 -1.7744  1.7035  0.9426
26478SOL     OW82964   2.428   1.735   0.147 -0.0610  0.1914 -0.2343
26478SOL    HW182965   2.364   1.709   0.081 -0.3223  1.0457 -0.3283
26478SOL    HW282966   2.494   1.785   0.098 -0.3731  1.0200  0.1817
26479SOL     OW82967   2.164   2.332   5.314  0.0483  0.0933  0.0197
26479SOL    HW182968   2.253   2.358   5.337  0.4659 -2.0410  1.0800
26479SOL    HW282969   2.175   2.268   5.244 -0.6959  0.1122 -0.1269
26480SOL     OW82970   3.871   2.744   4.436 -0.1196 -0.1989  0.3826
26480SOL    HW182971   3.888   2.814   4.499  0.8309  0.4826 -0.6071
26480SOL    HW282972   3.957   2.708   4.416 -0.5416 -1.2725  0.4327
26481SOL     OW82973   4.007   8.778   1.113  0.9103  0.8780 -0.0454
26481SOL    HW182974   4.043   8.833   1.043 -0.6403  1.3703 -0.5151
26481SOL    HW282975   4.022   8.829   1.193  2.7470  0.2838  0.0363
26482SOL     OW82976   6.542   1.512   2.477 -0.5887 -0.3898 -0.0950
26482SOL    HW182977   6.553   1.532   2.384 -0.3825  0.0233  0.0146
26482SOL    HW282978   6.458   1.466   2.482 -2.0210  2.0740 -0.1265
26483SOL     OW82979   2.336   1.200   2.717 -0.0745 -0.3298 -0.1388
26483SOL    HW182980   2.323   1.105   2.728 -1.6811  0.0611  1.9711
26483SOL    HW282981   2.251   1.232   2.686  0.4923  0.4298 -0.9415
26484SOL     OW82982  10.098  10.923   3.556  0.0221 -0.1615 -0.2994
26484SOL    HW182983  10.128  11.013   3.569 -1.6264  0.3600  0.1250
26484SOL    HW282984  10.052  10.901   3.637  0.2801 -1.3567 -0.4548
26485SOL     OW82985   0.599   0.217   7.087 -0.0181  0.2651  0.3639
26485SOL    HW182986   0.519   0.205   7.138 -0.1258 -0.2822  0.0734
26485SOL    HW282987   0.601   0.311   7.069 -0.0363  0.4534  1.2714
26486SOL     OW82988   4.025   0.188   3.837  0.1429  0.1665  0.3785
26486SOL    HW182989   4.062   0.193   3.926  0.2625 -0.5952  0.3838
26486SOL    HW282990   3.938   0.150   3.850  0.6506 -1.1760  0.0700
26487SOL     OW82991   6.458   9.657  10.414  0.1580  0.1206 -0.4115
26487SOL    HW182992   6.434   9.723  10.348 -1.6674 -0.5662 -0.4871
26487SOL    HW282993   6.455   9.574  10.366  0.1980 -0.2429  0.2150
26488SOL     OW82994   1.061   8.107   9.912  0.5547  0.3110  0.0287
26488SOL    HW182995   1.119   8.109   9.835  1.0838  1.0814  0.4264
26488SOL    HW282996   1.007   8.186   9.903 -0.1930 -0.2114 -0.1464
26489SOL     OW82997   4.824   1.686   3.597 -0.1306 -0.9246 -0.0152
26489SOL    HW182998   4.818   1.598   3.561 -1.5704 -0.7653 -0.2413
26489SOL    HW282999   4.752   1.734   3.554  1.0514  0.5545 -0.4354
26490SOL     OW83000   0.612   2.929   5.615  0.7389  0.7876  0.2875
26490SOL    HW183001   0.587   2.858   5.674 -0.2086  0.0127 -0.9826
26490SOL    HW283002   0.697   2.902   5.580  2.0596  1.9982  2.3981
26491SOL     OW83003   2.532   3.556   6.963 -0.9062 -0.3869  0.0344
26491SOL    HW183004   2.484   3.541   6.882 -0.1172  0.5183 -0.6383
26491SOL    HW283005   2.622   3.574   6.934 -0.0178 -2.4434  1.2618
26492SOL     OW83006  10.294   0.427   8.551 -0.1000  0.0254 -0.2699
26492SOL    HW183007  10.217   0.483   8.536 -0.3917 -0.4185 -0.4343
26492SOL    HW283008  10.276   0.383   8.634 -1.2827 -2.1221 -1.5869
26493SOL     OW83009   3.752  10.163   1.195 -0.3055 -0.2824 -0.5759
26493SOL    HW183010   3.708  10.171   1.280  1.0454  1.0052  0.0353
26493SOL    HW283011   3.759  10.068   1.181 -0.8945 -0.5130  0.5583
26494SOL     OW83012   3.695   9.857  10.761 -0.0123  0.2121 -0.2018
26494SOL    HW183013   3.743   9.776  10.780 -0.2955  0.1799  0.4103
26494SOL    HW283014   3.680   9.896  10.848  0.3634  1.0584 -0.5028
26495SOL     OW83015   0.573   5.027   7.380 -0.3193  0.2671  0.1201
26495SOL    HW183016   0.552   4.972   7.305 -0.2659  1.0333 -0.4707
26495SOL    HW283017   0.661   5.062   7.361  0.5147 -1.0077  1.4293
26496SOL     OW83018   1.504   9.813   9.132  0.2561 -0.6781  0.7247
26496SOL    HW183019   1.520   9.824   9.039  0.0001 -0.8606  0.6566
26496SOL    HW283020   1.505   9.718   9.146  0.0685 -0.6615  0.8643
26497SOL     OW83021   3.900   4.344   7.598  0.7173  0.1647 -0.0827
26497SOL    HW183022   3.972   4.346   7.660  0.2842  2.4663  0.4669
26497SOL    HW283023   3.906   4.429   7.553 -1.5725  0.3940 -0.0664
26498SOL     OW83024   3.415   6.671   9.834 -0.2637  0.1513  0.5526
26498SOL    HW183025   3.357   6.660   9.909 -1.2408  0.7352 -0.0821
26498SOL    HW283026   3.395   6.759   9.802 -0.3337 -0.3246 -0.7626
26499SOL     OW83027   2.038   1.317   7.470  0.5009 -0.0784 -0.2359
26499SOL    HW183028   1.983   1.240   7.455  0.1222  0.5588 -2.5427
26499SOL    HW283029   2.051   1.320   7.565 -0.3072 -2.3848 -0.0005
26500SOL     OW83030   3.395   8.491   2.634 -0.5618 -0.0385 -0.3464
26500SOL    HW183031   3.432   8.526   2.552 -0.2065  1.2573  0.3359
26500SOL    HW283032   3.301   8.487   2.618 -0.4726 -0.0217 -0.9004
26501SOL     OW83033   8.629   4.313   5.022 -0.4203 -0.0829 -0.4405
26501SOL    HW183034   8.584   4.390   4.985 -1.1994 -1.0553 -1.6134
26501SOL    HW283035   8.689   4.285   4.953 -0.1429 -0.5285 -0.0265
26502SOL     OW83036   8.568   1.509   3.872 -0.1078 -0.1408 -0.2986
26502SOL    HW183037   8.572   1.566   3.950 -0.0802 -1.2884  0.5632
26502SOL    HW283038   8.650   1.459   3.875  0.5485  0.7887 -1.8662
26503SOL     OW83039   0.552   7.933  11.050 -0.3943  0.2473 -0.0181
26503SOL    HW183040   0.478   7.993  11.043  0.1293  0.9586  0.4208
26503SOL    HW283041   0.525   7.855  11.000 -0.9629  0.9544 -0.8337
26504SOL     OW83042   3.300   6.012   1.786 -0.0787 -0.4008  0.2491
26504SOL    HW183043   3.322   6.103   1.805  0.3671 -0.1826 -1.2287
26504SOL    HW283044   3.380   5.963   1.805  0.0021 -0.3447  0.0520
26505SOL     OW83045  10.239   8.651   0.970  0.2392 -0.7085  0.2982
26505SOL    HW183046  10.310   8.590   0.951 -0.2803 -2.2211  2.6599
26505SOL    HW283047  10.225   8.699   0.889  2.6064 -1.7435 -0.8119
26506SOL     OW83048   2.424   3.203  10.625  0.6312  0.2195  0.3804
26506SOL    HW183049   2.348   3.260  10.620 -0.5869 -1.1279  2.0572
26506SOL    HW283050   2.387   3.114  10.627  2.0607 -0.4200  3.1151
26507SOL     OW83051  10.734  11.110   3.826  0.1210  0.5790 -0.7556
26507SOL    HW183052  10.660  11.150   3.872 -0.4731  0.6235 -1.7202
26507SOL    HW283053  10.783  11.064   3.894 -1.2439 -0.1317 -0.2267
26508SOL     OW83054   1.461   5.685  11.111 -0.1829 -0.4539  0.3398
26508SOL    HW183055   1.412   5.678  11.029  0.6309 -1.1432 -0.1064
26508SOL    HW283056   1.428   5.614  11.166  0.0457 -0.6884  0.1783
26509SOL     OW83057   0.828   9.529  10.617  0.0438 -0.1215  0.4956
26509SOL    HW183058   0.862   9.467  10.553 -0.3310 -0.5619  0.7128
26509SOL    HW283059   0.878   9.609  10.602  1.2320 -0.7709  0.8667
26510SOL     OW83060   9.003   9.293   1.839  0.1354  0.1469  0.1130
26510SOL    HW183061   9.054   9.369   1.812  0.0622  0.3794  0.6083
26510SOL    HW283062   8.912   9.316   1.820  0.2638 -0.6550 -1.6870
26511SOL     OW83063   2.820   5.896   9.437 -0.0828 -0.3744 -0.7464
26511SOL    HW183064   2.890   5.930   9.493 -0.6132 -1.8709  0.8912
26511SOL    HW283065   2.859   5.895   9.349  1.1098  1.0971 -0.2799
26512SOL     OW83066   9.653   6.832   1.585  0.3252 -0.6301  0.3747
26512SOL    HW183067   9.665   6.743   1.552  1.8430  0.1444 -1.3307
26512SOL    HW283068   9.730   6.879   1.554 -1.3404  1.7554 -0.4117
26513SOL     OW83069   6.393   6.782   3.613 -0.4215 -0.0646  0.4085
26513SOL    HW183070   6.464   6.838   3.581 -0.4158 -0.1884  0.2020
26513SOL    HW283071   6.411   6.696   3.576 -1.0694  0.0651 -0.2292
26514SOL     OW83072   4.855   0.314   0.276 -0.3509  0.6153  0.0249
26514SOL    HW183073   4.882   0.223   0.292  0.1993  0.4631 -1.5548
26514SOL    HW283074   4.826   0.314   0.185  0.5860  2.2244 -0.3085
26515SOL     OW83075   6.120   2.463   7.668 -0.5734 -0.4931  0.1471
26515SOL    HW183076   6.158   2.518   7.737 -1.8371 -2.3128  2.4488
26515SOL    HW283077   6.191   2.404   7.643 -0.2708 -0.2270  0.3686
26516SOL     OW83078   9.547   5.037   9.769 -0.6445 -0.0221  0.2791
26516SOL    HW183079   9.465   5.083   9.783 -0.9161 -0.5883  0.6211
26516SOL    HW283080   9.605   5.101   9.729 -1.0742  0.5504  0.5624
26517SOL     OW83081   2.777   3.980   5.342 -0.1949  0.2737  0.4493
26517SOL    HW183082   2.856   4.032   5.327 -0.1817 -0.1502 -1.1398
26517SOL    HW283083   2.730   4.026   5.412 -0.3279  2.5859 -1.0597
26518SOL     OW83084   2.305   8.147   2.481  0.5021 -0.0230 -0.3523
26518SOL    HW183085   2.364   8.080   2.446  0.0603 -0.1466 -0.8907
26518SOL    HW283086   2.363   8.212   2.520  0.8993 -1.4887  1.6726
26519SOL     OW83087   2.025   4.817  10.412  0.5011  0.6994  0.3023
26519SOL    HW183088   2.063   4.875  10.478  0.5699  1.0936 -0.0832
26519SOL    HW283089   2.058   4.730  10.436  0.9597  0.9141  0.4697
26520SOL     OW83090   8.065   4.901   6.774 -0.2842 -0.4591  0.1846
26520SOL    HW183091   8.137   4.840   6.754 -1.4564 -1.0785 -2.6582
26520SOL    HW283092   8.009   4.852   6.834 -1.2094 -2.3232 -2.0532
26521SOL     OW83093   4.280   2.732   6.511  0.6837 -0.2645 -0.5854
26521SOL    HW183094   4.236   2.652   6.539  0.6815  0.4296  1.6149
26521SOL    HW283095   4.374   2.712   6.519  0.7136  0.4242  1.8122
26522SOL     OW83096   4.452   8.071   3.054 -0.1020  0.0122  0.6974
26522SOL    HW183097   4.537   8.114   3.054 -0.0168  0.0640  3.4234
26522SOL    HW283098   4.389   8.143   3.051 -0.1054 -0.0312 -1.4520
26523SOL     OW83099   2.734   9.105   2.832 -0.1878  0.6442  0.1522
26523SOL    HW183100   2.662   9.050   2.801  1.1928 -1.0933 -0.1244
26523SOL    HW283101   2.763   9.153   2.755  0.6447 -0.6690 -0.3834
26524SOL     OW83102   4.010   7.204   0.227 -0.9168  0.3697  0.0636
26524SOL    HW183103   3.956   7.231   0.153 -1.2777  0.6485  0.4248
26524SOL    HW283104   4.010   7.280   0.285 -0.6791  0.1344  0.3730
26525SOL     OW83105   0.385  10.560  10.384 -0.0942 -0.0591 -0.1713
26525SOL    HW183106   0.358  10.586  10.472 -0.0917 -0.0306 -0.1798
26525SOL    HW283107   0.344  10.624  10.326 -2.5732 -1.7556 -0.4653
26526SOL     OW83108  10.871   4.840   9.478  0.3471 -0.2867 -0.1076
26526SOL    HW183109  10.952   4.789   9.471 -0.5980 -1.8889 -0.0433
26526SOL    HW283110  10.900   4.930   9.493  2.1289 -0.5258 -1.7336
26527SOL     OW83111   1.117   0.420   5.038  0.3912  0.3680 -0.1671
26527SOL    HW183112   1.136   0.343   5.092  0.4882  0.4577 -0.0715
26527SOL    HW283113   1.152   0.493   5.089  0.8531  0.4103 -0.5369
26528SOL     OW83114   6.782   2.530   9.544  0.2529  0.5269  0.0273
26528SOL    HW183115   6.862   2.491   9.508  0.2995 -0.8682  1.5569
26528SOL    HW283116   6.794   2.624   9.530  1.3709  0.2347 -1.2942
26529SOL     OW83117   0.412   8.749   7.917 -0.2567  0.3152 -0.2160
26529SOL    HW183118   0.395   8.662   7.953 -0.4228  0.3946 -0.1014
26529SOL    HW283119   0.325   8.782   7.893 -0.2014  0.4792 -0.1912
26530SOL     OW83120   8.152   5.189   6.730 -0.7910  0.0314 -0.2969
26530SOL    HW183121   8.099   5.110   6.744 -1.8235  0.2830 -2.3055
26530SOL    HW283122   8.128   5.247   6.802  0.2433 -1.5684  1.4087
26531SOL     OW83123   8.780   7.969   6.200  0.1912  0.1855 -0.1022
26531SOL    HW183124   8.756   8.009   6.117  0.8215 -0.9680 -0.8536
26531SOL    HW283125   8.701   7.923   6.229  0.1541  0.0835 -0.3670
26532SOL     OW83126  11.091   0.937   7.269  0.2688 -0.3932  0.4114
26532SOL    HW183127  11.065   0.845   7.265 -1.4173  0.0599 -0.0742
26532SOL    HW283128  11.126   0.948   7.357 -2.9994 -0.7137  1.9182
26533SOL     OW83129   0.099   6.829  10.755 -0.3033  0.4599  0.3810
26533SOL    HW183130   0.184   6.871  10.741  1.0235 -1.5163  1.9072
26533SOL    HW283131   0.063   6.873  10.832  0.6622 -0.4963  1.4216
26534SOL     OW83132   6.058  10.858   4.494 -0.2711 -0.1603  0.0014
26534SOL    HW183133   5.965  10.850   4.473 -0.5328 -1.1530  1.3841
26534SOL    HW283134   6.064  10.934   4.551 -0.1802  0.0825 -0.3277
26535SOL     OW83135   7.315   9.054   1.711  0.5822  0.3189 -0.3271
26535SOL    HW183136   7.361   9.129   1.674  0.0590  1.6806  1.5966
26535SOL    HW283137   7.384   8.999   1.748  0.8460  1.1631  0.4762
26536SOL     OW83138   8.969   2.168   7.307  0.6370 -0.4661 -0.1288
26536SOL    HW183139   9.030   2.207   7.245  0.1178  0.3295 -0.1499
26536SOL    HW283140   9.022   2.109   7.359  1.3642 -0.0089 -0.3439
26537SOL     OW83141   2.257   0.868   7.047 -0.4177 -0.0959 -0.2758
26537SOL    HW183142   2.224   0.957   7.059 -0.9172 -0.1410 -1.1570
26537SOL    HW283143   2.331   0.878   6.987  1.8621  0.1091  2.3806
26538SOL     OW83144   9.716   4.085   8.016  0.2484 -0.0249 -0.0627
26538SOL    HW183145   9.736   4.080   8.110  0.7215  2.0180 -0.0019
26538SOL    HW283146   9.798   4.113   7.975 -0.3644  0.6768 -0.8570
26539SOL     OW83147   7.341   9.156   8.242  0.3244  0.2402  0.0986
26539SOL    HW183148   7.380   9.222   8.299 -1.2871  1.7352 -0.4209
26539SOL    HW283149   7.248   9.178   8.241  0.0021 -1.0225 -1.4580
26540SOL     OW83150   8.484   4.283  10.155  0.2111 -0.1752  0.9354
26540SOL    HW183151   8.544   4.245  10.090 -0.5381  3.2017 -2.1101
26540SOL    HW283152   8.409   4.224  10.155  1.1172 -1.3802  0.3501
26541SOL     OW83153   7.600   3.571   2.117  0.0256  0.0704 -0.1656
26541SOL    HW183154   7.591   3.666   2.106 -0.9636  0.0520  0.4152
26541SOL    HW283155   7.586   3.556   2.210  0.9810 -0.5739 -0.1077
26542SOL     OW83156   8.559  10.256   4.335  0.3439 -0.6307  0.1989
26542SOL    HW183157   8.583  10.281   4.424  0.5214 -1.3357  0.3563
26542SOL    HW283158   8.538  10.163   4.342 -2.1295 -0.1510  0.0227
26543SOL     OW83159   9.864  10.273   6.453 -0.2776 -0.3730 -0.4670
26543SOL    HW183160   9.864  10.315   6.367 -2.3593  1.5031  0.3510
26543SOL    HW283161   9.790  10.213   6.451  0.3638 -1.1912 -0.3226
26544SOL     OW83162   6.942   4.398   3.424 -0.2810 -0.5104 -0.1999
26544SOL    HW183163   6.987   4.313   3.429 -2.0091 -1.5027 -0.5142
26544SOL    HW283164   6.933   4.414   3.330  0.0979  0.0878 -0.1426
26545SOL     OW83165   7.794   8.750   0.687 -0.0701  0.3748 -0.6725
26545SOL    HW183166   7.748   8.775   0.606 -0.5350 -0.8244 -0.7930
26545SOL    HW283167   7.743   8.677   0.722  0.6080  0.3430  0.2747
26546SOL     OW83168   8.631   5.345  10.810 -0.1273 -0.3601  0.0429
26546SOL    HW183169   8.652   5.260  10.770  2.0720 -0.5343  1.3900
26546SOL    HW283170   8.630   5.327  10.904 -1.7445  0.7206  0.2697
26547SOL     OW83171   9.900   0.562   3.130  0.0492  0.0223 -0.0269
26547SOL    HW183172   9.805   0.574   3.137 -0.1247 -1.2816  0.1350
26547SOL    HW283173   9.927   0.626   3.063 -0.9576  0.3101 -0.1866
26548SOL     OW83174   3.820  10.159   5.508 -0.0430 -0.2584  0.1051
26548SOL    HW183175   3.826  10.251   5.533 -2.9180  0.4741 -1.4474
26548SOL    HW283176   3.895  10.144   5.450 -0.5802  1.7168 -1.1976
26549SOL     OW83177   6.318   1.121   3.927  0.0521  0.2452 -0.5295
26549SOL    HW183178   6.243   1.141   3.983 -0.3389 -1.7999 -0.2388
26549SOL    HW283179   6.279   1.080   3.849  0.7516  0.9520 -1.2740
26550SOL     OW83180   7.445  10.549   3.550  0.0714  0.1771  0.6504
26550SOL    HW183181   7.465  10.499   3.471  0.2297 -1.7197  1.8145
26550SOL    HW283182   7.526  10.594   3.572  0.2608  0.0730  0.1686
26551SOL     OW83183   7.707  10.668   7.568  0.4444 -0.3534 -0.5933
26551SOL    HW183184   7.714  10.601   7.501  0.9163  0.5582 -1.4925
26551SOL    HW283185   7.616  10.698   7.563  0.3733 -0.5686 -0.5565
26552SOL     OW83186   1.831   5.819   7.744  0.6903 -0.1850  0.2490
26552SOL    HW183187   1.925   5.812   7.728  0.5602 -2.0557  0.1780
26552SOL    HW283188   1.819   5.910   7.772  2.2621  0.5558 -1.3074
26553SOL     OW83189   3.339   1.867   6.534  0.3122 -0.3259 -0.4742
26553SOL    HW183190   3.430   1.886   6.559  0.6941 -0.2822 -1.8464
26553SOL    HW283191   3.294   1.951   6.546  0.3092 -0.4773  0.7321
26554SOL     OW83192   7.758   0.298   3.436 -0.3708 -0.1214 -0.1584
26554SOL    HW183193   7.714   0.379   3.410 -0.8134 -0.1560  0.4837
26554SOL    HW283194   7.838   0.297   3.383 -0.2530  0.8415 -0.0140
26555SOL     OW83195  10.008   2.516   4.689  0.6486 -0.3056 -0.9888
26555SOL    HW183196  10.008   2.434   4.738 -1.5054 -0.2384 -0.7585
26555SOL    HW283197   9.915   2.535   4.675  0.7390  3.9117  2.1410
26556SOL     OW83198   9.382   7.646   3.382  0.3238  0.1283  0.1177
26556SOL    HW183199   9.385   7.552   3.399  2.3810  0.1610  0.0721
26556SOL    HW283200   9.473   7.673   3.373 -0.1824  2.2463  0.6856
26557SOL     OW83201   4.312   1.626   5.952  1.0342 -0.1635 -0.0868
26557SOL    HW183202   4.264   1.648   5.872  0.4314 -0.4410  0.1953
26557SOL    HW283203   4.247   1.583   6.008  1.0011  1.4968  1.2266
26558SOL     OW83204   5.557   8.348   2.018 -0.3486  0.6178 -0.8225
26558SOL    HW183205   5.517   8.368   1.934 -0.8477 -0.3673 -0.8390
26558SOL    HW283206   5.602   8.265   2.003  1.0295  1.2982 -0.5792
26559SOL     OW83207   4.422   5.013   9.715 -0.1325 -0.2592 -0.1547
26559SOL    HW183208   4.399   4.929   9.755  0.3670 -0.6048 -0.5921
26559SOL    HW283209   4.365   5.019   9.638  0.6885 -0.7688 -0.8144
26560SOL     OW83210   1.495   0.299   5.479 -0.6414  0.1790 -0.5611
26560SOL    HW183211   1.402   0.311   5.498 -0.6653 -0.5588 -0.1883
26560SOL    HW283212   1.497   0.244   5.400 -0.5333 -1.2861  0.4284
26561SOL     OW83213   4.724   1.209   3.732  0.0866 -0.0993 -0.6795
26561SOL    HW183214   4.710   1.160   3.813  0.1571  0.5243 -0.2793
26561SOL    HW283215   4.768   1.147   3.674 -1.0064 -0.9214 -0.6554
26562SOL     OW83216   3.639   4.837   5.340  0.0269  0.4382  0.4896
26562SOL    HW183217   3.603   4.834   5.429 -0.7809  0.2248  0.1681
26562SOL    HW283218   3.568   4.802   5.285  0.6166  0.3222 -0.2041
26563SOL     OW83219   3.791   0.033   5.868 -0.0789  0.1516  0.4393
26563SOL    HW183220   3.852   0.098   5.903  0.9332 -1.7724  2.4650
26563SOL    HW283221   3.843  -0.047   5.860 -1.0727 -0.3190 -2.6978
26564SOL     OW83222   7.554   5.531   0.627  0.2557  0.1714  0.7575
26564SOL    HW183223   7.613   5.605   0.618 -1.6867  1.6145 -1.3579
26564SOL    HW283224   7.474   5.568   0.665 -0.9320 -0.6644 -0.7774
26565SOL     OW83225   0.880  10.590   8.877  0.1615  0.1022 -0.2962
26565SOL    HW183226   0.914  10.544   8.801 -0.8528 -0.6396 -0.3300
26565SOL    HW283227   0.841  10.521   8.932 -0.7465  0.8221  0.0041
26566SOL     OW83228   5.980   5.048   4.773  0.5372  0.3810 -0.2255
26566SOL    HW183229   6.045   5.056   4.703  1.0492 -0.7938  0.0910
26566SOL    HW283230   6.023   5.082   4.851  1.0732 -1.0847  0.1456
26567SOL     OW83231   4.441   0.078   7.779 -0.0885  0.4303  0.6288
26567SOL    HW183232   4.454  -0.015   7.760 -0.4808  0.5661 -0.3570
26567SOL    HW283233   4.347   0.086   7.794 -0.3495  0.9382 -1.0179
26568SOL     OW83234   2.350   0.291   0.335  0.5494 -0.1687 -0.1974
26568SOL    HW183235   2.363   0.377   0.375 -2.5073  0.0022  0.6598
26568SOL    HW283236   2.333   0.232   0.408  1.1171 -1.2040 -0.8803
26569SOL     OW83237   6.785   6.167   9.352 -0.0892  0.1405 -0.1554
26569SOL    HW183238   6.751   6.214   9.276 -0.3773  0.7379  0.3317
26569SOL    HW283239   6.711   6.159   9.411 -0.0534 -0.9891 -0.2453
26570SOL     OW83240   8.418   4.496   3.583  0.1648  0.2939 -0.3000
26570SOL    HW183241   8.357   4.519   3.652 -0.6434 -0.0770 -0.8725
26570SOL    HW283242   8.369   4.508   3.502  0.9138  0.1860 -0.7809
26571SOL     OW83243   8.510   0.016   8.501 -0.3879 -0.5178 -0.2472
26571SOL    HW183244   8.445   0.082   8.479 -1.5933 -1.9360 -1.2153
26571SOL    HW283245   8.567   0.012   8.425  1.0191  0.8815  0.6933
26572SOL     OW83246   1.342   6.434   8.147  0.0484  0.2415  0.4362
26572SOL    HW183247   1.383   6.361   8.101 -1.7555  0.9309 -2.4946
26572SOL    HW283248   1.270   6.395   8.196 -0.7407 -0.0069 -0.8974
26573SOL     OW83249   8.787  10.263   4.758 -0.2795 -0.0023  0.4997
26573SOL    HW183250   8.790  10.320   4.834 -1.7152  0.6877  0.0708
26573SOL    HW283251   8.710  10.292   4.709  0.3099 -0.7746 -0.9418
26574SOL     OW83252   8.781   2.186   5.001 -0.0733 -0.2870 -0.2796
26574SOL    HW183253   8.833   2.126   4.947 -1.6119  0.5956 -2.9504
26574SOL    HW283254   8.844   2.227   5.059  1.7021 -1.3854 -1.3351
26575SOL     OW83255   2.772   0.514   5.663 -0.6620  0.0574  0.2467
26575SOL    HW183256   2.736   0.427   5.648  1.5686 -0.9849  0.5561
26575SOL    HW283257   2.855   0.515   5.614  0.5299  1.1067  2.1354
26576SOL     OW83258   7.578   2.797   7.626  0.0417 -0.1597 -0.1059
26576SOL    HW183259   7.643   2.729   7.608  0.4438  0.2003 -0.0351
26576SOL    HW283260   7.560   2.836   7.540  0.0978 -0.0955 -0.0881
26577SOL     OW83261   8.169   2.340   3.427  0.1242 -0.6762 -0.2679
26577SOL    HW183262   8.159   2.272   3.361 -0.9561 -1.1934  0.3879
26577SOL    HW283263   8.107   2.408   3.402 -0.1659 -0.7975  0.1081
26578SOL     OW83264   3.645   2.306   9.293  0.5798  0.4071 -1.3118
26578SOL    HW183265   3.665   2.213   9.276 -0.0916  0.2222 -1.1112
26578SOL    HW283266   3.659   2.316   9.387 -1.8372 -0.1463 -0.8362
26579SOL     OW83267   0.695   9.615   7.328  0.0291  0.0753  0.6877
26579SOL    HW183268   0.754   9.617   7.253  0.0467  0.2885  0.7042
26579SOL    HW283269   0.679   9.523   7.344  0.2445  0.0205  0.5929
26580SOL     OW83270   0.813  10.514   0.605 -0.1601 -0.2871 -0.8543
26580SOL    HW183271   0.806  10.524   0.700  0.1982  0.4968 -0.8992
26580SOL    HW283272   0.825  10.420   0.592 -0.3181 -0.4162 -0.1322
26581SOL     OW83273  10.699   3.273   9.803  0.0810 -0.2517 -0.3666
26581SOL    HW183274  10.616   3.233   9.776 -0.9240  2.0178 -0.8319
26581SOL    HW283275  10.765   3.227   9.751 -0.9877 -1.3139 -0.8454
26582SOL     OW83276   3.357   9.334   5.588  0.0220 -0.4989  0.3354
26582SOL    HW183277   3.415   9.268   5.627  0.9042 -0.7889 -1.3867
26582SOL    HW283278   3.367   9.411   5.645 -0.0323 -1.4115  1.6245
26583SOL     OW83279   5.651   9.641   9.962 -0.6622  0.4536  0.2806
26583SOL    HW183280   5.595   9.568   9.937  2.1465 -1.3319 -1.3081
26583SOL    HW283281   5.690   9.671   9.880  1.4619  0.8825  1.3784
26584SOL     OW83282   0.280   4.618   1.369  0.3333  0.0342 -0.0331
26584SOL    HW183283   0.320   4.702   1.344  1.4709 -0.8483 -1.2627
26584SOL    HW283284   0.213   4.643   1.433 -2.8877  2.5094 -3.8517
26585SOL     OW83285   4.427   2.411   1.152 -0.2251 -0.3057  0.3143
26585SOL    HW183286   4.374   2.429   1.075 -0.3902 -2.7866 -0.2479
26585SOL    HW283287   4.498   2.475   1.149  0.0424 -0.6432 -2.1966
26586SOL     OW83288   1.870  11.120   8.984 -0.0906 -0.0204  0.5643
26586SOL    HW183289   1.778  11.124   9.010 -0.7985 -0.9001 -1.5057
26586SOL    HW283290   1.877  11.183   8.912  1.4596  1.4702  1.9202
26587SOL     OW83291  10.580   8.214   6.389  0.0325  0.1576 -0.0957
26587SOL    HW183292  10.562   8.278   6.457  0.0057  0.1072 -0.0549
26587SOL    HW283293  10.541   8.250   6.310  0.0071  0.1861 -0.0702
26588SOL     OW83294   3.918   1.520   9.651  0.0869 -0.2859  0.1150
26588SOL    HW183295   3.989   1.580   9.674 -0.4700 -0.1007  1.4612
26588SOL    HW283296   3.841   1.576   9.639 -0.4392 -0.6951  1.3891
26589SOL     OW83297   4.871   2.277   9.988  0.2980 -0.2125 -0.0793
26589SOL    HW183298   4.943   2.300  10.047  1.8721 -0.5961 -1.7349
26589SOL    HW283299   4.882   2.337   9.914  1.2046 -2.5996 -2.0294
26590SOL     OW83300   8.510   7.784   7.447  0.2608  0.0638 -0.6122
26590SOL    HW183301   8.556   7.832   7.515 -1.3518  1.5707 -0.5165
26590SOL    HW283302   8.570   7.784   7.372  0.6664  1.4446 -0.3042
26591SOL     OW83303   0.090   4.219  10.930  0.4103 -0.1931  0.4497
26591SOL    HW183304   0.146   4.147  10.902 -0.8851 -0.9884 -0.1533
26591SOL    HW283305   0.096   4.284  10.859 -1.1585 -1.2599 -0.7195
26592SOL     OW83306   6.065   6.989   6.249 -0.3462 -0.0441  0.2296
26592SOL    HW183307   6.127   7.060   6.233  0.7425 -0.4926  2.1210
26592SOL    HW283308   6.061   6.982   6.345 -1.6409 -1.4921  0.1119
26593SOL     OW83309   6.055   6.708   1.073  0.1016  0.6644  0.3724
26593SOL    HW183310   5.990   6.754   1.126  1.0926  1.6907  0.7395
26593SOL    HW283311   6.026   6.722   0.982 -0.2099  1.0803  0.5314
26594SOL     OW83312  10.863   6.158   7.225 -0.0172 -0.5035 -0.5201
26594SOL    HW183313  10.793   6.092   7.222  0.2084 -0.7179 -1.1243
26594SOL    HW283314  10.942   6.108   7.243 -0.2195 -0.0880  1.7862
26595SOL     OW83315   3.445   0.039   6.841 -0.1795  0.0257 -0.3669
26595SOL    HW183316   3.470  -0.047   6.807 -1.0619  0.9492 -3.7205
26595SOL    HW283317   3.473   0.038   6.932  1.2018 -3.2392 -0.6970
26596SOL     OW83318   6.470   3.358   0.900  0.8616  0.2722  0.1827
26596SOL    HW183319   6.423   3.275   0.895  2.9400 -1.0623  1.3186
26596SOL    HW283320   6.413   3.421   0.855 -0.8698 -1.6998 -0.5399
26597SOL     OW83321  10.220   9.409   7.531 -0.1163  0.0321 -0.3016
26597SOL    HW183322  10.168   9.454   7.465  0.1524 -0.1764 -0.6568
26597SOL    HW283323  10.282   9.475   7.562 -0.2418  0.1302 -0.2555
26598SOL     OW83324   0.651   2.418   4.431 -0.0240 -0.1059 -0.0012
26598SOL    HW183325   0.693   2.391   4.349  0.0124 -0.5343  0.1555
26598SOL    HW283326   0.724   2.449   4.486  0.1547 -1.2436  0.4264
26599SOL     OW83327   2.751   7.556   1.828 -0.5984  0.1451 -0.5935
26599SOL    HW183328   2.809   7.632   1.823 -1.0590  0.7500  1.7857
26599SOL    HW283329   2.807   7.485   1.859 -0.3284 -0.3315 -2.1059
26600SOL     OW83330   7.044   0.640   1.552 -0.2551 -0.2041  0.1953
26600SOL    HW183331   6.990   0.564   1.575  0.4034 -0.2485  1.7185
26600SOL    HW283332   7.080   0.619   1.466 -0.6232 -1.3104  0.2965
26601SOL     OW83333   8.129   3.011   1.373  0.4878 -0.0535  0.4057
26601SOL    HW183334   8.068   2.970   1.312  0.3340 -0.4685  0.8356
26601SOL    HW283335   8.073   3.067   1.428  0.5821  0.0603  0.3857
26602SOL     OW83336   7.405   5.429   6.872  0.0423 -0.1633  0.3352
26602SOL    HW183337   7.318   5.445   6.838 -0.2377 -2.0601  0.0135
26602SOL    HW283338   7.392   5.363   6.941  1.2830 -1.2130 -0.3730
26603SOL     OW83339   7.394   0.951   9.485 -0.1889 -0.0091 -0.0488
26603SOL    HW183340   7.390   1.045   9.468 -0.7833  0.0949  0.6101
26603SOL    HW283341   7.487   0.929   9.477 -0.0639  0.6000 -0.3683
26604SOL     OW83342   6.746   6.717  10.927  0.0044  0.1447  0.2725
26604SOL    HW183343   6.696   6.642  10.894  1.0558 -1.3516  1.8733
26604SOL    HW283344   6.821   6.723  10.868 -0.8772  1.0011 -0.8120
26605SOL     OW83345   9.947   0.060   7.340  0.4456 -0.0051  0.4391
26605SOL    HW183346   9.935   0.003   7.265  0.9136  1.4789 -0.8240
26605SOL    HW283347   9.974   0.002   7.411  0.2465 -1.4154 -0.6079
26606SOL     OW83348   6.000   1.625   6.823  0.3053  0.5847 -0.0558
26606SOL    HW183349   5.966   1.647   6.737  1.2490  0.8103 -0.3778
26606SOL    HW283350   5.987   1.704   6.875  0.3225  0.6633 -0.1709
26607SOL     OW83351   2.901   4.992   9.686 -0.0643 -0.0464  0.1775
26607SOL    HW183352   2.837   5.048   9.728  0.1808  1.3276 -1.1808
26607SOL    HW283353   2.981   5.003   9.738  0.0460  1.0787 -0.2005
26608SOL     OW83354   9.228   9.343   0.850 -0.0732 -0.1234 -0.0533
26608SOL    HW183355   9.311   9.302   0.825 -0.7261 -1.3568 -0.3046
26608SOL    HW283356   9.252   9.404   0.920  0.8369 -1.7794  1.1814
26609SOL     OW83357   7.000   9.840   7.643 -0.3868 -0.1996  0.2993
26609SOL    HW183358   6.976   9.898   7.570 -0.5419  1.6677  1.7637
26609SOL    HW283359   7.062   9.778   7.604 -0.0667  1.0479 -1.3166
26610SOL     OW83360   6.541   2.884   5.389  0.6471 -0.0815 -0.2607
26610SOL    HW183361   6.550   2.896   5.294 -0.2049 -0.3941 -0.3881
26610SOL    HW283362   6.598   2.810   5.409  1.0638  0.1778 -0.4809
26611SOL     OW83363   7.193   1.420  10.099  0.5120  0.0384  0.3478
26611SOL    HW183364   7.200   1.492  10.036 -0.2777 -0.2048 -0.0403
26611SOL    HW283365   7.195   1.341  10.045  0.8684 -0.2114  0.7251
26612SOL     OW83366   5.267   5.926   8.911 -0.0664  0.4070 -0.8196
26612SOL    HW183367   5.323   5.994   8.875  0.7926 -1.1915 -2.7278
26612SOL    HW283368   5.264   5.944   9.005  2.1728  1.6009 -0.9125
26613SOL     OW83369   1.988  11.037   3.976  0.1640 -0.1524  0.2317
26613SOL    HW183370   2.071  11.073   4.008 -0.0832 -0.1284  0.8518
26613SOL    HW283371   1.977  10.956   4.025  0.6372 -1.0269 -1.0410
26614SOL     OW83372   2.952   2.779   8.988  0.1422  0.1289 -0.3223
26614SOL    HW183373   2.992   2.864   9.006  0.2685 -0.4751  2.7954
26614SOL    HW283374   2.867   2.782   9.033  0.2544 -1.4508  0.0571
26615SOL     OW83375   4.175   4.061   6.692  0.1025 -0.4115  0.5850
26615SOL    HW183376   4.188   3.989   6.631  2.9509 -0.5942  1.2799
26615SOL    HW283377   4.086   4.049   6.725 -1.8085 -0.0140 -3.7686
26616SOL     OW83378   5.209   3.387   8.742 -0.0911 -0.9261  0.2002
26616SOL    HW183379   5.116   3.373   8.726  0.5154 -2.1008 -3.4111
26616SOL    HW283380   5.242   3.302   8.770  0.1847 -1.1399 -0.7177
26617SOL     OW83381   4.299   0.438   7.520  0.6044  0.0808  0.1845
26617SOL    HW183382   4.241   0.459   7.593  1.7607 -0.3029  1.2513
26617SOL    HW283383   4.270   0.351   7.491  0.7815 -0.1994  0.8433
26618SOL     OW83384   7.384  10.690   7.805 -0.1228 -0.2417 -0.2998
26618SOL    HW183385   7.291  10.680   7.822 -0.2680 -0.5260 -1.1925
26618SOL    HW283386   7.389  10.761   7.741  0.2409 -0.4951 -0.5530
26619SOL     OW83387   0.301   3.241   3.830  0.4979 -0.0513 -0.0710
26619SOL    HW183388   0.315   3.301   3.903  1.0880  2.0934 -1.8493
26619SOL    HW283389   0.351   3.163   3.854  0.5458  0.5190  1.8641
26620SOL     OW83390   6.167   1.837   7.021 -0.8366  0.0178 -0.0574
26620SOL    HW183391   6.096   1.883   6.977 -0.9586 -0.8916 -0.8472
26620SOL    HW283392   6.247   1.872   6.982 -0.8895  0.2455  0.0379
26621SOL     OW83393   2.953   0.594  10.438 -0.0354 -0.3081 -0.2039
26621SOL    HW183394   2.924   0.518  10.488 -0.2077 -1.0719 -1.4352
26621SOL    HW283395   2.887   0.604  10.369  0.1267  0.8093 -0.2188
26622SOL     OW83396   9.367   6.882  10.587 -0.3649 -0.3529  0.6670
26622SOL    HW183397   9.336   6.956  10.639 -0.5852  0.9687 -1.2222
26622SOL    HW283398   9.287   6.845  10.549 -0.1155 -0.4263  0.2067
26623SOL     OW83399   3.030   7.683   1.257  0.1588 -0.3062 -0.5110
26623SOL    HW183400   3.073   7.700   1.341 -0.2065  0.1991 -0.4236
26623SOL    HW283401   3.101   7.655   1.199  0.2498 -1.7639  0.2584
26624SOL     OW83402   9.196   5.399   4.994  0.4029 -0.1413 -0.4612
26624SOL    HW183403   9.194   5.490   5.023 -1.0516 -0.9351  2.2826
26624SOL    HW283404   9.113   5.386   4.948 -0.5848 -0.6484  1.3663
26625SOL     OW83405   2.559   8.261  10.512  0.1160  0.5244  0.1963
26625SOL    HW183406   2.605   8.193  10.560 -0.0646 -0.1954 -0.6292
26625SOL    HW283407   2.467   8.251  10.537  0.2698  1.4153  1.1894
26626SOL     OW83408   8.007   6.925   7.897 -0.2874  0.3917 -0.1044
26626SOL    HW183409   8.065   6.995   7.867  0.2243 -0.0574 -0.1859
26626SOL    HW283410   7.941   6.969   7.950 -0.2826  1.0012 -0.5866
26627SOL     OW83411   2.457   8.029   3.372 -0.5144 -0.3652 -0.5202
26627SOL    HW183412   2.519   8.074   3.428 -0.5529 -0.1799 -0.6274
26627SOL    HW283413   2.377   8.024   3.425 -0.6988  0.2320 -0.7317
26628SOL     OW83414   9.211   8.708  10.820 -0.1242  0.4031 -0.9833
26628SOL    HW183415   9.207   8.743  10.731 -1.8735  0.0965 -1.0673
26628SOL    HW283416   9.190   8.782  10.876  1.9513  0.8430 -0.7018
26629SOL     OW83417   2.159   1.115   7.034 -0.0984 -0.0785 -1.4336
26629SOL    HW183418   2.175   1.199   6.992  2.4723  0.1403 -0.1992
26629SOL    HW283419   2.076   1.127   7.081  1.1199  2.5067  0.2928
26630SOL     OW83420   5.213   9.396   9.560 -0.0355 -0.0100  0.5935
26630SOL    HW183421   5.199   9.488   9.538  1.9456  0.6121  1.6389
26630SOL    HW283422   5.143   9.374   9.622 -1.0573  0.4887 -0.3572
26631SOL     OW83423   5.125   8.308   4.436  0.0236  0.1000 -0.2168
26631SOL    HW183424   5.137   8.217   4.464 -0.8948  0.6908  2.3796
26631SOL    HW283425   5.208   8.351   4.456 -0.0118  0.1284 -0.1308
26632SOL     OW83426   9.782   4.805   2.069 -0.6464  0.1871 -0.3066
26632SOL    HW183427   9.807   4.722   2.028 -1.0971  0.7653 -1.8138
26632SOL    HW283428   9.692   4.821   2.038 -0.7633  0.9644  0.4083
26633SOL     OW83429   2.772   7.916   7.180  0.7600 -0.1872 -0.3789
26633SOL    HW183430   2.763   7.972   7.103  1.1982  1.8649  0.9784
26633SOL    HW283431   2.722   7.838   7.159 -1.9952  1.7149 -1.4300
26634SOL     OW83432  10.913   2.367   6.225  0.1115  0.5480 -0.1256
26634SOL    HW183433  10.930   2.440   6.165  2.0362  0.2350 -0.0222
26634SOL    HW283434  10.958   2.292   6.185 -0.0700 -0.0851  0.8184
26635SOL     OW83435   5.720  10.294   2.630  0.0031  0.1689  0.3315
26635SOL    HW183436   5.712  10.363   2.695  3.5635 -0.0234  1.1674
26635SOL    HW283437   5.813  10.272   2.629 -0.1177 -1.0217 -3.6513
26636SOL     OW83438   4.360   4.301   5.037  0.2131 -0.3905 -0.1468
26636SOL    HW183439   4.339   4.372   5.097  3.6374 -0.9056  1.9341
26636SOL    HW283440   4.331   4.222   5.083 -0.0563 -0.6088 -0.6802
26637SOL     OW83441   4.663   2.109   1.417  0.7759 -0.2931 -0.0545
26637SOL    HW183442   4.737   2.077   1.470  0.6749 -0.1868  0.1543
26637SOL    HW283443   4.659   2.203   1.437  0.5667 -0.3043 -0.0407
26638SOL     OW83444   2.186  10.944   0.967 -0.2305 -0.1990 -0.2024
26638SOL    HW183445   2.155  11.035   0.968 -1.6513 -0.6513 -0.8430
26638SOL    HW283446   2.153  10.908   1.049  0.4925 -0.1025  0.1391
26639SOL     OW83447   4.569   3.617   5.394  0.0794  0.0573 -0.1519
26639SOL    HW183448   4.550   3.574   5.478 -1.7688  2.1389  0.6090
26639SOL    HW283449   4.649   3.668   5.411  0.2355 -0.2484  0.0428
26640SOL     OW83450   1.757   9.630   4.791 -0.4959  0.2840 -0.1536
26640SOL    HW183451   1.697   9.700   4.766 -0.9703 -0.2555 -0.5582
26640SOL    HW283452   1.717   9.590   4.868  0.2960  1.0969  0.7123
26641SOL     OW83453   8.072   1.368   0.632 -0.2127  0.4188 -0.6072
26641SOL    HW183454   8.044   1.346   0.721 -1.4817 -0.7075 -1.2698
26641SOL    HW283455   8.025   1.450   0.612 -0.4635  0.3035 -0.4966
26642SOL     OW83456   4.401   7.844   9.402 -0.4008 -0.7037  0.7315
26642SOL    HW183457   4.308   7.854   9.423 -0.1296  0.4286  1.5063
26642SOL    HW283458   4.411   7.891   9.319 -0.6412 -1.4168  0.2926
26643SOL     OW83459   7.945   6.126  10.896  0.2363 -0.2686 -0.1240
26643SOL    HW183460   7.908   6.191  10.835  0.0745 -0.0054  0.2527
26643SOL    HW283461   8.006   6.175  10.950 -1.7607  0.1627  1.8936
26644SOL     OW83462   0.922   5.826   1.931  0.1658  0.5711  0.2318
26644SOL    HW183463   0.922   5.748   1.987  0.1409  0.2817 -0.1623
26644SOL    HW283464   0.830   5.851   1.926  0.1765  0.6407  0.3788
26645SOL     OW83465   8.045   3.456   5.133  0.0812 -0.0266 -0.1329
26645SOL    HW183466   7.961   3.501   5.142 -1.4941 -2.5016 -1.3765
26645SOL    HW283467   8.102   3.499   5.196 -1.6799  2.6729 -0.2322
26646SOL     OW83468   8.487   5.285   2.517  0.5137  0.5276  0.3331
26646SOL    HW183469   8.427   5.358   2.504  0.6034  0.4512 -0.6239
26646SOL    HW283470   8.572   5.327   2.535  0.7719  0.7072 -1.1528
26647SOL     OW83471   2.131   5.150   2.610 -0.4678  0.3764  0.5656
26647SOL    HW183472   2.130   5.152   2.706 -3.0936 -0.3174  0.6335
26647SOL    HW283473   2.053   5.200   2.584  0.4734  1.0161 -1.2665
26648SOL     OW83474   1.406   9.846   9.977  1.4681 -0.2057  0.0445
26648SOL    HW183475   1.424   9.820  10.067 -0.2422  0.3385  0.5705
26648SOL    HW283476   1.431   9.770   9.925  4.5408  0.2083  0.7032
26649SOL     OW83477   9.463   0.066   1.283 -0.0278  0.3706 -0.0427
26649SOL    HW183478   9.543   0.077   1.335 -1.2255 -0.7860  2.2282
26649SOL    HW283479   9.407   0.139   1.311 -0.6094 -0.1503  0.1853
26650SOL     OW83480   8.841   4.815   8.162  0.1623 -0.3806  0.3064
26650SOL    HW183481   8.791   4.873   8.221  0.3803  0.7001 -0.5505
26650SOL    HW283482   8.786   4.737   8.155 -0.5219  0.0281  0.8628
26651SOL     OW83483   7.922   5.420   4.556 -0.3453 -0.4835 -0.2152
26651SOL    HW183484   7.833   5.390   4.573 -0.4669  0.3150  0.6718
26651SOL    HW283485   7.914   5.516   4.555 -0.1080 -0.3805 -3.5967
26652SOL     OW83486   4.646   5.828   9.996 -0.4459 -0.3424  0.1141
26652SOL    HW183487   4.685   5.881   9.926  1.5335  0.7367  1.9054
26652SOL    HW283488   4.578   5.884  10.033  0.7029  0.4698  1.0939
26653SOL     OW83489   3.364   5.988   8.400 -0.1965  0.0289 -0.5625
26653SOL    HW183490   3.440   6.004   8.344 -0.3607  1.2960 -0.4408
26653SOL    HW283491   3.316   6.070   8.400 -1.2231 -0.5511 -0.0937
26654SOL     OW83492   9.093   7.338   7.358  0.1179 -0.4230 -0.1957
26654SOL    HW183493   9.166   7.381   7.402 -0.1402  0.1675 -0.3425
26654SOL    HW283494   9.026   7.405   7.350 -1.0868 -1.3486  1.3655
26655SOL     OW83495   3.609   3.672   7.515  0.2459  0.4524  0.0126
26655SOL    HW183496   3.584   3.584   7.488 -2.1596  0.4585  1.8302
26655SOL    HW283497   3.534   3.726   7.489  1.7231  2.0535 -1.1720
26656SOL     OW83498   4.226   9.846   1.861 -0.6402 -0.3103 -0.6125
26656SOL    HW183499   4.257   9.830   1.772 -1.1983  0.0798 -0.8893
26656SOL    HW283500   4.151   9.788   1.871 -2.1122  1.3720 -1.3021
26657SOL     OW83501   1.291   8.491   3.300 -0.3825 -0.4021  0.6675
26657SOL    HW183502   1.205   8.512   3.263 -0.1911 -0.5509  0.1144
26657SOL    HW283503   1.275   8.477   3.393 -1.0611 -1.0119  0.4722
26658SOL     OW83504   6.406   7.217   4.633  0.6331 -0.1858  0.1203
26658SOL    HW183505   6.414   7.226   4.728 -1.0591 -0.3556  0.3216
26658SOL    HW283506   6.392   7.124   4.619  0.9131 -0.1652 -0.3010
26659SOL     OW83507   2.165   7.277  10.894  0.4343 -0.0141  0.2509
26659SOL    HW183508   2.186   7.297  10.986  0.1147 -0.2379  0.3756
26659SOL    HW283509   2.241   7.227  10.863 -0.6411 -2.4289  1.2437
26660SOL     OW83510   8.064   4.799   5.167 -0.0279  0.3082  0.6909
26660SOL    HW183511   8.104   4.810   5.081 -0.5728  2.3637  0.6349
26660SOL    HW283512   8.022   4.713   5.164  0.4907  0.0828 -0.8702
26661SOL     OW83513   7.834   1.027   9.288 -0.0178 -0.3905  0.5573
26661SOL    HW183514   7.821   1.004   9.196 -1.0857  1.8417  0.0723
26661SOL    HW283515   7.920   0.991   9.310  0.4753 -0.5674 -1.4644
26662SOL     OW83516   8.858   6.811   0.761 -0.2600 -0.4665 -0.1602
26662SOL    HW183517   8.783   6.766   0.722 -2.5157  0.9971  2.1448
26662SOL    HW283518   8.862   6.895   0.715  0.1352 -0.6350 -0.4387
26663SOL     OW83519   8.698   2.267   3.136  0.8979  0.1119 -0.3750
26663SOL    HW183520   8.646   2.318   3.197  0.0027 -1.0843 -0.0948
26663SOL    HW283521   8.726   2.330   3.069  0.4114  1.0800  0.3162
26664SOL     OW83522   2.920   4.068   4.283 -0.5898 -0.3401 -0.2971
26664SOL    HW183523   2.870   4.106   4.355 -1.1769 -1.0728 -0.3048
26664SOL    HW283524   2.942   3.980   4.313  2.0430  0.4359  0.3404
26665SOL     OW83525   9.864   8.399   5.704  0.1262  0.7574  0.0432
26665SOL    HW183526   9.830   8.335   5.642 -0.2954  2.0891 -1.1461
26665SOL    HW283527   9.836   8.367   5.790 -1.3031  0.1094 -0.6422
26666SOL     OW83528   9.369   5.022   6.710  0.3255  0.1880  0.2809
26666SOL    HW183529   9.432   5.004   6.780  0.0133  0.9750  0.7664
26666SOL    HW283530   9.292   4.970   6.733 -0.7489  2.3537  1.9297
26667SOL     OW83531   3.812   0.972  10.548  0.1748  0.3710  0.2937
26667SOL    HW183532   3.731   0.924  10.527  0.8375 -0.2114 -1.0525
26667SOL    HW283533   3.882   0.912  10.523  1.0224  1.2274  0.5982
26668SOL     OW83534   7.665   0.233   9.902 -0.6347  0.1111 -0.2892
26668SOL    HW183535   7.699   0.166   9.962 -0.8808  1.6396  1.6519
26668SOL    HW283536   7.570   0.226   9.910 -0.6681  0.4636 -0.3586
26669SOL     OW83537   6.420   3.201   0.154 -0.2520  0.1201  0.3978
26669SOL    HW183538   6.335   3.217   0.113  0.4771  1.0647 -0.8327
26669SOL    HW283539   6.431   3.274   0.215  0.5777  1.2182 -1.0143
26670SOL     OW83540   1.948  10.789   1.169 -0.1075  0.3514  0.0511
26670SOL    HW183541   1.889  10.728   1.124 -0.1153  0.3783  0.0249
26670SOL    HW283542   1.924  10.875   1.134  0.1904  0.3250 -0.2275
26671SOL     OW83543   1.262   3.460   2.891  0.1909 -0.0606 -0.6598
26671SOL    HW183544   1.190   3.398   2.884 -1.1256  1.4814 -1.3856
26671SOL    HW283545   1.338   3.412   2.856 -0.8625 -1.1253 -1.5892
26672SOL     OW83546   5.425  10.359   4.547  0.5677  0.4033 -0.2369
26672SOL    HW183547   5.357  10.399   4.493  0.8085  2.3587  0.8270
26672SOL    HW283548   5.385  10.279   4.580  0.0548 -0.3142 -2.4193
26673SOL     OW83549   2.213   6.896   2.923  0.2317 -0.7820 -0.0373
26673SOL    HW183550   2.170   6.811   2.911  1.5901 -1.3645 -1.1094
26673SOL    HW283551   2.291   6.876   2.976  0.8009 -0.3055 -0.6725
26674SOL     OW83552   1.437   3.947   0.091  0.3988 -0.0151 -0.5292
26674SOL    HW183553   1.521   3.993   0.086  0.1032  0.6033  0.0089
26674SOL    HW283554   1.382   3.990   0.025 -0.0850  0.8722  0.4229
26675SOL     OW83555   5.920   1.089   0.057  0.3032 -0.4364  0.7722
26675SOL    HW183556   5.863   1.017   0.085  0.0151 -1.0275 -1.1716
26675SOL    HW283557   5.992   1.088   0.120 -0.5870 -1.2684  1.8249
26676SOL     OW83558  11.064   8.233   6.691 -0.7251 -0.6915 -0.5176
26676SOL    HW183559  11.136   8.226   6.754 -0.4448 -0.0160 -0.7555
26676SOL    HW283560  11.074   8.155   6.636  0.6109  0.0124 -1.3434
26677SOL     OW83561   3.879  10.325   2.369  0.5700 -0.4546 -0.4250
26677SOL    HW183562   3.931  10.283   2.437  0.6670 -0.1465 -0.3076
26677SOL    HW283563   3.788  10.317   2.400  0.7483  1.2023  0.5886
26678SOL     OW83564   6.359   9.620   5.741  0.7648  0.1115 -0.5137
26678SOL    HW183565   6.429   9.595   5.680  1.5640  0.3279  0.2995
26678SOL    HW283566   6.395   9.694   5.789  0.8398 -1.1036  1.4154
26679SOL     OW83567   0.800   7.612   4.323  0.2101  0.3300  0.1423
26679SOL    HW183568   0.753   7.561   4.257  2.1258 -0.2401 -0.8370
26679SOL    HW283569   0.755   7.696   4.325 -2.5087 -1.0105  1.1919
26680SOL     OW83570  10.265   6.597   9.292 -0.0172 -0.1009  0.2197
26680SOL    HW183571  10.225   6.554   9.367  0.6710  1.1373  1.3524
26680SOL    HW283572  10.252   6.691   9.309  1.2105  0.2412 -0.6020
26681SOL     OW83573  11.036   2.020   3.195 -0.1205 -0.2756 -0.0933
26681SOL    HW183574  11.053   1.932   3.227  0.3689  0.6705  2.4691
26681SOL    HW283575  11.039   2.076   3.273  0.0664  2.0962 -1.6765
26682SOL     OW83576  10.748   3.012   5.297  0.3246  0.0912 -0.0585
26682SOL    HW183577  10.808   3.013   5.371 -0.0133  1.0013  0.2174
26682SOL    HW283578  10.667   2.976   5.333  0.3760 -0.1495 -0.1756
26683SOL     OW83579   2.262   3.479   0.346  0.2459  0.0273 -0.0269
26683SOL    HW183580   2.303   3.443   0.425  0.0023  1.0084  0.5662
26683SOL    HW283581   2.184   3.524   0.379 -0.2867 -0.2293 -0.9242
26684SOL     OW83582   6.311   6.727   6.681  0.0056 -0.2869 -0.6420
26684SOL    HW183583   6.391   6.746   6.730  0.7706 -0.5947 -1.7412
26684SOL    HW283584   6.243   6.780   6.724  0.6321 -0.5913  0.7655
26685SOL     OW83585   4.339   9.710   6.539 -0.3132 -0.4147 -0.9680
26685SOL    HW183586   4.378   9.779   6.486 -0.4492 -0.0525 -0.6025
26685SOL    HW283587   4.413   9.663   6.577 -0.2056 -0.9158 -1.7685
26686SOL     OW83588   0.484   4.682   7.467 -0.2155  0.4467 -0.1973
26686SOL    HW183589   0.496   4.720   7.554 -0.8545 -1.6829  0.8996
26686SOL    HW283590   0.402   4.632   7.474  0.8520 -1.5990 -1.2680
26687SOL     OW83591   7.868   8.711   3.608 -0.6493 -0.2726 -0.3756
26687SOL    HW183592   7.928   8.776   3.644  2.1589 -3.1397  0.5953
26687SOL    HW283593   7.881   8.716   3.514 -0.1310  0.2793 -0.2819
26688SOL     OW83594   8.709   7.862   4.378 -0.2163 -0.1273 -0.3998
26688SOL    HW183595   8.720   7.841   4.285  0.9022 -0.5983 -0.1807
26688SOL    HW283596   8.660   7.788   4.414  1.2562 -1.0553 -0.2000
26689SOL     OW83597   8.796   2.109   3.580 -0.3392 -0.7215  0.0972
26689SOL    HW183598   8.742   2.051   3.633 -1.2633  1.8392  2.1491
26689SOL    HW283599   8.883   2.103   3.620 -0.9488  0.9249  1.7904
26690SOL     OW83600   0.209   1.363   7.087  0.2556  0.1983 -0.2648
26690SOL    HW183601   0.251   1.448   7.094  2.0370 -0.6799  0.3746
26690SOL    HW283602   0.211   1.343   6.993  1.4258  0.1239 -0.2393
26691SOL     OW83603   0.940   9.879   7.854 -0.5117  0.1889 -0.0434
26691SOL    HW183604   0.898   9.793   7.852  0.5394 -0.3450 -0.2305
26691SOL    HW283605   0.881   9.936   7.805 -0.9656 -0.5535 -0.3774
26692SOL     OW83606   6.518   3.833   6.114 -0.2826 -0.1487  0.3236
26692SOL    HW183607   6.503   3.849   6.208  1.5016 -3.1271  1.2661
26692SOL    HW283608   6.585   3.896   6.090 -2.0382  1.8870  0.4796
26693SOL     OW83609   1.234   0.441  10.737 -0.2323 -0.0987  0.2411
26693SOL    HW183610   1.243   0.492  10.818  0.6093  0.2593 -0.0681
26693SOL    HW283611   1.144   0.408  10.740 -0.6673  1.0547  0.6497
26694SOL     OW83612   3.183  11.098  10.341 -0.3459 -0.1674  0.0238
26694SOL    HW183613   3.200  11.007  10.365  0.6087  0.4287  1.8019
26694SOL    HW283614   3.113  11.126  10.399 -1.1372  0.0448 -1.0068
26695SOL     OW83615   7.980   3.313   3.183  0.1044 -0.3035  0.6347
26695SOL    HW183616   7.910   3.372   3.156  2.5450  2.6908  0.3804
26695SOL    HW283617   7.986   3.249   3.112  0.9002  2.4334 -1.9186
26696SOL     OW83618  10.431   4.531   9.339  0.1822 -0.3486  0.0936
26696SOL    HW183619  10.462   4.581   9.263  1.7950 -1.8082 -0.2678
26696SOL    HW283620  10.397   4.598   9.399  0.4617  0.9909 -1.1721
26697SOL     OW83621   9.332  11.098   4.808  0.2500  0.1638  0.0697
26697SOL    HW183622   9.270  11.161   4.845  0.8260  0.7205  0.1125
26697SOL    HW283623   9.313  11.098   4.714  2.1071  2.5911 -0.3930
26698SOL     OW83624   9.811   1.897   8.513 -0.1416 -0.4777  0.0671
26698SOL    HW183625   9.733   1.869   8.560 -0.2635 -3.8362 -1.8274
26698SOL    HW283626   9.777   1.941   8.434 -0.1459 -1.3582 -0.4334
26699SOL     OW83627   3.863   6.123   7.683 -0.3450  0.4686  0.3796
26699SOL    HW183628   3.772   6.146   7.665 -0.5114 -0.8714 -0.6559
26699SOL    HW283629   3.863   6.027   7.688  0.8932  0.4810  1.0670
26700SOL     OW83630   1.468   8.218   1.365 -0.4878 -0.2320  0.3907
26700SOL    HW183631   1.487   8.124   1.355 -1.3742 -0.2786 -1.1637
26700SOL    HW283632   1.469   8.252   1.275 -2.2829  0.8038  0.7155
26701SOL     OW83633   7.428   7.345  10.289  0.0313 -0.2091 -0.2962
26701SOL    HW183634   7.504   7.374  10.238  0.5536 -1.6130 -0.3497
26701SOL    HW283635   7.375   7.296  10.227 -1.3273  1.3571 -0.4464
26702SOL     OW83636   9.831  10.041   0.716 -0.4893  0.1169 -0.3533
26702SOL    HW183637   9.743  10.050   0.679 -0.0160 -0.1757 -1.6038
26702SOL    HW283638   9.887  10.022   0.640  0.3038 -1.9271  0.6909
26703SOL     OW83639   8.503   7.579   1.534  0.5852 -0.3602 -0.2357
26703SOL    HW183640   8.490   7.598   1.627 -0.6132 -0.7766 -0.2997
26703SOL    HW283641   8.584   7.527   1.531  1.3931  0.8326  0.4092
26704SOL     OW83642   9.351   5.490   8.966 -0.3549 -0.2318  0.5510
26704SOL    HW183643   9.325   5.425   8.901 -0.2132 -0.1190  0.3807
26704SOL    HW283644   9.355   5.441   9.048  2.0037 -0.9834  0.0557
26705SOL     OW83645   9.976   6.664  10.944 -0.4942  0.3260  0.6130
26705SOL    HW183646   9.928   6.587  10.974 -0.6508  0.2049  0.0697
26705SOL    HW283647   9.933   6.737  10.988 -0.2741  0.0916  1.2159
26706SOL     OW83648  10.507   6.252   4.117  0.4394 -0.8262 -0.1328
26706SOL    HW183649  10.516   6.168   4.163 -0.0761 -1.5977 -1.3738
26706SOL    HW283650  10.412   6.267   4.116  0.6032  1.9198  3.6815
26707SOL     OW83651  10.928   6.959   9.995  0.3461 -0.3230  0.2125
26707SOL    HW183652  10.955   7.020   9.926 -1.6131  1.0889  0.5981
26707SOL    HW283653  10.931   7.011  10.075  1.0751 -1.4970  0.9629
26708SOL     OW83654   3.755   6.394   0.427  0.4583  0.1191 -0.7132
26708SOL    HW183655   3.849   6.412   0.438  0.2477  1.0271 -0.3796
26708SOL    HW283656   3.712   6.477   0.445 -0.4656 -0.4544 -0.1970
26709SOL     OW83657  10.693   3.841   6.513  0.2306 -0.9026  0.4177
26709SOL    HW183658  10.684   3.746   6.523  1.8963 -1.1376  0.0260
26709SOL    HW283659  10.777   3.861   6.556  1.0097  0.0267 -1.4555
26710SOL     OW83660   9.466   4.306   2.733  0.0035 -0.2430 -0.3055
26710SOL    HW183661   9.475   4.335   2.823  0.5610  0.8633 -0.6964
26710SOL    HW283662   9.375   4.279   2.725  0.0188 -0.6035  0.6500
26711SOL     OW83663   4.664   8.198  10.476  0.3701 -0.2245  0.3049
26711SOL    HW183664   4.646   8.163  10.389 -1.1627  1.9894 -0.3665
26711SOL    HW283665   4.632   8.132  10.536 -0.7363 -0.7930 -0.8514
26712SOL     OW83666   9.993   2.348   4.357 -0.3409 -0.5372  0.0979
26712SOL    HW183667  10.076   2.365   4.402  0.0560 -1.5004 -0.2326
26712SOL    HW283668   9.938   2.305   4.422 -1.0300  1.1418  0.6727
26713SOL     OW83669   0.633   1.582   2.502 -0.1863  0.0207 -0.2432
26713SOL    HW183670   0.601   1.563   2.590  2.1228 -0.9745  0.4538
26713SOL    HW283671   0.673   1.668   2.509  0.3469 -0.2249 -0.1924
26714SOL     OW83672   2.330   5.970   9.422 -0.4168  0.0016 -0.0956
26714SOL    HW183673   2.370   6.056   9.437 -0.7978  1.0158 -3.8251
26714SOL    HW283674   2.245   5.976   9.467 -0.2991  1.4800  0.0017
26715SOL     OW83675   0.465   8.611   8.806  0.1908 -0.0796 -0.5597
26715SOL    HW183676   0.383   8.568   8.830  0.3176 -0.3321 -0.5693
26715SOL    HW283677   0.443   8.703   8.795  0.1759  0.0891  0.7877
26716SOL     OW83678   0.650   4.175   8.835 -0.2514 -0.4215 -0.0483
26716SOL    HW183679   0.704   4.198   8.759  0.8504 -0.6000  0.6668
26716SOL    HW283680   0.681   4.231   8.905  0.3304 -1.8650  0.8818
26717SOL     OW83681   9.400   4.617   1.375 -0.1131  0.1406 -0.3319
26717SOL    HW183682   9.357   4.532   1.383 -0.2448  0.2522  0.1919
26717SOL    HW283683   9.451   4.625   1.456 -0.9558  1.0271  0.1281
26718SOL     OW83684   1.455  10.000   6.777  0.2274  0.3212 -0.0119
26718SOL    HW183685   1.378   9.944   6.784  0.6109 -0.2875 -0.5009
26718SOL    HW283686   1.529   9.939   6.777  0.5890  0.6752 -1.9596
26719SOL     OW83687   1.199   1.152   3.263 -0.2463  0.7027 -0.2365
26719SOL    HW183688   1.209   1.124   3.172 -0.7826 -0.6624  0.1000
26719SOL    HW283689   1.106   1.140   3.282  0.2377 -1.2786  1.1684
26720SOL     OW83690   0.031   5.902   2.800  0.5232  0.2366 -0.3746
26720SOL    HW183691   0.106   5.901   2.860 -0.5989 -0.1912  1.0881
26720SOL    HW283692   0.040   5.821   2.750 -0.9732 -1.8970  2.5163
26721SOL     OW83693  10.934   6.384   2.299  0.5482 -0.1605  0.0444
26721SOL    HW183694  10.986   6.430   2.234  1.3470  1.4450  1.7419
26721SOL    HW283695  10.903   6.452   2.358  0.5039 -1.6273  1.7986
26722SOL     OW83696   1.204   9.065  10.150  0.4182 -0.1026 -0.1208
26722SOL    HW183697   1.278   9.122  10.130  1.9360 -1.4999  1.1656
26722SOL    HW283698   1.239   9.003  10.214 -1.6943 -1.2641 -0.0102
26723SOL     OW83699   8.206   4.086   9.920 -0.0975 -0.0702 -0.1974
26723SOL    HW183700   8.236   4.089  10.011 -1.8847  2.5885  0.4086
26723SOL    HW283701   8.229   3.998   9.891  1.5761 -0.6323  2.4299
26724SOL     OW83702   1.065   7.778   0.588  0.5589  0.6175  0.0475
26724SOL    HW183703   0.999   7.711   0.567  1.6979 -0.0808 -1.4890
26724SOL    HW283704   1.070   7.778   0.684 -2.2883  1.3421  0.2882
26725SOL     OW83705   5.676   5.256   0.062  0.1349 -0.4691 -0.0753
26725SOL    HW183706   5.650   5.251  -0.030  0.7128 -0.7055 -0.2352
26725SOL    HW283707   5.769   5.231   0.061  0.4397  0.6068  0.4327
26726SOL     OW83708   9.583   6.434   5.370  0.1115 -0.2024 -0.0325
26726SOL    HW183709   9.585   6.529   5.381  0.0973 -0.3057  0.8630
26726SOL    HW283710   9.650   6.401   5.429  0.4620 -0.7296 -0.7012
26727SOL     OW83711   1.631   0.818  10.213  0.0862  0.0211 -0.1091
26727SOL    HW183712   1.589   0.884  10.268 -1.9728  0.5431 -2.1188
26727SOL    HW283713   1.688   0.868  10.155  0.4811 -0.2605  0.0355
26728SOL     OW83714   4.035   6.441   8.610 -0.1254  0.1721  0.0945
26728SOL    HW183715   4.108   6.455   8.550 -0.9638 -0.7283 -1.2019
26728SOL    HW283716   3.976   6.515   8.595 -0.1696  0.1266  0.0385
26729SOL     OW83717   8.100   1.600   3.091  0.1615 -0.3133 -0.0788
26729SOL    HW183718   8.007   1.579   3.079  0.2648 -0.0638 -1.5390
26729SOL    HW283719   8.110   1.686   3.050  1.1964 -0.7380 -0.7654
26730SOL     OW83720   4.252   8.337   6.025  0.1839 -0.0380  0.0448
26730SOL    HW183721   4.171   8.369   5.986  0.8093  1.8552  0.1784
26730SOL    HW283722   4.235   8.333   6.119  0.3062  0.6071  0.0988
26731SOL     OW83723  10.924   0.245   4.957  0.0564 -0.3255  0.0090
26731SOL    HW183724  10.884   0.176   4.904  1.3172 -0.2878 -1.0525
26731SOL    HW283725  10.935   0.318   4.896  0.8660 -0.0204  0.5031
26732SOL     OW83726  10.484   0.024   7.051 -0.5168  0.6643 -0.1987
26732SOL    HW183727  10.407   0.065   7.089 -1.5000  0.3070 -1.7454
26732SOL    HW283728  10.494   0.065   6.965  2.3759  2.3433  0.7932
26733SOL     OW83729   5.172  10.740   4.993  0.3125  0.0887 -0.0063
26733SOL    HW183730   5.104  10.789   5.040 -0.1369  0.1245 -0.6884
26733SOL    HW283731   5.166  10.771   4.903  0.2158 -1.0320 -0.3921
26734SOL     OW83732   5.620   6.409  10.645 -0.3027  0.2208 -0.3931
26734SOL    HW183733   5.599   6.370  10.560 -3.6112  0.4266  0.2132
26734SOL    HW283734   5.700   6.363  10.673 -0.3649 -1.4133 -2.6102
26735SOL     OW83735  10.713   0.860   1.184 -0.5315  0.1803 -0.3659
26735SOL    HW183736  10.624   0.847   1.215  0.1242 -1.3789  1.0012
26735SOL    HW283737  10.749   0.927   1.243 -0.8789  1.0968 -1.1614
26736SOL     OW83738   6.766   9.269   1.839  0.1136  0.1637 -0.5664
26736SOL    HW183739   6.803   9.293   1.754  3.0655 -2.5218 -0.2437
26736SOL    HW283740   6.672   9.281   1.829  0.4365  0.8007 -3.9033
26737SOL     OW83741   7.357   2.704  10.858  0.2302  0.5584  0.2703
26737SOL    HW183742   7.395   2.666  10.780 -0.9249 -0.3695  0.1324
26737SOL    HW283743   7.431   2.742  10.906  1.4085 -1.6117  0.2752
26738SOL     OW83744   1.745   0.388   2.069  0.2024  0.0559 -0.1310
26738SOL    HW183745   1.785   0.356   1.989  1.0103  0.7635 -0.0153
26738SOL    HW283746   1.705   0.310   2.109 -0.1672 -0.3023 -1.1807
26739SOL     OW83747   0.809   5.177   0.196 -0.8488 -0.1309 -0.4304
26739SOL    HW183748   0.725   5.220   0.178 -0.4062  0.5786 -0.8411
26739SOL    HW283749   0.848   5.162   0.110 -0.7423 -0.8635 -0.2614
26740SOL     OW83750   5.020   5.387   6.474  0.2691  0.4492  0.0646
26740SOL    HW183751   5.001   5.321   6.542 -0.8518  0.7849  0.1051
26740SOL    HW283752   5.088   5.442   6.512  2.5398 -1.6833 -0.6452
26741SOL     OW83753  11.039   5.720   8.686  0.1134  0.1531  0.2790
26741SOL    HW183754  11.025   5.626   8.672 -1.0141 -0.1757  2.9046
26741SOL    HW283755  11.104   5.745   8.621  1.2327 -2.6916  0.1546
26742SOL     OW83756   9.133   6.474   6.116 -0.0277 -0.0843  0.1074
26742SOL    HW183757   9.099   6.401   6.168  1.3153  0.4594  1.8409
26742SOL    HW283758   9.153   6.542   6.180  0.4027  1.1538 -1.2878
26743SOL     OW83759   8.193   1.067   2.119 -0.3851  0.3613  0.6412
26743SOL    HW183760   8.188   1.065   2.023 -1.1069  4.1269  0.4572
26743SOL    HW283761   8.284   1.088   2.137 -0.1897 -0.6057  0.8324
26744SOL     OW83762   1.143   0.909   0.363  0.1232  0.0329  0.8726
26744SOL    HW183763   1.063   0.962   0.359  0.9951  1.3507 -0.3817
26744SOL    HW283764   1.214   0.974   0.370  1.1558 -1.0376  0.6327
26745SOL     OW83765   9.480   2.865   3.427 -0.4916  0.5333 -0.5102
26745SOL    HW183766   9.527   2.880   3.509  0.5707  0.4864 -1.0851
26745SOL    HW283767   9.506   2.777   3.401  1.5728  1.5928 -2.3663
26746SOL     OW83768  11.025   4.103   6.779 -0.3001 -0.1019  0.1385
26746SOL    HW183769  11.055   4.012   6.788  0.4454  0.1822  0.6044
26746SOL    HW283770  11.101   4.156   6.801 -1.0249  0.6469  0.9470
26747SOL     OW83771   5.155   6.455  10.505  0.4485  0.2357 -0.4204
26747SOL    HW183772   5.093   6.503  10.560 -0.3161  0.7574 -1.6926
26747SOL    HW283773   5.190   6.387  10.562 -0.3965  0.6901  0.6720
26748SOL     OW83774   8.386   7.145   2.029  0.5254 -0.3925  0.0543
26748SOL    HW183775   8.433   7.166   1.948 -0.5132 -0.6664 -0.6451
26748SOL    HW283776   8.382   7.049   2.030  1.4470 -0.4351  0.9889
26749SOL     OW83777   7.152   7.002  10.294  0.3178 -0.6466  0.0261
26749SOL    HW183778   7.140   6.978  10.385 -1.2437 -1.1073 -0.2765
26749SOL    HW283779   7.093   6.944  10.246 -0.4742  0.9982 -1.0920
26750SOL     OW83780   8.060   4.092   4.911 -0.0392 -0.3946 -0.0491
26750SOL    HW183781   8.043   4.062   4.822 -1.0315  0.8722 -0.3303
26750SOL    HW283782   8.151   4.119   4.910 -0.5094  1.3480 -1.2658
26751SOL     OW83783   1.404   1.085   4.547  0.2201 -0.2463 -0.0120
26751SOL    HW183784   1.316   1.115   4.572 -0.3222 -0.2864 -1.7325
26751SOL    HW283785   1.404   0.992   4.569 -0.2385 -0.2862 -0.1627
26752SOL     OW83786   1.931   4.879   2.561 -0.2852 -0.3791 -0.1004
26752SOL    HW183787   2.012   4.912   2.598 -0.3673  2.3567 -2.0742
26752SOL    HW283788   1.956   4.837   2.479 -0.7419 -0.5316 -0.1688
26753SOL     OW83789   6.544   8.446   4.655 -0.4427 -0.5544 -0.2919
26753SOL    HW183790   6.521   8.508   4.585 -1.8763 -3.3540 -2.5119
26753SOL    HW283791   6.627   8.407   4.626 -0.4533 -0.9186  0.1651
26754SOL     OW83792   4.456  10.446   9.891 -0.2331  0.0926 -0.6016
26754SOL    HW183793   4.498  10.490   9.817  0.8727  1.7244  0.9156
26754SOL    HW283794   4.525  10.394   9.930 -0.6974 -0.3930 -0.4076
26755SOL     OW83795   7.612   2.845   7.336  0.3338  0.1769 -0.5176
26755SOL    HW183796   7.577   2.930   7.365 -1.0082 -0.9486  1.4052
26755SOL    HW283797   7.704   2.863   7.317  0.0979  2.0703 -0.1554
26756SOL     OW83798   7.370   1.842   1.996  0.3277  0.4667 -0.4694
26756SOL    HW183799   7.353   1.804   2.082  1.6821 -0.0958 -0.4339
26756SOL    HW283800   7.324   1.783   1.936  0.9970 -0.2701 -0.2753
26757SOL     OW83801   1.728   5.164   5.184  0.0131  0.6334  0.0505
26757SOL    HW183802   1.718   5.191   5.093 -2.0835  0.8525  0.2887
26757SOL    HW283803   1.697   5.239   5.235 -0.9375 -0.2806  0.8603
26758SOL     OW83804   9.380   0.300   3.197 -0.1396  0.0767 -0.1785
26758SOL    HW183805   9.308   0.264   3.146  0.6540  2.2261 -3.0564
26758SOL    HW283806   9.345   0.380   3.236  0.2639  0.3421 -0.3515
26759SOL     OW83807   0.466   2.837   1.135 -0.7962 -0.3886 -0.5652
26759SOL    HW183808   0.553   2.862   1.168 -1.3042  0.2178  0.3784
26759SOL    HW283809   0.436   2.771   1.197 -1.6995  0.6409  0.1269
26760SOL     OW83810   7.438   6.903   6.104  0.2748  0.6745  0.4898
26760SOL    HW183811   7.401   6.965   6.042 -1.2371  0.1727  0.8401
26760SOL    HW283812   7.421   6.942   6.190  0.1407  0.2160  0.6766
26761SOL     OW83813   3.702   5.259   8.051  0.1067 -0.1175  0.2127
26761SOL    HW183814   3.697   5.165   8.064  2.0039 -0.2872  0.0534
26761SOL    HW283815   3.791   5.282   8.078 -0.2872  1.6253  0.1834
26762SOL     OW83816   7.918   5.935   8.436 -0.1188 -0.1005 -0.6362
26762SOL    HW183817   7.921   6.023   8.397 -0.3272  0.4476  0.5280
26762SOL    HW283818   7.885   5.879   8.366  0.7883  0.6007 -1.6521
26763SOL     OW83819   5.290  10.254   2.777 -0.2242  0.1058  0.4343
26763SOL    HW183820   5.273  10.295   2.692 -2.3523 -0.6100  0.4593
26763SOL    HW283821   5.240  10.308   2.840 -1.9928 -1.6675  0.6378
26764SOL     OW83822   4.571   4.157   3.971 -0.2129  0.1368  0.1317
26764SOL    HW183823   4.507   4.099   3.932  0.0592  0.0918 -0.2561
26764SOL    HW283824   4.520   4.225   4.015 -0.5635  1.1848 -1.7518
26765SOL     OW83825   6.745  10.281   4.560 -0.3008  0.4623  0.0450
26765SOL    HW183826   6.655  10.249   4.556 -0.6736  1.3302  1.1383
26765SOL    HW283827   6.748  10.352   4.495 -0.1178 -0.2122 -0.6980
26766SOL     OW83828   2.937   6.231  10.061  0.0097 -0.0625  0.0614
26766SOL    HW183829   2.967   6.276   9.982 -1.5613 -1.9619 -1.7124
26766SOL    HW283830   2.860   6.182  10.034  1.9336 -4.4675  1.5592
26767SOL     OW83831   6.614   2.367   3.411 -0.0472 -0.0585 -0.7434
26767SOL    HW183832   6.532   2.335   3.371 -0.4853  0.3405 -0.1822
26767SOL    HW283833   6.680   2.302   3.385 -0.5529 -0.4245 -1.1473
26768SOL     OW83834   9.462  10.811   1.484  0.7147 -0.1089  0.5060
26768SOL    HW183835   9.524  10.871   1.525 -0.3195  2.4200 -1.3193
26768SOL    HW283836   9.379  10.828   1.527 -0.0762  1.5720 -1.4797
26769SOL     OW83837   3.033   7.750   5.993 -0.4730 -0.1029 -0.1913
26769SOL    HW183838   3.049   7.729   6.085  1.4264  2.8149  0.2843
26769SOL    HW283839   2.950   7.799   5.994  0.4135  1.4559  0.3066
26770SOL     OW83840   9.921   1.406   0.023 -0.5823 -0.2259 -0.1523
26770SOL    HW183841   9.971   1.325   0.025 -0.9965 -0.5186 -1.1431
26770SOL    HW283842   9.987   1.475   0.018 -0.2349 -0.5032  0.5149
26771SOL     OW83843   4.418   6.729   2.098  0.1427  0.3095  0.0354
26771SOL    HW183844   4.364   6.802   2.129 -0.1457  0.8561 -1.6835
26771SOL    HW283845   4.478   6.768   2.035 -1.0473 -1.1129 -2.1316
26772SOL     OW83846   6.609   3.808   3.413 -0.2875  0.9086 -0.1243
26772SOL    HW183847   6.695   3.812   3.455 -0.3677 -1.0658  0.3155
26772SOL    HW283848   6.620   3.858   3.332  1.6683 -0.3254 -0.7028
26773SOL     OW83849   7.081   4.113   7.480  0.3967 -0.5531  0.1895
26773SOL    HW183850   7.102   4.060   7.403  0.6746  0.8848 -0.7530
26773SOL    HW283851   7.119   4.064   7.553  0.8387 -1.5317 -0.6622
26774SOL     OW83852   8.580   7.524   8.562 -0.8697 -0.3643  0.9468
26774SOL    HW183853   8.627   7.445   8.537 -1.0138 -0.2079  0.1613
26774SOL    HW283854   8.617   7.592   8.506 -0.1682  0.3110  2.1657
26775SOL     OW83855   9.040   7.803   5.936  0.1812 -0.3054  0.0042
26775SOL    HW183856   8.968   7.858   5.903  1.4984  1.3165 -0.2786
26775SOL    HW283857   9.044   7.730   5.874 -0.2422  0.3882 -0.8750
26776SOL     OW83858   7.224   3.210  10.179  0.0421 -0.7742  0.5687
26776SOL    HW183859   7.138   3.222  10.217 -0.7245 -0.0868 -1.2538
26776SOL    HW283860   7.224   3.119  10.148 -0.2504 -0.6031  0.0615
26777SOL     OW83861   9.958   6.894   1.936  0.4379  0.6099 -0.4948
26777SOL    HW183862  10.018   6.946   1.883  0.1665  0.5411 -0.8699
26777SOL    HW283863  10.013   6.859   2.007  0.7123  1.0328 -0.5001
26778SOL     OW83864  10.707   0.672   8.011 -0.2187 -0.4201 -0.2666
26778SOL    HW183865  10.746   0.660   8.098 -0.2282  0.4666 -0.1327
26778SOL    HW283866  10.747   0.603   7.958  1.2230  0.1900 -0.0172
26779SOL     OW83867   8.357   6.316   0.371 -0.2909 -0.3194 -0.4397
26779SOL    HW183868   8.334   6.267   0.451  0.2230  1.3017  0.7584
26779SOL    HW283869   8.277   6.362   0.347 -0.6674 -1.4031 -1.3503
26780SOL     OW83870  10.370   7.619   8.041  0.2816 -0.2133  0.2805
26780SOL    HW183871  10.428   7.558   8.085  0.7384 -1.0933 -1.4492
26780SOL    HW283872  10.429   7.675   7.990 -0.3300 -1.2009 -1.6048
26781SOL     OW83873   2.936   9.780   1.461  0.3698 -0.1233  0.1780
26781SOL    HW183874   2.944   9.861   1.512 -2.0270  0.3673 -0.1241
26781SOL    HW283875   2.843   9.773   1.440  0.5984 -2.6292 -0.3899
26782SOL     OW83876   2.506   0.285   1.241 -0.2350 -0.5564 -0.7388
26782SOL    HW183877   2.509   0.240   1.325  1.6148 -0.8418 -0.9149
26782SOL    HW283878   2.413   0.288   1.218 -0.6510 -1.6141  0.6944
26783SOL     OW83879   4.248   0.453   4.059 -0.5992  0.2218  0.4337
26783SOL    HW183880   4.232   0.358   4.055 -0.4896  0.1906  0.7740
26783SOL    HW283881   4.308   0.469   3.985  1.1699 -0.3342  1.6637
26784SOL     OW83882   8.708   5.627   8.517 -0.0099  0.0187 -0.6865
26784SOL    HW183883   8.794   5.632   8.558 -0.3813 -0.5649  0.2124
26784SOL    HW283884   8.697   5.535   8.496 -1.5559 -0.4930  1.8827
26785SOL     OW83885   7.495   5.662   7.718  0.5335  0.6309 -0.3928
26785SOL    HW183886   7.573   5.708   7.686  0.9398  0.0642 -0.2407
26785SOL    HW283887   7.436   5.658   7.642  1.2834 -0.2696 -0.9518
26786SOL     OW83888   2.037   2.257   9.810  0.2193 -0.5810  0.0852
26786SOL    HW183889   2.081   2.284   9.890  1.3349 -0.7675 -0.4500
26786SOL    HW283890   2.100   2.275   9.740 -1.3289  1.1028 -0.9680
26787SOL     OW83891   4.580   6.503   1.792  0.0699  0.6775  0.0460
26787SOL    HW183892   4.599   6.410   1.789  3.7363  1.2586 -3.3754
26787SOL    HW283893   4.643   6.539   1.854 -0.7603  1.0369  0.7075
26788SOL     OW83894   5.871   7.116   0.194 -0.5399  0.5176 -0.2030
26788SOL    HW183895   5.840   7.093   0.282  0.1017  0.7687  0.0899
26788SOL    HW283896   5.820   7.194   0.171  0.3851  1.4038  0.6014
26789SOL     OW83897   4.958   2.067  10.339  0.1281  0.2535 -0.3804
26789SOL    HW183898   5.036   2.092  10.290  0.6037  0.9843  0.7059
26789SOL    HW283899   4.983   1.986  10.384 -0.0003  0.0794 -0.6192
26790SOL     OW83900   6.242   0.923   0.653 -0.4502  0.2867  0.1188
26790SOL    HW183901   6.256   0.987   0.583 -0.5241  2.1709  1.7510
26790SOL    HW283902   6.265   0.969   0.733 -1.7812 -1.3270  1.5069
26791SOL     OW83903   9.405   8.404   3.907 -0.6547  0.4880  0.1403
26791SOL    HW183904   9.477   8.467   3.901 -0.5506  0.3563 -0.0310
26791SOL    HW283905   9.417   8.361   3.992 -0.1321 -0.0034 -0.1681
26792SOL     OW83906   2.111   9.096   2.717  0.0349  0.4955 -0.4273
26792SOL    HW183907   2.085   9.121   2.628 -0.5290 -0.3579 -0.5159
26792SOL    HW283908   2.030   9.065   2.758  0.2755  0.9412  0.4098
26793SOL     OW83909   4.877   9.407  10.952 -0.4206 -0.2263 -0.2370
26793SOL    HW183910   4.858   9.463  11.027  1.7883  1.1518 -0.6188
26793SOL    HW283911   4.967   9.429  10.928 -0.3178 -2.2249 -1.9338
26794SOL     OW83912   6.081   8.401   8.234 -0.2625  0.0140  0.2565
26794SOL    HW183913   6.140   8.432   8.302 -0.1698  0.0239  0.1714
26794SOL    HW283914   6.128   8.417   8.152 -0.1778 -0.4315  0.2163
26795SOL     OW83915   9.518   5.144   8.689  0.1920 -0.0028  0.7866
26795SOL    HW183916   9.550   5.086   8.757  1.4614  0.7570  0.8726
26795SOL    HW283917   9.591   5.204   8.671  1.3572 -2.2817 -3.6746
26796SOL     OW83918   7.891   4.280   4.628 -0.3705  0.4697  0.0831
26796SOL    HW183919   7.920   4.189   4.630  0.1770  0.6512  0.6901
26796SOL    HW283920   7.815   4.280   4.570 -1.0403 -0.5697  0.9247
26797SOL     OW83921   5.172   3.543   7.543 -0.1816  0.2754 -0.2928
26797SOL    HW183922   5.144   3.606   7.609 -1.7492 -1.0613  0.4069
26797SOL    HW283923   5.095   3.533   7.486 -0.1732 -1.3425 -0.0754
26798SOL     OW83924   7.048   0.262   9.990  0.0031  0.7837  0.3678
26798SOL    HW183925   7.102   0.323  10.040 -0.5576 -0.0837  2.1473
26798SOL    HW283926   6.969   0.251  10.043 -0.9086  0.2564 -1.0385
26799SOL     OW83927   9.534   2.595   3.402  0.4127  0.0464  0.0596
26799SOL    HW183928   9.601   2.528   3.411  0.5591 -0.0256 -1.3189
26799SOL    HW283929   9.456   2.548   3.374 -0.0586  0.2113  1.0426
26800SOL     OW83930   7.893  10.711   1.413 -0.2775  0.1515 -0.8599
26800SOL    HW183931   7.860  10.678   1.329 -2.2258 -0.3457  0.0511
26800SOL    HW283932   7.932  10.634   1.455 -0.2833  0.1489 -0.8589
26801SOL     OW83933   2.308   4.502  11.103  0.3221  0.0489 -0.2801
26801SOL    HW183934   2.306   4.480  11.010  0.7522  0.1105 -0.3058
26801SOL    HW283935   2.398   4.483  11.130  0.5099  1.0752 -0.1326
26802SOL     OW83936   4.022  10.022   3.887  0.7265  0.1933  0.2378
26802SOL    HW183937   4.086  10.082   3.848  0.5391  0.1665 -0.1190
26802SOL    HW283938   3.937  10.055   3.858  0.6850 -1.2794 -1.5119
26803SOL     OW83939   7.839  10.094   6.464  0.1147  0.0554 -0.6537
26803SOL    HW183940   7.785  10.098   6.385  0.8523 -0.2447 -1.1829
26803SOL    HW283941   7.812  10.013   6.507 -1.1108  0.7875  0.0263
26804SOL     OW83942   1.475   2.899   8.636 -0.3228 -0.8156  0.3104
26804SOL    HW183943   1.466   2.804   8.644  1.7980 -1.3162 -2.0613
26804SOL    HW283944   1.563   2.912   8.601 -0.8952  1.9794 -0.2988
26805SOL     OW83945   8.713   2.865   0.853 -0.7826 -0.6839 -0.2744
26805SOL    HW183946   8.681   2.931   0.915 -0.9239 -0.9035 -0.1076
26805SOL    HW283947   8.798   2.838   0.888 -0.3207  0.0439 -0.8280
26806SOL     OW83948   9.698   2.501   0.467  0.6565 -0.2162  0.4232
26806SOL    HW183949   9.786   2.523   0.498  0.2962  1.9629  0.0937
26806SOL    HW283950   9.653   2.468   0.545  2.0402 -2.5080  0.3452
26807SOL     OW83951   3.386   2.254   2.415 -0.6105  0.2564 -0.0741
26807SOL    HW183952   3.469   2.275   2.458 -0.4999  1.4218 -0.8335
26807SOL    HW283953   3.410   2.193   2.345 -0.3637  0.7539 -0.4251
26808SOL     OW83954   7.589   3.974   7.735 -0.5602 -0.0440 -0.4178
26808SOL    HW183955   7.604   3.894   7.786 -1.5468 -0.1374 -0.2533
26808SOL    HW283956   7.519   3.950   7.674  0.8699 -0.0515 -2.1222
26809SOL     OW83957   8.006   3.661   8.343 -0.0802  0.1215 -0.3503
26809SOL    HW183958   8.092   3.625   8.365 -0.8601 -1.1803  0.7626
26809SOL    HW283959   7.980   3.710   8.422 -1.0786 -0.9675  0.0212
26810SOL     OW83960   0.481   3.120   1.806 -0.3208 -0.3424  0.3156
26810SOL    HW183961   0.420   3.179   1.762 -0.6826 -0.0945  1.1388
26810SOL    HW283962   0.451   3.118   1.897 -1.3118 -3.0219  0.0214
26811SOL     OW83963   0.749   5.558   8.930  0.3627 -0.3618  0.0319
26811SOL    HW183964   0.657   5.545   8.953 -0.1350  2.2215 -0.1643
26811SOL    HW283965   0.791   5.582   9.012  0.4956  0.0946 -0.1659
26812SOL     OW83966   7.705   4.953   6.418  0.0725 -0.4315 -0.2319
26812SOL    HW183967   7.791   4.918   6.397  0.0545 -0.9086  0.4400
26812SOL    HW283968   7.712   5.047   6.402  1.0291 -0.3131  0.7610
26813SOL     OW83969   3.603  11.000   7.400 -0.1194 -0.1568 -0.0073
26813SOL    HW183970   3.646  11.004   7.315  1.7943  0.1965  0.9217
26813SOL    HW283971   3.524  11.052   7.390 -1.6535 -2.6904 -2.4353
26814SOL     OW83972   7.550   0.979   0.134 -0.3027  0.2220 -0.0575
26814SOL    HW183973   7.464   0.993   0.174 -0.1000 -1.5774  1.1011
26814SOL    HW283974   7.531   0.939   0.049 -0.6098 -0.1333  0.1776
26815SOL     OW83975   0.131   7.858   1.331  0.3142  1.1928 -0.0805
26815SOL    HW183976   0.183   7.783   1.304  0.1199  0.0953  2.3298
26815SOL    HW283977   0.176   7.934   1.293  0.7502 -0.0487 -2.2206
26816SOL     OW83978   4.733   8.603   1.901 -0.3179  0.0949  0.2099
26816SOL    HW183979   4.773   8.685   1.930 -0.6168  1.0347 -1.9179
26816SOL    HW283980   4.807   8.547   1.879 -0.1321  0.5489 -0.3318
26817SOL     OW83981   7.420   0.416   0.559 -0.9543  0.7106 -0.4932
26817SOL    HW183982   7.468   0.494   0.583  0.7339 -0.4693  0.1430
26817SOL    HW283983   7.432   0.408   0.464  0.7602  0.0611 -0.2524
26818SOL     OW83984   6.944   4.359   3.115 -0.6064  0.5001 -0.1584
26818SOL    HW183985   7.037   4.365   3.091 -0.6981 -1.2423 -1.0970
26818SOL    HW283986   6.898   4.360   3.031 -1.3574  0.1781  0.2466
26819SOL     OW83987   0.692   3.658   6.618  0.0927  0.2829 -0.0123
26819SOL    HW183988   0.705   3.738   6.669  1.8051  0.1920 -0.2761
26819SOL    HW283989   0.686   3.688   6.527  3.1691 -0.0234 -0.3968
26820SOL     OW83990   4.679   8.971   1.863 -0.4870  0.2596  0.1026
26820SOL    HW183991   4.765   8.955   1.901  0.4441  0.4887 -1.7604
26820SOL    HW283992   4.618   8.967   1.937  1.0785 -0.1817  1.4231
26821SOL     OW83993   2.187   2.970   6.096  0.0284 -0.1740 -0.3400
26821SOL    HW183994   2.157   3.052   6.135  1.6315 -0.4262  1.5781
26821SOL    HW283995   2.186   2.907   6.168  0.7495 -1.3281 -1.2990
26822SOL     OW83996   1.080   1.224   6.794 -0.0163 -0.8630  0.1197
26822SOL    HW183997   0.987   1.222   6.816  0.0787 -0.5836  0.5671
26822SOL    HW283998   1.087   1.293   6.728 -0.2952 -1.6746 -0.7837
26823SOL     OW83999   7.234   0.499  10.462 -0.0226  0.5458  0.5514
26823SOL    HW184000   7.234   0.548  10.545 -0.2524  0.1722  0.7750
26823SOL    HW284001   7.322   0.512  10.427  0.2631  0.2463  1.1372
26824SOL     OW84002   1.743   3.753   4.467 -0.3335 -0.4855 -0.2514
26824SOL    HW184003   1.659   3.792   4.490  0.2359  0.4261  0.3245
26824SOL    HW284004   1.767   3.794   4.384 -0.7122 -1.1516 -0.6936
26825SOL     OW84005   2.022   2.284   6.572  0.3359  0.0441 -0.4031
26825SOL    HW184006   1.932   2.298   6.601 -0.3202  1.0445 -2.6645
26825SOL    HW284007   2.056   2.217   6.630 -1.8956 -0.4171  0.4668
26826SOL     OW84008  11.064   9.673  11.125  0.3928  0.0451 -0.2194
26826SOL    HW184009  10.998   9.742  11.113 -0.1766 -0.5262 -0.4386
26826SOL    HW284010  11.116   9.676  11.044  0.7192  0.5833  0.0071
26827SOL     OW84011   5.746   5.869   2.305  0.6729 -0.0940  0.5068
26827SOL    HW184012   5.740   5.775   2.290  3.5951  0.0686 -3.0598
26827SOL    HW284013   5.836   5.884   2.334  0.8447  1.6979 -0.7427
26828SOL     OW84014   4.396   7.577   9.841  0.1198  0.3266  0.0182
26828SOL    HW184015   4.308   7.603   9.814 -0.5370 -0.5631  1.1961
26828SOL    HW284016   4.441   7.557   9.760 -1.5086 -1.4419 -0.5217
26829SOL     OW84017   0.192   1.066   9.695 -0.3244  0.3771  0.3753
26829SOL    HW184018   0.105   1.092   9.664  0.2612  1.1930 -0.6644
26829SOL    HW284019   0.221   1.000   9.632  0.1682  0.7636  0.1922
26830SOL     OW84020   2.145   3.351   6.800  0.6942 -0.4960 -0.2924
26830SOL    HW184021   2.168   3.276   6.856  0.9800 -0.2477 -0.0645
26830SOL    HW284022   2.068   3.323   6.752 -0.7835 -0.0381  1.6593
26831SOL     OW84023   7.602  10.590   0.087 -0.2934 -0.0789  0.1818
26831SOL    HW184024   7.656  10.666   0.112  0.6139 -0.5973 -0.1801
26831SOL    HW284025   7.631  10.568  -0.001 -0.4821 -0.9032  0.3181
26832SOL     OW84026   8.278   7.470   8.982  0.0528  0.1666 -0.2044
26832SOL    HW184027   8.190   7.460   8.945 -0.0547 -0.2248  0.1495
26832SOL    HW284028   8.263   7.501   9.071  0.2092 -1.1072  0.2926
26833SOL     OW84029   2.932   2.354   9.889  0.5049  0.5033  0.2060
26833SOL    HW184030   2.890   2.404   9.819  1.4497  2.9837  1.2840
26833SOL    HW284031   2.877   2.277   9.900 -1.3216  1.5078 -1.2753
26834SOL     OW84032   8.967   3.762   0.731  0.2828  0.2158  0.2135
26834SOL    HW184033   9.059   3.770   0.755  0.5418 -1.4666 -0.1070
26834SOL    HW284034   8.941   3.851   0.707  2.1795  0.5208 -0.9604
26835SOL     OW84035   3.990   8.116   0.987  0.2638 -0.3300 -0.4107
26835SOL    HW184036   3.982   8.146   1.077 -0.3063 -1.4639 -0.0524
26835SOL    HW284037   3.969   8.192   0.934 -1.5784 -0.1751  0.4580
26836SOL     OW84038  10.305   3.252   1.616 -0.0603  0.2441 -0.0656
26836SOL    HW184039  10.215   3.248   1.648  0.7165  0.3848  2.3620
26836SOL    HW284040  10.315   3.175   1.560 -1.1687 -0.8169  1.1436
26837SOL     OW84041   5.299   4.379   4.873 -0.2816 -0.3096 -0.2160
26837SOL    HW184042   5.217   4.360   4.919  1.0273 -1.0790  1.9820
26837SOL    HW284043   5.325   4.296   4.834 -0.0397 -0.3359 -0.0054
26838SOL     OW84044   6.294   2.017   3.443  0.2785 -0.2826  0.4358
26838SOL    HW184045   6.204   2.015   3.409  0.5167 -0.5748 -0.2007
26838SOL    HW284046   6.329   2.100   3.410  0.3676 -0.3556  0.3464
26839SOL     OW84047   5.387   4.588   5.582  0.3447  0.6678 -0.7709
26839SOL    HW184048   5.464   4.646   5.585  0.0571  1.0292  0.0983
26839SOL    HW284049   5.424   4.500   5.577  0.8095  0.8644 -0.8997
26840SOL     OW84050   1.040   8.933   3.035  0.1148 -0.2223 -0.5021
26840SOL    HW184051   0.965   8.874   3.048  0.8116 -0.9771  0.1798
26840SOL    HW284052   1.002   9.009   2.991 -0.9310 -0.8872 -0.8023
26841SOL     OW84053   8.062   4.134  10.914  0.1536 -0.0608  0.2149
26841SOL    HW184054   8.054   4.171  11.003 -0.7613 -0.9257  0.5064
26841SOL    HW284055   7.987   4.169  10.867  0.0040 -0.5258  0.1127
26842SOL     OW84056   5.116   8.317   4.129 -0.2959  0.1554  0.7186
26842SOL    HW184057   5.125   8.223   4.149  0.7337 -0.0308 -0.4968
26842SOL    HW284058   5.172   8.330   4.053  0.4376  1.9984  1.5254
26843SOL     OW84059   3.298   0.575   7.599 -0.2939 -0.0953  0.1345
26843SOL    HW184060   3.223   0.554   7.654 -1.7741 -1.3088 -2.1695
26843SOL    HW284061   3.295   0.671   7.590  0.1643  0.1610  2.2896
26844SOL     OW84062   7.360   9.695  10.557  0.3656  0.6342 -0.6847
26844SOL    HW184063   7.322   9.661  10.639  0.5612 -1.3880 -1.3772
26844SOL    HW284064   7.290   9.684  10.492  1.0800 -0.2435 -1.3236
26845SOL     OW84065   4.288   2.509   3.868  0.2236 -0.2544 -0.0980
26845SOL    HW184066   4.247   2.566   3.802 -1.6084 -0.8042  0.5296
26845SOL    HW284067   4.232   2.516   3.944  2.7248  0.9859  1.7854
26846SOL     OW84068   4.928   4.483   1.606  0.0272  0.1666 -0.4790
26846SOL    HW184069   5.012   4.528   1.602 -0.3366  0.9548  0.3914
26846SOL    HW284070   4.937   4.410   1.544  1.4550  0.0550 -0.1894
26847SOL     OW84071   7.094   7.503   2.414 -0.7101  0.0786  0.1027
26847SOL    HW184072   7.018   7.546   2.453 -0.5691 -1.3800  2.1583
26847SOL    HW284073   7.169   7.540   2.462 -0.3837 -0.5545  0.0872
26848SOL     OW84074   4.567  10.108   7.001 -0.0068  0.4042 -0.0635
26848SOL    HW184075   4.655  10.130   6.971 -0.9844  3.1488 -1.2322
26848SOL    HW284076   4.562  10.146   7.089  0.4648 -1.1788  0.6709
26849SOL     OW84077   3.777  10.777   2.424  0.3216 -0.2435  0.2192
26849SOL    HW184078   3.834  10.708   2.458 -0.4542 -1.2495 -0.4742
26849SOL    HW284079   3.811  10.794   2.336 -0.6745 -1.1421 -0.3582
26850SOL     OW84080   2.512   6.706   8.202  0.2825  0.3696 -0.2035
26850SOL    HW184081   2.492   6.798   8.186 -3.4565 -0.1196  0.7345
26850SOL    HW284082   2.508   6.665   8.116 -4.1531  0.2524 -0.1450
26851SOL     OW84083   7.620   7.749   7.059  0.3878 -0.1599 -0.2217
26851SOL    HW184084   7.678   7.809   7.105  1.8934 -2.7629  1.5150
26851SOL    HW284085   7.660   7.738   6.972  1.7608 -0.8262  0.4632
26852SOL     OW84086   7.874   5.339   2.723 -0.0919  0.0611 -0.4418
26852SOL    HW184087   7.880   5.365   2.631  0.9967  1.4603 -0.0090
26852SOL    HW284088   7.844   5.418   2.768 -1.6598 -0.8965  0.3085
26853SOL     OW84089   5.389   7.754   0.076 -0.0855  0.2463 -0.1797
26853SOL    HW184090   5.306   7.791   0.045 -0.0494  0.7610  0.3048
26853SOL    HW284091   5.456   7.802   0.028 -0.0628  0.1110 -0.2812
26854SOL     OW84092   3.193   0.068   7.207  0.2137 -0.1564 -0.9089
26854SOL    HW184093   3.123   0.011   7.238 -1.0948  1.8932  0.1393
26854SOL    HW284094   3.231   0.104   7.287  0.1218  1.4113 -1.5335
26855SOL     OW84095   8.828   2.088   3.307 -0.7615 -0.0952 -0.2470
26855SOL    HW184096   8.845   2.117   3.396  0.0682 -1.1228 -0.0458
26855SOL    HW284097   8.761   2.147   3.274  1.0020  2.2050  0.0300
26856SOL     OW84098   5.365   6.178   1.103 -0.2179  0.1505  0.2440
26856SOL    HW184099   5.329   6.261   1.136 -2.7172 -0.4453 -0.7718
26856SOL    HW284100   5.342   6.114   1.170  0.3969  0.0133  0.3284
26857SOL     OW84101   1.688   0.322   8.115 -0.3746  0.0305  0.4227
26857SOL    HW184102   1.783   0.338   8.112 -0.1038 -1.5071 -1.7548
26857SOL    HW284103   1.666   0.328   8.208  1.7384  0.9753  0.9402
26858SOL     OW84104  10.153   5.059   6.284  0.1860 -0.0992 -0.2122
26858SOL    HW184105  10.116   5.145   6.264 -2.0332 -0.8149  0.5272
26858SOL    HW284106  10.228   5.077   6.341 -1.5706  1.2861  1.7926
26859SOL     OW84107   6.693   3.191   3.961  0.2045 -0.2050 -0.2430
26859SOL    HW184108   6.634   3.115   3.958 -0.1266  0.0802 -1.0565
26859SOL    HW284109   6.766   3.161   4.015 -1.4076 -0.0306  2.1955
26860SOL     OW84110   5.340   9.975   9.931 -0.0817 -0.0414  0.3633
26860SOL    HW184111   5.414   9.925   9.897  1.5595  1.4713  1.5276
26860SOL    HW284112   5.272   9.967   9.863  0.5935 -2.5953 -0.1266
26861SOL     OW84113   8.049   1.147   7.927 -0.1020 -0.0060  0.2368
26861SOL    HW184114   8.031   1.157   8.020 -0.4714 -1.1263  0.2965
26861SOL    HW284115   7.982   1.086   7.896 -1.2542  1.8808 -1.1929
26862SOL     OW84116   9.626   4.263   5.853 -0.0734 -0.1953  0.3931
26862SOL    HW184117   9.657   4.208   5.781 -1.4405  0.7810 -1.0363
26862SOL    HW284118   9.634   4.352   5.820  0.8051  0.4031  2.1230
26863SOL     OW84119   6.401   7.278   3.148 -0.1768 -0.3708  0.1107
26863SOL    HW184120   6.443   7.343   3.092 -3.4728  0.0111 -2.2142
26863SOL    HW284121   6.443   7.195   3.125 -0.6167 -0.0316 -2.1866
26864SOL     OW84122  10.950   7.042   3.095 -0.1553  0.7681  0.3424
26864SOL    HW184123  10.935   7.136   3.084 -0.0885  0.6310 -1.1140
26864SOL    HW284124  10.954   7.008   3.006 -0.8240 -0.7307  0.8570
26865SOL     OW84125   5.896   3.646   3.197  0.1096  0.1397 -0.6949
26865SOL    HW184126   5.839   3.597   3.256  1.1878  1.4403  1.5732
26865SOL    HW284127   5.903   3.591   3.119 -2.0965 -1.2560  0.0009
26866SOL     OW84128   9.833   0.082   5.711 -0.3064  0.0767  0.4456
26866SOL    HW184129   9.800   0.112   5.797  1.2383  2.0795  0.4301
26866SOL    HW284130   9.821   0.158   5.654  3.5096  0.7726  0.2834
26867SOL     OW84131   6.934  11.101   0.531  0.2322 -0.4787 -0.5872
26867SOL    HW184132   6.949  11.178   0.477 -2.1987  1.0846  0.8091
26867SOL    HW284133   6.877  11.045   0.477  0.5021 -0.4622 -0.8922
26868SOL     OW84134   2.159   1.442   1.663  0.2248  0.7029 -0.0240
26868SOL    HW184135   2.149   1.414   1.572 -0.6201 -2.5784  0.9452
26868SOL    HW284136   2.099   1.516   1.672 -1.2596 -0.2276 -1.6726
26869SOL     OW84137   7.145  10.518   2.605 -0.1364  0.1991  0.0832
26869SOL    HW184138   7.237  10.509   2.627 -0.2271  0.3481  0.5346
26869SOL    HW284139   7.118  10.431   2.575  0.8695  0.7902 -2.8710
26870SOL     OW84140   2.711  10.535   9.801  0.4044  1.0127  0.5733
26870SOL    HW184141   2.801  10.541   9.769 -0.1515  2.3025 -0.8637
26870SOL    HW284142   2.717  10.479   9.879  2.1179 -0.6526 -0.6704
26871SOL     OW84143  11.034   1.131   2.455  0.0773 -0.0234 -0.1534
26871SOL    HW184144  11.032   1.226   2.445 -0.7600  0.0570  0.6043
26871SOL    HW284145  11.020   1.117   2.548 -0.3775 -0.8990 -0.3440
26872SOL     OW84146   2.974   1.452   4.424 -0.2673  0.5530 -0.0945
26872SOL    HW184147   3.002   1.525   4.478 -1.4622  0.2655  0.9639
26872SOL    HW284148   2.880   1.445   4.440 -0.4720 -0.1585 -1.4705
26873SOL     OW84149   6.835   3.885   4.851 -0.3579 -0.2699 -0.5372
26873SOL    HW184150   6.840   3.975   4.819  1.0644 -0.8476 -2.0721
26873SOL    HW284151   6.834   3.832   4.772  0.2260 -1.6535  0.3492
26874SOL     OW84152   3.112   1.394   2.027 -0.1350  0.2056  0.1107
26874SOL    HW184153   3.056   1.412   1.951 -0.9113 -0.5701  0.4769
26874SOL    HW284154   3.129   1.300   2.021  2.1066  0.6000 -0.6318
26875SOL     OW84155   8.760   1.068   2.316 -0.1141  0.1318 -0.1678
26875SOL    HW184156   8.737   1.046   2.407 -0.2978 -1.5966 -0.5914
26875SOL    HW284157   8.719   1.153   2.301 -2.1311 -0.6407  0.6359
26876SOL     OW84158   7.955   5.749   3.593 -0.1074 -0.2197 -0.2037
26876SOL    HW184159   7.997   5.756   3.508 -1.1396 -1.4388 -0.8670
26876SOL    HW284160   8.023   5.716   3.652  0.1661 -1.1197 -0.9981
26877SOL     OW84161   7.896   4.140   4.040  0.2086 -0.4442  0.0520
26877SOL    HW184162   7.953   4.070   4.006  1.4254  0.3485  0.4066
26877SOL    HW284163   7.935   4.164   4.123 -0.3752  0.4666  0.0764
26878SOL     OW84164   7.825   0.013   1.926  0.1765 -0.1295 -0.3826
26878SOL    HW184165   7.916   0.008   1.955 -0.1468  0.1077  0.7183
26878SOL    HW284166   7.784   0.075   1.987 -0.7545 -0.3365 -0.7868
26879SOL     OW84167   1.225   5.441   8.052 -0.5999  1.1016  0.1728
26879SOL    HW184168   1.133   5.433   8.028 -0.7364  0.1726  0.9738
26879SOL    HW284169   1.271   5.385   7.990 -0.3125  3.0784 -1.5273
26880SOL     OW84170   0.342   8.125   5.547 -0.6254  0.4838  0.0512
26880SOL    HW184171   0.435   8.111   5.565 -1.0029 -1.4684  0.6347
26880SOL    HW284172   0.302   8.039   5.557 -2.1264  0.7715 -2.6222
26881SOL     OW84173   0.534   8.272   3.847  0.6470 -0.1757 -0.3618
26881SOL    HW184174   0.523   8.265   3.942  0.3102 -0.7377 -0.4364
26881SOL    HW284175   0.458   8.227   3.810  1.0923 -0.5190 -0.8942
26882SOL     OW84176   7.604   8.699   3.318  0.6489 -0.1347  0.1521
26882SOL    HW184177   7.576   8.778   3.364  1.4451 -0.6585  1.6033
26882SOL    HW284178   7.608   8.632   3.387  0.2878 -1.3699 -0.9913
26883SOL     OW84179   8.703   6.118   0.187 -0.7936  0.0172 -0.0857
26883SOL    HW184180   8.654   6.162   0.118  0.7351  2.6138  0.3738
26883SOL    HW284181   8.777   6.076   0.143  0.0699  1.5042 -0.0953
26884SOL     OW84182   7.769   3.429   5.279  0.4290 -0.0533  0.0948
26884SOL    HW184183   7.697   3.427   5.342  2.1000 -1.2204  2.1389
26884SOL    HW284184   7.813   3.512   5.296 -0.2380  0.5190 -0.9346
26885SOL     OW84185   6.329   7.353  10.078  0.6028 -0.5306  0.5000
26885SOL    HW184186   6.256   7.411  10.056  0.2107 -0.4374  1.9864
26885SOL    HW284187   6.290   7.281  10.127  1.2555 -1.4937 -0.3433
26886SOL     OW84188   6.210   3.783   2.338 -0.8615  0.2017  0.6916
26886SOL    HW184189   6.275   3.735   2.389  0.5278  1.2142 -0.0593
26886SOL    HW284190   6.126   3.746   2.366  0.1165 -3.5698 -0.7899
26887SOL     OW84191   1.847   9.248   9.790  0.5879 -0.5102 -0.2088
26887SOL    HW184192   1.868   9.215   9.878 -2.6938 -0.0078  0.8933
26887SOL    HW284193   1.863   9.173   9.733  0.9411 -1.4581  1.0713
26888SOL     OW84194   0.942   3.160   0.015  0.3142 -0.3022 -0.0698
26888SOL    HW184195   0.975   3.151  -0.075  2.4417 -0.7622  0.6784
26888SOL    HW284196   0.860   3.111   0.015  0.7192 -1.0644 -1.5632
26889SOL     OW84197   9.553   0.906   4.495  0.5071 -0.0986  0.6476
26889SOL    HW184198   9.569   0.988   4.541  0.1864  0.5954 -0.4383
26889SOL    HW284199   9.633   0.856   4.505  1.1708  0.8634  0.2903
26890SOL     OW84200   4.580   8.675   3.341  0.1725 -0.1187 -0.4316
26890SOL    HW184201   4.538   8.632   3.266 -1.7481  1.5754 -0.4231
26890SOL    HW284202   4.628   8.604   3.385 -0.4323 -1.6065 -2.0239
26891SOL     OW84203   8.350   7.052   5.116 -0.4761 -0.3444  0.0149
26891SOL    HW184204   8.392   7.003   5.186  0.0625  1.0334  0.7061
26891SOL    HW284205   8.382   7.012   5.035 -0.3918 -1.3763  0.5486
26892SOL     OW84206  10.273   4.402   3.365  0.3886  0.4007  0.1684
26892SOL    HW184207  10.184   4.387   3.398  0.3028  1.2376  0.3405
26892SOL    HW284208  10.262   4.407   3.270  0.3604 -0.1767  0.1362
26893SOL     OW84209   2.382   6.579  11.013  0.0157  0.4290 -0.0999
26893SOL    HW184210   2.397   6.489  10.985 -1.0448 -0.2407  1.3275
26893SOL    HW284211   2.304   6.607  10.964 -2.5710 -1.1535  2.7351
26894SOL     OW84212   5.574   5.877   8.099  0.3507  0.5053 -0.1895
26894SOL    HW184213   5.569   5.972   8.105  1.1178  0.5556 -0.3084
26894SOL    HW284214   5.663   5.859   8.068  1.2222 -0.3607  2.5087
26895SOL     OW84215   7.989   3.639   7.320 -0.1252  0.3493  0.2355
26895SOL    HW184216   7.988   3.733   7.304 -0.7961  0.6402  1.8519
26895SOL    HW284217   8.077   3.612   7.292  0.0144  1.4137 -0.4155
26896SOL     OW84218   4.518   1.605  10.094  0.2316  0.2912 -0.1220
26896SOL    HW184219   4.475   1.652  10.165 -0.2614  0.2124 -0.3601
26896SOL    HW284220   4.570   1.537  10.137  1.2375  1.2627  0.2448
26897SOL     OW84221   9.040   8.986   6.848 -0.0380 -0.5597 -0.5943
26897SOL    HW184222   8.959   9.036   6.860  0.7519  1.0950 -1.7904
26897SOL    HW284223   9.022   8.927   6.775  0.3586  1.1087 -2.1034
26898SOL     OW84224   8.928   8.002   3.235 -0.6755 -0.5012 -0.2724
26898SOL    HW184225   8.949   8.065   3.165  2.0832 -0.1327  0.7911
26898SOL    HW284226   9.010   7.956   3.251 -1.7558 -1.9291  1.4333
26899SOL     OW84227   1.524   8.441   8.685  0.1373  0.1440  0.2935
26899SOL    HW184228   1.493   8.531   8.689 -0.4252 -0.0800  1.3194
26899SOL    HW284229   1.465   8.392   8.742  0.8562 -0.7528  0.3038
26900SOL     OW84230   0.125   7.491   8.814 -0.5175 -0.2018  0.4525
26900SOL    HW184231   0.061   7.493   8.885 -1.0939 -1.4393  0.0140
26900SOL    HW284232   0.118   7.576   8.772 -2.7607 -0.6878 -0.2936
26901SOL     OW84233   1.179   3.992   7.552 -0.9721 -0.4985  0.1704
26901SOL    HW184234   1.254   4.052   7.551  0.4666 -2.2249 -0.3669
26901SOL    HW284235   1.135   4.010   7.635  0.9976 -0.5728  1.2825
26902SOL     OW84236   4.385   3.987   3.852 -0.0317  0.1008 -0.1258
26902SOL    HW184237   4.419   4.014   3.767 -1.4266  1.1928 -0.3764
26902SOL    HW284238   4.360   3.895   3.839 -1.6905  0.6655 -1.4382
26903SOL     OW84239  10.448  10.309   1.013 -0.2054 -0.8053  0.0841
26903SOL    HW184240  10.394  10.346   0.943  1.7170  2.9375  0.3108
26903SOL    HW284241  10.409  10.343   1.094  1.2742  0.4115  0.3431
26904SOL     OW84242  11.108   2.532   5.361  0.3333  0.1187 -0.1022
26904SOL    HW184243  11.087   2.621   5.330  0.7183  0.5342  0.7801
26904SOL    HW284244  11.203   2.532   5.369  0.5915 -1.2154 -2.5018
26905SOL     OW84245   1.280   0.410   7.111  0.0786  0.2065 -0.1439
26905SOL    HW184246   1.303   0.491   7.066 -0.3257  0.6160  0.3729
26905SOL    HW284247   1.364   0.367   7.127  0.1667 -0.4879 -2.2472
26906SOL     OW84248   5.119   1.227  10.538  0.4775 -0.3643  0.3296
26906SOL    HW184249   5.138   1.318  10.561  1.7327 -0.4112 -0.4370
26906SOL    HW284250   5.156   1.176  10.610 -1.5939 -0.2458  1.5563
26907SOL     OW84251   9.753   4.388   1.680  0.0086  0.2827  0.3658
26907SOL    HW184252   9.842   4.358   1.698 -0.3548 -1.6532 -0.7412
26907SOL    HW284253   9.697   4.316   1.709 -1.2139  1.4342  0.9722
26908SOL     OW84254   8.565   6.195  11.101 -0.2034 -0.5913  0.1486
26908SOL    HW184255   8.640   6.166  11.050  0.0662 -0.3877  0.4289
26908SOL    HW284256   8.530   6.269  11.051 -2.3731 -2.8106 -1.9027
26909SOL     OW84257   7.852   8.251   7.270 -0.0042  0.0666 -0.1525
26909SOL    HW184258   7.872   8.328   7.217  0.8716 -0.2931 -0.3553
26909SOL    HW284259   7.903   8.181   7.230 -0.6816 -0.5921  0.1198
26910SOL     OW84260  10.643   3.376   2.242  0.0836 -0.3228 -0.0973
26910SOL    HW184261  10.737   3.367   2.254  0.5651  0.7619 -2.4739
26910SOL    HW284262  10.612   3.288   2.221  0.6142 -0.6350  0.4179
26911SOL     OW84263   4.970  10.716   5.951  0.5648 -0.4414 -0.1708
26911SOL    HW184264   4.938  10.724   5.861  1.8584  0.3485 -0.5901
26911SOL    HW284265   4.901  10.755   6.005 -0.7116 -1.9044 -0.6972
26912SOL     OW84266   2.208   5.034   1.357 -0.3482  0.0423  0.1406
26912SOL    HW184267   2.201   5.129   1.348 -1.7716  0.0075  0.5619
26912SOL    HW284268   2.240   5.004   1.272 -1.0819  0.8033 -0.4293
26913SOL     OW84269   1.794   0.828   4.590  0.3002 -0.5148  0.0219
26913SOL    HW184270   1.826   0.738   4.583 -0.4565 -0.7126 -1.0195
26913SOL    HW284271   1.764   0.851   4.502  1.4796  1.1506  0.0059
26914SOL     OW84272   4.343   9.747   6.185  0.2108  0.2866  0.4980
26914SOL    HW184273   4.377   9.677   6.240  0.5242 -0.4657 -0.6311
26914SOL    HW284274   4.311   9.813   6.247  1.2330 -0.2029  1.5722
26915SOL     OW84275   0.007   0.912   8.811  0.5912  0.1815 -0.0022
26915SOL    HW184276  -0.072   0.928   8.760  0.1802 -0.0255  0.5572
26915SOL    HW284277   0.013   0.986   8.871 -0.1468 -0.6369  1.1372
26916SOL     OW84278   5.605   4.004   4.916  0.1609  0.1267  0.3487
26916SOL    HW184279   5.547   3.929   4.926  0.7427 -0.6856 -1.7779
26916SOL    HW284280   5.669   3.995   4.987 -0.2841 -0.9163  0.6304
26917SOL     OW84281   9.779   8.699   8.516  0.0556  0.6810  0.6860
26917SOL    HW184282   9.848   8.684   8.581  0.3514 -0.4122  0.1452
26917SOL    HW284283   9.755   8.611   8.486 -1.1477  1.0803  0.4201
26918SOL     OW84284   8.203   3.481   3.524  0.0374 -0.0504 -0.0809
26918SOL    HW184285   8.194   3.509   3.433 -1.5552  2.5790  0.7701
26918SOL    HW284286   8.115   3.452   3.549  0.2994 -0.1064  0.8042
26919SOL     OW84287   4.876   1.956   0.444  0.0781 -0.0529  0.1445
26919SOL    HW184288   4.854   1.866   0.468 -0.0176  0.5821  2.7731
26919SOL    HW284289   4.947   1.947   0.380  0.3856 -1.9965  0.6907
26920SOL     OW84290   8.122   9.321   9.153 -0.0815  0.2301 -0.0227
26920SOL    HW184291   8.179   9.360   9.220  0.3523  0.8964 -0.7657
26920SOL    HW284292   8.046   9.288   9.202  0.0513  1.0544  0.7584
26921SOL     OW84293   1.351   9.872   3.101 -0.0566  0.4307  0.4822
26921SOL    HW184294   1.435   9.885   3.057  1.0178  1.6596  2.7251
26921SOL    HW284295   1.371   9.813   3.174 -1.5721 -0.7802 -0.0254
26922SOL     OW84296   9.736   6.701   4.891  0.6827  0.2733  0.3705
26922SOL    HW184297   9.816   6.743   4.923  0.6652  1.4777 -1.0761
26922SOL    HW284298   9.696   6.766   4.833 -0.6911 -0.7951  0.0710
26923SOL     OW84299   8.378  10.772   0.587  0.1452 -0.1634 -0.1125
26923SOL    HW184300   8.392  10.680   0.564  0.6197 -0.1557  0.1447
26923SOL    HW284301   8.322  10.770   0.664 -1.8818 -0.1817 -1.4948
26924SOL     OW84302   3.528   9.181   7.534 -0.1407 -0.0248  0.2910
26924SOL    HW184303   3.522   9.097   7.580 -0.1790 -0.7042 -0.9340
26924SOL    HW284304   3.612   9.217   7.562 -1.0843  0.5973  2.5522
26925SOL     OW84305   7.404  10.696   2.745 -0.3063 -0.4798 -0.5081
26925SOL    HW184306   7.364  10.766   2.797  0.0100  0.1081 -1.0554
26925SOL    HW284307   7.472  10.739   2.695 -0.3721 -1.1146 -1.1541
26926SOL     OW84308   3.454   9.824   7.023 -0.2722  0.5409 -0.3107
26926SOL    HW184309   3.528   9.764   7.018 -1.0497 -0.4723  0.0529
26926SOL    HW284310   3.487   9.906   6.985  1.7569  0.8611  1.8569
26927SOL     OW84311   5.006   3.481   1.030  0.3505  0.5333 -0.0666
26927SOL    HW184312   5.064   3.431   1.087  1.5047  1.6143 -0.2603
26927SOL    HW284313   4.925   3.490   1.081  0.4255 -0.7584  0.3163
26928SOL     OW84314   7.166   6.590   5.538 -0.6747 -0.5357  0.1461
26928SOL    HW184315   7.150   6.496   5.528 -0.1614 -0.8741  2.0160
26928SOL    HW284316   7.249   6.595   5.586 -1.1247  0.8307  0.8348
26929SOL     OW84317   5.722   8.604   8.001  0.5372 -0.2160 -0.4121
26929SOL    HW184318   5.678   8.522   7.979 -1.3151  0.6308 -0.1232
26929SOL    HW284319   5.764   8.631   7.920 -1.4375  0.0397 -1.4237
26930SOL     OW84320   8.137   6.392   8.614  0.3665  0.6759  0.9125
26930SOL    HW184321   8.116   6.406   8.522 -1.8935 -0.2547  1.2279
26930SOL    HW284322   8.099   6.307   8.635 -0.0429  1.2948  2.9494
26931SOL     OW84323   1.475   0.045   5.627  0.0848 -0.5051  0.5424
26931SOL    HW184324   1.567   0.047   5.655 -0.5742  0.6012  2.8365
26931SOL    HW284325   1.462   0.128   5.583  0.4315 -1.1315 -0.7921
26932SOL     OW84326   7.761   7.302   1.830 -0.0847  0.1349  0.3332
26932SOL    HW184327   7.736   7.309   1.922  1.0500 -3.2056  1.0433
26932SOL    HW284328   7.691   7.249   1.791  0.6838 -0.5391 -0.1349
26933SOL     OW84329   9.417   2.932   7.746  0.2815 -0.3960 -0.1906
26933SOL    HW184330   9.481   3.003   7.741  1.9299 -1.6051  1.9442
26933SOL    HW284331   9.451   2.864   7.688  0.3619 -0.6074  0.0986
26934SOL     OW84332   1.260   4.502   5.018 -1.1530  0.1020  0.0815
26934SOL    HW184333   1.192   4.466   5.075 -0.6853  0.6996  1.0581
26934SOL    HW284334   1.331   4.525   5.078 -1.6237  3.1696 -0.3506
26935SOL     OW84335   8.212   2.309   7.559  0.4838 -0.3198 -0.1877
26935SOL    HW184336   8.189   2.401   7.558  0.1521 -0.3918 -1.6825
26935SOL    HW284337   8.224   2.286   7.466  1.8055 -1.4651  0.2374
26936SOL     OW84338  10.497   9.138   0.040  0.9032 -0.4043  0.1868
26936SOL    HW184339  10.537   9.170  -0.041 -0.2994 -0.1858 -0.3464
26936SOL    HW284340  10.455   9.216   0.078  0.4363 -0.7474  0.3897
26937SOL     OW84341   7.435   2.134   0.539 -0.2066 -0.3227  0.4049
26937SOL    HW184342   7.473   2.070   0.600 -2.8035 -0.8945  1.5417
26937SOL    HW284343   7.474   2.218   0.565  1.1647 -1.0236  0.6999
26938SOL     OW84344   2.597   7.173   9.382  0.1122  0.0858 -0.9337
26938SOL    HW184345   2.573   7.121   9.459 -0.3307  1.8984  0.2138
26938SOL    HW284346   2.678   7.217   9.407  0.6438 -0.2557 -2.0006
26939SOL     OW84347   1.501   7.963   2.184 -0.7492 -0.0501  0.3426
26939SOL    HW184348   1.553   7.940   2.107  1.1397  0.3990  1.4220
26939SOL    HW284349   1.486   7.879   2.228 -0.9934 -0.1931 -0.0107
26940SOL     OW84350   2.829  10.773   5.679 -0.2169  0.1823  0.1243
26940SOL    HW184351   2.921  10.776   5.655 -0.3524  0.0851 -0.4160
26940SOL    HW284352   2.786  10.725   5.607 -0.6951  0.2738  0.3409
26941SOL     OW84353   9.655   2.707   9.892  0.5427  0.4418  0.4542
26941SOL    HW184354   9.681   2.616   9.908 -1.2536  0.1598  2.1133
26941SOL    HW284355   9.585   2.702   9.827 -0.7668  0.4309  1.8175
26942SOL     OW84356   1.509   0.549  11.119  0.3383  0.2195 -0.2139
26942SOL    HW184357   1.591   0.500  11.111 -0.4693 -1.3372  0.4679
26942SOL    HW284358   1.522   0.606  11.195  0.8065  0.0023 -0.1285
26943SOL     OW84359   4.269   0.894   0.173 -0.4349  0.6304  0.4448
26943SOL    HW184360   4.181   0.924   0.150 -0.6583  0.8582  1.5595
26943SOL    HW284361   4.291   0.940   0.254  1.3647  1.7895 -0.6433
26944SOL     OW84362   8.198   0.012   9.192  0.1352  0.1728 -0.2035
26944SOL    HW184363   8.276   0.059   9.224  0.7275 -1.2288  0.5121
26944SOL    HW284364   8.215  -0.002   9.099  0.6987 -0.0342 -0.0734
26945SOL     OW84365   0.256   6.318   8.518  0.2626 -0.0045 -0.4155
26945SOL    HW184366   0.182   6.361   8.561  0.9117  1.8118 -1.0182
26945SOL    HW284367   0.302   6.273   8.588 -0.1242  0.7714  0.3512
26946SOL     OW84368   1.144  10.315   9.391 -0.2050 -0.0613  0.1272
26946SOL    HW184369   1.156  10.240   9.449  0.4415 -0.2112 -0.1902
26946SOL    HW284370   1.229  10.359   9.392 -0.3398  0.2068 -0.3239
26947SOL     OW84371   2.710   6.094   0.586 -0.0187 -0.2622  0.1418
26947SOL    HW184372   2.647   6.023   0.595 -1.6843  1.1925  0.4020
26947SOL    HW284373   2.678   6.163   0.644 -0.0691  1.8016 -2.1503
26948SOL     OW84374  10.583   1.992   1.236 -0.3863 -0.1564  0.3480
26948SOL    HW184375  10.560   1.993   1.142 -0.0573 -1.0317  0.2576
26948SOL    HW284376  10.523   1.929   1.274  1.3047 -1.8948  0.2458
26949SOL     OW84377   6.433  10.772   7.494 -0.4349 -0.0458 -0.3754
26949SOL    HW184378   6.462  10.863   7.490  0.5001 -0.3705 -2.4794
26949SOL    HW284379   6.428  10.752   7.588 -0.1855  1.9982  0.1186
26950SOL     OW84380   1.117   4.506   8.543  0.0415  0.0589 -0.2501
26950SOL    HW184381   1.021   4.497   8.550  0.0340  0.3509  0.0640
26950SOL    HW284382   1.150   4.462   8.622  0.1061  0.9156  0.2179
26951SOL     OW84383   7.566  10.888   1.284  0.1152  0.0002 -0.3415
26951SOL    HW184384   7.561  10.951   1.212 -1.3290 -1.2304 -1.3738
26951SOL    HW284385   7.630  10.926   1.344 -1.7978  3.2544 -0.1301
26952SOL     OW84386   5.031   8.039   5.139  0.2566  0.3835 -0.1515
26952SOL    HW184387   4.998   7.957   5.175 -0.2059  0.7692  0.3137
26952SOL    HW284388   4.954   8.082   5.102 -0.2136  2.1276  2.5416
26953SOL     OW84389   6.983   1.650   6.088  0.1462 -0.1566 -0.1703
26953SOL    HW184390   7.055   1.709   6.064  0.5519 -0.4731  0.2517
26953SOL    HW284391   6.948   1.687   6.170 -0.5265  0.3034 -0.6577
26954SOL     OW84392   1.374  11.065   4.026  0.1460 -0.3051 -0.0773
26954SOL    HW184393   1.431  11.009   3.973 -1.0077 -0.4449 -1.2134
26954SOL    HW284394   1.286  11.032   4.009 -0.3103 -0.0149  1.5475
26955SOL     OW84395   6.709   6.465   3.436  0.1453  0.2477  0.2911
26955SOL    HW184396   6.748   6.521   3.503 -0.0512  0.4944  0.2001
26955SOL    HW284397   6.783   6.435   3.384  0.2657  0.3156  0.4202
26956SOL     OW84398   0.713   8.214   1.327 -0.1708 -0.4164 -0.3123
26956SOL    HW184399   0.762   8.296   1.337 -1.6262  0.5371 -0.6248
26956SOL    HW284400   0.640   8.237   1.270 -1.7612 -1.4157  1.2265
26957SOL     OW84401  10.582   5.059   1.965 -0.5583  0.3567 -0.4974
26957SOL    HW184402  10.535   5.132   1.924  1.0842  1.7611 -0.0191
26957SOL    HW284403  10.635   5.022   1.894  0.8303  1.5685 -0.1584
26958SOL     OW84404   1.316   5.228  11.059 -0.3552 -0.2498  0.1237
26958SOL    HW184405   1.308   5.196  10.969 -0.2985 -0.1732  0.0912
26958SOL    HW284406   1.267   5.165  11.112 -2.3579  0.9195 -0.2193
26959SOL     OW84407   8.157   8.233   5.514  0.0655  1.0200 -0.4219
26959SOL    HW184408   8.121   8.266   5.431  0.9495  1.3560 -0.6848
26959SOL    HW284409   8.240   8.193   5.490  1.1243  2.5446  0.4971
26960SOL     OW84410   2.739   0.695   5.422 -0.1817  0.2317  0.5066
26960SOL    HW184411   2.822   0.659   5.391  0.2291  2.8738 -1.7470
26960SOL    HW284412   2.674   0.628   5.400  0.2745  1.1947 -5.1940
26961SOL     OW84413   9.128   9.783   3.850 -0.3850 -0.0711  0.4823
26961SOL    HW184414   9.055   9.765   3.790 -0.4591  1.2401  0.1321
26961SOL    HW284415   9.190   9.834   3.798  0.6593 -0.9057  0.8701
26962SOL     OW84416   9.769   2.005   3.210 -0.4561 -0.2991 -0.5945
26962SOL    HW184417   9.844   1.977   3.157  0.9575  0.7019  0.8081
26962SOL    HW284418   9.761   2.099   3.193 -0.8237 -0.2273 -0.0404
26963SOL     OW84419   2.611   9.249  10.015 -0.6306 -0.0857  0.6959
26963SOL    HW184420   2.585   9.158  10.026  1.5445 -0.8157  0.3844
26963SOL    HW284421   2.664   9.250   9.935  0.9740  1.0247  1.6895
26964SOL     OW84422   8.484   8.265   8.312 -0.6342 -0.0802  0.6697
26964SOL    HW184423   8.464   8.316   8.391  0.8531  0.8035  0.5180
26964SOL    HW284424   8.486   8.330   8.242 -1.0586 -0.7273  0.0382
26965SOL     OW84425   4.269   0.171  11.042 -0.1544 -0.1049 -0.0997
26965SOL    HW184426   4.208   0.209  10.978 -0.0925 -0.2621 -0.2522
26965SOL    HW284427   4.248   0.215  11.124 -0.1870  0.1520 -0.2427
26966SOL     OW84428   5.908   8.936   0.953 -0.0372  0.3981 -0.1655
26966SOL    HW184429   5.902   9.028   0.929 -2.2485  0.6475  1.0855
26966SOL    HW284430   5.896   8.934   1.048 -2.0344 -1.2626 -0.3714
26967SOL     OW84431   9.936   2.854   5.668 -0.2029 -1.0584  0.7305
26967SOL    HW184432   9.857   2.900   5.695 -0.6440 -0.4446 -1.3805
26967SOL    HW284433  10.005   2.886   5.727 -0.8769  0.9331  0.5112
26968SOL     OW84434   8.004   9.714   4.161 -0.1517  0.4002  0.8092
26968SOL    HW184435   8.070   9.656   4.199  1.7822  0.0387 -2.6728
26968SOL    HW284436   8.046   9.800   4.161  0.2720  0.2252 -1.1610
26969SOL     OW84437  10.058   5.340   6.263  0.0238 -0.3686 -0.2021
26969SOL    HW184438   9.997   5.388   6.320  0.6040  1.1098 -0.7783
26969SOL    HW284439  10.052   5.385   6.179  1.2014 -0.8087 -0.5327
26970SOL     OW84440   5.989   7.588   7.715  0.2473  0.2392 -0.0847
26970SOL    HW184441   6.028   7.503   7.736 -0.3122 -0.0745 -0.3063
26970SOL    HW284442   5.932   7.608   7.790  0.2269  0.3268 -0.1237
26971SOL     OW84443   0.190   5.491  10.749  0.2822 -0.2376  0.1391
26971SOL    HW184444   0.212   5.401  10.724  3.0690  0.7765 -1.6165
26971SOL    HW284445   0.137   5.524  10.677 -0.2040 -0.2686  0.4782
26972SOL     OW84446   1.242   4.283   1.500  0.3575  0.4110  0.1696
26972SOL    HW184447   1.238   4.187   1.506  0.6366  0.3874  0.0261
26972SOL    HW284448   1.236   4.313   1.590 -0.2734  0.2822  0.1719
26973SOL     OW84449   4.327   7.930   7.470 -0.1701  0.5090  0.6448
26973SOL    HW184450   4.272   7.993   7.517  0.3396  1.6608 -0.2434
26973SOL    HW284451   4.410   7.977   7.457 -0.5827  0.6324 -2.1959
26974SOL     OW84452   1.409   2.334  11.064  0.1325 -0.1973 -0.4247
26974SOL    HW184453   1.387   2.285  10.984 -0.1227 -0.4442 -0.2065
26974SOL    HW284454   1.492   2.297  11.093 -0.0326 -0.4683 -0.2903
26975SOL     OW84455   8.620   9.091  10.198 -0.1198  0.1898  0.1604
26975SOL    HW184456   8.684   9.027  10.227  1.2277  0.3317 -2.2744
26975SOL    HW284457   8.572   9.047  10.128 -1.5344  0.7032  0.7643
26976SOL     OW84458   9.823   6.820   9.867  0.3781  0.5218  0.1342
26976SOL    HW184459   9.902   6.817   9.812 -0.3246 -0.9404 -0.8652
26976SOL    HW284460   9.764   6.757   9.826  0.0667 -1.1785  2.9908
26977SOL     OW84461   5.941   9.885   6.374  0.8713 -0.5891 -0.2026
26977SOL    HW184462   5.953   9.880   6.469 -1.3164 -0.1320  0.1679
26977SOL    HW284463   5.938   9.793   6.345  0.4769 -0.7521  0.3444
26978SOL     OW84464   1.554   7.697  11.057 -0.2742  0.0092 -0.0676
26978SOL    HW184465   1.460   7.713  11.047 -0.0392  1.2009 -0.5418
26978SOL    HW284466   1.560   7.607  11.089 -1.6627  0.4441  1.5719
26979SOL     OW84467   6.389   0.919  10.017  0.3958 -0.1048  0.3217
26979SOL    HW184468   6.402   1.000   9.967  2.6078 -0.7555 -0.2530
26979SOL    HW284469   6.440   0.932  10.097 -0.6718 -0.2668  1.0467
26980SOL     OW84470   4.946   8.491   7.499  0.1085  0.3427 -0.2690
26980SOL    HW184471   4.856   8.460   7.492  0.1710  0.3616 -1.3278
26980SOL    HW284472   4.998   8.424   7.455  0.6941  0.0399  0.8428
26981SOL     OW84473   0.590   9.517   4.410 -0.3477 -0.2432 -0.2400
26981SOL    HW184474   0.551   9.537   4.325 -1.7778 -0.5594  0.3051
26981SOL    HW284475   0.644   9.594   4.430  0.3218 -0.3336 -1.5830
26982SOL     OW84476   4.256   2.739   0.042 -0.0633  0.0673 -0.0230
26982SOL    HW184477   4.179   2.794   0.025 -0.4448  0.2617  1.9903
26982SOL    HW284478   4.330   2.793   0.014 -0.4693  1.4322  1.3624
26983SOL     OW84479   5.027   7.509   0.153 -0.2204 -0.4489  0.0395
26983SOL    HW184480   5.000   7.566   0.080  2.0490  0.2305 -0.3469
26983SOL    HW284481   4.980   7.543   0.229 -3.5573 -1.8734 -1.1814
26984SOL     OW84482   6.496   5.980   0.652  0.1276 -0.4647 -0.1703
26984SOL    HW184483   6.456   5.938   0.728  0.8543  0.2288  0.6124
26984SOL    HW284484   6.549   6.050   0.689 -3.2631  3.1775 -1.4782
26985SOL     OW84485   3.584   0.962   0.362 -0.0501  0.0589  0.4262
26985SOL    HW184486   3.550   0.895   0.303  1.6235 -0.7787  0.3539
26985SOL    HW284487   3.630   0.913   0.431 -0.9786  1.0521  1.8213
26986SOL     OW84488   5.192   5.266   1.711  0.0479  0.0173  0.2068
26986SOL    HW184489   5.223   5.246   1.799  1.4522 -0.8713 -0.4651
26986SOL    HW284490   5.100   5.288   1.723  0.1313 -0.3989  1.8506
26987SOL     OW84491   7.644   8.917   8.298 -0.0646  0.2775 -0.3700
26987SOL    HW184492   7.689   8.839   8.264 -0.5046  0.3290 -1.1110
26987SOL    HW284493   7.708   8.960   8.354  0.4733 -0.1699 -0.6331
26988SOL     OW84494   6.871  10.289   4.277  0.2404 -0.0810 -0.0140
26988SOL    HW184495   6.918  10.350   4.219 -1.3174  0.0127 -1.2429
26988SOL    HW284496   6.785  10.328   4.290 -0.4473 -1.5112 -0.0064
26989SOL     OW84497   2.007   4.722   8.943  0.7823 -0.0265 -0.2226
26989SOL    HW184498   2.030   4.730   8.850 -1.0108  3.5556 -0.5334
26989SOL    HW284499   1.913   4.707   8.943  0.6783  0.5049  0.9755
26990SOL     OW84500   6.059   1.451   3.230 -0.2217  0.4317 -0.2456
26990SOL    HW184501   6.022   1.520   3.175  0.1718  1.3006  0.5614
26990SOL    HW284502   6.131   1.493   3.276 -1.9735  0.4431  2.7288
26991SOL     OW84503   4.921  11.060  10.121 -0.5198 -0.5593  0.1365
26991SOL    HW184504   4.871  11.030  10.197 -2.0575 -1.1447 -1.0689
26991SOL    HW284505   4.876  11.139  10.092 -0.1217 -0.5140 -0.3704
26992SOL     OW84506   7.448   0.220   0.752  0.6856 -0.4029 -0.0399
26992SOL    HW184507   7.359   0.202   0.782  0.5954 -3.6604 -1.7502
26992SOL    HW284508   7.440   0.299   0.699 -1.6357 -1.4904 -1.5270
26993SOL     OW84509   1.136   9.934  10.186 -0.1565 -0.5766 -0.3744
26993SOL    HW184510   1.062   9.915  10.128  1.8483 -1.2166 -2.8993
26993SOL    HW284511   1.152  10.028  10.174 -0.6999 -0.3701  0.4125
26994SOL     OW84512   3.909  11.028   1.506 -0.1433  0.0786  0.3450
26994SOL    HW184513   3.874  11.105   1.460 -2.0430 -1.3230 -0.6891
26994SOL    HW284514   3.840  10.963   1.500  0.5973 -1.0875  2.9829
26995SOL     OW84515   2.528   0.583   6.045 -0.2352  0.2678 -0.1534
26995SOL    HW184516   2.509   0.522   5.973  1.8774  0.7109 -1.1812
26995SOL    HW284517   2.443   0.620   6.069 -1.2336 -1.2595 -1.1613
26996SOL     OW84518  10.029   3.313   7.459 -0.0661  0.2656 -0.6951
26996SOL    HW184519  10.054   3.221   7.447 -0.2551  0.1464 -0.2091
26996SOL    HW284520   9.940   3.318   7.424 -0.4164  0.0390  0.1333
26997SOL     OW84521   8.275   7.877  10.337  0.0063 -0.1689 -0.5037
26997SOL    HW184522   8.254   7.809  10.402  1.8114 -2.4953 -2.1897
26997SOL    HW284523   8.321   7.944  10.387 -2.1712  0.1305  1.2955
26998SOL     OW84524   3.019  10.693   7.483  0.5461  0.0834 -0.1148
26998SOL    HW184525   3.031  10.707   7.389 -0.9406 -0.1159 -0.3616
26998SOL    HW284526   2.943  10.635   7.489  0.9759 -0.3684  1.1989
26999SOL     OW84527   2.712   6.283   5.316 -0.0131  0.4336  0.0382
26999SOL    HW184528   2.664   6.311   5.394  0.2609  1.3084 -0.0978
26999SOL    HW284529   2.716   6.361   5.261  2.5833  0.7574  0.5759
27000SOL     OW84530   4.926   3.975   7.264 -0.2054  0.1142  0.6100
27000SOL    HW184531   4.970   4.059   7.252 -0.1837  0.1948  1.2428
27000SOL    HW284532   4.970   3.916   7.203  1.2769  0.0092  1.7187
27001SOL     OW84533  10.983   9.386   4.577  0.0212 -0.7378 -0.1737
27001SOL    HW184534  11.074   9.392   4.608 -0.1550  0.3660  0.1648
27001SOL    HW284535  10.986   9.318   4.510  1.3317  0.0018 -0.9328
27002SOL     OW84536   3.072   9.804   9.465 -0.1376 -0.4791  0.2071
27002SOL    HW184537   3.015   9.727   9.470 -0.9589  0.0049 -1.0232
27002SOL    HW284538   3.099   9.808   9.373  2.7248 -1.2249  0.9154
27003SOL     OW84539   2.152  10.779   3.591 -0.4123  0.3102  0.3008
27003SOL    HW184540   2.221  10.834   3.629 -1.7587  2.9916 -0.8914
27003SOL    HW284541   2.161  10.791   3.497 -1.6898 -0.3555  0.0745
27004SOL     OW84542   2.719   3.270  10.892  0.3328  0.5363 -0.2607
27004SOL    HW184543   2.727   3.227  10.807  2.9879  0.9319 -0.3078
27004SOL    HW284544   2.741   3.361  10.875  1.3964  0.5298  0.8819
27005SOL     OW84545   9.981   6.593   8.695 -0.3541  0.1133  0.7371
27005SOL    HW184546   9.930   6.525   8.651  0.5532 -0.4827  0.5790
27005SOL    HW284547   9.940   6.675   8.666  1.1889 -0.1367 -2.6655
27006SOL     OW84548   4.446   1.161   1.845 -0.0975  0.1415 -0.4272
27006SOL    HW184549   4.357   1.197   1.853  0.1184  0.3422  1.5791
27006SOL    HW284550   4.457   1.106   1.923  2.1163  1.4576  0.2835
27007SOL     OW84551   7.351  10.463   6.087 -0.4553 -0.3368  0.0581
27007SOL    HW184552   7.306  10.539   6.050 -0.5491 -0.1887  0.4663
27007SOL    HW284553   7.303  10.387   6.052  1.1514 -0.3310 -2.3472
27008SOL     OW84554   8.440   3.724   5.795  0.0778  0.6278  0.1016
27008SOL    HW184555   8.455   3.630   5.802  0.4834  0.6774 -0.0721
27008SOL    HW284556   8.444   3.742   5.701  0.1689  0.8444  0.1465
27009SOL     OW84557   3.944  10.574   1.965  0.3946 -0.6889 -0.4418
27009SOL    HW184558   3.951  10.611   2.053 -3.9493  0.5361 -0.3941
27009SOL    HW284559   4.035  10.556   1.940  1.9923  0.7498  3.4517
27010SOL     OW84560   0.032   4.331   7.613 -0.1559 -0.3170  0.3138
27010SOL    HW184561   0.055   4.405   7.557  0.5645 -0.2177  0.7241
27010SOL    HW284562  -0.056   4.306   7.585 -0.4780  0.8012  0.2755
27011SOL     OW84563   1.936   0.935   1.928 -0.1718 -0.3506 -0.0930
27011SOL    HW184564   1.907   0.988   1.854  1.4244  0.7901  0.0498
27011SOL    HW284565   2.007   0.881   1.892 -1.6297 -2.3429 -0.1928
27012SOL     OW84566   2.421  10.186   1.413 -0.1443  0.1864  0.2665
27012SOL    HW184567   2.514  10.188   1.435  0.0152  0.4319 -0.3818
27012SOL    HW284568   2.406  10.270   1.368 -0.0587 -0.8957 -1.9418
27013SOL     OW84569   5.254   3.109   7.686  0.3525 -0.1177  0.1765
27013SOL    HW184570   5.252   3.144   7.596  2.3111 -0.0231  0.1181
27013SOL    HW284571   5.265   3.187   7.741  0.5212 -0.2896  0.3866
27014SOL     OW84572   3.916   6.193   8.625 -0.3934  0.0121  0.4313
27014SOL    HW184573   3.829   6.221   8.595 -0.4040  1.4914  1.7082
27014SOL    HW284574   3.971   6.271   8.615  0.6791 -0.7712  0.1054
27015SOL     OW84575  10.729   9.693   6.551 -0.0883  0.1998 -0.1907
27015SOL    HW184576  10.691   9.636   6.618 -2.0111  2.4145  0.7366
27015SOL    HW284577  10.823   9.685   6.562 -0.3284 -1.7237  0.7864
27016SOL     OW84578   9.649   1.889   7.655  0.5662  0.2053 -0.0484
27016SOL    HW184579   9.667   1.821   7.590  0.1656  0.0480  0.0020
27016SOL    HW284580   9.573   1.936   7.620  0.2963  0.0653  0.3489
27017SOL     OW84581   7.963   3.593   6.825 -0.1907  0.1256 -0.3878
27017SOL    HW184582   7.935   3.665   6.768 -0.3888  0.8634  0.6113
27017SOL    HW284583   7.881   3.557   6.860 -0.0408  0.5197  0.4104
27018SOL     OW84584   4.620   3.878   7.981 -0.2571 -0.1655 -0.5947
27018SOL    HW184585   4.566   3.805   8.012  0.2053 -0.2987 -0.0883
27018SOL    HW284586   4.710   3.846   7.989  0.0858  1.0767  1.3930
27019SOL     OW84587   7.988  10.907   2.914 -0.0040  0.1177  0.1318
27019SOL    HW184588   8.000  10.976   2.979  0.4610  0.2997 -0.1357
27019SOL    HW284589   8.017  10.827   2.958 -1.2072 -0.0382  0.6789
27020SOL     OW84590   6.040   8.083   8.957 -0.1747  0.6780 -0.4201
27020SOL    HW184591   6.063   8.168   8.994 -1.0740  0.3440  1.0082
27020SOL    HW284592   6.054   8.092   8.863 -0.2468  2.3891 -0.2890
27021SOL     OW84593   9.885   1.051   3.233  0.1846  0.4579 -0.6495
27021SOL    HW184594   9.922   1.131   3.270  0.9689 -0.6517  1.0640
27021SOL    HW284595   9.803   1.038   3.282 -0.4318  0.7161 -1.5938
27022SOL     OW84596   6.212   7.401   6.599  0.0036  0.0086  0.2506
27022SOL    HW184597   6.301   7.415   6.631 -0.1189 -0.3234  0.7444
27022SOL    HW284598   6.188   7.485   6.558  0.9797 -0.2896 -0.9965
27023SOL     OW84599   0.934  10.500   6.324  0.6346 -0.1402  0.1318
27023SOL    HW184600   0.864  10.521   6.263  0.6387 -0.9686 -0.1749
27023SOL    HW284601   0.915  10.551   6.402 -1.0168 -1.2986  0.5317
27024SOL     OW84602   2.020   1.523   7.087  0.3764 -0.1729  0.5474
27024SOL    HW184603   1.958   1.543   7.017  0.2100 -0.4871  0.6015
27024SOL    HW284604   2.042   1.431   7.074  1.2328  0.0696  0.2198
27025SOL     OW84605   3.545   4.957  10.757  0.6429  0.3460  0.5429
27025SOL    HW184606   3.458   4.994  10.742 -0.9022 -2.9648  0.3575
27025SOL    HW284607   3.557   4.961  10.852 -0.2616 -0.1837  0.6914
27026SOL     OW84608   3.972   0.456   4.607 -0.6410 -0.1045  0.0841
27026SOL    HW184609   3.955   0.414   4.523 -0.1720 -2.2271  0.9721
27026SOL    HW284610   3.997   0.546   4.585  1.4648 -1.1145 -2.2277
27027SOL     OW84611   1.149   5.949   5.098 -0.3785  0.3697 -0.0798
27027SOL    HW184612   1.143   5.884   5.168 -0.1093 -0.6272 -0.9635
27027SOL    HW284613   1.199   6.021   5.137 -1.3261  0.4031  1.1535
27028SOL     OW84614   2.804   7.752   1.511  0.0885 -0.2015 -0.6130
27028SOL    HW184615   2.879   7.703   1.478 -0.6271 -1.0164 -1.0691
27028SOL    HW284616   2.802   7.831   1.456 -0.2045 -0.8379 -1.5485
27029SOL     OW84617   4.017   5.438   8.785  0.4487  0.0734 -0.0239
27029SOL    HW184618   4.113   5.445   8.783  0.4479  0.6714 -2.7094
27029SOL    HW284619   3.989   5.480   8.703 -2.0657 -0.7426  0.3408
27030SOL     OW84620   7.349   5.713   0.046 -0.4232 -0.1695  0.0292
27030SOL    HW184621   7.387   5.799   0.061  0.1155 -0.4587  0.3482
27030SOL    HW284622   7.366   5.695  -0.046  1.7015 -0.9839  0.5134
27031SOL     OW84623   5.973   6.082  10.125 -0.4281  0.1229  0.5851
27031SOL    HW184624   6.024   6.109  10.049 -0.8180 -3.3182 -1.1151
27031SOL    HW284625   6.005   6.137  10.197  1.8394  1.7344 -1.5024
27032SOL     OW84626   3.305   1.459  10.599 -0.0895  0.5559 -0.6431
27032SOL    HW184627   3.237   1.504  10.549 -0.7194  0.1599 -0.1679
27032SOL    HW284628   3.270   1.371  10.613  0.9470  0.0389 -1.2197
27033SOL     OW84629   5.289   8.796   0.818 -0.1566 -0.0001 -0.1682
27033SOL    HW184630   5.228   8.858   0.858  1.0141  0.6651  0.6372
27033SOL    HW284631   5.370   8.806   0.868  0.4182 -1.3487 -0.7792
27034SOL     OW84632   3.391   9.131   2.231 -0.2178  0.1725 -0.7545
27034SOL    HW184633   3.342   9.061   2.187  0.3315  1.0489 -2.9238
27034SOL    HW284634   3.381   9.206   2.173  0.9626  1.3099  0.4450
27035SOL     OW84635   5.998   8.183   3.363 -0.2749  0.0991  0.2698
27035SOL    HW184636   6.049   8.155   3.439  0.9639  0.0612 -0.5630
27035SOL    HW284637   5.953   8.104   3.333  1.8402 -0.6846 -1.0197
27036SOL     OW84638   7.417   4.062   1.651 -0.4697  0.1595  0.4495
27036SOL    HW184639   7.498   4.015   1.673  0.7010  0.4332 -2.7774
27036SOL    HW284640   7.348   3.997   1.661  0.7664 -1.4929 -1.1566
27037SOL     OW84641   4.427   9.715   3.857  0.2860  0.3941  0.1200
27037SOL    HW184642   4.344   9.746   3.892  0.4141 -0.4394  1.2171
27037SOL    HW284643   4.451   9.641   3.913  1.9852  0.8940  0.1041
27038SOL     OW84644   3.770   3.906   1.154  0.3631  0.2563 -0.1550
27038SOL    HW184645   3.802   3.949   1.233  0.5009  1.0530 -0.6316
27038SOL    HW284646   3.767   3.813   1.176 -0.6318  0.5715  1.1457
27039SOL     OW84647  10.914   3.557   3.830  0.3332 -0.5740 -0.3771
27039SOL    HW184648  10.879   3.621   3.768  1.7668  1.7871  1.1011
27039SOL    HW284649  11.009   3.574   3.832  0.2695  0.0997  3.0368
27040SOL     OW84650   6.466   6.926   2.855 -0.0307  0.0703  0.0811
27040SOL    HW184651   6.375   6.897   2.856  0.8009 -2.7670  0.6865
27040SOL    HW284652   6.516   6.853   2.892  2.5077  1.5261 -0.2191
27041SOL     OW84653   5.575   5.179   4.377  0.3246  0.2996 -0.1186
27041SOL    HW184654   5.595   5.252   4.319  1.7220 -0.3538 -0.4797
27041SOL    HW284655   5.483   5.159   4.359  0.0361  1.6745 -0.3105
27042SOL     OW84656   9.867  10.552   7.686 -0.4359 -0.5071  0.3589
27042SOL    HW184657   9.956  10.585   7.686 -0.7418  0.4040  1.3353
27042SOL    HW284658   9.851  10.523   7.596  0.9679 -1.0825  0.2749
27043SOL     OW84659   0.965   0.743  10.394 -0.0575 -0.5085  0.1479
27043SOL    HW184660   1.006   0.781  10.316 -2.3912  3.0103  0.4097
27043SOL    HW284661   1.034   0.741  10.460  1.4371 -1.6563 -1.3727
27044SOL     OW84662   8.454   7.266   9.957 -0.1009  0.2295 -0.2360
27044SOL    HW184663   8.512   7.206  10.003 -1.3331  0.1313  1.2691
27044SOL    HW284664   8.386   7.209   9.919 -0.2309  0.5036 -0.4171
27045SOL     OW84665   9.726   8.810   7.751  0.7824 -0.4918  0.6114
27045SOL    HW184666   9.662   8.768   7.810  0.7973  0.5351  1.3852
27045SOL    HW284667   9.682   8.890   7.722  0.9660 -0.7593 -0.4215
27046SOL     OW84668   9.644   8.552  10.430 -0.2279 -0.1448  0.3323
27046SOL    HW184669   9.654   8.467  10.387 -1.0170 -0.9535  1.6556
27046SOL    HW284670   9.608   8.610  10.363  0.1418 -0.9007 -0.5373
27047SOL     OW84671   1.651   1.509   4.554  0.4023 -0.3447 -0.1236
27047SOL    HW184672   1.648   1.490   4.461  1.8268 -1.0200 -0.0599
27047SOL    HW284673   1.614   1.597   4.562 -0.5177 -0.6101 -1.2047
27048SOL     OW84674   6.414   4.935   8.198 -0.2219  0.4401 -0.0950
27048SOL    HW184675   6.390   4.842   8.193  0.8072  0.2240 -1.9302
27048SOL    HW284676   6.372   4.974   8.121 -1.3314  1.6943  1.1081
27049SOL     OW84677   0.868   9.991   9.362 -0.0779 -0.4129  0.2458
27049SOL    HW184678   0.915   9.918   9.322  1.8751  1.4991 -1.1724
27049SOL    HW284679   0.908  10.001   9.448  0.3982 -0.3452  0.0175
27050SOL     OW84680   1.034   6.091   6.856 -0.2028 -0.0085  0.1231
27050SOL    HW184681   1.051   6.185   6.860 -0.9618  0.1364  0.0252
27050SOL    HW284682   1.120   6.050   6.868  0.1111  0.6944  0.2690
27051SOL     OW84683   6.148   0.649   5.139 -0.2109  0.4199  0.2288
27051SOL    HW184684   6.210   0.577   5.140 -0.1385  0.4465 -1.1577
27051SOL    HW284685   6.198   0.725   5.169  0.2273  0.2931 -0.1883
27052SOL     OW84686   4.373   4.446   1.845 -0.2669  0.0602  0.3690
27052SOL    HW184687   4.429   4.373   1.817  2.4749  2.2430 -0.2067
27052SOL    HW284688   4.404   4.521   1.795 -0.1267  2.6008  3.9277
27053SOL     OW84689   3.458   1.499   2.696 -0.7482 -0.1094 -0.3030
27053SOL    HW184690   3.475   1.527   2.606 -1.8866 -0.2192 -0.5675
27053SOL    HW284691   3.445   1.405   2.689  1.2126 -0.4828  0.3111
27054SOL     OW84692   9.505  10.746   6.514  0.2174  0.3272  0.6562
27054SOL    HW184693   9.532  10.655   6.503  1.6960  0.4673  2.4958
27054SOL    HW284694   9.501  10.781   6.425  0.0493 -1.4014 -0.0609
27055SOL     OW84695   7.017   1.557   2.823  0.0520  0.0282  0.1491
27055SOL    HW184696   7.058   1.474   2.798  0.2450  0.0791  0.2925
27055SOL    HW284697   6.961   1.535   2.897 -0.1780 -0.0409 -0.0446
27056SOL     OW84698   5.210   1.554   7.404 -0.1386  0.3241 -0.0880
27056SOL    HW184699   5.119   1.581   7.417  0.2226  1.1927  0.7111
27056SOL    HW284700   5.262   1.630   7.430  0.7986  0.2040 -1.5149
27057SOL     OW84701   6.768   3.205   5.943 -0.1090 -0.3514 -0.3083
27057SOL    HW184702   6.698   3.229   5.882  2.2377  0.1053 -3.0423
27057SOL    HW284703   6.786   3.286   5.991 -0.7208 -0.1672 -0.3765
27058SOL     OW84704   0.093   1.452   1.660  0.3198 -0.1705  0.1152
27058SOL    HW184705   0.115   1.537   1.697  0.2804 -0.1712  0.1408
27058SOL    HW284706   0.045   1.408   1.730 -1.8330  0.7048 -0.7429
27059SOL     OW84707   1.575   9.026  10.283  0.1328  0.1206  0.3092
27059SOL    HW184708   1.487   8.997  10.259  1.0156 -0.9702 -1.9397
27059SOL    HW284709   1.570   9.121  10.284 -1.0827  0.0708  0.2726
27060SOL     OW84710   5.896   9.777   7.303  0.6031 -0.2164 -0.0689
27060SOL    HW184711   5.839   9.802   7.375  1.1051 -1.1212  0.6641
27060SOL    HW284712   5.958   9.715   7.341  1.0021 -0.5711 -1.2283
27061SOL     OW84713   9.254   2.478   6.220  0.6198  0.5335  0.3403
27061SOL    HW184714   9.185   2.415   6.240 -0.4568  2.0469  1.6609
27061SOL    HW284715   9.335   2.432   6.241 -0.0884 -0.6247  0.6356
27062SOL     OW84716   5.433   1.237   4.909 -0.5654  0.1780  0.4541
27062SOL    HW184717   5.526   1.216   4.907 -0.4525  0.6746  0.0351
27062SOL    HW284718   5.413   1.250   5.001 -0.3044 -0.2964  0.5774
27063SOL     OW84719   8.790   7.846   4.704 -0.5595  0.5969 -0.8665
27063SOL    HW184720   8.704   7.806   4.694  0.1718 -1.1679 -0.3737
27063SOL    HW284721   8.776   7.938   4.683 -2.4680  0.2571 -1.2298
27064SOL     OW84722   4.689   9.355   3.621  0.2060  0.3134 -0.2588
27064SOL    HW184723   4.777   9.330   3.593 -0.3520 -1.0489 -0.8385
27064SOL    HW284724   4.666   9.291   3.688 -0.5925  0.2818 -0.5544
27065SOL     OW84725   8.371   7.751   2.503  0.5261 -0.1457 -0.3968
27065SOL    HW184726   8.467   7.755   2.502  0.5635  0.1532 -3.0017
27065SOL    HW284727   8.348   7.721   2.415 -1.8017  0.7016 -0.1331
27066SOL     OW84728  10.251   3.515   7.462 -0.1345 -0.2286  0.2336
27066SOL    HW184729  10.209   3.509   7.376 -0.3220 -1.0675  0.3764
27066SOL    HW284730  10.336   3.474   7.450  0.1329  0.3120  0.2692
27067SOL     OW84731   8.369  10.405  10.298  0.2253  0.1720  0.2781
27067SOL    HW184732   8.420  10.361  10.230 -1.4376  1.4540 -1.9062
27067SOL    HW284733   8.279  10.400  10.268 -0.1692  4.1902  0.3002
27068SOL     OW84734   3.654   2.210   1.074 -0.0742  0.3591  0.2085
27068SOL    HW184735   3.693   2.185   1.158 -0.5801 -0.6619  0.1647
27068SOL    HW284736   3.651   2.128   1.025 -3.9914 -0.1332  0.9219
27069SOL     OW84737   9.159   5.664   0.220 -0.2704  0.3806  0.6851
27069SOL    HW184738   9.128   5.613   0.294 -2.6220  0.4912 -0.1589
27069SOL    HW284739   9.214   5.732   0.260 -0.6365 -0.1801  2.2168
27070SOL     OW84740   3.830   0.411   9.522 -0.1841  0.3210  0.1464
27070SOL    HW184741   3.915   0.405   9.478  0.2164  2.5219  0.5343
27070SOL    HW284742   3.814   0.322   9.553  2.7015  0.0928  1.3254
27071SOL     OW84743   0.474   5.109   1.414  0.2948  0.0621  0.3759
27071SOL    HW184744   0.464   5.172   1.486 -1.0352  0.9014 -0.5145
27071SOL    HW284745   0.525   5.155   1.348 -1.4874  0.6097 -0.6844
27072SOL     OW84746   7.189  10.062   3.195  0.2865 -0.5959  0.1921
27072SOL    HW184747   7.093  10.067   3.186  0.2006 -2.6544 -0.5160
27072SOL    HW284748   7.204  10.073   3.289 -0.7813 -1.4014  0.4857
27073SOL     OW84749  10.061   2.916   6.648 -0.4660 -0.1515 -0.1953
27073SOL    HW184750  10.153   2.893   6.661 -0.5275  0.0339  0.5940
27073SOL    HW284751  10.060   3.012   6.647 -0.7294 -0.1453  0.4115
27074SOL     OW84752   2.538   6.807   9.274  0.1479 -0.1921  0.2644
27074SOL    HW184753   2.572   6.752   9.204  0.4383  0.2494  0.0580
27074SOL    HW284754   2.502   6.884   9.230 -0.2992 -0.2317  0.5494
27075SOL     OW84755   1.580   1.913  10.592 -0.0596 -0.1382 -0.4165
27075SOL    HW184756   1.551   1.845  10.531  0.7361 -0.8999  0.0404
27075SOL    HW284757   1.666   1.940  10.558 -0.7384  1.2764 -1.0962
27076SOL     OW84758   8.618   7.339   6.174  0.0446  0.1725  0.6183
27076SOL    HW184759   8.657   7.252   6.178  1.0659  0.6577  3.7641
27076SOL    HW284760   8.681   7.396   6.219 -0.6640  2.5549 -1.1717
27077SOL     OW84761   6.969   2.977   0.764 -0.1530  0.0098  0.2100
27077SOL    HW184762   6.889   2.969   0.815 -0.7153 -0.6818 -0.7406
27077SOL    HW284763   6.960   3.060   0.717 -0.6422 -0.3894 -0.4186
27078SOL     OW84764   1.837   2.987   9.355  0.2375 -0.0356 -0.2583
27078SOL    HW184765   1.898   2.933   9.405 -0.4141 -0.9183 -0.3813
27078SOL    HW284766   1.751   2.962   9.389 -0.1602 -0.0470 -1.2453
27079SOL     OW84767   2.314   3.424  10.348  0.9429  0.3431 -0.0067
27079SOL    HW184768   2.367   3.501  10.328  1.1288  0.4682  0.9177
27079SOL    HW284769   2.319   3.415  10.444 -2.0501  1.3698  0.3810
27080SOL     OW84770   8.942   7.490   8.938  0.0671 -0.4338 -0.4919
27080SOL    HW184771   8.875   7.470   9.003 -0.6098 -2.6992 -1.7908
27080SOL    HW284772   8.903   7.468   8.854  1.2904  1.4165 -1.6431
27081SOL     OW84773   7.856   9.460   4.045  0.3146  0.5870  0.2615
27081SOL    HW184774   7.864   9.446   4.139  2.5673  1.3025  0.2189
27081SOL    HW284775   7.829   9.375   4.009  0.4014  0.0617  1.4225
27082SOL     OW84776   4.742   7.307   9.518 -0.3778  0.3076 -0.0679
27082SOL    HW184777   4.819   7.343   9.563 -0.2386  1.1670 -0.9733
27082SOL    HW284778   4.777   7.235   9.466 -0.3823 -0.0505  0.4133
27083SOL     OW84779   7.201   0.334   5.342 -0.6271  0.4078 -0.0562
27083SOL    HW184780   7.131   0.348   5.406  0.0243  0.4412  0.6811
27083SOL    HW284781   7.281   0.357   5.390  0.2002 -2.4334  0.1329
27084SOL     OW84782   5.211   6.428   9.293 -0.3389  0.4264 -0.2196
27084SOL    HW184783   5.266   6.375   9.235 -1.1462 -1.2147  0.4344
27084SOL    HW284784   5.171   6.493   9.236 -0.1748 -0.3713 -1.2748
27085SOL     OW84785   3.621   7.869   7.055  0.1082  0.9301 -0.4285
27085SOL    HW184786   3.702   7.856   7.007  1.9014 -2.2126  2.9490
27085SOL    HW284787   3.648   7.890   7.144 -2.7117 -0.4693  0.9012
27086SOL     OW84788   0.492   1.935   8.661  0.4275 -0.0415 -0.0480
27086SOL    HW184789   0.449   1.894   8.586  0.3697  0.1568 -0.1242
27086SOL    HW284790   0.518   2.021   8.630  2.0681 -0.6294 -0.4304
27087SOL     OW84791  11.038  10.089   4.590  0.1877  0.1374 -0.7605
27087SOL    HW184792  10.972  10.130   4.533  1.2353  0.8920 -1.4575
27087SOL    HW284793  11.097  10.044   4.530 -1.1776 -2.8879 -0.0081
27088SOL     OW84794   7.074   1.212   1.913  0.1211  0.6949  0.0875
27088SOL    HW184795   7.064   1.141   1.976  1.2262  0.6645  0.2450
27088SOL    HW284796   7.116   1.171   1.837 -0.4114  0.9136 -0.3317
27089SOL     OW84797   1.731   4.113   6.930  0.1802  0.2006 -0.4396
27089SOL    HW184798   1.786   4.103   7.007  1.5907  0.7314 -1.3338
27089SOL    HW284799   1.671   4.184   6.952 -0.6273 -0.8119  0.7844
27090SOL     OW84800   5.682   6.651   4.517 -0.1387 -0.0893  0.5066
27090SOL    HW184801   5.749   6.586   4.498 -1.8709 -1.9355  0.3963
27090SOL    HW284802   5.605   6.622   4.468 -0.4520  3.1825 -1.2197
27091SOL     OW84803   2.927   9.844  11.008  0.2406  0.4829 -0.4821
27091SOL    HW184804   2.944   9.754  11.035 -2.2896 -0.4609 -1.6641
27091SOL    HW284805   2.955   9.898  11.082 -2.1629 -1.6324  2.1746
27092SOL     OW84806   5.456   1.154   1.642  0.0614  0.0168 -0.0120
27092SOL    HW184807   5.425   1.245   1.641 -0.2730 -0.0802  0.7197
27092SOL    HW284808   5.400   1.111   1.708  1.2669 -0.3442  0.8050
27093SOL     OW84809   8.799   1.783   4.022 -0.1371  0.3511 -0.1591
27093SOL    HW184810   8.881   1.821   4.054  0.1203  0.5920 -1.0903
27093SOL    HW284811   8.812   1.773   3.928 -0.9947 -0.0798 -0.2384
27094SOL     OW84812   9.462   6.311   9.700 -0.2298 -0.0841  0.5506
27094SOL    HW184813   9.468   6.307   9.795 -1.0938 -1.4297  0.5663
27094SOL    HW284814   9.479   6.222   9.671 -0.5120  0.2024 -0.5315
27095SOL     OW84815   5.029  10.807   7.923  0.3588 -0.1243 -0.6404
27095SOL    HW184816   5.070  10.890   7.899  2.1714 -1.3949 -2.2403
27095SOL    HW284817   5.041  10.751   7.846 -2.5266 -1.3179 -0.3578
27096SOL     OW84818   6.870   7.473   6.234 -0.1166  0.2355  0.6843
27096SOL    HW184819   6.910   7.536   6.174  2.6533 -0.8131  1.2881
27096SOL    HW284820   6.793   7.441   6.187  0.6210  1.1916 -1.2884
27097SOL     OW84821   6.306   0.620   7.757 -0.0472  0.0308  0.5494
27097SOL    HW184822   6.329   0.655   7.671  0.2767  0.1370  0.6769
27097SOL    HW284823   6.220   0.657   7.776  0.7300  1.6321  1.1394
27098SOL     OW84824   5.760   5.023   9.824 -0.3507 -0.1510 -0.1734
27098SOL    HW184825   5.818   5.055   9.754 -0.3115 -0.0929 -0.1137
27098SOL    HW284826   5.811   5.036   9.904  0.5626 -2.3839 -0.3312
27099SOL     OW84827  10.294   9.849  10.681  0.2019 -0.3227 -0.1106
27099SOL    HW184828  10.278   9.933  10.725  1.0560  0.5775 -1.4538
27099SOL    HW284829  10.218   9.838  10.624  0.2752 -0.2625 -0.2205
27100SOL     OW84830   5.211   6.969   8.143  0.3470  0.4023 -0.2383
27100SOL    HW184831   5.257   7.020   8.077 -0.2983  0.4485 -0.6655
27100SOL    HW284832   5.228   7.015   8.226  1.5344  0.0852 -0.2881
27101SOL     OW84833   4.730   6.196   6.859 -0.0063  0.5555  0.0162
27101SOL    HW184834   4.641   6.209   6.891  0.2927 -0.0737  1.1334
27101SOL    HW284835   4.744   6.269   6.798 -1.2297  0.7338 -0.0786
27102SOL     OW84836   2.084   2.486   9.053 -0.0781  0.8826 -0.2957
27102SOL    HW184837   2.051   2.539   9.125 -1.9358  0.4041 -0.7465
27102SOL    HW284838   2.040   2.521   8.975 -1.2242 -1.1351 -0.6377
27103SOL     OW84839   8.731   4.272   8.869  0.0685  0.0425  0.3444
27103SOL    HW184840   8.808   4.270   8.926  0.3904  1.1172 -0.0219
27103SOL    HW284841   8.744   4.200   8.808  0.6166  0.0037  0.5007
27104SOL     OW84842   1.743   8.544   5.785  0.2006  0.0832 -0.3060
27104SOL    HW184843   1.819   8.552   5.841  0.1740 -1.0769 -0.0794
27104SOL    HW284844   1.776   8.507   5.703 -0.5170 -3.7901  0.9659
27105SOL     OW84845  10.641   0.389   5.378 -0.3918  0.2943  0.0505
27105SOL    HW184846  10.704   0.351   5.316 -0.6269 -0.6014  0.3427
27105SOL    HW284847  10.655   0.483   5.372 -0.8781  0.2966 -1.8881
27106SOL     OW84848   4.046   5.411   1.226 -0.1060  0.0866  0.2585
27106SOL    HW184849   4.007   5.411   1.138 -1.2868  1.0325  0.7583
27106SOL    HW284850   4.082   5.499   1.237  1.9218 -0.6588 -0.0473
27107SOL     OW84851   5.814   0.020   0.335 -0.3312  0.4095 -0.2207
27107SOL    HW184852   5.866   0.052   0.261 -0.8842 -0.4685 -1.0195
27107SOL    HW284853   5.805   0.095   0.393 -2.0773  1.9031 -2.2754
27108SOL     OW84854   9.979   3.775   3.984  0.3207  0.3240 -0.0040
27108SOL    HW184855   9.951   3.844   3.923  2.1764  0.4835 -0.7539
27108SOL    HW284856  10.060   3.809   4.023  1.2111 -1.3537 -0.3018
27109SOL     OW84857   5.440   3.713  10.864  0.5612  0.1915  0.6032
27109SOL    HW184858   5.493   3.749  10.793 -2.7616  1.6123 -1.4311
27109SOL    HW284859   5.420   3.789  10.919 -0.9204  0.1253  0.1865
27110SOL     OW84860   5.356   9.447   1.208  0.3668 -0.2452 -0.5248
27110SOL    HW184861   5.422   9.426   1.275  1.4665 -0.8410 -1.7491
27110SOL    HW284862   5.272   9.435   1.252  1.0171 -2.4135  0.2513
27111SOL     OW84863   9.632   2.605   0.968  0.1504  0.1006  0.0237
27111SOL    HW184864   9.541   2.631   0.984  0.6014  1.1523  1.0465
27111SOL    HW284865   9.651   2.540   1.035  0.1796 -0.0714 -0.1500
27112SOL     OW84866   0.233   6.079   5.050 -0.0504  0.1686  0.2424
27112SOL    HW184867   0.176   6.152   5.075 -0.5124  1.3609 -3.5580
27112SOL    HW284868   0.322   6.113   5.059 -0.2522  1.0795 -0.8981
27113SOL     OW84869   1.245   1.967   2.454  0.5386  0.2115  0.7655
27113SOL    HW184870   1.251   2.055   2.491  1.1625  0.7265 -0.4988
27113SOL    HW284871   1.333   1.948   2.422  0.5976 -1.1942  1.6949
27114SOL     OW84872   5.785   6.487   4.796 -0.1710  0.1333  0.5796
27114SOL    HW184873   5.699   6.445   4.792 -0.8128  1.3058  1.3222
27114SOL    HW284874   5.837   6.442   4.729 -1.5157 -0.2505 -0.2553
27115SOL     OW84875   3.593   2.450   9.770 -0.2426  0.7205  0.0052
27115SOL    HW184876   3.528   2.508   9.731 -0.8877 -0.3780 -0.6274
27115SOL    HW284877   3.545   2.368   9.787  1.1331 -0.3876 -1.1930
27116SOL     OW84878   9.821   0.723   9.480  0.2046 -0.1199  0.3068
27116SOL    HW184879   9.846   0.685   9.396  0.1048  0.0149  0.2172
27116SOL    HW284880   9.844   0.655   9.544 -0.7754 -0.6990  0.0713
27117SOL     OW84881   1.350   3.250   3.215  0.5961  0.2679 -0.4692
27117SOL    HW184882   1.425   3.249   3.274  1.9597 -0.0005 -2.1174
27117SOL    HW284883   1.338   3.343   3.194  1.5134  0.1954 -1.4113
27118SOL     OW84884   4.213   8.337   6.283  0.6088 -0.4576 -0.1513
27118SOL    HW184885   4.230   8.389   6.361  1.1265 -1.6447  0.5531
27118SOL    HW284886   4.223   8.246   6.312  1.2749 -0.9073 -1.7061
27119SOL     OW84887   7.981   3.602  10.363  0.1365 -0.5598  0.2033
27119SOL    HW184888   8.003   3.613  10.456 -0.6811  0.1422  0.3185
27119SOL    HW284889   7.945   3.513  10.358  2.0285 -1.3865  0.1745
27120SOL     OW84890   2.666   9.368   0.839 -0.2291  0.3688  0.0299
27120SOL    HW184891   2.685   9.389   0.747  2.3239  1.8526  0.7962
27120SOL    HW284892   2.722   9.293   0.858 -0.2246  0.4970  0.5322
27121SOL     OW84893   9.108   9.159   8.585  0.4957 -0.0769 -0.0085
27121SOL    HW184894   9.142   9.075   8.617  0.8958  1.0596  2.9571
27121SOL    HW284895   9.015   9.157   8.608  0.3489  0.0102 -0.5960
27122SOL     OW84896   6.496   3.076  10.078 -0.7703  0.4473  0.1447
27122SOL    HW184897   6.567   3.022  10.113 -0.1823 -0.4840 -2.3186
27122SOL    HW284898   6.419   3.050  10.129 -0.0572 -1.1226  0.4838
27123SOL     OW84899   3.297   9.640   4.826 -0.3913 -0.2167  0.5076
27123SOL    HW184900   3.358   9.713   4.820 -0.8609  0.1724  0.4231
27123SOL    HW284901   3.271   9.623   4.735  2.0840 -2.5422  0.1057
27124SOL     OW84902   1.422   6.758   1.740  0.2664  0.3745  0.2036
27124SOL    HW184903   1.500   6.723   1.783  0.4270  1.1875  0.5934
27124SOL    HW284904   1.350   6.703   1.773  0.2623  1.4861  2.2068
27125SOL     OW84905  10.518   4.306   8.651 -0.2146 -0.2321  0.1358
27125SOL    HW184906  10.608   4.307   8.685 -0.3186  1.3363  0.4496
27125SOL    HW284907  10.464   4.286   8.727 -0.2752  1.0174  0.4437
27126SOL     OW84908   0.598   9.023   6.288  0.2760  0.2831  0.0125
27126SOL    HW184909   0.625   9.064   6.370  1.8100 -1.2433  0.3297
27126SOL    HW284910   0.556   8.940   6.315 -0.9586  0.6464 -0.6882
27127SOL     OW84911   0.627   2.947  10.176  0.0447  0.1693 -0.4528
27127SOL    HW184912   0.672   2.971  10.256  2.5538 -1.1786 -1.3685
27127SOL    HW284913   0.605   2.854  10.187 -2.9983  0.8454  0.1132
27128SOL     OW84914   2.980   2.685   3.624  0.0123 -0.3056  0.6092
27128SOL    HW184915   2.934   2.719   3.548 -0.9569 -0.7042  0.9998
27128SOL    HW284916   2.980   2.758   3.686 -0.2502 -0.3581  0.6727
27129SOL     OW84917   4.786   5.652   8.435  0.2971  0.2720  0.3744
27129SOL    HW184918   4.700   5.678   8.402 -0.2896 -0.7341  1.0434
27129SOL    HW284919   4.830   5.735   8.454 -0.1332  0.8223 -0.8966
27130SOL     OW84920   8.300   6.627   5.891 -0.2307 -0.8142 -0.2301
27130SOL    HW184921   8.364   6.587   5.950 -0.0442 -1.2139 -0.6908
27130SOL    HW284922   8.315   6.583   5.807 -0.2100  0.0391 -0.6829
27131SOL     OW84923   1.956   2.837   8.188 -0.0369 -0.4294 -0.0821
27131SOL    HW184924   1.876   2.801   8.152 -1.4473  0.0933  2.3022
27131SOL    HW284925   1.971   2.789   8.269  1.0321  0.7061  0.4492
27132SOL     OW84926   4.605  10.104   8.203 -0.4568  0.1046 -0.2437
27132SOL    HW184927   4.635  10.122   8.293 -0.5095  0.4381 -0.2912
27132SOL    HW284928   4.587  10.010   8.202  0.5489 -0.1041 -0.1975
27133SOL     OW84929   1.430   0.099   7.861 -0.1911  0.8529  0.4826
27133SOL    HW184930   1.450   0.147   7.781 -2.1383 -0.3172 -0.7961
27133SOL    HW284931   1.512   0.096   7.909  2.1172 -1.4888 -3.1340
27134SOL     OW84932   3.522   8.245   8.292 -0.1810 -0.0229  0.4338
27134SOL    HW184933   3.608   8.212   8.265  0.3607  0.9988  0.8372
27134SOL    HW284934   3.463   8.220   8.221  1.0528  1.9682 -1.4327
27135SOL     OW84935   1.415   3.820   0.325 -0.5561  0.4979 -0.5872
27135SOL    HW184936   1.364   3.748   0.288 -1.4924  0.8195  0.0385
27135SOL    HW284937   1.438   3.875   0.250  1.1664 -1.0276 -1.2420
27136SOL     OW84938   8.251   4.676   6.138  0.1865  0.4827 -0.2030
27136SOL    HW184939   8.174   4.619   6.142  0.3163  0.0586 -2.5094
27136SOL    HW284940   8.254   4.706   6.047  3.3560 -0.3575 -0.4914
27137SOL     OW84941  10.700   7.915   5.891 -0.4451 -0.3343  0.0200
27137SOL    HW184942  10.783   7.894   5.934  0.2601 -0.7667 -1.4964
27137SOL    HW284943  10.685   7.842   5.831 -1.6709  0.0069 -0.1171
27138SOL     OW84944   9.360   4.725   0.168  0.0335  0.1955  0.5683
27138SOL    HW184945   9.397   4.811   0.148  0.7945 -0.0223  1.0228
27138SOL    HW284946   9.384   4.671   0.092 -0.2985  0.3388  0.3609
27139SOL     OW84947   1.013   4.219   0.682 -0.1650 -0.5496  0.2724
27139SOL    HW184948   1.096   4.262   0.698 -1.2454  1.7481  0.0010
27139SOL    HW284949   0.968   4.221   0.767 -1.6323  2.1784 -0.4482
27140SOL     OW84950   6.170   0.146   1.674  1.2156 -0.4077 -0.3669
27140SOL    HW184951   6.241   0.194   1.716  1.6734  0.4561 -2.0203
27140SOL    HW284952   6.199   0.055   1.675  2.4235 -0.0595 -1.0823
27141SOL     OW84953  10.936   4.831  11.091 -0.0683  0.4294  0.1445
27141SOL    HW184954  11.003   4.890  11.126  0.3043 -0.5254  1.1194
27141SOL    HW284955  10.946   4.751  11.143 -0.6260 -0.4526 -1.0681
27142SOL     OW84956   2.682   3.138  10.632  0.0106 -0.2892 -0.2880
27142SOL    HW184957   2.716   3.141  10.542 -0.4737  2.6004 -0.4775
27142SOL    HW284958   2.588   3.152  10.622 -0.0316  0.1828  0.6545
27143SOL     OW84959   1.113   4.112   3.802  0.7144  0.3588  0.6635
27143SOL    HW184960   1.043   4.133   3.864 -0.9402 -1.5574 -0.4599
27143SOL    HW284961   1.069   4.107   3.717  2.0764 -1.5475  0.0230
27144SOL     OW84962   9.636   7.543   0.337  0.2872  0.2420  0.7291
27144SOL    HW184963   9.544   7.536   0.310  0.3767  0.1452  0.4487
27144SOL    HW284964   9.632   7.557   0.431 -0.0900  1.7911  0.5216
27145SOL     OW84965  10.058   6.515   0.772  0.1234  0.2204 -0.0692
27145SOL    HW184966  10.029   6.530   0.682 -0.6149 -0.7335 -0.0059
27145SOL    HW284967   9.995   6.452   0.807  0.8805 -0.0380  0.8561
27146SOL     OW84968   9.466   2.089   7.909  0.5073 -0.5833  0.5919
27146SOL    HW184969   9.399   2.141   7.954 -0.4068 -0.0473 -1.2842
27146SOL    HW284970   9.435   1.998   7.917 -0.4413 -0.3456 -0.2195
27147SOL     OW84971   1.632   3.115  10.737  0.3896  0.1298 -0.0689
27147SOL    HW184972   1.599   3.112  10.647 -0.6687 -2.0048  0.3263
27147SOL    HW284973   1.556   3.143  10.789  0.6278  0.0827  0.3108
27148SOL     OW84974   3.197   0.501   4.338  0.5302  0.1345  0.3511
27148SOL    HW184975   3.107   0.529   4.357  0.5632 -0.6988  1.8778
27148SOL    HW284976   3.188   0.448   4.259 -0.2555  0.4016  0.2442
27149SOL     OW84977   4.576   1.060   8.171  0.1220  0.2269  0.2489
27149SOL    HW184978   4.504   1.071   8.233  1.0424  0.4903  1.3029
27149SOL    HW284979   4.655   1.065   8.225  1.0116  1.7073 -1.1081
27150SOL     OW84980   9.910   0.150  10.284  0.3860 -0.5772 -0.0580
27150SOL    HW184981   9.997   0.176  10.252  0.0735  0.9715  0.2656
27150SOL    HW284982   9.920   0.144  10.379  0.2056 -0.6898 -0.0465
27151SOL     OW84983   0.834  10.883   6.351 -0.1119 -0.0828 -0.1257
27151SOL    HW184984   0.778  10.844   6.284 -0.3848 -0.6870  0.4391
27151SOL    HW284985   0.858  10.810   6.407 -2.1315  0.7726  2.0302
27152SOL     OW84986  10.738   9.881   0.513  0.0726  0.3965 -0.2003
27152SOL    HW184987  10.829   9.898   0.536 -0.0639  0.2949  0.4662
27152SOL    HW284988  10.691   9.959   0.542 -0.0956  0.2980 -0.2025
27153SOL     OW84989   6.945   1.697   0.888  0.4321  0.1975  0.7533
27153SOL    HW184990   6.934   1.750   0.966 -1.5970  1.4257 -0.2861
27153SOL    HW284991   6.863   1.647   0.881  0.0325  1.0408 -1.2155
27154SOL     OW84992  10.231   4.049   5.095  1.2172  0.3788  0.6701
27154SOL    HW184993  10.238   4.083   5.185  0.0963  3.3739 -0.2713
27154SOL    HW284994  10.314   4.075   5.054  1.7155 -0.9640  0.7697
27155SOL     OW84995   8.185   8.751   8.967 -0.0923  0.3185 -0.5904
27155SOL    HW184996   8.140   8.730   9.049  0.2558 -0.5763 -0.6119
27155SOL    HW284997   8.269   8.706   8.975  0.6567  1.6609 -0.7104
27156SOL     OW84998   5.245  10.894   1.889 -0.0923 -0.4176  0.3097
27156SOL    HW184999   5.245  10.936   1.975 -3.2380  0.9389 -0.2391
27156SOL    HW285000   5.195  10.813   1.901 -2.1738  0.6753 -0.5315
27157SOL     OW85001   2.561   8.477   6.565  0.0097  0.2241  0.4175
27157SOL    HW185002   2.651   8.464   6.535 -0.2773 -0.2076 -0.2852
27157SOL    HW285003   2.537   8.563   6.531 -0.2934 -0.2375 -0.5719
27158SOL     OW85004   1.596   4.592  10.689  0.0073  0.2064 -0.3383
27158SOL    HW185005   1.677   4.618  10.733  1.4392 -1.1879 -1.9603
27158SOL    HW285006   1.559   4.674  10.657  1.6668  0.7642 -0.9609
27159SOL     OW85007   0.511  10.438   2.808  0.0589 -0.4052 -0.3636
27159SOL    HW185008   0.536  10.520   2.851 -3.7940  0.3727  0.8183
27159SOL    HW285009   0.458  10.466   2.734  1.9182 -1.8869 -2.3731
27160SOL     OW85010   7.189   6.594   5.851  0.3611  0.0803  0.6905
27160SOL    HW185011   7.124   6.540   5.807  1.2601  0.1902 -0.8330
27160SOL    HW285012   7.224   6.538   5.921  0.3866 -0.8592 -0.0600
27161SOL     OW85013   4.595   5.560   3.921 -0.6167 -0.5874  0.4259
27161SOL    HW185014   4.625   5.590   4.007 -0.6127 -0.3866  0.3543
27161SOL    HW285015   4.675   5.529   3.878 -0.3563  0.7203 -0.0847
27162SOL     OW85016   4.659   6.804   8.935  0.1763 -0.0390 -0.0223
27162SOL    HW185017   4.590   6.839   8.992  0.4884  1.5123 -0.5530
27162SOL    HW285018   4.705   6.881   8.902  1.6888 -1.0165 -0.3003
27163SOL     OW85019   1.985   3.957   6.355  0.8608 -0.1580 -0.2214
27163SOL    HW185020   1.975   3.873   6.308  1.2487 -0.5961  0.4752
27163SOL    HW285021   2.076   3.958   6.384  0.5010 -0.1069  0.9350
27164SOL     OW85022   5.763   4.077   7.984  0.3445  0.1706 -0.1957
27164SOL    HW185023   5.847   4.032   7.989  0.8273  1.1733  1.0978
27164SOL    HW285024   5.762   4.135   8.060 -0.2577  2.3655 -1.7911
27165SOL     OW85025   3.843   4.554   6.571  0.0666 -0.6797  0.1201
27165SOL    HW185026   3.791   4.525   6.497  0.4275 -0.3963 -0.2555
27165SOL    HW285027   3.871   4.643   6.547 -1.3669  0.1648  1.4127
27166SOL     OW85028   2.683   5.196   2.817 -0.0545 -0.7085 -0.0443
27166SOL    HW185029   2.643   5.111   2.798 -0.5656 -0.5163  0.1352
27166SOL    HW285030   2.777   5.179   2.815 -0.1497 -1.2986  0.0653
27167SOL     OW85031  10.703   5.174   4.145 -0.6107  0.6678  0.2371
27167SOL    HW185032  10.797   5.167   4.164 -0.7748 -0.8221  0.6294
27167SOL    HW285033  10.661   5.115   4.208 -1.5997 -0.4886 -1.4161
27168SOL     OW85034   6.762   9.074   7.901 -0.7023 -0.5362  0.1195
27168SOL    HW185035   6.811   8.992   7.896 -0.8002 -0.6044  0.2603
27168SOL    HW285036   6.753   9.102   7.810  0.7701  0.1858  0.1640
27169SOL     OW85037   6.373   2.796   9.903 -0.0345 -0.1270 -0.0622
27169SOL    HW185038   6.456   2.829   9.869  0.9388 -1.7546  0.5989
27169SOL    HW285039   6.359   2.714   9.856 -0.9512 -0.1897  0.3008
27170SOL     OW85040   3.128   9.519   9.680 -0.0918 -0.2654 -0.2863
27170SOL    HW185041   3.059   9.556   9.735 -0.1383 -2.5237  1.3055
27170SOL    HW285042   3.084   9.450   9.630  0.5869 -0.2425 -0.9353
27171SOL     OW85043   9.110   6.532  11.113  0.0195 -0.4030 -0.0359
27171SOL    HW185044   9.186   6.490  11.152 -0.7772 -1.7074  0.1460
27171SOL    HW285045   9.132   6.539  11.020  0.8548  0.3703  0.2035
27172SOL     OW85046  10.592   7.941   4.477  0.1204 -0.2222  0.0336
27172SOL    HW185047  10.653   7.868   4.489 -1.1993 -1.3267  0.3370
27172SOL    HW285048  10.521   7.923   4.538 -0.4612  1.0904 -0.2215
27173SOL     OW85049   9.987  10.635   4.055 -0.2486  0.0166 -0.3698
27173SOL    HW185050   9.949  10.648   4.142 -0.0067 -0.2528 -0.2234
27173SOL    HW285051   9.912  10.642   3.995 -0.5759 -0.7573 -0.0603
27174SOL     OW85052   8.226   5.028   5.796  0.4685 -0.1223  0.2868
27174SOL    HW185053   8.213   5.063   5.708  0.0120 -0.6871  0.1219
27174SOL    HW285054   8.155   5.067   5.848  0.1585 -0.5406  0.1796
27175SOL     OW85055   2.976   7.306   0.034 -0.7109 -0.1296 -0.2698
27175SOL    HW185056   2.913   7.237   0.014  0.1416 -1.0742  0.2533
27175SOL    HW285057   3.061   7.269   0.010 -0.1860  0.5422  0.4940
27176SOL     OW85058   7.891   2.180   8.418 -0.2824  0.1973  0.2541
27176SOL    HW185059   7.826   2.246   8.443 -0.2544  0.2027  0.3131
27176SOL    HW285060   7.894   2.120   8.492  1.3442  1.3733  1.2141
27177SOL     OW85061   4.409   1.999   4.775 -0.3196  0.5401  0.3979
27177SOL    HW185062   4.360   1.923   4.743 -0.6070  1.0996 -0.5031
27177SOL    HW285063   4.489   1.960   4.812 -0.9325 -0.2833  0.8956
27178SOL     OW85064   5.291   5.007   3.973  0.0693  0.0650 -0.5077
27178SOL    HW185065   5.374   5.045   4.004 -0.5519  0.9326  0.1401
27178SOL    HW285066   5.257   5.072   3.911 -0.2068 -0.2089 -0.6422
27179SOL     OW85067   2.473   8.154   2.807  0.7251  0.4130  0.4916
27179SOL    HW185068   2.497   8.179   2.718 -1.0899 -0.4029 -0.2708
27179SOL    HW285069   2.435   8.234   2.845  0.0867  0.3647 -0.0205
27180SOL     OW85070   1.549   4.261   1.144  0.0696 -0.1562  0.3225
27180SOL    HW185071   1.521   4.181   1.100 -0.0868 -1.1499  2.1131
27180SOL    HW285072   1.625   4.234   1.196  1.3840  1.3871 -0.6881
27181SOL     OW85073   4.945   1.966   4.697 -0.1026 -0.2602 -0.1937
27181SOL    HW185074   4.963   1.979   4.790 -0.9474 -0.1167 -0.0455
27181SOL    HW285075   5.031   1.955   4.657  0.2478 -0.5596  0.6408
27182SOL     OW85076   2.373   2.685   0.984  0.0493 -0.4558  0.3436
27182SOL    HW185077   2.296   2.695   1.039  1.8614  1.8283  2.7302
27182SOL    HW285078   2.357   2.740   0.907 -0.7880 -0.2278  0.6797
27183SOL     OW85079   7.129   6.471   7.255  0.3278 -0.0903 -0.3785
27183SOL    HW185080   7.070   6.539   7.224 -0.3610 -0.6309 -0.2867
27183SOL    HW285081   7.136   6.486   7.349  2.0351  1.2566 -0.6741
27184SOL     OW85082   9.180   1.465   1.460  0.1555 -0.4745 -0.0709
27184SOL    HW185083   9.153   1.415   1.383  0.0782  0.6786 -0.8118
27184SOL    HW285084   9.196   1.553   1.427 -0.2005  0.1255  1.2942
27185SOL     OW85085   1.931   8.396   1.980 -0.3031 -0.2894  0.0219
27185SOL    HW185086   1.945   8.480   1.937 -2.2359  0.5887  1.0016
27185SOL    HW285087   1.872   8.415   2.053 -0.4632 -2.4315  0.5352
27186SOL     OW85088   5.782   4.702   3.011 -0.3354 -0.2707 -0.4802
27186SOL    HW185089   5.756   4.616   3.044  1.2327 -0.2689  0.8945
27186SOL    HW285090   5.723   4.718   2.938 -0.8641 -2.3908 -0.5981
27187SOL     OW85091   9.255   0.889  10.077  0.1441  0.5860 -0.4892
27187SOL    HW185092   9.342   0.899  10.117  0.0427  0.4462 -0.2305
27187SOL    HW285093   9.234   0.796  10.089 -0.0482  0.6231 -0.5388
27188SOL     OW85094   3.489   2.605   1.777 -0.1253  0.3248  0.3523
27188SOL    HW185095   3.409   2.646   1.744 -0.6014 -1.2076 -0.5246
27188SOL    HW285096   3.497   2.635   1.867 -1.2282  1.1490  0.1894
27189SOL     OW85097   4.711   5.294  10.030  0.1710 -0.0721 -0.2330
27189SOL    HW185098   4.734   5.362  10.093 -0.2709  2.9195 -3.0267
27189SOL    HW285099   4.728   5.334   9.945 -1.4412 -3.0071 -2.0987
27190SOL     OW85100   7.615   2.087   8.696 -0.0679  0.2432 -0.4634
27190SOL    HW185101   7.631   2.060   8.605 -2.1052  1.6733 -1.3269
27190SOL    HW285102   7.542   2.032   8.724  0.1249  0.2689  0.0925
27191SOL     OW85103   1.539   5.069   5.776  0.1683 -0.0761 -0.0669
27191SOL    HW185104   1.606   5.013   5.737 -0.0700  0.0252 -0.6294
27191SOL    HW285105   1.486   5.097   5.702  1.3270  2.3336 -0.0634
27192SOL     OW85106   0.607   4.508   2.297  0.0014 -0.0629 -0.3847
27192SOL    HW185107   0.582   4.568   2.227  0.7817  0.2593 -0.3988
27192SOL    HW285108   0.700   4.492   2.283 -0.6828 -3.3596 -1.9117
27193SOL     OW85109  10.913   2.488   2.338 -0.5399 -0.2080  0.1512
27193SOL    HW185110  10.848   2.507   2.406  0.2410  0.7238  0.6623
27193SOL    HW285111  10.922   2.393   2.339 -1.5662 -0.3204  0.3679
27194SOL     OW85112   0.110   3.309  10.406  0.0459 -0.4085 -0.1447
27194SOL    HW185113   0.040   3.250  10.433  0.3798 -1.0524 -0.6529
27194SOL    HW285114   0.149   3.267  10.330  0.3082  0.4633 -0.5036
27195SOL     OW85115   7.668   8.764  10.183 -0.3714 -0.1113 -0.6784
27195SOL    HW185116   7.638   8.685  10.227  0.2118 -0.0366 -0.1447
27195SOL    HW285117   7.761   8.771  10.206  0.0453 -0.2663 -2.1957
27196SOL     OW85118   8.107   5.794   7.077 -0.2027 -0.2178 -1.0662
27196SOL    HW185119   8.051   5.716   7.082 -0.2712 -0.1148 -0.0852
27196SOL    HW285120   8.046   5.867   7.070 -0.2842  0.0032  1.2448
27197SOL     OW85121   1.961  10.853   0.648 -0.1305 -0.2270  0.3785
27197SOL    HW185122   2.041  10.875   0.695 -0.9495 -0.6901  2.1007
27197SOL    HW285123   1.964  10.906   0.569  0.6874  1.6875  1.6118
27198SOL     OW85124   6.978   5.326   7.160  0.2266  0.1513 -0.4092
27198SOL    HW185125   6.888   5.353   7.138 -0.4675 -0.9358  0.9271
27198SOL    HW285126   6.968   5.240   7.200  1.8675  0.0615 -0.1204
27199SOL     OW85127   3.966  10.590   5.906 -0.1284  0.0959 -0.2203
27199SOL    HW185128   3.882  10.573   5.948  0.0206 -1.6601 -0.5556
27199SOL    HW285129   4.024  10.617   5.978 -0.8726  0.9775  0.0622
27200SOL     OW85130   6.899   0.349   1.903 -0.0862  0.0375 -0.1277
27200SOL    HW185131   6.881   0.297   1.981 -0.7275  0.4588  0.0109
27200SOL    HW285132   6.837   0.317   1.837 -0.2885  0.4183 -0.1297
27201SOL     OW85133   1.765   6.313   7.286 -0.1626  0.5004 -0.3775
27201SOL    HW185134   1.706   6.305   7.360  0.2919  0.6746  0.0065
27201SOL    HW285135   1.743   6.238   7.230  0.8978 -0.8543  0.9458
27202SOL     OW85136   0.773   9.589   9.009  0.3412 -0.2098  0.3025
27202SOL    HW185137   0.839   9.536   8.965  0.0102 -0.6008  0.2761
27202SOL    HW285138   0.701   9.529   9.025 -1.3143  0.8504 -2.4081
27203SOL     OW85139  10.048   6.904   1.249 -0.0724  0.2587  0.1758
27203SOL    HW185140  10.034   6.860   1.166 -2.0422  1.4290 -0.1627
27203SOL    HW285141  10.132   6.949   1.238 -0.8385  1.3536 -1.6652
27204SOL     OW85142   1.744   6.387   9.872 -0.1127 -0.0459 -0.2320
27204SOL    HW185143   1.732   6.481   9.854  0.4977 -0.0008 -0.4578
27204SOL    HW285144   1.784   6.353   9.792  0.0312 -0.4205 -0.0023
27205SOL     OW85145   4.766  10.274   7.417 -0.8218  0.3984  0.2340
27205SOL    HW185146   4.847  10.306   7.455 -1.2921  1.0142  0.7298
27205SOL    HW285147   4.784  10.183   7.395  1.0699  1.3034 -2.6225
27206SOL     OW85148   9.761  10.328   1.469  0.3979  0.6941 -0.9584
27206SOL    HW185149   9.751  10.413   1.426 -0.6461  0.8975 -0.3503
27206SOL    HW285150   9.673  10.290   1.468  0.3239  0.6976  0.9378
27207SOL     OW85151  11.111  10.704   3.189  0.1480 -0.2015  0.7198
27207SOL    HW185152  11.092  10.782   3.137 -0.4374 -0.5130  0.4425
27207SOL    HW285153  11.189  10.666   3.149 -0.6387 -0.7609 -0.3282
27208SOL     OW85154   0.805  10.169   7.297 -0.1064 -0.2871  0.5343
27208SOL    HW185155   0.759  10.152   7.379 -0.3202 -1.8556  0.1266
27208SOL    HW285156   0.739  10.157   7.229  0.3733 -0.2879  0.0605
27209SOL     OW85157   9.287   7.363   4.218 -0.2923 -0.2534  0.1123
27209SOL    HW185158   9.329   7.278   4.205 -0.6970 -0.3770 -0.4123
27209SOL    HW285159   9.359   7.425   4.224  0.0477 -0.7459  1.4216
27210SOL     OW85160  10.831   5.981   4.847  0.1526 -0.1584  0.2299
27210SOL    HW185161  10.906   6.038   4.831  0.1628  0.0342  0.8986
27210SOL    HW285162  10.757   6.026   4.805  0.4642 -0.5224 -0.7290
27211SOL     OW85163   1.396   8.120   7.326  0.7407 -0.0804 -0.2230
27211SOL    HW185164   1.387   8.209   7.362  0.5003  0.0300 -0.5571
27211SOL    HW285165   1.317   8.106   7.275  1.7563  0.3634 -1.9970
27212SOL     OW85166   0.323   1.861   0.219  0.2841  0.5473 -0.2163
27212SOL    HW185167   0.300   1.802   0.147 -0.6666  0.7971 -0.1343
27212SOL    HW285168   0.247   1.920   0.227  1.8407  2.8532 -1.3449
27213SOL     OW85169   8.471   0.324   3.001 -0.0652  0.5682 -0.0559
27213SOL    HW185170   8.510   0.240   2.979 -2.6230 -0.7023 -0.1097
27213SOL    HW285171   8.481   0.377   2.922 -1.0224 -0.7422 -1.0917
27214SOL     OW85172   7.458   1.181   6.709 -0.1091 -0.7865  0.1229
27214SOL    HW185173   7.417   1.205   6.626 -0.2703 -0.7731  0.2058
27214SOL    HW285174   7.552   1.194   6.695 -0.2319  0.4341  0.3489
27215SOL     OW85175   5.218   0.274   7.526  0.3772 -0.2160 -0.0128
27215SOL    HW185176   5.172   0.273   7.610  0.6793  0.2817  0.1677
27215SOL    HW285177   5.244   0.366   7.515  0.0547 -0.2173 -0.8075
27216SOL     OW85178   1.765  11.097   4.326  0.2960 -0.0114  0.2637
27216SOL    HW185179   1.768  11.127   4.235 -0.6687 -0.3027  0.1248
27216SOL    HW285180   1.707  11.021   4.324  2.0472 -1.4270  0.7574
27217SOL     OW85181   8.879  10.811   9.794 -0.3788 -0.2172 -0.5498
27217SOL    HW185182   8.817  10.748   9.757 -1.2040 -0.9236  1.8426
27217SOL    HW285183   8.828  10.892   9.802 -0.3761 -0.2219 -0.4777
27218SOL     OW85184   8.521  10.046   3.378 -0.1600 -0.1009 -0.2207
27218SOL    HW185185   8.465  10.013   3.448 -1.2411  1.4462 -0.3056
27218SOL    HW285186   8.459  10.076   3.311  0.8021 -2.9094 -2.6067
27219SOL     OW85187   0.452   2.493   3.710 -1.0211  0.8046 -0.2748
27219SOL    HW185188   0.399   2.414   3.694  0.1499  0.0888 -0.7455
27219SOL    HW285189   0.453   2.538   3.625  0.2786  0.0694 -0.6806
27220SOL     OW85190   2.156   5.742   1.510 -0.0954 -0.1137  0.0859
27220SOL    HW185191   2.132   5.651   1.527  0.5020  0.0158  1.7660
27220SOL    HW285192   2.199   5.740   1.424 -1.0011 -1.2266 -0.3655
27221SOL     OW85193   1.519   6.611   2.107 -0.2802  0.8112 -0.3455
27221SOL    HW185194   1.523   6.537   2.168  1.6249  1.3959  0.3040
27221SOL    HW285195   1.542   6.574   2.022  0.5234  0.6262 -0.0524
27222SOL     OW85196   7.069   7.631   8.351  0.3584  0.1966  0.3216
27222SOL    HW185197   7.128   7.676   8.291  1.1534 -0.5450  0.5244
27222SOL    HW285198   7.112   7.637   8.437 -0.1041  0.0946  0.5637
27223SOL     OW85199   8.355  10.149   9.791  0.3459  0.1577  0.3018
27223SOL    HW185200   8.317  10.227   9.832 -1.0987  0.5464 -1.5874
27223SOL    HW285201   8.397  10.182   9.712 -0.5027 -0.9629 -0.6679
27224SOL     OW85202   3.002   1.183  10.739 -0.0667  0.0639 -0.0014
27224SOL    HW185203   3.094   1.164  10.720  0.1135  0.0543  0.8299
27224SOL    HW285204   2.976   1.115  10.802  0.0387  1.3914  1.5614
27225SOL     OW85205   6.441   2.781   7.198 -0.2999 -0.2025 -0.2924
27225SOL    HW185206   6.512   2.843   7.183 -0.0750  0.0688  1.7398
27225SOL    HW285207   6.361   2.832   7.187 -0.1184  0.4006  1.1216
27226SOL     OW85208   7.264   9.764   8.344 -0.4441  1.0544 -0.0339
27226SOL    HW185209   7.333   9.829   8.332  1.6850 -0.9459  0.5818
27226SOL    HW285210   7.303   9.682   8.313 -1.6420 -0.6029  2.5077
27227SOL     OW85211   1.793   6.789   1.454  0.0479  0.5023 -0.0702
27227SOL    HW185212   1.713   6.747   1.484 -0.0732 -0.4068 -1.5592
27227SOL    HW285213   1.766   6.836   1.375  0.8807  0.6267 -0.2850
27228SOL     OW85214   6.851   9.394   1.300  0.0710  0.2111 -0.2967
27228SOL    HW185215   6.892   9.471   1.261  1.6184 -0.8231 -0.8136
27228SOL    HW285216   6.824   9.341   1.225 -3.0723  1.1858 -0.0179
27229SOL     OW85217  11.073   8.521   0.389  0.0711 -0.2461 -0.3310
27229SOL    HW185218  11.163   8.553   0.393 -0.1214  0.2304  0.4780
27229SOL    HW285219  11.072   8.461   0.314  0.6068  1.0995 -1.4579
27230SOL     OW85220   2.267   5.799   0.287 -0.2172  0.4087 -0.5177
27230SOL    HW185221   2.234   5.881   0.325 -1.1347  0.7132 -1.9054
27230SOL    HW285222   2.341   5.825   0.233 -1.2341  0.5080 -1.8982
27231SOL     OW85223  11.099  10.518   4.307 -0.4390  0.9265  0.3997
27231SOL    HW185224  11.155  10.457   4.356  0.6218  1.0745 -0.5883
27231SOL    HW285225  11.061  10.574   4.375 -0.9158 -0.3786  1.2675
27232SOL     OW85226   5.388   0.135   8.764 -0.2980  0.0735 -0.1180
27232SOL    HW185227   5.446   0.072   8.806  0.1056 -1.2254 -2.4640
27232SOL    HW285228   5.300   0.101   8.781 -0.0638 -2.0684 -2.4974
27233SOL     OW85229   1.532   1.888  11.007  0.1654  0.2290 -0.5608
27233SOL    HW185230   1.623   1.858  11.014  0.0800  0.3798  2.2737
27233SOL    HW285231   1.510   1.919  11.095 -3.2150 -1.3906 -0.6885
27234SOL     OW85232  10.118   5.853  10.371 -0.3395 -0.0308 -0.1667
27234SOL    HW185233  10.063   5.776  10.386 -0.6614  0.4810  1.5991
27234SOL    HW285234  10.123   5.862  10.276 -1.3742 -1.4489 -0.3837
27235SOL     OW85235   2.981   5.676   1.888  0.2764 -0.2314  0.3789
27235SOL    HW185236   3.052   5.614   1.904  0.1659 -0.9746 -1.7881
27235SOL    HW285237   3.020   5.744   1.835 -0.6097 -0.6707 -0.8665
27236SOL     OW85238   8.091   0.986   8.846  0.3318 -0.2503 -0.2451
27236SOL    HW185239   8.088   0.979   8.751  2.0647 -0.2121 -0.3455
27236SOL    HW285240   8.096   0.895   8.877  0.0260 -0.2527 -0.1978
27237SOL     OW85241   8.015  10.346   8.277  0.1181 -0.1483 -0.1777
27237SOL    HW185242   7.935  10.364   8.227 -0.3969 -1.3518  0.1641
27237SOL    HW285243   8.081  10.324   8.211 -0.2666 -0.6751 -0.3963
27238SOL     OW85244   4.806   9.036  11.063 -0.2377  0.8118  0.3347
27238SOL    HW185245   4.783   8.944  11.054  0.4309  0.2442  3.3684
27238SOL    HW285246   4.901   9.038  11.064 -0.2424  1.3814  1.2143
27239SOL     OW85247   9.381   2.748   7.921 -0.0175  0.5095 -0.2964
27239SOL    HW185248   9.367   2.821   7.861  1.1877  2.4012  1.5611
27239SOL    HW285249   9.463   2.769   7.965  0.0320 -1.6683  0.7926
27240SOL     OW85250   3.890   2.261   4.783 -0.1831  0.5299 -0.1276
27240SOL    HW185251   3.901   2.300   4.696 -0.9298  0.1630 -0.4016
27240SOL    HW285252   3.811   2.302   4.817 -0.6404 -0.2879 -0.1752
27241SOL     OW85253   2.525   9.851   4.863 -0.5262 -0.3060 -0.7247
27241SOL    HW185254   2.501   9.854   4.956  0.5652 -1.1613 -0.3930
27241SOL    HW285255   2.445   9.826   4.818 -0.8871 -0.5964  0.0640
27242SOL     OW85256   3.878  10.968  10.560 -0.1629 -0.2409  0.6829
27242SOL    HW185257   3.858  11.000  10.472 -1.0065  3.2427  1.9624
27242SOL    HW285258   3.972  10.981  10.570 -0.6182  3.7353  1.6101
27243SOL     OW85259   9.689   0.746   7.279 -0.8339  0.2956  0.3308
27243SOL    HW185260   9.701   0.653   7.297  0.0913 -0.0015 -1.6117
27243SOL    HW285261   9.726   0.790   7.355  1.6578 -0.8876 -0.0971
27244SOL     OW85262  10.683   9.661  10.105 -0.2338  0.4268  0.5494
27244SOL    HW185263  10.722   9.631  10.187  2.0831  0.0922 -0.6075
27244SOL    HW285264  10.662   9.581  10.057  1.1710  0.5783 -0.3775
27245SOL     OW85265   4.138   6.608   9.714  0.0814 -0.2006 -0.1628
27245SOL    HW185266   4.076   6.596   9.786 -1.1049 -0.0061 -1.1176
27245SOL    HW285267   4.119   6.536   9.654  1.5072 -0.7484  0.0089
27246SOL     OW85268   8.013   0.577   4.009  0.0970 -0.6526 -0.3737
27246SOL    HW185269   7.994   0.654   4.063  1.1229 -1.0510  0.5964
27246SOL    HW285270   8.004   0.503   4.069  0.2154 -1.1980 -1.0223
27247SOL     OW85271   1.131   5.795   3.040 -0.5196  0.1205  0.3865
27247SOL    HW185272   1.158   5.720   2.987  2.9450  1.1018  0.5414
27247SOL    HW285273   1.137   5.764   3.130 -0.8221  0.1050  0.4034
27248SOL     OW85274  10.236   5.191   9.208 -0.9915  0.2659 -0.1954
27248SOL    HW185275  10.242   5.184   9.304 -0.6132 -1.7246 -0.3377
27248SOL    HW285276  10.201   5.279   9.194  0.7981  1.4097  1.7005
27249SOL     OW85277   5.296   2.434   2.590  0.1769 -0.2639 -0.2703
27249SOL    HW185278   5.247   2.516   2.592 -0.8816 -0.7897 -1.9773
27249SOL    HW285279   5.388   2.460   2.597 -0.1397  1.0576 -0.7009
27250SOL     OW85280   8.435   2.874   9.201 -0.3667 -0.3816 -0.1791
27250SOL    HW185281   8.419   2.782   9.178 -0.4708 -0.3644 -0.1754
27250SOL    HW285282   8.366   2.922   9.156 -0.3209 -0.3064 -0.1686
27251SOL     OW85283  10.302   0.438   6.449  0.0357  0.5528  0.4306
27251SOL    HW185284  10.267   0.521   6.418  1.4870  1.0090 -0.0703
27251SOL    HW285285  10.372   0.463   6.510 -0.0519 -0.3115  0.9026
27252SOL     OW85286   7.869   9.318   9.765  0.0345 -0.0460 -0.4651
27252SOL    HW185287   7.872   9.318   9.860 -0.1233 -0.9256 -0.4457
27252SOL    HW285288   7.793   9.371   9.742  0.7304  1.1255 -0.1526
27253SOL     OW85289  10.746   9.872   2.211 -0.2036 -0.3333 -0.0588
27253SOL    HW185290  10.818   9.908   2.161 -1.2648 -0.7698 -2.0144
27253SOL    HW285291  10.779   9.788   2.244  0.3363 -0.2837 -0.4673
27254SOL     OW85292   9.952   5.950   3.364  0.4234 -0.3858 -0.3234
27254SOL    HW185293  10.021   5.918   3.422  1.7917 -2.4413 -2.8929
27254SOL    HW285294   9.981   6.037   3.337 -0.2497  0.6216  1.9415
27255SOL     OW85295   1.281   4.924   9.101 -0.1216 -0.2169  0.2072
27255SOL    HW185296   1.295   4.962   9.015 -0.2588  2.5064  1.3033
27255SOL    HW285297   1.186   4.923   9.112 -0.1384 -1.1721  0.1163
27256SOL     OW85298   0.470   6.160   7.066 -0.0767 -0.0298  0.1383
27256SOL    HW185299   0.481   6.254   7.058  0.4022 -0.0223  0.8293
27256SOL    HW285300   0.406   6.148   7.136 -0.2014 -0.2127 -0.0053
27257SOL     OW85301   3.859   1.872   2.517 -0.0612  0.0963  0.6467
27257SOL    HW185302   3.766   1.850   2.523 -0.6974  2.0056 -0.9007
27257SOL    HW285303   3.895   1.809   2.455 -0.0865 -1.1937  1.8993
27258SOL     OW85304   6.572   0.764   6.058  0.0788 -0.5439 -0.0012
27258SOL    HW185305   6.530   0.715   6.129 -0.5592 -0.1567 -0.0995
27258SOL    HW285306   6.528   0.733   5.979 -1.0176  0.8442  0.0189
27259SOL     OW85307   5.646   9.168   9.072 -0.1962  0.3424  0.7119
27259SOL    HW185308   5.601   9.122   9.001  0.3977  0.9552 -0.0858
27259SOL    HW285309   5.737   9.176   9.042  0.4374 -0.7564  2.2363
27260SOL     OW85310   7.642   1.549   5.820  0.2581  0.3455 -0.7709
27260SOL    HW185311   7.607   1.471   5.864 -0.9162  0.8139 -0.8420
27260SOL    HW285312   7.605   1.544   5.732  0.4911  0.7981 -0.8946
27261SOL     OW85313   2.645   9.954   4.645 -0.0135 -0.0149 -0.4813
27261SOL    HW185314   2.713  10.019   4.662 -0.8186  0.5655  0.6225
27261SOL    HW285315   2.607   9.936   4.731 -1.5054 -0.0313 -1.1191
27262SOL     OW85316   3.044   8.413  11.066  0.1252 -0.1105  0.2927
27262SOL    HW185317   2.961   8.366  11.073  0.4854 -0.9047 -0.5440
27262SOL    HW285318   3.077   8.418  11.156 -0.3018 -0.7714  0.4931
27263SOL     OW85319   0.936   0.362   5.733  0.3297 -0.4692  1.0878
27263SOL    HW185320   0.858   0.315   5.760  0.2359  0.0385  1.7152
27263SOL    HW285321   1.009   0.303   5.754  0.1589 -0.6892  1.0612
27264SOL     OW85322   2.307   5.549   7.539  0.1859 -0.3349 -0.1369
27264SOL    HW185323   2.237   5.511   7.487  0.8799 -0.4461 -1.0295
27264SOL    HW285324   2.292   5.644   7.533 -0.0008 -0.3655 -0.1587
27265SOL     OW85325   1.845   7.263   3.385 -0.3486 -0.3605  0.0670
27265SOL    HW185326   1.834   7.357   3.378 -1.3074 -0.4769 -0.1143
27265SOL    HW285327   1.894   7.238   3.306 -0.2217 -0.0392  0.0450
27266SOL     OW85328   4.981   1.699   8.492  0.1214 -0.0554  0.0565
27266SOL    HW185329   5.039   1.772   8.470 -0.1017  0.3531  0.7528
27266SOL    HW285330   4.940   1.727   8.574  0.4608 -1.2220  0.6367
27267SOL     OW85331   9.434   0.180   0.433 -0.5767  0.3715 -0.5792
27267SOL    HW185332   9.391   0.169   0.349 -0.8067  0.4643 -0.4722
27267SOL    HW285333   9.415   0.270   0.458 -0.5668  0.3228 -0.3947
27268SOL     OW85334   9.803   0.741   8.763  0.3282 -0.4553 -0.3604
27268SOL    HW185335   9.768   0.802   8.827 -0.7942 -1.7279  0.3001
27268SOL    HW285336   9.882   0.706   8.803 -0.6614 -1.6576  0.6405
27269SOL     OW85337   1.574   4.310   9.551 -0.0124  0.3943  0.3380
27269SOL    HW185338   1.632   4.259   9.607  0.6500 -0.6533 -1.2334
27269SOL    HW285339   1.621   4.317   9.467 -1.3020  1.2226 -0.3544
27270SOL     OW85340   6.503   0.555   9.686  0.0866  0.0231  0.5920
27270SOL    HW185341   6.552   0.593   9.759  0.4053  2.9871 -0.9988
27270SOL    HW285342   6.570   0.530   9.622 -0.2618 -1.1275  0.6545
27271SOL     OW85343   3.103   3.982  10.423 -0.0167  0.0840 -0.0137
27271SOL    HW185344   3.050   4.050  10.463 -1.0332 -1.9589  2.3637
27271SOL    HW285345   3.193   4.009  10.440 -0.3895  0.9833  0.6078
27272SOL     OW85346   5.128   7.832  10.856  0.8046  0.5318 -0.3398
27272SOL    HW185347   5.173   7.752  10.828  0.2942  0.3193 -0.5718
27272SOL    HW285348   5.155   7.844  10.947  0.2584 -0.3718 -0.0355
27273SOL     OW85349   6.559   1.308   8.671  0.4953 -0.3348  0.3950
27273SOL    HW185350   6.493   1.358   8.622  2.2643 -0.4692 -2.3587
27273SOL    HW285351   6.539   1.216   8.650  2.1521 -0.3363 -1.4624
27274SOL     OW85352  10.084   7.635   8.917  0.2215  0.1691  0.0557
27274SOL    HW185353  10.177   7.653   8.932  0.2075  1.0553 -0.7830
27274SOL    HW285354  10.072   7.649   8.823 -0.9740  1.1296  0.3155
27275SOL     OW85355   0.377   5.864   3.265  0.9242  0.0830  0.0015
27275SOL    HW185356   0.411   5.862   3.355  1.4413 -1.0285 -0.2005
27275SOL    HW285357   0.359   5.772   3.244  0.7656  0.3359 -1.0184
27276SOL     OW85358   0.327   6.456   3.959 -0.4444 -0.2640 -0.6153
27276SOL    HW185359   0.328   6.408   3.877 -0.9610 -1.0528 -0.1691
27276SOL    HW285360   0.387   6.529   3.945 -1.4195  0.2944 -2.0914
27277SOL     OW85361   4.203   8.699   5.593 -0.4068  0.2850  0.3813
27277SOL    HW185362   4.207   8.734   5.682  1.0714 -1.0010  0.8494
27277SOL    HW285363   4.122   8.647   5.591  0.5004 -1.2371  1.5954
27278SOL     OW85364   8.779   1.151   7.349  0.5545 -0.6060  0.7337
27278SOL    HW185365   8.772   1.176   7.441 -0.3995 -0.5870  0.6612
27278SOL    HW285366   8.865   1.185   7.322  0.2832  0.5463  1.2647
27279SOL     OW85367   7.709   0.013  10.971 -0.1708 -0.0418 -0.1289
27279SOL    HW185368   7.797  -0.020  10.984 -0.4041 -0.3429  0.7262
27279SOL    HW285369   7.709   0.045  10.881  1.0021  0.5789  0.0729
27280SOL     OW85370   6.851   6.643   3.597  0.1975 -0.5684 -0.1450
27280SOL    HW185371   6.859   6.739   3.604 -0.7857 -0.5597  1.3188
27280SOL    HW285372   6.895   6.610   3.675  0.0955 -1.2911 -0.3929
27281SOL     OW85373  10.492   1.011   6.907 -0.3184  0.1847  0.2459
27281SOL    HW185374  10.536   1.072   6.966  0.2658 -0.6440  0.6988
27281SOL    HW285375  10.529   0.926   6.930 -0.6273 -0.2498 -0.8262
27282SOL     OW85376   9.850   9.429   2.708 -0.4608  0.0427  0.1622
27282SOL    HW185377   9.778   9.489   2.728 -1.5377 -1.2180  0.2552
27282SOL    HW285378   9.847   9.364   2.779  0.0827 -0.6333 -0.4187
27283SOL     OW85379   3.360  10.297   7.435 -0.0159  0.4653 -0.0670
27283SOL    HW185380   3.346  10.388   7.463  1.1885  0.7942 -0.4894
27283SOL    HW285381   3.343  10.245   7.513 -1.3945  0.9867  0.0056
27284SOL     OW85382   1.036   6.410   0.732 -0.4270 -0.0259  0.5005
27284SOL    HW185383   1.015   6.449   0.647 -0.5361  0.0005  0.5391
27284SOL    HW285384   0.952   6.378   0.765 -0.1841 -1.1876  0.0267
27285SOL     OW85385   6.712  10.874   0.897 -0.0262  0.0137 -0.2060
27285SOL    HW185386   6.757  10.950   0.859  0.6883 -0.7678 -0.9585
27285SOL    HW285387   6.771  10.842   0.964  0.1784 -0.5172 -0.6286
27286SOL     OW85388   4.939   2.951   2.916 -0.3320 -0.3754 -0.6762
27286SOL    HW185389   4.940   2.875   2.858 -1.0949 -0.6140 -0.3881
27286SOL    HW285390   4.850   2.984   2.910 -0.0134  0.4934 -0.7832
27287SOL     OW85391   8.146   3.150   0.110 -0.0524 -0.1939  0.1584
27287SOL    HW185392   8.168   3.153   0.017 -0.9330  0.0347 -0.0541
27287SOL    HW285393   8.206   3.086   0.147  0.0298 -0.5920 -0.6477
27288SOL     OW85394   2.108  10.801   2.955  0.4778 -0.2357  0.4108
27288SOL    HW185395   2.032  10.831   2.906  1.7583  0.8936 -0.9488
27288SOL    HW285396   2.083  10.714   2.986 -1.2456 -0.0187 -0.2506
27289SOL     OW85397   7.956   9.426   6.909 -0.1268  0.2067 -0.0574
27289SOL    HW185398   8.004   9.464   6.835 -0.5718  1.4610  0.2707
27289SOL    HW285399   7.936   9.337   6.881 -2.7610  1.4494 -2.6791
27290SOL     OW85400   7.717   1.698  10.338 -0.2597  0.3346  0.1107
27290SOL    HW185401   7.661   1.685  10.414 -0.9831 -2.2104 -0.7846
27290SOL    HW285402   7.804   1.673  10.368  0.3956  3.4715  1.2479
27291SOL     OW85403  10.903   1.577   1.061 -0.2384 -0.1354 -0.2553
27291SOL    HW185404  10.879   1.490   1.095  0.4112  0.1695  1.0788
27291SOL    HW285405  10.998   1.581   1.073  0.1301 -0.2253 -2.7609
27292SOL     OW85406   1.051   5.860   1.206  0.3524 -0.0830 -0.0400
27292SOL    HW185407   1.007   5.778   1.229  1.7845 -0.7803  0.3664
27292SOL    HW285408   1.000   5.895   1.133 -0.5134 -1.1467  0.0278
27293SOL     OW85409  10.358   5.854   4.806 -0.1728 -0.5004 -0.3696
27293SOL    HW185410  10.371   5.762   4.784  0.7619 -0.4199 -0.2176
27293SOL    HW285411  10.385   5.902   4.728 -0.7581 -0.3590 -0.4858
27294SOL     OW85412  10.132   4.474   8.255 -0.5199  0.5329 -0.1590
27294SOL    HW185413  10.170   4.435   8.176 -1.3033 -0.5638 -0.0216
27294SOL    HW285414  10.184   4.553   8.271  1.0929 -0.4063 -0.5060
27295SOL     OW85415   9.664   1.734   4.503 -0.7048  0.3457 -0.2746
27295SOL    HW185416   9.705   1.672   4.443 -2.6258 -1.4634  0.1869
27295SOL    HW285417   9.700   1.712   4.589  0.1181  1.2476 -0.3687
27296SOL     OW85418  11.069   6.817  10.533 -0.4682 -0.6373  0.0726
27296SOL    HW185419  11.080   6.910  10.510 -0.0487 -0.8331 -0.5496
27296SOL    HW285420  11.138   6.800  10.596  0.7461 -1.0060 -1.2916
27297SOL     OW85421   3.166  10.780   8.190 -0.5877 -0.0539 -0.1438
27297SOL    HW185422   3.235  10.763   8.125 -0.2891 -0.1578  0.2024
27297SOL    HW285423   3.212  10.792   8.272 -0.9323  0.6014 -0.0372
27298SOL     OW85424  10.148   2.977  10.874  0.8462  0.5740 -0.1905
27298SOL    HW185425  10.064   2.964  10.830  0.5655  1.6265 -0.0059
27298SOL    HW285426  10.163   2.896  10.923 -0.3494  0.5819  0.2271
27299SOL     OW85427   8.912   8.289   5.244  0.4867 -0.7783 -0.1489
27299SOL    HW185428   8.959   8.354   5.296 -2.9786  0.4193  1.7836
27299SOL    HW285429   8.863   8.341   5.180 -0.8716 -1.6134  0.1824
27300SOL     OW85430   5.421   5.797   6.283 -0.3692 -0.1077  0.0928
27300SOL    HW185431   5.415   5.805   6.378  1.0885  0.9462  0.1209
27300SOL    HW285432   5.501   5.843   6.259 -0.6468 -0.4375 -1.6485
27301SOL     OW85433   8.901   2.862   2.809 -0.5149  0.0354 -0.2096
27301SOL    HW185434   8.842   2.936   2.795 -0.6792 -0.2579 -1.1065
27301SOL    HW285435   8.985   2.901   2.831 -0.5636  0.4861 -0.8248
27302SOL     OW85436  10.467   3.275   7.142 -0.0910 -0.3961  0.4027
27302SOL    HW185437  10.490   3.368   7.134 -0.7293 -0.1358  1.3587
27302SOL    HW285438  10.531   3.229   7.088 -0.1060  0.6432 -0.5201
27303SOL     OW85439   1.776   8.236   9.023  0.2118  0.0426 -0.4374
27303SOL    HW185440   1.845   8.208   8.963 -0.2435 -0.7759 -0.6028
27303SOL    HW285441   1.746   8.154   9.064 -1.0393  0.3029 -0.7918
27304SOL     OW85442   0.456   8.882   8.978 -0.4026  0.0930  0.2343
27304SOL    HW185443   0.364   8.873   8.951 -0.8934  1.1081  1.4362
27304SOL    HW285444   0.452   8.934   9.058  1.1486 -0.7798  0.9279
27305SOL     OW85445   8.779   5.282   7.128 -0.3668 -0.8159 -0.6170
27305SOL    HW185446   8.710   5.308   7.189 -0.3230 -3.8843  0.9387
27305SOL    HW285447   8.833   5.221   7.178  0.3650 -2.6035 -3.3658
27306SOL     OW85448  10.212   1.579   1.801  0.0893  0.1494 -0.3575
27306SOL    HW185449  10.279   1.628   1.848  0.9226 -1.3289  0.0706
27306SOL    HW285450  10.129   1.607   1.840  0.5744  0.8778  0.1683
27307SOL     OW85451   2.625   3.754   5.307  0.5213 -0.0930  0.7332
27307SOL    HW185452   2.686   3.681   5.315  1.5603  0.2566 -2.4445
27307SOL    HW285453   2.680   3.831   5.296 -0.3583  0.2738 -1.8862
27308SOL     OW85454   5.552   8.148   6.154 -0.4274 -0.2843  0.1231
27308SOL    HW185455   5.609   8.084   6.197 -1.4186 -1.2901 -0.0283
27308SOL    HW285456   5.464   8.123   6.181 -0.8708  0.6489 -0.4420
27309SOL     OW85457  10.502   7.433  11.010 -0.6767  0.0038 -0.4209
27309SOL    HW185458  10.445   7.443  10.933 -1.6169 -0.2317  0.2281
27309SOL    HW285459  10.565   7.366  10.984 -2.1911 -1.5386 -0.3257
27310SOL     OW85460   3.326   8.658   6.049  0.7031 -0.2462  0.1664
27310SOL    HW185461   3.364   8.571   6.065 -1.3463 -1.3309 -0.4343
27310SOL    HW285462   3.290   8.684   6.133  0.9097 -0.1921  0.2381
27311SOL     OW85463   6.752   1.914   7.898 -0.2737  0.4928 -0.2605
27311SOL    HW185464   6.824   1.881   7.951 -0.6545 -1.5966 -0.9400
27311SOL    HW285465   6.678   1.921   7.959 -0.0977  0.3736 -0.0329
27312SOL     OW85466   6.651   8.601   8.227  0.3886  0.4570  0.1766
27312SOL    HW185467   6.737   8.568   8.252  0.6189  0.2470 -0.8287
27312SOL    HW285468   6.611   8.528   8.179 -1.0259 -0.0580  2.0331
27313SOL     OW85469   8.838   1.923   2.334  0.3509  0.5455  0.0475
27313SOL    HW185470   8.877   1.939   2.248  1.4664 -0.0467  0.4254
27313SOL    HW285471   8.881   1.985   2.392  1.9960 -1.2052  0.7942
27314SOL     OW85472   5.028   8.579   4.937  0.2819  0.4082  1.1458
27314SOL    HW185473   5.027   8.661   4.987 -1.5645 -0.2916  2.3517
27314SOL    HW285474   4.935   8.557   4.924  0.6159  0.6468 -2.8613
27315SOL     OW85475   4.751   3.507   2.517 -0.1369  0.2366 -0.0626
27315SOL    HW185476   4.802   3.428   2.535 -0.9190 -0.1213  0.5966
27315SOL    HW285477   4.818   3.575   2.506  0.4870 -0.1383  1.2219
27316SOL     OW85478   7.029   6.241   3.869  0.9046  0.7016 -0.1233
27316SOL    HW185479   7.005   6.178   3.937  0.0964  0.8377 -0.2724
27316SOL    HW285480   7.123   6.256   3.882  0.9737 -0.0618  0.2979
27317SOL     OW85481   3.576   2.813   0.809  0.0805 -0.6498  0.2993
27317SOL    HW185482   3.507   2.749   0.827 -0.0064 -0.5372  0.3681
27317SOL    HW285483   3.653   2.760   0.790 -0.3920 -0.8156 -1.2964
27318SOL     OW85484   5.828   1.070   9.110 -0.0848  0.2496 -0.1367
27318SOL    HW185485   5.800   1.012   9.181 -1.0467  0.2922 -0.4576
27318SOL    HW285486   5.746   1.108   9.078  0.4908  1.4911 -0.1831
27319SOL     OW85487   6.758   8.901   4.195  0.0566 -0.3174  0.2530
27319SOL    HW185488   6.726   8.813   4.212 -0.8645 -0.5741 -2.3257
27319SOL    HW285489   6.721   8.924   4.110  1.3193  2.0714  0.2527
27320SOL     OW85490   9.413   3.825   2.463 -0.1582  0.2406  0.1028
27320SOL    HW185491   9.318   3.839   2.466 -0.6557 -2.5908  1.4034
27320SOL    HW285492   9.450   3.904   2.502 -1.9443  1.5637 -0.7404
27321SOL     OW85493  10.950   4.926   3.284  0.3998  0.4293 -0.1700
27321SOL    HW185494  11.027   4.910   3.340  0.6439 -0.2058 -0.6760
27321SOL    HW285495  10.877   4.887   3.332  0.4898  0.5032  0.0309
27322SOL     OW85496   1.031   3.882  10.654 -0.1879  0.0902  0.3396
27322SOL    HW185497   1.003   3.807  10.706  3.4350 -2.3544 -0.8243
27322SOL    HW285498   1.056   3.949  10.718 -3.9272  0.6887  1.3906
27323SOL     OW85499  10.159   6.689   1.382  0.0764 -0.3127 -0.9303
27323SOL    HW185500  10.149   6.712   1.474  0.1522  0.7542 -1.1764
27323SOL    HW285501  10.131   6.767   1.335  1.9470 -0.1067 -1.7799
27324SOL     OW85502   4.017  10.034   3.106  0.0473 -0.5466 -0.3862
27324SOL    HW185503   4.097  10.031   3.158 -0.1837  0.2668  0.0247
27324SOL    HW285504   4.046  10.023   3.016  0.8227  1.4215 -0.4159
27325SOL     OW85505   6.223   4.582   4.914  0.3731 -0.4468 -0.0508
27325SOL    HW185506   6.204   4.498   4.872  0.7257 -0.5520  0.0010
27325SOL    HW285507   6.293   4.562   4.976 -0.7664 -0.4993  1.2757
27326SOL     OW85508   6.934   5.490   5.170 -0.2317 -0.0296 -0.4293
27326SOL    HW185509   6.922   5.493   5.075  0.0081  0.0015 -0.4580
27326SOL    HW285510   6.962   5.401   5.188  0.5112  0.1884 -0.4792
27327SOL     OW85511   2.933   4.392   5.538  0.9020  0.1736  0.2454
27327SOL    HW185512   3.010   4.341   5.513  0.2158 -0.6316 -0.3087
27327SOL    HW285513   2.905   4.353   5.621  0.9951  0.3492  0.3583
27328SOL     OW85514   0.124   7.073  10.134 -0.1449  0.4534  0.3588
27328SOL    HW185515   0.166   7.149  10.093  0.7199  0.0862  0.5433
27328SOL    HW285516   0.035   7.103  10.153 -1.0273  0.2725 -2.8891
27329SOL     OW85517  10.716  10.544   5.786 -0.4184  0.5133 -0.1223
27329SOL    HW185518  10.660  10.609   5.829  1.1015  1.2284  0.8594
27329SOL    HW285519  10.655  10.477   5.755 -1.7634  0.9414  1.4509
27330SOL     OW85520   9.469   1.609   0.798 -0.5081  0.0718 -0.1517
27330SOL    HW185521   9.494   1.656   0.877  0.4833 -0.0136 -0.3921
27330SOL    HW285522   9.458   1.518   0.827 -2.4204  0.4140  0.3108
27331SOL     OW85523   3.372   8.584   1.659  0.1243 -0.6887 -0.9050
27331SOL    HW185524   3.397   8.649   1.594 -2.0921  0.8503 -0.3350
27331SOL    HW285525   3.426   8.508   1.639  0.9387  0.4138 -3.2570
27332SOL     OW85526   3.727   3.496   6.556 -0.1363  0.1119 -0.4429
27332SOL    HW185527   3.790   3.558   6.519 -1.1252  0.4981 -1.5409
27332SOL    HW285528   3.730   3.512   6.650  0.4231  1.0572 -0.6096
27333SOL     OW85529   9.013   7.217  10.645 -0.3689  0.1656 -0.2807
27333SOL    HW185530   9.029   7.289  10.583  0.4716  1.4253  1.3388
27333SOL    HW285531   8.918   7.208  10.648 -0.4343  0.2621 -1.5365
27334SOL     OW85532   8.235   4.520   3.811 -0.0556 -0.1722  0.2352
27334SOL    HW185533   8.220   4.604   3.855  0.5462  0.2936 -0.4273
27334SOL    HW285534   8.153   4.501   3.767 -0.0340  0.3205 -0.0220
27335SOL     OW85535   9.648  10.976   1.604 -0.1993  0.0572 -0.0683
27335SOL    HW185536   9.702  11.017   1.536 -0.7293 -0.7471 -0.9935
27335SOL    HW285537   9.577  11.038   1.619  1.1387  1.3211  1.4516
27336SOL     OW85538   2.332   4.379   3.692  0.2816  0.1199 -0.1296
27336SOL    HW185539   2.300   4.314   3.629  1.0953  0.5888 -1.0427
27336SOL    HW285540   2.272   4.452   3.684  0.6010  0.3307 -0.6452
27337SOL     OW85541   6.899  11.117   8.303 -0.2007  0.4961 -0.9721
27337SOL    HW185542   6.897  11.102   8.209 -2.9966 -0.7183 -0.8124
27337SOL    HW285543   6.868  11.035   8.342  2.3525  0.4056  1.1594
27338SOL     OW85544   3.195   7.417   8.423 -0.2938 -0.5939  0.1907
27338SOL    HW185545   3.239   7.335   8.447 -0.7062 -1.1285 -0.8381
27338SOL    HW285546   3.245   7.450   8.348 -1.4493 -1.0694 -0.8216
27339SOL     OW85547   8.611  10.537   9.081  0.4773 -0.3202 -0.1704
27339SOL    HW185548   8.525  10.556   9.120 -0.4572 -2.0309 -1.2674
27339SOL    HW285549   8.593  10.468   9.017  2.5614 -0.1534 -1.0006
27340SOL     OW85550   4.842   6.764   6.385 -0.1627 -0.0228 -0.2546
27340SOL    HW185551   4.790   6.733   6.311 -0.4103 -0.9234  0.2823
27340SOL    HW285552   4.830   6.859   6.384 -1.0860 -0.1291 -0.6914
27341SOL     OW85553   6.428   6.285   8.766  0.1233  0.3020  0.0305
27341SOL    HW185554   6.398   6.344   8.697 -0.8334  0.2739  0.4104
27341SOL    HW285555   6.382   6.203   8.750  0.3643  0.1034  0.3412
27342SOL     OW85556   9.996   5.786   7.285 -0.0861 -0.0204  0.6812
27342SOL    HW185557   9.912   5.758   7.247 -0.3873  1.2961  0.3278
27342SOL    HW285558  10.012   5.723   7.355  0.1415 -2.1166 -1.1467
27343SOL     OW85559   4.027   6.179   8.112 -0.1359  0.2924  0.5086
27343SOL    HW185560   3.959   6.244   8.127  1.0461  2.1055 -1.4060
27343SOL    HW285561   4.071   6.208   8.032  0.8390 -2.5831 -0.1312
27344SOL     OW85562   7.333   5.396  10.603  0.3620 -0.1638 -0.0646
27344SOL    HW185563   7.312   5.453  10.528  1.0474  2.3678  1.5676
27344SOL    HW285564   7.249   5.381  10.645  0.2173 -0.0632 -0.3131
27345SOL     OW85565   6.743   0.089   8.011  0.0815 -0.7685 -0.0748
27345SOL    HW185566   6.678   0.086   8.081 -0.3606 -2.3953 -0.5119
27345SOL    HW285567   6.722   0.167   7.961 -1.8710 -1.5178 -0.4963
27346SOL     OW85568   4.787   2.096   5.369  0.4451 -0.8343 -0.0807
27346SOL    HW185569   4.736   2.029   5.415 -0.2079 -0.5768 -0.4202
27346SOL    HW285570   4.766   2.177   5.415  1.1710 -0.8379  0.2776
27347SOL     OW85571   0.211   8.025   2.758  0.0872 -0.3951 -0.8681
27347SOL    HW185572   0.163   8.102   2.728 -0.3422 -0.0853  0.5493
27347SOL    HW285573   0.159   7.951   2.727 -0.5448 -0.0798 -0.5726
27348SOL     OW85574   5.545  10.188   0.735 -0.0207 -0.3141  0.4093
27348SOL    HW185575   5.618  10.200   0.795  0.4228  0.6879 -0.3065
27348SOL    HW285576   5.506  10.104   0.761  1.7627 -1.1982  0.3945
27349SOL     OW85577   6.726   3.789   8.893  0.4452  0.2984  0.3551
27349SOL    HW185578   6.745   3.865   8.948  1.1001  1.3284 -1.2311
27349SOL    HW285579   6.770   3.808   8.811 -2.5618  0.0226 -1.4646
27350SOL     OW85580   9.582   2.235  10.461  0.3643 -0.8252 -0.3177
27350SOL    HW185581   9.498   2.225  10.507  0.7143 -1.2861  0.2384
27350SOL    HW285582   9.636   2.163  10.495  1.2639 -0.0415 -0.0482
27351SOL     OW85583   3.016   7.469   9.053  0.1016  0.0774 -0.0669
27351SOL    HW185584   3.094   7.489   9.104  0.0792  0.5475 -0.2081
27351SOL    HW285585   2.959   7.421   9.112  1.4368 -2.3343 -0.6235
27352SOL     OW85586   5.411   0.130  10.751  0.1296  0.3320  0.4952
27352SOL    HW185587   5.399   0.042  10.786 -0.8846  0.7779  1.3319
27352SOL    HW285588   5.506   0.139  10.740  0.1335 -1.7980 -2.1350
27353SOL     OW85589   3.498   8.904   2.357  0.4922 -0.6209  0.2748
27353SOL    HW185590   3.553   8.946   2.423  1.7462 -1.2500 -0.3261
27353SOL    HW285591   3.468   8.975   2.302  1.4600 -0.3501  0.0804
27354SOL     OW85592   7.613   2.140   2.748 -0.2047  0.2286  0.0115
27354SOL    HW185593   7.562   2.193   2.809 -0.1266  0.6032 -0.2464
27354SOL    HW285594   7.704   2.166   2.764 -0.3155  1.9741 -1.7754
27355SOL     OW85595   6.734   4.324  10.683  0.0362 -0.2778  0.0970
27355SOL    HW185596   6.639   4.334  10.672  0.1288  0.4477 -0.0472
27355SOL    HW285597   6.743   4.281  10.769 -0.4737 -1.6826 -0.5124
27356SOL     OW85598   0.888   7.330   9.586 -0.4670  0.0874  0.2507
27356SOL    HW185599   0.940   7.268   9.536 -0.1633  0.2294  0.3873
27356SOL    HW285600   0.902   7.414   9.541  1.0893  0.5403  1.4776
27357SOL     OW85601  10.967   3.675   8.992  0.2326 -0.5941  0.2065
27357SOL    HW185602  10.968   3.769   8.979  2.1694 -0.5922  0.1376
27357SOL    HW285603  10.919   3.640   8.917  0.2027  0.2689 -0.1784
27358SOL     OW85604   2.559   6.437   0.232  0.2351 -0.4719 -0.4081
27358SOL    HW185605   2.648   6.405   0.217  0.5045 -0.1336  0.4240
27358SOL    HW285606   2.555   6.519   0.183  0.3162 -0.5891 -0.6110
27359SOL     OW85607   9.202   4.346   9.311  0.0289 -0.4005 -0.2176
27359SOL    HW185608   9.258   4.310   9.380 -1.1021 -0.5725  0.6548
27359SOL    HW285609   9.172   4.269   9.262  0.7831 -0.2831 -0.8814
27360SOL     OW85610   2.288   9.502   1.136 -0.0297 -0.0599 -0.2897
27360SOL    HW185611   2.285   9.447   1.058 -1.1314 -0.3830 -0.0432
27360SOL    HW285612   2.198   9.535   1.144  0.3335  0.8165  0.2435
27361SOL     OW85613   9.440   2.194   7.270  0.3744  0.3269  0.6358
27361SOL    HW185614   9.488   2.137   7.210  1.6930  2.2934 -0.2937
27361SOL    HW285615   9.485   2.279   7.264 -2.7491  2.1201  0.3062
27362SOL     OW85616   2.342   6.654   5.280 -0.2447  0.4578 -0.2030
27362SOL    HW185617   2.342   6.717   5.352  1.7475 -0.1301  0.3625
27362SOL    HW285618   2.368   6.706   5.203  0.1122  0.5808  0.0010
27363SOL     OW85619   3.516   1.753   1.267  0.2749 -0.1069 -0.5712
27363SOL    HW185620   3.431   1.748   1.311 -0.1236 -0.7241 -1.3898
27363SOL    HW285621   3.565   1.678   1.301  0.9200  0.8774  0.7421
27364SOL     OW85622  10.653   9.000   4.939 -0.5191 -0.3014 -0.3588
27364SOL    HW185623  10.616   8.949   4.867 -0.1632 -1.2959  0.1553
27364SOL    HW285624  10.732   9.039   4.902 -0.9738  0.1905 -0.8514
27365SOL     OW85625   9.656   5.823   6.269 -0.3776 -0.5768 -0.0371
27365SOL    HW185626   9.674   5.729   6.274 -1.3504 -0.7817 -0.0548
27365SOL    HW285627   9.601   5.832   6.191 -1.4294 -0.2034  0.7172
27366SOL     OW85628   8.364   1.434  10.961 -0.8662 -0.0962  0.2068
27366SOL    HW185629   8.364   1.452  11.055 -0.9839 -0.0320  0.1933
27366SOL    HW285630   8.387   1.517  10.920  0.1251 -0.3469  0.2263
27367SOL     OW85631   4.674   5.852   2.309 -0.1739  0.3843  0.2168
27367SOL    HW185632   4.637   5.802   2.381 -1.0750 -0.6678 -0.9368
27367SOL    HW285633   4.742   5.906   2.349  1.3751 -2.2664  1.4311
27368SOL     OW85634   6.380   6.381   7.917  0.0950 -0.5585 -0.6037
27368SOL    HW185635   6.452   6.434   7.951  1.6219 -1.4529 -2.2446
27368SOL    HW285636   6.332   6.353   7.995  1.5431  0.0390  0.5555
27369SOL     OW85637   8.018   7.314   6.371 -0.4264  0.5636 -0.0580
27369SOL    HW185638   8.024   7.331   6.276 -1.9062 -0.2281 -0.3142
27369SOL    HW285639   8.105   7.279   6.393 -0.1860  0.3694 -1.2060
27370SOL     OW85640   8.690   2.543   2.362  0.5619  0.3531 -0.2677
27370SOL    HW185641   8.649   2.585   2.286 -1.6287 -2.0920 -0.5934
27370SOL    HW285642   8.706   2.453   2.333  3.6589  0.4388  0.8523
27371SOL     OW85643   2.198   2.267   1.721 -1.2132  0.6040  0.1214
27371SOL    HW185644   2.231   2.277   1.811 -0.1845  1.2277 -0.2992
27371SOL    HW285645   2.209   2.354   1.682 -1.8446  0.3929 -0.5458
27372SOL     OW85646   8.359   3.184   3.608  0.0392  0.0855  0.3249
27372SOL    HW185647   8.398   3.243   3.543  0.1024 -1.7411 -1.4162
27372SOL    HW285648   8.273   3.223   3.627 -0.7357 -0.1688 -2.2397
27373SOL     OW85649   9.864   6.904  11.031 -0.4073  0.0969 -0.3937
27373SOL    HW185650   9.873   6.994  10.999 -0.1962  0.0451 -0.4822
27373SOL    HW285651   9.794   6.909  11.096 -0.1754  0.3889 -0.1623
27374SOL     OW85652   8.193   3.099   4.036  0.0920  0.2142  0.3139
27374SOL    HW185653   8.100   3.122   4.029 -0.3203 -1.1752  0.7611
27374SOL    HW285654   8.236   3.151   3.969 -0.6230  2.7314  1.6597
27375SOL     OW85655   4.379   3.256   6.109  0.3637  0.1142  0.3338
27375SOL    HW185656   4.310   3.271   6.174  0.4764  0.1359  0.4478
27375SOL    HW285657   4.459   3.246   6.160  0.1555 -1.8794  0.3378
27376SOL     OW85658   6.134  10.879   0.495  0.4177 -0.8077  0.2975
27376SOL    HW185659   6.202  10.942   0.518  0.1875  1.0052 -3.2964
27376SOL    HW285660   6.173  10.825   0.426 -1.4016 -0.2676 -1.2582
27377SOL     OW85661  10.131   8.795  10.447 -0.7057  0.5439  0.0372
27377SOL    HW185662  10.176   8.744  10.379  1.3132  2.0809  0.1129
27377SOL    HW285663  10.153   8.751  10.529 -2.9235 -1.1553 -0.1823
27378SOL     OW85664   4.012   6.733   6.031 -0.2259 -0.6866  0.1263
27378SOL    HW185665   3.944   6.731   6.099  0.5251  0.7725  0.9741
27378SOL    HW285666   3.972   6.781   5.959  0.4311  1.8518  1.3342
27379SOL     OW85667  10.440   5.450   9.246  0.6725 -0.0571  0.2168
27379SOL    HW185668  10.443   5.476   9.338  0.7196  2.4530 -0.4300
27379SOL    HW285669  10.531   5.455   9.216  0.5870 -0.3802 -0.1064
27380SOL     OW85670   6.944   9.624   1.214  0.1932 -0.1568 -0.0041
27380SOL    HW185671   6.969   9.703   1.263 -2.1312  0.3210  0.5548
27380SOL    HW285672   6.965   9.644   1.123  1.6343  0.2304  0.3960
27381SOL     OW85673   7.112   6.364   4.183 -0.3846 -0.0148 -0.0893
27381SOL    HW185674   7.099   6.428   4.112 -0.5480 -0.6102 -0.6063
27381SOL    HW285675   7.048   6.295   4.164  1.5483 -1.6278 -1.0596
27382SOL     OW85676   5.586   8.761   8.196  0.0717  0.1452 -0.4785
27382SOL    HW185677   5.530   8.810   8.136  0.5609 -0.5566 -1.5335
27382SOL    HW285678   5.661   8.735   8.143  0.5599 -0.4272  0.4680
27383SOL     OW85679   4.861   1.193   7.752 -0.0639 -0.4235 -0.0703
27383SOL    HW185680   4.825   1.203   7.840  1.3442 -0.0628  0.4878
27383SOL    HW285681   4.882   1.100   7.745 -0.5524 -0.5293 -0.1912
27384SOL     OW85682   1.206   2.208   3.704 -0.3380  0.1586  0.4502
27384SOL    HW185683   1.121   2.182   3.741 -0.1144  0.5888  1.2811
27384SOL    HW285684   1.266   2.208   3.779  0.3450  0.0946 -0.0870
27385SOL     OW85685   2.895   6.155   5.180  0.0996  0.8609 -0.8729
27385SOL    HW185686   2.969   6.205   5.214  0.3285 -0.2002  0.2511
27385SOL    HW285687   2.820   6.184   5.232  0.3795 -0.4901  0.3422
27386SOL     OW85688   4.677  10.270   4.569 -0.2297  0.1971 -0.3064
27386SOL    HW185689   4.637  10.321   4.640 -0.7463  0.5157 -0.8199
27386SOL    HW285690   4.768  10.261   4.595 -0.3804  0.4463  0.3287
27387SOL     OW85691   3.485  10.144  10.981 -0.1352 -0.1031 -0.3464
27387SOL    HW185692   3.449  10.144  10.892 -1.1146  0.5184  0.0389
27387SOL    HW285693   3.502  10.236  11.000  1.7882 -0.3825 -0.5493
27388SOL     OW85694   9.095   5.268   9.093 -0.1931  0.4058 -0.9937
27388SOL    HW185695   9.024   5.212   9.124  0.1308 -0.0663 -1.0964
27388SOL    HW285696   9.079   5.278   9.000 -0.4773  0.8270 -0.9072
27389SOL     OW85697   1.763   8.784   9.515  0.5229 -1.0517  0.0737
27389SOL    HW185698   1.853   8.811   9.535 -0.3192  2.3001 -0.0298
27389SOL    HW285699   1.716   8.797   9.597 -0.2992 -0.4832 -0.4810
27390SOL     OW85700   1.976   7.773   8.644  0.2742 -0.7623  0.0501
27390SOL    HW185701   1.973   7.868   8.635  1.2205 -0.8347 -1.3826
27390SOL    HW285702   1.956   7.740   8.557 -1.7336 -1.9578  0.9104
27391SOL     OW85703   0.869   1.043   0.917  0.0160 -0.0580  0.3343
27391SOL    HW185704   0.800   1.096   0.879 -1.4953 -0.9839  1.6291
27391SOL    HW285705   0.848   1.039   1.011  2.9542  1.2523  1.1823
27392SOL     OW85706  10.906   4.040   8.300  0.7153  0.6067  0.0412
27392SOL    HW185707  10.991   4.046   8.344  0.3911 -0.8952  0.9487
27392SOL    HW285708  10.842   4.062   8.368  0.3187  0.5529 -0.3075
27393SOL     OW85709   3.710   3.266   7.606 -0.0528  0.2810  0.4294
27393SOL    HW185710   3.706   3.228   7.694 -0.1413  1.0252  0.7543
27393SOL    HW285711   3.778   3.333   7.612 -1.8409  2.1671  0.6813
27394SOL     OW85712   2.625  10.766   9.303 -0.1879  0.1840 -0.6191
27394SOL    HW185713   2.603  10.732   9.389 -0.7542  3.5874  0.7689
27394SOL    HW285714   2.569  10.718   9.242  0.9763 -3.0308  0.6853
27395SOL     OW85715  10.278   2.906   1.669  0.3006 -0.5335  0.5330
27395SOL    HW185716  10.282   2.884   1.576  1.2134  3.7387 -0.6517
27395SOL    HW285717  10.196   2.953   1.680  0.6007 -0.2339  1.6957
27396SOL     OW85718   8.727   9.383   8.844  0.5438 -0.4517 -0.0427
27396SOL    HW185719   8.798   9.447   8.841  0.0144  0.0941 -2.1055
27396SOL    HW285720   8.743   9.326   8.769 -2.4086  1.0957 -2.0277
27397SOL     OW85721  10.631   4.074   1.707  0.4352  0.2164 -0.1853
27397SOL    HW185722  10.694   4.109   1.770  0.8607  0.7585 -0.8900
27397SOL    HW285723  10.681   4.011   1.655  0.6740  1.3161 -1.3469
27398SOL     OW85724   5.900   2.249   2.588 -0.0775  0.0503 -0.5658
27398SOL    HW185725   5.881   2.335   2.626 -1.0314 -0.0621 -0.7717
27398SOL    HW285726   5.917   2.193   2.663  2.2883  0.7671 -0.4538
27399SOL     OW85727   1.301   5.350  10.276  0.1384  0.2181  0.2428
27399SOL    HW185728   1.332   5.314  10.359 -0.2212  1.9322  1.1743
27399SOL    HW285729   1.242   5.283  10.241 -0.1448 -0.3124  1.6662
27400SOL     OW85730   2.727   0.248   5.578  0.4232  0.0446 -0.6306
27400SOL    HW185731   2.730   0.153   5.566 -1.1129  0.0327 -1.1924
27400SOL    HW285732   2.692   0.261   5.666 -0.1444  0.0653 -0.8513
27401SOL     OW85733   2.692   2.718   9.950 -0.0305 -0.0474  0.0377
27401SOL    HW185734   2.684   2.810   9.975 -1.4335  0.4257 -1.9198
27401SOL    HW285735   2.615   2.675   9.989  0.7511 -0.4891  1.1597
27402SOL     OW85736   5.842   8.555   8.259 -0.3191 -0.6106 -0.0744
27402SOL    HW185737   5.900   8.481   8.248 -0.5420 -0.8560  0.3913
27402SOL    HW285738   5.788   8.555   8.180  1.5043  0.7182 -1.4155
27403SOL     OW85739   7.882   1.116   4.349 -0.1062  0.5427  0.1729
27403SOL    HW185740   7.954   1.075   4.302 -0.9627  0.2389 -0.9013
27403SOL    HW285741   7.923   1.153   4.427  1.2580  0.5846 -0.5291
27404SOL     OW85742   5.428   6.806   9.972 -0.0800 -0.4663  0.2129
27404SOL    HW185743   5.508   6.853   9.997 -0.0879 -0.6168  0.5318
27404SOL    HW285744   5.451   6.714   9.984  0.5509 -0.6837 -2.1674
27405SOL     OW85745   8.534   1.717   4.936  0.1573 -0.0981 -0.2437
27405SOL    HW185746   8.487   1.635   4.954  0.2398  0.3222  2.3497
27405SOL    HW285747   8.490   1.754   4.859 -2.2745 -0.8455  0.6796
27406SOL     OW85748   1.486   1.357   6.070 -0.0024 -0.1390  0.0019
27406SOL    HW185749   1.428   1.383   6.141 -0.8522 -0.2358 -0.6518
27406SOL    HW285750   1.437   1.291   6.022  0.6224 -0.1660 -0.6077
27407SOL     OW85751   9.005   7.810   6.732  0.4197  0.3306  0.5260
27407SOL    HW185752   9.076   7.821   6.668 -2.1347  0.9114 -2.4724
27407SOL    HW285753   9.011   7.888   6.788  1.5470  0.8564 -0.2840
27408SOL     OW85754   5.334   2.206   7.798 -0.4304 -0.5250 -0.3959
27408SOL    HW185755   5.289   2.220   7.881 -1.3938 -0.8514 -0.8529
27408SOL    HW285756   5.425   2.231   7.816 -0.8680  0.6014  0.4257
27409SOL     OW85757  11.005   3.141   1.633  0.1677 -0.0771  0.2429
27409SOL    HW185758  10.996   3.047   1.642  0.7446  0.0201  2.1416
27409SOL    HW285759  11.012   3.174   1.723 -2.6042  2.0467 -0.1624
27410SOL     OW85760   7.275  10.917   4.173  0.3554 -0.1313 -0.1843
27410SOL    HW185761   7.279  10.834   4.220  1.4126 -0.3452 -0.6237
27410SOL    HW285762   7.323  10.901   4.091  2.2908  1.4292  0.5606
27411SOL     OW85763   1.466   2.173  10.542 -0.0937  0.1052  0.3636
27411SOL    HW185764   1.463   2.082  10.512  0.3342  0.5302 -1.0572
27411SOL    HW285765   1.538   2.176  10.604  0.0083 -0.4896  0.2741
27412SOL     OW85766   8.556   6.560   8.192 -0.3291 -0.3949 -0.3491
27412SOL    HW185767   8.529   6.522   8.276 -0.6856 -2.3067 -1.2597
27412SOL    HW285768   8.491   6.628   8.174  0.0146  0.3568  1.1045
27413SOL     OW85769   0.081   9.736   3.749  0.2095 -0.0537  0.2022
27413SOL    HW185770   0.034   9.654   3.735 -1.0330  0.6371  0.2005
27413SOL    HW285771   0.033   9.800   3.697  1.7931  0.4953 -0.6632
27414SOL     OW85772   4.725   4.985   7.756  0.1244  0.3054 -0.1281
27414SOL    HW185773   4.681   4.923   7.698  1.5398  1.1660 -2.2320
27414SOL    HW285774   4.806   5.008   7.710  0.2252  2.7995  1.1392
27415SOL     OW85775   3.472  10.123   3.767 -0.0142  0.2153  0.1886
27415SOL    HW185776   3.488  10.030   3.781 -0.2466  0.2606  0.7963
27415SOL    HW285777   3.378  10.130   3.753  0.2348  0.1373 -1.8250
27416SOL     OW85778   8.896   3.793   1.277  0.2376  0.1609  0.6280
27416SOL    HW185779   8.891   3.699   1.262 -0.5012  0.2097  0.5360
27416SOL    HW285780   8.988   3.815   1.259  0.5218 -0.6046  1.0885
27417SOL     OW85781   6.249   9.926  10.429 -0.0421 -0.5802 -0.1084
27417SOL    HW185782   6.282   9.994  10.488 -1.1054 -0.4223  0.3177
27417SOL    HW285783   6.160   9.909  10.459  0.4948 -2.8575  0.4080
27418SOL     OW85784   0.956   7.152  10.450 -0.3051 -1.1316  0.0007
27418SOL    HW185785   0.917   7.210  10.385  0.1901  1.4866  1.8688
27418SOL    HW285786   1.049   7.150  10.428 -0.1413 -0.2653  0.5588
27419SOL     OW85787   1.276  10.782   2.403 -0.6027 -0.5464  1.0102
27419SOL    HW185788   1.308  10.819   2.321  0.9923 -2.5187  0.6467
27419SOL    HW285789   1.182  10.775   2.392 -0.5390  0.2607 -0.1928
27420SOL     OW85790   8.237   9.203   8.695 -0.0291  0.1405 -0.0807
27420SOL    HW185791   8.250   9.297   8.706  0.3844  0.1234 -0.3975
27420SOL    HW285792   8.189   9.176   8.774  0.3481  0.5157  0.2856
27421SOL     OW85793  10.597   7.307   1.422 -0.6073 -0.1000 -0.4732
27421SOL    HW185794  10.642   7.366   1.483 -2.8138  0.1436  1.0685
27421SOL    HW285795  10.657   7.234   1.410  0.4374  0.4553  1.0368
27422SOL     OW85796   3.006   7.206   6.381  0.5763  0.2207 -0.3562
27422SOL    HW185797   3.055   7.146   6.438  0.1809  0.3583  0.1307
27422SOL    HW285798   3.040   7.293   6.403  0.7017  0.2390 -0.6151
27423SOL     OW85799   6.046  10.426   3.149  0.0680 -0.5422  0.0145
27423SOL    HW185800   6.141  10.437   3.140  0.1037 -1.7702 -1.5652
27423SOL    HW285801   6.019  10.385   3.066 -1.7679 -0.6421  0.6284
27424SOL     OW85802   3.110   7.569   1.622  0.7133 -0.1495  0.3377
27424SOL    HW185803   3.128   7.643   1.681 -0.6334  1.2413 -0.9064
27424SOL    HW285804   3.113   7.492   1.679  0.1923  1.0532  2.0869
27425SOL     OW85805   0.191   6.999   8.478 -0.0253  0.6336 -0.7355
27425SOL    HW185806   0.160   7.055   8.407 -0.5081 -0.0934 -1.1082
27425SOL    HW285807   0.287   7.007   8.475  0.1514 -1.0407 -2.9090
27426SOL     OW85808   6.733   5.589   1.878  0.3461  0.3201 -0.3310
27426SOL    HW185809   6.652   5.599   1.928  0.3180 -0.6074 -0.1858
27426SOL    HW285810   6.785   5.666   1.901  0.1930  0.0723  0.8618
27427SOL     OW85811  10.538   4.826   5.778  0.1365  0.6935  0.2787
27427SOL    HW185812  10.570   4.916   5.784  1.4017  0.2102  1.2963
27427SOL    HW285813  10.553   4.789   5.865 -0.1298 -0.5873 -0.1921
27428SOL     OW85814   6.014   2.319   5.355  0.3923 -0.1064  0.1705
27428SOL    HW185815   6.101   2.315   5.315 -0.5946  3.1870 -2.8846
27428SOL    HW285816   5.959   2.264   5.299 -0.3373  1.7606 -1.0433
27429SOL     OW85817   1.487   9.353   1.657  0.2683 -0.1199 -0.1577
27429SOL    HW185818   1.436   9.287   1.704 -0.4117  0.1815 -0.4515
27429SOL    HW285819   1.498   9.316   1.569  0.4547 -0.1309 -0.1295
27430SOL     OW85820   8.915  10.385   6.331 -0.0745  0.3064 -0.0713
27430SOL    HW185821   8.870  10.326   6.392 -1.0016 -0.5052 -1.4809
27430SOL    HW285822   8.857  10.461   6.324  1.0921  1.4357  1.6995
27431SOL     OW85823   4.542   1.433   3.742  0.0587  0.1778 -0.1684
27431SOL    HW185824   4.608   1.368   3.764  1.1171  0.7075 -1.6238
27431SOL    HW285825   4.568   1.512   3.789  0.3040  0.2970 -0.4979
27432SOL     OW85826   9.941  10.168   3.222 -0.1968  0.0257 -0.2795
27432SOL    HW185827   9.931  10.088   3.275  2.0980 -2.4443 -3.2359
27432SOL    HW285828   9.876  10.228   3.259 -1.6400 -2.9150  2.5607
27433SOL     OW85829   5.222   1.810   6.455  0.1463 -0.4839 -0.1128
27433SOL    HW185830   5.210   1.723   6.493  1.7326 -0.9237 -0.5089
27433SOL    HW285831   5.237   1.793   6.362 -1.1809  0.3679 -0.4953
27434SOL     OW85832   3.143   8.495   7.375 -0.4298 -0.3547 -0.2170
27434SOL    HW185833   3.097   8.420   7.412  0.0312  0.8669  3.1371
27434SOL    HW285834   3.231   8.491   7.411 -0.0067  1.1104 -0.9785
27435SOL     OW85835   1.513   3.477   9.068 -0.3002 -0.0241 -0.5377
27435SOL    HW185836   1.425   3.445   9.088  0.8553 -1.5232  2.9276
27435SOL    HW285837   1.529   3.545   9.133  0.6964  1.0813 -1.8959
27436SOL     OW85838   8.415   8.388   1.841 -0.0735 -0.2973 -0.0288
27436SOL    HW185839   8.407   8.355   1.752  1.2773 -1.7436  0.3184
27436SOL    HW285840   8.363   8.327   1.894 -0.6064  0.3631  0.2209
27437SOL     OW85841   3.166  11.109   9.542 -0.1541 -0.3421 -0.6167
27437SOL    HW185842   3.183  11.068   9.627 -0.8511 -1.3919 -0.9669
27437SOL    HW285843   3.213  11.055   9.479  0.0871  0.2372 -0.9375
27438SOL     OW85844   6.822   4.282   1.225  0.7083  0.4020  0.4181
27438SOL    HW185845   6.823   4.323   1.312  1.3389  0.3494  0.4396
27438SOL    HW285846   6.742   4.317   1.183 -0.1227 -0.3244  1.3604
27439SOL     OW85847   0.372   9.278   6.441 -0.1654 -0.4735  0.7753
27439SOL    HW185848   0.292   9.264   6.391  1.2306 -1.0875 -1.3943
27439SOL    HW285849   0.376   9.373   6.452 -2.0842 -0.5189  2.5867
27440SOL     OW85850   6.027   9.508   4.379  0.1083  0.4354 -0.1727
27440SOL    HW185851   5.971   9.586   4.373 -0.4116  0.0627 -0.2329
27440SOL    HW285852   6.012   9.476   4.468  1.0026  0.8999  0.1597
27441SOL     OW85853   8.198   2.442   0.891  0.1747 -0.0525  0.0756
27441SOL    HW185854   8.274   2.500   0.883 -0.3007  0.5577 -0.1288
27441SOL    HW285855   8.150   2.455   0.810  0.0584 -0.7426  0.0331
27442SOL     OW85856   3.224   8.055   3.385 -0.0280  0.1936 -0.3486
27442SOL    HW185857   3.130   8.074   3.382 -0.2118 -0.8000 -1.5708
27442SOL    HW285858   3.249   8.040   3.294  0.8950 -1.4866  0.1359
27443SOL     OW85859   3.564   9.813   3.720  0.1165  0.0753  0.2585
27443SOL    HW185860   3.656   9.788   3.710  0.4224  1.1571  0.2383
27443SOL    HW285861   3.516   9.747   3.671  0.7379 -1.4929  1.6387
27444SOL     OW85862  10.259   1.480   5.026  0.1219 -0.3608  0.2615
27444SOL    HW185863  10.179   1.438   4.994  0.6720 -0.2535 -1.3393
27444SOL    HW285864  10.330   1.433   4.982  0.7603  2.5160 -2.1359
27445SOL     OW85865   7.696   6.972   1.303  0.1312 -1.0551 -0.4252
27445SOL    HW185866   7.668   6.965   1.211 -0.9248 -1.2670 -0.1029
27445SOL    HW285867   7.698   7.066   1.321  0.3845 -1.0105 -0.6716
27446SOL     OW85868   2.379   8.795   3.846  0.0119 -0.0410 -0.1169
27446SOL    HW185869   2.428   8.769   3.924 -1.5908  1.9698  1.6746
27446SOL    HW285870   2.440   8.780   3.773  2.9339  1.4098  1.8317
27447SOL     OW85871   2.092   5.440   4.665 -0.0999  0.2972 -0.1270
27447SOL    HW185872   2.073   5.512   4.725 -1.6342  0.2330 -0.4881
27447SOL    HW285873   2.169   5.397   4.702 -0.9576  0.3015  1.7550
27448SOL     OW85874   0.536   8.704   7.548 -0.2125 -0.1354  0.4581
27448SOL    HW185875   0.453   8.657   7.547 -0.2622 -0.1200  1.8779
27448SOL    HW285876   0.597   8.646   7.593  1.1616 -1.0454 -2.3589
27449SOL     OW85877   2.205   9.596   0.495  0.4129  0.2575  0.2107
27449SOL    HW185878   2.299   9.586   0.480  0.4178 -0.9683  0.9338
27449SOL    HW285879   2.164   9.541   0.430  0.1591  1.1362 -0.3943
27450SOL     OW85880   2.251   2.416   4.926  0.3204 -0.2188 -0.4984
27450SOL    HW185881   2.338   2.454   4.918 -0.0645  0.6561 -0.8081
27450SOL    HW285882   2.204   2.451   4.850 -0.8497  0.9136  0.6858
27451SOL     OW85883   0.989   0.891   9.753  0.1374  0.3752 -0.0638
27451SOL    HW185884   1.081   0.863   9.759 -0.4642 -1.7851 -0.0856
27451SOL    HW285885   0.943   0.813   9.722 -1.9174  0.9802  1.3050
27452SOL     OW85886   7.372   0.150   9.071  0.2341  0.3377 -0.0223
27452SOL    HW185887   7.389   0.078   9.010 -0.0697 -0.5020  0.8482
27452SOL    HW285888   7.459   0.186   9.090  0.2256  1.4036 -1.8589
27453SOL     OW85889   2.482   7.086   7.428 -0.2999 -0.0871  0.6162
27453SOL    HW185890   2.520   7.027   7.493 -1.2502 -0.6815  0.6543
27453SOL    HW285891   2.557   7.123   7.382  0.3135 -1.8423  0.1320
27454SOL     OW85892   7.825   9.907   3.992  0.0573  0.3624 -0.0700
27454SOL    HW185893   7.792   9.974   4.051  2.2491  0.3436  1.2994
27454SOL    HW285894   7.867   9.955   3.921  1.8437  0.5294  1.0351
27455SOL     OW85895  10.481   0.709   0.585 -0.0220  0.1588 -0.1757
27455SOL    HW185896  10.563   0.755   0.603 -0.4576  0.2907  1.6118
27455SOL    HW285897  10.424   0.775   0.547  0.4666  0.2122 -0.8555
27456SOL     OW85898   9.159   4.717   9.512  0.0580  0.2248  0.0211
27456SOL    HW185899   9.083   4.753   9.557 -0.2171 -1.8791  1.3474
27456SOL    HW285900   9.127   4.693   9.425 -0.1048  1.7229 -0.3615
27457SOL     OW85901   3.203  11.126   3.701  0.0401 -0.0298 -0.2038
27457SOL    HW185902   3.118  11.095   3.733  0.3548 -0.4918  0.2002
27457SOL    HW285903   3.246  11.048   3.668  0.6022  0.0731  0.2682
27458SOL     OW85904   2.510   6.872   7.668  0.1642 -0.2092 -0.4096
27458SOL    HW185905   2.573   6.858   7.740 -1.0845  0.7942  0.9176
27458SOL    HW285906   2.536   6.807   7.602  1.7262 -0.7655  0.6782
27459SOL     OW85907   8.210   6.795   2.941  0.2485  0.2023  0.1686
27459SOL    HW185908   8.142   6.841   2.990 -2.0803 -1.4222 -1.2977
27459SOL    HW285909   8.230   6.853   2.867  0.8967  0.9288  0.8981
27460SOL     OW85910   4.507   8.994   1.081  0.2369  0.3193 -0.2639
27460SOL    HW185911   4.504   8.979   1.176 -2.8537  0.7204 -0.2165
27460SOL    HW285912   4.505   8.907   1.042 -1.7761  0.1877  0.0671
27461SOL     OW85913   5.013   6.518   8.743  0.4427  0.7705 -0.5193
27461SOL    HW185914   5.067   6.563   8.678  1.7204 -1.1125 -0.8439
27461SOL    HW285915   5.066   6.444   8.772 -0.6336  0.7933  1.7254
27462SOL     OW85916   9.943   2.231   2.438 -0.1559 -0.4798  0.5668
27462SOL    HW185917  10.031   2.266   2.452 -0.1383 -0.0447 -0.5209
27462SOL    HW285918   9.896   2.253   2.518  0.1541  1.1587  0.3418
27463SOL     OW85919  10.899   8.948   2.695 -0.4515 -0.4028  0.2659
27463SOL    HW185920  10.918   8.883   2.763  0.2332  1.5158  2.0006
27463SOL    HW285921  10.976   8.945   2.637 -0.7003 -1.5187 -0.0378
27464SOL     OW85922   0.939   9.024   7.426 -0.1658 -0.2115  0.1676
27464SOL    HW185923   1.005   8.968   7.468  0.7655  1.3376  0.8389
27464SOL    HW285924   0.989   9.097   7.390 -1.5861  1.4531  1.4422
27465SOL     OW85925   2.621  10.564   7.124  0.4824 -0.5229  0.3505
27465SOL    HW185926   2.565  10.495   7.160  0.9580 -0.8258  0.5171
27465SOL    HW285927   2.573  10.596   7.048  0.3991 -1.2557  0.0848
27466SOL     OW85928   1.554   2.785   9.728  0.2094  1.1084 -0.2910
27466SOL    HW185929   1.587   2.703   9.764 -1.4412  0.8543  0.7275
27466SOL    HW285930   1.587   2.852   9.787  0.0479  1.0032 -0.0825
27467SOL     OW85931   0.751   2.516  10.657  0.1140  0.1241 -0.4456
27467SOL    HW185932   0.834   2.506  10.704  0.6589 -1.8056 -1.6870
27467SOL    HW285933   0.770   2.580  10.589  0.4179  0.0983 -0.3856
27468SOL     OW85934   8.851   2.556   9.446  0.1641  0.3750  0.4259
27468SOL    HW185935   8.842   2.616   9.372  0.4178  1.4184  1.2181
27468SOL    HW285936   8.861   2.613   9.522  1.9591 -0.6708  1.0217
27469SOL     OW85937   6.327   6.196   2.364  0.3147 -0.6540 -0.0706
27469SOL    HW185938   6.276   6.241   2.432 -0.4283 -0.0054 -1.0410
27469SOL    HW285939   6.377   6.130   2.412  0.4541  0.3487  1.2224
27470SOL     OW85940   2.589   6.047   6.186 -0.1013  0.0722 -0.0769
27470SOL    HW185941   2.560   6.138   6.191  0.6888  0.3015  0.4718
27470SOL    HW285942   2.670   6.044   6.237 -0.1430 -0.9483 -0.0373
27471SOL     OW85943   9.191   6.381   9.959  0.9338  0.3557 -0.1085
27471SOL    HW185944   9.162   6.297   9.925  2.1155  0.0143 -0.3024
27471SOL    HW285945   9.114   6.416  10.005  0.4727 -0.8843  0.0920
27472SOL     OW85946  10.613   7.816  10.208 -0.2759 -0.1306  0.2082
27472SOL    HW185947  10.574   7.896  10.244 -1.6820 -0.4763 -0.4688
27472SOL    HW285948  10.660   7.777  10.282  1.4804  1.9254  0.2424
27473SOL     OW85949   2.151   6.828   4.925 -0.2065  0.4325  0.4258
27473SOL    HW185950   2.173   6.741   4.890 -0.7065  0.5316 -0.1513
27473SOL    HW285951   2.199   6.833   5.007 -0.5867 -0.6095  0.7345
27474SOL     OW85952   2.367  10.977   4.625 -0.0176  0.3525 -0.0496
27474SOL    HW185953   2.458  11.000   4.640 -0.0460  0.1542  0.4805
27474SOL    HW285954   2.318  11.058   4.645 -0.0061  0.2629  0.3632
27475SOL     OW85955   3.724  10.129   8.440  0.5348  0.4344 -0.6779
27475SOL    HW185956   3.754  10.042   8.465 -0.6406  0.0088 -0.7102
27475SOL    HW285957   3.784  10.155   8.370  2.0760  0.4677  0.6098
27476SOL     OW85958   5.910   4.567   5.943  0.0028  0.5461  0.1899
27476SOL    HW185959   5.945   4.617   6.018  0.0701  0.3910  0.2624
27476SOL    HW285960   5.936   4.618   5.866 -0.5132  0.9802  0.2971
27477SOL     OW85961   9.220   5.012   1.708 -0.0667  0.7345  0.0865
27477SOL    HW185962   9.303   4.985   1.668  0.3477  0.2772  1.2116
27477SOL    HW285963   9.156   4.950   1.674  0.4149 -0.1098  0.6918
27478SOL     OW85964   4.592   5.671   4.396 -0.0758  0.1359  0.3376
27478SOL    HW185965   4.639   5.630   4.469  0.1001  1.2561  0.8773
27478SOL    HW285966   4.555   5.751   4.434 -1.2449 -0.0172 -0.4312
27479SOL     OW85967   2.242  10.003   5.468  0.3587  0.2028 -0.2462
27479SOL    HW185968   2.243   9.907   5.465  1.0428  0.2345 -2.5018
27479SOL    HW285969   2.275  10.024   5.555 -1.4047 -1.5975  0.9500
27480SOL     OW85970   7.979   8.856   0.900 -0.6341 -0.1513 -0.3667
27480SOL    HW185971   7.959   8.763   0.904  0.0692 -0.4728 -2.8580
27480SOL    HW285972   7.921   8.891   0.833 -1.3692  1.4047  0.9940
27481SOL     OW85973   5.876   5.457   4.035 -0.3801  0.0061 -0.0224
27481SOL    HW185974   5.839   5.466   3.948 -4.4347 -0.1342  1.4587
27481SOL    HW285975   5.908   5.366   4.039  0.0051  0.0726 -1.3544
27482SOL     OW85976   0.551   1.827   9.870 -0.3212 -0.0651 -0.3711
27482SOL    HW185977   0.456   1.823   9.863 -0.3589  0.0681  0.0312
27482SOL    HW285978   0.568   1.819   9.964 -0.0325  1.5709 -0.2557
27483SOL     OW85979   2.846   6.012   0.317  1.0980  0.4016 -0.1482
27483SOL    HW185980   2.872   6.065   0.393  0.4481 -1.4160  1.4418
27483SOL    HW285981   2.750   6.017   0.316  1.0369 -0.4759 -0.1204
27484SOL     OW85982   5.417  10.128   2.233  0.1757  0.4897 -0.2207
27484SOL    HW185983   5.341  10.070   2.238  1.1775 -0.8497  0.2974
27484SOL    HW285984   5.404  10.190   2.305 -1.6177  1.8805 -1.6495
27485SOL     OW85985   6.338   3.704   9.229  0.4686  0.0784  0.0102
27485SOL    HW185986   6.273   3.711   9.159 -1.1374  2.0279  1.5716
27485SOL    HW285987   6.337   3.612   9.253 -4.1068  0.3683  1.9547
27486SOL     OW85988   5.347   6.692   6.847  0.1887 -0.5137 -0.2598
27486SOL    HW185989   5.253   6.674   6.851 -0.2659  1.7115  1.0729
27486SOL    HW285990   5.356   6.760   6.781  0.5978  0.4972  0.8050
27487SOL     OW85991   8.643   4.091   8.001  0.0344 -0.1389 -0.2061
27487SOL    HW185992   8.580   4.113   7.932  1.0713  1.7659 -0.6216
27487SOL    HW285993   8.609   4.135   8.079 -1.1549 -2.3195  0.5848
27488SOL     OW85994   2.853   0.894   0.032  0.1810  0.1126 -0.1287
27488SOL    HW185995   2.782   0.894  -0.033 -0.4377  0.3545  0.5345
27488SOL    HW285996   2.840   0.813   0.081  1.1689 -0.5051 -0.8421
27489SOL     OW85997   8.650   3.054  10.431  0.6801  0.3416 -0.2962
27489SOL    HW185998   8.586   2.983  10.435  0.6411  0.0608 -3.4419
27489SOL    HW285999   8.735   3.009  10.434  0.6879  0.3584 -0.2555
27490SOL     OW86000   5.116   7.216  10.050  0.1540 -0.9670  0.0328
27490SOL    HW186001   5.162   7.209  10.134  0.6391 -0.8160 -0.2155
27490SOL    HW286002   5.132   7.133  10.006  0.1634 -0.9256 -0.0423
27491SOL     OW86003   7.043   2.358   6.282  0.0590 -0.1841 -0.7244
27491SOL    HW186004   6.956   2.326   6.258  0.3594 -0.2232 -1.8584
27491SOL    HW286005   7.103   2.308   6.225  0.8536 -0.3979  0.2676
27492SOL     OW86006   2.913   0.167   1.861 -0.0759  0.2431  0.3469
27492SOL    HW186007   2.895   0.191   1.952  0.9122  1.2392  0.3003
27492SOL    HW286008   2.848   0.214   1.809  0.7511  1.4907  0.3921
27493SOL     OW86009   1.753   0.062   7.081  0.3229 -0.1233  0.5414
27493SOL    HW186010   1.730   0.085   6.991 -0.9316 -0.1925  0.8303
27493SOL    HW286011   1.825  -0.001   7.072 -0.7777 -1.3047 -0.4867
27494SOL     OW86012  10.777   3.404   2.537  0.0813 -0.7572  0.3040
27494SOL    HW186013  10.794   3.493   2.566  1.4805 -0.7976 -0.2935
27494SOL    HW286014  10.776   3.409   2.441  1.2898 -1.5393  0.2268
27495SOL     OW86015   2.490   6.207   9.420 -0.6052  0.2259  0.5981
27495SOL    HW186016   2.567   6.180   9.470  0.6759  1.6336 -0.5249
27495SOL    HW286017   2.519   6.208   9.329 -2.6788 -1.6071 -0.1739
27496SOL     OW86018   1.610   6.708   9.111 -0.0656  0.6071 -0.4980
27496SOL    HW186019   1.691   6.683   9.156 -0.9739 -2.2609 -0.2942
27496SOL    HW286020   1.570   6.774   9.169  1.3258  0.8871  0.1890
27497SOL     OW86021   7.940   5.118  10.178 -0.1468 -0.4033 -0.1953
27497SOL    HW186022   7.976   5.040  10.220  0.8904 -0.2084 -0.6995
27497SOL    HW286023   7.924   5.092  10.087  0.6802  0.1099 -0.4949
27498SOL     OW86024   5.451  10.841   5.620  0.2378  0.1428 -0.1746
27498SOL    HW186025   5.472  10.750   5.643  0.3297  0.8082  2.7798
27498SOL    HW286026   5.483  10.892   5.694 -0.6220  2.5185 -1.3516
27499SOL     OW86027   7.957  10.197  11.110 -0.0128 -0.9553  0.2649
27499SOL    HW186028   8.049  10.198  11.081 -0.6721  1.5303 -2.2684
27499SOL    HW286029   7.910  10.156  11.037 -1.1921  0.3847  0.2424
27500SOL     OW86030   7.218   5.936   5.354 -0.4816 -0.0835  0.5587
27500SOL    HW186031   7.188   5.897   5.435  1.1055  0.4883  1.4692
27500SOL    HW286032   7.297   5.985   5.378  1.6457 -2.0817 -1.7665
27501SOL     OW86033  10.430   9.410   6.655  0.5975  0.1423  0.4990
27501SOL    HW186034  10.466   9.329   6.691 -0.5609 -0.8813 -0.5485
27501SOL    HW286035  10.365   9.381   6.591  0.0660  1.9086  0.1824
27502SOL     OW86036   0.841   4.058   0.275 -0.8388  0.1335 -0.1687
27502SOL    HW186037   0.910   4.000   0.306 -2.2812 -1.7934 -0.3894
27502SOL    HW286038   0.760   4.012   0.295 -2.0011  1.4013 -1.6955
27503SOL     OW86039   6.676   8.849   6.391 -0.3557  0.2100  0.7517
27503SOL    HW186040   6.768   8.840   6.365 -0.6300  0.3998 -0.3297
27503SOL    HW286041   6.654   8.940   6.369 -0.5995  0.3875  1.6947
27504SOL     OW86042   8.272   8.506   3.794 -0.1914 -0.0598 -0.2484
27504SOL    HW186043   8.235   8.567   3.729 -0.1258 -0.1227 -0.3455
27504SOL    HW286044   8.200   8.490   3.855  0.6008  2.4169  1.4906
27505SOL     OW86045   8.397   0.273   7.508 -0.4450  0.1813 -0.3935
27505SOL    HW186046   8.393   0.226   7.592 -1.0403 -2.1480 -1.6393
27505SOL    HW286047   8.490   0.297   7.499 -0.4539  0.9090  1.1118
27506SOL     OW86048   8.492   1.340  10.745 -0.4273 -0.0547  0.1054
27506SOL    HW186049   8.581   1.375  10.747 -0.4171  0.0659 -1.4084
27506SOL    HW286050   8.451   1.372  10.826  0.8663 -0.0479  0.7805
27507SOL     OW86051   2.806   7.795   0.112  0.3895  0.1464  0.0266
27507SOL    HW186052   2.854   7.769   0.191  0.9861  0.3907 -0.2481
27507SOL    HW286053   2.718   7.814   0.143  0.3732 -0.6230  0.4922
27508SOL     OW86054   5.087   4.597   3.228 -0.3078 -0.7217  0.1907
27508SOL    HW186055   5.043   4.591   3.144 -0.7847  1.0514  0.2710
27508SOL    HW286056   5.155   4.529   3.225 -0.8625 -1.2458 -1.2660
27509SOL     OW86057   7.314   1.654   0.468  0.8168  0.5592  0.0561
27509SOL    HW186058   7.246   1.721   0.477  0.2472 -0.0910  0.7533
27509SOL    HW286059   7.266   1.571   0.469  1.6834  0.0365  1.6460
27510SOL     OW86060   6.092   8.490   0.874  1.0387 -0.2084  0.3259
27510SOL    HW186061   6.164   8.516   0.816  1.4763  1.2173  1.4586
27510SOL    HW286062   6.113   8.529   0.959 -0.2202 -1.1953  1.1376
27511SOL     OW86063   2.351  10.244   0.155  0.5221 -0.2327  0.2167
27511SOL    HW186064   2.321  10.204   0.236  0.9911  0.8837  0.9701
27511SOL    HW286065   2.400  10.175   0.110 -0.3400 -1.0672  0.5371
27512SOL     OW86066   0.989   3.817   9.547 -0.1874 -0.1373  0.1523
27512SOL    HW186067   0.956   3.815   9.457  1.2511  1.7769 -0.4693
27512SOL    HW286068   1.033   3.732   9.559  0.0082 -0.2206 -1.1027
27513SOL     OW86069   6.682   1.470   6.948  0.2483 -0.3861  0.3086
27513SOL    HW186070   6.614   1.411   6.982  0.4615 -0.1936  1.0880
27513SOL    HW286071   6.733   1.495   7.026  0.1634  0.8277 -0.0118
27514SOL     OW86072   2.346   4.000   2.679  0.4061 -0.0598 -0.4999
27514SOL    HW186073   2.341   4.068   2.746  0.0766  0.2205 -0.8058
27514SOL    HW286074   2.440   3.990   2.662  0.4536  0.4139 -0.5463
27515SOL     OW86075   2.230  10.422   0.486 -0.0341  0.9463 -0.3260
27515SOL    HW186076   2.190  10.385   0.565  0.3896 -0.1167 -0.5940
27515SOL    HW286077   2.324  10.411   0.499  0.0551  1.0344 -0.8555
27516SOL     OW86078   7.365   5.448   8.345  0.2525  0.3017  0.8040
27516SOL    HW186079   7.454   5.414   8.335  0.3614  0.6184  0.6969
27516SOL    HW286080   7.332   5.456   8.256  0.4733  1.1294  0.7923
27517SOL     OW86081   1.017   0.480   8.372  0.5995  0.1589 -0.1768
27517SOL    HW186082   1.005   0.549   8.306  0.5951  0.2273 -0.1050
27517SOL    HW286083   0.965   0.407   8.339 -1.0173  0.8512  0.7174
27518SOL     OW86084   2.667   1.341   0.732 -0.8773  0.5454  0.0184
27518SOL    HW186085   2.692   1.431   0.750  1.6141  0.0288 -0.4195
27518SOL    HW286086   2.605   1.347   0.660 -0.6071  1.9045 -0.1209
27519SOL     OW86087  10.319   5.157   5.691  0.7050  0.2448  0.0487
27519SOL    HW186088  10.412   5.171   5.676  0.9589 -1.2760  0.0717
27519SOL    HW286089  10.290   5.107   5.615  0.5557 -1.7571  1.3479
27520SOL     OW86090   2.053   6.221   7.336 -0.1456  0.3870  0.1737
27520SOL    HW186091   2.000   6.297   7.314 -0.4783  0.4204  1.0491
27520SOL    HW286092   2.047   6.214   7.431  0.6343 -0.1857  0.1952
27521SOL     OW86093   9.326   0.646   4.708  0.0545 -0.4691 -0.2181
27521SOL    HW186094   9.285   0.602   4.784 -1.7028 -2.3522 -2.1122
27521SOL    HW286095   9.418   0.655   4.733 -0.5646 -0.3699  2.3974
27522SOL     OW86096   7.250   5.119   7.464 -0.6316  0.5003  0.5457
27522SOL    HW186097   7.172   5.112   7.520 -0.8765  0.6377  0.2205
27522SOL    HW286098   7.228   5.186   7.400 -0.3488  0.3372  0.2786
27523SOL     OW86099   9.907   0.833   3.529 -0.0306  0.1948  0.7116
27523SOL    HW186100   9.945   0.789   3.453 -0.0866  1.0387  0.1794
27523SOL    HW286101   9.813   0.818   3.520 -0.0426  0.3450  0.5770
27524SOL     OW86102   1.259   2.416   2.754  0.6797  0.2118 -0.7909
27524SOL    HW186103   1.182   2.451   2.709 -0.3923 -1.3135 -0.2332
27524SOL    HW286104   1.244   2.435   2.847  0.2856 -1.2365 -0.5247
27525SOL     OW86105   7.426  10.877   5.267 -0.5811 -0.3179  0.4847
27525SOL    HW186106   7.457  10.858   5.355  1.1109 -2.1887 -0.4220
27525SOL    HW286107   7.490  10.939   5.232 -0.7519 -0.2467  0.2952
27526SOL     OW86108  10.355  10.028   3.176  0.0539 -0.3871  0.4303
27526SOL    HW186109  10.274  10.029   3.125  0.5818  0.1764 -0.4022
27526SOL    HW286110  10.424  10.046   3.113  0.6196  1.5616  1.5158
27527SOL     OW86111  10.636   7.605   0.946 -0.1666  0.3057  0.1161
27527SOL    HW186112  10.683   7.688   0.960  0.6585 -0.2625  0.8191
27527SOL    HW286113  10.630   7.566   1.033 -0.6921 -0.3069 -0.1898
27528SOL     OW86114   3.613   9.207   7.913 -0.4665  0.0793  0.0859
27528SOL    HW186115   3.633   9.119   7.945  0.3132 -0.7844 -2.4935
27528SOL    HW286116   3.661   9.213   7.830 -1.2162  2.6209 -0.2248
27529SOL     OW86117   7.204   3.369   2.407 -0.2083  0.0971 -0.4863
27529SOL    HW186118   7.250   3.405   2.483 -0.7020 -0.1188 -0.0732
27529SOL    HW286119   7.141   3.437   2.383 -0.0679  0.1558 -0.6914
27530SOL     OW86120   5.234   0.827   1.374 -0.1891  0.0423  0.1039
27530SOL    HW186121   5.329   0.826   1.390 -0.4418 -0.5057  1.8111
27530SOL    HW286122   5.205   0.739   1.399 -1.1703  0.2617 -0.2410
27531SOL     OW86123  10.671   8.229   2.157  0.6098 -0.0888 -0.0748
27531SOL    HW186124  10.744   8.259   2.102 -1.1190  0.6273 -2.0951
27531SOL    HW286125  10.711   8.165   2.215  2.3367 -2.3021 -3.3484
27532SOL     OW86126   6.967   6.018   0.144  0.1746 -0.1919 -0.3476
27532SOL    HW186127   7.013   6.095   0.111  1.5078 -0.4708  0.7779
27532SOL    HW286128   7.026   5.945   0.127 -0.2736 -0.7098  0.2473
27533SOL     OW86129  10.125   1.817   7.978 -0.2027 -0.0591  0.6148
27533SOL    HW186130  10.048   1.761   7.974 -0.3687  0.0347  1.9579
27533SOL    HW286131  10.091   1.906   7.974 -0.0896 -0.0327  0.2585
27534SOL     OW86132  10.499  10.914   5.587  0.5712 -0.6510  0.6037
27534SOL    HW186133  10.448  10.835   5.572  2.6826 -2.1739  1.0946
27534SOL    HW286134  10.545  10.929   5.504 -2.1450  2.0071 -0.6443
27535SOL     OW86135   4.331  10.152   4.376 -0.5058  0.0158  0.9271
27535SOL    HW186136   4.414  10.113   4.404 -0.2288 -0.3773 -0.3699
27535SOL    HW286137   4.353  10.243   4.357 -0.3587 -0.0904  0.5754
27536SOL     OW86138   9.565   0.410   6.950  0.4639 -0.7270  0.0447
27536SOL    HW186139   9.476   0.390   6.922  0.5268 -0.0690 -0.6504
27536SOL    HW286140   9.613   0.427   6.870  0.2914  2.6198  0.5033
27537SOL     OW86141   0.875   4.127   1.762  0.4001  0.2691  0.0785
27537SOL    HW186142   0.863   4.218   1.789  1.3169  0.6896 -0.8683
27537SOL    HW286143   0.954   4.098   1.808 -0.4022 -0.3614  1.0996
27538SOL     OW86144   6.167   5.044   6.465  0.3779 -0.5355  0.3583
27538SOL    HW186145   6.131   4.957   6.484  0.3167 -0.3034  1.3434
27538SOL    HW286146   6.141   5.098   6.540 -0.2400  0.5386 -0.5943
27539SOL     OW86147   6.503   8.445   3.615 -0.0599  0.0196  0.4715
27539SOL    HW186148   6.418   8.431   3.655 -1.1707  1.9777 -1.0172
27539SOL    HW286149   6.528   8.360   3.580 -2.7373 -0.0897 -1.4293
27540SOL     OW86150  10.269   3.869   0.986  0.3744 -0.1932  0.1615
27540SOL    HW186151  10.361   3.893   0.998  0.7198 -1.2431 -0.2382
27540SOL    HW286152  10.220   3.946   1.014  1.4079  1.7488 -2.8436
27541SOL     OW86153  10.337   7.276   4.813  0.4809 -0.0645 -0.0815
27541SOL    HW186154  10.330   7.181   4.823 -1.9144  0.0980  0.3288
27541SOL    HW286155  10.327   7.291   4.719  1.6465 -0.2235 -0.2531
27542SOL     OW86156   5.245   7.211   8.810  0.9427  0.1814  0.1373
27542SOL    HW186157   5.204   7.125   8.796  0.3202  0.6281 -0.8342
27542SOL    HW286158   5.220   7.263   8.734  2.2318  0.8908  0.1635
27543SOL     OW86159   5.203  10.300   7.462  0.2363 -0.5252 -0.4534
27543SOL    HW186160   5.252  10.306   7.544 -0.0992  1.0256 -0.3361
27543SOL    HW286161   5.257  10.245   7.406  1.9298  0.7386 -0.1625
27544SOL     OW86162   2.349  10.240   7.410  0.0336 -0.0143  0.3519
27544SOL    HW186163   2.415  10.308   7.393  0.2865 -0.3550 -0.0561
27544SOL    HW286164   2.373  10.168   7.352 -0.6899 -0.1535  0.2088
27545SOL     OW86165   6.903   9.005   1.537  0.2287 -0.0187  0.1290
27545SOL    HW186166   6.937   9.085   1.496 -0.8232  1.3065  1.6904
27545SOL    HW286167   6.981   8.959   1.568  0.9466 -0.3517 -1.9950
27546SOL     OW86168   2.818   2.456   6.989 -0.8484 -0.2998 -0.2622
27546SOL    HW186169   2.760   2.452   6.914  1.0456 -0.5048 -1.7827
27546SOL    HW286170   2.852   2.546   6.989  0.0869 -0.6392 -0.4101
27547SOL     OW86171   7.255   1.470   8.665 -0.4392  0.2617  0.1501
27547SOL    HW186172   7.160   1.466   8.672 -0.5014  1.5191  0.2914
27547SOL    HW286173   7.273   1.558   8.632  0.6441 -0.2323 -0.6339
27548SOL     OW86174   0.091   5.797   2.024 -0.0952 -0.1240  0.3042
27548SOL    HW186175   0.007   5.791   2.069  0.8368  1.0831  2.3379
27548SOL    HW286176   0.144   5.855   2.079  1.4388  0.7184 -1.9280
27549SOL     OW86177   6.644   3.976   3.914 -0.0651 -0.4541 -0.2232
27549SOL    HW186178   6.664   4.061   3.953  1.3199 -1.7697  2.1653
27549SOL    HW286179   6.638   3.994   3.820 -0.0874  2.3023  0.2232
27550SOL     OW86180   6.754   1.661   7.764 -0.6067  0.0906 -0.0011
27550SOL    HW186181   6.757   1.754   7.787  1.7702 -0.2596  1.4384
27550SOL    HW286182   6.844   1.640   7.738 -1.0215 -1.8703  0.0326
27551SOL     OW86183   1.048   6.563   7.075  0.3353 -0.2073 -0.0155
27551SOL    HW186184   1.048   6.594   6.985 -0.6843  0.2850  0.1435
27551SOL    HW286185   1.138   6.534   7.091  1.2468  2.2300 -0.3130
27552SOL     OW86186   6.294   1.853   0.946 -0.1272  0.5719  0.1208
27552SOL    HW186187   6.374   1.896   0.977  1.0940  0.3250 -2.3770
27552SOL    HW286188   6.304   1.762   0.972  0.2824  0.6054  0.0886
27553SOL     OW86189   0.473   6.153   9.948 -0.1003 -0.3433  0.3895
27553SOL    HW186190   0.437   6.240   9.963  2.6408  0.7356  1.3941
27553SOL    HW286191   0.434   6.099  10.016 -0.9579  0.3601  0.4793
27554SOL     OW86192  10.982   9.937   0.583 -0.1267 -0.1651  0.5171
27554SOL    HW186193  11.071   9.951   0.551 -0.4600  0.6983 -0.0629
27554SOL    HW286194  10.972  10.001   0.654 -0.8042  0.8367 -0.4605
27555SOL     OW86195   5.595   2.167   8.272  0.0156  0.2531  0.0217
27555SOL    HW186196   5.651   2.106   8.224 -0.3103 -0.5926  0.6937
27555SOL    HW286197   5.651   2.243   8.288  0.7926 -0.3369  0.1662
27556SOL     OW86198   8.330   9.903   8.978  1.0150  0.0156 -0.2839
27556SOL    HW186199   8.307   9.993   8.957 -2.7352  0.0685  2.8963
27556SOL    HW286200   8.395   9.910   9.048  0.4876  0.2470  0.1807
27557SOL     OW86201   6.366   2.417   0.044 -0.0853  0.1040 -0.0846
27557SOL    HW186202   6.429   2.356   0.082 -1.2570  0.0945  1.9313
27557SOL    HW286203   6.314   2.363  -0.016  1.4137  0.0070 -1.3794
27558SOL     OW86204   4.673   6.737   7.800 -0.0873 -0.0745 -0.5808
27558SOL    HW186205   4.724   6.816   7.782  1.1771 -0.7320 -0.0163
27558SOL    HW286206   4.738   6.667   7.806 -0.8654 -0.7010  1.6680
27559SOL     OW86207   4.646   8.434   0.866  0.2938 -0.6711 -0.1219
27559SOL    HW186208   4.571   8.490   0.848  2.1846  2.5568  1.0334
27559SOL    HW286209   4.612   8.365   0.923 -1.5390  1.9321  2.2569
27560SOL     OW86210   3.347  11.068  10.855  0.1162 -0.8944 -0.1959
27560SOL    HW186211   3.370  10.984  10.815  1.2566 -0.1725 -1.1143
27560SOL    HW286212   3.426  11.095  10.902 -0.6453 -0.9020  1.1424
27561SOL     OW86213   4.634   7.807   8.438  0.4519  0.2293 -0.0469
27561SOL    HW186214   4.697   7.801   8.510  0.5914 -0.0005 -0.1885
27561SOL    HW286215   4.644   7.897   8.405 -1.4402  1.2237  1.8800
27562SOL     OW86216   5.933   3.910   1.648 -0.4141 -0.2719 -0.4801
27562SOL    HW186217   5.929   3.816   1.630 -3.7085 -0.1195 -1.3016
27562SOL    HW286218   5.881   3.950   1.577  0.7134  2.1579 -0.0361
27563SOL     OW86219   5.822   1.689   7.402  0.5347  0.1829  0.0868
27563SOL    HW186220   5.899   1.700   7.345  2.2491  0.1460  2.2827
27563SOL    HW286221   5.807   1.775   7.440  1.4503 -0.4273  1.9666
27564SOL     OW86222   0.729   5.563   0.563  0.1450 -0.3931  0.3899
27564SOL    HW186223   0.732   5.634   0.500 -0.9125 -0.2055  0.5349
27564SOL    HW286224   0.813   5.568   0.610  0.7909 -0.3225 -0.7506
27565SOL     OW86225   2.702  10.607   0.797 -0.3522 -0.1063 -0.3321
27565SOL    HW186226   2.696  10.702   0.811  2.2926  0.2937 -1.3183
27565SOL    HW286227   2.757  10.576   0.869  0.6586 -0.4722 -1.2248
27566SOL     OW86228   5.040  10.025   2.043 -0.2104 -0.3940 -0.1099
27566SOL    HW186229   5.052   9.933   2.063 -0.8784  0.0896  3.0686
27566SOL    HW286230   5.124  10.066   2.066 -0.4300 -0.0211  0.0456
27567SOL     OW86231   1.431   1.621   3.236  0.1934 -0.6470  0.5611
27567SOL    HW186232   1.430   1.526   3.227 -0.7426 -0.5726 -0.3105
27567SOL    HW286233   1.373   1.639   3.310  1.2340 -0.8013  1.4325
27568SOL     OW86234   9.937   1.631   7.934 -0.1432  0.9842 -0.4296
27568SOL    HW186235   9.851   1.615   7.973 -0.8289  1.7805 -1.5667
27568SOL    HW286236   9.981   1.546   7.940 -0.5635  0.8537  1.2028
27569SOL     OW86237   5.409   5.847   7.857  0.2056  0.3233 -0.5828
27569SOL    HW186238   5.365   5.777   7.906  1.0351 -0.0342 -0.3112
27569SOL    HW286239   5.471   5.801   7.800  1.5910  0.8481  0.4294
27570SOL     OW86240   6.380   5.655   7.859 -0.0099  0.4566 -0.1345
27570SOL    HW186241   6.302   5.601   7.871  0.0656  0.4145  0.1711
27570SOL    HW286242   6.355   5.719   7.792  0.1836 -0.5089 -1.1625
27571SOL     OW86243   3.253   7.657  10.917 -0.4317  0.3228  0.4246
27571SOL    HW186244   3.312   7.720  10.958 -1.6182  1.2826  0.7200
27571SOL    HW286245   3.219   7.604  10.989 -0.8565  0.5804  0.4187
27572SOL     OW86246   7.291   9.796   8.637 -0.5043 -0.4699  0.3877
27572SOL    HW186247   7.258   9.880   8.604  0.6432  0.8565  2.3924
27572SOL    HW286248   7.369   9.779   8.584 -0.7781 -0.3142 -0.0756
27573SOL     OW86249   9.951  11.001   7.151  0.0354 -0.1609  0.4950
27573SOL    HW186250   9.939  11.020   7.058  1.4116 -0.5774  0.2123
27573SOL    HW286251   9.918  10.912   7.162 -0.0888 -0.1264  0.4006
27574SOL     OW86252  10.768   4.022  10.874 -0.4951  0.2644  0.1335
27574SOL    HW186253  10.748   4.033  10.781 -0.7539  0.1085  0.1703
27574SOL    HW286254  10.846   4.076  10.888 -1.6810  1.9938  0.2902
27575SOL     OW86255   4.280   2.845   6.793 -0.1157 -0.0005 -0.6865
27575SOL    HW186256   4.241   2.817   6.709 -0.9420  0.9417 -0.6293
27575SOL    HW286257   4.359   2.892   6.768  0.7134 -1.3962 -0.8300
27576SOL     OW86258   5.636  10.964   5.779 -0.0351 -0.0365  0.2790
27576SOL    HW186259   5.728  10.941   5.795  0.6181  2.1821  0.0093
27576SOL    HW286260   5.609  11.011   5.858 -1.0392 -0.8781  0.4585
27577SOL     OW86261   9.419   6.396   7.428 -0.0788  0.8470  0.2323
27577SOL    HW186262   9.347   6.459   7.422  0.6778  1.7558  0.3655
27577SOL    HW286263   9.479   6.434   7.493 -0.2410 -0.6863  1.3269
27578SOL     OW86264   9.885   3.153   1.374 -0.1062 -0.0500 -0.6403
27578SOL    HW186265   9.813   3.095   1.347 -0.1795 -0.8683  1.1926
27578SOL    HW286266   9.844   3.239   1.384 -1.4909 -0.9575  2.7598
27579SOL     OW86267   6.486   2.114   5.028 -0.5900 -0.4242 -0.1902
27579SOL    HW186268   6.580   2.115   5.010 -0.0668  0.7121  2.2114
27579SOL    HW286269   6.447   2.077   4.949  1.7265  0.4380 -1.8600
27580SOL     OW86270   9.409   2.101   4.407 -0.6157  0.5504 -0.1497
27580SOL    HW186271   9.481   2.074   4.464  1.3318  0.7111 -2.3753
27580SOL    HW286272   9.385   2.022   4.359 -1.3777  0.6818  0.0055
27581SOL     OW86273   9.856   7.393   3.738 -0.2097 -0.5798  0.0461
27581SOL    HW186274   9.919   7.383   3.667 -0.7048 -0.2492 -0.4441
27581SOL    HW286275   9.771   7.402   3.695 -0.2273  2.5683  0.4936
27582SOL     OW86276   1.185   2.753   3.597 -0.3338  0.1207  0.1129
27582SOL    HW186277   1.270   2.778   3.561  0.0620 -0.0519  0.8879
27582SOL    HW286278   1.140   2.836   3.612  0.6831  0.4131  1.9810
27583SOL     OW86279   0.900   9.849   1.418 -0.1556  0.4851  0.4644
27583SOL    HW186280   0.872   9.757   1.419 -0.8715  0.6910  1.4717
27583SOL    HW286281   0.972   9.853   1.480  1.1737  0.2504 -1.0178
27584SOL     OW86282   1.067  10.516   5.488  0.2790 -0.3074  0.7236
27584SOL    HW186283   1.108  10.452   5.430  1.1980  0.3610  0.6200
27584SOL    HW286284   0.975  10.517   5.461  0.1782 -1.8020  0.9500
27585SOL     OW86285   8.428   6.514   9.648 -0.4857  0.6611  0.2273
27585SOL    HW186286   8.475   6.461   9.584 -0.1795  0.4294  0.6388
27585SOL    HW286287   8.496   6.565   9.691 -0.1584 -1.7358  2.8235
27586SOL     OW86288   8.921   7.386   2.248  0.0470  0.0443 -0.5861
27586SOL    HW186289   9.015   7.380   2.268 -0.3054 -2.8420  0.8096
27586SOL    HW286290   8.898   7.477   2.265  2.3416  0.5246  0.3227
27587SOL     OW86291   7.172   8.827   0.249 -0.7304  0.1790  0.0896
27587SOL    HW186292   7.208   8.841   0.336 -0.7168 -0.6238  0.2224
27587SOL    HW286293   7.245   8.844   0.190  0.6490 -3.5281  0.4395
27588SOL     OW86294   1.317   6.722   2.758  0.0199 -0.2728  0.7902
27588SOL    HW186295   1.311   6.698   2.666  1.2816 -0.5433  0.7564
27588SOL    HW286296   1.365   6.805   2.758  1.7886 -1.2469  1.2805
27589SOL     OW86297   9.172   3.883  10.235 -0.7472 -0.1893 -0.1332
27589SOL    HW186298   9.247   3.940  10.223  0.4923 -2.0530 -1.7547
27589SOL    HW286299   9.097   3.942  10.239  0.6948  1.6785  0.9540
27590SOL     OW86300  11.020   0.368  10.596 -0.7446 -0.1247  0.4134
27590SOL    HW186301  11.084   0.416  10.649 -1.1358 -0.6750  1.4044
27590SOL    HW286302  11.073   0.311  10.540 -0.3082  0.8264 -0.1724
27591SOL     OW86303   6.061   8.608   6.768 -0.1413  0.2873  0.4258
27591SOL    HW186304   6.148   8.639   6.747 -0.1519  0.5485  0.7573
27591SOL    HW286305   6.024   8.676   6.825 -0.3447 -0.0883  0.7529
27592SOL     OW86306   4.252   8.455   4.277  0.6132  0.2950 -0.0588
27592SOL    HW186307   4.283   8.501   4.355  0.3509  0.4662 -0.0545
27592SOL    HW286308   4.215   8.523   4.222 -0.2292  0.0333  0.1625
27593SOL     OW86309   5.431   9.488   9.866  0.1112 -0.1951 -0.5218
27593SOL    HW186310   5.401   9.485   9.775  0.8424 -1.4962 -0.7454
27593SOL    HW286311   5.351   9.481   9.918 -0.3599  1.0762 -1.0401
27594SOL     OW86312   9.349  10.066   6.625  0.5090  0.5618  0.0978
27594SOL    HW186313   9.348  10.047   6.531 -0.1953 -1.1382  0.4190
27594SOL    HW286314   9.421  10.013   6.660 -1.2152 -1.3454  0.9528
27595SOL     OW86315   7.016   6.722   7.192 -0.4544 -0.1651  0.0105
27595SOL    HW186316   7.101   6.767   7.196  0.0639 -1.2016  1.5295
27595SOL    HW286317   6.978   6.750   7.109  1.4097  0.2743 -0.7432
27596SOL     OW86318   3.287  10.028   1.530 -0.3128 -0.2492 -0.3235
27596SOL    HW186319   3.194  10.051   1.529 -0.5950 -1.3091 -0.9105
27596SOL    HW286320   3.317  10.052   1.618 -1.0350  0.4831 -0.2664
27597SOL     OW86321   0.023   1.964   1.591 -0.1822  0.1005 -0.0155
27597SOL    HW186322  -0.035   1.900   1.632  2.9506 -1.6620  2.0971
27597SOL    HW286323   0.040   1.929   1.504  0.1246 -1.0497  0.4881
27598SOL     OW86324  10.326   8.051   8.139  0.8566 -0.0937 -0.2624
27598SOL    HW186325  10.371   8.015   8.215  0.1801 -1.7326 -0.6067
27598SOL    HW286326  10.234   8.030   8.154  0.2272  2.5751  0.0826
27599SOL     OW86327   0.204   5.933   2.218 -0.0383 -0.1144 -0.0316
27599SOL    HW186328   0.298   5.921   2.234 -0.3770  0.2691  2.7886
27599SOL    HW286329   0.186   6.022   2.249 -1.2726 -0.0643 -0.8492
27600SOL     OW86330   7.790   9.098   4.988  0.4897 -0.3473 -0.2327
27600SOL    HW186331   7.813   9.130   5.076 -1.9895  1.5251 -0.1589
27600SOL    HW286332   7.703   9.134   4.971  0.0858 -2.2140 -2.7414
27601SOL     OW86333   3.243   7.462   4.838  0.6242  0.0654  0.7327
27601SOL    HW186334   3.275   7.422   4.757  1.3244  0.8082  0.6196
27601SOL    HW286335   3.298   7.540   4.849 -2.1226  2.3285 -0.2975
27602SOL     OW86336   3.971   3.755   8.545  0.0951 -0.2660 -0.3887
27602SOL    HW186337   3.939   3.706   8.620 -0.4750  1.7751  0.7926
27602SOL    HW286338   4.066   3.745   8.548 -0.0381 -1.6738 -0.4884
27603SOL     OW86339   0.617  11.088   7.016 -0.0069  0.0304  0.1873
27603SOL    HW186340   0.609  11.059   7.107 -1.5216 -0.0161  0.0639
27603SOL    HW286341   0.627  11.183   7.022 -1.0079  0.1301  0.3771
27604SOL     OW86342   4.180   7.744   2.250 -0.0610  0.7715  0.3345
27604SOL    HW186343   4.266   7.712   2.275  0.2441  1.9978  0.9474
27604SOL    HW286344   4.160   7.699   2.168  0.1433 -1.2302  1.3131
27605SOL     OW86345   6.714   8.725   2.219 -0.3286 -0.2425  0.2379
27605SOL    HW186346   6.784   8.666   2.189 -0.4542 -0.7984  1.0062
27605SOL    HW286347   6.638   8.701   2.166  0.2653  0.9678 -1.2315
27606SOL     OW86348   5.493   6.702   2.323 -0.0089  0.0681  0.0360
27606SOL    HW186349   5.403   6.722   2.346  0.0346 -1.0112  1.2393
27606SOL    HW286350   5.490   6.680   2.230 -0.9223  0.4087 -0.0205
27607SOL     OW86351   0.754   1.052   1.796 -0.0533 -0.2868  0.0000
27607SOL    HW186352   0.811   1.081   1.866 -0.0528 -0.1729 -0.0479
27607SOL    HW286353   0.666   1.065   1.829 -0.0558  0.1560 -0.1804
27608SOL     OW86354   6.480   8.667   4.030  0.6229  0.4914 -0.2698
27608SOL    HW186355   6.531   8.747   4.037  0.8539  0.4084 -0.9478
27608SOL    HW286356   6.425   8.666   4.108  1.7661  0.4987  0.5466
27609SOL     OW86357   7.236   1.746   4.951 -0.0070  1.2509 -0.5158
27609SOL    HW186358   7.210   1.739   4.859  0.9462  3.1764 -0.9885
27609SOL    HW286359   7.330   1.725   4.951 -0.2239  0.2361  0.2001
27610SOL     OW86360   1.515   4.516   5.217 -0.2352  0.3357 -0.2943
27610SOL    HW186361   1.580   4.448   5.234 -0.1959  0.0651 -1.4695
27610SOL    HW286362   1.566   4.596   5.202 -0.1659  0.1425 -1.1270
27611SOL     OW86363  10.764  10.905   1.513  0.2009  0.3293  0.7062
27611SOL    HW186364  10.685  10.885   1.564 -0.0054 -0.7808 -0.0203
27611SOL    HW286365  10.812  10.822   1.510  0.4991  0.5296 -0.3930
27612SOL     OW86366   0.472   1.323   2.998 -0.0680 -0.8588 -0.2761
27612SOL    HW186367   0.556   1.319   3.043  0.9794  1.0383 -1.9304
27612SOL    HW286368   0.458   1.234   2.965  0.7867 -1.4267  0.8091
27613SOL     OW86369   6.415   3.514   7.190 -0.3930  0.2039  0.1355
27613SOL    HW186370   6.426   3.510   7.285  1.8741 -1.6703 -0.0893
27613SOL    HW286371   6.357   3.441   7.169 -0.2133  0.0835  0.0457
27614SOL     OW86372   2.505   4.456   8.508 -0.0546 -1.0918 -0.2245
27614SOL    HW186373   2.452   4.514   8.452 -0.6350 -0.0925  1.3022
27614SOL    HW286374   2.594   4.466   8.475 -0.1181  0.8207  0.0750
27615SOL     OW86375   0.410   2.100  10.790 -0.1073 -0.1439 -0.0546
27615SOL    HW186376   0.371   2.017  10.761  2.7104 -1.8656  0.6650
27615SOL    HW286377   0.476   2.074  10.854  0.8053  2.7132  0.3002
27616SOL     OW86378   0.717   6.038   9.952 -0.1747 -0.2263  0.3707
27616SOL    HW186379   0.766   6.081  10.022 -1.0027  0.0032  0.8222
27616SOL    HW286380   0.641   6.095   9.937 -0.5150 -0.7748 -0.0378
27617SOL     OW86381   4.408   4.700   7.809 -0.4849 -0.2320  0.4438
27617SOL    HW186382   4.314   4.691   7.796 -0.4750 -0.9741  0.8397
27617SOL    HW286383   4.445   4.701   7.721 -0.9082  0.6860  0.2655
27618SOL     OW86384   6.699  10.392   6.911 -0.3282 -1.3065 -0.0842
27618SOL    HW186385   6.683  10.374   7.004 -0.8260  0.2232  0.1707
27618SOL    HW286386   6.792  10.414   6.906 -0.1126 -2.2016 -0.1034
27619SOL     OW86387   6.788   7.557  11.075  0.2997 -0.1802 -0.2987
27619SOL    HW186388   6.747   7.581  10.992 -0.0854  0.2076 -0.0029
27619SOL    HW286389   6.789   7.639  11.125  1.1821 -0.2467 -0.1893
27620SOL     OW86390   7.580   8.071   7.623 -0.2606  0.0787 -0.1178
27620SOL    HW186391   7.655   8.037   7.575  0.6401  1.9982 -0.1222
27620SOL    HW286392   7.617   8.120   7.696 -1.4817  1.1862 -0.2012
27621SOL     OW86393   7.782   8.889   2.950  0.2036 -0.2886  0.6810
27621SOL    HW186394   7.687   8.887   2.948  0.1707  0.7654 -1.3032
27621SOL    HW286395   7.803   8.957   3.014 -0.3975 -0.0264  0.6040
27622SOL     OW86396  10.106   8.419   5.081 -0.5941  0.1894 -0.4974
27622SOL    HW186397  10.073   8.329   5.088 -1.7333  0.7301  1.9584
27622SOL    HW286398  10.192   8.417   5.123 -0.7632  0.3093 -0.1434
27623SOL     OW86399   9.233   6.266   5.903  0.2423  0.1162  0.3176
27623SOL    HW186400   9.154   6.227   5.864 -0.2215  0.4399  0.9112
27623SOL    HW286401   9.231   6.237   5.994  0.2606  0.9463  0.5908
27624SOL     OW86402   1.450   7.881   4.712 -0.2665  0.3754  0.2373
27624SOL    HW186403   1.444   7.815   4.781 -1.2902 -0.2583 -0.4166
27624SOL    HW286404   1.463   7.963   4.759 -0.2615 -0.1233  1.1440
27625SOL     OW86405   6.018   8.249   1.142  0.2125  0.4061 -0.1825
27625SOL    HW186406   6.101   8.235   1.095  1.0377  1.0871  1.0132
27625SOL    HW286407   5.962   8.178   1.112  1.5170 -0.5872 -0.3964
27626SOL     OW86408   4.640   1.637   6.369  0.2515  0.0069 -0.4733
27626SOL    HW186409   4.652   1.576   6.297 -0.2140 -0.5722 -0.0683
27626SOL    HW286410   4.727   1.674   6.384  0.6643 -0.9886 -0.3357
27627SOL     OW86411   1.663   1.965   2.150 -0.3614 -0.3016 -0.4410
27627SOL    HW186412   1.711   2.031   2.099 -1.9960  2.4523  1.3119
27627SOL    HW286413   1.721   1.944   2.222  0.0568 -0.5687 -0.8504
27628SOL     OW86414   9.628   9.523   1.976 -0.5199  0.1017  0.2621
27628SOL    HW186415   9.536   9.534   1.997 -0.3181 -0.6792  1.6759
27628SOL    HW286416   9.675   9.550   2.055  0.3067 -2.2905  0.6719
27629SOL     OW86417   4.023   3.430   2.327  0.3951 -0.2917 -0.0792
27629SOL    HW186418   4.017   3.477   2.244 -0.6726 -1.2562 -0.5731
27629SOL    HW286419   4.071   3.489   2.384  1.3694  0.3029 -1.4442
27630SOL     OW86420   8.107  10.410   0.767  0.4994 -0.0238 -0.0049
27630SOL    HW186421   8.127  10.365   0.849  0.4771 -2.2299 -1.1422
27630SOL    HW286422   8.018  10.382   0.745  1.2521 -1.1684 -1.7973
27631SOL     OW86423   7.838   6.497   7.955 -0.1605 -0.2606  0.1801
27631SOL    HW186424   7.856   6.460   8.041  2.3580  1.2303  0.4054
27631SOL    HW286425   7.781   6.572   7.972 -1.9945 -1.5706  0.1516
27632SOL     OW86426   4.433   8.833   7.262 -0.1017  0.3995  0.0531
27632SOL    HW186427   4.418   8.751   7.215 -0.9064  0.5806 -0.0104
27632SOL    HW286428   4.528   8.844   7.260  0.0992 -0.9415  0.7490
27633SOL     OW86429   8.340   1.862   0.133  0.7532  0.0205 -0.1989
27633SOL    HW186430   8.359   1.812   0.212  0.5087  0.9600  0.4841
27633SOL    HW286431   8.266   1.817   0.093  0.8625 -0.4483  0.1211
27634SOL     OW86432  10.616   5.582   3.149 -0.4801 -0.2411  0.4455
27634SOL    HW186433  10.604   5.590   3.243 -1.8995  2.5566  0.1342
27634SOL    HW286434  10.528   5.595   3.113  0.3856  1.0771 -1.3233
27635SOL     OW86435   7.624   5.397   4.670  0.1298  0.1808 -0.5283
27635SOL    HW186436   7.553   5.347   4.710  1.3298 -0.3477  1.0376
27635SOL    HW286437   7.666   5.442   4.743  1.3961  0.4991 -1.4151
27636SOL     OW86438   7.350   2.834   5.945 -0.4449 -0.5882 -0.8968
27636SOL    HW186439   7.373   2.909   6.000 -2.2799  0.1466 -1.0647
27636SOL    HW286440   7.406   2.843   5.868 -0.2736  0.3193 -0.6829
27637SOL     OW86441   4.660  10.898   2.629  0.2189 -0.2532 -0.6701
27637SOL    HW186442   4.641  10.821   2.576 -0.8250  0.9084 -2.0519
27637SOL    HW286443   4.620  10.971   2.582  3.1778  1.5483 -0.6898
27638SOL     OW86444   2.981  10.231   5.104  0.1094  0.1572 -0.4443
27638SOL    HW186445   2.934  10.162   5.057 -0.0092  1.2634 -2.0221
27638SOL    HW286446   3.071  10.225   5.071  0.6229 -0.5931  1.0103
27639SOL     OW86447   1.651  10.692   3.236  0.2081  0.4056  0.9917
27639SOL    HW186448   1.556  10.692   3.247  0.0230  0.5460 -0.4026
27639SOL    HW286449   1.672  10.781   3.208  0.2647 -0.4416 -2.0204
27640SOL     OW86450   1.686   7.787   8.309  0.2156 -0.1976 -0.9034
27640SOL    HW186451   1.737   7.862   8.279  0.0967  0.7348  1.0497
27640SOL    HW286452   1.617   7.776   8.243  1.4359  0.0892 -2.2798
27641SOL     OW86453   4.446   6.468   2.235 -0.0064  0.2371  0.3276
27641SOL    HW186454   4.464   6.406   2.164  0.7293 -0.2120  0.8957
27641SOL    HW286455   4.441   6.553   2.192 -0.5129 -0.1438 -0.3908
27642SOL     OW86456   3.105   1.317   3.942  0.1262 -0.3701  0.2911
27642SOL    HW186457   3.050   1.363   3.880  0.5091 -0.8599 -0.4305
27642SOL    HW286458   3.080   1.351   4.028 -1.3012 -0.5946 -0.0142
27643SOL     OW86459  10.522   5.187   2.454 -0.0495  0.0932  0.3509
27643SOL    HW186460  10.499   5.267   2.407 -1.6387 -0.6427 -0.1819
27643SOL    HW286461  10.445   5.131   2.446  0.2114 -0.6732  2.5317
27644SOL     OW86462   9.168   4.033   5.964 -0.4188 -0.2583 -0.0499
27644SOL    HW186463   9.092   4.073   6.006 -0.2469 -0.2566  0.2623
27644SOL    HW286464   9.144   4.026   5.871 -0.8218 -0.3146  0.0595
27645SOL     OW86465   4.782   0.041   3.640  0.4648 -0.9971 -0.1745
27645SOL    HW186466   4.730   0.121   3.645  0.5621 -0.6564 -2.9644
27645SOL    HW286467   4.736  -0.014   3.577  1.7290 -2.0901 -0.1959
27646SOL     OW86468   8.962   9.531   6.146 -0.3516 -0.1108 -0.7657
27646SOL    HW186469   8.968   9.584   6.226  0.3584 -0.5233 -0.5442
27646SOL    HW286470   8.997   9.446   6.171  0.5316 -0.0346 -1.7076
27647SOL     OW86471   0.651   7.689   6.558  0.1560 -0.2280  0.0624
27647SOL    HW186472   0.588   7.748   6.516  0.0270 -0.8431 -0.6068
27647SOL    HW286473   0.660   7.615   6.499  1.7991  0.0101 -0.0471
27648SOL     OW86474  10.713   5.709   9.923  0.5862  0.4659  0.4278
27648SOL    HW186475  10.658   5.758   9.984 -1.1021  0.2922 -0.8802
27648SOL    HW286476  10.723   5.768   9.847  0.5040 -0.2958 -0.1843
27649SOL     OW86477   9.945   1.914   9.758  0.0008  0.0531 -0.0022
27649SOL    HW186478   9.877   1.852   9.786 -0.6228  1.3421  1.5356
27649SOL    HW286479   9.897   1.996   9.743  0.8769  0.3401 -1.4777
27650SOL     OW86480  10.501   3.202   3.384 -0.9617  0.2023  0.2536
27650SOL    HW186481  10.525   3.293   3.372  0.2581 -0.1015  0.3246
27650SOL    HW286482  10.409   3.205   3.411  0.1600  1.7414  4.8325
27651SOL     OW86483  10.056  11.116   4.329  0.4634 -0.2224  0.4416
27651SOL    HW186484   9.966  11.127   4.297  0.4246 -1.8471 -0.0752
27651SOL    HW286485  10.110  11.161   4.264  0.1421 -0.7412 -0.1988
27652SOL     OW86486   4.346   2.520   5.762 -0.2626  0.0459 -0.1262
27652SOL    HW186487   4.429   2.503   5.807 -0.7909 -1.6491  0.2621
27652SOL    HW286488   4.336   2.616   5.766  1.6749  0.2902 -0.2258
27653SOL     OW86489   6.851  10.952   2.812  0.2679 -0.0805  0.0042
27653SOL    HW186490   6.946  10.958   2.799  0.2085  1.4025  0.0589
27653SOL    HW286491   6.840  10.952   2.907  0.2506 -1.5354  0.0256
27654SOL     OW86492   4.549   8.500   7.271 -0.1479 -0.5711 -0.3432
27654SOL    HW186493   4.473   8.445   7.290  0.4678 -1.3572 -0.1294
27654SOL    HW286494   4.524   8.547   7.191 -0.9953 -0.5484 -0.0806
27655SOL     OW86495  10.697   8.040   0.084  0.4939  0.4948 -0.0829
27655SOL    HW186496  10.688   7.952   0.122 -0.0387 -0.0262 -1.3658
27655SOL    HW286497  10.791   8.050   0.069  0.7102  0.6723  1.2333
27656SOL     OW86498   9.383   3.464   6.064  0.2842  0.2405 -0.2913
27656SOL    HW186499   9.340   3.506   5.989  1.6749  1.4785 -0.4480
27656SOL    HW286500   9.335   3.498   6.140  1.2027  1.9740 -0.4366
27657SOL     OW86501   7.823   6.518   6.701 -0.6104 -0.6583  0.1806
27657SOL    HW186502   7.915   6.520   6.726 -0.8505 -0.2050  1.0655
27657SOL    HW286503   7.823   6.485   6.611  0.5027  0.3850 -0.2262
27658SOL     OW86504   4.174   7.682   9.735 -0.0344 -0.2562  0.0463
27658SOL    HW186505   4.143   7.680   9.644  0.4063  1.8154 -0.1918
27658SOL    HW286506   4.095   7.694   9.787 -0.3674 -2.0913  0.0352
27659SOL     OW86507   6.831   7.153   9.439  0.4201 -0.2204 -0.3120
27659SOL    HW186508   6.835   7.059   9.457 -3.3821 -0.6107 -0.7779
27659SOL    HW286509   6.869   7.161   9.351  1.5329 -1.1737  0.0575
27660SOL     OW86510   1.368   3.160   5.717  0.7674  0.3340 -0.2268
27660SOL    HW186511   1.279   3.138   5.691  0.4273 -0.6800  1.6479
27660SOL    HW286512   1.421   3.141   5.640 -0.4214 -0.6679 -0.8173
27661SOL     OW86513   6.886   1.722   5.133  0.0338 -0.1682  0.1456
27661SOL    HW186514   6.795   1.750   5.148 -0.4684 -1.1155 -0.9938
27661SOL    HW286515   6.932   1.804   5.113 -0.0894  0.6073  2.6810
27662SOL     OW86516   9.421   4.422   5.501  0.1385  0.0465  0.4112
27662SOL    HW186517   9.488   4.454   5.562  1.0025 -0.3652 -0.2963
27662SOL    HW286518   9.469   4.401   5.421 -0.8700 -0.0891 -0.1835
27663SOL     OW86519   2.404   8.761   8.240 -0.0748  0.0170 -0.0317
27663SOL    HW186520   2.460   8.687   8.218 -0.3338 -0.4864  0.9332
27663SOL    HW286521   2.436   8.789   8.326 -1.7980 -0.7867  0.9129
27664SOL     OW86522   2.094   7.829   1.251 -0.2414 -0.1939  0.4548
27664SOL    HW186523   2.115   7.908   1.301  0.4424 -0.8418  1.2221
27664SOL    HW286524   2.168   7.819   1.191  0.4473 -1.0706  1.4083
27665SOL     OW86525   0.889   7.960   4.950 -0.0223 -0.2251  0.0142
27665SOL    HW186526   0.916   7.870   4.970 -3.1255 -1.4899 -0.9850
27665SOL    HW286527   0.971   8.010   4.951  1.6451 -2.7445  2.0018
27666SOL     OW86528   5.424   3.570   1.120 -0.5845  0.2154  0.3503
27666SOL    HW186529   5.389   3.524   1.196 -1.0750 -0.5701 -0.3365
27666SOL    HW286530   5.470   3.646   1.157  0.7613 -1.1280  1.5446
27667SOL     OW86531   2.724   3.526   0.191 -0.0855  0.2130 -0.5531
27667SOL    HW186532   2.631   3.506   0.188 -0.0356  0.0442 -2.0371
27667SOL    HW286533   2.744   3.535   0.284 -1.4593 -0.2826 -0.1830
27668SOL     OW86534   5.669   7.009   9.907  0.0260  0.6364 -0.5470
27668SOL    HW186535   5.670   6.968   9.820  0.9510  0.2244 -0.3516
27668SOL    HW286536   5.760   7.034   9.923 -0.4698  2.6681 -0.5989
27669SOL     OW86537   3.057   2.510   7.436 -0.7709  0.1005  0.0920
27669SOL    HW186538   3.085   2.448   7.368  1.6188  0.4189  0.6911
27669SOL    HW286539   3.023   2.455   7.506  1.4454 -0.6260  0.6716
27670SOL     OW86540   5.934   7.435   2.226  0.1026 -0.0073 -0.1671
27670SOL    HW186541   6.025   7.416   2.249 -0.0061 -0.6770 -0.2604
27670SOL    HW286542   5.883   7.376   2.281 -0.2587  0.0783 -0.4118
27671SOL     OW86543   3.385   3.583   7.813 -0.3361 -0.2844  0.1995
27671SOL    HW186544   3.323   3.651   7.788  0.1245  0.0470 -0.0563
27671SOL    HW286545   3.387   3.523   7.738  0.8593  0.5772 -0.4968
27672SOL     OW86546   8.559   6.481   2.627 -0.0260 -0.3659 -0.3302
27672SOL    HW186547   8.605   6.405   2.592  0.5473  0.0949 -0.5928
27672SOL    HW286548   8.602   6.556   2.586 -1.9415  0.0395 -1.7053
27673SOL     OW86549   9.559   5.715   2.850  0.2114 -0.0989  0.8261
27673SOL    HW186550   9.493   5.738   2.915 -0.8716 -0.7119 -0.0376
27673SOL    HW286551   9.537   5.627   2.822  0.9012 -0.0026 -0.0872
27674SOL     OW86552   3.782   1.525   7.370  0.1906 -0.6535 -0.3073
27674SOL    HW186553   3.867   1.563   7.346  0.9498 -1.5052  0.9075
27674SOL    HW286554   3.793   1.499   7.461 -1.1323 -1.4811 -0.3648
27675SOL     OW86555   2.216   9.235   6.742  0.4533  1.1591  0.6363
27675SOL    HW186556   2.291   9.175   6.752  0.6646  1.3420  0.1779
27675SOL    HW286557   2.152   9.204   6.806  0.5998  0.5012  0.4725
27676SOL     OW86558   6.802   9.133   3.920  0.8122  0.2088  0.1493
27676SOL    HW186559   6.823   9.040   3.911  2.4507  0.4889  0.6782
27676SOL    HW286560   6.769   9.159   3.834  0.2880 -0.8669  0.0129
27677SOL     OW86561   0.035   8.887   8.532  0.7183 -0.0741 -0.6175
27677SOL    HW186562  -0.048   8.931   8.551  0.0193 -0.9387 -1.5241
27677SOL    HW286563   0.088   8.955   8.488  0.8402  0.7333  0.7240
27678SOL     OW86564   5.923   6.252   4.645 -0.2072  0.0932  0.2637
27678SOL    HW186565   6.000   6.214   4.603 -1.0621 -1.0374 -0.3222
27678SOL    HW286566   5.943   6.249   4.739  0.0068 -1.2315  0.1892
27679SOL     OW86567   5.852   7.618   3.500 -0.2417  0.2236 -0.2188
27679SOL    HW186568   5.909   7.694   3.486 -0.9426  0.9929  0.8819
27679SOL    HW286569   5.911   7.544   3.506  0.4934  0.7328 -0.9333
27680SOL     OW86570   7.541   4.394  10.778  0.2475  0.0590 -0.4320
27680SOL    HW186571   7.588   4.455  10.721  0.8308 -1.3696 -1.5798
27680SOL    HW286572   7.605   4.370  10.845  0.3130  0.0465 -0.4986
27681SOL     OW86573   0.203   5.562   9.431  0.8751 -0.4906  0.2374
27681SOL    HW186574   0.109   5.543   9.421  0.3177  1.6425  1.0282
27681SOL    HW286575   0.233   5.497   9.495 -0.0731 -1.1036  0.0925
27682SOL     OW86576   3.235   7.372   5.524 -0.1084  0.6348  0.1655
27682SOL    HW186577   3.146   7.403   5.544 -0.4606 -0.5504  0.5388
27682SOL    HW286578   3.223   7.306   5.456  0.4569  0.2969  0.3837
27683SOL     OW86579   1.058   6.310   7.321  0.3964  0.4363  0.5715
27683SOL    HW186580   0.986   6.294   7.261 -1.3280  5.0993  0.9951
27683SOL    HW286581   1.131   6.337   7.265  0.3627  0.1011  0.3640
27684SOL     OW86582   1.317   3.281   0.905 -0.3227  0.2508  0.1928
27684SOL    HW186583   1.234   3.325   0.925 -0.9503 -1.6614  2.0858
27684SOL    HW286584   1.304   3.247   0.816 -2.1944 -1.2586  0.9695
27685SOL     OW86585   9.708   1.261   9.969  0.0283 -0.1583  0.3912
27685SOL    HW186586   9.636   1.324   9.964  0.1881 -0.0337 -0.9632
27685SOL    HW286587   9.693   1.202   9.895  1.0076 -0.4685  0.4229
27686SOL     OW86588   1.938   0.377  10.450 -0.4534  0.2724  0.0069
27686SOL    HW186589   1.974   0.289  10.450 -0.2181  0.3641 -0.4060
27686SOL    HW286590   1.865   0.373  10.512  1.5791  0.6559  2.5801
27687SOL     OW86591   2.557   4.455   7.542 -0.5838 -0.3234  0.9196
27687SOL    HW186592   2.480   4.462   7.486 -1.0509  1.5655  1.7327
27687SOL    HW286593   2.532   4.394   7.611 -0.5023 -1.5407 -0.1028
27688SOL     OW86594   3.151   9.617   2.423 -0.1665  0.5138  0.5273
27688SOL    HW186595   3.186   9.705   2.439 -0.4843  0.8887 -0.7447
27688SOL    HW286596   3.180   9.596   2.334 -0.7108 -0.3744  0.5514
27689SOL     OW86597   1.868  10.937   2.903 -0.0665  0.2531 -0.0743
27689SOL    HW186598   1.907  11.024   2.911 -0.3999  0.3049  1.2798
27689SOL    HW286599   1.801  10.935   2.971  0.7185 -1.4675  0.7146
27690SOL     OW86600  10.149   9.411   5.206  0.1416 -0.2750  1.0194
27690SOL    HW186601  10.171   9.497   5.170 -0.4684 -1.1043 -1.5476
27690SOL    HW286602  10.227   9.386   5.255  0.6799  1.3508  1.0706
27691SOL     OW86603   8.741   5.685  10.102 -0.4098 -0.6778 -0.0591
27691SOL    HW186604   8.665   5.628  10.102 -0.0038 -1.2511 -0.9710
27691SOL    HW286605   8.721   5.752  10.037 -1.2589  0.7829  1.6282
27692SOL     OW86606  10.419   8.797   5.452 -0.4271 -0.1845  0.1345
27692SOL    HW186607  10.429   8.822   5.544 -0.0620 -0.0871  0.0694
27692SOL    HW286608  10.325   8.782   5.441 -0.6041  0.7656  0.2846
27693SOL     OW86609   2.273   8.705   1.269 -0.2689 -0.1000 -0.5477
27693SOL    HW186610   2.335   8.742   1.205  0.2830 -1.3871 -0.7876
27693SOL    HW286611   2.324   8.638   1.315 -1.5384 -1.3112 -0.8719
27694SOL     OW86612   9.894   2.466   0.674 -0.1328 -0.6050  0.7663
27694SOL    HW186613   9.948   2.411   0.618  0.3739  0.0496  0.6174
27694SOL    HW286614   9.870   2.408   0.747  0.7291 -0.9163  0.8155
27695SOL     OW86615   5.819   0.448   9.698 -0.1452 -0.0666 -0.0160
27695SOL    HW186616   5.834   0.431   9.791  0.6941 -0.1992 -0.1737
27695SOL    HW286617   5.802   0.362   9.660 -0.4989 -0.0111  0.0131
27696SOL     OW86618   8.300   6.878   4.063  0.4283  0.1357  0.3357
27696SOL    HW186619   8.300   6.968   4.097  0.2304  0.0208  0.6356
27696SOL    HW286620   8.323   6.824   4.138 -0.9706 -0.2121  0.5416
27697SOL     OW86621   3.827   1.317   8.627 -0.0718 -0.3395 -0.3627
27697SOL    HW186622   3.923   1.321   8.635 -0.1825 -0.8932  2.0618
27697SOL    HW286623   3.806   1.224   8.641 -1.0033 -0.0973 -0.0908
27698SOL     OW86624   2.270   4.526   6.203  0.4963 -0.1271  0.4657
27698SOL    HW186625   2.312   4.521   6.289  1.8000  0.2322 -0.1248
27698SOL    HW286626   2.276   4.437   6.169  0.3650 -0.1761  0.5701
27699SOL     OW86627   0.273   9.369   5.511  0.3487 -0.2162 -0.2481
27699SOL    HW186628   0.287   9.429   5.438  0.8936  0.4863  0.4147
27699SOL    HW286629   0.349   9.382   5.568  1.2975 -2.6921 -0.8470
27700SOL     OW86630   8.553   6.050   9.036  0.0723  0.2438 -0.2413
27700SOL    HW186631   8.587   6.079   8.951  1.2120  1.1462  0.4944
27700SOL    HW286632   8.591   5.962   9.048 -1.0640 -0.4079 -1.1757
27701SOL     OW86633  10.910   7.953   4.721 -0.2169  0.8067  0.3619
27701SOL    HW186634  10.833   8.008   4.739 -0.4546  0.5341  0.1946
27701SOL    HW286635  10.973   8.013   4.680 -0.6186  0.8697 -0.1688
27702SOL     OW86636   7.235   3.053   8.674 -0.0859 -0.2663 -0.1147
27702SOL    HW186637   7.269   3.018   8.592  0.8495 -1.3250  0.6982
27702SOL    HW286638   7.309   3.097   8.714 -0.6160  0.5042  0.0427
27703SOL     OW86639   9.016   8.762   0.106  0.0691 -0.2840 -0.2039
27703SOL    HW186640   8.952   8.801   0.046  1.5985  2.5992 -0.1429
27703SOL    HW286641   9.019   8.822   0.181  1.8053 -1.0974  0.4383
27704SOL     OW86642   9.722   3.676   7.875 -0.2933 -0.2959  0.0709
27704SOL    HW186643   9.632   3.689   7.906 -0.9810  1.5046 -2.3825
27704SOL    HW286644   9.768   3.641   7.951 -3.2575 -2.3182  1.1373
27705SOL     OW86645   2.916   7.454   7.242 -0.0753  0.3354  0.4184
27705SOL    HW186646   2.890   7.503   7.321 -0.6184 -0.9418  1.0539
27705SOL    HW286647   2.837   7.407   7.216  0.4903 -0.3597 -0.0680
27706SOL     OW86648   0.977   5.426   4.503  0.1193  0.4243 -0.0678
27706SOL    HW186649   1.028   5.464   4.431  2.3562  0.1707  1.2893
27706SOL    HW286650   0.909   5.490   4.521  0.8041  1.4548 -1.0522
27707SOL     OW86651  10.643   0.722   9.062 -0.1992  0.1942 -0.2113
27707SOL    HW186652  10.595   0.750   9.140  0.2565 -0.6164  0.3924
27707SOL    HW286653  10.670   0.632   9.083  1.8067  0.7102 -0.4008
27708SOL     OW86654   9.960   2.804   2.461  0.1558 -0.1389  0.5743
27708SOL    HW186655  10.013   2.728   2.436  0.9082  0.7292 -0.5975
27708SOL    HW286656   9.908   2.824   2.383 -0.0026  0.5686  0.8481
27709SOL     OW86657   2.187   0.919   8.682  0.1306 -0.0371  0.1232
27709SOL    HW186658   2.113   0.975   8.707 -0.5990 -0.9152  0.0077
27709SOL    HW286659   2.176   0.908   8.587 -0.9006 -1.9354  0.4106
27710SOL     OW86660   8.188   1.737   9.943 -0.0088 -0.3191 -0.7810
27710SOL    HW186661   8.133   1.669   9.905 -1.6329 -0.0893  1.0104
27710SOL    HW286662   8.128   1.806   9.968  1.1018  0.1051  0.9409
27711SOL     OW86663   7.489   9.800   7.694 -0.4753 -0.2784 -0.6894
27711SOL    HW186664   7.509   9.767   7.607 -1.7874 -0.9314 -0.7702
27711SOL    HW286665   7.427   9.736   7.730 -0.6412  0.4582  0.3723
27712SOL     OW86666   8.750   9.714   2.194  0.6399  0.3352 -0.0107
27712SOL    HW186667   8.693   9.756   2.128  0.3937  0.3060  0.1836
27712SOL    HW286668   8.783   9.636   2.150  1.5004  0.9846 -0.5555
27713SOL     OW86669   7.921   4.621   3.304 -0.1790 -0.5754  0.2868
27713SOL    HW186670   7.992   4.570   3.343  0.5045 -2.8720 -3.5099
27713SOL    HW286671   7.964   4.681   3.243 -1.3903 -0.9837 -1.0141
27714SOL     OW86672   8.406   1.638  10.797 -0.1612 -0.7706  0.3061
27714SOL    HW186673   8.354   1.705  10.841  2.0573  1.9258 -0.9021
27714SOL    HW286674   8.409   1.666  10.706  0.6300 -2.6828 -0.3024
27715SOL     OW86675   8.241   0.725   1.976  0.3598 -0.6462 -0.2640
27715SOL    HW186676   8.286   0.663   1.918 -0.7620 -0.8399 -0.9535
27715SOL    HW286677   8.309   0.787   2.002  1.2591 -1.5254 -0.4380
27716SOL     OW86678   1.352   9.844   0.011  0.7633 -0.3379 -0.0570
27716SOL    HW186679   1.312   9.771   0.057 -0.5351  0.0690 -0.4867
27716SOL    HW286680   1.387   9.900   0.079  1.2117 -1.0360  0.3004
27717SOL     OW86681   8.860   0.778   0.285  0.1432 -0.7048 -0.1745
27717SOL    HW186682   8.821   0.866   0.285 -3.4660 -2.0373 -3.4085
27717SOL    HW286683   8.842   0.744   0.372  1.3329  1.5047  1.0499
27718SOL     OW86684   1.238   3.910   4.184 -0.4095 -0.2223 -0.3103
27718SOL    HW186685   1.294   3.986   4.172 -0.4403 -0.6154 -3.9731
27718SOL    HW286686   1.292   3.836   4.157 -1.3536 -1.1600  0.2644
27719SOL     OW86687   1.260   2.096   0.290  0.3730 -0.4805 -0.1137
27719SOL    HW186688   1.192   2.162   0.295 -0.5044 -1.4291  0.7648
27719SOL    HW286689   1.340   2.141   0.320 -0.2883  0.0662  0.8623
27720SOL     OW86690   2.290   7.632   5.443  0.0181 -0.3962  0.0695
27720SOL    HW186691   2.240   7.551   5.444  2.3275 -1.9187  0.6013
27720SOL    HW286692   2.319   7.644   5.533 -1.1448  1.6516  0.2289
27721SOL     OW86693   8.232  10.737   3.916  0.4165  0.7061 -0.2208
27721SOL    HW186694   8.186  10.820   3.907 -0.0426  0.4316 -0.4176
27721SOL    HW286695   8.170  10.671   3.884 -0.7467 -0.1854  3.4044
27722SOL     OW86696   4.318   3.114   1.779 -0.4487 -0.0782  0.0823
27722SOL    HW186697   4.401   3.136   1.736 -0.2387 -1.1633 -0.1024
27722SOL    HW286698   4.251   3.133   1.714 -0.2762  0.0789 -0.0482
27723SOL     OW86699   9.403   0.936   1.552 -0.6197 -0.0025  0.0052
27723SOL    HW186700   9.440   0.934   1.640 -0.4798 -0.9676 -0.0663
27723SOL    HW286701   9.316   0.974   1.564 -1.9730 -3.0934  1.1478
27724SOL     OW86702   6.920   2.612   1.295 -0.6607  0.3241  0.6928
27724SOL    HW186703   6.905   2.685   1.235  1.5187  1.5361  1.5267
27724SOL    HW286704   6.906   2.534   1.241  0.7841  1.3638 -1.2937
27725SOL     OW86705   0.785   7.120   1.182 -0.1817  0.0324  0.0670
27725SOL    HW186706   0.713   7.150   1.237 -0.8971 -0.1309 -0.7534
27725SOL    HW286707   0.796   7.028   1.203 -1.1046 -0.2742 -0.7440
27726SOL     OW86708  10.708   6.514   4.968 -0.1161 -0.0559 -0.2360
27726SOL    HW186709  10.673   6.426   4.956  0.4075 -0.2347 -0.4750
27726SOL    HW286710  10.679   6.540   5.056 -0.1168 -0.5332 -0.0961
27727SOL     OW86711   2.689  10.057   6.011  0.5026  0.1810  0.6315
27727SOL    HW186712   2.642   9.990   5.961  1.1629  0.2939 -0.1626
27727SOL    HW286713   2.673  10.035   6.103  1.7432 -1.8341  0.4175
27728SOL     OW86714   6.243   5.026  10.148 -0.0046  0.8825  0.0279
27728SOL    HW186715   6.314   5.012  10.210  0.2226  0.6933 -0.2710
27728SOL    HW286716   6.235   4.943  10.101 -2.4164 -0.1579  2.0528
27729SOL     OW86717   5.482   2.318  10.191 -0.4653  0.8316 -0.7873
27729SOL    HW186718   5.548   2.300  10.257  0.4931 -0.1725 -1.9763
27729SOL    HW286719   5.425   2.384  10.232  1.1709  1.6421  0.3171
27730SOL     OW86720   2.180  10.687   8.903  0.1528 -0.3023  1.4695
27730SOL    HW186721   2.228  10.764   8.872 -1.5314  0.0846 -0.4262
27730SOL    HW286722   2.091  10.720   8.919 -0.3934 -1.6855  1.3945
27731SOL     OW86723   6.945   7.236   6.384 -0.0152  0.2874 -0.7904
27731SOL    HW186724   6.942   7.304   6.317  0.8592  0.0362 -1.0981
27731SOL    HW286725   7.027   7.251   6.430  0.2820 -0.6763 -0.9853
27732SOL     OW86726   1.765   7.205   7.078 -0.0290 -0.8837 -0.2197
27732SOL    HW186727   1.685   7.234   7.034  0.1915  1.2927  0.6917
27732SOL    HW286728   1.737   7.187   7.168  0.2901 -1.3277 -0.2054
27733SOL     OW86729   3.984   0.552   2.473  0.2589 -0.1490 -0.6739
27733SOL    HW186730   3.899   0.588   2.498 -0.1263 -1.7164  0.3793
27733SOL    HW286731   3.965   0.491   2.401  0.2510 -1.5403  0.4598
27734SOL     OW86732   4.522   9.034   4.131  0.4094  0.3208  0.6870
27734SOL    HW186733   4.538   9.025   4.037 -0.1203  1.9083  0.4089
27734SOL    HW286734   4.428   9.019   4.141  0.5064 -0.0906  1.0064
27735SOL     OW86735  10.271   6.534   3.064 -0.3270 -0.3066 -0.1640
27735SOL    HW186736  10.258   6.521   3.158  1.8677 -1.6200  0.0287
27735SOL    HW286737  10.257   6.448   3.026  0.1369 -0.0826 -0.8612
27736SOL     OW86738  10.042  11.053   3.226 -0.4004  0.5619 -0.0070
27736SOL    HW186739  10.123  11.044   3.177 -1.0033 -1.0007 -0.8166
27736SOL    HW286740  10.058  11.123   3.289  1.7196 -0.0092  0.1462
27737SOL     OW86741   2.366   5.132   8.512 -0.2680  0.0889 -0.4235
27737SOL    HW186742   2.300   5.191   8.547 -1.2072 -0.5925 -1.0322
27737SOL    HW286743   2.431   5.125   8.582  0.9328  3.3994 -1.0614
27738SOL     OW86744   6.782   7.787  10.271  0.0138 -0.0389  0.0708
27738SOL    HW186745   6.845   7.762  10.339  1.1568 -1.5108 -1.4527
27738SOL    HW286746   6.714   7.834  10.319  2.2588  1.6936  1.7885
27739SOL     OW86747   3.715   7.248  10.099  0.3499 -0.0807  0.0380
27739SOL    HW186748   3.635   7.196  10.089  1.0903 -0.9552 -1.8757
27739SOL    HW286749   3.782   7.196  10.054  1.6659  1.3766  0.2549
27740SOL     OW86750   4.368   6.325  10.631 -0.4152  0.3403 -0.5089
27740SOL    HW186751   4.440   6.369  10.585  0.1261 -1.5266 -1.5276
27740SOL    HW286752   4.318   6.282  10.562 -2.9856  2.1323  0.0814
27741SOL     OW86753   4.241   9.871   8.557 -0.0217  0.6735  0.0595
27741SOL    HW186754   4.183   9.875   8.633 -1.2003  0.9742 -0.8136
27741SOL    HW286755   4.228   9.783   8.522  0.6105  0.4932  0.2689
27742SOL     OW86756  10.105   0.361   6.181  0.4317  0.0268 -0.8217
27742SOL    HW186757  10.182   0.416   6.165  0.2678  0.2429 -0.8603
27742SOL    HW286758  10.045   0.416   6.230  1.1492 -0.8026  1.1040
27743SOL     OW86759   6.230   3.633   1.688 -0.3590  0.5155 -0.3255
27743SOL    HW186760   6.163   3.610   1.624 -1.9083  1.3321  0.9303
27743SOL    HW286761   6.251   3.549   1.731 -0.7246  0.2907 -0.5808
27744SOL     OW86762   9.394  10.871   4.141 -0.2742 -0.5342  0.4688
27744SOL    HW186763   9.315  10.875   4.087 -0.2221 -1.2729  0.3235
27744SOL    HW286764   9.364  10.885   4.230 -0.4583 -0.0030  0.3252
27745SOL     OW86765   4.831   0.683   0.275  0.0339  0.0731 -0.5241
27745SOL    HW186766   4.768   0.740   0.320  1.6619  0.4163  1.4445
27745SOL    HW286767   4.799   0.680   0.185 -0.2433  4.0003 -0.7399
27746SOL     OW86768   0.488   3.733   5.074 -0.1195  0.3634 -0.6965
27746SOL    HW186769   0.570   3.739   5.123  0.8706 -1.6780 -1.9317
27746SOL    HW286770   0.512   3.757   4.985 -0.8857 -0.1490 -1.0501
27747SOL     OW86771   0.922   7.496   0.007 -0.3145  0.8950  0.0429
27747SOL    HW186772   0.838   7.450   0.003 -1.0292  2.1432  0.3492
27747SOL    HW286773   0.985   7.432  -0.026 -1.4981  0.2156 -0.9945
27748SOL     OW86774   7.434  10.792   7.528 -0.2194 -0.1603  0.1061
27748SOL    HW186775   7.439  10.791   7.432  3.9573 -0.0986  0.1401
27748SOL    HW286776   7.372  10.862   7.548 -2.6812 -1.3984 -2.4524
27749SOL     OW86777   9.099   5.791   2.358 -1.0000  0.9555 -0.2823
27749SOL    HW186778   9.138   5.815   2.273 -0.7988  0.0581 -0.4460
27749SOL    HW286779   9.103   5.872   2.409  3.0231  0.5176  0.4688
27750SOL     OW86780   3.469   1.265   9.821  0.1968 -0.0199  0.0473
27750SOL    HW186781   3.559   1.254   9.791  0.5537  1.6853  0.3784
27750SOL    HW286782   3.447   1.183   9.864  1.6516 -0.4020  0.0993
27751SOL     OW86783   1.997   1.518   9.666 -0.0597  0.0279 -0.2060
27751SOL    HW186784   1.916   1.507   9.716 -0.2622 -1.5119 -0.8072
27751SOL    HW286785   1.968   1.554   9.582  0.3841  3.6696  0.9979
27752SOL     OW86786   4.241   1.808   6.582 -0.0976  0.2296  0.5036
27752SOL    HW186787   4.173   1.812   6.514  0.3795  0.2515  0.0252
27752SOL    HW286788   4.311   1.756   6.544  0.5095  0.8960  0.6763
27753SOL     OW86789   9.187   8.380   0.219  0.2228  0.0915  0.5895
27753SOL    HW186790   9.186   8.445   0.290  0.8805  1.0752 -0.2763
27753SOL    HW286791   9.258   8.408   0.161 -1.1462  0.1295 -1.1812
27754SOL     OW86792   6.964   2.842  10.328  0.1134 -0.1171 -0.4886
27754SOL    HW186793   6.975   2.754  10.364  1.9898  1.2213  2.7150
27754SOL    HW286794   7.014   2.898  10.388 -1.7265  3.2564 -1.8549
27755SOL     OW86795   4.327  10.003   5.515  0.9381 -0.2215 -0.0776
27755SOL    HW186796   4.313  10.097   5.504 -0.8324 -0.4097  0.2092
27755SOL    HW286797   4.251   9.974   5.566  0.3464 -2.1505 -1.9233
27756SOL     OW86798   2.230   1.054   9.748 -0.1244 -0.3814 -0.3418
27756SOL    HW186799   2.207   1.122   9.685  0.0462  0.2374  0.2470
27756SOL    HW286800   2.148   1.007   9.763 -0.1009 -0.7199 -1.2347
27757SOL     OW86801   0.587   2.722  11.005 -0.0297 -0.3474 -0.0890
27757SOL    HW186802   0.520   2.789  11.008 -1.1044 -1.4077  0.6499
27757SOL    HW286803   0.669   2.769  11.020 -0.7348  0.8002  0.3045
27758SOL     OW86804  10.301   2.767   9.237  0.1638  0.4499 -0.1658
27758SOL    HW186805  10.306   2.734   9.147 -2.6889 -0.6384 -0.0272
27758SOL    HW286806  10.213   2.744   9.266  0.4314  2.2262  2.3780
27759SOL     OW86807   7.015   9.874  10.333 -0.3827 -0.0713 -0.0494
27759SOL    HW186808   6.986   9.921  10.411 -3.4263 -2.6240  0.5588
27759SOL    HW286809   6.950   9.895  10.266  0.4250 -0.3714 -0.9573
27760SOL     OW86810   4.073   5.731   5.353 -0.3599  0.4960  0.4295
27760SOL    HW186811   3.996   5.737   5.296 -0.5678 -3.4358 -0.0389
27760SOL    HW286812   4.037   5.734   5.441 -1.4388 -2.5261  0.2390
27761SOL     OW86813   3.185   4.744   8.529  0.0200  0.3352 -0.1346
27761SOL    HW186814   3.250   4.727   8.597  0.6721  0.4033 -0.7201
27761SOL    HW286815   3.204   4.833   8.500 -0.7830  0.6007  0.1627
27762SOL     OW86816   0.284   6.860   5.393  0.1915 -0.2191  0.2417
27762SOL    HW186817   0.362   6.815   5.363  0.3294  0.9710 -1.2887
27762SOL    HW286818   0.227   6.864   5.316 -0.7445  0.2535  0.9329
27763SOL     OW86819   5.839   0.026   3.051  0.4506  0.0163  0.3842
27763SOL    HW186820   5.831  -0.005   2.961  2.3657  2.8270 -0.9268
27763SOL    HW286821   5.799   0.113   3.051 -2.1118 -0.9741  3.1015
27764SOL     OW86822   6.621   2.074   5.457  0.2272  0.6916  0.5529
27764SOL    HW186823   6.557   2.003   5.456 -0.1574  1.0210 -0.5827
27764SOL    HW286824   6.573   2.148   5.493 -0.1137  0.9866 -0.4647
27765SOL     OW86825   8.512   8.014   4.893  0.0595 -0.5251 -0.4715
27765SOL    HW186826   8.528   8.093   4.944  0.1592 -0.1630 -1.0495
27765SOL    HW286827   8.529   7.942   4.953  1.4246 -0.1265 -0.3630
27766SOL     OW86828   6.190  10.214   0.925 -0.1902 -0.0989  0.5449
27766SOL    HW186829   6.139  10.259   0.992  0.2349 -1.2526  1.6627
27766SOL    HW286830   6.194  10.277   0.852 -3.7584 -0.1837  0.0933
27767SOL     OW86831   6.198  11.111   8.993  0.3552  0.0197 -0.3065
27767SOL    HW186832   6.153  11.027   9.009 -0.5399  0.2853 -1.2659
27767SOL    HW286833   6.134  11.177   9.020  0.2332  0.4055 -1.4966
27768SOL     OW86834   7.442   6.218   7.869 -0.2034 -0.3911 -0.1533
27768SOL    HW186835   7.354   6.203   7.904 -0.7670  0.4225 -1.1385
27768SOL    HW286836   7.478   6.288   7.924 -0.9106  0.5703 -0.8659
27769SOL     OW86837   5.251   2.702   4.885 -0.5597 -0.0672 -0.3828
27769SOL    HW186838   5.190   2.716   4.813  0.4588  1.2370 -1.0363
27769SOL    HW286839   5.313   2.637   4.852 -0.1031  0.5178 -0.6850
27770SOL     OW86840   1.777   9.154   2.549  0.2940  0.3377  0.7672
27770SOL    HW186841   1.847   9.218   2.562  0.9440 -0.3285  0.5769
27770SOL    HW286842   1.704   9.205   2.513  1.5399  0.6205 -1.5261
27771SOL     OW86843   9.705   3.005   8.384 -0.4893 -0.0903 -0.1270
27771SOL    HW186844   9.618   2.970   8.404 -0.3951  0.7730  2.0178
27771SOL    HW286845   9.689   3.095   8.357 -0.4035 -0.5929 -2.0456
27772SOL     OW86846   1.790  10.626   8.529  0.3240 -0.0028  0.0212
27772SOL    HW186847   1.710  10.638   8.480  1.3217  0.2585 -1.6204
27772SOL    HW286848   1.809  10.532   8.522 -0.4542 -0.2962  1.4660
27773SOL     OW86849   7.760   2.459   5.451 -0.2043 -1.2140  0.0831
27773SOL    HW186850   7.699   2.407   5.503 -0.7312  0.7574  1.5895
27773SOL    HW286851   7.842   2.457   5.501  0.2640 -1.9123 -0.6996
27774SOL     OW86852   2.949   7.348   4.798 -0.3065  0.1180 -0.2204
27774SOL    HW186853   2.955   7.259   4.832 -0.7254  1.1620  2.8200
27774SOL    HW286854   3.036   7.386   4.812  0.2854 -0.1300 -2.7372
27775SOL     OW86855   0.684  10.389   8.692 -0.3183 -0.1815 -0.0901
27775SOL    HW186856   0.704  10.361   8.781  0.0245 -2.6158 -0.8368
27775SOL    HW286857   0.612  10.451   8.701  0.8155  0.9220  1.9619
27776SOL     OW86858  10.397   2.833   4.058 -0.0218  0.1235 -0.5217
27776SOL    HW186859  10.416   2.925   4.073 -0.2901  0.6741 -3.0537
27776SOL    HW286860  10.483   2.791   4.059  0.0980  0.3669  0.6934
27777SOL     OW86861   2.679   4.181   9.452 -0.5575 -0.4427  0.0007
27777SOL    HW186862   2.616   4.177   9.381 -0.8825 -0.7760  0.3049
27777SOL    HW286863   2.691   4.090   9.479 -0.4734 -0.3130  0.4077
27778SOL     OW86864   2.873   4.832   6.667  0.3101 -0.2328  0.7483
27778SOL    HW186865   2.828   4.749   6.649 -0.2677 -0.0473  1.3056
27778SOL    HW286866   2.880   4.834   6.762  0.1468  0.4549  0.7460
27779SOL     OW86867   0.092   3.593   1.091 -0.3544  0.0311 -0.2475
27779SOL    HW186868   0.161   3.640   1.045 -0.3799 -0.1652 -0.4871
27779SOL    HW286869   0.083   3.510   1.044 -0.4293 -0.1424  0.0669
27780SOL     OW86870   1.369   1.719   0.082  0.3985  0.4812  0.1242
27780SOL    HW186871   1.326   1.636   0.061  0.6183  0.1218  1.0464
27780SOL    HW286872   1.408   1.748  -0.000 -0.2087 -0.0164 -0.3444
27781SOL     OW86873   1.788   5.167   1.663 -0.3457 -0.2502 -0.3526
27781SOL    HW186874   1.812   5.191   1.574 -3.0219  0.8339 -0.8695
27781SOL    HW286875   1.866   5.125   1.699  1.1848  0.3569 -2.7898
27782SOL     OW86876   1.023  10.207   2.999  0.0534 -0.0612  0.6428
27782SOL    HW186877   1.030  10.248   2.912 -1.8721 -0.9117  0.0432
27782SOL    HW286878   0.935  10.170   3.001  0.1843 -0.3650  2.8536
27783SOL     OW86879   5.856   1.006   7.999  0.0580 -0.2380  0.2003
27783SOL    HW186880   5.907   0.981   8.076 -0.9666 -3.0574  0.0723
27783SOL    HW286881   5.820   0.924   7.966 -3.2181  1.3810 -0.6897
27784SOL     OW86882   8.934   4.169   7.602 -0.8307 -0.1856  0.3119
27784SOL    HW186883   8.963   4.247   7.649  3.1473 -1.0908 -0.3088
27784SOL    HW286884   8.933   4.100   7.668 -0.8103 -0.3341  0.1568
27785SOL     OW86885   6.731  11.064  10.185 -0.4027  0.0505  0.3815
27785SOL    HW186886   6.655  11.037  10.134  1.0005  1.1233 -2.5047
27785SOL    HW286887   6.796  10.995  10.170 -0.0655  0.1960  1.0894
27786SOL     OW86888   0.985   6.119   6.497 -0.7948 -0.3020 -0.1488
27786SOL    HW186889   1.075   6.101   6.524 -0.6683 -1.4044 -1.2068
27786SOL    HW286890   0.931   6.061   6.551 -0.5804 -2.1182 -1.7542
27787SOL     OW86891   2.067   2.015   2.752 -0.3653  0.3218  0.2115
27787SOL    HW186892   2.000   1.971   2.804  0.9990 -0.3020  1.5164
27787SOL    HW286893   2.149   1.976   2.781  0.5619  0.8704 -1.5315
27788SOL     OW86894   5.564   8.511   8.318 -0.0789  0.3707  0.6824
27788SOL    HW186895   5.573   8.596   8.275  1.4152 -0.2428 -0.3090
27788SOL    HW286896   5.635   8.509   8.382 -0.1928 -0.0640  0.7968
27789SOL     OW86897  10.093   8.836   1.626 -0.1215 -0.5575  0.0635
27789SOL    HW186898  10.070   8.791   1.707 -1.5305  1.8617  1.0765
27789SOL    HW286899  10.043   8.917   1.627  0.9866  0.2766 -2.5173
27790SOL     OW86900   9.635   0.139   6.878 -0.0023  0.2017 -0.5956
27790SOL    HW186901   9.566   0.130   6.813 -1.1510 -0.1886  0.6426
27790SOL    HW286902   9.625   0.227   6.913 -1.1111 -0.4704  0.8952
27791SOL     OW86903   4.885   4.161   6.895 -0.4502  0.1797  0.2799
27791SOL    HW186904   4.851   4.099   6.959 -0.6289  0.5209  0.5154
27791SOL    HW286905   4.808   4.203   6.857 -0.4628 -1.3201 -1.4948
27792SOL     OW86906   0.331   2.672   6.462 -0.0678 -0.3232  0.0931
27792SOL    HW186907   0.263   2.607   6.480 -1.8954  0.6154 -2.7983
27792SOL    HW286908   0.298   2.753   6.501  0.5379 -0.3485  0.6765
27793SOL     OW86909   8.173   3.806   6.500  0.2098 -0.3947 -0.6502
27793SOL    HW186910   8.117   3.729   6.504  0.3689 -0.6858 -2.9187
27793SOL    HW286911   8.189   3.820   6.407  0.9741  1.8284 -0.2483
27794SOL     OW86912   4.779   8.920   0.739 -0.2001  0.0053  0.0033
27794SOL    HW186913   4.823   8.836   0.749 -0.1736 -0.0891 -0.8577
27794SOL    HW286914   4.818   8.959   0.661  0.8001  1.4501  1.1692
27795SOL     OW86915  10.470   0.923   3.069 -1.1314 -0.7802 -0.1031
27795SOL    HW186916  10.441   0.989   3.131  0.0929 -0.3436  0.0356
27795SOL    HW286917  10.474   0.842   3.120  0.5069 -0.2990  0.6118
27796SOL     OW86918   3.445   4.593   3.496 -0.0809 -0.0127 -0.3812
27796SOL    HW186919   3.381   4.528   3.469 -1.7461  1.5775 -0.4446
27796SOL    HW286920   3.405   4.637   3.571  0.6011  1.4679 -0.8424
27797SOL     OW86921   5.554   3.988   5.925 -0.0663 -0.0103  0.3365
27797SOL    HW186922   5.481   3.926   5.932  0.6969 -1.1046 -0.8487
27797SOL    HW286923   5.551   4.018   5.835  0.2917  0.7888  0.5829
27798SOL     OW86924   9.239   1.258   7.063 -0.1044  0.8513 -0.2993
27798SOL    HW186925   9.218   1.271   6.971  0.4454 -0.8557 -0.7076
27798SOL    HW286926   9.291   1.335   7.087 -0.0986  1.2313 -1.4716
27799SOL     OW86927   9.709   1.304   8.294 -0.1885 -0.0313  0.3018
27799SOL    HW186928   9.721   1.376   8.355  0.1232  0.8924 -0.8055
27799SOL    HW286929   9.672   1.233   8.347  2.1373 -0.0632  2.0145
27800SOL     OW86930   1.621   1.641   1.951  0.5369 -0.0825  0.8492
27800SOL    HW186931   1.594   1.568   2.006 -0.4811 -0.1400  0.2870
27800SOL    HW286932   1.563   1.638   1.876  2.6343 -0.7018 -0.8454
27801SOL     OW86933   8.632   1.503   7.321 -0.0765  1.0678  0.1553
27801SOL    HW186934   8.546   1.474   7.292 -0.2178  2.4512 -0.9499
27801SOL    HW286935   8.614   1.568   7.388  0.0549  1.9436 -0.6385
27802SOL     OW86936   6.710   1.984   5.010 -0.4686  0.2371  0.7098
27802SOL    HW186937   6.795   1.943   4.989 -1.5650 -1.0681 -1.6217
27802SOL    HW286938   6.673   1.928   5.078 -0.2587 -0.2848  0.3987
27803SOL     OW86939   0.229   3.275   8.880  0.1112 -0.1170  0.4305
27803SOL    HW186940   0.286   3.303   8.808  2.1615  0.7048  2.2409
27803SOL    HW286941   0.183   3.355   8.906 -0.7570 -0.4498 -0.0334
27804SOL     OW86942   3.103   2.322   2.393  0.5010 -0.2141 -0.3034
27804SOL    HW186943   3.084   2.319   2.299  1.1712  1.9476 -0.5671
27804SOL    HW286944   3.199   2.322   2.398  0.5123  1.6155  0.2134
27805SOL     OW86945   8.086   9.631   4.644  0.1166  0.5935  0.1407
27805SOL    HW186946   8.101   9.654   4.736  1.0442 -1.4278  0.5494
27805SOL    HW286947   7.995   9.602   4.641  0.9271 -2.3261  1.1706
27806SOL     OW86948  10.960   2.190   4.029  0.0491  0.0161  1.2974
27806SOL    HW186949  10.889   2.252   4.041 -0.4015 -0.2979  0.3453
27806SOL    HW286950  10.945   2.123   4.095 -1.6983 -1.0770 -0.1271
27807SOL     OW86951   4.986   0.131   2.351  0.1046  0.1752  0.3321
27807SOL    HW186952   5.047   0.188   2.400  0.3372  0.7186 -0.5595
27807SOL    HW286953   5.042   0.062   2.315  0.1451  0.4729 -0.1880
27808SOL     OW86954   3.612   8.397   1.603 -0.3110 -0.3206  0.1061
27808SOL    HW186955   3.685   8.336   1.614 -0.3383 -0.4845 -0.5660
27808SOL    HW286956   3.652   8.484   1.602 -0.1548 -0.3961 -0.0270
27809SOL     OW86957   0.010   0.181   2.581 -0.3280  0.1833 -0.1000
27809SOL    HW186958  -0.037   0.124   2.641 -0.5556 -1.2556 -1.5871
27809SOL    HW286959   0.100   0.180   2.613 -0.9270  1.7828  1.8835
27810SOL     OW86960   3.370   1.886   5.894 -0.0495  0.1626  0.2137
27810SOL    HW186961   3.394   1.979   5.887 -0.5869  0.3236  0.4864
27810SOL    HW286962   3.283   1.886   5.932 -0.2013 -0.4464 -0.1185
27811SOL     OW86963   1.686   8.926   7.161  0.0186  0.6417 -0.9045
27811SOL    HW186964   1.778   8.899   7.157 -0.0920 -0.2795  1.3707
27811SOL    HW286965   1.637   8.846   7.140 -0.2465  0.2704  0.9245
27812SOL     OW86966  10.993   2.615   5.641  0.0448 -0.8068  0.0921
27812SOL    HW186967  10.952   2.538   5.601  1.8364 -1.9603  0.3578
27812SOL    HW286968  11.016   2.671   5.567 -0.6951 -0.8170 -0.1523
27813SOL     OW86969   6.803   9.591   8.794  0.3637 -0.2842 -0.4951
27813SOL    HW186970   6.858   9.593   8.873  0.4568 -0.3145 -0.5604
27813SOL    HW286971   6.818   9.676   8.752 -0.1078 -0.0429 -0.1891
27814SOL     OW86972   2.970   9.252   7.363  0.7567  0.4769 -0.1667
27814SOL    HW186973   2.891   9.205   7.391  0.1659 -0.1994 -2.7094
27814SOL    HW286974   3.004   9.292   7.444 -0.1553 -2.1551  1.6638
27815SOL     OW86975   3.095   0.888   2.206 -0.3768 -0.4046  0.1443
27815SOL    HW186976   3.078   0.950   2.277  0.3608 -2.1038  1.8717
27815SOL    HW286977   3.008   0.867   2.171 -0.8357 -0.1763  1.1119
27816SOL     OW86978   7.966   7.862   4.583 -0.3155 -0.5058  0.6376
27816SOL    HW186979   7.882   7.896   4.615 -0.8489 -1.3503  0.1861
27816SOL    HW286980   7.943   7.807   4.509  0.7709  0.2097 -0.2609
27817SOL     OW86981   5.371   4.035   8.821  0.0768 -0.0853 -0.2077
27817SOL    HW186982   5.431   4.010   8.891 -2.3460 -2.2240  1.2754
27817SOL    HW286983   5.415   4.009   8.740  1.7332 -0.2085  0.7028
27818SOL     OW86984   5.462   8.099   9.132  0.3876 -0.1343 -0.4190
27818SOL    HW186985   5.481   8.014   9.092 -0.7922 -0.5887 -0.0431
27818SOL    HW286986   5.503   8.094   9.219 -1.6775 -1.3016  0.5838
27819SOL     OW86987   3.474   4.139   5.738  0.5146 -0.2067  0.4011
27819SOL    HW186988   3.549   4.190   5.709  0.4292  0.1232  0.7518
27819SOL    HW286989   3.498   4.048   5.720 -0.2530  0.0639 -2.3339
27820SOL     OW86990   3.250   6.756   0.594 -0.1897 -0.8955  0.6030
27820SOL    HW186991   3.343   6.776   0.605  0.2376 -3.0599  1.3102
27820SOL    HW286992   3.222   6.724   0.679 -1.2180 -1.6651 -0.0050
27821SOL     OW86993   9.867   1.268   9.013  0.0653 -0.6040  0.4343
27821SOL    HW186994   9.939   1.302   8.959  1.5007  0.9078  3.0811
27821SOL    HW286995   9.795   1.328   8.997  0.8014  0.4417  0.8882
27822SOL     OW86996   0.080   6.873   6.172  0.5312 -0.2868  0.1359
27822SOL    HW186997   0.118   6.858   6.259 -0.1832 -1.2576  0.3004
27822SOL    HW286998   0.145   6.837   6.111  0.1087 -1.5047  0.3887
27823SOL     OW86999   3.244   7.504   4.131 -0.0607  0.0518  0.0308
27823SOL    HW187000   3.252   7.581   4.187  0.3767 -0.2235  0.3545
27823SOL    HW287001   3.271   7.431   4.187 -1.0525 -0.4190 -0.0812
27824SOL     OW87002   8.738   2.279   1.444 -0.0439  0.0049 -0.9550
27824SOL    HW187003   8.796   2.293   1.369 -0.2708 -3.5252 -1.9244
27824SOL    HW287004   8.686   2.202   1.422 -1.0060 -0.4658  2.3233
27825SOL     OW87005   9.356   0.578   4.043  0.0985  0.4131  0.2812
27825SOL    HW187006   9.430   0.520   4.061  0.0145  0.5520  1.1230
27825SOL    HW287007   9.308   0.582   4.126  0.3001  1.9724  0.3359
27826SOL     OW87008   2.916   4.197   1.925  0.1496  0.1949  0.5874
27826SOL    HW187009   2.918   4.141   2.003 -0.6998 -0.3411  0.2424
27826SOL    HW287010   2.864   4.273   1.951  1.4503  0.9244  1.1102
27827SOL     OW87011   8.689   3.107   1.048  0.5652  0.1143 -0.5597
27827SOL    HW187012   8.697   3.137   1.138 -0.3619  2.1559 -1.1024
27827SOL    HW287013   8.746   3.167   0.998  1.0703 -0.9856 -1.3501
27828SOL     OW87014  10.022   0.285   3.951  0.2356 -0.1531  0.6245
27828SOL    HW187015  10.011   0.222   3.880 -2.3651 -1.5907  2.1440
27828SOL    HW287016   9.967   0.359   3.927  0.9176  0.2344  0.2406
27829SOL     OW87017   1.143   8.509   1.299 -0.3683 -0.1283  0.2321
27829SOL    HW187018   1.164   8.416   1.310 -1.7255 -0.2650  2.2008
27829SOL    HW287019   1.193   8.536   1.221  0.3141 -2.4013 -0.1953
27830SOL     OW87020   9.109   7.956   2.890 -0.3878  0.1358  0.2959
27830SOL    HW187021   9.079   8.033   2.938 -1.6475  1.5029 -2.4301
27830SOL    HW287022   9.175   7.990   2.830  1.1455 -1.4986  0.9635
27831SOL     OW87023   6.523  10.663   2.261  0.2400 -0.7936 -0.1315
27831SOL    HW187024   6.428  10.679   2.261  0.5701  1.3774  0.6354
27831SOL    HW287025   6.545  10.648   2.353  0.6762 -1.1495 -0.2892
27832SOL     OW87026  10.467   2.757   2.280  0.1885 -0.2971  0.5797
27832SOL    HW187027  10.427   2.671   2.263  1.5690 -0.8205 -0.2000
27832SOL    HW287028  10.509   2.747   2.365  0.4506 -0.4313  0.4342
27833SOL     OW87029   9.808   1.096   4.439 -0.0957 -0.0072  0.5896
27833SOL    HW187030   9.742   1.146   4.487 -1.4046 -1.9777  0.9579
27833SOL    HW287031   9.811   1.138   4.353  0.7312  2.2487  1.6473
27834SOL     OW87032   9.889   6.241   2.884 -0.1778  0.0373  0.7710
27834SOL    HW187033   9.845   6.302   2.943 -1.6239 -1.1581  0.9799
27834SOL    HW287034   9.842   6.249   2.801  0.7247  0.4250  0.2814
27835SOL     OW87035   2.201   0.761   0.137 -0.7406 -0.7213  0.3468
27835SOL    HW187036   2.236   0.674   0.118 -0.6933 -0.4019 -1.1423
27835SOL    HW287037   2.116   0.764   0.093 -0.5668  0.1172  0.0366
27836SOL     OW87038   5.436   1.579   3.933 -0.0431 -0.4254 -0.3715
27836SOL    HW187039   5.477   1.578   3.847 -0.0647 -1.7987 -0.3878
27836SOL    HW287040   5.496   1.631   3.987 -0.4623  1.1838 -1.3819
27837SOL     OW87041  10.627   1.506   2.999  0.6144  0.4576 -0.3302
27837SOL    HW187042  10.702   1.556   3.033 -0.3697  1.0573  1.0685
27837SOL    HW287043  10.577   1.570   2.948  1.0272  0.0631 -1.2463
27838SOL     OW87044   6.677  10.281  10.841 -0.6361 -0.0289 -0.3269
27838SOL    HW187045   6.769  10.290  10.816 -0.9092  2.6741 -0.6464
27838SOL    HW287046   6.676  10.298  10.936 -0.8085 -0.1373 -0.3080
27839SOL     OW87047   0.578   7.547   1.527 -0.4593 -0.6188  0.3541
27839SOL    HW187048   0.513   7.522   1.462  0.8033 -0.6263 -0.9747
27839SOL    HW287049   0.648   7.482   1.517  0.3009  0.0952  0.8729
27840SOL     OW87050   3.090   5.222   2.251 -0.1166  0.5220 -0.8637
27840SOL    HW187051   3.022   5.184   2.196  0.4833 -0.8121 -0.7107
27840SOL    HW287052   3.171   5.180   2.223  0.0540 -1.2232  1.8582
27841SOL     OW87053   9.296   3.193   0.037 -0.4060  0.4176  0.3364
27841SOL    HW187054   9.259   3.280   0.053 -2.0907  0.1526 -1.7231
27841SOL    HW287055   9.354   3.204  -0.038  0.6469  0.0334  1.0613
27842SOL     OW87056  10.334   8.080   6.443  0.1431  0.1466 -0.1782
27842SOL    HW187057  10.418   8.114   6.410  0.7296  0.3255  1.4223
27842SOL    HW287058  10.341   7.985   6.434  0.1015  0.2109 -0.9697
27843SOL     OW87059   3.702   9.801   0.922 -0.3533  0.1153 -0.3866
27843SOL    HW187060   3.757   9.732   0.960  0.0202  0.3061 -0.5861
27843SOL    HW287061   3.638   9.820   0.991  0.5548  0.7301  0.3108
27844SOL     OW87062   9.706   0.132   6.202 -0.9117 -0.2071 -0.1107
27844SOL    HW187063   9.676   0.210   6.249 -1.8486 -1.2046  1.0194
27844SOL    HW287064   9.780   0.099   6.253  0.2904  0.5666 -1.2554
27845SOL     OW87065   2.122   7.836   4.873 -0.1574 -0.0515  0.5224
27845SOL    HW187066   2.154   7.912   4.824 -1.4937  0.0764 -0.2125
27845SOL    HW287067   2.043   7.868   4.916 -0.7936 -1.0499  0.1213
27846SOL     OW87068   1.474   2.754   1.176 -0.3305 -0.1802  0.2438
27846SOL    HW187069   1.497   2.753   1.083  0.6524 -0.6963  0.4838
27846SOL    HW287070   1.382   2.780   1.177 -0.4956 -0.6518 -0.8985
27847SOL     OW87071   4.516   1.750   4.426 -0.1446  0.2214 -0.1230
27847SOL    HW187072   4.564   1.681   4.472  0.8485  0.5711 -0.6173
27847SOL    HW287073   4.493   1.711   4.342 -2.9246 -0.8086  0.9982
27848SOL     OW87074   2.902   0.797   9.637  0.2297  0.1779 -0.1899
27848SOL    HW187075   2.998   0.795   9.633  0.2464 -0.8729  0.3228
27848SOL    HW287076   2.877   0.704   9.642 -0.9225  0.2720 -2.6369
27849SOL     OW87077   8.115   5.826   3.382  0.1048 -0.5303  0.5678
27849SOL    HW187078   8.084   5.897   3.326  0.6723 -0.4227  0.3725
27849SOL    HW287079   8.179   5.867   3.440  1.2593 -1.0577 -0.2750
27850SOL     OW87080   5.903   5.152   9.370  0.0435 -0.7128  0.1199
27850SOL    HW187081   5.940   5.139   9.283 -0.9210 -0.9697 -0.2624
27850SOL    HW287082   5.834   5.216   9.358  0.9517  0.4793  0.9985
27851SOL     OW87083  10.905   0.282   8.013  0.3452  0.2707  0.3541
27851SOL    HW187084  10.866   0.222   8.076  0.8603  0.9904  1.3763
27851SOL    HW287085  10.831   0.314   7.961  0.1074 -1.5811 -0.5481
27852SOL     OW87086   3.536   3.749   0.034 -0.2854 -0.3702  0.2790
27852SOL    HW187087   3.537   3.707   0.120 -0.8094  0.6221  0.7860
27852SOL    HW287088   3.464   3.812   0.039  0.0668  0.1254 -0.6819
27853SOL     OW87089   1.667   7.323   7.480 -0.1885  0.6997  0.6881
27853SOL    HW187090   1.639   7.248   7.428  1.9715 -0.5453  1.1737
27853SOL    HW287091   1.670   7.396   7.418  0.3590 -0.2810 -0.4868
27854SOL     OW87092   8.075   1.670   0.981  0.4414 -0.0070 -0.7474
27854SOL    HW187093   8.132   1.739   1.016 -0.4452  0.5189 -0.2874
27854SOL    HW287094   7.988   1.711   0.976  0.0844 -0.8126 -1.3489
27855SOL     OW87095  10.082   2.404   7.148 -0.4020  0.1122  0.1708
27855SOL    HW187096  10.132   2.348   7.089 -2.4137 -1.7224  0.0493
27855SOL    HW287097  10.115   2.382   7.235  0.0620  0.0821 -0.0108
27856SOL     OW87098   2.438   4.683   7.295  0.3540 -0.0486  0.0402
27856SOL    HW187099   2.453   4.592   7.268  0.0122 -0.0616 -0.1059
27856SOL    HW287100   2.499   4.734   7.242 -0.1048 -0.1015 -0.5569
27857SOL     OW87101   7.107  10.761   2.736 -0.3637  0.5801  0.2414
27857SOL    HW187102   7.094  10.704   2.661  0.0784  2.5142 -1.3913
27857SOL    HW287103   7.086  10.706   2.812 -0.1863 -1.6399 -1.2218
27858SOL     OW87104   8.909   9.587  10.666 -0.0202 -0.5030 -0.1736
27858SOL    HW187105   8.932   9.615  10.577  0.8117  0.4391  0.3265
27858SOL    HW287106   8.827   9.631  10.684  0.2583  0.0109 -0.1494
27859SOL     OW87107   2.238   5.305   0.364  0.6844  0.0326 -0.5876
27859SOL    HW187108   2.314   5.260   0.400  0.7313  0.2900 -0.3557
27859SOL    HW287109   2.274   5.385   0.325  0.3759  0.9210  0.8676
27860SOL     OW87110   7.573   5.484  10.288  0.0876  0.5330 -0.3880
27860SOL    HW187111   7.619   5.452  10.365  1.1075  1.1852 -0.6974
27860SOL    HW287112   7.626   5.558  10.257 -2.6262  3.2394  0.8857
27861SOL     OW87113   7.289   4.336   5.411 -0.1833  0.1727 -0.1288
27861SOL    HW187114   7.274   4.250   5.451 -1.0449  0.7130  0.7726
27861SOL    HW287115   7.346   4.319   5.336  1.3223 -0.9318  1.1963
27862SOL     OW87116  10.998   0.452   9.601 -0.2436 -0.2732 -0.3491
27862SOL    HW187117  11.013   0.531   9.549 -0.1765 -1.2372 -1.8509
27862SOL    HW287118  10.925   0.408   9.558  0.0478 -1.2877  0.1660
27863SOL     OW87119   0.207   2.946   4.632  0.1170 -0.6017  0.0175
27863SOL    HW187120   0.112   2.950   4.638  0.0806 -1.3959  0.0872
27863SOL    HW287121   0.230   3.011   4.566 -0.3642  0.5110  0.9103
27864SOL     OW87122   9.564   3.434   2.804 -0.1518 -0.3099  0.1133
27864SOL    HW187123   9.563   3.338   2.802  0.8173 -0.3236 -0.5785
27864SOL    HW287124   9.629   3.456   2.871  1.2824 -0.1810 -1.2622
27865SOL     OW87125   3.789   5.420   7.349 -0.2508  0.0311 -0.2547
27865SOL    HW187126   3.779   5.508   7.388 -0.7180  0.1623 -0.6617
27865SOL    HW287127   3.835   5.370   7.416  0.0739  0.6064 -0.0376
27866SOL     OW87128  11.020  10.827   5.377 -0.0624  0.4884  0.1089
27866SOL    HW187129  11.098  10.781   5.408 -0.9794 -0.6480  0.8136
27866SOL    HW287130  10.946  10.774   5.408 -1.2389  3.0078  2.0220
27867SOL     OW87131   7.660  10.059   1.082 -0.0197  0.3640 -0.0282
27867SOL    HW187132   7.582  10.027   1.127  0.6024  0.1692  0.9497
27867SOL    HW287133   7.710   9.979   1.061 -0.3770  0.4402 -1.2278
27868SOL     OW87134   2.161   0.701   6.549 -0.7773  0.0458 -0.2085
27868SOL    HW187135   2.176   0.675   6.458  0.1701 -0.4468  0.0735
27868SOL    HW287136   2.160   0.618   6.597  1.1571  0.4104  0.5539
27869SOL     OW87137   3.385   6.116   4.759 -0.2846  0.1065  0.5965
27869SOL    HW187138   3.435   6.144   4.835 -1.6762  1.4445  1.0679
27869SOL    HW287139   3.437   6.045   4.721  1.1763  0.4130  1.9183
27870SOL     OW87140   4.024   3.747   1.972  0.0709  0.2606 -0.1837
27870SOL    HW187141   4.041   3.664   2.016 -2.1387  0.6570  1.6110
27870SOL    HW287142   3.960   3.726   1.904 -0.3057  0.4482  0.1105
27871SOL     OW87143   1.704   1.102   0.830  0.2361 -0.3532 -0.1615
27871SOL    HW187144   1.642   1.093   0.902 -0.6898 -1.8967 -1.0888
27871SOL    HW287145   1.725   1.011   0.806  0.1424  0.1127 -2.1410
27872SOL     OW87146   6.865   3.769   3.605  0.8026  0.1248  1.1897
27872SOL    HW187147   6.898   3.747   3.692  1.1537  0.5217  1.1577
27872SOL    HW287148   6.915   3.846   3.578  0.7213 -0.0112  0.6224
27873SOL     OW87149   9.712  10.269   0.009  0.3653 -0.1503  0.1504
27873SOL    HW187150   9.801  10.304  -0.002  0.9901 -1.6329  0.2431
27873SOL    HW287151   9.693  10.224  -0.073 -0.7852  1.0919 -0.3127
27874SOL     OW87152   2.948   2.040   4.785  0.6302  0.4710 -0.4129
27874SOL    HW187153   2.896   2.086   4.851  0.9422  1.2084 -0.6641
27874SOL    HW287154   3.025   2.008   4.833  0.6286  0.6022 -0.3215
27875SOL     OW87155   3.167   2.132   2.627  0.1431 -0.4723  0.5316
27875SOL    HW187156   3.132   2.043   2.632 -1.3406  0.1253  1.3784
27875SOL    HW287157   3.118   2.173   2.556 -0.7957  0.3333  1.6227
27876SOL     OW87158   9.840   9.849   6.471  0.1620  0.5109 -0.2042
27876SOL    HW187159   9.913   9.808   6.424  0.6937  1.0987  0.0970
27876SOL    HW287160   9.769   9.850   6.408 -0.0988 -1.5272 -0.0028
27877SOL     OW87161   2.523   1.028   1.149 -0.1889  0.3178 -0.1654
27877SOL    HW187162   2.570   0.974   1.212  0.2256  0.0429 -0.6981
27877SOL    HW287163   2.431   1.004   1.161  0.0308 -0.9297 -0.7589
27878SOL     OW87164   0.795   4.288   7.883  0.0106 -0.6293  0.0143
27878SOL    HW187165   0.719   4.244   7.921 -0.0304  0.1063  0.7941
27878SOL    HW287166   0.857   4.218   7.864 -0.6937 -1.1904 -0.2497
27879SOL     OW87167   3.253   8.766   9.486 -0.0985  0.2224  0.2704
27879SOL    HW187168   3.279   8.806   9.402  0.3984  0.0081  0.3188
27879SOL    HW287169   3.240   8.840   9.544 -1.4854  0.4388 -0.2766
27880SOL     OW87170   2.601   8.055   6.728 -0.5163  0.0213 -0.3302
27880SOL    HW187171   2.522   8.108   6.717  0.0973  0.8139 -1.0708
27880SOL    HW287172   2.672   8.111   6.696 -0.0194 -1.8384 -2.8011
27881SOL     OW87173  10.973   5.151  10.648 -0.0939  0.0656  0.0259
27881SOL    HW187174  11.010   5.215  10.588  0.5509 -0.3084  0.0225
27881SOL    HW287175  10.904   5.108  10.597 -0.9849  1.1831  0.2324
27882SOL     OW87176   7.040   8.337   0.229 -0.4801 -0.4385  0.3156
27882SOL    HW187177   6.965   8.326   0.287  0.9799  3.0032  3.2012
27882SOL    HW287178   7.001   8.357   0.144 -2.7139 -2.5381  0.7398
27883SOL     OW87179   6.106   5.651   5.963 -0.0203  0.0683  0.1396
27883SOL    HW187180   6.155   5.592   5.905 -0.6218  0.7459 -1.0948
27883SOL    HW287181   6.172   5.686   6.022  0.8054  0.1276 -0.7819
27884SOL     OW87182   1.198   4.503   7.946 -0.5027 -0.0474 -0.3133
27884SOL    HW187183   1.188   4.581   8.001  2.5249 -0.0052  0.3235
27884SOL    HW287184   1.173   4.430   8.003  0.1784  0.2014  0.3205
27885SOL     OW87185   9.363   3.268  10.232  0.5914 -0.3936  0.0305
27885SOL    HW187186   9.359   3.312  10.147  1.4628  0.4124  0.3897
27885SOL    HW287187   9.272   3.263  10.261  0.2379 -1.0774 -1.1349
27886SOL     OW87188   1.071   3.627  11.079 -0.5744  0.0083 -0.2729
27886SOL    HW187189   1.111   3.546  11.112 -0.5871  0.2139  0.2574
27886SOL    HW287190   1.137   3.665  11.022 -0.4747 -0.2552 -0.3346
27887SOL     OW87191   8.302   4.003   6.889  0.0445 -0.0836  0.2929
27887SOL    HW187192   8.333   3.993   6.799 -0.8513  0.4497 -0.0845
27887SOL    HW287193   8.210   4.025   6.880  0.0672  0.4720  1.3387
27888SOL     OW87194   3.522   2.675   4.942 -0.1924  0.1750  0.4546
27888SOL    HW187195   3.433   2.665   4.907 -0.8190 -0.0183  2.0173
27888SOL    HW287196   3.570   2.602   4.904 -0.8082  0.0482 -0.1039
27889SOL     OW87197   5.058   5.945   9.216  0.3976  0.3602 -0.3066
27889SOL    HW187198   4.997   5.883   9.257  1.5827 -0.6596 -0.0270
27889SOL    HW287199   5.019   5.963   9.130 -0.2943 -0.2741 -0.1415
27890SOL     OW87200   7.228  10.072   5.440  0.6917 -0.1090  0.2620
27890SOL    HW187201   7.202   9.995   5.390  1.2360 -0.0059 -0.1961
27890SOL    HW287202   7.290  10.039   5.505  0.9983 -0.0531  0.0043
27891SOL     OW87203   4.445   7.039   5.101 -0.6482  0.3155  0.2934
27891SOL    HW187204   4.404   7.121   5.129 -2.3153 -0.8553  1.4435
27891SOL    HW287205   4.517   7.027   5.164 -0.4348  0.8303  0.1612
27892SOL     OW87206   9.160   7.672  10.493 -0.0496  0.1238  0.6699
27892SOL    HW187207   9.188   7.709  10.577  1.2599  1.6858 -0.4004
27892SOL    HW287208   9.154   7.748  10.435 -0.0602 -1.0414 -0.8881
27893SOL     OW87209   4.526   7.229   2.637 -0.2075 -0.0596  0.0451
27893SOL    HW187210   4.477   7.150   2.613  0.7405 -0.3500 -1.0246
27893SOL    HW287211   4.595   7.198   2.696  0.3697 -0.0985 -0.6391
27894SOL     OW87212   2.962   4.545   7.086 -0.2005 -0.3934 -0.6287
27894SOL    HW187213   3.053   4.570   7.075  0.0559  0.1722  2.0882
27894SOL    HW287214   2.965   4.452   7.109 -0.3236 -0.3752 -0.5397
27895SOL     OW87215   5.391   1.524   4.836 -0.3206 -0.1178  0.2545
27895SOL    HW187216   5.389   1.428   4.833  1.7179 -0.1755 -0.8019
27895SOL    HW287217   5.399   1.551   4.745 -2.6652  1.2021  0.3456
27896SOL     OW87218   5.466   6.531   7.462  0.1978  0.1391  0.6828
27896SOL    HW187219   5.527   6.540   7.388 -0.8869 -2.8456 -0.7140
27896SOL    HW287220   5.394   6.479   7.427 -1.4509  0.5348  3.2843
27897SOL     OW87221   6.526   4.946   4.132 -0.0472  0.2528 -0.6715
27897SOL    HW187222   6.618   4.928   4.116  0.0648 -0.4597  0.6815
27897SOL    HW287223   6.512   4.926   4.225 -1.8089 -0.7163 -1.0825
27898SOL     OW87224   6.379  10.480   1.057  0.6078  0.3793  0.2243
27898SOL    HW187225   6.402  10.567   1.024  2.7211  0.9665  2.8273
27898SOL    HW287226   6.464  10.440   1.078 -0.4217 -0.8031  2.4920
27899SOL     OW87227   5.173   0.906   4.115  0.6001 -0.3319 -0.3191
27899SOL    HW187228   5.249   0.857   4.083  1.4303 -0.3002  1.4766
27899SOL    HW287229   5.142   0.855   4.190 -0.1520  0.5241 -0.0298
27900SOL     OW87230  10.628   8.161   5.099  0.4019 -0.2068  0.1595
27900SOL    HW187231  10.680   8.234   5.133 -1.0133  0.7346  0.3977
27900SOL    HW287232  10.623   8.099   5.172  0.3033  0.1968  0.5023
27901SOL     OW87233   9.124   9.761   9.118 -0.0585 -0.0750  0.6256
27901SOL    HW187234   9.203   9.707   9.114  0.1806  0.2657  0.7464
27901SOL    HW287235   9.152   9.842   9.159 -0.6845 -0.3267  1.5816
27902SOL     OW87236   2.796   7.523   4.957  0.3891 -0.1555 -0.2014
27902SOL    HW187237   2.876   7.573   4.975  0.7746 -1.0098  0.4899
27902SOL    HW287238   2.827   7.443   4.916 -0.2597  0.3487 -1.7621
27903SOL     OW87239   8.254   1.408   4.413 -0.5589  0.2171 -0.3669
27903SOL    HW187240   8.181   1.464   4.387  0.2787  2.1109  1.1118
27903SOL    HW287241   8.327   1.437   4.359 -0.9921 -2.3174 -2.5358
27904SOL     OW87242   4.719   0.501   6.303  0.7909  0.5365  0.5580
27904SOL    HW187243   4.736   0.501   6.209  1.0506  0.4906  0.6057
27904SOL    HW287244   4.754   0.585   6.334 -1.2965  1.5793  0.2515
27905SOL     OW87245   4.729   1.058   0.272  0.0384  0.0080  0.0016
27905SOL    HW187246   4.816   1.034   0.238 -0.4272 -0.2621 -1.0367
27905SOL    HW287247   4.677   0.978   0.264  0.2841 -0.5544  2.8064
27906SOL     OW87248   5.614   6.623   5.716  0.0787  0.5286 -0.4284
27906SOL    HW187249   5.696   6.574   5.720 -2.4523 -4.2088  1.7108
27906SOL    HW287250   5.572   6.593   5.635 -0.7721  0.5336 -0.0023
27907SOL     OW87251   9.961   1.363   7.479  0.6146 -0.2719  0.5066
27907SOL    HW187252   9.876   1.407   7.489  0.9724  0.2568  1.3108
27907SOL    HW287253   9.963   1.298   7.550  0.3836 -1.1233 -0.2513
27908SOL     OW87254   9.267   0.725   5.616 -0.1633 -0.2432 -0.4339
27908SOL    HW187255   9.308   0.774   5.687 -1.6082 -0.3330  0.5236
27908SOL    HW287256   9.273   0.634   5.644 -2.5103 -0.1445  0.6343
27909SOL     OW87257   8.985   6.658   9.980 -0.9172  0.2052 -0.4502
27909SOL    HW187258   8.943   6.583   9.938 -2.0478  0.3177  0.4305
27909SOL    HW287259   8.987   6.726   9.913 -0.2496 -0.4627 -1.1301
27910SOL     OW87260   9.934   2.855   3.092  0.0458 -0.4444  0.1262
27910SOL    HW187261   9.900   2.769   3.067 -2.0980  0.2725  0.4189
27910SOL    HW287262  10.022   2.857   3.053 -0.7226 -1.8508 -1.9032
27911SOL     OW87263   3.088  10.839   6.958  0.1782  0.0352  0.4549
27911SOL    HW187264   2.998  10.863   6.933  0.5959  1.0350 -0.1551
27911SOL    HW287265   3.105  10.889   7.038 -0.4374 -1.5975  1.6639
27912SOL     OW87266   9.039   6.548   7.642 -0.2920 -0.4585  0.0531
27912SOL    HW187267   9.008   6.546   7.733  1.5545 -1.1151  0.7267
27912SOL    HW287268   9.009   6.465   7.604  0.1789 -0.8696  0.5493
27913SOL     OW87269   9.690   1.007   0.504  0.1250 -0.3378  0.5353
27913SOL    HW187270   9.699   1.087   0.556  2.0618  0.1552 -0.4463
27913SOL    HW287271   9.627   1.030   0.436  2.3557  1.2634 -1.1673
27914SOL     OW87272   7.168   1.416   4.934  0.5811  0.1499 -0.1177
27914SOL    HW187273   7.191   1.393   5.024  0.7003 -0.9192 -0.4162
27914SOL    HW287274   7.106   1.488   4.944  1.4066  0.7769  0.7868
27915SOL     OW87275   7.298  10.224   1.352  0.2989  0.0197 -0.4982
27915SOL    HW187276   7.333  10.234   1.440  0.4957 -0.3634 -0.5315
27915SOL    HW287277   7.363  10.170   1.306  0.2094  0.2322 -0.8816
27916SOL     OW87278   5.251   9.345   1.800  0.1435  0.0839 -0.2239
27916SOL    HW187279   5.190   9.366   1.870  0.5425  0.7009 -0.0487
27916SOL    HW287280   5.258   9.250   1.801  0.2759  0.0974  0.6886
27917SOL     OW87281   8.041   0.486   5.285 -0.4850  0.3774 -0.3950
27917SOL    HW187282   8.013   0.459   5.373  1.3457  0.6074  0.3098
27917SOL    HW287283   8.029   0.409   5.231  1.1298 -0.7415  0.7479
27918SOL     OW87284   7.216   6.185   0.916 -0.1458  0.4840 -0.0265
27918SOL    HW187285   7.161   6.235   0.856  0.1256 -0.5691 -1.2088
27918SOL    HW287286   7.304   6.217   0.900 -0.0384  0.0152 -0.4095
27919SOL     OW87287   5.029   0.797   2.538  0.0915 -0.3228  0.3070
27919SOL    HW187288   5.070   0.829   2.457  0.9877  2.0055  1.5783
27919SOL    HW287289   5.100   0.753   2.585 -0.3975 -1.5676 -0.0906
27920SOL     OW87290   0.780   4.449  10.519 -0.0409  0.1077  0.0273
27920SOL    HW187291   0.830   4.398  10.583  1.0939  1.3759  0.2090
27920SOL    HW287292   0.773   4.391  10.443 -1.7011 -1.5581  1.3514
27921SOL     OW87293   7.003   6.286   5.355  0.1396 -0.1104 -0.0321
27921SOL    HW187294   7.070   6.259   5.417 -1.3611 -1.6093  1.0274
27921SOL    HW287295   7.002   6.217   5.289  2.2403  1.8397 -2.2513
27922SOL     OW87296   6.391   2.205   9.950  0.3894  0.3205 -0.4769
27922SOL    HW187297   6.395   2.158  10.034 -0.0683 -0.8730 -1.0951
27922SOL    HW287298   6.477   2.246   9.942  0.6805 -0.1039  0.2709
27923SOL     OW87299   4.831   6.415   4.607 -0.1009  0.1150 -0.1621
27923SOL    HW187300   4.874   6.365   4.538 -0.0264 -0.3992  0.2487
27923SOL    HW287301   4.882   6.397   4.685 -0.3154  0.5203  0.0752
27924SOL     OW87302   5.661   0.052   1.541 -0.0763 -0.2753  0.3353
27924SOL    HW187303   5.619   0.136   1.558 -0.6975 -0.8297  1.6484
27924SOL    HW287304   5.675   0.013   1.627 -1.1616 -2.1746 -0.2778
27925SOL     OW87305   8.326   1.399   8.604  0.2214 -0.2379  0.4836
27925SOL    HW187306   8.265   1.374   8.535 -0.5178 -1.7949  1.6564
27925SOL    HW287307   8.285   1.475   8.647 -0.2112 -0.4154  0.3809
27926SOL     OW87308   9.326   3.208   1.914 -0.1411  0.2873 -0.1774
27926SOL    HW187309   9.420   3.200   1.899  0.2174  1.4887  1.1680
27926SOL    HW287310   9.307   3.300   1.896 -1.2882 -0.1804 -1.4712
27927SOL     OW87311   8.484  11.020   7.385 -0.0976  0.0619 -0.0104
27927SOL    HW187312   8.540  11.003   7.460  0.5589  2.5027  0.1359
27927SOL    HW287313   8.530  11.088   7.336 -2.1008  0.9048 -0.8243
27928SOL     OW87314   4.360   1.483   2.895 -0.0696 -0.4879 -0.2270
27928SOL    HW187315   4.418   1.440   2.958 -1.2892 -1.0042  0.5684
27928SOL    HW287316   4.420   1.522   2.831  1.2139  0.2040  1.3226
27929SOL     OW87317   4.432   1.077   5.545  0.5445  0.0460 -0.1938
27929SOL    HW187318   4.489   1.077   5.622 -0.3491  1.4616  0.5081
27929SOL    HW287319   4.493   1.072   5.471  1.3722 -2.8709  0.5525
27930SOL     OW87320   0.187   7.471   3.648  0.6413 -0.1081 -0.4314
27930SOL    HW187321   0.098   7.444   3.624  0.7200  0.1271 -1.0255
27930SOL    HW287322   0.186   7.566   3.637  0.7946 -0.0387  0.1535
27931SOL     OW87323   0.450   6.422   7.150 -0.0091  0.0948 -0.2332
27931SOL    HW187324   0.423   6.435   7.241 -0.0469  0.0069 -0.2314
27931SOL    HW287325   0.522   6.483   7.137  1.2975 -1.2343  0.4360
27932SOL     OW87326   9.844   1.571   5.257 -0.0635 -0.0833  0.3702
27932SOL    HW187327   9.874   1.582   5.347  0.9844  2.3367 -0.2015
27932SOL    HW287328   9.886   1.491   5.227 -0.7644 -1.1713  2.1207
27933SOL     OW87329   1.783   1.996  10.438 -0.0518 -0.1185 -0.0268
27933SOL    HW187330   1.775   1.971  10.346 -0.5496 -1.6615  0.4091
27933SOL    HW287331   1.817   2.086  10.436  0.8081 -0.4576 -1.6862
27934SOL     OW87332   7.448   8.984   7.564  0.4958 -0.4780 -0.5658
27934SOL    HW187333   7.441   8.992   7.659  1.0705 -0.2646 -0.5337
27934SOL    HW287334   7.412   8.897   7.544  1.6270 -1.1074  0.0152
27935SOL     OW87335   7.866  10.277   5.522 -0.3237 -0.0926 -0.5823
27935SOL    HW187336   7.917  10.299   5.444 -0.9862 -0.0892 -1.0217
27935SOL    HW287337   7.776  10.273   5.491 -0.5737 -0.2567  0.1540
27936SOL     OW87338   6.861   8.857   3.806 -0.5092 -0.1573  0.3013
27936SOL    HW187339   6.926   8.793   3.777 -1.6046 -0.9102 -0.5762
27936SOL    HW287340   6.857   8.922   3.736 -0.5239  0.0252  0.4696
27937SOL     OW87341   8.431   6.374   4.021  0.0759 -0.4036  0.5232
27937SOL    HW187342   8.525   6.371   4.005 -0.0064  0.4105 -0.1719
27937SOL    HW287343   8.392   6.362   3.934 -0.4426  0.1357  0.6739
27938SOL     OW87344   2.185   1.901   0.150 -0.4581  0.1517  0.1598
27938SOL    HW187345   2.218   1.925   0.237 -1.9612  0.9810  0.5320
27938SOL    HW287346   2.254   1.846   0.113  0.5520  0.4100  1.5712
27939SOL     OW87347   1.624   3.613   9.583  0.7935  0.2083  0.0403
27939SOL    HW187348   1.608   3.644   9.672 -1.3679 -1.7767  0.4451
27939SOL    HW287349   1.651   3.522   9.594  0.1617 -0.1682 -1.3199
27940SOL     OW87350  10.155   9.819   5.820  0.5614 -0.2990 -0.0444
27940SOL    HW187351  10.109   9.839   5.738 -0.8838  0.6870  0.9440
27940SOL    HW287352  10.182   9.728   5.811  2.7953  0.4860 -2.6603
27941SOL     OW87353   1.689  10.991   0.665  0.2762 -0.6421 -0.4895
27941SOL    HW187354   1.776  10.964   0.636  0.4795  0.3781 -0.8803
27941SOL    HW287355   1.630  10.960   0.596  0.4396 -0.5732 -0.6621
27942SOL     OW87356   2.380   1.369   4.140  0.2850 -0.0340 -0.1378
27942SOL    HW187357   2.402   1.308   4.069  0.4788  0.6434 -0.6713
27942SOL    HW287358   2.404   1.455   4.106  1.2499  0.2159  1.1034
27943SOL     OW87359  10.456  10.444   7.748 -0.1661  0.6474 -0.2156
27943SOL    HW187360  10.391  10.491   7.800  1.5689  1.6210  1.2096
27943SOL    HW287361  10.436  10.351   7.761 -0.1686  0.8743  1.7700
27944SOL     OW87362   7.504   3.999   3.143  0.3567  0.1415  0.2679
27944SOL    HW187363   7.450   3.921   3.136  1.5172 -0.6762  0.1216
27944SOL    HW287364   7.544   4.008   3.056  0.6372  0.5814  0.4401
27945SOL     OW87365   7.172   4.920   8.708  0.2314 -0.6023 -0.0026
27945SOL    HW187366   7.250   4.973   8.690  0.8354 -0.9405  1.4858
27945SOL    HW287367   7.177   4.848   8.645  0.2850  0.1951 -0.9375
27946SOL     OW87368   7.284  10.757   2.199 -0.1543  0.0485 -0.4487
27946SOL    HW187369   7.209  10.748   2.257  1.0669  0.9766  1.3835
27946SOL    HW287370   7.272  10.689   2.133 -1.7923 -0.8400  0.7002
27947SOL     OW87371  10.495   2.552   2.918 -0.6259  0.1918  0.3112
27947SOL    HW187372  10.433   2.524   2.986 -0.7700  0.1418  0.1574
27947SOL    HW287373  10.576   2.507   2.940 -0.5096  0.6084  0.7782
27948SOL     OW87374   4.703   0.817   9.760 -0.2394 -0.0483 -0.7320
27948SOL    HW187375   4.708   0.818   9.665  0.4799  1.5799 -0.7058
27948SOL    HW287376   4.639   0.884   9.782 -0.7073 -0.6939 -0.0721
27949SOL     OW87377   0.850   8.511   2.200 -0.2787  0.8372  0.0244
27949SOL    HW187378   0.921   8.454   2.168 -0.8709  1.4247 -2.5509
27949SOL    HW287379   0.782   8.451   2.228  0.1051  0.2741 -0.2245
27950SOL     OW87380   0.413   9.457  10.432 -0.9904  0.3037  0.1564
27950SOL    HW187381   0.402   9.461  10.527  1.2195 -0.0684  0.4859
27950SOL    HW287382   0.457   9.539  10.409  0.7586 -0.6402 -0.1171
27951SOL     OW87383   2.238   8.923   9.265 -0.0294 -0.3186 -0.0523
27951SOL    HW187384   2.157   8.973   9.268 -0.5945 -1.0213 -2.1102
27951SOL    HW287385   2.211   8.832   9.275  0.6883 -0.4625  0.7477
27952SOL     OW87386   7.297   3.825  10.015  0.2807 -0.1622 -0.0704
27952SOL    HW187387   7.371   3.882   9.995 -0.2481 -0.1318 -2.3275
27952SOL    HW287388   7.326   3.770  10.087  2.2226  0.3561 -0.4088
27953SOL     OW87389   9.050   0.060   8.101 -0.0557  0.3859 -0.2619
27953SOL    HW187390   9.020   0.099   8.019  0.6736 -0.7086 -1.0871
27953SOL    HW287391   8.987  -0.010   8.119 -0.0833  0.4728 -0.0237
27954SOL     OW87392  10.306  10.672   1.324  0.1579  0.3183  0.1839
27954SOL    HW187393  10.293  10.584   1.291 -0.2731  0.6044 -0.4148
27954SOL    HW287394  10.219  10.713   1.321  0.1600  0.4560  1.3707
27955SOL     OW87395   2.355   6.895   2.650 -0.4603 -0.5672 -0.4284
27955SOL    HW187396   2.399   6.978   2.630 -1.0078  0.2808  1.5684
27955SOL    HW287397   2.319   6.909   2.738  0.5113 -3.3780  0.5030
27956SOL     OW87398  10.408   7.353   4.077 -0.5399  0.1295 -0.3811
27956SOL    HW187399  10.406   7.275   4.133  0.8944  1.0916  1.0901
27956SOL    HW287400  10.330   7.402   4.102 -1.4001 -0.7261 -1.2466
27957SOL     OW87401   1.675   1.211   9.241 -0.0609  0.0419  0.6480
27957SOL    HW187402   1.658   1.289   9.294 -1.6278 -0.6564  1.2571
27957SOL    HW287403   1.716   1.149   9.302 -1.9152 -0.7816  1.1402
27958SOL     OW87404   1.853   0.308   2.351  0.1005  0.1265 -0.3166
27958SOL    HW187405   1.868   0.402   2.363  2.6900 -0.1428 -1.0331
27958SOL    HW287406   1.889   0.288   2.265  2.3570 -1.9953  0.9809
27959SOL     OW87407   9.216   5.510   2.609 -0.3693  1.2124 -0.3364
27959SOL    HW187408   9.300   5.466   2.619 -0.2725  1.9493  2.9681
27959SOL    HW287409   9.209   5.527   2.515  2.9156  0.6931 -0.7724
27960SOL     OW87410   9.991   4.673  10.030  0.9955 -0.4761  0.6600
27960SOL    HW187411  10.044   4.667  10.109 -0.2059  0.1910  1.5601
27960SOL    HW287412  10.035   4.738   9.976  1.3897 -0.3405  1.1382
27961SOL     OW87413   4.312   7.105   2.050 -0.1743 -0.2016  0.1080
27961SOL    HW187414   4.345   7.163   1.981 -0.8166 -2.1831 -1.9809
27961SOL    HW287415   4.390   7.069   2.091  0.3331 -1.5783 -1.9270
27962SOL     OW87416   5.432   6.409   2.901  0.2842  0.3512 -0.0447
27962SOL    HW187417   5.479   6.449   2.974 -0.0251  0.1612  0.2663
27962SOL    HW287418   5.415   6.481   2.840  1.2989  0.3521 -0.3450
27963SOL     OW87419   9.770   4.265   0.841  0.5238  0.2079  0.0697
27963SOL    HW187420   9.732   4.331   0.900  0.2817  0.0413  0.0990
27963SOL    HW287421   9.778   4.310   0.757 -0.7670 -0.0838 -0.2307
27964SOL     OW87422   1.100  10.815   4.196  0.4732  0.4927  0.0526
27964SOL    HW187423   1.120  10.906   4.175 -1.9863  1.0950 -0.0089
27964SOL    HW287424   1.062  10.780   4.116 -0.0085 -0.1197  0.5381
27965SOL     OW87425   8.954   1.965   4.324 -0.3372  0.4554  0.0130
27965SOL    HW187426   9.013   1.940   4.253  0.1796 -1.0809  0.9411
27965SOL    HW287427   8.895   1.890   4.333 -1.1532  1.1313  0.4335
27966SOL     OW87428  10.408   4.969   4.932  0.5702 -0.0798  0.6903
27966SOL    HW187429  10.321   4.989   4.899  0.6711  0.5176  0.7689
27966SOL    HW287430  10.399   4.884   4.976  0.8449 -1.9172 -2.5168
27967SOL     OW87431   6.315   8.298   1.810  0.4408 -0.5512 -0.5963
27967SOL    HW187432   6.259   8.258   1.744  0.6594 -1.4445 -0.2630
27967SOL    HW287433   6.396   8.319   1.763  0.4346 -0.7742 -0.7067
27968SOL     OW87434   8.861   3.787  11.036  0.0881  0.0868 -0.0210
27968SOL    HW187435   8.904   3.715  11.081  2.0611 -0.0210 -1.8649
27968SOL    HW287436   8.895   3.866  11.079 -1.9092  0.0143  1.8562
27969SOL     OW87437  10.050   8.153   5.073  0.4444  0.3384  0.2987
27969SOL    HW187438  10.138   8.133   5.040  0.8668  2.7402 -0.2130
27969SOL    HW287439  10.048   8.115   5.161  2.3731  1.0460  0.7013
27970SOL     OW87440  11.046   9.169   1.554 -0.3056 -0.1763  0.3322
27970SOL    HW187441  11.138   9.196   1.552 -0.6835  1.1439  0.1414
27970SOL    HW287442  11.030   9.134   1.466 -0.6189  1.8453 -0.4515
27971SOL     OW87443  10.124   4.515   3.695  0.2564 -0.7549  0.1960
27971SOL    HW187444  10.082   4.591   3.653 -0.2541 -2.2122 -2.1568
27971SOL    HW287445  10.054   4.451   3.704  1.1401 -1.8226 -0.1905
27972SOL     OW87446   2.840   9.326   5.614 -0.9797 -0.3681  0.1298
27972SOL    HW187447   2.867   9.409   5.652 -0.2779 -0.3925 -0.2882
27972SOL    HW287448   2.787   9.284   5.681 -0.3805 -0.0832  0.7853
27973SOL     OW87449   0.446   9.620   7.608 -0.2960  0.6135 -0.6405
27973SOL    HW187450   0.497   9.695   7.639 -0.3944 -0.4057  2.2039
27973SOL    HW287451   0.509   9.548   7.607 -1.0107 -0.0359  0.1654
27974SOL     OW87452   0.080  10.182   2.649  0.8755 -0.7723 -0.3579
27974SOL    HW187453   0.027  10.125   2.705 -0.1075 -0.6122 -1.1024
27974SOL    HW287454   0.155  10.128   2.626  0.4843 -1.4044 -0.2019
27975SOL     OW87455   3.339   7.086  10.963  0.4599 -0.5382  0.1038
27975SOL    HW187456   3.361   7.112  10.874  1.1244  0.8018  0.6327
27975SOL    HW287457   3.374   6.997  10.972  2.3293  0.1275 -0.2860
27976SOL     OW87458   9.326   8.225   8.016 -0.2437 -0.2221 -0.5890
27976SOL    HW187459   9.357   8.136   8.031 -0.3310 -0.3519 -1.1649
27976SOL    HW287460   9.233   8.214   7.996 -0.3055  0.0191 -0.4383
27977SOL     OW87461   8.239   6.741   1.483  0.3217  0.2269 -1.0762
27977SOL    HW187462   8.191   6.661   1.503 -0.8772  1.1953  0.0923
27977SOL    HW287463   8.201   6.807   1.541  1.4041  1.6086 -1.8772
27978SOL     OW87464   4.746   6.057   7.392 -0.4442  0.4114  0.2338
27978SOL    HW187465   4.805   6.096   7.328 -0.8462 -1.0267 -1.0866
27978SOL    HW287466   4.789   6.071   7.476  1.1137  0.5833 -0.5582
27979SOL     OW87467   8.776   5.049   0.680 -0.1038 -0.0875  0.9295
27979SOL    HW187468   8.741   4.960   0.686 -0.1824 -0.0771  0.6363
27979SOL    HW287469   8.723   5.099   0.741  0.0957 -0.2881  1.2748
27980SOL     OW87470   2.151  10.184   8.683 -0.3179 -0.0853  0.3465
27980SOL    HW187471   2.062  10.196   8.649  0.3030  2.2767 -0.6401
27980SOL    HW287472   2.152  10.232   8.766 -0.0941 -0.5214  0.5986
27981SOL     OW87473   3.473   8.625   0.999  0.0744  0.1671  0.0093
27981SOL    HW187474   3.477   8.535   0.966  1.1944  0.1583  0.1392
27981SOL    HW287475   3.490   8.617   1.093 -2.0864  0.3026  0.4718
27982SOL     OW87476   8.379   1.398   7.258 -0.1854 -0.5168 -0.5346
27982SOL    HW187477   8.323   1.459   7.306 -1.1718  0.3561 -2.6484
27982SOL    HW287478   8.327   1.318   7.251  0.2426 -0.8893  0.4078
27983SOL     OW87479   4.566   7.981  11.124  0.1802  0.2766 -0.3097
27983SOL    HW187480   4.476   8.007  11.145  0.1262  1.8535 -2.1618
27983SOL    HW287481   4.565   7.967  11.030  1.6323 -0.8647 -0.1812
27984SOL     OW87482   7.082   5.909   9.715 -0.1272  0.3434 -0.0595
27984SOL    HW187483   7.033   5.879   9.639  2.6110  0.1601 -1.8756
27984SOL    HW287484   7.044   5.860   9.788 -1.9230 -0.5309 -1.4904
27985SOL     OW87485   4.102   5.242   7.018  0.2830 -0.8087  0.1723
27985SOL    HW187486   4.147   5.167   7.055 -0.0907 -1.5983 -0.9254
27985SOL    HW287487   4.010   5.215   7.012 -0.1737  0.3783  1.3672
27986SOL     OW87488   0.092   2.161   6.790 -0.1116  0.0665 -0.0926
27986SOL    HW187489   0.177   2.168   6.835 -0.1637 -1.6115  0.3668
27986SOL    HW287490   0.051   2.246   6.802  1.6840  1.0689 -0.6924
27987SOL     OW87491   3.464  10.052   0.937 -0.2650  0.4435  0.3651
27987SOL    HW187492   3.379  10.008   0.940 -0.6063  0.9345 -1.2293
27987SOL    HW287493   3.505  10.030   1.021 -1.5568 -0.5917  0.7634
27988SOL     OW87494   7.678  10.184   2.507 -0.0330  0.3792  0.2974
27988SOL    HW187495   7.721  10.234   2.577 -0.0510 -0.9519  1.3057
27988SOL    HW287496   7.667  10.247   2.436  1.8965  1.2411  0.6962
27989SOL     OW87497   4.827   0.308  11.080 -0.2022 -0.0544 -0.4930
27989SOL    HW187498   4.866   0.293  10.993 -0.5232 -0.7895 -0.5189
27989SOL    HW287499   4.737   0.277  11.071 -0.3102  0.1046  0.0347
27990SOL     OW87500   0.659   2.700   9.456 -0.6270 -0.3708  0.2778
27990SOL    HW187501   0.641   2.794   9.463  0.8596 -0.0132 -0.1544
27990SOL    HW287502   0.580   2.662   9.419  0.0503  1.3287 -3.3564
27991SOL     OW87503   4.360   6.102   4.744  0.5190  0.7402  0.0102
27991SOL    HW187504   4.354   6.012   4.777 -0.8890  0.3823 -1.1196
27991SOL    HW287505   4.424   6.097   4.673  1.1406  0.8506  0.5459
27992SOL     OW87506   6.906   5.180   5.851 -0.9021  0.5254  0.5323
27992SOL    HW187507   6.815   5.186   5.880 -0.7777 -1.9974  1.7206
27992SOL    HW287508   6.951   5.135   5.922  0.7152 -0.6007 -1.1225
27993SOL     OW87509   6.640   1.707   4.538  0.1340 -0.1517 -0.2193
27993SOL    HW187510   6.661   1.727   4.629  0.2475  0.9704 -0.4826
27993SOL    HW287511   6.566   1.647   4.544 -0.6639  0.8755  0.5991
27994SOL     OW87512   3.226   8.402   0.174 -0.2096 -0.0011 -0.1198
27994SOL    HW187513   3.278   8.350   0.235  0.7101 -1.5319 -2.0861
27994SOL    HW287514   3.138   8.404   0.213 -0.4257 -3.4716 -0.0952
27995SOL     OW87515   5.853   5.632   8.847  0.8536 -0.0669 -0.0840
27995SOL    HW187516   5.800   5.592   8.916 -1.5330 -0.1339 -1.8276
27995SOL    HW287517   5.807   5.713   8.826  1.7156  0.1099 -1.3559
27996SOL     OW87518   0.094  10.104   7.485  0.2641 -0.4698 -0.0298
27996SOL    HW187519  -0.001  10.089   7.483 -0.2616  1.8399  2.0823
27996SOL    HW287520   0.112  10.151   7.403 -0.7151  0.3503  0.1998
27997SOL     OW87521   9.382   6.614   3.181 -0.1823  0.1685 -0.1919
27997SOL    HW187522   9.355   6.661   3.102  0.2664  1.7456  0.5470
27997SOL    HW287523   9.317   6.641   3.247 -0.5346 -1.1031  0.0003
27998SOL     OW87524   7.873   0.683   7.435  0.5141  0.6016 -0.2810
27998SOL    HW187525   7.918   0.731   7.366  0.5577  0.4146 -0.3837
27998SOL    HW287526   7.934   0.685   7.509  0.7809  0.1753 -0.4842
27999SOL     OW87527   1.664   5.517   5.699  0.3431  0.3804 -0.0720
27999SOL    HW187528   1.744   5.550   5.658  1.9308  1.0833  3.2593
27999SOL    HW287529   1.696   5.461   5.770 -1.9180  2.9252  3.2412
28000SOL     OW87530   9.875   4.789   8.804  0.7680 -0.6599  0.1458
28000SOL    HW187531   9.815   4.742   8.747 -1.2401  0.0307  1.6112
28000SOL    HW287532   9.922   4.720   8.851 -0.9866 -1.2390  1.1053
28001SOL     OW87533   7.560   6.018   9.756 -0.1651 -0.1092 -0.1137
28001SOL    HW187534   7.515   5.965   9.821  1.4169  0.0904  1.1941
28001SOL    HW287535   7.618   5.956   9.711  0.9304  0.2881  0.7189
28002SOL     OW87536   3.983   9.429   6.159  0.2419  0.3018 -0.5130
28002SOL    HW187537   3.937   9.346   6.157  0.0428  0.3934 -0.0616
28002SOL    HW287538   3.951   9.477   6.083  1.2026 -0.4631 -1.4308
28003SOL     OW87539   5.292   3.619   8.079 -0.0158 -0.6014 -0.1199
28003SOL    HW187540   5.228   3.645   8.146 -0.7321  0.1813 -1.0814
28003SOL    HW287541   5.354   3.691   8.076  0.6184 -1.1142  0.4245
28004SOL     OW87542   9.536   3.347   3.771 -0.0692  0.4620 -0.2076
28004SOL    HW187543   9.542   3.293   3.850  0.1683  1.1900  0.2808
28004SOL    HW287544   9.472   3.302   3.716  1.8850 -1.6932 -0.8991
28005SOL     OW87545   8.565   2.225   7.660  0.0344  0.2109 -0.0470
28005SOL    HW187546   8.585   2.304   7.610 -0.3429  0.2809 -0.0964
28005SOL    HW287547   8.532   2.163   7.594 -2.0749  0.8613  0.2976
28006SOL     OW87548  10.449  10.620   7.173  0.4323 -0.2859 -0.3347
28006SOL    HW187549  10.445  10.526   7.189 -0.4377 -0.0853  0.8236
28006SOL    HW287550  10.370  10.639   7.122  0.6169 -0.1892 -0.5830
28007SOL     OW87551   7.797   1.461   7.947 -0.4312 -0.2247  0.6997
28007SOL    HW187552   7.886   1.495   7.940 -0.1916 -0.1716  3.2216
28007SOL    HW287553   7.797   1.381   7.894  0.8952  0.1438  0.1117
28008SOL     OW87554   1.148   1.911   3.353 -0.5177  0.3366  0.0362
28008SOL    HW187555   1.063   1.869   3.343 -0.7990  0.9266 -0.0848
28008SOL    HW287556   1.138   1.997   3.312  0.9113 -0.5634 -2.3832
28009SOL     OW87557   8.912   7.393   3.371  0.4633 -0.1989 -0.3274
28009SOL    HW187558   8.994   7.433   3.398  1.5306 -1.8387 -1.0134
28009SOL    HW287559   8.885   7.340   3.445 -0.3529  0.8144  0.1391
28010SOL     OW87560   2.751   9.423   2.369  0.0176  0.1635 -0.2063
28010SOL    HW187561   2.845   9.413   2.354  0.2956  1.1476  0.7163
28010SOL    HW287562   2.739   9.517   2.381 -0.6880 -0.1398  1.9953
28011SOL     OW87563   7.491   5.539   9.286 -0.2456  0.1960  0.0093
28011SOL    HW187564   7.546   5.467   9.255  0.1468  0.8521 -0.8697
28011SOL    HW287565   7.478   5.521   9.379 -0.0325 -0.9246 -0.1591
28012SOL     OW87566   7.603   6.153   7.667 -0.0573 -0.3206 -0.1063
28012SOL    HW187567   7.533   6.129   7.607 -0.7848 -1.5671  1.1872
28012SOL    HW287568   7.560   6.157   7.753  1.7072 -2.6265  0.9646
28013SOL     OW87569   9.660   1.493   0.071 -0.0988  0.2607  0.0788
28013SOL    HW187570   9.689   1.557   0.005 -1.2638 -0.5456 -1.2685
28013SOL    HW287571   9.736   1.438   0.086  0.0220  0.1030 -1.0396
28014SOL     OW87572   3.333   4.672   7.769  0.1375  0.0214  0.2657
28014SOL    HW187573   3.269   4.673   7.698 -0.0454  1.5103  0.4244
28014SOL    HW287574   3.282   4.649   7.846 -0.0484  0.3698  0.2479
28015SOL     OW87575   8.035   3.123   2.424  0.1967 -0.4851  0.0132
28015SOL    HW187576   8.071   3.134   2.512  3.6687  0.1961 -1.3354
28015SOL    HW287577   8.032   3.028   2.412 -1.0730 -0.6135  1.0800
28016SOL     OW87578   3.592   6.870   2.899 -0.0694  0.0260 -0.0146
28016SOL    HW187579   3.541   6.939   2.858  1.9283  0.5150 -1.8842
28016SOL    HW287580   3.646   6.915   2.965  0.3112  0.0702 -0.3494
28017SOL     OW87581   4.518   2.180   8.896  0.0782  0.5814 -0.0695
28017SOL    HW187582   4.525   2.220   8.809 -0.5200  0.3930 -0.2045
28017SOL    HW287583   4.493   2.253   8.953 -1.0593  0.4014 -0.3229
28018SOL     OW87584   6.315   1.597   5.394  0.2980  0.1353  0.0351
28018SOL    HW187585   6.224   1.570   5.402 -0.6438  2.6072 -1.2909
28018SOL    HW287586   6.363   1.515   5.379 -1.4775 -1.3597  1.9353
28019SOL     OW87587   0.010   7.812   3.348 -0.2538 -0.4885 -0.1543
28019SOL    HW187588   0.019   7.749   3.277  0.4340 -0.8952  0.2766
28019SOL    HW287589  -0.083   7.811   3.369 -0.5807  0.1101 -1.4576
28020SOL     OW87590  10.394   4.842   0.654 -0.0090 -0.2655 -0.1411
28020SOL    HW187591  10.456   4.850   0.726  1.1429  0.8699 -1.2050
28020SOL    HW287592  10.379   4.747   0.646  0.0700 -0.4266  1.3597
28021SOL     OW87593   9.845   1.397   0.960  0.3811  0.2746  0.3207
28021SOL    HW187594   9.779   1.330   0.974  1.2272 -0.6249  0.0860
28021SOL    HW287595   9.845   1.412   0.865  0.1629  0.6551  0.3758
28022SOL     OW87596   6.143   9.834   3.672  0.2359  0.5049  0.3988
28022SOL    HW187597   6.199   9.912   3.666  2.1344 -0.7448  1.0723
28022SOL    HW287598   6.194   9.764   3.633 -1.0373 -0.6378  0.6863
28023SOL     OW87599  10.330   4.308   8.331  0.3337  0.2187 -0.8988
28023SOL    HW187600  10.412   4.339   8.292  2.0852 -2.3573  0.4375
28023SOL    HW287601  10.298   4.382   8.383  2.9845  0.7003  0.1996
28024SOL     OW87602   2.998   2.759   8.036 -0.3119 -0.0537  0.1011
28024SOL    HW187603   2.930   2.769   7.970 -0.8658  1.1923  0.8329
28024SOL    HW287604   3.080   2.768   7.987 -0.7079  0.2202 -0.5238
28025SOL     OW87605   6.694  10.765   8.660  0.2479  0.3256 -0.9383
28025SOL    HW187606   6.762  10.782   8.726 -0.8398  0.3405  0.2211
28025SOL    HW287607   6.680  10.670   8.664  1.1444  0.1301 -2.1502
28026SOL     OW87608   8.690   8.681   4.632  0.0612  0.8775 -0.0661
28026SOL    HW187609   8.746   8.686   4.709  0.1133  1.9588 -0.1508
28026SOL    HW287610   8.722   8.605   4.584 -1.4058 -1.2076  2.0365
28027SOL     OW87611  10.036   1.288  10.275  0.3415  0.1833  0.3630
28027SOL    HW187612  10.112   1.254  10.228 -0.9789  0.6571 -2.2550
28027SOL    HW287613  10.010   1.216  10.333  2.3862 -0.1819  0.9329
28028SOL     OW87614   3.649  10.777   3.007  0.0438 -0.7164 -0.1420
28028SOL    HW187615   3.651  10.868   3.037 -0.8029 -0.7691  0.1162
28028SOL    HW287616   3.592  10.779   2.930  0.0515 -1.0192 -0.1558
28029SOL     OW87617  10.985   4.596   8.114  1.2173 -0.0993 -0.3820
28029SOL    HW187618  11.046   4.555   8.053  1.8423 -0.9094  0.7542
28029SOL    HW287619  11.011   4.563   8.200  0.1632  0.7725  0.2967
28030SOL     OW87620   0.087   8.951  10.703 -0.2449 -0.1273 -0.0954
28030SOL    HW187621   0.177   8.954  10.735 -0.1636  0.4898 -0.3717
28030SOL    HW287622   0.041   9.017  10.755 -0.8225 -1.2595  0.8823
28031SOL     OW87623   4.298   8.618   9.642  0.0140  0.0846  0.2259
28031SOL    HW187624   4.231   8.550   9.633  0.1989  0.0524 -1.3378
28031SOL    HW287625   4.347   8.612   9.560 -0.4122  2.5692 -0.2756
28032SOL     OW87626   0.816   1.414   1.115  0.2115 -0.0505  0.3574
28032SOL    HW187627   0.895   1.360   1.108 -1.1807 -2.2412  0.3310
28032SOL    HW287628   0.837   1.494   1.068  2.0672 -1.0015 -0.5477
28033SOL     OW87629   3.894  10.309  10.426  0.8393  0.2861 -0.0625
28033SOL    HW187630   3.940  10.226  10.439  1.3560  0.4846 -0.6252
28033SOL    HW287631   3.881  10.343  10.515  1.3718  0.0158  0.1211
28034SOL     OW87632   5.572   6.018   2.159  0.1569 -0.0494  0.0716
28034SOL    HW187633   5.526   5.937   2.138  0.1731 -0.5341  1.7538
28034SOL    HW287634   5.640   5.991   2.221  0.0648  1.2746  0.7735
28035SOL     OW87635   8.932   0.878   5.185 -0.1354  0.5300 -0.2097
28035SOL    HW187636   8.940   0.819   5.260 -1.5402 -2.1814 -2.0303
28035SOL    HW287637   8.840   0.905   5.185 -0.6942 -1.1234 -1.9611
28036SOL     OW87638  11.071   6.094   6.947 -0.2325 -0.1110 -0.1947
28036SOL    HW187639  10.975   6.096   6.944 -0.2506  0.7325  0.5083
28036SOL    HW287640  11.094   6.166   7.006  0.7746 -1.3268  0.9486
28037SOL     OW87641   0.987   3.393   9.724 -0.1363 -0.8111 -0.3601
28037SOL    HW187642   0.909   3.402   9.669 -1.0364 -0.8100  0.8649
28037SOL    HW287643   0.952   3.371   9.811  1.2718 -1.4631  0.0626
28038SOL     OW87644   7.198   3.669   2.365  0.5870  0.3144 -0.0093
28038SOL    HW187645   7.190   3.758   2.329 -1.3743  1.1061  2.0917
28038SOL    HW287646   7.153   3.674   2.450 -0.0257 -2.8231 -0.0363
28039SOL     OW87647   4.968   3.310   0.684  0.3037  0.2927  0.4277
28039SOL    HW187648   4.901   3.311   0.615  1.3837 -1.3418 -0.6950
28039SOL    HW287649   5.046   3.346   0.643  1.6720 -2.9007 -0.0946
28040SOL     OW87650   1.513   7.455   0.948 -0.4178  0.2562 -0.2298
28040SOL    HW187651   1.450   7.527   0.953 -0.0841  0.5326  0.1019
28040SOL    HW287652   1.463   7.382   0.912 -1.2410  0.1426  1.0707
28041SOL     OW87653   8.009   8.245   7.525 -0.1519 -0.0514 -0.2439
28041SOL    HW187654   8.022   8.324   7.473 -0.4211  0.4428  0.4204
28041SOL    HW287655   7.915   8.243   7.543 -0.1235 -0.4336 -0.1231
28042SOL     OW87656  10.874  10.132  11.025  0.4079  0.0875  0.0027
28042SOL    HW187657  10.842  10.154  10.938  0.1818 -0.3988 -0.0368
28042SOL    HW287658  10.848  10.207  11.079  0.5700  0.4042 -0.3459
28043SOL     OW87659   9.749   4.737   0.877 -0.3368 -0.4206 -0.4172
28043SOL    HW187660   9.831   4.786   0.874 -0.1834 -0.6550  0.0008
28043SOL    HW287661   9.682   4.802   0.857 -0.2155  0.1412  0.9516
28044SOL     OW87662   5.554   9.304   5.311 -0.8627  0.0433 -0.7878
28044SOL    HW187663   5.617   9.373   5.330  1.4179 -2.0902 -0.0875
28044SOL    HW287664   5.586   9.264   5.230 -2.1282 -0.2244 -1.1705
28045SOL     OW87665   9.640   3.747   9.081 -0.6668  0.1014 -0.3796
28045SOL    HW187666   9.611   3.657   9.097 -0.8613  0.2452  0.0786
28045SOL    HW287667   9.571   3.786   9.028 -0.9431  0.2075  0.0555
28046SOL     OW87668   9.796   0.122   0.536 -0.0205  0.3786 -0.2890
28046SOL    HW187669   9.703   0.145   0.533  0.2031  1.3231 -0.4293
28046SOL    HW287670   9.823   0.120   0.444  0.0687 -0.0495 -0.2572
28047SOL     OW87671   8.842  10.145   0.975 -0.1644 -0.0862 -1.0180
28047SOL    HW187672   8.810  10.173   0.890  0.4606  0.8133 -0.9765
28047SOL    HW287673   8.937  10.159   0.970 -0.0457 -0.6048 -0.3818
28048SOL     OW87674   2.678   2.740   9.123 -0.6041  0.0550  0.2405
28048SOL    HW187675   2.610   2.802   9.151 -0.8737  0.7548 -1.7989
28048SOL    HW287676   2.638   2.694   9.049  1.0196  0.2324 -0.7769
28049SOL     OW87677   2.833   8.230   1.365 -0.0627  0.0651  0.5621
28049SOL    HW187678   2.835   8.324   1.382  1.8428 -0.0161  1.0507
28049SOL    HW287679   2.901   8.216   1.299  2.5846 -1.4034  3.3669
28050SOL     OW87680   9.463   9.069  10.398  0.6882  0.0016 -0.2429
28050SOL    HW187681   9.382   9.018  10.398  1.2728 -0.9620  0.4699
28050SOL    HW287682   9.468   9.107  10.310 -0.9055  0.7031 -0.0570
28051SOL     OW87683   1.958   2.416  10.993  0.9455  0.1368 -0.0307
28051SOL    HW187684   1.937   2.461  10.911  0.8898 -1.2188 -0.7893
28051SOL    HW287685   1.909   2.463  11.059 -1.1894 -0.3813 -1.1625
28052SOL     OW87686   0.199   8.469   1.078  0.0694  0.1052 -0.2735
28052SOL    HW187687   0.220   8.483   0.985 -1.0987 -1.6074 -0.8595
28052SOL    HW287688   0.266   8.518   1.125  0.8066  0.8847 -2.0217
28053SOL     OW87689   7.612   4.597   7.991 -0.0743  0.0026  0.5789
28053SOL    HW187690   7.526   4.565   8.017  0.6321 -0.9429  1.8317
28053SOL    HW287691   7.648   4.638   8.070  2.3178 -3.3557  1.4884
28054SOL     OW87692   8.567   5.543   4.632  0.2477  0.0088 -0.2791
28054SOL    HW187693   8.487   5.492   4.620  0.1532  0.1624 -0.3177
28054SOL    HW287694   8.536   5.628   4.664  0.3378  0.2952 -0.9161
28055SOL     OW87695   8.459   3.514   3.383  0.4756 -0.3579  0.2610
28055SOL    HW187696   8.435   3.512   3.290 -0.2324 -1.7560  0.4460
28055SOL    HW287697   8.377   3.500   3.429  0.9532 -0.5070  1.0730
28056SOL     OW87698  10.230  10.621   0.956 -0.0443  0.0152 -0.0350
28056SOL    HW187699  10.195  10.708   0.937  0.8927  0.7001  1.2120
28056SOL    HW287700  10.323  10.629   0.936 -0.4438 -1.7407 -3.2230
28057SOL     OW87701   8.101   1.348   2.082  0.2552 -0.0903 -0.5196
28057SOL    HW187702   8.018   1.343   2.035 -1.0352 -2.2891  1.7388
28057SOL    HW287703   8.133   1.258   2.084  1.8294  0.4494  0.1396
28058SOL     OW87704   6.907   7.778   7.252 -0.1913 -0.5161 -0.6543
28058SOL    HW187705   6.967   7.715   7.293  1.2323  0.9116 -0.4279
28058SOL    HW287706   6.845   7.801   7.321  0.3733 -0.3536 -0.1896
28059SOL     OW87707   6.682   9.922   3.317 -0.0168  0.0259  0.0064
28059SOL    HW187708   6.724   9.880   3.393 -0.9876  1.0760  1.1693
28059SOL    HW287709   6.635   9.850   3.274  0.7099 -0.6311  0.2735
28060SOL     OW87710   9.349   0.803   7.559  0.3692  0.8081  0.3887
28060SOL    HW187711   9.387   0.886   7.530 -1.2852  0.6659 -2.4950
28060SOL    HW287712   9.269   0.827   7.605 -1.5744  0.8878 -2.7737
28061SOL     OW87713   2.961   3.856   4.742 -0.2568 -0.2592  0.3573
28061SOL    HW187714   3.004   3.910   4.809  0.3297 -0.0064 -0.2157
28061SOL    HW287715   3.031   3.834   4.681 -0.6942 -0.8884  0.0810
28062SOL     OW87716   1.776   2.765   4.766  0.1468  0.0521 -0.0161
28062SOL    HW187717   1.705   2.810   4.812 -0.6630 -0.4872 -0.7018
28062SOL    HW287718   1.829   2.726   4.835  0.2007  1.0801  0.5387
28063SOL     OW87719   1.796  11.030   4.625 -0.0941  0.3321  0.0275
28063SOL    HW187720   1.801  10.935   4.631 -0.4190  0.2919 -0.3587
28063SOL    HW287721   1.706  11.049   4.598 -0.7749  0.8680  2.4298
28064SOL     OW87722   1.654   3.394   1.698  0.0560  0.1395  0.4324
28064SOL    HW187723   1.704   3.350   1.629  0.8236 -0.2122  1.1949
28064SOL    HW287724   1.709   3.386   1.777 -0.1913  1.6625  0.8048
28065SOL     OW87725   4.978   7.382   1.336  0.0990  0.0929 -0.0956
28065SOL    HW187726   5.002   7.338   1.417 -0.5041 -1.0007 -0.4928
28065SOL    HW287727   4.883   7.392   1.342  0.1415  0.6829 -0.3379
28066SOL     OW87728  11.013   8.393   4.657  0.4197  0.1844 -0.3476
28066SOL    HW187729  11.006   8.431   4.570  0.3611 -1.0120 -0.8875
28066SOL    HW287730  10.928   8.409   4.698  0.3795  0.5707 -0.5825
28067SOL     OW87731   9.964   4.093  11.061  0.3988 -0.4305 -0.0666
28067SOL    HW187732   9.890   4.054  11.014 -0.1658  1.0190 -0.4493
28067SOL    HW287733   9.990   4.168  11.006  0.7772  0.3282  1.1126
28068SOL     OW87734   1.630   4.025   3.200 -0.2143 -0.4699 -0.1382
28068SOL    HW187735   1.683   3.951   3.169 -1.1867 -0.3068 -2.4734
28068SOL    HW287736   1.679   4.062   3.273  0.7206 -2.8944  0.5658
28069SOL     OW87737   9.992   0.228   1.689 -0.1997 -0.4322 -0.3475
28069SOL    HW187738  10.032   0.179   1.761 -0.2131 -0.0373 -0.0676
28069SOL    HW287739  10.021   0.183   1.610 -0.9624 -1.4572 -0.0662
28070SOL     OW87740   6.881   0.426  10.633 -0.4196 -0.1708  0.6225
28070SOL    HW187741   6.909   0.422  10.542 -0.2269  1.1897  0.5942
28070SOL    HW287742   6.956   0.394  10.683 -0.5499 -0.9810  0.3043
28071SOL     OW87743   6.123   3.496   3.849 -0.2472 -0.5292 -0.2704
28071SOL    HW187744   6.185   3.440   3.895 -0.7130  0.1682  1.2575
28071SOL    HW287745   6.172   3.575   3.828 -0.9644  0.7583  2.4611
28072SOL     OW87746  10.554   1.331   5.440 -0.0374  0.3953 -0.1228
28072SOL    HW187747  10.607   1.283   5.505 -0.4892 -0.1450 -0.1488
28072SOL    HW287748  10.607   1.407   5.418  1.1909 -0.6401 -0.8926
28073SOL     OW87749   2.361   7.805   8.986  0.5396 -0.1767 -0.8226
28073SOL    HW187750   2.456   7.793   8.985  0.4656 -0.7956 -0.7813
28073SOL    HW287751   2.346   7.882   8.931  1.0110 -0.5132 -1.4329
28074SOL     OW87752   7.178  10.591   4.978  0.2231 -0.1629 -0.0086
28074SOL    HW187753   7.088  10.619   4.997 -0.3152 -2.3549  1.0219
28074SOL    HW287754   7.173  10.495   4.974  2.4521 -0.3208 -0.3862
28075SOL     OW87755   0.695   2.817   8.670 -0.0025 -0.8212  0.2734
28075SOL    HW187756   0.772   2.839   8.617 -0.5859  0.9293  0.0793
28075SOL    HW287757   0.622   2.818   8.608 -0.3098 -1.6038  0.6124
28076SOL     OW87758   1.943   6.243   5.069  0.2900  0.3381 -0.0295
28076SOL    HW187759   1.883   6.254   5.143  0.4589  1.7469 -0.0665
28076SOL    HW287760   2.030   6.246   5.108  0.3693 -0.7062 -0.0954
28077SOL     OW87761  10.466   2.969   1.252  1.1062 -0.2924  0.5639
28077SOL    HW187762  10.450   2.935   1.164  2.3538 -0.1621  0.2716
28077SOL    HW287763  10.418   3.052   1.255  0.9454 -0.3635  0.0537
28078SOL     OW87764   5.323   5.187   1.071  0.1187  0.1118  0.1948
28078SOL    HW187765   5.310   5.190   0.976 -1.3322  0.8405  0.4062
28078SOL    HW287766   5.241   5.219   1.109  1.6847  2.7784  1.6500
28079SOL     OW87767   9.933   9.809   0.869  0.0230 -0.0729 -0.7937
28079SOL    HW187768   9.886   9.883   0.830 -2.0244 -0.2382  1.1302
28079SOL    HW287769  10.024   9.836   0.869 -0.5738  2.1249 -0.8949
28080SOL     OW87770   8.572   0.342   3.943  0.0136  0.5505 -0.1909
28080SOL    HW187771   8.577   0.314   3.851 -1.2723  0.1632 -0.1676
28080SOL    HW287772   8.512   0.417   3.941 -0.2748  0.3363  0.3695
28081SOL     OW87773   2.484  10.080   9.972  0.0830  0.5205  0.1375
28081SOL    HW187774   2.579  10.073   9.959 -0.2190 -0.0645 -2.2854
28081SOL    HW287775   2.450   9.993   9.954 -0.8731  0.4351  2.0804
28082SOL     OW87776   6.331   6.556   4.024  0.0408 -0.4969  0.1832
28082SOL    HW187777   6.347   6.462   4.033  0.4201 -0.6545 -1.7491
28082SOL    HW287778   6.236   6.564   4.023 -0.0002 -0.7686  1.0140
28083SOL     OW87779   1.359   1.387   6.304  0.1786 -0.1985 -0.1348
28083SOL    HW187780   1.312   1.459   6.347  1.7294  1.1783 -0.6237
28083SOL    HW287781   1.290   1.330   6.270 -1.1361  1.7259 -0.8514
28084SOL     OW87782   6.515   2.863   5.119 -0.2654 -0.2532 -0.0506
28084SOL    HW187783   6.607   2.837   5.109  0.2321  0.8118  1.2683
28084SOL    HW287784   6.500   2.926   5.049 -0.4723 -1.5579 -1.2057
28085SOL     OW87785   0.772  10.170  10.545  0.3204  0.0381  0.3547
28085SOL    HW187786   0.709  10.202  10.481 -1.0575 -1.5680  0.8267
28085SOL    HW287787   0.826  10.107  10.497 -0.6886 -1.1381  0.7197
28086SOL     OW87788   8.624   0.882   0.083 -0.5255  0.0721 -0.6294
28086SOL    HW187789   8.685   0.857   0.013 -0.1572 -1.1547  0.1077
28086SOL    HW287790   8.558   0.813   0.083 -1.2803  0.7803 -0.6350
28087SOL     OW87791   5.208   0.962   3.152 -0.6251 -0.4190 -0.7731
28087SOL    HW187792   5.240   0.897   3.214  0.6211  0.3555 -0.5777
28087SOL    HW287793   5.162   0.911   3.085 -0.3941 -1.4182 -0.1960
28088SOL     OW87794   3.677   2.750   9.926 -0.3118  0.1016 -0.0468
28088SOL    HW187795   3.713   2.753   9.837  0.6277 -0.9890  0.2737
28088SOL    HW287796   3.605   2.687   9.921  0.2557 -0.5709  0.1281
28089SOL     OW87797   9.774   7.783   3.001  0.6558  0.2128 -0.4790
28089SOL    HW187798   9.732   7.868   3.006  0.0069 -0.1910  1.7659
28089SOL    HW287799   9.867   7.801   3.011  0.3713  0.5517  2.0596
28090SOL     OW87800   9.193   9.140   3.196 -0.4155  0.0494  0.5762
28090SOL    HW187801   9.258   9.133   3.265  0.3703 -0.0093 -0.1526
28090SOL    HW287802   9.120   9.087   3.227 -0.6242  1.0921  1.9507
28091SOL     OW87803   0.851   4.257   0.493 -0.3552 -0.1572 -0.0358
28091SOL    HW187804   0.840   4.185   0.431 -0.6866  0.6698 -0.9720
28091SOL    HW287805   0.915   4.225   0.557  0.4547 -0.8145 -1.1490
28092SOL     OW87806   2.799   1.174   0.902  0.5425  0.0037 -0.0676
28092SOL    HW187807   2.891   1.202   0.898  0.1604  1.2578 -0.6159
28092SOL    HW287808   2.751   1.243   0.856 -0.3475 -2.2989 -2.8188
28093SOL     OW87809  10.527   4.031   3.401  0.2866  0.0569  0.0343
28093SOL    HW187810  10.492   3.963   3.343  0.5108 -1.4486  1.5790
28093SOL    HW287811  10.536   4.108   3.345 -3.2431 -0.1075 -1.0267
28094SOL     OW87812   9.774  10.603  10.307 -0.0773 -0.4077 -0.5443
28094SOL    HW187813   9.755  10.676  10.249  0.2036 -0.6040 -0.8805
28094SOL    HW287814   9.787  10.643  10.393 -1.5218 -0.2067 -0.3889
28095SOL     OW87815   9.972   8.495   6.298  0.0146 -0.2124 -0.7968
28095SOL    HW187816   9.933   8.496   6.386  0.4182  1.2847 -0.6052
28095SOL    HW287817  10.021   8.413   6.295  1.0294  0.2698  0.8684
28096SOL     OW87818   9.686  10.554   0.615 -0.0365 -0.0578  0.4337
28096SOL    HW187819   9.666  10.471   0.571  0.5712 -0.6141  1.1827
28096SOL    HW287820   9.767  10.537   0.663  0.3834  1.1359  0.1690
28097SOL     OW87821   2.256   1.822   6.760 -0.5622 -0.7314 -0.3270
28097SOL    HW187822   2.285   1.832   6.850 -2.0840  0.9711  0.0308
28097SOL    HW287823   2.331   1.849   6.707 -0.0768 -0.5191  0.4512
28098SOL     OW87824   4.733   7.827   7.407 -0.0946  0.0697  0.3582
28098SOL    HW187825   4.821   7.795   7.387  0.0906  0.9548 -0.3416
28098SOL    HW287826   4.746   7.896   7.472 -0.2957  0.0469  0.4239
28099SOL     OW87827   3.071   1.689   9.814  0.1564  0.3394  0.0389
28099SOL    HW187828   3.005   1.621   9.798 -1.4370  1.5117  1.2303
28099SOL    HW287829   3.116   1.660   9.893 -0.1855  0.4201  0.2654
28100SOL     OW87830   8.631   3.464   1.473 -0.8242  0.9165  0.2042
28100SOL    HW187831   8.567   3.401   1.506  0.1066 -0.4549 -0.5375
28100SOL    HW287832   8.693   3.475   1.545 -1.8902  2.3185  0.9589
28101SOL     OW87833   4.428   0.851   4.534 -0.1637 -0.2501 -0.2158
28101SOL    HW187834   4.519   0.837   4.558 -0.4787 -2.0667  0.0621
28101SOL    HW287835   4.379   0.839   4.615 -0.7719 -0.9732 -0.6717
28102SOL     OW87836  10.833  10.646   9.997  0.0382  0.3559  0.4082
28102SOL    HW187837  10.806  10.590  10.070 -0.9843 -0.8784 -0.8543
28102SOL    HW287838  10.928  10.650  10.003  0.0511 -0.7016  1.1245
28103SOL     OW87839   0.890   0.627   5.621 -0.3782 -0.3313  0.1200
28103SOL    HW187840   0.876   0.539   5.654 -0.3287  0.5969  2.8548
28103SOL    HW287841   0.982   0.645   5.638 -0.3200  0.1741 -0.6544
28104SOL     OW87842  10.718  10.872   4.396 -0.2428 -0.0764  0.3437
28104SOL    HW187843  10.758  10.957   4.414  0.1806  0.0030 -0.8664
28104SOL    HW287844  10.684  10.881   4.307  0.3301 -1.3493 -0.0253
28105SOL     OW87845   3.600   0.036   5.317 -0.3229 -0.2015 -0.2704
28105SOL    HW187846   3.609  -0.044   5.265  0.0067 -0.4372  0.1408
28105SOL    HW287847   3.561   0.099   5.257 -0.8238 -0.7419 -0.5265
28106SOL     OW87848   3.522   3.028   4.616  0.1559  0.0825  0.2184
28106SOL    HW187849   3.488   2.957   4.562  2.0952  0.2604 -1.3793
28106SOL    HW287850   3.605   2.994   4.651  0.4252  1.0598  0.5681
28107SOL     OW87851   6.885   5.041   8.754  0.9749 -0.2902  0.5696
28107SOL    HW187852   6.897   5.064   8.662 -1.1647  1.1683  0.5909
28107SOL    HW287853   6.967   5.069   8.796  2.4144 -1.9296 -0.9841
28108SOL     OW87854   7.298   2.460   7.808  0.5657  0.2077  0.2921
28108SOL    HW187855   7.369   2.523   7.822  0.4627  0.1043  1.3365
28108SOL    HW287856   7.226   2.512   7.773  1.4785  0.1443 -1.8660
28109SOL     OW87857  10.931   0.933   6.487 -0.2783  0.1550 -0.4814
28109SOL    HW187858  10.837   0.912   6.486 -0.6909  1.7948 -2.0897
28109SOL    HW287859  10.950   0.951   6.579 -2.0073  1.4820 -0.3087
28110SOL     OW87860   8.426   3.416   7.211 -0.5385  0.3847  0.0598
28110SOL    HW187861   8.516   3.385   7.197 -0.5839  0.4077 -0.2755
28110SOL    HW287862   8.371   3.351   7.168 -0.7821 -0.5184  1.6481
28111SOL     OW87863   3.317   1.749   3.446  0.0138  0.1348  0.2693
28111SOL    HW187864   3.278   1.757   3.359 -3.4361  0.7025  1.6968
28111SOL    HW287865   3.293   1.660   3.474  0.8561  0.0543  0.7655
28112SOL     OW87866   7.445   6.439   4.890 -0.4057 -0.2241 -0.3823
28112SOL    HW187867   7.533   6.441   4.853 -0.1078 -2.1834  0.1483
28112SOL    HW287868   7.433   6.527   4.925 -0.4886  1.6198 -4.4463
28113SOL     OW87869   6.537   0.880   1.690 -0.0950  0.0046 -0.4631
28113SOL    HW187870   6.508   0.800   1.732 -1.4289  0.3293 -0.7092
28113SOL    HW287871   6.608   0.853   1.631 -0.5907 -1.0043 -0.6130
28114SOL     OW87872   6.230   2.482   8.086  0.5932  0.4767  0.3225
28114SOL    HW187873   6.215   2.422   8.159 -1.1480 -0.5367 -0.8168
28114SOL    HW287874   6.246   2.567   8.128 -0.6250 -0.0275  1.8885
28115SOL     OW87875   9.533   2.988   0.153  0.1081  0.1400 -0.0540
28115SOL    HW187876   9.547   3.070   0.200  0.4805  0.7346 -1.1523
28115SOL    HW287877   9.604   2.931   0.181 -0.3087  0.0950  0.9216
28116SOL     OW87878   6.409   4.405   8.073 -0.1033  0.1918  0.1548
28116SOL    HW187879   6.498   4.430   8.047 -0.2156 -0.5125 -0.9890
28116SOL    HW287880   6.420   4.355   8.154  0.4926  0.4628  0.2453
28117SOL     OW87881   7.145   3.940   2.265  0.0041 -0.2224  0.0701
28117SOL    HW187882   7.144   3.991   2.346  1.0034  0.1526 -0.1334
28117SOL    HW287883   7.186   3.998   2.201 -2.4901  0.2534 -1.2531
28118SOL     OW87884   5.082   5.745   8.470  0.1765 -0.4349  0.1874
28118SOL    HW187885   5.101   5.652   8.458  1.2010 -0.5507  2.2286
28118SOL    HW287886   5.073   5.756   8.564 -0.4481  1.4603 -0.0436
28119SOL     OW87887   5.917   5.207   2.789  0.3212  0.0465 -0.3064
28119SOL    HW187888   5.936   5.154   2.866 -0.0328 -0.5429 -0.6173
28119SOL    HW287889   5.822   5.200   2.777  0.1910  1.1594 -0.0606
28120SOL     OW87890   9.640   2.884   5.802  0.1692  0.1898  0.1572
28120SOL    HW187891   9.637   2.793   5.833  1.4146  0.0998  0.0665
28120SOL    HW287892   9.574   2.929   5.854  1.2379 -0.2574  1.9877
28121SOL     OW87893   5.751   5.527   9.984  0.3889 -0.6576  0.3109
28121SOL    HW187894   5.720   5.559  10.068  1.0212  0.6132  0.0808
28121SOL    HW287895   5.796   5.602   9.944 -1.9728 -0.4187 -2.2141
28122SOL     OW87896   3.586   5.766   8.335 -0.4045  0.0474 -0.6077
28122SOL    HW187897   3.639   5.719   8.400  0.4510  1.1357 -0.4917
28122SOL    HW287898   3.623   5.854   8.334 -0.1379 -0.0312 -2.8461
28123SOL     OW87899   5.309   7.695   2.546  0.2754 -0.0691 -0.2006
28123SOL    HW187900   5.341   7.632   2.483  0.9524  0.4700 -0.4049
28123SOL    HW287901   5.222   7.662   2.571  0.1716 -0.5035 -1.0919
28124SOL     OW87902   9.252  10.877   9.514 -0.3626  0.3132 -0.2001
28124SOL    HW187903   9.227  10.950   9.457 -1.4996  0.0074 -0.1051
28124SOL    HW287904   9.174  10.859   9.565  0.8284  1.1068  2.0596
28125SOL     OW87905   7.503   3.967   5.038  0.0054  0.4463 -0.6876
28125SOL    HW187906   7.579   3.985   4.983  0.0773 -0.3036 -0.8486
28125SOL    HW287907   7.459   3.893   4.995  0.5684 -0.7557  0.7363
28126SOL     OW87908   1.166   8.149   2.598 -0.2513 -0.1098  0.0305
28126SOL    HW187909   1.158   8.160   2.693  1.2456  0.0275  0.1641
28126SOL    HW287910   1.144   8.057   2.583 -0.1322 -0.2312  0.5679
28127SOL     OW87911   5.054   5.251   3.292  0.0836  0.6500  0.4621
28127SOL    HW187912   5.110   5.323   3.319 -0.4610  1.9104 -1.4780
28127SOL    HW287913   5.081   5.176   3.346  2.3982  1.6429  0.7848
28128SOL     OW87914   5.018   1.578   8.957 -0.0598 -0.2211 -0.1820
28128SOL    HW187915   4.961   1.611   9.027 -0.3181 -2.6158  0.8378
28128SOL    HW287916   4.960   1.527   8.901  0.1778  1.5496 -2.1525
28129SOL     OW87917  10.920   8.703  11.017  0.5669  0.4483  0.4773
28129SOL    HW187918  10.879   8.788  11.032  0.0449  0.1938  0.5251
28129SOL    HW287919  10.915   8.658  11.102 -0.7441 -0.2929  0.0422
28130SOL     OW87920   7.997   1.526  10.329 -0.3376 -0.1955 -0.1132
28130SOL    HW187921   8.066   1.507  10.393  1.5137  3.6213 -0.7302
28130SOL    HW287922   8.021   1.474  10.252  0.6143 -0.5587  0.4037
28131SOL     OW87923   1.411   9.253  10.124  0.2162 -0.2780  1.2743
28131SOL    HW187924   1.454   9.278  10.206  0.2892 -0.3089  1.2455
28131SOL    HW287925   1.400   9.336  10.077 -0.9230 -0.0899  1.8308
28132SOL     OW87926  10.483  10.334   4.441  0.0514 -0.1737 -0.4469
28132SOL    HW187927  10.400  10.382   4.446 -0.5319 -1.0776 -1.1129
28132SOL    HW287928  10.457  10.243   4.423  1.1317 -0.7178  0.5935
28133SOL     OW87929   1.776   2.636   2.441 -0.2027 -0.4204  0.0932
28133SOL    HW187930   1.815   2.683   2.368 -0.4829 -2.0927 -1.2151
28133SOL    HW287931   1.681   2.644   2.426 -0.2546 -1.3518 -0.1595
28134SOL     OW87932   3.998   9.365   9.794 -0.0369 -0.5780 -0.3436
28134SOL    HW187933   3.957   9.346   9.710  0.3805  0.5044 -0.8212
28134SOL    HW287934   4.090   9.339   9.783 -0.0231 -0.6079 -0.1666
28135SOL     OW87935   8.729   5.845   9.078 -0.2332  0.2697  0.7582
28135SOL    HW187936   8.702   5.815   9.165 -0.0841 -0.3465  0.6031
28135SOL    HW287937   8.824   5.839   9.079 -0.2836 -1.5051 -0.0227
28136SOL     OW87938   8.842   4.670   3.947 -0.2257  0.0953  0.0833
28136SOL    HW187939   8.913   4.630   3.896  0.4222  0.9638  0.2617
28136SOL    HW287940   8.762   4.640   3.905  0.1755 -2.0480  0.7152
28137SOL     OW87941   2.927   2.842   8.305 -0.2489  0.1689 -0.2864
28137SOL    HW187942   2.972   2.825   8.222 -0.4870 -0.2394 -0.3372
28137SOL    HW287943   2.835   2.852   8.280 -0.4721 -0.9029  0.0254
28138SOL     OW87944   2.628   7.373   0.892 -0.2540  0.5611  0.2481
28138SOL    HW187945   2.681   7.437   0.941  0.4004  0.0264  0.2553
28138SOL    HW287946   2.539   7.388   0.922  0.1105  0.3358  1.5132
28139SOL     OW87947   7.368   7.859   7.295  0.1501 -0.3658 -0.0290
28139SOL    HW187948   7.298   7.861   7.230  0.9737 -1.8401 -1.0155
28139SOL    HW287949   7.372   7.767   7.323  0.2425  0.1171  1.6465
28140SOL     OW87950   2.639   0.687   0.667 -0.0344  0.2094 -0.4360
28140SOL    HW187951   2.572   0.636   0.621 -0.0773 -0.1478  0.0160
28140SOL    HW287952   2.709   0.698   0.602 -0.4634  0.4594 -0.8610
28141SOL     OW87953   4.807   6.866   6.047 -0.2111  0.0282  0.2593
28141SOL    HW187954   4.760   6.897   6.125  1.1843 -0.8966  1.5347
28141SOL    HW287955   4.886   6.920   6.044 -0.2472  0.0403 -0.5076
28142SOL     OW87956   4.453   0.748  10.603 -0.1594 -0.0436 -0.1515
28142SOL    HW187957   4.531   0.698  10.577 -0.4108  0.0070 -1.0362
28142SOL    HW287958   4.400   0.752  10.524 -1.3713 -0.6111  0.5986
28143SOL     OW87959  11.116   7.595   4.856 -0.0589 -0.2236  0.1041
28143SOL    HW187960  11.057   7.632   4.922 -0.4843 -1.5154  0.4733
28143SOL    HW287961  11.149   7.514   4.896 -1.0157 -1.5164 -1.5956
28144SOL     OW87962   4.765   5.095   8.778 -0.3399  0.5769 -0.4492
28144SOL    HW187963   4.673   5.073   8.769 -0.1892 -1.6552  2.3462
28144SOL    HW287964   4.804   5.070   8.694 -1.7697 -1.4339 -0.5690
28145SOL     OW87965   3.856   7.073   9.935  0.4652 -0.1574 -0.4900
28145SOL    HW187966   3.806   7.051   9.856  1.0852  0.2938 -1.0153
28145SOL    HW287967   3.947   7.071   9.907  0.7199 -0.5131  0.3534
28146SOL     OW87968   1.692   1.645   8.169  0.2117 -0.0931  0.3971
28146SOL    HW187969   1.650   1.559   8.177 -1.2705  0.7155  1.5479
28146SOL    HW287970   1.724   1.647   8.079 -0.8521 -1.3477 -0.0382
28147SOL     OW87971   5.283  10.387   9.298 -0.0524  0.3623 -0.4716
28147SOL    HW187972   5.263  10.458   9.359  1.5618  1.9790 -1.7016
28147SOL    HW287973   5.320  10.318   9.353  0.0666  1.2170  0.5536
28148SOL     OW87974   6.774   2.197   8.025 -0.2097  0.3094  0.0852
28148SOL    HW187975   6.869   2.205   8.027  0.0954 -2.2655 -0.3723
28148SOL    HW287976   6.751   2.215   7.934 -0.0271 -0.1310 -0.0496
28149SOL     OW87977   4.333   0.581   2.058  0.0973  0.4812  0.9641
28149SOL    HW187978   4.326   0.676   2.051 -0.5919  0.3695 -0.2238
28149SOL    HW287979   4.421   0.561   2.027 -0.4123  0.6134 -0.7153
28150SOL     OW87980   3.350   7.534  10.436 -0.5906  0.2940  0.5484
28150SOL    HW187981   3.416   7.545  10.368 -1.0601 -2.3005 -0.4517
28150SOL    HW287982   3.344   7.439  10.448 -3.6008  0.4588  1.0829
28151SOL     OW87983   6.931   7.875   2.201 -0.1632  0.3184  0.3278
28151SOL    HW187984   6.896   7.792   2.234 -0.1182  1.0355  2.2623
28151SOL    HW287985   7.019   7.881   2.238  0.6473  0.2907 -1.4847
28152SOL     OW87986   5.982   1.463   2.589  0.2362 -0.1352  0.0780
28152SOL    HW187987   5.963   1.551   2.557 -0.2571 -0.3864 -0.3589
28152SOL    HW287988   5.951   1.406   2.518 -1.2615 -0.7367  1.1660
28153SOL     OW87989   7.591   0.787   0.323  0.1340 -0.8413  0.0040
28153SOL    HW187990   7.536   0.849   0.275 -0.0846 -0.4631  0.7262
28153SOL    HW287991   7.642   0.743   0.255  0.1594  0.0015 -0.5476
28154SOL     OW87992   6.974  10.115   6.050 -0.0493 -0.0322 -0.3173
28154SOL    HW187993   6.911  10.179   6.018 -0.5009  0.3595  1.3087
28154SOL    HW287994   6.974  10.046   5.983 -1.2969  0.5346 -0.9227
28155SOL     OW87995   0.243   4.970   1.608  0.2529 -0.1570  0.7719
28155SOL    HW187996   0.321   4.996   1.559  0.4142  2.2187  2.1130
28155SOL    HW287997   0.172   5.022   1.569 -0.1791 -0.4664  1.1341
28156SOL     OW87998   9.485  10.918   7.831  0.5556  0.2279 -0.0484
28156SOL    HW187999   9.448  10.932   7.918 -0.5475 -0.9361 -0.2910
28156SOL    HW288000   9.573  10.955   7.836  0.0494  1.3442  1.1557
28157SOL     OW88001   8.936   0.988   2.100 -0.3904  0.1964 -0.2103
28157SOL    HW188002   8.918   0.984   2.194 -1.7888  0.9863 -0.4228
28157SOL    HW288003   8.999   1.060   2.091  1.5698 -1.3724  0.3365
28158SOL     OW88004   9.044  10.010   4.595  0.7528  0.5720 -0.1247
28158SOL    HW188005   9.079   9.945   4.656 -1.4622 -0.2662  0.3473
28158SOL    HW288006   8.972   9.965   4.551 -0.1077  2.3550 -0.6273
28159SOL     OW88007   8.164   6.091   0.967 -0.7761  0.3321  0.0743
28159SOL    HW188008   8.229   6.073   0.899 -0.0858 -0.4979  0.9269
28159SOL    HW288009   8.100   6.020   0.959 -0.7850  0.3278  0.1820
28160SOL     OW88010   2.248   5.908   5.880  0.2071  0.0293 -0.0604
28160SOL    HW188011   2.337   5.909   5.915  0.6726  2.1034 -1.0866
28160SOL    HW288012   2.260   5.925   5.786 -1.2269 -0.7885 -0.4172
28161SOL     OW88013   3.869   9.791   2.978  0.2442 -0.0274  0.0421
28161SOL    HW188014   3.778   9.771   2.999 -1.0972  1.3155 -3.6455
28161SOL    HW288015   3.877   9.885   2.994  0.0530  0.4209 -2.1596
28162SOL     OW88016   3.119   7.081   4.487  0.5040 -0.2338  0.3761
28162SOL    HW188017   3.157   7.131   4.415 -0.5498 -0.6693 -0.5207
28162SOL    HW288018   3.026   7.105   4.486  0.5657  0.1750  1.9613
28163SOL     OW88019  10.018   3.324   8.455  0.2735  0.5646 -0.4911
28163SOL    HW188020  10.057   3.377   8.524  0.3737 -0.4087  0.2158
28163SOL    HW288021  10.085   3.259   8.432 -1.4624 -2.4966  2.1923
28164SOL     OW88022   9.549   4.689  10.356  0.5277 -0.3717  0.0723
28164SOL    HW188023   9.514   4.627  10.421  1.2914 -1.4738 -0.5351
28164SOL    HW288024   9.498   4.671  10.277  1.9152 -1.4726 -0.6063
28165SOL     OW88025   9.571   3.710  10.567 -0.1823  0.0758  0.1584
28165SOL    HW188026   9.620   3.670  10.495 -1.5453  0.2674 -0.9197
28165SOL    HW288027   9.603   3.800  10.571  0.0247  0.0140 -0.1014
28166SOL     OW88028   5.886   3.084  10.818 -0.6243  0.0024  0.5592
28166SOL    HW188029   5.907   3.132  10.738 -0.0192 -1.2210 -0.0305
28166SOL    HW288030   5.793   3.062  10.809 -1.1369  1.7025  1.2075
28167SOL     OW88031   7.180   0.424   0.946  0.2116 -0.5795  0.1217
28167SOL    HW188032   7.270   0.414   0.977  0.7407 -0.9118 -1.4128
28167SOL    HW288033   7.184   0.496   0.882 -0.8777  0.2579  0.9434
28168SOL     OW88034   9.977   2.125   7.399 -0.2675 -0.6847 -0.0574
28168SOL    HW188035  10.045   2.189   7.383 -1.4487  0.3735 -0.9775
28168SOL    HW288036   9.967   2.124   7.495 -1.6732  2.1160 -0.0867
28169SOL     OW88037   2.370   1.999   8.043 -0.3133 -0.2045 -0.1479
28169SOL    HW188038   2.442   1.942   8.067 -0.4503 -0.4136 -0.2279
28169SOL    HW288039   2.341   1.966   7.958  0.5277  0.8638 -0.8840
28170SOL     OW88040   1.907   8.654   2.398  0.0553 -0.2574  0.1289
28170SOL    HW188041   1.900   8.736   2.446 -0.9902 -0.7046  0.7677
28170SOL    HW288042   1.845   8.595   2.441 -0.4758 -0.8552 -1.4054
28171SOL     OW88043   0.368   1.677  10.049  0.3473 -0.3912 -0.2014
28171SOL    HW188044   0.373   1.697   9.956 -0.3594  2.2161  0.2386
28171SOL    HW288045   0.308   1.603  10.055  0.6409 -0.8003 -1.8083
28172SOL     OW88046   5.240   2.609   8.961  0.2776  0.1504 -0.0613
28172SOL    HW188047   5.177   2.674   8.931  0.3689  0.0063 -0.5938
28172SOL    HW288048   5.324   2.640   8.926  0.2894 -0.3539 -0.5048
28173SOL     OW88049   5.880   3.131   3.865 -0.1188  0.3093 -0.0156
28173SOL    HW188050   5.846   3.221   3.867 -0.7618  0.0679  1.0401
28173SOL    HW288051   5.947   3.129   3.934  0.5069  0.1945 -0.6134
28174SOL     OW88052   5.112  10.897   0.785  0.1193 -0.1670 -0.1316
28174SOL    HW188053   5.184  10.838   0.805  0.2575 -0.0213 -0.1933
28174SOL    HW288054   5.050  10.885   0.857 -0.0154 -0.6394 -0.3228
28175SOL     OW88055   5.783   8.875   4.436 -0.5281 -0.1480  0.3118
28175SOL    HW188056   5.732   8.826   4.372 -0.8224  0.5042  0.0338
28175SOL    HW288057   5.804   8.811   4.505 -1.6490 -0.4562  0.3880
28176SOL     OW88058   0.389   2.599   8.982 -0.2631  0.0373  0.2546
28176SOL    HW188059   0.353   2.570   8.897 -0.0163 -0.7165  0.3963
28176SOL    HW288060   0.483   2.606   8.966 -0.2607  0.2607  0.3701
28177SOL     OW88061   7.289   8.913   0.491  0.2158 -0.0125  0.7580
28177SOL    HW188062   7.363   8.973   0.484 -2.0956  3.0363  0.4664
28177SOL    HW288063   7.302   8.870   0.576  3.2640 -1.1543 -0.1249
28178SOL     OW88064   0.707   6.808  10.980  0.4551  0.0722 -0.4239
28178SOL    HW188065   0.726   6.902  10.984  0.8191 -0.0336  0.6009
28178SOL    HW288066   0.635   6.796  11.042  1.5831 -0.5926  0.7931
28179SOL     OW88067   2.918   7.708   8.355 -0.6364 -0.6135  0.0856
28179SOL    HW188068   2.836   7.747   8.326 -0.1086  0.1337 -0.4578
28179SOL    HW288069   2.901   7.677   8.443 -0.9434  1.3554  0.7621
28180SOL     OW88070   6.609   2.617   8.670 -0.2625 -0.3090  0.3255
28180SOL    HW188071   6.696   2.582   8.652  0.5002  1.4536  0.3924
28180SOL    HW288072   6.558   2.596   8.592  0.9311  0.7407 -0.7916
28181SOL     OW88073   7.428  10.348  10.894  0.1693 -0.1104 -0.4876
28181SOL    HW188074   7.516  10.373  10.923  0.6728 -1.2905 -0.9177
28181SOL    HW288075   7.431  10.253  10.889 -0.2029 -0.0714 -3.2841
28182SOL     OW88076   6.679   5.779   6.437  0.3442  0.8115 -0.7453
28182SOL    HW188077   6.720   5.728   6.507  1.7482 -0.6172 -2.4841
28182SOL    HW288078   6.586   5.757   6.442  0.5053  0.2874  0.3088
28183SOL     OW88079   3.775   0.402   9.085  0.7669 -0.0712  0.0207
28183SOL    HW188080   3.846   0.410   9.021 -1.8004  0.4986 -3.0129
28183SOL    HW288081   3.729   0.486   9.080  0.2673 -0.1075  2.4971
28184SOL     OW88082   6.496   5.218   2.667  0.3616 -0.2464  0.8701
28184SOL    HW188083   6.510   5.257   2.581 -0.0226  0.1493  0.9867
28184SOL    HW288084   6.480   5.292   2.725  0.7083 -0.5049  1.3021
28185SOL     OW88085  10.466   2.418   8.934  0.2874  0.6993 -0.3517
28185SOL    HW188086  10.450   2.454   9.021  1.2190  1.6811 -0.5613
28185SOL    HW288087  10.497   2.493   8.883  1.1810 -0.1738 -1.1186
28186SOL     OW88088   4.063   3.093   8.287  0.1517 -0.0789  0.0370
28186SOL    HW188089   4.011   3.027   8.333  0.3318  0.4273  0.9762
28186SOL    HW288090   4.099   3.149   8.356  1.5068 -0.0870 -0.6174
28187SOL     OW88091   0.361   2.864   1.520 -0.3788 -0.0961  0.3726
28187SOL    HW188092   0.449   2.847   1.487 -1.3950 -1.7335 -1.7041
28187SOL    HW288093   0.322   2.923   1.456 -0.9326  0.3665  1.1166
28188SOL     OW88094   1.935   5.608   5.631 -0.1086  0.4075  0.4226
28188SOL    HW188095   1.949   5.627   5.539 -0.2778  0.0981  0.3312
28188SOL    HW288096   2.015   5.636   5.675 -0.2809  1.1539  0.2685
28189SOL     OW88097   7.707   7.432   2.071 -0.4175  0.4835 -0.2694
28189SOL    HW188098   7.745   7.367   2.130 -1.4104 -0.6358 -0.8088
28189SOL    HW288099   7.756   7.512   2.088  2.4673 -0.9510 -1.2586
28190SOL     OW88100   0.732   5.748   6.378  0.3058 -0.2154 -0.3581
28190SOL    HW188101   0.720   5.700   6.296 -1.2088 -0.0148 -0.2904
28190SOL    HW288102   0.788   5.821   6.354 -2.1175  1.3110 -1.9028
28191SOL     OW88103   7.871   2.058   5.794  0.3517  0.8081 -0.0278
28191SOL    HW188104   7.794   2.099   5.833  1.1730  0.9894  1.4538
28191SOL    HW288105   7.913   2.011   5.866  0.5924 -0.9131 -1.2319
28192SOL     OW88106   6.854   2.728   2.558 -0.0020 -0.5946  0.4261
28192SOL    HW188107   6.833   2.634   2.559 -0.7253 -0.4271  1.3155
28192SOL    HW288108   6.904   2.743   2.638  1.8479 -0.5782 -0.6577
28193SOL     OW88109  11.065   3.198   9.269 -0.1652 -0.3633 -0.2544
28193SOL    HW188110  11.129   3.206   9.340  0.6460 -0.4414 -0.9571
28193SOL    HW288111  11.001   3.268   9.286  0.5343  0.2190  0.0319
28194SOL     OW88112   6.180   2.463   6.453  0.0235 -0.1745  0.7265
28194SOL    HW188113   6.253   2.401   6.448  0.7805  0.7788 -0.6608
28194SOL    HW288114   6.103   2.412   6.431  0.1105 -1.3698  2.9182
28195SOL     OW88115   0.075   9.748   1.035  0.1869 -0.3775 -0.4323
28195SOL    HW188116   0.014   9.815   1.005  0.7708  0.6703  0.6507
28195SOL    HW288117   0.121   9.788   1.108  1.4999 -1.4910 -0.6042
28196SOL     OW88118   3.510   3.831   1.057  0.5320  0.5175  0.4430
28196SOL    HW188119   3.559   3.769   1.003 -0.3776  0.6407 -0.5614
28196SOL    HW288120   3.571   3.857   1.126  1.6524  0.1650 -0.3864
28197SOL     OW88121   5.790   8.469   7.027 -0.0538  0.2954  0.2306
28197SOL    HW188122   5.719   8.433   7.081 -0.0388  1.3596  0.9858
28197SOL    HW288123   5.776   8.563   7.029  0.6379  0.4285 -0.6858
28198SOL     OW88124   9.104   4.115   9.581  0.4072  0.3698  0.5750
28198SOL    HW188125   9.052   4.190   9.552 -0.5339 -1.2328 -2.2985
28198SOL    HW288126   9.192   4.132   9.548  0.1843  0.2452 -0.1123
28199SOL     OW88127   8.752   0.008  10.729  0.4269  0.0452 -0.2073
28199SOL    HW188128   8.725  -0.003  10.638 -1.8826 -2.4136  0.6703
28199SOL    HW288129   8.847   0.021  10.724  0.0259  3.9370 -3.1230
28200SOL     OW88130   3.130   7.664   5.741 -0.4301  0.5408  0.1953
28200SOL    HW188131   3.184   7.589   5.766 -2.5068 -0.4347  2.1389
28200SOL    HW288132   3.103   7.703   5.825  0.5235  3.5027 -0.7360
28201SOL     OW88133   6.073  10.691   9.933  0.1139 -0.1411 -0.3260
28201SOL    HW188134   6.075  10.659  10.023  0.1198 -0.2214 -0.3547
28201SOL    HW288135   6.139  10.760   9.930 -0.0500  0.0206 -0.2101
28202SOL     OW88136   7.332   9.399  10.443 -0.3843  0.0503  0.8493
28202SOL    HW188137   7.300   9.488  10.428 -2.0232 -0.7094 -0.3467
28202SOL    HW288138   7.400   9.386  10.377  2.8910  1.7288  3.5070
28203SOL     OW88139   5.217  10.466   3.927  0.1683  0.3168  1.0427
28203SOL    HW188140   5.215  10.503   3.839  0.1504 -0.8874  0.5215
28203SOL    HW288141   5.289  10.513   3.971  0.2332  0.8612  0.3649
28204SOL     OW88142   1.861  11.039   1.081  0.5355  0.2667  0.4014
28204SOL    HW188143   1.840  11.054   0.989 -0.4072 -1.0176  0.3845
28204SOL    HW288144   1.907  11.119   1.108 -2.0853  2.1453 -0.2773
28205SOL     OW88145   6.473   9.440   3.184  0.2948  0.1330  0.3004
28205SOL    HW188146   6.565   9.413   3.184  0.8790  1.6157 -2.9981
28205SOL    HW288147   6.430   9.380   3.123 -0.6147  0.3424  0.7144
28206SOL     OW88148   9.885   8.014   7.275  0.3770  0.9719 -0.3602
28206SOL    HW188149   9.869   7.955   7.349 -0.1931  0.3213 -0.9888
28206SOL    HW288150   9.977   8.002   7.254  0.6130  1.3750  0.4226
28207SOL     OW88151   5.302  10.413   9.007 -0.2712 -0.3412 -0.1722
28207SOL    HW188152   5.394  10.427   8.988 -0.9255  3.4976 -1.5086
28207SOL    HW288153   5.297  10.404   9.102  1.4298 -0.7476 -0.0982
28208SOL     OW88154   8.060   6.106   3.811  0.0897 -0.7878 -0.2257
28208SOL    HW188155   8.011   6.113   3.729 -0.7774  2.5248  0.4346
28208SOL    HW288156   8.133   6.168   3.801 -1.4345  1.6139  2.2892
28209SOL     OW88157  11.117   3.916   4.138 -0.0296  0.0525 -0.4748
28209SOL    HW188158  11.147   3.985   4.078 -0.5298  0.2641 -0.4912
28209SOL    HW288159  11.144   3.834   4.096  2.2765  0.2746  0.4862
28210SOL     OW88160   6.977   7.183   9.216 -0.2392  0.0865  0.1378
28210SOL    HW188161   6.939   7.237   9.147 -0.6445  1.7547  1.5959
28210SOL    HW288162   7.064   7.219   9.230 -0.4263  0.2304  0.9668
28211SOL     OW88163   7.911   2.212   3.815 -0.2494 -0.1477  0.3268
28211SOL    HW188164   7.915   2.219   3.720  0.6656 -5.2063 -0.3043
28211SOL    HW288165   7.818   2.196   3.833 -0.1824 -0.9020  0.0359
28212SOL     OW88166   5.220   0.596   4.794 -0.1811 -0.3253  0.6105
28212SOL    HW188167   5.279   0.539   4.843  2.3112  1.3374 -0.2565
28212SOL    HW288168   5.229   0.567   4.703 -0.3317  0.2304  0.4120
28213SOL     OW88169   7.645  10.244   9.037  0.4145  0.3139 -0.1367
28213SOL    HW188170   7.680  10.330   9.061  0.9568 -0.5345  2.4527
28213SOL    HW288171   7.716  10.203   8.987  1.8748 -0.1014  2.1368
28214SOL     OW88172   4.475   6.765   7.992 -0.1282  0.2969 -0.4464
28214SOL    HW188173   4.471   6.743   8.085  2.2468  1.0839 -0.0823
28214SOL    HW288174   4.556   6.725   7.961 -1.2903 -0.6648 -2.4194
28215SOL     OW88175   2.040   2.312   3.075 -0.0595  0.6224  0.3095
28215SOL    HW188176   1.947   2.292   3.068  0.0622 -0.2330  1.0244
28215SOL    HW288177   2.070   2.263   3.151  1.6789 -1.8754 -1.8135
28216SOL     OW88178   7.166   9.515   0.369  0.2183  0.5183 -0.6486
28216SOL    HW188179   7.256   9.547   0.372  0.2812  0.3187 -0.4447
28216SOL    HW288180   7.140   9.526   0.277  0.8962 -0.6525 -0.9996
28217SOL     OW88181   4.058   0.943   4.332 -0.2292 -0.1118 -0.2511
28217SOL    HW188182   4.088   1.032   4.314  0.5627 -0.2004  0.5856
28217SOL    HW288183   4.067   0.897   4.249  0.6804  0.2219 -0.3445
28218SOL     OW88184   4.034   0.589   1.213  0.3894 -0.4487 -0.1915
28218SOL    HW188185   4.018   0.620   1.302 -1.3386 -0.4270 -0.4705
28218SOL    HW288186   4.075   0.504   1.223  0.7877 -0.1651  0.6182
28219SOL     OW88187   1.989   8.736   0.495  0.1558  0.4256 -0.1824
28219SOL    HW188188   1.925   8.763   0.429  1.2306 -2.2694 -2.5188
28219SOL    HW288189   2.070   8.723   0.446  1.4552 -0.1567  1.9894
28220SOL     OW88190   5.019   8.165   7.934  0.3460 -0.4822 -0.6854
28220SOL    HW188191   4.988   8.075   7.943  2.0430 -0.9246  1.3284
28220SOL    HW288192   5.035   8.195   8.023  1.7829  1.1171 -1.4121
28221SOL     OW88193   6.188   6.094   6.586 -0.3497 -0.5928 -0.0275
28221SOL    HW188194   6.218   6.184   6.584 -1.3407 -0.2463  0.2039
28221SOL    HW288195   6.219   6.059   6.669  0.3898 -0.6010 -0.3001
28222SOL     OW88196   0.289   4.528   8.371 -0.5712  0.0951  0.5888
28222SOL    HW188197   0.261   4.608   8.327 -1.8229  0.6571  2.3118
28222SOL    HW288198   0.363   4.556   8.425  1.9096 -0.8753 -2.0359
28223SOL     OW88199   0.830   8.344   2.857  0.5496 -0.3362 -0.3947
28223SOL    HW188200   0.825   8.251   2.878  1.1119 -0.2672  0.0765
28223SOL    HW288201   0.849   8.346   2.763 -0.4333 -0.6728 -0.6117
28224SOL     OW88202   6.321   6.749   4.378 -0.8457  0.7022 -0.0743
28224SOL    HW188203   6.349   6.791   4.296 -0.1637  0.2193 -0.0951
28224SOL    HW288204   6.229   6.729   4.364 -0.1803 -1.6345 -1.7202
28225SOL     OW88205   5.353   1.054   8.353 -0.6779 -0.2578  0.1493
28225SOL    HW188206   5.447   1.066   8.371 -0.2832 -1.0955 -1.1669
28225SOL    HW288207   5.335   1.115   8.282 -1.1569 -0.0562  0.4411
28226SOL     OW88208   6.577   2.503   7.464  0.9918 -0.1315  0.1799
28226SOL    HW188209   6.487   2.531   7.478  0.7037 -0.9647  0.0683
28226SOL    HW288210   6.627   2.584   7.457 -0.2982  0.5646 -3.5541
28227SOL     OW88211   0.006  10.424   1.175 -0.4303  0.2789 -0.1123
28227SOL    HW188212   0.045  10.508   1.200  1.3798 -0.6576  0.3748
28227SOL    HW288213   0.057  10.396   1.098 -1.2277 -0.2403 -0.4658
28228SOL     OW88214   7.514   0.156   2.212 -0.2957 -0.0668 -0.2993
28228SOL    HW188215   7.468   0.213   2.151 -0.3437 -0.0179 -0.2185
28228SOL    HW288216   7.445   0.123   2.271 -0.3909 -0.8231 -0.8205
28229SOL     OW88217  11.122  10.215   3.655 -0.3867  0.0280 -0.4075
28229SOL    HW188218  11.105  10.301   3.693  1.1980  0.7542 -1.2689
28229SOL    HW288219  11.217  10.211   3.645 -0.6042 -0.8192 -2.6873
28230SOL     OW88220   5.306   9.650   1.048  0.1484 -0.2421  0.5875
28230SOL    HW188221   5.222   9.682   1.084 -0.9902 -1.9250 -0.4479
28230SOL    HW288222   5.333   9.581   1.107  1.0550  0.5640  1.1439
28231SOL     OW88223   6.453   3.173   6.630 -0.1304  0.0875  0.4937
28231SOL    HW188224   6.454   3.249   6.688  0.2737 -1.2876  2.3667
28231SOL    HW288225   6.360   3.151   6.621 -0.1790  0.1726  0.7973
28232SOL     OW88226   9.815   6.049  10.068 -0.1817 -0.0678 -0.0945
28232SOL    HW188227   9.807   6.001  10.151 -3.6621  0.8834  0.2876
28232SOL    HW288228   9.814   6.141  10.094  1.4501  0.2751 -1.1020
28233SOL     OW88229   8.275  10.457   9.686 -0.5742  0.2378  0.4202
28233SOL    HW188230   8.256  10.520   9.616 -1.0999 -0.0019  0.3481
28233SOL    HW288231   8.365  10.429   9.668 -0.6858  0.2205 -0.1296
28234SOL     OW88232   0.801   3.759   0.777 -0.1359 -0.2136 -0.2704
28234SOL    HW188233   0.724   3.813   0.797  0.5203  0.1521  1.4469
28234SOL    HW288234   0.773   3.670   0.795 -0.7348 -0.3075 -1.5638
28235SOL     OW88235   8.772   2.979   0.087 -0.2194 -0.1549  0.3328
28235SOL    HW188236   8.796   2.887   0.096  1.7570  0.3853  1.1560
28235SOL    HW288237   8.853   3.022   0.059 -1.0840  1.3535  0.0556
28236SOL     OW88238   9.027   7.233   5.345 -0.0260 -0.2923 -0.0420
28236SOL    HW188239   9.054   7.245   5.254 -0.4813 -0.5867 -0.2209
28236SOL    HW288240   8.933   7.213   5.339 -0.3731  1.0794  0.5850
28237SOL     OW88241   2.246   6.842   6.489  0.4650  0.2572  0.0663
28237SOL    HW188242   2.207   6.893   6.560  0.0717  1.7935 -1.1678
28237SOL    HW288243   2.208   6.755   6.498  0.0036  0.5769  1.3960
28238SOL     OW88244   2.685   3.167   2.296  0.1554 -0.3288 -0.2063
28238SOL    HW188245   2.600   3.144   2.333  1.1902 -1.2829  1.7396
28238SOL    HW288246   2.717   3.238   2.352  0.7077 -0.0647 -0.8370
28239SOL     OW88247   3.052   4.803   7.994  0.0043 -0.5584 -0.3775
28239SOL    HW188248   3.012   4.820   8.079  0.4161 -0.3207 -0.2287
28239SOL    HW288249   3.099   4.721   8.005 -0.9745 -1.1812 -0.7428
28240SOL     OW88250   2.389   0.698  10.762 -0.3361 -0.1870  0.4782
28240SOL    HW188251   2.329   0.764  10.796  0.6944  1.2637 -0.3845
28240SOL    HW288252   2.459   0.695  10.827  0.6038  1.0779 -0.4170
28241SOL     OW88253   0.951   0.113  10.196  0.3457  0.5401 -0.3625
28241SOL    HW188254   0.887   0.156  10.139 -0.0456 -1.2292 -1.3595
28241SOL    HW288255   0.901   0.043  10.238  1.5986 -1.0003 -1.3001
28242SOL     OW88256   0.275   4.370   3.839 -0.1068 -0.1489  0.0939
28242SOL    HW188257   0.268   4.308   3.767  0.2829 -2.8957  2.2172
28242SOL    HW288258   0.221   4.445   3.813 -0.0181 -1.0200 -2.9281
28243SOL     OW88259   7.844   1.575   2.253 -0.0757  0.0145 -0.1580
28243SOL    HW188260   7.912   1.618   2.201  1.8103  0.3092  2.3547
28243SOL    HW288261   7.847   1.619   2.338 -3.0264 -0.4205  0.2761
28244SOL     OW88262   3.262   7.527   2.577  0.3756  0.1280 -0.6157
28244SOL    HW188263   3.195   7.468   2.612  1.6879  0.1309  2.2624
28244SOL    HW288264   3.308   7.475   2.511 -1.3894 -0.4191 -1.4566
28245SOL     OW88265   2.814   8.418   9.623  0.3998 -0.2700 -0.2806
28245SOL    HW188266   2.887   8.372   9.581  1.4812  1.1603 -0.0259
28245SOL    HW288267   2.785   8.359   9.692  1.0058 -1.0537 -0.6746
28246SOL     OW88268   7.825   1.023   0.909 -0.3022  0.0358  0.1242
28246SOL    HW188269   7.782   0.939   0.929 -1.3194  1.1201  2.8122
28246SOL    HW288270   7.757   1.089   0.923  1.1967  1.5276  0.6326
28247SOL     OW88271   3.925   2.968   3.966 -0.0901  0.5949  0.2268
28247SOL    HW188272   3.980   2.907   3.917 -1.4603 -0.3518 -0.1955
28247SOL    HW288273   3.975   2.987   4.045  0.1772 -1.5297  0.6381
28248SOL     OW88274   1.981   1.574   8.221  0.0847 -0.1811  0.0151
28248SOL    HW188275   1.892   1.575   8.187  1.2657 -0.8686 -3.4677
28248SOL    HW288276   1.994   1.484   8.253 -0.1444 -0.3827 -0.4609
28249SOL     OW88277  11.004   7.600   6.231  0.2597  0.4185  0.6089
28249SOL    HW188278  11.076   7.614   6.292  1.7885  1.6223 -1.3321
28249SOL    HW288279  10.962   7.685   6.222  0.5873  0.4693 -0.6077
28250SOL     OW88280   1.299   7.507   5.678  1.1648  0.5409 -0.3675
28250SOL    HW188281   1.266   7.497   5.589  1.2595 -2.0129 -0.1961
28250SOL    HW288282   1.394   7.497   5.670  1.3580  2.0198 -0.1543
28251SOL     OW88283   3.719   5.416   5.458 -0.0484 -0.1733  0.1948
28251SOL    HW188284   3.729   5.496   5.407  0.1183  0.2977  0.9517
28251SOL    HW288285   3.636   5.428   5.504 -0.3764 -0.7514 -0.2370
28252SOL     OW88286   6.431   6.470   4.393 -0.5590 -0.4350  0.4367
28252SOL    HW188287   6.427   6.465   4.298  1.1134  0.7031  0.2606
28252SOL    HW288288   6.410   6.561   4.414  0.5917 -0.2708  1.0047
28253SOL     OW88289   0.933  10.239   3.435 -0.0155  0.6200 -0.1466
28253SOL    HW188290   1.008  10.188   3.406  0.2136  0.1009  1.2719
28253SOL    HW288291   0.928  10.312   3.374  0.8130 -0.0736 -1.0708
28254SOL     OW88292   3.666   5.837   2.149 -0.6542 -0.0202 -0.5595
28254SOL    HW188293   3.701   5.902   2.209 -0.8813 -0.7333  0.3793
28254SOL    HW288294   3.694   5.753   2.186 -1.1315 -0.4929 -1.2384
28255SOL     OW88295   9.031   1.743   1.036  0.4914 -0.0204  0.0601
28255SOL    HW188296   8.985   1.661   1.053 -0.4567  0.5923  0.5188
28255SOL    HW288297   9.068   1.732   0.949  0.2438 -0.8771  0.0560
28256SOL     OW88298   3.826  10.637   7.118  0.0528  0.7466 -0.4493
28256SOL    HW188299   3.831  10.696   7.193  0.1883  0.8844 -0.5671
28256SOL    HW288300   3.913  10.597   7.112  0.1714  1.0476 -0.7851
28257SOL     OW88301   6.224  11.121   5.994  0.1921  0.7519  0.2670
28257SOL    HW188302   6.179  11.120   5.910  0.0180 -1.8623  0.3131
28257SOL    HW288303   6.317  11.129   5.972  0.3069 -1.5468 -0.3712
28258SOL     OW88304   7.871   6.115   5.785  0.3055 -0.3314 -0.2851
28258SOL    HW188305   7.930   6.187   5.761 -0.9051  1.0136  0.6181
28258SOL    HW288306   7.927   6.054   5.834  0.9320  1.0402  0.7881
28259SOL     OW88307  10.038   7.861   2.657 -0.3455 -0.1392 -0.1359
28259SOL    HW188308  10.087   7.788   2.619  0.3212  0.1866  0.0911
28259SOL    HW288309   9.957   7.864   2.606 -0.2250 -0.8137 -0.3796
28260SOL     OW88310   9.092   6.773   4.189  0.1965  0.2723 -0.6677
28260SOL    HW188311   9.044   6.777   4.272  0.9196 -0.1463 -0.2173
28260SOL    HW288312   9.154   6.845   4.194 -0.0619  0.5238 -1.0468
28261SOL     OW88313   7.266   7.554   4.066 -0.1269  0.3522  0.3199
28261SOL    HW188314   7.237   7.470   4.030  1.2142  0.2899 -0.6453
28261SOL    HW288315   7.336   7.532   4.127 -0.7760  0.6639  1.2050
28262SOL     OW88316  10.019   3.567   0.466  0.1541 -0.2081  0.3385
28262SOL    HW188317  10.048   3.653   0.437 -1.3258 -0.0848 -0.9290
28262SOL    HW288318  10.054   3.507   0.400 -2.6307 -0.0082 -1.4671
28263SOL     OW88319   3.539   3.569  10.703  0.2232 -0.1240  0.0487
28263SOL    HW188320   3.603   3.506  10.734  0.7775 -0.0457 -0.9145
28263SOL    HW288321   3.590   3.635  10.657 -0.5077  0.1722 -0.3575
28264SOL     OW88322   4.486  10.824  10.024 -0.3834  0.1181 -0.2212
28264SOL    HW188323   4.478  10.796  10.115  1.5981  0.2428  0.0292
28264SOL    HW288324   4.529  10.751   9.980 -2.6479 -0.5653 -1.4332
28265SOL     OW88325   3.918  10.210   0.753  0.1802 -0.1135  0.0791
28265SOL    HW188326   3.831  10.171   0.744  0.1473 -0.0754  0.2293
28265SOL    HW288327   3.903  10.292   0.800 -0.2572  1.9152 -3.2327
28266SOL     OW88328   1.524   6.224   4.904  0.2790  0.4363 -0.7204
28266SOL    HW188329   1.460   6.279   4.860 -1.7421 -2.2159 -1.3324
28266SOL    HW288330   1.556   6.165   4.835  3.1751  1.3805 -0.3438
28267SOL     OW88331   5.886   2.545   3.707 -0.1824 -0.0314 -0.2679
28267SOL    HW188332   5.955   2.530   3.771 -0.6742 -0.3544  0.1907
28267SOL    HW288333   5.932   2.551   3.623  0.5860  1.6224  0.2403
28268SOL     OW88334   5.679   9.012   5.354 -0.0777  0.2853 -0.0237
28268SOL    HW188335   5.644   9.055   5.276  1.0604 -0.6717 -1.1151
28268SOL    HW288336   5.604   8.964   5.391 -0.5352  0.4091 -0.7811
28269SOL     OW88337   7.186   6.325  10.842 -0.0032  0.2959  0.0928
28269SOL    HW188338   7.257   6.388  10.826  1.0638 -0.9158 -0.1132
28269SOL    HW288339   7.131   6.331  10.764 -0.5845  1.7874  0.5746
28270SOL     OW88340   0.102   3.881   8.243  0.2217  0.2672  0.1716
28270SOL    HW188341   0.154   3.911   8.169  0.6631  0.8728  0.7223
28270SOL    HW288342   0.071   3.961   8.286 -2.7533 -0.0067 -1.1947
28271SOL     OW88343   4.937   2.643   9.858  0.7286 -0.5480 -0.0950
28271SOL    HW188344   4.964   2.555   9.831  1.0799 -0.3260 -0.4848
28271SOL    HW288345   5.019   2.688   9.879  0.5000 -0.5576  0.8803
28272SOL     OW88346   5.070   8.752   2.415 -1.0089 -0.9145  0.3089
28272SOL    HW188347   5.021   8.693   2.358 -1.1873  0.8171 -1.4435
28272SOL    HW288348   5.143   8.783   2.361 -0.9579  0.4897  1.1269
28273SOL     OW88349   8.713   9.310   2.259 -0.1269  0.3924  0.2005
28273SOL    HW188350   8.735   9.372   2.189  0.9371  0.6042  0.7009
28273SOL    HW288351   8.677   9.365   2.329 -0.1581  0.3148  0.2454
28274SOL     OW88352   9.050   1.996   8.476 -0.3035  0.2968 -0.3053
28274SOL    HW188353   8.975   2.027   8.526  0.7954  1.9055  0.3861
28274SOL    HW288354   9.041   1.900   8.477 -2.3038  0.4411 -0.2181
28275SOL     OW88355   1.510   8.968   4.990 -0.2011  0.1662 -0.1417
28275SOL    HW188356   1.484   8.883   5.026 -0.0546  0.5645  0.9406
28275SOL    HW288357   1.441   8.990   4.928  0.4641 -1.3905 -1.5327
28276SOL     OW88358   8.322   0.107   2.841 -0.9139 -0.2506 -0.3363
28276SOL    HW188359   8.349   0.071   2.926 -1.2830 -0.7121 -0.4163
28276SOL    HW288360   8.229   0.126   2.851 -0.3024  2.7924  0.4513
28277SOL     OW88361   0.590   8.538  10.945  0.1797 -0.6498  0.1358
28277SOL    HW188362   0.616   8.573  10.860 -0.2051 -0.5074  0.0737
28277SOL    HW288363   0.500   8.568  10.957 -0.1989 -1.7151  0.0399
28278SOL     OW88364   7.225   3.951   3.463 -0.0121  0.1530  0.0370
28278SOL    HW188365   7.262   3.970   3.550 -1.4210  1.7225  0.3487
28278SOL    HW288366   7.260   3.864   3.441  0.7975 -0.0680  1.9332
28279SOL     OW88367  10.863   5.297   9.112  0.0134  0.6758  0.0293
28279SOL    HW188368  10.943   5.279   9.162 -0.0402  2.6026  0.9145
28279SOL    HW288369  10.845   5.216   9.065  2.1997  0.0272  0.2046
28280SOL     OW88370   2.331   4.983   1.131  0.0962  0.0215 -0.0789
28280SOL    HW188371   2.326   4.937   1.047 -1.3322 -1.2306  0.6550
28280SOL    HW288372   2.397   4.934   1.181  0.8912  0.7220 -0.4103
28281SOL     OW88373   5.675   4.932  10.401  0.3241 -0.8286  0.2392
28281SOL    HW188374   5.720   4.942  10.485  0.2250 -0.4966  0.2537
28281SOL    HW288375   5.741   4.956  10.336  0.1439 -0.2433  0.2649
28282SOL     OW88376   3.674   5.531   4.135 -0.4963  0.4263 -0.1989
28282SOL    HW188377   3.619   5.609   4.131  0.5151  1.1234 -1.0721
28282SOL    HW288378   3.619   5.461   4.098 -1.1045  0.9080 -0.2216
28283SOL     OW88379   7.112   0.785   7.321  0.0133 -0.3364 -0.8682
28283SOL    HW188380   7.021   0.799   7.349 -0.4203 -0.1502 -2.2768
28283SOL    HW288381   7.138   0.870   7.285  0.8916 -0.2775 -0.1034
28284SOL     OW88382   6.349   7.984   1.754  0.1569  0.0832 -0.3622
28284SOL    HW188383   6.399   8.022   1.682  2.0392  1.2617  1.4729
28284SOL    HW288384   6.414   7.938   1.807 -1.0451 -0.1673  0.9715
28285SOL     OW88385   5.831  10.290   0.391  0.1177 -0.0728 -0.0799
28285SOL    HW188386   5.904  10.311   0.450  0.8549 -0.2739 -0.9023
28285SOL    HW288387   5.809  10.373   0.350 -0.8280  0.1979  0.9342
28286SOL     OW88388   0.763   4.733   0.458 -0.1934  0.0475  0.0229
28286SOL    HW188389   0.674   4.740   0.494 -0.5635  3.1021 -1.2314
28286SOL    HW288390   0.760   4.779   0.375  2.9567  1.8351  0.7283
28287SOL     OW88391   5.739   4.584   5.012  0.1103  0.3442 -0.0438
28287SOL    HW188392   5.826   4.547   5.025  0.4524  1.0285 -0.3610
28287SOL    HW288393   5.715   4.619   5.098  0.1739  0.2205  0.0255
28288SOL     OW88394   0.258   0.590   7.193 -0.4287 -0.3839 -0.3433
28288SOL    HW188395   0.312   0.633   7.259 -1.2090 -0.3547  0.2952
28288SOL    HW288396   0.230   0.508   7.234 -1.3330 -0.1320 -0.4320
28289SOL     OW88397   9.766   7.829   6.223  0.3904 -0.0968  0.3246
28289SOL    HW188398   9.709   7.769   6.273  1.8400 -2.2814 -0.4873
28289SOL    HW288399   9.851   7.823   6.267  0.8152  0.5797 -0.3871
28290SOL     OW88400  10.542   9.199   6.741 -0.7686  0.0987  0.0438
28290SOL    HW188401  10.553   9.105   6.727 -0.9469 -0.3018  2.2850
28290SOL    HW288402  10.621   9.226   6.787 -0.9908  0.9188 -0.0393
28291SOL     OW88403   1.063   3.371  10.327 -0.1325  0.4876  0.1710
28291SOL    HW188404   1.152   3.366  10.361  0.1366  0.2593 -0.5645
28291SOL    HW288405   1.047   3.465  10.316  1.5721  0.4683 -3.6874
28292SOL     OW88406   1.516   1.725   4.674  0.2603 -0.2497  0.6858
28292SOL    HW188407   1.452   1.689   4.735  0.2940 -0.8733  0.3648
28292SOL    HW288408   1.567   1.787   4.726 -0.4339  0.0520  1.0055
28293SOL     OW88409  11.062   6.451  10.598  0.2707 -0.2700 -0.3904
28293SOL    HW188410  11.142   6.487  10.635  0.4142 -1.6996  0.7536
28293SOL    HW288411  10.993   6.474  10.661  0.5210 -2.7362  0.8855
28294SOL     OW88412   8.869   6.559   4.674 -0.0818 -0.7321  0.0804
28294SOL    HW188413   8.909   6.617   4.610  0.7504 -0.4215  0.8675
28294SOL    HW288414   8.832   6.617   4.740  0.5015 -1.0747  0.7201
28295SOL     OW88415   4.719   7.873   7.796 -0.0843 -0.0168 -0.2920
28295SOL    HW188416   4.779   7.801   7.815  0.2630  0.5274  0.7352
28295SOL    HW288417   4.655   7.871   7.868  0.4147  1.1988  0.2086
28296SOL     OW88418   0.347   0.445   5.971 -0.3622  0.8585 -0.3489
28296SOL    HW188419   0.387   0.359   5.983 -1.7872  0.0460 -1.1505
28296SOL    HW288420   0.396   0.485   5.899  0.1047  0.5968 -0.1792
28297SOL     OW88421   5.876   4.768   4.642  0.7355 -0.4763  0.0341
28297SOL    HW188422   5.930   4.747   4.718  1.5385 -0.3002 -0.4860
28297SOL    HW288423   5.840   4.855   4.662  1.9958  0.1505 -0.3624
28298SOL     OW88424  10.943   9.511   0.523 -0.4579  1.2965 -0.1980
28298SOL    HW188425  10.965   9.570   0.596  0.8885  0.7114 -0.1071
28298SOL    HW288426  10.857   9.477   0.545  0.7165 -0.4270  2.1981
28299SOL     OW88427   5.925   3.321   8.114 -0.6208 -0.0996 -0.1989
28299SOL    HW188428   5.862   3.321   8.186 -0.0414 -2.4293  0.4097
28299SOL    HW288429   6.003   3.364   8.151 -0.3972 -1.1006  0.5574
28300SOL     OW88430  10.934   4.200   5.776  0.3503  0.6384 -0.1634
28300SOL    HW188431  10.862   4.254   5.743  0.0875  0.3130 -0.1310
28300SOL    HW288432  10.894   4.115   5.794  0.4736  0.8233  1.0410
28301SOL     OW88433   2.211  10.409   3.918  0.0112 -0.5165 -0.0707
28301SOL    HW188434   2.230  10.426   3.826 -0.1153 -0.8707 -0.1626
28301SOL    HW288435   2.169  10.323   3.919  0.3515 -0.6854  0.3555
28302SOL     OW88436  10.715   0.613  10.357 -0.3443  0.4422 -0.5930
28302SOL    HW188437  10.779   0.684  10.369  0.4294 -0.2982 -0.1947
28302SOL    HW288438  10.658   0.643  10.287  1.5677  0.3634 -2.2533
28303SOL     OW88439   8.795   6.613   4.058 -0.3959 -0.5909 -0.0862
28303SOL    HW188440   8.840   6.582   4.137  1.1299  0.0791 -0.6411
28303SOL    HW288441   8.748   6.691   4.087 -0.4389 -0.7646  0.3187
28304SOL     OW88442   0.120   6.290   4.137 -0.3275 -0.1738 -0.3191
28304SOL    HW188443   0.207   6.331   4.141 -0.0841 -0.5014 -1.8548
28304SOL    HW288444   0.139   6.196   4.135 -0.8269 -0.3550  1.4615
28305SOL     OW88445   9.517   3.433   5.429  0.5402  0.0187  0.1047
28305SOL    HW188446   9.544   3.345   5.454  1.8611  0.2463 -0.4366
28305SOL    HW288447   9.548   3.489   5.500 -1.4295 -0.0629  1.0921
28306SOL     OW88448  10.286   6.443   1.860 -0.2633 -0.3158  0.3744
28306SOL    HW188449  10.324   6.395   1.786 -0.6799 -1.1734  0.7013
28306SOL    HW288450  10.354   6.439   1.928  0.6767  1.6366 -0.3824
28307SOL     OW88451   9.853   4.160   6.592  0.0032 -0.3261 -0.4031
28307SOL    HW188452   9.880   4.166   6.500  0.1695 -0.1632 -0.3449
28307SOL    HW288453   9.935   4.158   6.641 -0.0842  0.3229 -0.2155
28308SOL     OW88454  10.544   4.122   1.292 -0.5306  0.2745  0.5320
28308SOL    HW188455  10.487   4.199   1.304  0.3411  0.6521  2.6256
28308SOL    HW288456  10.633   4.157   1.294 -0.1191 -0.3357 -2.5211
28309SOL     OW88457  10.954   2.621   4.490 -0.4004 -0.1381  0.2824
28309SOL    HW188458  10.913   2.697   4.450  0.5417  0.3527  0.2342
28309SOL    HW288459  10.923   2.547   4.438  1.5072  0.5527 -2.0058
28310SOL     OW88460  10.858   3.821   5.112 -0.0006  0.0592  0.3559
28310SOL    HW188461  10.881   3.913   5.122  1.3907 -0.4263  2.1298
28310SOL    HW288462  10.937   3.774   5.137 -0.7656 -1.6222 -0.2727
28311SOL     OW88463   1.989   9.856   7.763 -0.4976  0.1193 -0.1187
28311SOL    HW188464   1.929   9.783   7.779 -1.3244  0.7910 -0.0664
28311SOL    HW288465   2.029   9.836   7.678 -1.3245  0.0069 -0.4921
28312SOL     OW88466   6.868   1.510   4.485  0.4455 -0.0777 -0.4292
28312SOL    HW188467   6.944   1.568   4.484  0.7682 -0.4940 -0.2433
28312SOL    HW288468   6.795   1.567   4.513  1.2205 -0.2764  2.2778
28313SOL     OW88469   7.521  10.041   7.074 -0.5836 -0.2833  0.2667
28313SOL    HW188470   7.535  10.059   7.167 -2.1076  1.3660  0.2270
28313SOL    HW288471   7.482   9.953   7.072  2.0609 -1.5832  0.9049
28314SOL     OW88472   6.388   9.787   0.989  0.1228  0.0254  0.0397
28314SOL    HW188473   6.332   9.767   0.914  1.1555  0.1660 -0.7921
28314SOL    HW288474   6.360   9.874   1.017 -0.8908 -0.4107  0.4068
28315SOL     OW88475   4.579   0.035   6.929 -0.2787 -0.1534 -0.0779
28315SOL    HW188476   4.566   0.019   7.023  2.1308 -0.1835  0.3081
28315SOL    HW288477   4.531   0.116   6.912  0.3378  0.5799  1.5053
28316SOL     OW88478   2.141   8.493   4.358  0.6053  0.1396 -0.2347
28316SOL    HW188479   2.109   8.571   4.312 -0.6450 -0.1518  0.0748
28316SOL    HW288480   2.199   8.528   4.425 -1.3248  1.0421  1.0950
28317SOL     OW88481   3.191   4.001   8.252  0.1271 -0.3643  0.0630
28317SOL    HW188482   3.148   3.972   8.171  0.5546  0.2586 -0.3903
28317SOL    HW288483   3.128   3.979   8.321 -1.3900  1.4223 -0.6611
28318SOL     OW88484   0.473   9.620   8.826  0.3653 -0.0002  0.3135
28318SOL    HW188485   0.384   9.590   8.808  0.4557  0.4690 -0.9842
28318SOL    HW288486   0.465   9.715   8.836  0.7952  0.1019 -0.2956
28319SOL     OW88487   8.387  10.211   9.294 -0.0519 -0.4247  0.4225
28319SOL    HW188488   8.361  10.217   9.202 -2.6135 -0.0186  1.1102
28319SOL    HW288489   8.345  10.132   9.326  0.0606 -0.0746  1.4722
28320SOL     OW88490  11.007   1.367   6.492  0.2715 -0.3699 -0.3294
28320SOL    HW188491  11.078   1.322   6.538 -0.5126 -1.4907 -0.1745
28320SOL    HW288492  11.043   1.453   6.471  0.8034  0.0839  2.0726
28321SOL     OW88493   9.566   0.563   5.707 -0.6766  0.5683  0.8774
28321SOL    HW188494   9.494   0.556   5.645 -1.2378  0.6786  1.4975
28321SOL    HW288495   9.546   0.497   5.774  0.8843 -0.8464  0.0141
28322SOL     OW88496   1.980   1.396   1.008  0.3186  0.3060  0.1830
28322SOL    HW188497   1.886   1.404   0.992  0.2469  0.2112  0.5517
28322SOL    HW288498   2.003   1.475   1.056  0.4807  0.4606 -0.1475
28323SOL     OW88499   2.330   2.629   9.271  0.4455  0.3434  0.0323
28323SOL    HW188500   2.279   2.586   9.202  0.8938 -0.3803  0.1485
28323SOL    HW288501   2.374   2.702   9.226  0.2285  0.2667 -0.3108
28324SOL     OW88502   8.450   7.336   1.121  0.2089 -0.8068  0.0486
28324SOL    HW188503   8.520   7.402   1.125 -0.5537  0.0942 -0.9068
28324SOL    HW288504   8.453   7.304   1.031  0.0341 -1.4927  0.2841
28325SOL     OW88505   0.573   2.139   1.465  0.1213  0.5074 -0.2119
28325SOL    HW188506   0.590   2.101   1.378 -2.0460 -0.3453 -0.3243
28325SOL    HW288507   0.506   2.082   1.503 -0.1750  1.8388  1.3577
28326SOL     OW88508   9.084   8.626   6.228  0.0145  0.3268 -0.2922
28326SOL    HW188509   9.174   8.651   6.206 -0.0198  0.9197  0.2144
28326SOL    HW288510   9.030   8.680   6.171 -0.0405  0.6961  0.1094
28327SOL     OW88511   9.009   0.007   4.546  0.0369  0.3759  0.0857
28327SOL    HW188512   8.962   0.020   4.629  0.3653 -0.9052  0.4988
28327SOL    HW288513   8.948  -0.043   4.492 -0.0956  1.0355 -0.3970
28328SOL     OW88514  10.372   4.605  10.017  0.3142 -0.3836  0.0189
28328SOL    HW188515  10.314   4.662   9.966 -1.0347 -0.7988  1.0543
28328SOL    HW288516  10.348   4.516   9.991  1.1421 -0.5465 -0.2205
28329SOL     OW88517   7.838   2.330   9.835 -0.3016 -0.0626  0.2190
28329SOL    HW188518   7.808   2.416   9.807 -2.2800 -1.1694 -1.3742
28329SOL    HW288519   7.926   2.321   9.798 -0.7805  0.6037 -1.1318
28330SOL     OW88520   1.056   0.214   4.809 -0.2625  0.1642 -0.3915
28330SOL    HW188521   0.964   0.220   4.781 -0.0089  1.6425 -1.0134
28330SOL    HW288522   1.065   0.279   4.878  0.4985  0.6155 -0.8955
28331SOL     OW88523   1.610   1.851   8.660  0.0499  0.2681  0.1965
28331SOL    HW188524   1.546   1.823   8.595 -1.1830  1.0323  1.0277
28331SOL    HW288525   1.690   1.802   8.639 -1.1648 -1.6714 -0.0885
28332SOL     OW88526   4.002   7.913   3.800  0.2422 -0.7292 -0.0003
28332SOL    HW188527   4.064   7.951   3.861  0.7269 -0.8679 -0.3973
28332SOL    HW288528   3.923   7.897   3.852  0.7680 -1.1913  0.6714
28333SOL     OW88529  10.608   9.696   2.834  0.0957 -0.6158 -0.3838
28333SOL    HW188530  10.599   9.758   2.761  0.2247 -1.7928 -1.4354
28333SOL    HW288531  10.523   9.652   2.838  0.1267 -0.6317  0.1068
28334SOL     OW88532   7.572   7.128   3.395 -0.5804 -0.2858  0.3106
28334SOL    HW188533   7.665   7.151   3.408 -0.4900 -0.6797  0.3734
28334SOL    HW288534   7.529   7.212   3.377 -0.2357 -0.0804  0.4264
28335SOL     OW88535   8.913   4.176   1.335  0.6578 -0.3638 -0.3504
28335SOL    HW188536   8.988   4.127   1.367  0.0575 -2.5169 -2.0162
28335SOL    HW288537   8.907   4.153   1.242 -1.2694  0.7906 -0.5664
28336SOL     OW88538   6.715   7.524   2.283 -0.4288 -0.5733 -0.1355
28336SOL    HW188539   6.771   7.547   2.209  0.6047 -2.2597  0.0659
28336SOL    HW288540   6.626   7.539   2.251  0.0462  0.0354 -1.2303
28337SOL     OW88541   1.378   6.155   5.129 -0.7433  1.2956 -0.1858
28337SOL    HW188542   1.462   6.134   5.170 -0.5322  2.4838  0.0193
28337SOL    HW288543   1.388   6.129   5.038 -0.9316 -0.6081  0.2805
28338SOL     OW88544   4.348   6.991  10.645 -0.2604  0.1925  0.2232
28338SOL    HW188545   4.367   6.928  10.575 -0.2336 -0.1054  0.4983
28338SOL    HW288546   4.434   7.029  10.665 -0.4373  1.1350 -0.7163
28339SOL     OW88547   9.757   3.355   6.006 -0.2024 -0.2852 -0.3955
28339SOL    HW188548   9.760   3.440   6.049 -0.6558 -0.9312  0.9506
28339SOL    HW288549   9.816   3.300   6.057  1.6988 -0.3010 -2.4550
28340SOL     OW88550   4.787   1.598   2.814  0.4277  0.5638 -0.6441
28340SOL    HW188551   4.869   1.564   2.778 -0.3381 -2.1705 -0.0250
28340SOL    HW288552   4.720   1.538   2.782 -1.1790  1.9755 -0.0674
28341SOL     OW88553   6.301   8.430   8.051  0.1162 -0.5759 -0.5859
28341SOL    HW188554   6.394   8.445   8.068 -0.4914  0.6865  2.1489
28341SOL    HW288555   6.275   8.502   7.994  0.4563  0.0288  0.0163
28342SOL     OW88556   2.512  10.808   6.810  0.2011  0.1173  0.3209
28342SOL    HW188557   2.496  10.854   6.892  0.5587 -0.9074  0.9848
28342SOL    HW288558   2.428  10.769   6.788  0.2314 -0.0346  0.4730
28343SOL     OW88559   9.981   8.966   3.171  0.7813  0.1847  0.1748
28343SOL    HW188560  10.059   8.911   3.162  0.6394 -0.2434  1.4124
28343SOL    HW288561   9.969   8.977   3.265 -0.5594  0.3863  0.0084
28344SOL     OW88562   3.513   4.315   4.784  0.4597  0.1810  0.3068
28344SOL    HW188563   3.571   4.244   4.758 -0.3626 -0.7648  0.9680
28344SOL    HW288564   3.506   4.371   4.707  2.6979  0.6541  0.4016
28345SOL     OW88565   0.059   3.001   5.241  0.3402  0.2130 -0.1938
28345SOL    HW188566   0.142   3.031   5.278 -0.2260 -0.0310  1.3113
28345SOL    HW288567   0.013   3.081   5.215 -0.2657  0.5672  1.8522
28346SOL     OW88568   1.078   5.482   0.293 -0.3227  0.4193 -0.3341
28346SOL    HW188569   1.140   5.553   0.314 -1.1165  2.1567 -3.2759
28346SOL    HW288570   1.069   5.485   0.198 -0.7443 -3.4655 -0.5886
28347SOL     OW88571   6.411   3.746   5.595  0.2030  0.2114  0.3464
28347SOL    HW188572   6.321   3.778   5.595  0.6458  1.5645 -0.4053
28347SOL    HW288573   6.461   3.817   5.553  1.6025 -0.5321  0.7076
28348SOL     OW88574   4.467   1.345   6.494 -0.2459 -0.0065  0.5056
28348SOL    HW188575   4.457   1.322   6.402 -1.1233 -0.1007  0.6193
28348SOL    HW288576   4.425   1.430   6.503  2.1049  1.2707  0.2967
28349SOL     OW88577   4.091   2.511   2.384 -0.0492 -0.2401  0.0853
28349SOL    HW188578   4.136   2.488   2.302  2.0594 -0.8116  1.3327
28349SOL    HW288579   4.037   2.586   2.360  2.7545  1.5326 -1.2541
28350SOL     OW88580   4.708   2.580   5.563  0.2641  0.2116  0.0647
28350SOL    HW188581   4.643   2.611   5.501 -1.3017 -2.9185 -0.0624
28350SOL    HW288582   4.666   2.588   5.648  0.0340 -0.9500  0.0756
28351SOL     OW88583   1.817   1.010   0.030 -0.1468 -0.2654 -0.0464
28351SOL    HW188584   1.908   1.022   0.001 -0.0418 -1.2426 -0.1752
28351SOL    HW288585   1.819   1.028   0.124 -0.2537  1.7820 -0.4030
28352SOL     OW88586  10.083   8.828   5.133  0.2063 -0.0166 -0.8514
28352SOL    HW188587  10.177   8.846   5.136  0.4842 -0.9710 -2.4471
28352SOL    HW288588  10.058   8.849   5.043 -1.4196  1.4962 -0.1111
28353SOL     OW88589   2.486   8.522   3.573  0.4057  0.3661 -0.5179
28353SOL    HW188590   2.522   8.600   3.616  1.9260 -1.3728  1.6177
28353SOL    HW288591   2.553   8.498   3.509 -0.6826  1.4828 -2.1682
28354SOL     OW88592   4.223   1.899  10.771 -0.3130 -0.1172  0.5051
28354SOL    HW188593   4.263   1.981  10.743  0.2132 -0.2368  0.8893
28354SOL    HW288594   4.140   1.925  10.811 -1.6771 -0.0222 -2.1607
28355SOL     OW88595   7.020   6.681   1.951 -0.0607  0.7089 -0.3544
28355SOL    HW188596   7.076   6.733   2.008  0.7552 -1.6826  1.1542
28355SOL    HW288597   7.078   6.652   1.880  0.0437  0.1440 -0.0450
28356SOL     OW88598  10.443   8.345   2.286  0.1350 -0.3634  0.0650
28356SOL    HW188599  10.519   8.302   2.248  0.6169  1.4905 -1.2282
28356SOL    HW288600  10.453   8.333   2.381  0.7360 -2.1492 -0.1893
28357SOL     OW88601   9.470   4.980   0.114 -0.0014  0.2579 -0.2063
28357SOL    HW188602   9.385   4.999   0.155 -1.7029 -1.1000 -2.7868
28357SOL    HW288603   9.463   5.018   0.027  0.1702 -3.5748 -2.0997
28358SOL     OW88604  10.467   9.265   3.304  0.0907  0.6427  0.2655
28358SOL    HW188605  10.383   9.297   3.336 -0.8240 -1.6429  0.3723
28358SOL    HW288606  10.517   9.245   3.383 -1.2701 -2.7516  0.4386
28359SOL     OW88607   5.324   8.041   9.520  0.7881 -0.4819 -0.0065
28359SOL    HW188608   5.366   7.991   9.589 -0.5583 -1.0182  0.4523
28359SOL    HW288609   5.373   8.018   9.441  1.9427 -0.3450  0.6378
28360SOL     OW88610   0.970   7.365   3.416 -0.6218 -0.3633 -0.0029
28360SOL    HW188611   0.949   7.329   3.503  1.6855 -0.8735  0.4229
28360SOL    HW288612   0.943   7.457   3.421  1.1862  0.1515  2.0213
28361SOL     OW88613   8.271   7.108   9.829  0.6760  0.1215  0.4773
28361SOL    HW188614   8.320   7.121   9.748 -0.4764 -0.9721 -0.4389
28361SOL    HW288615   8.182   7.088   9.800 -0.0915  1.0621  2.0575
28362SOL     OW88616   9.952   9.734   2.348 -0.5728 -0.2963  0.2625
28362SOL    HW188617   9.936   9.795   2.419 -0.4838 -0.3698  0.3455
28362SOL    HW288618   9.996   9.660   2.389  1.6683  0.6744 -0.2667
28363SOL     OW88619   1.401   2.075   4.367 -0.2777 -0.0367  0.1741
28363SOL    HW188620   1.475   2.129   4.395  0.0812  0.1004 -0.9803
28363SOL    HW288621   1.362   2.044   4.449 -0.5304  2.0057  0.8942
28364SOL     OW88622   8.582   9.153  10.995  0.1763  0.0617 -0.2924
28364SOL    HW188623   8.511   9.126  11.052  1.2464 -0.4975  0.8151
28364SOL    HW288624   8.571   9.099  10.916  0.6138 -1.6135  0.7413
28365SOL     OW88625   2.543   1.322  10.048 -0.7107  0.3670  0.1434
28365SOL    HW188626   2.576   1.252   9.993  0.2808 -0.0302  1.2307
28365SOL    HW288627   2.591   1.400  10.019  0.3591  0.0126  0.9503
28366SOL     OW88628   6.936   5.049   3.235  0.2175  0.2556  0.2854
28366SOL    HW188629   6.963   5.092   3.154 -0.3644 -0.9713 -0.5836
28366SOL    HW288630   6.908   5.121   3.291  0.2621  1.1014 -0.7383
28367SOL     OW88631   0.025   0.395   7.999 -0.3209  0.1232 -0.3238
28367SOL    HW188632   0.020   0.475   7.946 -0.4069  1.5769  1.7678
28367SOL    HW288633  -0.066   0.364   8.003 -1.1404  2.4814  2.4482
28368SOL     OW88634   3.527   7.877   4.320 -0.1386  1.0144 -0.4819
28368SOL    HW188635   3.595   7.917   4.373 -0.5140  1.0371 -0.0201
28368SOL    HW288636   3.456   7.856   4.381 -0.3867  0.6255 -0.8889
28369SOL     OW88637   2.524   9.985   9.518 -0.0859  0.7656  0.0698
28369SOL    HW188638   2.507  10.073   9.483 -0.5742  0.7150  0.1713
28369SOL    HW288639   2.466   9.978   9.593 -0.6810  0.0327 -0.4478
28370SOL     OW88640   1.857   4.057   2.730 -0.2668  0.3968 -0.1963
28370SOL    HW188641   1.851   4.093   2.819 -2.0695 -1.1361  0.3635
28370SOL    HW288642   1.916   3.983   2.737 -0.1606  0.4650 -0.3530
28371SOL     OW88643   2.469   5.046   2.381  0.6428  0.1176  0.1918
28371SOL    HW188644   2.471   5.140   2.395  1.1575  0.0113  0.9012
28371SOL    HW288645   2.554   5.015   2.414  0.0621 -0.7134  0.9533
28372SOL     OW88646   5.635   7.266   0.198 -0.0539  0.1091  0.3607
28372SOL    HW188647   5.663   7.269   0.290  0.4711  1.6855  0.1844
28372SOL    HW288648   5.599   7.353   0.182 -0.9246 -0.4306 -0.7027
28373SOL     OW88649   8.897   7.187   2.451 -0.3427  0.2988 -0.1215
28373SOL    HW188650   8.966   7.138   2.407  0.6840 -0.8625  2.5585
28373SOL    HW288651   8.876   7.258   2.390  1.6955 -0.5394 -1.9567
28374SOL     OW88652   4.484   6.673  10.205 -0.6625 -0.1528  0.6664
28374SOL    HW188653   4.453   6.647  10.118 -0.0129 -1.1840  0.7242
28374SOL    HW288654   4.578   6.689  10.193 -0.7378  0.5556  0.9971
28375SOL     OW88655   0.352   2.238   6.936  0.3498 -0.3549  0.3915
28375SOL    HW188656   0.354   2.214   7.029 -1.5824  0.5569  0.7210
28375SOL    HW288657   0.437   2.279   6.921  1.2651 -1.7865  1.3586
28376SOL     OW88658   6.026  10.136   6.343 -0.2285 -0.1588  0.4979
28376SOL    HW188659   5.993  10.047   6.348  0.4506 -0.4087  0.6677
28376SOL    HW288660   6.109  10.129   6.296  0.1370  0.2892  1.0590
28377SOL     OW88661   2.075   5.148   9.971  0.2126  0.2391 -0.1144
28377SOL    HW188662   2.005   5.193  10.019  0.1725 -0.0203  0.0697
28377SOL    HW288663   2.108   5.082  10.032  1.1706  0.8971  0.1044
28378SOL     OW88664   5.375   6.215   6.776  0.3407 -0.4340 -0.0792
28378SOL    HW188665   5.418   6.300   6.764  0.1982 -0.3305  0.1446
28378SOL    HW288666   5.303   6.216   6.712  0.4430 -0.4547 -0.1942
28379SOL     OW88667   1.755   3.712  10.904 -0.4782  0.2039 -0.0382
28379SOL    HW188668   1.822   3.764  10.860 -1.1438  0.4918 -0.7286
28379SOL    HW288669   1.787   3.703  10.994 -0.9096  2.8765  0.4732
28380SOL     OW88670  10.676  10.554   8.306 -0.4693 -0.3745 -0.3198
28380SOL    HW188671  10.712  10.476   8.349 -0.7951 -0.1239  0.4143
28380SOL    HW288672  10.583  10.535   8.296 -0.3460 -0.5642 -1.2218
28381SOL     OW88673   4.853   9.715   9.775  0.2247  0.4993 -0.3808
28381SOL    HW188674   4.807   9.740   9.855  0.0722  1.1372 -0.6601
28381SOL    HW288675   4.808   9.763   9.705 -2.1971 -3.0212 -1.4545
28382SOL     OW88676   0.801   8.001   4.648  0.4322  0.1206 -0.4899
28382SOL    HW188677   0.755   8.082   4.670  1.6389  0.6412  0.2066
28382SOL    HW288678   0.853   7.981   4.725 -1.0689 -2.2604 -0.0038
28383SOL     OW88679   0.083   7.735   8.728  0.4697 -0.1421 -0.4546
28383SOL    HW188680   0.146   7.806   8.741 -0.0691  0.0561  1.4345
28383SOL    HW288681   0.004   7.779   8.696  0.9796 -0.2663 -1.9115
28384SOL     OW88682   8.690   5.357   8.520 -0.2216  0.3136 -0.5662
28384SOL    HW188683   8.672   5.291   8.453 -0.5303 -0.2112  0.0326
28384SOL    HW288684   8.638   5.331   8.596 -0.1306  1.0854 -0.2211
28385SOL     OW88685   8.322   5.093   2.824  0.1022 -0.2631 -0.1024
28385SOL    HW188686   8.235   5.127   2.804  0.6047  0.0918 -1.8665
28385SOL    HW288687   8.320   5.001   2.797  0.1920 -0.3286  0.1103
28386SOL     OW88688   7.667   6.514   4.544  0.6175  0.4217  0.0585
28386SOL    HW188689   7.643   6.606   4.558 -0.6337  0.4383 -1.9301
28386SOL    HW288690   7.648   6.497   4.452  0.6355 -1.9084  0.4184
28387SOL     OW88691   7.057   6.712  10.191 -0.0965  0.7129  0.2538
28387SOL    HW188692   7.151   6.695  10.195  0.2426  2.2751 -0.2170
28387SOL    HW288693   7.032   6.685  10.102 -0.0056  0.6656  0.2418
28388SOL     OW88694   9.527   7.608   2.939  0.0210 -0.1579 -0.4525
28388SOL    HW188695   9.476   7.667   2.884  0.5585 -0.3247 -1.1448
28388SOL    HW288696   9.487   7.615   3.026  0.0841  1.2119 -0.5248
28389SOL     OW88697   9.015   2.622  10.905  0.0307 -0.2708 -0.8277
28389SOL    HW188698   8.961   2.631  10.827 -1.8066 -0.2300  0.3880
28389SOL    HW288699   8.972   2.555  10.957 -0.5134  1.7096  1.4794
28390SOL     OW88700   4.784   6.609  10.329 -0.2552  0.3554  0.1553
28390SOL    HW188701   4.815   6.601  10.238 -2.9940 -0.0908 -0.8592
28390SOL    HW288702   4.857   6.647  10.376  1.3655  0.4045 -2.1979
28391SOL     OW88703   9.474   5.721   5.096  0.0339  0.6927 -0.4731
28391SOL    HW188704   9.517   5.635   5.096  0.1560  0.7380  0.4994
28391SOL    HW288705   9.515   5.768   5.024 -0.7639 -0.4011 -1.6897
28392SOL     OW88706   1.030   6.601  10.799  0.3484  0.0166 -0.2736
28392SOL    HW188707   1.021   6.671  10.734 -0.6160  0.1385 -0.0371
28392SOL    HW288708   1.103   6.548  10.768 -0.4898 -0.2993 -1.8189
28393SOL     OW88709   8.291   5.158   2.226  0.0108  0.0361 -0.1327
28393SOL    HW188710   8.316   5.210   2.150  0.7907 -0.2002 -0.0463
28393SOL    HW288711   8.372   5.116   2.255 -0.7052 -1.7507 -0.5889
28394SOL     OW88712   8.534   5.327   0.011 -0.3638 -0.3027 -0.7564
28394SOL    HW188713   8.611   5.380   0.031 -0.7818 -0.4637  1.5498
28394SOL    HW288714   8.463   5.390   0.002 -0.5265 -0.3255  0.2433
28395SOL     OW88715   0.678  10.023   7.540  0.2046 -0.8449 -0.0127
28395SOL    HW188716   0.711  10.055   7.624  0.5527 -1.6444  0.1548
28395SOL    HW288717   0.719   9.938   7.528 -0.3786 -1.0458 -0.6708
28396SOL     OW88718   3.427   1.373   0.677  0.3050 -0.0003  0.1560
28396SOL    HW188719   3.520   1.368   0.660  0.6403  0.8304  1.5486
28396SOL    HW288720   3.404   1.286   0.710  0.8335  0.1111  0.8429
28397SOL     OW88721   0.253   9.232  10.308 -0.2834 -0.1020  0.2765
28397SOL    HW188722   0.214   9.148  10.332  0.5408 -0.0584  1.8766
28397SOL    HW288723   0.302   9.259  10.385  0.7047  1.1407 -0.7358
28398SOL     OW88724  10.415  11.015   6.333 -0.5688 -0.0796 -0.5667
28398SOL    HW188725  10.415  11.105   6.364 -0.4625 -0.7697  1.6457
28398SOL    HW288726  10.328  10.981   6.356 -0.5226 -0.6036 -1.1402
28399SOL     OW88727   5.918   0.318  10.954 -0.4738 -0.5705  0.3699
28399SOL    HW188728   5.895   0.226  10.961  0.7505 -0.8509  0.9785
28399SOL    HW288729   5.967   0.325  10.872 -0.7827 -0.4006  0.1955
28400SOL     OW88730   8.746   9.660   9.984  0.6340  0.3814 -0.3924
28400SOL    HW188731   8.747   9.742   9.934  2.3094  1.2515  0.9582
28400SOL    HW288732   8.777   9.594   9.922 -0.1905  0.8413 -1.3314
28401SOL     OW88733   0.116   4.258   6.104  0.1537 -0.4071  0.2452
28401SOL    HW188734   0.127   4.186   6.041  0.7867 -0.3991  0.3425
28401SOL    HW288735   0.073   4.218   6.180  1.1432 -0.8392  0.5825
28402SOL     OW88736   6.486   3.432   2.282 -0.2114 -0.2888 -0.4032
28402SOL    HW188737   6.489   3.357   2.223 -0.2997  0.5526 -1.5389
28402SOL    HW288738   6.577   3.457   2.294 -0.2310  0.1057 -0.9853
28403SOL     OW88739  10.469   4.003   0.165  0.2356 -0.8098 -0.8745
28403SOL    HW188740  10.506   4.035   0.083 -1.8039  2.7685 -0.5716
28403SOL    HW288741  10.384   3.967   0.140 -0.8214  1.1838 -0.2914
28404SOL     OW88742   3.310   0.477   3.012 -0.4876 -1.0027  0.1098
28404SOL    HW188743   3.264   0.457   3.093  0.7555 -0.6345  0.9308
28404SOL    HW288744   3.376   0.543   3.036  0.1736 -1.1756 -1.1048
28405SOL     OW88745  10.419   2.892   0.979 -0.2405  0.2337  0.9623
28405SOL    HW188746  10.332   2.851   0.973 -1.3895  2.4276  1.5345
28405SOL    HW288747  10.418   2.958   0.909 -0.2240  2.2777  2.7994
28406SOL     OW88748   6.736   3.494   2.332  0.3120 -0.3082 -0.0402
28406SOL    HW188749   6.761   3.445   2.410  1.8944 -1.4729 -1.2307
28406SOL    HW288750   6.744   3.586   2.359 -1.4681 -0.6161  1.8300
28407SOL     OW88751  11.040   1.153   1.341 -0.5489  0.5775 -0.1554
28407SOL    HW188752  11.094   1.201   1.279 -1.2851  0.0927 -1.1835
28407SOL    HW288753  11.093   1.151   1.421  1.0297  0.0092 -1.1603
28408SOL     OW88754   2.795   4.986   6.068  0.3855 -0.3416 -0.1811
28408SOL    HW188755   2.753   5.016   5.987  1.3767  2.6521  0.2892
28408SOL    HW288756   2.886   4.969   6.043  0.2198 -1.4578 -0.0803
28409SOL     OW88757   1.565   5.643   6.050  0.4001 -0.0839 -0.0184
28409SOL    HW188758   1.585   5.661   5.958 -0.7929  0.8737 -0.1126
28409SOL    HW288759   1.571   5.728   6.093 -1.1550 -0.1405  0.3599
28410SOL     OW88760   1.267   3.813   1.303  0.1517 -0.3964 -0.3013
28410SOL    HW188761   1.348   3.762   1.291  0.9621  1.2009 -2.4673
28410SOL    HW288762   1.259   3.862   1.221 -1.3420  1.8391  1.0980
28411SOL     OW88763   3.888   8.566   2.594 -0.1536 -0.2019  0.5823
28411SOL    HW188764   3.861   8.617   2.670 -2.3485 -0.0838 -0.2051
28411SOL    HW288765   3.908   8.632   2.527 -0.9691 -0.3295  0.2051
28412SOL     OW88766   8.523   0.781   1.491 -0.2316 -0.1019 -0.5770
28412SOL    HW188767   8.508   0.873   1.468  0.5649 -0.3108 -2.0556
28412SOL    HW288768   8.444   0.737   1.461 -0.4801  0.0561 -0.1572
28413SOL     OW88769   5.873   7.558   0.100  0.1317 -0.1947  0.5924
28413SOL    HW188770   5.857   7.525   0.012  2.2289 -0.7399  0.3473
28413SOL    HW288771   5.874   7.479   0.155 -1.7492  0.1950  1.2470
28414SOL     OW88772   2.287   3.341   8.475 -0.1913  0.8254 -0.2366
28414SOL    HW188773   2.366   3.289   8.489  0.3729  1.7751  0.2515
28414SOL    HW288774   2.237   3.292   8.410  0.2455 -0.3902  0.3198
28415SOL     OW88775  10.890   8.316   1.026  0.0389  0.5612  0.2894
28415SOL    HW188776  10.864   8.343   0.938 -1.2689 -0.4985  0.3326
28415SOL    HW288777  10.808   8.315   1.076  0.6311  0.2232  1.2765
28416SOL     OW88778  10.821   0.571   3.629 -0.4014  0.0327  0.8294
28416SOL    HW188779  10.772   0.494   3.655  1.2030 -1.7676 -1.0824
28416SOL    HW288780  10.884   0.585   3.700 -0.1768 -0.9526  0.8391
28417SOL     OW88781  10.699   8.515   1.254  0.5545  0.4620  0.4018
28417SOL    HW188782  10.640   8.565   1.310 -0.7635 -0.4079 -0.1558
28417SOL    HW288783  10.703   8.428   1.295 -0.0003 -0.0224 -0.5395
28418SOL     OW88784   2.263   2.018   6.956  0.1430  0.2493  0.2539
28418SOL    HW188785   2.259   2.109   6.926  0.2349  0.3549  0.5648
28418SOL    HW288786   2.237   2.021   7.047 -0.2580 -0.0958  0.1524
28419SOL     OW88787   9.346   4.658   9.170 -0.5022 -0.0266  0.1991
28419SOL    HW188788   9.391   4.642   9.253 -1.3480 -1.9495  0.3405
28419SOL    HW288789   9.256   4.678   9.195 -1.0046 -1.5908 -0.2473
28420SOL     OW88790   3.584  10.520   4.522  0.0975  0.1828  0.1996
28420SOL    HW188791   3.491  10.542   4.531  0.0293  0.5248 -1.0760
28420SOL    HW288792   3.620  10.592   4.469  0.8170 -0.5747 -0.3576
28421SOL     OW88793   5.436   9.447   8.369 -0.3015 -0.1469  0.0641
28421SOL    HW188794   5.523   9.480   8.390 -0.2222  1.8510 -2.7847
28421SOL    HW288795   5.452   9.368   8.316  0.0322  1.6198 -2.6814
28422SOL     OW88796  10.744   2.013   3.287 -0.3274 -0.4361 -0.3725
28422SOL    HW188797  10.825   2.051   3.253  1.1410 -1.4408  1.7625
28422SOL    HW288798  10.744   1.923   3.255  0.4820 -1.0380  1.1907
28423SOL     OW88799   2.605   7.518   8.469 -0.3177 -0.0148 -0.2852
28423SOL    HW188800   2.582   7.449   8.406 -0.9154 -0.5024  0.4454
28423SOL    HW288801   2.583   7.599   8.423 -0.1162 -0.3291 -0.9588
28424SOL     OW88802   8.039   2.286   6.973 -0.2926 -0.1076  0.3427
28424SOL    HW188803   7.975   2.237   6.922 -0.6908 -0.9019  1.5557
28424SOL    HW288804   8.117   2.287   6.919 -0.5068 -1.4623 -0.0239
28425SOL     OW88805   2.817   7.748  10.538  0.1346 -0.1852 -0.0278
28425SOL    HW188806   2.814   7.660  10.502 -0.5086 -0.5500  0.8945
28425SOL    HW288807   2.862   7.739  10.621 -1.5050  0.0264  0.9278
28426SOL     OW88808   3.442   2.877   5.803  0.2623 -0.2941  0.6614
28426SOL    HW188809   3.352   2.868   5.833 -0.1252 -0.4905 -0.5427
28426SOL    HW288810   3.460   2.971   5.808 -0.3270 -0.1409  0.0139
28427SOL     OW88811   8.309   4.221   4.916  0.4547 -0.2824 -0.2829
28427SOL    HW188812   8.293   4.316   4.922  1.2608 -0.1789  0.3809
28427SOL    HW288813   8.363   4.210   4.838 -1.8442 -0.5219 -1.9454
28428SOL     OW88814   3.746   3.039   8.567 -0.5690 -0.3800 -0.5367
28428SOL    HW188815   3.801   3.096   8.622  1.1521 -1.4730 -1.0382
28428SOL    HW288816   3.687   3.100   8.522  0.6824  0.9512 -0.4808
28429SOL     OW88817   9.248   8.321   2.996 -0.5824 -0.0253  0.2831
28429SOL    HW188818   9.222   8.407   2.963 -0.2150 -0.4394 -1.1875
28429SOL    HW288819   9.334   8.306   2.957 -1.2246 -1.6181 -0.6329
28430SOL     OW88820  10.450   4.274   7.250 -0.1554 -0.0133 -0.0959
28430SOL    HW188821  10.502   4.259   7.171  1.0292 -3.2199  1.0879
28430SOL    HW288822  10.365   4.234   7.231 -0.4655  0.7266 -0.2958
28431SOL     OW88823   6.643   0.657   2.398  0.1624 -0.1570 -0.1629
28431SOL    HW188824   6.653   0.609   2.480  1.3239  0.0888 -0.1415
28431SOL    HW288825   6.624   0.747   2.426  1.6309  0.1637 -0.1159
28432SOL     OW88826   5.880   0.031  10.913  0.0379  0.2059 -0.3113
28432SOL    HW188827   5.852  -0.054  10.879  0.7279  0.1971 -0.8931
28432SOL    HW288828   5.874   0.022  11.008 -4.5528  1.1033 -0.3151
28433SOL     OW88829   6.109   4.814  10.482 -0.6499  0.1490 -0.9455
28433SOL    HW188830   6.128   4.884  10.544 -0.3829 -0.5644 -0.1872
28433SOL    HW288831   6.192   4.798  10.437  0.3367 -2.0141  1.3736
28434SOL     OW88832   4.414   7.984   9.168 -0.2584 -0.7630  0.0060
28434SOL    HW188833   4.431   8.076   9.149 -1.9560 -0.2110  0.9691
28434SOL    HW288834   4.325   7.970   9.137 -0.0430 -2.0795 -0.0600
28435SOL     OW88835   6.546   2.685   9.653 -0.1992 -0.1000  0.0201
28435SOL    HW188836   6.599   2.615   9.613  0.2305  0.1767  0.0922
28435SOL    HW288837   6.459   2.647   9.660 -0.2627 -0.2092 -1.0542
28436SOL     OW88838   0.281   4.758   4.874 -0.1846  0.2267 -0.4284
28436SOL    HW188839   0.277   4.853   4.865  0.0774  0.2945  0.1474
28436SOL    HW288840   0.272   4.742   4.968 -0.2143 -0.3148 -0.5208
28437SOL     OW88841   6.705   8.326   1.367 -0.5174  0.0879  0.2061
28437SOL    HW188842   6.660   8.263   1.423  1.1792 -1.6494 -0.2918
28437SOL    HW288843   6.752   8.273   1.303 -0.0212  1.9117 -1.0481
28438SOL     OW88844   1.973   1.297   7.801 -0.0332  0.2187  0.1774
28438SOL    HW188845   1.888   1.323   7.834  0.0265  1.4432 -0.5561
28438SOL    HW288846   1.961   1.208   7.768 -0.5438 -0.3115  1.7297
28439SOL     OW88847   9.523   0.723   4.964 -0.0177 -0.0140 -1.1178
28439SOL    HW188848   9.533   0.653   5.028 -0.6298 -0.1416 -1.1511
28439SOL    HW288849   9.444   0.770   4.992  0.3317  0.6035 -1.1505
28440SOL     OW88850   3.922   0.920   7.242  0.4793  0.2956 -0.7264
28440SOL    HW188851   3.889   0.865   7.172  0.7381 -0.3847 -0.3176
28440SOL    HW288852   4.010   0.887   7.260 -0.6595 -1.5902  1.9802
28441SOL     OW88853   0.474   8.130   8.916  0.2507  0.0176  0.4978
28441SOL    HW188854   0.452   8.151   8.825  0.1003  1.6669  0.8747
28441SOL    HW288855   0.393   8.150   8.965  0.8709  0.8921  1.2045
28442SOL     OW88856   7.433   8.674   5.733 -0.1840 -0.4675 -0.4774
28442SOL    HW188857   7.451   8.608   5.666  0.5008  0.4617 -1.2471
28442SOL    HW288858   7.483   8.751   5.705  2.5598 -0.8855  2.5775
28443SOL     OW88859   9.584   2.504   8.686  0.1434 -0.2560  0.0597
28443SOL    HW188860   9.530   2.499   8.608  1.6643  0.6127 -1.1105
28443SOL    HW288861   9.551   2.580   8.734  1.5259  1.5267 -1.6658
28444SOL     OW88862   1.589   9.463   2.740  0.2652 -0.5483  0.3318
28444SOL    HW188863   1.567   9.510   2.660 -1.0373  0.1976  1.0990
28444SOL    HW288864   1.655   9.518   2.782 -1.6326  0.9659  1.4866
28445SOL     OW88865   4.026   7.050   9.416  0.4397  0.7510 -0.2792
28445SOL    HW188866   4.024   6.970   9.469  0.1237  1.0402  0.1581
28445SOL    HW288867   4.014   7.019   9.326  1.2990  0.2240 -0.2283
28446SOL     OW88868   7.552  10.238   0.531  0.2285  0.5380  0.2889
28446SOL    HW188869   7.637  10.258   0.492 -0.0409  1.0955 -0.0258
28446SOL    HW288870   7.521  10.161   0.482 -0.4211  1.6541 -1.1090
28447SOL     OW88871   7.113   2.780   5.740  0.3585  0.2096  0.9590
28447SOL    HW188872   7.170   2.832   5.797  0.5474 -0.2394  1.1892
28447SOL    HW288873   7.126   2.690   5.770  1.0641 -0.1375 -0.2990
28448SOL     OW88874   7.012   1.692   5.382 -1.0938  0.0624  0.1537
28448SOL    HW188875   7.011   1.686   5.286  0.0782 -2.4068  0.1978
28448SOL    HW288876   6.920   1.690   5.407 -1.3940 -2.1149 -0.8866
28449SOL     OW88877   1.478  10.290   2.826 -0.2306 -0.4755  0.0680
28449SOL    HW188878   1.538  10.345   2.876 -0.9006  0.9775 -0.6955
28449SOL    HW288879   1.533  10.218   2.795  0.9632  0.4612 -0.0486
28450SOL     OW88880   4.307   3.821   7.525  0.2320 -0.3151  0.0256
28450SOL    HW188881   4.396   3.838   7.556 -0.3038  2.1461  0.4008
28450SOL    HW288882   4.306   3.727   7.507  3.1628 -0.2993 -0.8284
28451SOL     OW88883   6.624   5.114   8.161  0.3664 -0.1501  0.3362
28451SOL    HW188884   6.593   5.192   8.206 -1.6936 -1.2052  0.8568
28451SOL    HW288885   6.546   5.077   8.119  1.2886 -1.8982  0.0604
28452SOL     OW88886  10.714   0.813   3.533  0.9894  0.2793 -0.6507
28452SOL    HW188887  10.753   0.726   3.540 -0.3116 -0.2454  0.4427
28452SOL    HW288888  10.785   0.868   3.501  2.4208 -0.7908  0.5191
28453SOL     OW88889   2.088   1.897   3.202 -0.0318 -0.0693 -0.1540
28453SOL    HW188890   2.048   1.867   3.120 -1.7453 -0.1966  0.6689
28453SOL    HW288891   2.119   1.816   3.244 -1.8860 -0.4267  0.6547
28454SOL     OW88892   5.442   1.986   8.433 -0.6482  0.4209 -0.1459
28454SOL    HW188893   5.465   2.053   8.368  0.8916 -0.5431 -0.6467
28454SOL    HW288894   5.432   1.906   8.381 -0.6845 -0.1010  0.6589
28455SOL     OW88895   7.498   9.582   4.801  0.0420 -0.6141 -0.4727
28455SOL    HW188896   7.590   9.602   4.820  0.0846 -1.7488  0.6163
28455SOL    HW288897   7.501   9.512   4.737  0.0076 -2.3325  1.3217
28456SOL     OW88898   9.751   4.972   2.822 -0.2716 -0.3951  0.4200
28456SOL    HW188899   9.792   5.038   2.765  0.4937  2.4605  3.8973
28456SOL    HW288900   9.812   4.899   2.823  0.8346  0.4794 -0.5785
28457SOL     OW88901   5.632  10.837   0.610 -0.5028 -0.2439 -0.6598
28457SOL    HW188902   5.560  10.895   0.635  0.0181  1.3765 -2.5716
28457SOL    HW288903   5.686  10.891   0.552  1.8071 -1.6754  0.0414
28458SOL     OW88904   5.175   8.978  10.584 -0.0444  0.8835 -0.1442
28458SOL    HW188905   5.094   8.930  10.569 -1.1038  2.4645  0.3136
28458SOL    HW288906   5.147   9.062  10.621  1.7593  1.7176 -0.5632
28459SOL     OW88907   1.514   4.543   8.601  0.0954 -0.2472  0.0363
28459SOL    HW188908   1.512   4.628   8.645  1.1713 -0.8497  1.3598
28459SOL    HW288909   1.484   4.481   8.668  0.1925 -0.9984 -0.6063
28460SOL     OW88910   8.722   4.237   4.675 -0.1486  0.1085  0.1940
28460SOL    HW188911   8.811   4.229   4.640 -0.0740  0.2887  0.3396
28460SOL    HW288912   8.706   4.153   4.718 -0.0906  0.0343  0.0731
28461SOL     OW88913   5.407  10.660   4.117 -0.0946 -0.1295  0.4922
28461SOL    HW188914   5.482  10.678   4.174  0.4999  0.9641 -0.5791
28461SOL    HW288915   5.335  10.711   4.155  0.3053  0.6238  0.2642
28462SOL     OW88916   9.528  10.273   6.614 -0.2988 -0.0585 -0.1024
28462SOL    HW188917   9.453  10.214   6.624 -0.8969  0.6826 -0.0738
28462SOL    HW288918   9.572  10.242   6.535  0.4543 -1.6530  0.8958
28463SOL     OW88919   5.622   7.296   0.475  0.0808  0.5331  0.0684
28463SOL    HW188920   5.530   7.291   0.498 -0.3324  2.0205 -1.0708
28463SOL    HW288921   5.660   7.354   0.541  0.7684 -1.8304  1.9106
28464SOL     OW88922   5.842   2.107   5.236  0.1882 -0.7257 -0.0888
28464SOL    HW188923   5.868   2.030   5.185 -0.5198  0.2590 -2.0302
28464SOL    HW288924   5.746   2.101   5.241 -0.1277  1.1045 -2.2284
28465SOL     OW88925   4.548  10.382   1.259 -0.1762 -0.2567 -0.2774
28465SOL    HW188926   4.556  10.355   1.167 -0.4339  0.0645 -0.3993
28465SOL    HW288927   4.472  10.334   1.291 -1.3275  1.1099 -0.8107
28466SOL     OW88928   6.938   7.589   0.885  0.0221 -0.5174 -0.2961
28466SOL    HW188929   6.978   7.573   0.799 -2.2308 -0.0081 -1.5173
28466SOL    HW288930   6.844   7.583   0.869 -0.5360  1.4845  1.7497
28467SOL     OW88931   6.794   5.288   1.084 -0.4144 -0.0427  0.4753
28467SOL    HW188932   6.753   5.258   1.003 -0.6951  1.3114  0.0848
28467SOL    HW288933   6.843   5.367   1.059  1.9053 -1.1865  1.0540
28468SOL     OW88934   5.619   2.808   5.844  0.4628 -0.7382 -0.0377
28468SOL    HW188935   5.675   2.777   5.915  0.4630 -0.9476 -0.1279
28468SOL    HW288936   5.676   2.808   5.767  0.1877 -1.5136 -0.2517
28469SOL     OW88937   9.236   3.407   7.641 -0.7837 -0.4567 -0.2422
28469SOL    HW188938   9.160   3.386   7.695 -0.7012 -2.0994 -0.7293
28469SOL    HW288939   9.307   3.355   7.678 -0.0769  0.4499 -0.2898
28470SOL     OW88940   1.216   3.787  10.912  0.1012 -0.2415 -0.0639
28470SOL    HW188941   1.219   3.796  10.817 -0.1605 -1.4224 -0.1985
28470SOL    HW288942   1.307   3.774  10.938  0.1689  0.0492 -0.1486
28471SOL     OW88943   0.658   4.967   2.258 -0.0021 -0.3959 -0.0021
28471SOL    HW188944   0.743   4.923   2.255  0.5243  0.5700 -3.1765
28471SOL    HW288945   0.599   4.911   2.208 -1.0347 -0.5814  1.3586
28472SOL     OW88946   6.782   8.887  10.548 -0.6557  0.1668  0.2364
28472SOL    HW188947   6.872   8.915  10.562 -0.1003 -0.8153 -1.1825
28472SOL    HW288948   6.740   8.963  10.507 -0.5133  0.6534  0.9743
28473SOL     OW88949  10.395  11.094   0.900  0.6007  0.0021  0.2857
28473SOL    HW188950  10.456  11.040   0.850 -1.2709 -1.0782 -0.9569
28473SOL    HW288951  10.369  11.164   0.839  0.0693  0.0412  0.5520
28474SOL     OW88952   0.158  10.185   2.336 -0.1010  0.0054 -0.0475
28474SOL    HW188953   0.083  10.132   2.363 -0.5992  0.1746 -1.0499
28474SOL    HW288954   0.234  10.139   2.371 -0.6180 -0.6569  0.2180
28475SOL     OW88955   8.628   1.626  11.017  0.5071  0.3484  0.1223
28475SOL    HW188956   8.698   1.572  10.979 -1.5480 -2.0989 -0.4963
28475SOL    HW288957   8.591   1.672  10.941  2.2341  2.7675  0.6460
28476SOL     OW88958   6.472   3.035   4.003  0.7967 -0.1069  0.4753
28476SOL    HW188959   6.438   2.956   3.961  1.8017 -1.9921  2.9429
28476SOL    HW288960   6.501   3.006   4.089  2.9756  2.6047  0.8058
28477SOL     OW88961   4.895   6.636   8.953 -0.4052 -0.5900  0.7330
28477SOL    HW188962   4.817   6.668   8.909  0.0095 -0.3013  0.1951
28477SOL    HW288963   4.955   6.612   8.883  0.4217  0.2541  1.1210
28478SOL     OW88964   7.705  10.075   8.144  0.0712  0.0544 -0.1671
28478SOL    HW188965   7.685  10.138   8.074 -0.0365  0.3281  0.1097
28478SOL    HW288966   7.800  10.082   8.156 -0.0636  0.8779  0.5334
28479SOL     OW88967   2.159   5.432   8.238 -0.3805 -0.4087  0.3844
28479SOL    HW188968   2.227   5.369   8.214 -1.5366 -1.7181  0.4352
28479SOL    HW288969   2.202   5.489   8.302  1.5317  0.6449 -1.6627
28480SOL     OW88970   5.170   0.077  10.973  0.5993  0.0630 -0.2092
28480SOL    HW188971   5.116   0.073  11.052  1.7682 -0.2442  0.6023
28480SOL    HW288972   5.210   0.164  10.976 -1.2180  1.0303 -1.7801
28481SOL     OW88973   3.572  10.262   9.521 -0.1915  0.1963 -0.2817
28481SOL    HW188974   3.658  10.225   9.502 -0.0590 -0.1444  0.8873
28481SOL    HW288975   3.585  10.357   9.512  0.6562  0.2433  1.0550
28482SOL     OW88976   4.872   1.634   7.784  0.8653  0.1066 -0.4159
28482SOL    HW188977   4.863   1.569   7.714 -1.9024  0.3973 -0.4130
28482SOL    HW288978   4.841   1.588   7.862  1.3012  0.6599  0.0839
28483SOL     OW88979   6.220   2.539   5.521  0.7997 -0.5683 -0.3672
28483SOL    HW188980   6.193   2.629   5.503  0.9939  0.0733  2.1652
28483SOL    HW288981   6.233   2.500   5.435 -0.3952  1.4766 -1.5464
28484SOL     OW88982   5.465   3.554   7.224 -0.4002  0.3669 -0.1181
28484SOL    HW188983   5.457   3.628   7.285  0.7269  1.3722 -1.1364
28484SOL    HW288984   5.526   3.585   7.157  0.8948 -1.8467 -0.0456
28485SOL     OW88985   0.237   3.065   2.962  0.2912  0.5844  0.6182
28485SOL    HW188986   0.163   3.126   2.957 -0.2161  0.2537  2.7319
28485SOL    HW288987   0.247   3.049   3.056  0.6378 -2.2864  0.1694
28486SOL     OW88988   3.903   4.834   1.328 -0.6040 -0.2857 -0.3731
28486SOL    HW188989   3.827   4.873   1.372 -0.1567 -0.8706  0.9692
28486SOL    HW288990   3.975   4.846   1.390  0.4683  0.4402 -1.7101
28487SOL     OW88991   5.852   0.123   2.037  0.6062  0.7518 -0.3491
28487SOL    HW188992   5.832   0.030   2.048  0.9833  0.9083  2.0524
28487SOL    HW288993   5.941   0.125   2.004  0.5633  0.2734 -0.5039
28488SOL     OW88994   8.371   2.688  10.678 -0.3926  0.2365  0.3928
28488SOL    HW188995   8.278   2.702  10.660 -0.4934 -0.8656 -0.0007
28488SOL    HW288996   8.374   2.666  10.771 -0.5209  0.3668  0.4269
28489SOL     OW88997   7.544   9.960   0.771  0.3050 -0.0544 -0.5166
28489SOL    HW188998   7.499   9.963   0.687 -0.8791  3.1777  0.0875
28489SOL    HW288999   7.597  10.040   0.773 -0.8051  0.7193  2.3251
28490SOL     OW89000   8.301   6.102   6.467 -0.2976 -0.0260 -0.4879
28490SOL    HW189001   8.382   6.136   6.505 -0.9573 -1.1967  2.1570
28490SOL    HW289002   8.318   6.101   6.373  1.9349  1.8017 -0.1921
28491SOL     OW89003   1.469   6.711  10.763 -0.1719  0.2260 -0.4932
28491SOL    HW189004   1.449   6.758  10.682 -0.9668  0.0985 -0.3754
28491SOL    HW289005   1.565   6.711  10.767 -0.1066 -0.1043 -1.6323
28492SOL     OW89006   6.305   7.321   0.572 -0.0762  0.3467  0.2751
28492SOL    HW189007   6.376   7.383   0.552  0.1233 -0.3568 -1.3088
28492SOL    HW289008   6.247   7.326   0.497  0.0018 -1.4704  0.0697
28493SOL     OW89009   1.382   2.801   6.637 -0.0273 -0.9057 -0.4920
28493SOL    HW189010   1.438   2.725   6.651  0.5676 -0.2002  1.2680
28493SOL    HW289011   1.344   2.788   6.550  0.1588 -3.1310 -0.2920
28494SOL     OW89012   2.481   9.057   5.193  0.3032  0.4595  0.0282
28494SOL    HW189013   2.548   9.051   5.125 -1.3149  1.2948 -1.7307
28494SOL    HW289014   2.403   9.017   5.154 -0.5879  0.6275  1.5452
28495SOL     OW89015   2.769   3.129   9.497  0.1957 -0.1473  0.0307
28495SOL    HW189016   2.830   3.134   9.424  0.5388 -1.3085  0.2179
28495SOL    HW289017   2.687   3.166   9.463  0.4571 -0.3378 -0.8192
28496SOL     OW89018   8.446   4.451   5.807  0.2687 -0.8547  0.3936
28496SOL    HW189019   8.488   4.535   5.790  0.4504 -0.3151  3.0979
28496SOL    HW289020   8.353   4.465   5.788 -0.0031  0.5614  2.4575
28497SOL     OW89021   6.767   4.387  10.185 -0.0345 -0.2938  0.1087
28497SOL    HW189022   6.812   4.378  10.269 -0.2463 -0.1799  0.2357
28497SOL    HW289023   6.771   4.480  10.166 -0.1137 -0.2998  0.0632
28498SOL     OW89024   1.918   4.482   7.793 -0.3181  0.3373  0.4386
28498SOL    HW189025   1.928   4.442   7.879  1.1536  1.2858  0.7244
28498SOL    HW289026   1.925   4.408   7.732 -3.2653 -0.6429  1.1306
28499SOL     OW89027   8.221   1.956   8.286  0.1810 -0.2204 -0.0249
28499SOL    HW189028   8.157   1.904   8.236 -0.5795 -1.0454  1.7108
28499SOL    HW289029   8.204   2.046   8.259 -1.1236 -0.5101 -0.2832
28500SOL     OW89030   8.046   4.099   6.823  0.4602  0.1518 -0.0737
28500SOL    HW189031   7.959   4.076   6.790  0.2940 -0.1408  0.5544
28500SOL    HW289032   8.031   4.122   6.915  0.8906  1.0850 -0.2216
28501SOL     OW89033   4.425   3.930   7.301  0.3625  0.0980 -0.1271
28501SOL    HW189034   4.431   4.025   7.297  0.3277  0.0683 -0.9998
28501SOL    HW289035   4.368   3.913   7.376  0.3536  0.7563  0.0241
28502SOL     OW89036   6.639   6.257   0.495  0.4695  0.2733 -0.2887
28502SOL    HW189037   6.700   6.302   0.436  0.6185  1.6736  0.8900
28502SOL    HW289038   6.681   6.262   0.581 -1.2874  1.2732  0.5546
28503SOL     OW89039   9.189   2.817   9.017  0.0770 -0.1089  0.3528
28503SOL    HW189040   9.256   2.794   8.953  0.8738 -0.4094  1.2543
28503SOL    HW289041   9.190   2.913   9.020 -1.0175 -0.0298 -1.1342
28504SOL     OW89042   5.748   7.214   7.032  0.0639 -0.5243 -0.0653
28504SOL    HW189043   5.764   7.140   7.092  2.7598 -0.9406 -1.1597
28504SOL    HW289044   5.789   7.289   7.075  0.4069 -0.4380 -0.5320
28505SOL     OW89045   4.371   6.520   8.650 -0.2267 -0.0475 -0.1299
28505SOL    HW189046   4.463   6.523   8.677 -0.7705 -0.3460  1.8767
28505SOL    HW289047   4.327   6.469   8.718 -2.0504  0.9199 -0.5198
28506SOL     OW89048   2.685   1.000   8.813 -0.2998  0.0673 -0.0826
28506SOL    HW189049   2.645   1.062   8.874  0.0353 -1.0320  1.3262
28506SOL    HW289050   2.769   0.979   8.853 -0.0630 -0.6907 -0.9493
28507SOL     OW89051   6.871   2.445   2.555 -0.1459  0.4949  0.4926
28507SOL    HW189052   6.901   2.429   2.645  2.5392 -0.9545 -0.5377
28507SOL    HW289053   6.948   2.429   2.501 -2.0704 -0.2538 -2.2444
28508SOL     OW89054   4.542   5.667  10.795  0.0641  0.0702  0.2413
28508SOL    HW189055   4.558   5.613  10.873  1.6252 -1.2815 -0.9286
28508SOL    HW289056   4.447   5.673  10.789 -0.1322 -1.5930  1.0746
28509SOL     OW89057   9.964   9.818   7.431  0.7696  0.0238  0.2927
28509SOL    HW189058  10.035   9.851   7.486  1.1150 -0.5782  0.2121
28509SOL    HW289059   9.897   9.789   7.493 -0.2837  2.3694  0.3837
28510SOL     OW89060   6.334   9.145   8.131  0.7265  0.3271  0.1068
28510SOL    HW189061   6.346   9.231   8.093  2.7710  0.4527  0.9177
28510SOL    HW289062   6.402   9.138   8.198 -0.3701 -1.3149  1.1408
28511SOL     OW89063   5.686   0.851   6.532  0.5907  0.0055 -0.0814
28511SOL    HW189064   5.622   0.829   6.465  0.5749 -0.8326  0.2002
28511SOL    HW289065   5.763   0.880   6.483  2.0799 -4.3452 -0.7325
28512SOL     OW89066   7.033   9.207   2.531  0.5116  0.1741 -0.2703
28512SOL    HW189067   6.971   9.277   2.512  1.0540  0.6803 -0.1963
28512SOL    HW289068   6.981   9.127   2.524 -0.0602  0.5641 -0.5854
28513SOL     OW89069   0.375   7.033   5.108 -0.3017 -0.0308  0.1008
28513SOL    HW189070   0.436   6.963   5.084 -0.5991 -0.4880  0.6725
28513SOL    HW289071   0.313   7.036   5.035  1.6344  1.9510 -1.6427
28514SOL     OW89072   4.522   3.467   7.244 -0.1363  0.2169 -0.0358
28514SOL    HW189073   4.594   3.404   7.240 -0.7049 -0.4449  0.0513
28514SOL    HW289074   4.545   3.534   7.178  0.4172 -0.1295 -0.2004
28515SOL     OW89075   8.369   0.900   8.232  0.5463  0.2338  0.4843
28515SOL    HW189076   8.331   0.966   8.290  0.4394  2.5836 -2.0654
28515SOL    HW289077   8.464   0.910   8.242  0.5762 -1.0927  1.9760
28516SOL     OW89078   4.207   3.878   6.507  0.0285  0.4053  0.1111
28516SOL    HW189079   4.212   3.894   6.413  1.5835  1.2101  0.3011
28516SOL    HW289080   4.265   3.804   6.522 -0.9523 -0.3360  0.3304
28517SOL     OW89081   2.304   0.603   2.068 -0.4100  0.2013 -0.1527
28517SOL    HW189082   2.217   0.608   2.108  0.1155 -1.9608  1.4710
28517SOL    HW289083   2.307   0.515   2.031 -0.0595  1.3888 -3.2015
28518SOL     OW89084   2.696   6.090  10.043  0.0723  0.5100 -0.4459
28518SOL    HW189085   2.619   6.127  10.086 -1.3424 -1.3614 -1.2289
28518SOL    HW289086   2.691   6.123   9.953  2.2793  3.3164  0.3060
28519SOL     OW89087   1.745   9.226   0.614 -0.1817  0.1329 -0.6534
28519SOL    HW189088   1.771   9.217   0.705 -1.2212 -0.1616 -0.3675
28519SOL    HW289089   1.825   9.209   0.564  0.2840 -0.2058  0.1878
28520SOL     OW89090   8.000  10.169   3.008 -0.4812  0.1916 -0.2738
28520SOL    HW189091   8.005  10.103   3.076  1.2835 -0.3139 -0.8419
28520SOL    HW289092   8.040  10.247   3.046  0.2832 -0.0175 -0.6370
28521SOL     OW89093   8.182   9.338   5.242  0.1030  0.0043  0.0045
28521SOL    HW189094   8.118   9.395   5.199 -0.7273 -0.3185  0.7574
28521SOL    HW289095   8.224   9.291   5.170  0.7859  1.5186 -0.6253
28522SOL     OW89096   5.596   4.193   3.720  0.5169  0.2383 -0.3779
28522SOL    HW189097   5.532   4.227   3.657 -1.1063  1.1660  1.6251
28522SOL    HW289098   5.677   4.182   3.670 -0.6945  0.8852 -2.5851
28523SOL     OW89099   2.005  10.872   1.917  0.1447 -0.0858 -0.3369
28523SOL    HW189100   1.921  10.879   1.870  0.6515 -0.3783 -1.3300
28523SOL    HW289101   1.985  10.897   2.007 -1.2658 -1.2959 -0.2713
28524SOL     OW89102   8.952   9.189   4.114 -0.1350 -1.0263  0.2024
28524SOL    HW189103   8.948   9.142   4.030  0.0530 -2.5249  0.9910
28524SOL    HW289104   8.937   9.121   4.180 -2.0215  0.3909  1.3414
28525SOL     OW89105   6.229   2.153   3.699  0.1775  0.1946 -0.1927
28525SOL    HW189106   6.163   2.101   3.745 -0.4352 -0.2502 -1.5151
28525SOL    HW289107   6.283   2.088   3.654  1.7111  0.5431  1.0870
28526SOL     OW89108   8.941  11.121   6.198 -0.1237 -0.1628  0.2906
28526SOL    HW189109   8.850  11.091   6.197  0.4407 -2.1799  2.2706
28526SOL    HW289110   8.961  11.136   6.290  1.5728  0.2043 -0.0975
28527SOL     OW89111   2.363   8.158   8.403  0.0136 -0.4127 -0.2234
28527SOL    HW189112   2.343   8.233   8.347 -0.2479  1.3632  2.0613
28527SOL    HW289113   2.285   8.148   8.459  0.5947 -1.5160  0.4350
28528SOL     OW89114   9.296  10.617   7.048 -0.1634  0.3349 -0.6392
28528SOL    HW189115   9.340  10.638   6.965  0.3821  3.4067  0.2946
28528SOL    HW289116   9.204  10.607   7.024  0.0433  0.7596 -1.6809
28529SOL     OW89117   0.646   2.920   2.820 -0.3010  0.6716 -0.6792
28529SOL    HW189118   0.738   2.924   2.796 -0.0782  0.9120  0.1796
28529SOL    HW289119   0.619   3.012   2.830 -0.0620  0.5849  1.1074
28530SOL     OW89120  10.103   2.829  10.468 -0.6840 -0.5198  0.5941
28530SOL    HW189121  10.162   2.901  10.493  0.5844 -1.6713  1.0086
28530SOL    HW289122  10.104   2.829  10.372 -2.0164  1.0361  0.5255
28531SOL     OW89123   0.572   1.236   9.628 -0.5328  0.0475  0.1014
28531SOL    HW189124   0.510   1.235   9.555 -0.2122 -0.4735 -0.1678
28531SOL    HW289125   0.618   1.319   9.618 -0.0247 -0.3166 -0.6917
28532SOL     OW89126   4.579   9.846   2.509  0.3073 -0.2723  0.4003
28532SOL    HW189127   4.630   9.887   2.578 -1.1097 -1.2324  2.0903
28532SOL    HW289128   4.638   9.845   2.433  1.7803  1.1185  1.4653
28533SOL     OW89129   8.666   4.396   6.718  0.6489  0.1034  0.0319
28533SOL    HW189130   8.588   4.347   6.745  0.7862 -0.0562  0.1395
28533SOL    HW289131   8.664   4.392   6.623  1.2736 -1.0977  0.0468
28534SOL     OW89132  10.052   7.045   7.683  0.3786 -0.0942 -0.5127
28534SOL    HW189133  10.026   7.027   7.773  0.8052  1.0702 -0.1319
28534SOL    HW289134  10.122   6.981   7.665 -0.1374 -0.7465 -0.2548
28535SOL     OW89135  10.648   3.487   1.495 -0.0496  0.7176 -0.3426
28535SOL    HW189136  10.590   3.537   1.438 -2.9689 -0.8358  1.0191
28535SOL    HW289137  10.600   3.481   1.578  3.1966  1.3605  1.7844
28536SOL     OW89138  10.456   7.326   3.513 -0.0650 -0.1932  0.2144
28536SOL    HW189139  10.406   7.344   3.433  1.5733  3.7983 -0.1224
28536SOL    HW289140  10.412   7.375   3.582  0.6247 -0.5865  0.9611
28537SOL     OW89141   9.302   5.068   4.097  0.1986 -0.5101 -0.3637
28537SOL    HW189142   9.292   4.986   4.147  0.9472  1.7288  3.9329
28537SOL    HW289143   9.395   5.072   4.077  0.1414 -0.7194 -0.6870
28538SOL     OW89144   3.242   9.756   5.186  0.6396 -0.8861 -0.0053
28538SOL    HW189145   3.265   9.705   5.264  0.3723 -0.2505  0.5005
28538SOL    HW289146   3.283   9.841   5.200 -0.3358 -0.3996 -0.0307
28539SOL     OW89147   4.832  10.448   3.250 -0.5390  0.0421 -0.3516
28539SOL    HW189148   4.886  10.434   3.329 -0.4666  1.3744 -0.1459
28539SOL    HW289149   4.747  10.476   3.284 -0.0516  2.1543 -0.7337
28540SOL     OW89150   4.132   4.449   7.090  0.4875 -0.1532 -0.2221
28540SOL    HW189151   4.091   4.388   7.029 -0.0343  1.8790 -2.0483
28540SOL    HW289152   4.223   4.419   7.096  0.1220 -1.4037 -0.6214
28541SOL     OW89153   4.779   0.217   0.777 -0.1382  0.1314  0.2812
28541SOL    HW189154   4.783   0.300   0.825 -0.0150  0.3564 -0.1167
28541SOL    HW289155   4.690   0.213   0.744  0.3837  1.0830 -1.4019
28542SOL     OW89156   1.086   7.098   0.871  0.1052  0.9287 -0.2737
28542SOL    HW189157   1.106   7.107   0.778  1.6459 -1.1214 -0.2217
28542SOL    HW289158   1.004   7.047   0.873  0.6144  0.0896 -0.5240
28543SOL     OW89159   8.922   9.335   2.477 -0.8607 -0.1086 -0.1727
28543SOL    HW189160   8.884   9.254   2.510 -0.0342 -0.5976 -0.3746
28543SOL    HW289161   8.924   9.324   2.382 -2.1828  0.8136 -0.3274
28544SOL     OW89162   8.718   2.364   3.510  0.2759 -0.2963  0.0342
28544SOL    HW189163   8.771   2.287   3.532  1.0135  0.6323  1.6851
28544SOL    HW289164   8.628   2.332   3.511  0.6665 -1.7165 -2.0053
28545SOL     OW89165  10.612   4.456   2.218 -0.0996 -0.0209  0.3072
28545SOL    HW189166  10.539   4.394   2.222  1.3971 -1.8700  0.7581
28545SOL    HW289167  10.653   4.449   2.304  0.9980  0.4438 -0.1592
28546SOL     OW89168   0.382   3.804   5.874 -0.4637  0.0019 -0.1045
28546SOL    HW189169   0.308   3.771   5.823 -1.3390  3.1308 -1.0992
28546SOL    HW289170   0.457   3.752   5.843 -1.8184 -1.6517 -0.7875
28547SOL     OW89171   0.964   2.700   3.962 -0.2851 -0.0697 -0.7134
28547SOL    HW189172   1.009   2.615   3.957  0.7199  0.4040 -0.1256
28547SOL    HW289173   0.923   2.700   4.048 -0.4970 -0.0572 -0.8144
28548SOL     OW89174   3.880  10.008   7.879 -0.8935  0.3111 -0.3996
28548SOL    HW189175   3.792  10.022   7.842 -0.8064 -2.3646 -1.8737
28548SOL    HW289176   3.867  10.013   7.973 -2.2429  1.7998 -0.6131
28549SOL     OW89177   8.367   4.548   7.370  0.5097 -0.6201 -0.4873
28549SOL    HW189178   8.366   4.540   7.275 -0.1483  0.9454 -0.6442
28549SOL    HW289179   8.402   4.464   7.401  0.8223 -1.1176 -2.0969
28550SOL     OW89180   6.254   1.343   6.471 -0.0635  0.1077  1.0691
28550SOL    HW189181   6.314   1.387   6.532  0.4414 -0.8869  1.3111
28550SOL    HW289182   6.177   1.400   6.468  0.8142  1.3325  0.8803
28551SOL     OW89183   3.515   0.732   8.447  0.4290  0.1268  0.1700
28551SOL    HW189184   3.428   0.702   8.420  0.2840  1.5995 -1.1112
28551SOL    HW289185   3.548   0.662   8.503 -1.6480 -0.3902  0.8283
28552SOL     OW89186   9.937   4.073   9.308 -0.0319  0.0528 -0.4356
28552SOL    HW189187  10.027   4.043   9.322 -0.6047 -2.1169 -1.1501
28552SOL    HW289188   9.892   3.998   9.270 -1.9840  1.3372 -0.7756
28553SOL     OW89189   4.837   5.862   4.782  0.4588 -0.3876 -0.2577
28553SOL    HW189190   4.847   5.931   4.847 -0.4724 -0.9038  0.4689
28553SOL    HW289191   4.926   5.838   4.757  0.8180  2.1085 -1.6867
28554SOL     OW89192   4.436   6.948   0.911  0.3461  0.5228 -0.1710
28554SOL    HW189193   4.453   7.008   0.984 -1.1293  2.7719 -1.5635
28554SOL    HW289194   4.369   6.888   0.945 -0.5779  1.7576  0.2253
28555SOL     OW89195   8.444  10.188  10.120  0.1179  0.3019  0.1917
28555SOL    HW189196   8.462  10.099  10.152 -1.3646 -0.3826 -0.7507
28555SOL    HW289197   8.356  10.182  10.082  0.9241  1.5468 -2.0630
28556SOL     OW89198   6.632   4.932   6.892  0.2252  0.0887 -0.0070
28556SOL    HW189199   6.671   4.993   6.829 -0.7526 -0.9896 -1.7377
28556SOL    HW289200   6.699   4.920   6.959  1.3651  1.1811 -0.9070
28557SOL     OW89201   9.406   5.697   9.805 -0.4783  0.3910 -0.3085
28557SOL    HW189202   9.377   5.736   9.723  1.5281  0.4199 -1.0588
28557SOL    HW289203   9.484   5.747   9.829  1.2095 -2.0166 -0.4295
28558SOL     OW89204   2.461   3.324   4.381  0.1686  0.2489 -0.1349
28558SOL    HW189205   2.380   3.308   4.429 -1.2659 -0.4403 -2.6101
28558SOL    HW289206   2.514   3.245   4.396 -1.0490 -0.7953 -1.1159
28559SOL     OW89207   4.454   2.103   3.305 -0.0936 -0.3388 -0.1874
28559SOL    HW189208   4.549   2.108   3.301 -0.1681  0.6462 -3.0614
28559SOL    HW289209   4.435   2.065   3.390  2.8326  0.0553  0.7343
28560SOL     OW89210   8.355   6.378   7.384 -0.3195 -0.4383  0.1287
28560SOL    HW189211   8.280   6.400   7.440  0.1256  0.1067  0.5162
28560SOL    HW289212   8.427   6.430   7.418 -0.1529  0.3085 -1.2843
28561SOL     OW89213  10.845   5.135   6.865 -0.6327 -0.5746 -0.3102
28561SOL    HW189214  10.852   5.178   6.949  1.9656  0.2992 -0.8857
28561SOL    HW289215  10.763   5.085   6.870 -1.4081  0.7919  2.0478
28562SOL     OW89216   6.941   0.838  10.585  0.0325 -0.1961 -0.0349
28562SOL    HW189217   6.859   0.841  10.536 -0.6071  1.9202  1.0852
28562SOL    HW289218   6.976   0.750  10.567 -1.5282 -0.4731 -2.0164
28563SOL     OW89219   8.201  10.110   5.648 -0.6609  0.3576 -0.2958
28563SOL    HW189220   8.285  10.096   5.604 -0.3470  0.4466  0.2697
28563SOL    HW289221   8.166  10.189   5.609 -0.3299  0.4970 -0.3142
28564SOL     OW89222   3.971   3.616   4.318  0.0331 -0.2283 -0.2629
28564SOL    HW189223   3.893   3.622   4.263 -0.5047 -0.8813  0.4033
28564SOL    HW289224   3.984   3.705   4.352  0.1498  0.0936 -1.1330
28565SOL     OW89225   7.310   9.605   0.003  0.1314  0.3387  0.3699
28565SOL    HW189226   7.317   9.700   0.017  0.7776  0.8069 -2.4090
28565SOL    HW289227   7.243   9.597  -0.065  1.1710 -1.0497 -0.5330
28566SOL     OW89228   6.300   4.465   5.704  0.5359  0.3944 -0.2440
28566SOL    HW189229   6.256   4.398   5.757 -1.5822  1.0334 -1.1113
28566SOL    HW289230   6.384   4.479   5.748 -0.3337 -0.4991  1.8111
28567SOL     OW89231   2.815   7.640   5.547  0.4486 -0.6013 -0.4147
28567SOL    HW189232   2.749   7.604   5.488 -0.6225  0.3468  0.1536
28567SOL    HW289233   2.899   7.608   5.513 -0.2925 -1.7684 -1.1981
28568SOL     OW89234   4.373   3.288   3.338 -0.1945 -0.6203 -0.7910
28568SOL    HW189235   4.316   3.293   3.415  0.3536 -0.8034 -0.3703
28568SOL    HW289236   4.379   3.378   3.307  2.1964  0.0342  1.3032
28569SOL     OW89237   0.943   6.118  10.427  0.0570 -0.1981 -0.2627
28569SOL    HW189238   0.950   6.051  10.359 -0.5353  0.2823 -0.8051
28569SOL    HW289239   0.992   6.081  10.501 -0.6088 -1.4190 -0.3916
28570SOL     OW89240   9.508   4.408   2.977 -0.0205 -0.1872  0.7061
28570SOL    HW189241   9.469   4.457   3.050  2.3393 -0.4454  2.2720
28570SOL    HW289242   9.557   4.337   3.019  3.3892  1.0153 -0.8733
28571SOL     OW89243   1.078   8.946   1.067  0.0230 -0.4463  0.6870
28571SOL    HW189244   1.123   9.030   1.081 -2.1913  1.2777 -1.6395
28571SOL    HW289245   1.009   8.945   1.134  0.2216 -0.5592  0.8920
28572SOL     OW89246   6.516   1.688   0.028 -0.5337  0.0015 -0.3132
28572SOL    HW189247   6.558   1.704  -0.056  0.2267  0.8219  0.2083
28572SOL    HW289248   6.581   1.640   0.079 -0.4802  0.6490  0.2496
28573SOL     OW89249   8.104   8.589  10.851  0.4199  0.1471  0.5651
28573SOL    HW189250   8.141   8.673  10.876 -2.2276  1.8768 -0.8688
28573SOL    HW289251   8.030   8.576  10.911 -0.6219  0.0535 -0.6918
28574SOL     OW89252   7.156   9.601   4.366 -0.3415 -0.1176  0.0386
28574SOL    HW189253   7.073   9.566   4.334 -0.5941  0.5413 -0.0465
28574SOL    HW289254   7.197   9.528   4.413 -0.2319 -0.9441 -1.2884
28575SOL     OW89255  10.593   8.511   6.980  0.0496  0.6476 -0.3800
28575SOL    HW189256  10.637   8.443   6.929  0.3402 -0.8465  1.6969
28575SOL    HW289257  10.519   8.465   7.021  0.0940  1.6413  0.8695
28576SOL     OW89258   4.868   1.881   7.668  0.5011 -0.9284  0.7146
28576SOL    HW189259   4.888   1.812   7.731  2.3771  0.6160  1.9413
28576SOL    HW289260   4.921   1.956   7.697 -0.6479  0.7062 -1.1451
28577SOL     OW89261   2.070   2.395   2.390 -0.3435 -0.6130 -0.3244
28577SOL    HW189262   2.088   2.303   2.409 -0.2569 -0.8073 -1.2767
28577SOL    HW289263   2.154   2.439   2.404 -0.3260 -0.7218 -0.0887
28578SOL     OW89264   6.284  11.036   3.444 -0.4003  0.1629 -0.1468
28578SOL    HW189265   6.341  11.050   3.520 -2.1588 -0.2700  1.3121
28578SOL    HW289266   6.253  11.124   3.421 -1.2166  0.1193  0.7508
28579SOL     OW89267   7.247   1.142   8.045  0.2915  0.3974 -0.5460
28579SOL    HW189268   7.240   1.211   7.979 -0.7069  1.4401  0.5965
28579SOL    HW289269   7.301   1.182   8.114 -0.5079  0.1457  0.2382
28580SOL     OW89270   9.762   4.862   8.154  0.1493  0.4378  0.4178
28580SOL    HW189271   9.816   4.815   8.218 -0.1929 -1.7388 -0.8081
28580SOL    HW289272   9.730   4.794   8.096 -1.0366  2.1436 -1.0001
28581SOL     OW89273   9.408   9.185   6.160  0.2925  0.2621  0.2009
28581SOL    HW189274   9.349   9.221   6.094  2.8657  2.1834 -1.2432
28581SOL    HW289275   9.432   9.099   6.125  1.0476  0.9487 -1.0554
28582SOL     OW89276   3.662  10.978   9.232 -0.5154  0.2053 -0.1626
28582SOL    HW189277   3.703  11.015   9.310  0.1308  1.3717 -1.0354
28582SOL    HW289278   3.673  11.044   9.164 -2.1523 -0.2618 -0.9443
28583SOL     OW89279   9.589   6.095   7.184 -0.5787  0.4793 -0.2264
28583SOL    HW189280   9.656   6.156   7.154  0.8788  0.1085  1.9892
28583SOL    HW289281   9.597   6.019   7.127 -0.0425  0.9921 -0.8458
28584SOL     OW89282   7.916   5.158  10.498 -0.3412  0.2121  0.0130
28584SOL    HW189283   7.935   5.160  10.592 -0.8758 -1.8743  0.2021
28584SOL    HW289284   8.002   5.151  10.457 -0.1655  0.0281  0.4028
28585SOL     OW89285   4.056   7.187   2.246  0.1654  0.1202  0.0386
28585SOL    HW189286   4.060   7.183   2.342 -0.3287 -1.2385  0.0200
28585SOL    HW289287   4.116   7.258   2.223  1.7519 -0.7578  1.2634
28586SOL     OW89288   5.696   0.069   8.411  0.6027  0.0268  0.5712
28586SOL    HW189289   5.685   0.161   8.437  0.1682  0.1796 -0.1067
28586SOL    HW289290   5.646   0.019   8.475 -0.0112  0.3490  0.3479
28587SOL     OW89291   4.290   2.994   2.408 -0.6533 -0.4872 -0.1977
28587SOL    HW189292   4.299   2.899   2.410 -0.8874 -0.4990  0.3452
28587SOL    HW289293   4.357   3.023   2.345 -0.0765 -0.9519  0.1912
28588SOL     OW89294   1.731   0.957   2.672  0.2880  0.6898  0.0863
28588SOL    HW189295   1.690   0.998   2.748  2.9019  2.2063  0.8167
28588SOL    HW289296   1.747   0.866   2.700  1.7244  1.3705  1.6467
28589SOL     OW89297   5.238   4.530   6.688 -0.1584  0.3708  0.6272
28589SOL    HW189298   5.323   4.497   6.717 -0.0198  1.7662  1.9493
28589SOL    HW289299   5.194   4.454   6.651  1.6728 -0.3729 -0.1168
28590SOL     OW89300   8.293   0.744   0.645  0.4849  0.3980 -0.8886
28590SOL    HW189301   8.380   0.714   0.622 -0.1719 -0.8488 -1.8806
28590SOL    HW289302   8.304   0.787   0.730  1.7966 -1.1294 -0.2348
28591SOL     OW89303   1.756  10.144   6.330  0.3324 -0.2169 -0.4331
28591SOL    HW189304   1.663  10.125   6.317  0.0310  0.2366  0.9299
28591SOL    HW289305   1.764  10.237   6.313  0.5426 -0.2568 -0.5577
28592SOL     OW89306   6.781   9.648   9.168 -0.6525 -0.1483 -0.2851
28592SOL    HW189307   6.848   9.717   9.170  0.1782 -0.9356 -0.5165
28592SOL    HW289308   6.791   9.607   9.082  0.3150 -1.9349  0.6103
28593SOL     OW89309   8.961   3.316   4.772  0.4777  0.1453  0.1033
28593SOL    HW189310   8.991   3.355   4.855  0.6428 -1.3064  0.7602
28593SOL    HW289311   8.867   3.336   4.769  0.8723  2.0554 -0.4429
28594SOL     OW89312   2.023   7.762   3.358 -0.3064 -0.0882  0.4403
28594SOL    HW189313   1.997   7.789   3.446  0.8566  0.1984  0.7202
28594SOL    HW289314   1.995   7.835   3.302 -2.2751 -0.8667  0.3365
28595SOL     OW89315   3.451   1.535   9.961  0.0817 -0.4201 -0.5934
28595SOL    HW189316   3.372   1.481   9.969  0.7392 -1.4824 -1.2115
28595SOL    HW289317   3.485   1.516   9.874  0.5500  0.7143 -0.6789
28596SOL     OW89318   0.358   7.401   1.371 -0.5570  0.0510  0.1020
28596SOL    HW189319   0.396   7.356   1.295 -0.8341  0.6683 -0.4104
28596SOL    HW289320   0.367   7.339   1.443  1.5602  0.2064  0.0389
28597SOL     OW89321   8.264   0.789   4.926  0.1195 -0.2303  0.8266
28597SOL    HW189322   8.356   0.790   4.902  0.0262 -1.1584  0.3730
28597SOL    HW289323   8.238   0.881   4.928  1.2367  0.0888  1.7100
28598SOL     OW89324   3.394   3.398   9.158 -0.7778 -0.0376 -0.0891
28598SOL    HW189325   3.378   3.303   9.153 -0.4610 -0.1243  0.5019
28598SOL    HW289326   3.433   3.411   9.244 -1.7034  0.7718  0.2184
28599SOL     OW89327   5.181  10.826   5.799  0.5966 -0.1683  0.4847
28599SOL    HW189328   5.235  10.905   5.811  1.0658 -0.1549 -1.3177
28599SOL    HW289329   5.101  10.844   5.847  0.3627  1.7960 -0.5247
28600SOL     OW89330   3.714   1.195   1.388  0.4291  0.4164 -0.1839
28600SOL    HW189331   3.621   1.217   1.393 -0.0837 -1.5313 -0.2694
28600SOL    HW289332   3.734   1.199   1.294  1.2753  3.7523  0.0158
28601SOL     OW89333  10.689   7.608   2.862  0.5178  0.1872 -0.0460
28601SOL    HW189334  10.672   7.515   2.877  1.2402 -0.3049 -2.0506
28601SOL    HW289335  10.767   7.626   2.914 -0.3136 -0.0001  1.3095
28602SOL     OW89336   1.058   4.036   9.712 -0.0364  0.1261 -0.0427
28602SOL    HW189337   1.039   3.953   9.669  0.9492 -0.6810  1.0020
28602SOL    HW289338   1.153   4.042   9.712 -0.0953  1.2473 -0.0784
28603SOL     OW89339   4.611   9.785   7.344  0.0651 -0.2544 -0.1177
28603SOL    HW189340   4.565   9.817   7.422 -0.0615 -0.0688 -0.2690
28603SOL    HW289341   4.662   9.710   7.376  1.5503  0.9977  0.5937
28604SOL     OW89342   7.257   0.545   6.582 -0.1277 -0.2451  0.6113
28604SOL    HW189343   7.259   0.605   6.657 -0.3698 -1.2368  1.4407
28604SOL    HW289344   7.165   0.523   6.572 -0.1038 -0.0828 -0.0282
28605SOL     OW89345  10.584   9.554   5.682  0.0237 -0.5136 -0.2828
28605SOL    HW189346  10.650   9.595   5.738  1.6606 -1.3610 -1.5109
28605SOL    HW289347  10.509   9.614   5.685  1.1345  0.8996  0.5004
28606SOL     OW89348   9.941   3.627   8.478 -0.0299 -0.1963  0.1329
28606SOL    HW189349   9.916   3.710   8.520  0.0850 -0.4875  0.7863
28606SOL    HW289350   9.858   3.582   8.462 -0.1455  0.3505 -0.8842
28607SOL     OW89351   1.803   8.707   7.503  0.6290  0.3284  0.5659
28607SOL    HW189352   1.714   8.718   7.469  0.8039 -2.6643 -1.2110
28607SOL    HW289353   1.792   8.703   7.598 -0.5433  3.8002  0.7214
28608SOL     OW89354   0.356  11.066   3.888  0.1035 -0.4312  0.9061
28608SOL    HW189355   0.332  11.038   3.976 -0.7989  0.7067  1.0503
28608SOL    HW289356   0.273  11.070   3.841  0.5012 -0.4004  0.1905
28609SOL     OW89357  10.293  10.790  11.084 -0.2191  0.6140  0.1399
28609SOL    HW189358  10.318  10.868  11.134 -0.0877  1.0709 -0.6256
28609SOL    HW289359  10.339  10.799  11.001  0.3862 -0.6726  0.3297
28610SOL     OW89360   7.875  10.304   2.730  0.4332 -0.1061 -0.0119
28610SOL    HW189361   7.914  10.220   2.753  2.9743  0.8545 -0.4642
28610SOL    HW289362   7.859  10.347   2.815  0.3473 -0.5088  0.1781
28611SOL     OW89363   6.723   9.082  10.369 -0.2192  0.0612  0.1987
28611SOL    HW189364   6.811   9.115  10.351  0.3986 -1.3530  0.4626
28611SOL    HW289365   6.705   9.022  10.296  0.1391 -1.6792  1.4922
28612SOL     OW89366   2.719   0.808   1.163 -0.4269  0.2504  0.1642
28612SOL    HW189367   2.777   0.796   1.238 -0.3241  1.1773  0.2477
28612SOL    HW289368   2.643   0.753   1.182 -0.6134  0.8338  1.1818
28613SOL     OW89369   0.782   6.290   0.812  0.4679 -0.2649 -0.1988
28613SOL    HW189370   0.736   6.311   0.731 -0.5082  1.2972  0.6940
28613SOL    HW289371   0.722   6.233   0.860  0.2477  0.2894  0.1908
28614SOL     OW89372   2.913  10.769   3.308  0.1678 -0.0171  0.0013
28614SOL    HW189373   2.823  10.737   3.316  0.8137 -1.5557  2.1538
28614SOL    HW289374   2.960  10.697   3.266  0.2768  1.1608 -2.0251
28615SOL     OW89375   2.881   3.670   5.987  1.0759 -0.4441 -0.0595
28615SOL    HW189376   2.936   3.607   5.940  2.2309 -0.8667  1.7519
28615SOL    HW289377   2.794   3.629   5.990  0.4833  0.3381 -3.1658
28616SOL     OW89378   7.123   4.778   4.629 -0.6963 -0.4731  0.1047
28616SOL    HW189379   7.187   4.720   4.588 -0.3994  0.2537 -0.4879
28616SOL    HW289380   7.158   4.793   4.717  0.4144  0.5722 -0.4766
28617SOL     OW89381   1.316   1.630   6.546 -0.2491  0.7453 -0.0784
28617SOL    HW189382   1.243   1.571   6.565 -0.9485  1.1114 -1.5100
28617SOL    HW289383   1.393   1.584   6.579 -0.8339 -0.7818 -0.7575
28618SOL     OW89384   8.060   7.468   2.192  0.7690  0.4664  0.5618
28618SOL    HW189385   7.996   7.538   2.181 -0.2439 -0.6625 -1.1392
28618SOL    HW289386   8.015   7.388   2.163  3.1005 -0.2783 -1.4316
28619SOL     OW89387   5.715   6.343   2.147 -0.0273 -0.0465  0.5897
28619SOL    HW189388   5.756   6.268   2.104 -1.6157 -1.3167  1.1612
28619SOL    HW289389   5.786   6.406   2.159  1.3178 -1.3589 -0.1239
28620SOL     OW89390  10.265  10.480  10.488 -0.9040  0.1698 -0.2498
28620SOL    HW189391  10.238  10.512  10.574 -0.2914  0.0609 -0.0125
28620SOL    HW289392  10.218  10.397  10.477 -2.5456  1.1582 -0.8939
28621SOL     OW89393   8.482   5.059   0.014  0.4259 -0.2631 -0.2960
28621SOL    HW189394   8.499   5.153   0.015 -1.5544  0.1341  0.9419
28621SOL    HW289395   8.569   5.019   0.010  1.2901  1.5831 -2.6726
28622SOL     OW89396  10.130   8.591   4.052 -0.0448  0.1762  0.1803
28622SOL    HW189397  10.044   8.553   4.037  0.2898 -0.2891 -0.6059
28622SOL    HW289398  10.192   8.523   4.027  0.5551  0.7752 -0.0011
28623SOL     OW89399   3.294   3.993   8.579  0.2036  0.6193 -0.1072
28623SOL    HW189400   3.215   4.001   8.525 -0.6704  2.4948  1.3260
28623SOL    HW289401   3.344   3.923   8.538 -1.6900  0.1134 -1.7149
28624SOL     OW89402  10.675   2.180   6.013  0.6091 -0.3842  0.0901
28624SOL    HW189403  10.617   2.248   5.979  0.5212 -0.6645 -0.3304
28624SOL    HW289404  10.677   2.195   6.107 -1.9229 -1.7190  0.4260
28625SOL     OW89405   2.593   0.965   2.126 -0.4810 -0.6128 -0.2192
28625SOL    HW189406   2.570   1.051   2.090 -0.6664 -0.1111  1.0332
28625SOL    HW289407   2.534   0.904   2.082 -1.4771  0.1294  0.0532
28626SOL     OW89408   3.805   4.038   1.381 -0.4645 -0.4129 -0.1042
28626SOL    HW189409   3.762   4.044   1.466  1.4037 -1.6165  0.9952
28626SOL    HW289410   3.873   4.106   1.383  0.3772 -1.2353 -0.1282
28627SOL     OW89411   7.745   8.018   0.022  0.1875  0.1226  0.1734
28627SOL    HW189412   7.699   8.093   0.060  1.8227  1.7563 -0.8763
28627SOL    HW289413   7.677   7.952   0.009 -1.1643  1.0878  1.9042
28628SOL     OW89414   2.075  10.253  11.013 -0.4589 -0.0580 -0.1502
28628SOL    HW189415   2.054  10.160  11.012 -0.3120 -0.1802  2.4191
28628SOL    HW289416   2.002  10.294  11.058 -0.0960  0.9673 -0.4616
28629SOL     OW89417   9.451   4.462   1.773  0.4040  0.0765 -0.2304
28629SOL    HW189418   9.487   4.480   1.859  0.6845 -0.9885 -0.1141
28629SOL    HW289419   9.385   4.395   1.788 -1.0579  1.3704 -0.5675
28630SOL     OW89420   5.972  10.874   6.178 -0.3262 -0.0572  0.1288
28630SOL    HW189421   5.977  10.799   6.237 -1.0333  1.4947  2.2980
28630SOL    HW289422   6.047  10.929   6.202 -1.0620  0.9688  0.1595
28631SOL     OW89423   0.076   0.792   0.164 -0.4980  0.1240  0.4068
28631SOL    HW189424   0.026   0.718   0.130 -0.8952  0.1366  0.9488
28631SOL    HW289425   0.165   0.758   0.175 -0.0477  0.4468 -1.7531
28632SOL     OW89426   8.486   9.608   9.881  0.9224  0.4134 -0.2951
28632SOL    HW189427   8.576   9.618   9.914  1.2486  0.6789 -1.2348
28632SOL    HW289428   8.480   9.671   9.810  0.0394  0.2700 -0.3530
28633SOL     OW89429   8.715   9.790   3.199  0.0762 -0.2791 -0.2618
28633SOL    HW189430   8.777   9.846   3.153  1.1954 -0.6047  0.8074
28633SOL    HW289431   8.640   9.783   3.139  0.8496  0.5198 -1.3604
28634SOL     OW89432   8.051   6.995   6.054  0.0143  0.1316  0.5902
28634SOL    HW189433   8.060   6.904   6.025  0.1775 -0.8297  3.3183
28634SOL    HW289434   7.970   6.995   6.106 -0.5328  1.8117 -0.2136
28635SOL     OW89435   7.164  11.127   8.340 -0.0485  0.6368 -0.2262
28635SOL    HW189436   7.186  11.219   8.329 -1.7533  1.6152  3.1015
28635SOL    HW289437   7.070  11.122   8.318 -0.0712 -0.2016  0.0230
28636SOL     OW89438   8.273   1.315   0.430  0.1306  0.2754 -0.0380
28636SOL    HW189439   8.346   1.324   0.491  0.8452  0.5083 -0.8975
28636SOL    HW289440   8.198   1.351   0.476  0.4492 -0.4072  1.0434
28637SOL     OW89441   1.492   1.540   9.089 -0.2210  0.5828  0.0338
28637SOL    HW189442   1.500   1.502   9.001 -1.4540  0.3357  0.0112
28637SOL    HW289443   1.402   1.520   9.115 -0.1732  1.5130  0.9540
28638SOL     OW89444   8.705   3.105   5.686 -0.0994  0.0082 -0.5113
28638SOL    HW189445   8.660   3.043   5.744 -1.6116  0.6340 -0.9947
28638SOL    HW289446   8.712   3.058   5.603  0.0983 -0.0623 -0.4560
28639SOL     OW89447   4.872   3.108   2.186 -0.5586 -0.0075  0.3423
28639SOL    HW189448   4.824   3.188   2.208 -0.3915  0.2038 -0.0450
28639SOL    HW289449   4.859   3.098   2.091  1.1088  0.6838  0.0191
28640SOL     OW89450   2.881   5.155   7.761  0.1722 -0.2980 -0.1258
28640SOL    HW189451   2.947   5.176   7.827 -0.2763  0.0560  0.2188
28640SOL    HW289452   2.893   5.062   7.743  1.0016 -0.1599 -0.3340
28641SOL     OW89453   7.727  10.480   9.053  0.0604 -0.9102  0.2404
28641SOL    HW189454   7.737  10.551   8.990 -0.6403 -0.1722  0.9294
28641SOL    HW289455   7.814  10.470   9.092  0.3503 -0.9673 -0.4123
28642SOL     OW89456   3.979   9.728   9.834 -0.3079  0.4525  0.3158
28642SOL    HW189457   3.939   9.720   9.920  0.9546  1.8141  1.0877
28642SOL    HW289458   4.050   9.664   9.834 -0.2614  0.5042  0.3200
28643SOL     OW89459   5.770   4.795   4.365 -0.2750  0.2559 -0.2897
28643SOL    HW189460   5.698   4.816   4.306 -0.6434 -0.8894 -0.2671
28643SOL    HW289461   5.811   4.879   4.384 -0.9697  0.7953 -1.1219
28644SOL     OW89462   1.070   8.658   5.114 -0.1574 -0.2680  0.4368
28644SOL    HW189463   1.114   8.740   5.135 -1.9126  0.2770  2.2979
28644SOL    HW289464   1.032   8.673   5.027  0.0529  0.6537  0.4996
28645SOL     OW89465   9.531   5.051   6.127  0.5683 -0.0572 -0.5987
28645SOL    HW189466   9.536   5.119   6.060  1.4999  1.0931  0.5664
28645SOL    HW289467   9.619   5.048   6.164 -0.3786  0.8209  1.9285
28646SOL     OW89468   3.428   8.049  10.440  0.0580  0.5376  0.6519
28646SOL    HW189469   3.479   7.976  10.475 -0.3906  0.8103  1.9476
28646SOL    HW289470   3.490   8.122  10.436  0.6318 -0.0145 -1.1081
28647SOL     OW89471   3.018   3.241   3.179 -0.1789 -0.2525 -0.7486
28647SOL    HW189472   2.969   3.313   3.219 -0.9046 -0.8264 -0.5691
28647SOL    HW289473   3.089   3.224   3.240 -0.3572 -0.0772 -0.4875
28648SOL     OW89474   7.478   1.650   4.828 -0.0778  0.2552 -0.0093
28648SOL    HW189475   7.536   1.726   4.834  1.9166 -1.1269 -0.7462
28648SOL    HW289476   7.513   1.588   4.892 -1.5105 -0.1879  0.3896
28649SOL     OW89477   9.331   3.448   4.523  0.1878  0.0503 -0.4022
28649SOL    HW189478   9.398   3.515   4.538 -0.8682  1.0611 -0.1113
28649SOL    HW289479   9.374   3.384   4.465  1.4759  0.5466 -0.0305
28650SOL     OW89480   9.218   3.777   0.888 -0.3056  0.0031  0.0104
28650SOL    HW189481   9.280   3.805   0.820 -1.3991 -0.7099 -1.3439
28650SOL    HW289482   9.194   3.857   0.934 -1.9346  1.1036 -2.5352
28651SOL     OW89483   7.988   0.126   3.678 -0.1688 -0.7735 -0.2427
28651SOL    HW189484   8.022   0.073   3.606  1.7458  0.2511 -0.1713
28651SOL    HW289485   7.947   0.201   3.636 -1.1997 -1.3672 -0.3049
28652SOL     OW89486  10.351   6.354   1.039 -0.2147 -0.5395 -0.4172
28652SOL    HW189487  10.444   6.339   1.057  0.0594  0.1595 -1.1921
28652SOL    HW289488  10.318   6.395   1.119  0.4353  0.3368 -0.5808
28653SOL     OW89489   6.276   8.931   7.799  0.3242  0.5163 -0.0889
28653SOL    HW189490   6.202   8.976   7.759 -0.5927 -1.3650 -0.6490
28653SOL    HW289491   6.291   8.855   7.742  0.3525 -1.0982  1.9516
28654SOL     OW89492   7.612   3.362   4.164 -0.5923  0.5450 -0.1464
28654SOL    HW189493   7.664   3.385   4.087  0.7376  0.3002  0.6493
28654SOL    HW289494   7.621   3.267   4.172  0.3897  0.7192  1.0641
28655SOL     OW89495   4.902   9.843   2.749  0.0755 -0.3921 -0.5156
28655SOL    HW189496   4.933   9.933   2.745 -0.3244 -0.2829 -1.4953
28655SOL    HW289497   4.938   9.808   2.830 -0.0048  0.7398  0.0252
28656SOL     OW89498   6.379   4.576   6.677 -0.1208  0.4848 -1.0499
28656SOL    HW189499   6.324   4.508   6.715 -1.3019  2.1490  0.4085
28656SOL    HW289500   6.435   4.605   6.749 -0.8792  2.2191 -1.1045
28657SOL     OW89501   6.184   0.513   8.663  0.1442  0.1128 -0.2025
28657SOL    HW189502   6.191   0.590   8.607 -0.2197 -0.6391 -1.3129
28657SOL    HW289503   6.247   0.451   8.626 -0.4864 -0.5875 -0.1055
28658SOL     OW89504   2.880   6.466   2.379  0.9459  0.4544  0.1144
28658SOL    HW189505   2.794   6.487   2.414  1.1683  0.9593  0.3634
28658SOL    HW289506   2.876   6.372   2.360  0.8620  0.1286  1.6131
28659SOL     OW89507   5.561   2.495   5.064  0.2322 -0.3361 -0.4634
28659SOL    HW189508   5.635   2.450   5.023 -0.3519 -0.4749 -1.3882
28659SOL    HW289509   5.492   2.496   4.997  0.7016  3.3172 -1.1219
28660SOL     OW89510   7.682   8.020   3.038 -0.5371 -0.2707  0.0691
28660SOL    HW189511   7.710   8.101   2.995  0.0105  1.1377  2.8367
28660SOL    HW289512   7.762   7.968   3.046 -0.1299  0.5149  1.4064
28661SOL     OW89513   7.300   4.215   6.768 -0.7284  0.1395  0.4482
28661SOL    HW189514   7.293   4.120   6.778  2.5325 -0.3290 -0.6401
28661SOL    HW289515   7.306   4.229   6.674 -1.6151  1.5096  0.5701
28662SOL     OW89516   5.481   0.530  10.534 -0.2172  0.4080  0.1873
28662SOL    HW189517   5.491   0.567  10.622 -1.4905  2.0017 -0.2903
28662SOL    HW289518   5.428   0.452  10.547 -1.2329  1.1731  0.7473
28663SOL     OW89519   0.771   8.638   5.102 -0.3396  0.7698 -0.4093
28663SOL    HW189520   0.829   8.714   5.113  0.6769  0.4016 -2.6135
28663SOL    HW289521   0.688   8.676   5.072 -0.7905  1.1719  1.2252
28664SOL     OW89522   1.275   6.506   3.081 -0.1939 -0.2237  0.0602
28664SOL    HW189523   1.246   6.432   3.134 -0.8616 -0.0817 -0.0965
28664SOL    HW289524   1.309   6.465   3.001  1.0980 -0.4551  0.7019
28665SOL     OW89525   5.899   8.382  10.968 -0.2437 -0.6521 -0.4723
28665SOL    HW189526   5.881   8.443  10.897 -2.3669 -1.8013 -1.0178
28665SOL    HW289527   5.968   8.325  10.935 -0.0374 -0.1317 -0.9468
28666SOL     OW89528   7.270   3.221   4.293 -0.1052  0.0915 -0.1921
28666SOL    HW189529   7.326   3.263   4.358  0.4751 -1.9023  0.6633
28666SOL    HW289530   7.181   3.232   4.326 -0.0036  0.9332 -0.1815
28667SOL     OW89531   2.482   1.316   4.847 -0.0006 -0.4998 -0.3048
28667SOL    HW189532   2.541   1.247   4.817 -0.1442 -0.5624 -0.4422
28667SOL    HW289533   2.397   1.274   4.854  0.1684 -0.6876  0.9321
28668SOL     OW89534   6.497   7.025   5.914 -0.6892 -0.0974 -0.4523
28668SOL    HW189535   6.402   7.035   5.915 -0.8991 -1.7174  0.8079
28668SOL    HW289536   6.529   7.097   5.969 -1.2086  0.1803 -0.5052
28669SOL     OW89537  10.325   7.560   6.904 -0.1493 -0.5604 -0.1486
28669SOL    HW189538  10.339   7.479   6.953  0.6365 -0.2348  0.1887
28669SOL    HW289539  10.372   7.548   6.822 -0.1280 -0.4943 -0.1465
28670SOL     OW89540  10.276   9.822   1.721  0.3585  0.0100 -0.2060
28670SOL    HW189541  10.322   9.738   1.727 -0.2164 -0.3241 -0.3697
28670SOL    HW289542  10.257   9.832   1.628  1.4990  0.9210 -0.3615
28671SOL     OW89543  10.485   2.028  10.013 -0.4063  0.3085 -0.2735
28671SOL    HW189544  10.454   2.078  10.088  1.9900 -0.6000  1.4513
28671SOL    HW289545  10.426   1.952  10.009 -1.6280  1.2300 -0.4751
28672SOL     OW89546   4.203   2.987   6.073 -0.9135  0.2598  0.0836
28672SOL    HW189547   4.254   3.067   6.075  2.3822 -1.6700  0.3346
28672SOL    HW289548   4.203   2.955   6.163 -0.9935 -0.7022 -0.2448
28673SOL     OW89549  10.453   8.913   8.989 -0.6305  0.4497 -0.5006
28673SOL    HW189550  10.435   8.909   8.895  0.3085 -0.0493 -0.6697
28673SOL    HW289551  10.444   9.005   9.012 -0.2997  0.6592 -1.1999
28674SOL     OW89552   4.904   3.440   8.717 -0.6918  0.1033 -0.8600
28674SOL    HW189553   4.828   3.400   8.761  0.2242 -1.6261 -0.7625
28674SOL    HW289554   4.889   3.423   8.624 -1.5699  1.8920 -1.0954
28675SOL     OW89555  10.998   1.254   4.691 -0.3319 -0.2322  0.1930
28675SOL    HW189556  10.903   1.260   4.701 -0.4398 -2.5945  1.7047
28675SOL    HW289557  11.031   1.252   4.781  0.7180 -3.2068 -0.1261
28676SOL     OW89558   7.529   6.073   6.271 -0.0253  0.3209 -0.2541
28676SOL    HW189559   7.488   6.159   6.273 -0.3337  0.1767 -0.3886
28676SOL    HW289560   7.605   6.083   6.214 -0.8110  0.1719 -1.3645
28677SOL     OW89561   3.228   3.800   7.750  0.3196 -0.2559 -0.0893
28677SOL    HW189562   3.153   3.798   7.689 -1.9317  0.8309  2.4491
28677SOL    HW289563   3.280   3.874   7.722  0.0676 -0.5695 -1.4665
28678SOL     OW89564   1.055  10.893   2.060  0.1832 -0.0207 -0.2419
28678SOL    HW189565   1.072  10.882   1.967 -0.5536 -1.2021 -0.2541
28678SOL    HW289566   1.125  10.845   2.104  0.3283  0.2326 -0.1985
28679SOL     OW89567   6.828   6.490   6.437 -0.4146 -0.1757  0.3456
28679SOL    HW189568   6.849   6.582   6.455  0.9784 -0.3146 -0.4281
28679SOL    HW289569   6.732   6.489   6.429 -0.3750  1.5176 -1.1741
28680SOL     OW89570   2.917   2.323   7.617 -0.2895  0.4237  0.3519
28680SOL    HW189571   2.908   2.321   7.712 -0.4383  1.0036  0.3539
28680SOL    HW289572   2.835   2.287   7.584 -1.0558  2.0182  0.4273
28681SOL     OW89573   3.447   0.562   2.707 -0.0480 -0.2221  0.3075
28681SOL    HW189574   3.444   0.653   2.676  2.3047  0.2315  1.2035
28681SOL    HW289575   3.511   0.563   2.778 -1.8222 -2.1425  2.0378
28682SOL     OW89576   8.131   0.887   1.711 -0.1301  0.1888  0.1537
28682SOL    HW189577   8.118   0.796   1.684  0.1715  0.1723  0.0598
28682SOL    HW289578   8.054   0.908   1.764 -0.9587  0.3614 -1.0746
28683SOL     OW89579   9.604   0.821  11.126  0.3386 -0.3377 -0.5983
28683SOL    HW189580   9.643   0.874  11.196 -0.6768  1.3509 -1.2446
28683SOL    HW289581   9.679   0.783  11.080  1.2069  1.6314 -0.9116
28684SOL     OW89582   8.540   3.339   5.636  0.2086 -0.0991  0.3032
28684SOL    HW189583   8.615   3.279   5.630  1.4441  1.4608 -3.7651
28684SOL    HW289584   8.473   3.300   5.580 -1.6242 -0.7683  2.7955
28685SOL     OW89585   9.810   1.795  10.592  0.1221  0.3372 -0.3024
28685SOL    HW189586   9.777   1.736  10.660 -0.4417 -1.5766 -2.1208
28685SOL    HW289587   9.735   1.849  10.569 -0.0047  0.2028 -0.2106
28686SOL     OW89588   3.593   4.680   1.432 -0.2762 -0.0711  0.2783
28686SOL    HW189589   3.605   4.606   1.372  0.9826 -0.8207  1.3815
28686SOL    HW289590   3.653   4.661   1.505  0.7327  2.4543  0.2122
28687SOL     OW89591   4.131  10.790   1.780  0.3760  0.1158  0.3224
28687SOL    HW189592   4.152  10.717   1.838 -0.8400 -0.6456 -0.1463
28687SOL    HW289593   4.084  10.749   1.707 -0.2435  1.3534  0.0020
28688SOL     OW89594   3.727  10.080   5.909  0.1568  0.5274  0.3537
28688SOL    HW189595   3.657  10.072   5.974  0.3907  0.8315  0.6453
28688SOL    HW289596   3.693  10.144   5.846 -0.2215 -0.0424 -0.0270
28689SOL     OW89597   1.971   5.284  10.522 -0.2762 -0.4887 -0.3135
28689SOL    HW189598   1.889   5.285  10.473  0.2350  0.2242 -1.1884
28689SOL    HW289599   2.002   5.375  10.519  0.4685 -0.7170  0.1492
28690SOL     OW89600  10.927   0.516   4.081 -0.2732 -0.5942 -0.2152
28690SOL    HW189601  10.862   0.453   4.050  0.4232 -0.6212 -1.7206
28690SOL    HW289602  10.875   0.592   4.108 -1.1438 -1.7977  1.8147
28691SOL     OW89603   1.927   0.153   1.200 -0.0245  0.3521 -0.4543
28691SOL    HW189604   2.003   0.208   1.215 -0.8891  0.9287  2.2323
28691SOL    HW289605   1.856   0.215   1.183 -0.8482  0.1049  1.8607
28692SOL     OW89606  10.176   9.150   3.576 -0.0295  0.0571 -0.1046
28692SOL    HW189607  10.106   9.215   3.572 -0.1283  0.1334  1.9102
28692SOL    HW289608  10.181   9.125   3.668  1.3441 -1.3385 -0.5093
28693SOL     OW89609   5.593   0.622   9.716 -0.4786  0.2875  0.6402
28693SOL    HW189610   5.678   0.581   9.698 -0.4445  0.5915  0.0881
28693SOL    HW289611   5.537   0.550   9.744 -0.9009 -0.4628 -1.9034
28694SOL     OW89612   2.084   3.254  10.219  0.8138  0.6743 -0.4885
28694SOL    HW189613   2.138   3.306  10.278  1.5011  0.2616 -0.7335
28694SOL    HW289614   1.994   3.281  10.237  0.9729  0.3208  0.9814
28695SOL     OW89615   2.907   2.636   1.271  0.5540 -0.3775 -0.0292
28695SOL    HW189616   2.902   2.669   1.361  1.8633 -0.4619  0.0905
28695SOL    HW289617   2.837   2.683   1.225  1.1949  1.2610  0.5612
28696SOL     OW89618   6.095  10.442   0.159 -0.0917 -0.6656  0.3198
28696SOL    HW189619   6.018  10.490   0.189 -0.5413 -1.4330  0.4394
28696SOL    HW289620   6.062  10.353   0.143  0.3676 -0.5645 -1.4101
28697SOL     OW89621   5.355   0.521   9.400  0.1531  0.2833  0.1285
28697SOL    HW189622   5.303   0.542   9.322  2.7020  1.5556 -1.4048
28697SOL    HW289623   5.306   0.558   9.473 -1.4832  0.6408 -1.0994
28698SOL     OW89624   7.784   5.443   2.232  0.1266 -0.2290  0.2191
28698SOL    HW189625   7.708   5.472   2.183  1.2409  1.5022 -0.5711
28698SOL    HW289626   7.779   5.347   2.230 -0.5478 -0.1964 -2.2132
28699SOL     OW89627   6.094   5.061   8.409 -0.4553  0.1560  0.1999
28699SOL    HW189628   6.065   5.067   8.318 -1.4984  0.0984  0.5210
28699SOL    HW289629   6.020   5.021   8.455 -0.9032  2.3864  1.5301
28700SOL     OW89630   2.863   0.735   1.385  0.3452  0.1669 -0.7540
28700SOL    HW189631   2.952   0.718   1.413 -0.6835 -2.3156  1.4259
28700SOL    HW289632   2.815   0.655   1.407 -3.0829  2.5181  1.3454
28701SOL     OW89633   5.709   5.819   3.443 -0.0287 -0.3817 -0.6732
28701SOL    HW189634   5.676   5.729   3.450 -1.1637 -0.1625 -2.5377
28701SOL    HW289635   5.635   5.874   3.468  0.2407  0.0649 -0.8509
28702SOL     OW89636   5.246   0.199   0.237 -0.2996 -0.0192 -0.5070
28702SOL    HW189637   5.290   0.143   0.301  0.2622  0.3896 -0.5262
28702SOL    HW289638   5.310   0.268   0.218 -1.4405  1.3722  0.5013
28703SOL     OW89639   1.179   5.598  10.621 -0.3310 -0.1050 -0.9129
28703SOL    HW189640   1.093   5.566  10.596 -0.9662  1.5810 -1.0034
28703SOL    HW289641   1.230   5.594  10.541 -0.9278  0.7206 -1.3513
28704SOL     OW89642   3.178   2.068   2.052 -0.1741  0.3464 -0.5597
28704SOL    HW189643   3.146   2.137   1.994  1.9494  1.1472 -0.8432
28704SOL    HW289644   3.244   2.022   2.001  0.4635 -0.0714  0.6034
28705SOL     OW89645  10.712   9.274   9.166 -0.5265  0.7599 -0.6515
28705SOL    HW189646  10.705   9.239   9.255 -0.4446  2.1263 -0.0824
28705SOL    HW289647  10.656   9.352   9.168  0.7734  1.7282 -1.3162
28706SOL     OW89648   0.722   1.821   2.585  0.2317  0.4403  0.0830
28706SOL    HW189649   0.774   1.819   2.666  0.9136 -0.1768 -0.3591
28706SOL    HW289650   0.759   1.891   2.533  2.4655 -1.6814 -1.3890
28707SOL     OW89651   1.183   0.673   5.645 -0.4647  0.2907  0.2295
28707SOL    HW189652   1.198   0.628   5.728 -0.8571 -0.8527 -0.2999
28707SOL    HW289653   1.262   0.724   5.630  0.1670 -0.5529  0.6409
28708SOL     OW89654  10.817   6.895   6.569  0.4411  0.8369 -0.0023
28708SOL    HW189655  10.749   6.959   6.588 -0.3046  0.2287 -0.5846
28708SOL    HW289656  10.856   6.924   6.486 -0.1600  0.3313 -0.4683
28709SOL     OW89657   8.993   9.128  10.267 -0.1892  0.1315  0.1000
28709SOL    HW189658   8.913   9.180  10.261 -0.0575  0.3684  0.3649
28709SOL    HW289659   9.031   9.131  10.180  0.0800  0.8998  0.2359
28710SOL     OW89660   4.508  10.650   2.025  0.3138 -0.5606  0.5521
28710SOL    HW189661   4.509  10.563   1.986 -1.5223 -0.0659 -0.7048
28710SOL    HW289662   4.589  10.655   2.075  1.5483 -2.1503 -1.1850
28711SOL     OW89663   6.482   0.202  10.441  0.2434  0.1674 -0.6396
28711SOL    HW189664   6.495   0.284  10.490  0.9974 -0.1726 -0.2600
28711SOL    HW289665   6.417   0.154  10.492  1.5523 -0.5041  0.4733
28712SOL     OW89666   3.916   1.148   1.074  0.7180  0.0490 -0.7250
28712SOL    HW189667   4.005   1.115   1.081 -0.0109 -2.1223 -0.9172
28712SOL    HW289668   3.861   1.070   1.082 -1.2800  1.5457  1.6295
28713SOL     OW89669   1.419   1.562   1.282  0.1920  0.2004  0.3898
28713SOL    HW189670   1.346   1.597   1.333 -0.8074  1.2843 -1.6659
28713SOL    HW289671   1.379   1.494   1.227  1.0574 -0.3584  0.4428
28714SOL     OW89672   2.535   7.883  10.711 -0.2276 -0.2000  0.3207
28714SOL    HW189673   2.451   7.893  10.755  0.4334 -0.1691  1.6268
28714SOL    HW289674   2.552   7.789  10.711 -0.3193 -0.2167 -0.0511
28715SOL     OW89675   1.469   4.776  10.534  0.0830 -0.3263  0.0091
28715SOL    HW189676   1.553   4.786  10.488 -0.7010  0.7450 -1.2734
28715SOL    HW289677   1.423   4.858  10.517 -0.8826 -0.5455  1.4320
28716SOL     OW89678   9.455   8.971   4.568  0.7760 -0.4581 -0.0177
28716SOL    HW189679   9.470   8.887   4.524  1.4734 -0.1294 -0.4297
28716SOL    HW289680   9.536   8.987   4.617  1.9438  1.3996 -2.3281
28717SOL     OW89681   4.502   6.396   3.671  0.0096 -0.8099 -0.0475
28717SOL    HW189682   4.516   6.485   3.704  0.7041 -1.3687  1.2469
28717SOL    HW289683   4.589   6.366   3.644 -0.5796 -0.2596 -2.8171
28718SOL     OW89684   6.489   2.777   8.867 -0.3123 -0.0785  0.0140
28718SOL    HW189685   6.522   2.740   8.785  0.0208  0.6619 -0.1979
28718SOL    HW289686   6.510   2.711   8.933  2.8196  0.8658  0.1127
28719SOL     OW89687   5.779   5.420   1.761  0.1158  0.3616 -0.1988
28719SOL    HW189688   5.750   5.361   1.830  2.2827  0.1441  0.6073
28719SOL    HW289689   5.761   5.508   1.795 -0.0525  0.2320  0.0495
28720SOL     OW89690   8.041   9.642   9.587  0.1620  0.2538 -0.1480
28720SOL    HW189691   8.068   9.734   9.593 -1.8846  0.9902 -0.9908
28720SOL    HW289692   7.963   9.637   9.643  1.1167 -1.3997  1.1301
28721SOL     OW89693   8.873   4.934   3.050 -0.1034  0.4464 -0.0531
28721SOL    HW189694   8.912   4.977   2.973 -0.2939  1.0791  0.1981
28721SOL    HW289695   8.934   4.954   3.121  0.9834 -1.5730 -0.3517
28722SOL     OW89696   1.469   3.065   6.701  0.7268  0.3472 -0.3587
28722SOL    HW189697   1.456   2.978   6.662 -1.5151  0.6141 -0.3617
28722SOL    HW289698   1.386   3.110   6.686  1.5656  2.2275  0.3546
28723SOL     OW89699   4.906   6.004   4.982 -0.3865 -0.0674 -0.4115
28723SOL    HW189700   4.913   6.097   5.005 -0.4026 -0.3863  0.9651
28723SOL    HW289701   4.997   5.975   4.971 -0.4075  0.6436 -3.3344
28724SOL     OW89702   2.958   3.359   8.558 -0.1599 -0.1348 -0.1073
28724SOL    HW189703   2.965   3.280   8.505  2.9370  1.0528 -1.7264
28724SOL    HW289704   2.996   3.334   8.643  0.2042 -0.5812 -0.3956
28725SOL     OW89705   8.636   0.920   5.597 -0.0385 -0.4228 -0.1512
28725SOL    HW189706   8.589   0.837   5.607 -0.6317  0.0796  1.5253
28725SOL    HW289707   8.646   0.953   5.686 -1.1733  2.0409 -0.8417
28726SOL     OW89708   5.527   5.132   4.023 -0.5778 -0.1629  0.4454
28726SOL    HW189709   5.588   5.081   3.969 -0.2389  0.4041  0.2840
28726SOL    HW289710   5.537   5.222   3.992  0.8191  0.4717  2.5409
28727SOL     OW89711   7.826   3.000   3.151 -0.7542 -0.4263  0.5311
28727SOL    HW189712   7.894   3.030   3.091  0.8245 -4.2603  0.1060
28727SOL    HW289713   7.774   2.938   3.099 -1.3868 -1.3597  2.2013
28728SOL     OW89714   5.181   8.291   6.186  0.3317  0.1428  0.1862
28728SOL    HW189715   5.229   8.372   6.165  1.5974 -0.7633 -0.6056
28728SOL    HW289716   5.100   8.321   6.227  1.7949  1.7526  2.1335
28729SOL     OW89717   0.489   1.199   7.871  0.4138 -0.1805 -0.4231
28729SOL    HW189718   0.452   1.178   7.785 -1.7179  0.8014  0.2001
28729SOL    HW289719   0.431   1.265   7.907  3.0295  1.7820  0.5239
28730SOL     OW89720   3.094   3.282   0.690 -0.2135  0.3492 -0.6647
28730SOL    HW189721   3.024   3.337   0.726  0.9093  0.8443  0.8835
28730SOL    HW289722   3.064   3.192   0.704 -1.3179  0.5319 -1.6821
28731SOL     OW89723   4.836   2.131   1.860 -0.3783 -0.2069 -0.3479
28731SOL    HW189724   4.837   2.183   1.780 -0.3931 -2.7824 -2.1570
28731SOL    HW289725   4.766   2.170   1.913 -0.1287  1.7906 -1.3756
28732SOL     OW89726   8.268   6.805   8.743  0.6990 -0.2206 -0.4344
28732SOL    HW189727   8.216   6.829   8.820  2.2863 -0.9523  0.9178
28732SOL    HW289728   8.203   6.784   8.676 -0.7500 -0.4713  0.9859
28733SOL     OW89729   9.130   7.355   3.721  0.3235 -0.3426  0.3696
28733SOL    HW189730   9.123   7.411   3.799 -1.4401  0.2793 -0.1810
28733SOL    HW289731   9.095   7.409   3.650 -0.6637 -1.8545 -0.3383
28734SOL     OW89732   5.319   1.876   5.687  0.2123 -0.1059 -0.3328
28734SOL    HW189733   5.312   1.970   5.706 -0.5049 -0.2416  0.1208
28734SOL    HW289734   5.228   1.846   5.684  0.4637 -1.0500  0.8350
28735SOL     OW89735   1.965   9.109   9.575  0.1731 -0.3322 -0.4352
28735SOL    HW189736   1.894   9.085   9.515  0.7891  0.4530 -1.5107
28735SOL    HW289737   1.995   9.194   9.544 -0.0497  0.5228  1.5184
28736SOL     OW89738   5.434   9.325   6.327  0.0147 -0.2314  0.6402
28736SOL    HW189739   5.345   9.297   6.307  0.5083 -2.1248  0.9297
28736SOL    HW289740   5.479   9.325   6.243 -0.1404  0.3578  0.5497
28737SOL     OW89741   1.965   3.192   1.050  0.0033  0.0951 -0.0596
28737SOL    HW189742   1.962   3.287   1.063 -0.5021  0.2939 -1.4606
28737SOL    HW289743   1.940   3.180   0.959  0.8896 -1.3399 -0.1313
28738SOL     OW89744   9.261   1.415   9.824 -0.1224 -0.0631 -0.2716
28738SOL    HW189745   9.250   1.323   9.846 -2.7393  0.6161  1.8656
28738SOL    HW289746   9.237   1.422   9.732 -1.0782 -1.3781 -0.1443
28739SOL     OW89747   8.234   3.862   5.915 -0.0043 -0.2255  0.3675
28739SOL    HW189748   8.289   3.888   5.841  0.4249  0.9323  1.0571
28739SOL    HW289749   8.262   3.919   5.986  0.3893 -2.0777  1.7640
28740SOL     OW89750   1.943   2.100   4.912  0.0748 -0.3253 -0.1056
28740SOL    HW189751   1.971   2.126   5.000 -0.1420 -0.5604  0.0331
28740SOL    HW289752   2.025   2.091   4.863  0.1557  0.8191 -0.2217
28741SOL     OW89753   4.234  10.327   3.407  0.1467  0.1115 -0.1605
28741SOL    HW189754   4.329  10.324   3.393  0.4178  1.0970  1.2419
28741SOL    HW289755   4.222  10.303   3.498 -1.1194 -1.4825 -0.7058
28742SOL     OW89756  10.011   1.267   7.160  0.2228 -0.6082 -0.1302
28742SOL    HW189757  10.093   1.255   7.208  0.6500 -1.8492 -1.1094
28742SOL    HW289758   9.952   1.202   7.198 -0.2587  0.1715  0.4616
28743SOL     OW89759   2.156   7.936   0.736 -0.8317 -0.1172 -0.8253
28743SOL    HW189760   2.075   7.890   0.714 -1.2668  1.3066 -2.3477
28743SOL    HW289761   2.139   8.027   0.715  0.5531  0.5385  0.6145
28744SOL     OW89762  10.747   1.358   3.754 -0.0857  0.7821 -0.1579
28744SOL    HW189763  10.720   1.418   3.685  1.0091 -0.3781 -1.6472
28744SOL    HW289764  10.665   1.331   3.796 -0.8072  1.1956 -1.2649
28745SOL     OW89765   1.267   1.833   3.716 -0.5150 -0.4293 -0.0475
28745SOL    HW189766   1.222   1.908   3.677 -0.9425 -0.2567  0.7536
28745SOL    HW289767   1.197   1.780   3.753 -0.0476  0.1035  1.6803
28746SOL     OW89768   8.625   0.502   8.069  0.2628 -0.1827  0.4685
28746SOL    HW189769   8.677   0.581   8.056  0.9782 -0.9472 -1.7970
28746SOL    HW289770   8.540   0.522   8.031  0.3868 -0.4398  0.0532
28747SOL     OW89771   0.331   2.314   9.457  0.4346 -0.0380 -0.2717
28747SOL    HW189772   0.305   2.263   9.380  1.8000 -0.6549 -0.3447
28747SOL    HW289773   0.414   2.276   9.484  0.4149  0.7574  0.9864
28748SOL     OW89774   0.584   6.224   3.891  0.5285 -0.5361  0.0316
28748SOL    HW189775   0.533   6.207   3.971  0.5253 -0.1125  0.1209
28748SOL    HW289776   0.625   6.140   3.871  1.5529 -0.3459  1.2051
28749SOL     OW89777   4.396   8.542   0.870 -0.1539  0.5691  0.3066
28749SOL    HW189778   4.356   8.492   0.800  0.5370 -0.0501  0.3334
28749SOL    HW289779   4.326   8.557   0.933  0.1846 -3.1209  1.8562
28750SOL     OW89780   9.866   2.655  10.847  0.3016 -0.7139  0.3835
28750SOL    HW189781   9.875   2.748  10.867 -0.4999 -0.8862  1.5950
28750SOL    HW289782   9.894   2.648  10.755 -0.4681  0.8557 -0.0080
28751SOL     OW89783   0.626   6.120   3.548 -0.2235 -0.5079 -0.2986
28751SOL    HW189784   0.625   6.150   3.457  0.3978  0.3083 -0.0468
28751SOL    HW289785   0.613   6.199   3.599  0.3805 -0.8193  0.3548
28752SOL     OW89786   8.920   2.131   2.784  0.1447  0.1806  0.4468
28752SOL    HW189787   8.959   2.045   2.801 -0.2751  0.0271  0.6295
28752SOL    HW289788   8.980   2.192   2.827  0.3108 -0.0361  0.5299
28753SOL     OW89789   9.849   6.406   8.288 -0.5851  0.3472 -0.1126
28753SOL    HW189790   9.944   6.400   8.280 -0.1367  1.6680  2.9614
28753SOL    HW289791   9.830   6.497   8.267 -1.2731 -0.0283 -1.1859
28754SOL     OW89792   5.786   1.013   4.077  0.2209  0.0216  0.2115
28754SOL    HW189793   5.771   1.103   4.047 -0.3663 -0.5242 -1.2052
28754SOL    HW289794   5.702   0.986   4.113  1.1411  0.9742  3.3746
28755SOL     OW89795   4.198   5.633   1.731  0.6213 -0.9258 -0.3341
28755SOL    HW189796   4.181   5.723   1.703 -0.3626 -0.9867  0.0225
28755SOL    HW289797   4.286   5.614   1.700  1.0024  0.3095 -0.0519
28756SOL     OW89798   2.291   5.485   1.039 -0.1317  0.1495 -0.6032
28756SOL    HW189799   2.353   5.413   1.051  0.5546  0.9383  0.8612
28756SOL    HW289800   2.233   5.455   0.969 -0.5738 -2.3138  0.6977
28757SOL     OW89801   6.476   7.598   7.847  0.1838 -0.4095  0.0202
28757SOL    HW189802   6.468   7.511   7.808 -1.4661 -0.6750  0.8701
28757SOL    HW289803   6.434   7.589   7.933  3.0401  0.3231  1.6277
28758SOL     OW89804   0.469   0.232   8.288  0.3801  0.0048 -0.1947
28758SOL    HW189805   0.455   0.150   8.336 -1.1918 -0.0319 -0.6542
28758SOL    HW289806   0.519   0.206   8.211  0.9913 -0.3028  0.2985
28759SOL     OW89807   6.385   6.452   2.270 -0.1103  0.0676 -0.1363
28759SOL    HW189808   6.328   6.496   2.334 -2.0462 -1.1725 -0.9163
28759SOL    HW289809   6.373   6.359   2.287  2.5942 -0.2803  0.3554
28760SOL     OW89810   8.832   0.941   6.687  0.0853  0.6207  0.2154
28760SOL    HW189811   8.865   1.018   6.732 -0.4594  0.0572  1.6255
28760SOL    HW289812   8.861   0.867   6.741 -1.6116 -0.0005  0.3292
28761SOL     OW89813  10.149   9.370   4.878 -0.4372  0.5613 -0.1580
28761SOL    HW189814  10.096   9.293   4.856 -0.4035  0.3642  0.4319
28761SOL    HW289815  10.180   9.353   4.967  0.6215  0.6660 -0.4880
28762SOL     OW89816   6.508   7.164   9.551 -0.1783 -0.5868  0.1023
28762SOL    HW189817   6.452   7.238   9.528 -1.0265 -1.6753 -1.6315
28762SOL    HW289818   6.577   7.201   9.606 -1.5969  1.1313  0.8141
28763SOL     OW89819   6.648   4.384   2.590 -0.4831 -0.4669 -0.1440
28763SOL    HW189820   6.659   4.369   2.496 -0.3817  2.6817 -0.7593
28763SOL    HW289821   6.721   4.337   2.631  1.4285  0.6989 -1.9963
28764SOL     OW89822   0.944   0.679   4.605  0.2118 -0.8486 -0.3305
28764SOL    HW189823   0.979   0.759   4.566 -0.8111 -0.7505 -1.0934
28764SOL    HW289824   0.983   0.676   4.692  0.8545  0.0778 -0.5656
28765SOL     OW89825   6.587   2.197   9.241  0.3832 -0.0680 -0.1148
28765SOL    HW189826   6.560   2.143   9.315  0.5767  0.4152  0.3055
28765SOL    HW289827   6.574   2.287   9.270 -2.1697  0.1579 -1.5997
28766SOL     OW89828   0.670   5.085   5.678  0.5980  0.1694 -0.3257
28766SOL    HW189829   0.587   5.121   5.708  1.5683  2.5565 -0.2669
28766SOL    HW289830   0.664   5.088   5.583  0.1129 -0.9546 -0.3375
28767SOL     OW89831   3.963   7.843   0.881 -0.0909 -0.5026 -0.4974
28767SOL    HW189832   3.887   7.805   0.925 -0.9126 -1.2896 -2.4945
28767SOL    HW289833   3.964   7.934   0.909 -1.2847 -0.6846  0.2022
28768SOL     OW89834   9.460   4.517   4.247  0.1328  0.4702 -0.3495
28768SOL    HW189835   9.406   4.572   4.304 -0.6947 -1.0547  0.3828
28768SOL    HW289836   9.463   4.432   4.291  2.2629  0.1960 -0.9176
28769SOL     OW89837  10.850   4.528   6.196  0.2192  0.0077  0.2432
28769SOL    HW189838  10.815   4.606   6.153  1.3586 -0.3864 -1.5454
28769SOL    HW289839  10.827   4.538   6.288 -1.6023  1.3471 -0.3027
28770SOL     OW89840   8.885   8.650   2.555 -0.3692  0.0650  0.3429
28770SOL    HW189841   8.961   8.708   2.565 -0.4465  0.1458  0.4541
28770SOL    HW289842   8.824   8.701   2.501 -1.4880  1.0935  2.4841
28771SOL     OW89843   4.927   1.291   4.170 -0.4997  0.1930  0.1528
28771SOL    HW189844   5.016   1.266   4.195 -1.3362 -1.6494  1.5111
28771SOL    HW289845   4.906   1.235   4.095 -1.8745 -2.4468  2.3360
28772SOL     OW89846   6.606   9.549   2.844  0.4197 -0.3601 -0.5827
28772SOL    HW189847   6.674   9.486   2.867 -0.2084 -0.5050  0.9554
28772SOL    HW289848   6.655   9.626   2.814  1.2319 -0.9035 -0.6904
28773SOL     OW89849   5.912   3.456   5.011  0.2102 -0.2116 -0.3717
28773SOL    HW189850   6.003   3.427   5.002 -0.0077 -0.5005 -1.8090
28773SOL    HW289851   5.918   3.550   5.024  0.7305 -0.2724 -0.1550
28774SOL     OW89852   4.216   7.735   6.746 -0.1296 -0.1176 -0.3325
28774SOL    HW189853   4.247   7.825   6.748 -0.8081  0.1067  0.3224
28774SOL    HW289854   4.224   7.709   6.654  3.7737 -0.7258 -0.0039
28775SOL     OW89855  10.444   1.573   8.847  0.2670  0.1224  0.5565
28775SOL    HW189856  10.399   1.577   8.763  0.7310 -0.9362  0.2391
28775SOL    HW289857  10.516   1.636   8.838 -0.6199  1.1963  0.7635
28776SOL     OW89858   3.775   5.205   5.027 -0.1710  0.3053 -0.0619
28776SOL    HW189859   3.870   5.215   5.027 -0.2806  1.9786 -2.4350
28776SOL    HW289860   3.756   5.159   5.109  2.2524  3.7587  2.7386
28777SOL     OW89861   8.811   3.573   5.930 -0.1548  0.0669 -0.8074
28777SOL    HW189862   8.754   3.585   6.006 -0.1480 -0.7096 -0.6711
28777SOL    HW289863   8.752   3.566   5.856 -0.0954  3.1873 -1.2466
28778SOL     OW89864   5.154   5.829   0.968 -0.3398 -0.1516  0.5926
28778SOL    HW189865   5.139   5.924   0.975 -1.6136 -0.2594 -0.3450
28778SOL    HW289866   5.244   5.817   0.999 -0.8085  1.0944  2.6619
28779SOL     OW89867   2.568   0.667  10.986  0.2413  0.0169  0.7591
28779SOL    HW189868   2.602   0.581  10.960 -0.2825  0.3247 -1.1362
28779SOL    HW289869   2.527   0.652  11.072 -0.2132 -1.7396  0.2877
28780SOL     OW89870   5.402   0.574   1.144  0.5276 -0.1527  0.1462
28780SOL    HW189871   5.425   0.527   1.064  1.1700  1.6702 -0.7770
28780SOL    HW289872   5.319   0.534   1.172 -0.6120  0.2845 -2.3793
28781SOL     OW89873   4.243   7.260   5.138  0.0912 -0.5618 -0.4902
28781SOL    HW189874   4.235   7.318   5.062 -4.0419 -1.9008 -1.3741
28781SOL    HW289875   4.201   7.308   5.209  1.2541 -0.5082  0.1803
28782SOL     OW89876   9.429   3.440   4.865  0.7759 -0.0200  0.2580
28782SOL    HW189877   9.406   3.527   4.895  1.0433 -0.1467  0.8521
28782SOL    HW289878   9.356   3.412   4.810  0.4802  0.3912  0.4445
28783SOL     OW89879   1.891   4.260   9.964 -0.0541 -0.5057  0.5939
28783SOL    HW189880   1.955   4.328   9.984  1.2391 -1.3812 -0.3285
28783SOL    HW289881   1.934   4.178   9.990 -1.1399 -1.0648  0.7082
28784SOL     OW89882  11.051   9.219   9.385 -0.0860  0.0921 -0.0652
28784SOL    HW189883  10.990   9.161   9.341  0.9800 -0.9029 -0.2991
28784SOL    HW289884  11.132   9.168   9.391  1.5602  2.2596 -2.1453
28785SOL     OW89885   2.035   9.676   3.741  0.0629  0.1218 -0.3116
28785SOL    HW189886   2.021   9.685   3.835 -1.2842  1.7107 -0.6277
28785SOL    HW289887   2.069   9.588   3.730  0.1845 -0.1116  1.6543
28786SOL     OW89888   5.755   4.504   7.379  0.1922 -0.1526  0.2814
28786SOL    HW189889   5.669   4.521   7.417 -0.0055 -0.0616 -0.2073
28786SOL    HW289890   5.739   4.444   7.306  0.3749  0.8981 -0.6418
28787SOL     OW89891  10.822   0.837   9.598 -0.0600  0.1967 -0.3827
28787SOL    HW189892  10.777   0.812   9.678  1.2618 -0.8717  0.0609
28787SOL    HW289893  10.832   0.932   9.605 -1.3225  0.3241 -0.0424
28788SOL     OW89894   5.557  10.719   2.928  0.3726 -0.1056 -0.5048
28788SOL    HW189895   5.475  10.674   2.949  1.1284 -0.6365  1.5323
28788SOL    HW289896   5.612  10.706   3.005  2.9967 -1.1840 -2.4047
28789SOL     OW89897   8.988   9.792   1.456  0.2634  0.3463 -0.1827
28789SOL    HW189898   8.904   9.781   1.411  0.5595  0.6423 -0.8139
28789SOL    HW289899   9.007   9.885   1.449  0.7308  0.2511 -0.1920
28790SOL     OW89900   3.899   1.409   9.387 -0.1726 -0.5677 -0.3158
28790SOL    HW189901   3.914   1.472   9.458 -2.6997 -0.8089  0.5248
28790SOL    HW289902   3.955   1.441   9.316 -1.1676  2.5577  0.1411
28791SOL     OW89903   9.137   8.289   1.249  0.3786  0.2028  0.4415
28791SOL    HW189904   9.075   8.338   1.303  0.6729 -0.2011  1.1515
28791SOL    HW289905   9.141   8.339   1.167 -2.4200 -0.8268 -0.4573
28792SOL     OW89906   0.485   6.751   6.271 -0.0977 -0.5464  0.2060
28792SOL    HW189907   0.541   6.684   6.231  0.5566 -1.2558  2.1932
28792SOL    HW289908   0.406   6.751   6.217  1.5326  0.0895 -2.3452
28793SOL     OW89909   7.895   2.166   5.295 -0.3443 -0.0111 -0.3743
28793SOL    HW189910   7.857   2.155   5.382 -0.9230  1.2054 -0.4575
28793SOL    HW289911   7.877   2.083   5.251 -1.4436 -0.0710  0.1488
28794SOL     OW89912   2.002   2.190   5.526 -0.5542  0.3780  0.3495
28794SOL    HW189913   2.064   2.255   5.494  0.2803 -0.7034 -0.2985
28794SOL    HW289914   2.001   2.122   5.458 -2.2907  0.2638  0.4446
28795SOL     OW89915   6.370   2.060  10.180  0.5680  0.0989  0.3851
28795SOL    HW189916   6.277   2.037  10.169  0.6924 -0.7471  1.0709
28795SOL    HW289917   6.371   2.116  10.258  0.5928  0.4631  0.1307
28796SOL     OW89918   3.239   9.010   5.138  0.2567  0.0326 -0.1041
28796SOL    HW189919   3.213   8.935   5.191 -1.6062  0.7223  0.0044
28796SOL    HW289920   3.318   9.043   5.182  0.6405 -1.3502  0.3058
28797SOL     OW89921   3.178   8.777  10.293  0.3033  0.2225  0.4490
28797SOL    HW189922   3.217   8.690  10.300  0.2001  0.1340 -0.0478
28797SOL    HW289923   3.084   8.762  10.293  0.2486  0.0916 -2.0782
28798SOL     OW89924   0.205   1.446   8.920  0.3134 -0.0215  0.1079
28798SOL    HW189925   0.142   1.417   8.986 -0.2031  0.4501 -0.1688
28798SOL    HW289926   0.248   1.521   8.960 -0.2328  0.4705 -0.2085
28799SOL     OW89927   0.116   5.344   3.035  0.2030 -0.5227 -0.0023
28799SOL    HW189928   0.081   5.404   3.100  0.9126 -0.6117  0.4725
28799SOL    HW289929   0.106   5.257   3.073 -2.4475 -0.9542 -1.4064
28800SOL     OW89930   9.787   7.840  10.698  0.1499 -0.0863 -0.5600
28800SOL    HW189931   9.822   7.784  10.768 -1.3039 -1.3968 -0.8038
28800SOL    HW289932   9.701   7.802  10.679  0.1004  0.8411 -2.3894
28801SOL     OW89933   4.407   0.429   9.280  0.5525 -0.1047  0.4973
28801SOL    HW189934   4.322   0.421   9.236  1.2282 -0.6856 -0.7229
28801SOL    HW289935   4.403   0.364   9.350 -0.1562  0.1617  0.7228
28802SOL     OW89936   7.587   1.546   2.987 -0.0313 -0.0782  0.9716
28802SOL    HW189937   7.572   1.567   3.079 -0.7131  0.1989  0.7972
28802SOL    HW289938   7.521   1.480   2.966 -1.6957  1.8218 -0.0441
28803SOL     OW89939   4.374   3.303   4.529  0.4349 -0.2824  0.5759
28803SOL    HW189940   4.340   3.392   4.540  1.6965  0.1867  0.8072
28803SOL    HW289941   4.314   3.248   4.579 -1.4225  0.1862 -1.0394
28804SOL     OW89942   7.566   5.912   0.109 -0.0574 -0.1865  0.1576
28804SOL    HW189943   7.653   5.912   0.150 -0.4363 -0.7467  0.9882
28804SOL    HW289944   7.573   5.848   0.038  0.1559 -0.3777  0.3478
28805SOL     OW89945   8.564   2.769   4.595 -0.4190  0.2095 -0.3534
28805SOL    HW189946   8.612   2.838   4.549  2.3425 -0.7789  0.7878
28805SOL    HW289947   8.526   2.715   4.526  0.3830  0.9032 -1.3553
28806SOL     OW89948   0.619   6.509   3.412  0.0108 -0.5405 -0.3763
28806SOL    HW189949   0.712   6.486   3.415 -0.1206 -0.9376  1.0144
28806SOL    HW289950   0.581   6.471   3.491 -0.8617  1.6593  0.3370
28807SOL     OW89951   1.711   1.197   3.183  0.3092 -0.2301  0.3695
28807SOL    HW189952   1.632   1.171   3.231  0.1225  0.5046  0.4780
28807SOL    HW289953   1.760   1.250   3.246  0.2732  0.3854 -0.1175
28808SOL     OW89954   7.835   4.630   1.063  0.2945 -0.1083  0.1301
28808SOL    HW189955   7.905   4.652   1.125  1.0988 -2.2322  0.0363
28808SOL    HW289956   7.764   4.691   1.086  2.0297  1.9535  0.3829
28809SOL     OW89957   2.451   4.173   6.727 -0.0470  0.0169 -0.0538
28809SOL    HW189958   2.505   4.222   6.665 -1.2291 -0.7538 -1.7851
28809SOL    HW289959   2.492   4.187   6.812  0.8289  2.2936 -0.7853
28810SOL     OW89960   0.392   9.054   4.974 -0.2958  0.1257  0.2726
28810SOL    HW189961   0.325   9.021   4.913 -0.4818  1.2438 -0.1395
28810SOL    HW289962   0.343   9.073   5.054 -0.5531  1.2132 -0.1189
28811SOL     OW89963   9.308   1.380   6.437  0.0399  0.4832  0.8504
28811SOL    HW189964   9.341   1.291   6.423 -1.3841 -0.0823  0.9346
28811SOL    HW289965   9.372   1.436   6.394 -0.4611 -0.7498 -1.6899
28812SOL     OW89966   8.657   9.638   6.569 -0.4792 -0.3754  0.1014
28812SOL    HW189967   8.591   9.705   6.549 -0.6267  0.0087  1.7422
28812SOL    HW289968   8.620   9.591   6.644  0.6585 -0.8121  0.3967
28813SOL     OW89969   5.168   3.692   7.843 -0.1948  0.3370  0.0184
28813SOL    HW189970   5.085   3.707   7.888 -0.1433 -0.1133  0.2725
28813SOL    HW289971   5.223   3.649   7.909  1.0703  2.7345  0.6660
28814SOL     OW89972   3.825   9.647   1.446 -0.4185 -0.1915  0.2026
28814SOL    HW189973   3.819   9.577   1.511  1.4773  0.1549  0.8177
28814SOL    HW289974   3.916   9.675   1.450 -1.2917  2.9572  0.6501
28815SOL     OW89975   2.126   9.114   4.243  0.0040  0.0707  0.5385
28815SOL    HW189976   2.132   9.018   4.237 -0.7430 -0.0590  1.5787
28815SOL    HW289977   2.194   9.138   4.305  0.2453  0.2262  0.2154
28816SOL     OW89978   9.760   9.504   3.287 -0.5837 -0.4902  0.4142
28816SOL    HW189979   9.684   9.519   3.344 -0.1657 -0.0673  0.8657
28816SOL    HW289980   9.733   9.539   3.202 -1.2645 -1.2614  0.3031
28817SOL     OW89981   1.763   5.602  10.111 -0.2075 -0.0204  0.0266
28817SOL    HW189982   1.769   5.619  10.017 -0.4385  2.7215  0.4232
28817SOL    HW289983   1.842   5.641  10.148  0.6029 -2.3093  0.8952
28818SOL     OW89984   2.212   9.192   0.114  0.1604  0.0019  0.3064
28818SOL    HW189985   2.243   9.101   0.113 -2.2897 -0.9316 -0.7314
28818SOL    HW289986   2.273   9.239   0.057  0.6312 -1.3403 -0.3323
28819SOL     OW89987   6.452   3.386   7.862 -0.0366 -0.1722 -0.6138
28819SOL    HW189988   6.391   3.348   7.924 -0.5870 -1.3038 -1.7945
28819SOL    HW289989   6.449   3.480   7.879  0.2468 -0.4914  1.4016
28820SOL     OW89990   2.086   1.194   2.592 -0.4277  0.5118 -0.6603
28820SOL    HW189991   1.992   1.212   2.599 -0.2926  0.4950  2.4875
28820SOL    HW289992   2.091   1.106   2.553 -1.8924 -0.5304  1.3046
28821SOL     OW89993   2.481   3.340   4.031  0.4252 -0.0013 -0.5602
28821SOL    HW189994   2.492   3.307   3.942  1.1531 -1.9362  0.1953
28821SOL    HW289995   2.396   3.307   4.058  0.1653  0.6599 -0.5529
28822SOL     OW89996   0.525   7.328   8.743 -0.0382 -0.2768  0.0475
28822SOL    HW189997   0.453   7.385   8.769  0.1992  0.8259 -1.5781
28822SOL    HW289998   0.501   7.297   8.656  0.6331 -1.3341  0.2202
28823SOL     OW89999   5.276  10.030  11.123 -0.2562  0.2079 -0.0385
28823SOL    HW190000   5.267   9.935  11.129 -1.6654  0.3820  1.0747
28823SOL    HW290001   5.211  10.065  11.184 -0.3750  1.9146 -1.0575
28824SOL     OW90002   8.836   0.785   8.507 -0.0538  0.1721 -0.3947
28824SOL    HW190003   8.779   0.762   8.433  1.8776  2.0817 -2.6573
28824SOL    HW290004   8.782   0.841   8.563 -2.2713 -3.1067  1.0123
28825SOL     OW90005   4.251   7.723   2.587 -0.0289  0.4277  0.5441
28825SOL    HW190006   4.323   7.750   2.531 -2.5619  1.5902 -2.4840
28825SOL    HW290007   4.251   7.628   2.582  0.5702  0.4663 -0.4218
28826SOL     OW90008  10.048   1.803   3.804 -0.0275 -0.9089 -0.3344
28826SOL    HW190009  10.065   1.755   3.885 -0.4522 -0.8094 -0.1841
28826SOL    HW290010   9.974   1.860   3.824 -0.2583 -1.0160 -0.8452
28827SOL     OW90011   0.345   8.494   0.202  0.0466 -0.3211  0.5206
28827SOL    HW190012   0.347   8.463   0.292  0.2502  1.2314  1.0856
28827SOL    HW290013   0.417   8.557   0.197  1.4372 -1.9267 -1.3427
28828SOL     OW90014   6.151   0.223   0.537 -0.1074  0.4716  0.4229
28828SOL    HW190015   6.192   0.155   0.484 -0.9282  0.2726  0.0178
28828SOL    HW290016   6.196   0.219   0.621 -0.2899 -0.7250  0.4800
28829SOL     OW90017   2.596   6.362   6.450 -0.2714  0.3212  0.0136
28829SOL    HW190018   2.597   6.294   6.518  0.4573  1.3776  1.0911
28829SOL    HW290019   2.564   6.440   6.494  0.8134  1.1874 -0.6935
28830SOL     OW90020   0.451   6.153   7.576  0.1927 -0.1368 -0.2042
28830SOL    HW190021   0.400   6.227   7.607 -0.7231 -0.7555 -0.1661
28830SOL    HW290022   0.513   6.190   7.513 -1.5734  0.4425 -1.7217
28831SOL     OW90023   5.530   6.010   8.539  0.1438  0.3758  0.3042
28831SOL    HW190024   5.603   5.970   8.493 -0.8197  0.4351 -1.3553
28831SOL    HW290025   5.458   5.948   8.527 -0.3900  0.8702  0.9004
28832SOL     OW90026  10.593   1.792   7.075  0.0500  0.0752 -0.1342
28832SOL    HW190027  10.564   1.752   7.157  0.6141  0.9628  0.5147
28832SOL    HW290028  10.668   1.740   7.047 -0.0706 -0.1545 -0.0287
28833SOL     OW90029   3.569   3.426   6.016  0.1543 -0.4579  0.1910
28833SOL    HW190030   3.636   3.371   5.975  0.0726 -0.3205 -0.1279
28833SOL    HW290031   3.497   3.427   5.953 -0.9419 -2.1669  1.3518
28834SOL     OW90032   7.120   0.990   1.026 -0.6160  0.6396 -0.7777
28834SOL    HW190033   7.121   0.994   0.930 -0.5816  0.2080 -0.8001
28834SOL    HW290034   7.042   0.939   1.047 -0.5690  0.6496 -0.5778
28835SOL     OW90035   8.454   7.410   0.627 -0.2678 -0.2513  0.7498
28835SOL    HW190036   8.481   7.390   0.537  0.4674 -2.2021  1.3546
28835SOL    HW290037   8.502   7.490   0.650 -1.1756  0.8262 -0.8632
28836SOL     OW90038   8.659  10.061   7.560  0.0309  0.1637  0.0209
28836SOL    HW190039   8.693  10.015   7.637  0.1553  0.4340  0.1295
28836SOL    HW290040   8.677  10.002   7.487  1.3969  0.5979 -0.0248
28837SOL     OW90041   9.348   8.115   8.393 -0.2339  0.4790  0.2131
28837SOL    HW190042   9.330   8.072   8.310  1.9078  1.3201 -0.7674
28837SOL    HW290043   9.262   8.128   8.433 -1.2500 -0.6412 -1.5058
28838SOL     OW90044   2.238   3.561   8.272  0.4859 -0.3637 -0.3224
28838SOL    HW190045   2.235   3.522   8.359  0.4896  1.6589  0.6465
28838SOL    HW290046   2.159   3.614   8.267  0.7764 -0.0050 -1.3280
28839SOL     OW90047   1.207   2.783  10.178 -0.3431  0.2219 -0.1040
28839SOL    HW190048   1.228   2.876  10.172 -2.0080  0.6682  0.4766
28839SOL    HW290049   1.204   2.753  10.087  1.1911  0.4592 -0.2660
28840SOL     OW90050   7.691   6.062   9.380 -0.3252  0.0816 -0.4511
28840SOL    HW190051   7.721   5.978   9.346  0.6839  0.4170 -0.4080
28840SOL    HW290052   7.655   6.108   9.305  1.9673  0.8571 -1.1659
28841SOL     OW90053   8.148   1.688   0.468  0.1695 -0.4620 -0.1760
28841SOL    HW190054   8.230   1.665   0.424 -0.4953 -1.9084 -0.7435
28841SOL    HW290055   8.163   1.666   0.560  0.7712  0.3282 -0.0722
28842SOL     OW90056   6.122   1.586  10.603 -0.0600  0.4272 -0.2481
28842SOL    HW190057   6.164   1.513  10.556 -1.2273 -0.1694 -0.4048
28842SOL    HW290058   6.153   1.664  10.558  0.9704  0.0122 -0.2815
28843SOL     OW90059   6.272   6.895   8.441 -1.0222  0.3283  0.2046
28843SOL    HW190060   6.226   6.977   8.458  0.2924  1.0960  0.1367
28843SOL    HW290061   6.352   6.901   8.492 -1.1624 -1.1724  0.6362
28844SOL     OW90062   6.350   8.997   8.920 -0.3588 -0.0717  0.7092
28844SOL    HW190063   6.319   9.077   8.878 -2.1288 -0.6664  0.8114
28844SOL    HW290064   6.341   8.930   8.853 -1.2184 -0.6330  1.3680
28845SOL     OW90065   4.956   6.460   5.910  0.3095  0.1087 -0.4572
28845SOL    HW190066   5.043   6.436   5.941 -0.2424 -1.2043  0.1789
28845SOL    HW290067   4.897   6.426   5.977 -0.7573 -0.1281 -1.4762
28846SOL     OW90068   1.600   6.316   8.797 -0.4798  0.1154  0.2060
28846SOL    HW190069   1.536   6.387   8.791  0.3248  0.9586  1.1567
28846SOL    HW290070   1.555   6.240   8.761 -1.6227  0.9384 -0.1679
28847SOL     OW90071   1.240   7.421   7.584 -0.1824  0.4958  0.1944
28847SOL    HW190072   1.156   7.453   7.553  0.2431  0.4264 -1.1318
28847SOL    HW290073   1.223   7.331   7.614 -0.3044 -0.1448 -1.6499
28848SOL     OW90074   1.237   7.753   1.125 -0.2310  0.4322  0.0666
28848SOL    HW190075   1.162   7.716   1.171  0.1743  0.1521  0.5097
28848SOL    HW290076   1.270   7.680   1.072  1.4073 -0.2930  1.9832
28849SOL     OW90077   9.655   3.299   4.820 -0.2162 -0.0267 -0.2391
28849SOL    HW190078   9.576   3.352   4.806 -0.3098 -0.2499 -0.5712
28849SOL    HW290079   9.637   3.249   4.899  0.2712  1.1722  0.6579
28850SOL     OW90080  10.208   6.843   5.873 -0.3621 -0.2566  0.3400
28850SOL    HW190081  10.214   6.884   5.959  2.1107  1.1314 -0.3807
28850SOL    HW290082  10.294   6.802   5.860  0.6315  2.3763 -2.7000
28851SOL     OW90083   1.464   9.027   7.734 -0.1833  0.8314 -0.2525
28851SOL    HW190084   1.439   9.079   7.810 -0.4648 -0.6808  0.7358
28851SOL    HW290085   1.554   9.054   7.715  0.3555  0.3536  1.4222
28852SOL     OW90086   6.701   8.446   9.142 -0.0692  0.5697 -0.0253
28852SOL    HW190087   6.707   8.371   9.083  0.6564  2.1636 -2.1181
28852SOL    HW290088   6.617   8.436   9.186 -0.0359 -1.3846 -0.3084
28853SOL     OW90089   6.069   4.774   9.620  0.6315 -0.0417  0.1109
28853SOL    HW190090   6.022   4.724   9.553  0.8160 -0.0965  0.0195
28853SOL    HW290091   6.055   4.725   9.701  0.5916 -0.0971  0.0710
28854SOL     OW90092   6.409   5.371   4.461  0.7687  0.1014 -0.1001
28854SOL    HW190093   6.362   5.288   4.450  1.0803 -0.1879  0.6517
28854SOL    HW290094   6.385   5.422   4.384  0.4341 -0.6205 -0.4940
28855SOL     OW90095   8.947   2.360   0.569  0.1095  0.1610  0.2809
28855SOL    HW190096   8.971   2.355   0.662  0.5336 -0.9053  0.1344
28855SOL    HW290097   8.903   2.277   0.552  0.8502 -0.0547 -0.6872
28856SOL     OW90098   6.841   4.682   2.886  0.4075  0.4168 -0.3524
28856SOL    HW190099   6.826   4.588   2.899  0.5625  0.2222 -1.5103
28856SOL    HW290100   6.928   4.698   2.921  0.0526  0.3030  0.6150
28857SOL     OW90101  10.661  10.941   5.375  0.0269  0.2463  0.0842
28857SOL    HW190102  10.681  10.858   5.332  1.2481  0.3661  0.3949
28857SOL    HW290103  10.707  11.007   5.322 -1.2456  0.7847 -0.3907
28858SOL     OW90104   3.396   1.654   1.019  0.0826  0.2472  0.0385
28858SOL    HW190105   3.360   1.735   0.981  2.7090  0.9386 -1.2063
28858SOL    HW290106   3.457   1.684   1.085  0.3243 -0.7723  0.2955
28859SOL     OW90107   6.114   1.958  10.802 -0.7427 -0.2136  0.0956
28859SOL    HW190108   6.149   2.037  10.843 -0.1527 -0.1391 -0.5223
28859SOL    HW290109   6.075   1.909  10.873 -0.8436  0.4921  0.5396
28860SOL     OW90110   0.067   4.911   2.111  0.0295 -0.1641  0.3748
28860SOL    HW190111  -0.028   4.911   2.101 -0.1259  1.2758  1.5278
28860SOL    HW290112   0.100   4.950   2.030 -0.4990  1.0511  0.7267
28861SOL     OW90113   3.915   3.974   6.705 -0.5492 -0.3782 -0.0333
28861SOL    HW190114   3.920   3.879   6.715  1.0557 -0.2855  0.3054
28861SOL    HW290115   3.864   4.003   6.781 -0.4313 -0.8976  0.2532
28862SOL     OW90116   5.201   5.824   4.983 -0.4774 -0.0161 -0.6497
28862SOL    HW190117   5.180   5.754   4.921  2.3844 -1.7812  0.1686
28862SOL    HW290118   5.262   5.881   4.936 -0.2294  0.0529 -0.2466
28863SOL     OW90119   0.273   0.635   1.548  0.4495 -0.5673  0.0686
28863SOL    HW190120   0.271   0.676   1.462  1.5786 -1.1488 -0.2505
28863SOL    HW290121   0.193   0.583   1.552  0.1047 -0.0867 -0.3901
28864SOL     OW90122   8.343   3.953   6.623 -0.2221 -0.1369  0.5081
28864SOL    HW190123   8.274   3.904   6.579 -0.2803  0.5802 -0.2221
28864SOL    HW290124   8.324   4.044   6.604  0.3159  0.1354  1.2192
28865SOL     OW90125  10.055  10.641   8.625 -0.1846  0.5195 -0.0227
28865SOL    HW190126  10.131  10.684   8.586  1.1478 -0.8235  0.9518
28865SOL    HW290127  10.056  10.553   8.588 -0.4695  0.0739  0.9790
28866SOL     OW90128   7.629   4.119   1.180  0.7805 -0.1581  0.7374
28866SOL    HW190129   7.635   4.201   1.230  0.3587 -0.8803  2.0146
28866SOL    HW290130   7.716   4.107   1.142  2.1282 -1.1489  3.8725
28867SOL     OW90131   1.095   3.027   3.614  0.3944 -0.1973  0.4382
28867SOL    HW190132   1.028   3.088   3.585  0.7375  1.0893  2.1829
28867SOL    HW290133   1.174   3.053   3.566 -0.4382 -2.3193 -2.3513
28868SOL     OW90134   1.039   4.126   2.676  0.2267  0.0977  0.0180
28868SOL    HW190135   0.980   4.169   2.738  0.5198 -0.7532  0.9197
28868SOL    HW290136   1.088   4.063   2.729  0.3319 -0.8199 -1.1277
28869SOL     OW90137   0.688   5.297  11.107 -0.1000 -0.1269  0.1410
28869SOL    HW190138   0.600   5.308  11.144  0.3653  1.4335  0.8455
28869SOL    HW290139   0.742   5.361  11.153  1.6974 -1.8810  0.6172
28870SOL     OW90140   9.976   0.601   2.802  0.0510 -0.4225 -0.4599
28870SOL    HW190141   9.914   0.671   2.822 -0.1854 -0.3487 -1.4178
28870SOL    HW290142   9.930   0.521   2.825 -0.7967 -0.4305 -2.0464
28871SOL     OW90143   6.815   5.159   7.950 -0.2358 -0.4175 -0.0139
28871SOL    HW190144   6.763   5.232   7.916 -0.7900 -0.2812  1.0616
28871SOL    HW290145   6.783   5.148   8.040  1.6174 -0.3199  0.6832
28872SOL     OW90146   3.982   0.010   3.504 -0.7703  0.1743  0.2067
28872SOL    HW190147   4.077   0.009   3.519  0.1729 -0.3540 -4.3509
28872SOL    HW290148   3.952  -0.074   3.538  0.5776 -0.1158  0.7754
28873SOL     OW90149   2.172   5.305   7.721  0.0596 -0.1440 -0.0237
28873SOL    HW190150   2.191   5.212   7.727 -0.5716 -0.1956  1.6349
28873SOL    HW290151   2.258   5.347   7.721  0.3195 -0.6731  0.0942
28874SOL     OW90152   9.199   4.709   0.958  0.0621 -0.6054  0.0975
28874SOL    HW190153   9.204   4.639   0.893 -1.8287 -1.2450  0.5739
28874SOL    HW290154   9.107   4.737   0.956  0.2591  0.2528  1.5816
28875SOL     OW90155   1.080   9.157   1.733  0.0679 -0.1960 -0.1671
28875SOL    HW190156   1.059   9.245   1.764  1.6523 -0.6959  2.6789
28875SOL    HW290157   1.043   9.099   1.799 -0.9666 -1.7256 -2.0014
28876SOL     OW90158   2.026   4.523   4.919  0.2275 -0.3230  0.2168
28876SOL    HW190159   1.984   4.437   4.917 -1.2894  0.3921 -1.0546
28876SOL    HW290160   2.051   4.540   4.829  2.2345 -0.1763  0.7489
28877SOL     OW90161   6.019   5.053   7.158  0.1958 -0.4568 -0.0817
28877SOL    HW190162   6.107   5.045   7.195  0.6230 -3.2643 -1.4285
28877SOL    HW290163   6.019   5.137   7.114  1.5955  0.3571  1.3594
28878SOL     OW90164   4.191   1.766   9.282 -0.1460  0.2963 -0.8894
28878SOL    HW190165   4.129   1.758   9.354  0.4848 -1.6504 -0.5060
28878SOL    HW290166   4.150   1.829   9.222 -2.0593 -0.2616 -0.2419
28879SOL     OW90167   4.763   1.283   8.572  0.1006 -0.5262 -0.7533
28879SOL    HW190168   4.822   1.289   8.496  0.5152 -1.5278 -0.5255
28879SOL    HW290169   4.723   1.369   8.578 -0.3866 -0.6072 -2.4726
28880SOL     OW90170   8.535   9.593   8.823 -0.0435  0.1753  0.0791
28880SOL    HW190171   8.597   9.665   8.830 -0.4789  0.4662  1.0997
28880SOL    HW290172   8.590   9.514   8.824  0.3616  0.4547  0.1831
28881SOL     OW90173   2.484   3.833   0.185 -0.1174 -0.1173  0.4885
28881SOL    HW190174   2.440   3.749   0.194 -0.3934 -0.0477 -0.1982
28881SOL    HW290175   2.530   3.845   0.269  0.8582 -1.4796  0.1789
28882SOL     OW90176   8.461   0.650   6.189 -0.0383  0.2216 -0.0594
28882SOL    HW190177   8.529   0.598   6.146  0.0770  0.7662 -0.5502
28882SOL    HW290178   8.483   0.740   6.167 -0.1500  0.4980  0.9044
28883SOL     OW90179   6.730  10.143   0.561  0.2194  0.2729 -0.1629
28883SOL    HW190180   6.732  10.171   0.470 -0.9152  0.9926  0.0211
28883SOL    HW290181   6.777  10.059   0.561  0.7242  0.5378 -1.2979
28884SOL     OW90182   8.252   9.478   8.767  0.0609 -0.5053  0.2280
28884SOL    HW190183   8.340   9.515   8.762  0.6553 -1.8538  0.1966
28884SOL    HW290184   8.212   9.522   8.842 -0.0391  1.6740 -1.0252
28885SOL     OW90185   8.079   4.612  10.018  0.3213 -0.1449  0.0914
28885SOL    HW190186   8.118   4.531   9.987  0.6087  0.3055 -0.7620
28885SOL    HW290187   8.052   4.593  10.108  1.0914 -0.9405  0.1726
28886SOL     OW90188   0.463   6.227   8.696 -0.0287 -0.1157  0.1103
28886SOL    HW190189   0.513   6.306   8.675 -1.7095  0.5402 -1.7497
28886SOL    HW290190   0.410   6.252   8.771  1.6606 -0.5324  1.5219
28887SOL     OW90191   9.358   7.220   0.564 -0.2880 -0.2717  0.0191
28887SOL    HW190192   9.315   7.248   0.645 -1.3457 -2.2177  0.1878
28887SOL    HW290193   9.314   7.270   0.495  1.7041  2.6244  0.6507
28888SOL     OW90194   2.216   0.961   8.388  0.1738  0.6584  0.1505
28888SOL    HW190195   2.130   0.929   8.359  1.2493 -1.1996 -1.1780
28888SOL    HW290196   2.235   1.035   8.330 -0.1207  0.4937 -0.1583
28889SOL     OW90197   3.127   0.360   4.821 -0.0112 -0.0309  0.0573
28889SOL    HW190198   3.206   0.413   4.826 -0.2319  0.4204 -1.0435
28889SOL    HW290199   3.070   0.397   4.889 -0.4643  1.6901 -1.2028
28890SOL     OW90200   4.676   1.633  10.425 -0.1836 -0.1529  1.2330
28890SOL    HW190201   4.617   1.694  10.470 -1.0412 -0.9961  1.2912
28890SOL    HW290202   4.649   1.547  10.456 -0.3014 -0.7047 -0.3293
28891SOL     OW90203   9.237   3.303   4.724  0.0345  0.7594  0.2035
28891SOL    HW190204   9.244   3.365   4.652 -0.9863 -1.9739 -2.4383
28891SOL    HW290205   9.143   3.294   4.739  0.0700 -1.0270 -0.3778
28892SOL     OW90206   4.918   2.182  10.560  0.1144  0.2031 -0.1069
28892SOL    HW190207   5.005   2.218  10.575 -0.8543  2.6701  0.1019
28892SOL    HW290208   4.920   2.150  10.470  0.8976  1.3607 -0.5318
28893SOL     OW90209   9.700   4.333   0.118 -0.5174  0.4157  0.0425
28893SOL    HW190210   9.707   4.406   0.179  0.4853 -0.6361  1.2538
28893SOL    HW290211   9.762   4.354   0.048 -1.2289  1.3450 -0.3184
28894SOL     OW90212  10.389   7.616   0.564 -0.7041 -0.2595 -0.0095
28894SOL    HW190213  10.305   7.638   0.603 -1.4009 -1.3912 -0.7987
28894SOL    HW290214  10.393   7.670   0.484  1.3757  3.1856  2.1427
28895SOL     OW90215   6.497   1.159   5.709 -0.1784  0.1774 -0.0280
28895SOL    HW190216   6.402   1.169   5.717 -0.2206 -1.1066  1.5703
28895SOL    HW290217   6.520   1.092   5.773  1.6868 -0.3192 -1.1306
28896SOL     OW90218  11.056   8.482   1.168 -0.4222  0.0602  0.9028
28896SOL    HW190219  11.009   8.412   1.123 -0.9801  0.3178  1.0730
28896SOL    HW290220  11.139   8.490   1.121  0.0839 -1.3982  1.4992
28897SOL     OW90221   8.606   8.564   1.773  0.1269  0.5190 -0.1463
28897SOL    HW190222   8.550   8.496   1.810 -1.9419  1.4650 -1.3411
28897SOL    HW290223   8.634   8.616   1.849  1.1629 -1.1780  0.6980
28898SOL     OW90224   1.434   3.917   5.839  0.1732  0.4130  0.0476
28898SOL    HW190225   1.489   3.981   5.794 -0.0593  1.3405  1.0414
28898SOL    HW290226   1.495   3.851   5.872  0.5297  0.7050 -0.0334
28899SOL     OW90227   7.427   9.268   1.346  0.6721  0.1253 -0.0733
28899SOL    HW190228   7.418   9.308   1.432 -0.6799 -2.3076  1.0434
28899SOL    HW290229   7.520   9.274   1.325  0.9071  1.3460  1.2413
28900SOL     OW90230   5.767   3.363   8.867 -0.1648 -0.2622  0.4792
28900SOL    HW190231   5.757   3.271   8.892  0.8044 -0.3419  0.6096
28900SOL    HW290232   5.849   3.390   8.908  0.8308 -0.0215 -1.5468
28901SOL     OW90233   6.569  10.655  10.156 -0.2539  0.0031 -0.4332
28901SOL    HW190234   6.533  10.681  10.241  0.8986  2.5224 -0.6402
28901SOL    HW290235   6.659  10.627  10.176  0.3247  1.4618 -0.8898
28902SOL     OW90236   7.895   7.396   8.299 -0.2859 -0.2116  0.0223
28902SOL    HW190237   7.978   7.349   8.307 -0.2878 -0.1215  0.5915
28902SOL    HW290238   7.832   7.341   8.345 -0.2210  0.4993  1.0053
28903SOL     OW90239   4.526   2.872   9.844 -0.0837  0.5094 -0.3986
28903SOL    HW190240   4.458   2.820   9.802 -0.6139  1.2434 -0.4853
28903SOL    HW290241   4.590   2.809   9.875 -0.3771 -0.1369 -1.0883
28904SOL     OW90242   5.762   1.997   6.129 -0.1427  0.3243  0.8900
28904SOL    HW190243   5.702   1.982   6.056 -0.0583  0.2972  0.8271
28904SOL    HW290244   5.777   2.092   6.128  1.4461  0.1014 -0.3709
28905SOL     OW90245   4.514   6.593   3.890  0.4636  0.0102 -0.6206
28905SOL    HW190246   4.584   6.658   3.892  0.8977 -0.3860 -1.7972
28905SOL    HW290247   4.516   6.552   3.976 -0.3209  2.0291  0.4279
28906SOL     OW90248   8.516   3.132   4.392  0.2715 -0.1774  0.0639
28906SOL    HW190249   8.600   3.090   4.409  0.9442  1.2698  0.5014
28906SOL    HW290250   8.501   3.116   4.299 -0.1915 -2.5061  0.4773
28907SOL     OW90251   5.247   2.540   5.604  0.2134 -0.0723 -0.3363
28907SOL    HW190252   5.171   2.565   5.551 -0.6237 -0.2410  0.7288
28907SOL    HW290253   5.228   2.451   5.633 -0.0136  0.4578  1.2955
28908SOL     OW90254   9.631   6.148   3.061  0.1493 -0.6260 -0.4667
28908SOL    HW190255   9.701   6.183   3.117 -0.8560  0.5717  0.0874
28908SOL    HW290256   9.583   6.226   3.031 -2.2948 -1.4833  0.9741
28909SOL     OW90257  10.788   1.587   0.785  0.0257  0.4428  0.7902
28909SOL    HW190258  10.803   1.577   0.879  1.1766  2.0284  0.8088
28909SOL    HW290259  10.776   1.681   0.772  0.6510  0.3391 -0.7366
28910SOL     OW90260   4.338   7.881   5.019 -0.0546  0.0009 -0.1963
28910SOL    HW190261   4.384   7.844   5.094 -0.5587 -0.3383 -0.0519
28910SOL    HW290262   4.353   7.818   4.949 -0.5144 -0.2371 -0.0797
28911SOL     OW90263   6.299   1.090   4.450 -0.4725 -0.4026 -0.4610
28911SOL    HW190264   6.336   1.074   4.363  0.8947 -0.2864  0.0775
28911SOL    HW290265   6.208   1.061   4.443 -0.5675  0.1859 -2.1007
28912SOL     OW90266  10.547   3.064  10.020 -0.0576 -0.2045 -0.6473
28912SOL    HW190267  10.572   3.011   9.944  0.5024 -0.4306 -0.3123
28912SOL    HW290268  10.451   3.068  10.016 -0.1552 -1.6581 -0.4172
28913SOL     OW90269  10.161   7.192   7.381 -0.0195  0.5307  0.3843
28913SOL    HW190270  10.100   7.218   7.313 -0.0314  0.1598  0.2476
28913SOL    HW290271  10.155   7.096   7.383  0.5073  0.4938  0.4113
28914SOL     OW90272   3.179  10.158   3.738 -0.0932 -0.1533 -0.4283
28914SOL    HW190273   3.122  10.081   3.748  1.6724 -1.5427 -0.7020
28914SOL    HW290274   3.157  10.193   3.652 -1.0643 -0.2039 -0.2155
28915SOL     OW90275   3.801   6.167   0.589  0.4943 -0.0423 -0.4906
28915SOL    HW190276   3.878   6.200   0.634  1.7265  0.3233 -2.7155
28915SOL    HW290277   3.777   6.236   0.528 -0.2263 -1.0637 -1.4126
28916SOL     OW90278   2.068  10.782   6.148 -0.1810  0.1061 -0.0948
28916SOL    HW190279   2.047  10.866   6.107  0.6951  0.4951  0.2267
28916SOL    HW290280   2.010  10.777   6.224 -1.0300 -0.1134 -0.7332
28917SOL     OW90281   4.559   9.155   8.198 -0.1425  0.1452  0.0250
28917SOL    HW190282   4.465   9.168   8.212 -0.0104  1.3989 -0.1189
28917SOL    HW290283   4.595   9.143   8.286 -0.0700  2.6014  0.4177
28918SOL     OW90284   5.895   6.810   2.034 -0.1336 -0.5948 -0.1144
28918SOL    HW190285   5.930   6.722   2.039  0.5986 -0.3103 -0.1501
28918SOL    HW290286   5.919   6.841   1.946 -0.6706 -0.4782 -0.2246
28919SOL     OW90287   8.853   7.331   6.881 -0.3175 -0.5160  0.2393
28919SOL    HW190288   8.935   7.376   6.899  0.9541 -2.6965  0.1886
28919SOL    HW290289   8.813   7.319   6.967 -0.7582  0.7466  0.2429
28920SOL     OW90290   0.420  10.817   3.756 -0.8146  0.2307 -0.2861
28920SOL    HW190291   0.435  10.848   3.845 -2.4948  0.2156  0.0298
28920SOL    HW290292   0.439  10.723   3.759 -0.5270  0.2961 -0.0415
28921SOL     OW90293   7.349   2.836  10.268 -0.0633  0.0348 -0.0440
28921SOL    HW190294   7.382   2.849  10.179 -1.1870 -0.2949 -0.5348
28921SOL    HW290295   7.302   2.752  10.263  0.5153 -0.3698  1.0635
28922SOL     OW90296   9.418   0.746   3.052 -0.1422  0.5797 -0.0581
28922SOL    HW190297   9.447   0.681   2.989  0.3529  0.0475  0.6970
28922SOL    HW290298   9.362   0.806   3.002  0.1397  0.1014 -0.9560
28923SOL     OW90299   7.209   7.229   2.450  0.3336  0.3078  0.5086
28923SOL    HW190300   7.178   7.312   2.415 -0.7031 -0.1205  0.3753
28923SOL    HW290301   7.217   7.245   2.544 -0.4876  0.3890  0.5760
28924SOL     OW90302   7.025   9.830   2.754  0.5265 -0.0903  0.6159
28924SOL    HW190303   7.051   9.914   2.715  2.1828  0.1667  2.1137
28924SOL    HW290304   6.930   9.833   2.755  0.5329  1.5654  0.1867
28925SOL     OW90305   8.574   7.538  10.647  0.2390  0.1210 -0.7722
28925SOL    HW190306   8.590   7.555  10.554  0.9627 -0.0751 -0.6846
28925SOL    HW290307   8.658   7.553  10.689 -0.5740  2.4097  0.1771
28926SOL     OW90308   7.383   0.728   4.996  0.2443 -0.1017  0.3901
28926SOL    HW190309   7.473   0.698   5.006  0.0885 -2.3606 -3.1344
28926SOL    HW290310   7.391   0.815   4.958  0.8343  0.7067  2.2618
28927SOL     OW90311   6.894   9.491   6.080  0.0792  0.3245 -0.4466
28927SOL    HW190312   6.808   9.532   6.068  0.2141  0.3708 -1.3539
28927SOL    HW290313   6.912   9.450   5.995  0.0091 -1.5005  0.3609
28928SOL     OW90314   4.103   4.385   7.817 -0.2371  0.5188  0.3330
28928SOL    HW190315   4.154   4.330   7.878  2.7168  0.7584 -1.6952
28928SOL    HW290316   4.040   4.431   7.872  1.2684 -0.3858  2.9696
28929SOL     OW90317   6.747   9.131   7.636  0.3340 -0.1588  0.3591
28929SOL    HW190318   6.771   9.085   7.556  0.9004 -1.0801  1.0439
28929SOL    HW290319   6.807   9.205   7.640 -0.7752  0.8515 -0.9011
28930SOL     OW90320   2.158   6.877  10.041  0.5591  0.5498 -0.0223
28930SOL    HW190321   2.082   6.849   9.990  0.5069  1.3016 -0.3597
28930SOL    HW290322   2.122   6.908  10.124  0.6654 -0.9482  0.6257
28931SOL     OW90323   0.252   6.764   0.253  0.0383 -0.1462 -0.2392
28931SOL    HW190324   0.216   6.711   0.325 -0.3028  0.6083  0.1610
28931SOL    HW290325   0.208   6.732   0.175 -1.0528  0.3257  0.1569
28932SOL     OW90326   1.291   7.447   0.136 -0.6066 -0.3470 -0.5514
28932SOL    HW190327   1.221   7.395   0.175 -0.7471  0.3260  0.1077
28932SOL    HW290328   1.293   7.418   0.044  1.7970 -4.2038  0.4939
28933SOL     OW90329   3.100  10.113   0.759  0.1174 -0.2388 -0.5622
28933SOL    HW190330   3.150  10.193   0.777 -0.7287 -0.0484  1.0580
28933SOL    HW290331   3.124  10.054   0.830  1.3506 -1.7858 -2.1575
28934SOL     OW90332   7.581   9.642   6.404 -0.1487  0.1920 -0.4555
28934SOL    HW190333   7.641   9.567   6.400  1.5158  1.3427  0.9939
28934SOL    HW290334   7.495   9.603   6.420  0.6437 -1.4355  0.0948
28935SOL     OW90335   4.516   5.443   0.592  0.0409  0.3214 -0.3992
28935SOL    HW190336   4.556   5.387   0.526 -0.3816 -0.4885  0.0011
28935SOL    HW290337   4.473   5.512   0.543 -0.5392 -0.4457 -1.0050
28936SOL     OW90338   5.699   4.117   2.126  0.0807  0.1436 -0.3781
28936SOL    HW190339   5.638   4.052   2.160  0.4467 -0.4739 -0.8824
28936SOL    HW290340   5.643   4.191   2.101 -0.3530 -0.0259  0.0592
28937SOL     OW90341   6.642   2.598   7.167 -0.1159 -0.2632  0.2758
28937SOL    HW190342   6.560   2.647   7.180 -0.8588 -1.2283 -0.6002
28937SOL    HW290343   6.622   2.510   7.199  0.7584 -0.3750  0.5401
28938SOL     OW90344   9.649   6.405   2.555  0.0266  0.0098  0.2076
28938SOL    HW190345   9.565   6.422   2.512 -0.0604  1.2567  0.8069
28938SOL    HW290346   9.660   6.479   2.615  0.3693 -1.4069  1.9719
28939SOL     OW90347   5.445  10.177   8.745 -0.0288 -0.0537 -0.2691
28939SOL    HW190348   5.442  10.267   8.713  0.2179 -0.1578 -0.5862
28939SOL    HW290349   5.439  10.123   8.667  2.5000 -0.3191 -0.3684
28940SOL     OW90350   8.676   5.332   5.817 -0.0610  0.3955  0.2335
28940SOL    HW190351   8.681   5.405   5.755 -0.3387  0.8672  0.7606
28940SOL    HW290352   8.760   5.287   5.808 -0.6772 -0.5091 -1.6592
28941SOL     OW90353   7.463   9.370   6.145 -0.0962 -0.2071  0.0147
28941SOL    HW190354   7.536   9.333   6.096  0.0909 -2.4331  1.8478
28941SOL    HW290355   7.407   9.296   6.165 -1.1420  0.9227  1.5099
28942SOL     OW90356  10.831   0.134   7.043 -0.3141 -0.2994 -0.0441
28942SOL    HW190357  10.917   0.114   7.079 -0.8070 -0.1014  1.2901
28942SOL    HW290358  10.779   0.055   7.060 -0.0011 -1.0334 -2.2421
28943SOL     OW90359   1.739   2.663   8.600  0.2533 -0.2611 -0.5016
28943SOL    HW190360   1.814   2.619   8.560  1.4731  0.7239  0.6339
28943SOL    HW290361   1.737   2.750   8.559 -0.3305 -0.3045 -0.5796
28944SOL     OW90362   2.493   3.204   8.841  0.0422  0.5396 -0.6026
28944SOL    HW190363   2.481   3.299   8.844 -0.2658  0.4776  0.4695
28944SOL    HW290364   2.423   3.168   8.896  1.2860 -0.1867  0.5809
28945SOL     OW90365   6.895  10.347   9.446 -0.4520  0.3429  0.4014
28945SOL    HW190366   6.987  10.372   9.455 -0.5515  0.2534  1.8820
28945SOL    HW290367   6.884  10.329   9.352  0.5140  2.3148 -0.1388
28946SOL     OW90368   3.990   5.531   8.259  0.6551 -0.5043  0.1369
28946SOL    HW190369   3.986   5.440   8.229  0.9657  0.5284 -3.4835
28946SOL    HW290370   4.084   5.548   8.271  0.8311  0.0299 -1.7900
28947SOL     OW90371   1.070   7.337   5.740  0.3963  0.1553  0.4269
28947SOL    HW190372   1.134   7.389   5.692 -0.5064  1.7725  0.9263
28947SOL    HW290373   1.015   7.401   5.786 -0.8781 -1.2192  0.9155
28948SOL     OW90374   5.205   8.463   8.546 -0.0570 -0.0495 -0.2323
28948SOL    HW190375   5.239   8.392   8.600  0.5512 -0.5260 -1.2028
28948SOL    HW290376   5.127   8.493   8.592 -1.0554 -2.1786 -0.4140
28949SOL     OW90377   7.242   0.803   5.751  0.0974 -0.0271  0.0887
28949SOL    HW190378   7.161   0.784   5.799 -1.1734 -1.9182 -2.5360
28949SOL    HW290379   7.213   0.820   5.662  2.5766 -0.0931 -0.7978
28950SOL     OW90380   1.428   8.525   5.794  0.2910 -0.2242  0.0419
28950SOL    HW190381   1.433   8.518   5.889  0.1903 -3.0714 -0.0842
28950SOL    HW290382   1.519   8.513   5.764  0.0814 -1.0734 -0.2716
28951SOL     OW90383   1.488   2.912   1.769 -0.5737  0.4662 -0.0582
28951SOL    HW190384   1.507   2.970   1.696 -1.0446 -0.0299 -0.5902
28951SOL    HW290385   1.570   2.865   1.785  0.0859  1.9100  0.9895
28952SOL     OW90386   7.306   2.114   7.319  0.6613  0.1864  0.5020
28952SOL    HW190387   7.361   2.038   7.299 -0.4721 -0.9995  1.6710
28952SOL    HW290388   7.367   2.179   7.355  1.9776  0.6573 -2.2999
28953SOL     OW90389   4.460   3.856   4.386 -0.0773  0.1436  0.2638
28953SOL    HW190390   4.542   3.900   4.365  0.7882 -1.4532  0.1212
28953SOL    HW290391   4.448   3.792   4.316 -0.3920 -1.0036  1.3239
28954SOL     OW90392   2.027   3.098   7.427 -0.2126  0.2217 -0.7088
28954SOL    HW190393   1.999   3.146   7.505 -0.5980  1.0374 -1.3266
28954SOL    HW290394   2.112   3.060   7.451  0.4209  1.7487 -0.3845
28955SOL     OW90395   3.751   7.442   1.863 -0.3557 -0.4193  0.0201
28955SOL    HW190396   3.820   7.509   1.863 -1.6600  0.9902  0.2751
28955SOL    HW290397   3.771   7.387   1.939  0.5661 -0.1409 -0.0042
28956SOL     OW90398   9.492   7.368   8.199  0.2607  0.1463 -0.3277
28956SOL    HW190399   9.431   7.375   8.126 -1.2045  1.2307  0.9325
28956SOL    HW290400   9.541   7.450   8.197  1.2731 -0.4426 -0.9325
28957SOL     OW90401  10.036   8.841   4.848 -0.2314  0.1298  0.5752
28957SOL    HW190402  10.043   8.747   4.834 -0.6285 -0.1079  1.8622
28957SOL    HW290403  10.127   8.872   4.851 -0.0852 -0.3375  0.9692
28958SOL     OW90404   4.980   6.342   6.285 -0.2787 -0.0306 -0.1514
28958SOL    HW190405   5.023   6.419   6.247  1.8728 -0.6185  0.8899
28958SOL    HW290406   5.035   6.269   6.258  0.3566 -0.6615  2.5537
28959SOL     OW90407   0.847   6.996   9.807 -0.0788 -0.3495  0.4656
28959SOL    HW190408   0.828   6.908   9.773  0.1867 -0.5390  0.8056
28959SOL    HW290409   0.898   7.038   9.737 -0.9174 -0.1726 -0.0497
28960SOL     OW90410   6.123   3.805   0.551  0.3354  0.4015  0.2038
28960SOL    HW190411   6.131   3.900   0.558 -1.3234  0.6436 -0.6894
28960SOL    HW290412   6.100   3.776   0.639 -1.9514  1.1959 -0.0717
28961SOL     OW90413   3.871   1.506   6.758  0.1856 -0.3494  0.3579
28961SOL    HW190414   3.880   1.535   6.667 -3.5399 -2.0803 -0.7615
28961SOL    HW290415   3.889   1.412   6.756 -2.3849 -0.9377  0.7419
28962SOL     OW90416   6.228   8.185   9.535 -0.5939 -0.3326 -0.0877
28962SOL    HW190417   6.240   8.131   9.613  0.7422 -0.2107 -0.1753
28962SOL    HW290418   6.227   8.275   9.568  0.5548 -0.2452 -0.2342
28963SOL     OW90419   1.141   9.298   7.800  0.1996 -0.3814 -0.2660
28963SOL    HW190420   1.181   9.382   7.823  0.5879 -1.1446  2.1797
28963SOL    HW290421   1.215   9.238   7.792 -0.1004 -0.6027 -1.6808
28964SOL     OW90422   3.895  10.642   0.316  0.0012 -0.1978 -0.8336
28964SOL    HW190423   3.825  10.625   0.253  0.1941 -0.7289 -0.9111
28964SOL    HW290424   3.881  10.733   0.344 -1.2033 -0.5526 -0.2280
28965SOL     OW90425   5.823   8.914   3.738  0.0858 -0.0989  0.4151
28965SOL    HW190426   5.845   8.860   3.663 -1.0839  1.4062 -1.0938
28965SOL    HW290427   5.727   8.913   3.742  0.1093  0.0577  1.7496
28966SOL     OW90428   1.278  10.815   8.865  0.4864  0.4222  0.0885
28966SOL    HW190429   1.313  10.727   8.852 -0.5041 -0.0090  0.2465
28966SOL    HW290430   1.183  10.803   8.868  0.3898  1.2831  1.6617
28967SOL     OW90431   9.242   0.681   7.329 -0.4737 -0.2607 -0.6523
28967SOL    HW190432   9.289   0.609   7.287 -1.4100 -0.5160 -1.2857
28967SOL    HW290433   9.306   0.752   7.334  0.2143 -0.8547 -0.7625
28968SOL     OW90434   0.812   5.640   2.623  0.5277  0.0964 -0.4580
28968SOL    HW190435   0.816   5.608   2.533 -3.0216  0.0433 -0.7441
28968SOL    HW290436   0.816   5.735   2.616 -0.3777  0.1185 -0.7633
28969SOL     OW90437   0.926   3.397   8.931  0.3218  0.1425 -0.4864
28969SOL    HW190438   0.899   3.312   8.897  0.5347 -0.3709  0.5795
28969SOL    HW290439   1.007   3.379   8.979 -0.0268  0.7969  0.3892
28970SOL     OW90440   7.845  10.628   9.329 -0.4589 -0.1415  0.3328
28970SOL    HW190441   7.897  10.551   9.307  1.0614  1.3868 -2.0275
28970SOL    HW290442   7.763  10.617   9.280 -0.9247 -0.9617  1.2762
28971SOL     OW90443   5.116   9.757   2.077 -0.1010 -0.3808 -0.9457
28971SOL    HW190444   5.040   9.719   2.121  1.1167 -1.2886  0.4574
28971SOL    HW290445   5.143   9.690   2.015  1.0169 -1.1585  0.3251
28972SOL     OW90446   7.816  11.081   5.064 -0.1694  0.5656  0.2150
28972SOL    HW190447   7.867  11.013   5.107  2.2500  2.4913  0.6695
28972SOL    HW290448   7.875  11.115   4.996 -2.0398  0.9103 -1.3186
28973SOL     OW90449  10.989  10.984   0.043  0.3602  0.0947 -0.2792
28973SOL    HW190450  10.925  10.929  -0.001  0.2594  0.8450 -1.0872
28973SOL    HW290451  11.064  10.987  -0.017  0.4025  0.7536 -0.2009
28974SOL     OW90452   9.632  11.013   2.660  0.1732  0.4534 -0.0963
28974SOL    HW190453   9.546  10.970   2.663 -0.0953  0.8073 -1.9165
28974SOL    HW290454   9.636  11.054   2.574  1.6015  1.6688  0.4964
28975SOL     OW90455   6.999   7.122   3.458 -0.5351 -0.2864  0.0356
28975SOL    HW190456   7.071   7.167   3.502 -0.7879  0.3194 -0.1611
28975SOL    HW290457   6.953   7.191   3.410 -0.2802 -0.9186 -1.1665
28976SOL     OW90458  10.669  10.163   8.636  0.1503 -0.0116  0.3505
28976SOL    HW190459  10.683  10.257   8.644 -1.2239  0.1499  1.1919
28976SOL    HW290460  10.591  10.146   8.688 -0.0389 -1.5091 -0.3719
28977SOL     OW90461   1.442   9.377  10.600 -0.2570 -0.4511 -0.2988
28977SOL    HW190462   1.443   9.447  10.666 -0.3749 -0.7024 -0.0283
28977SOL    HW290463   1.503   9.311  10.633 -0.2375 -0.5325 -0.4938
28978SOL     OW90464   3.207  10.411   6.414  0.2379  0.7257 -0.3474
28978SOL    HW190465   3.235  10.492   6.371 -0.9138  1.1383 -0.3600
28978SOL    HW290466   3.113  10.423   6.428  0.3675  0.1459  1.2756
28979SOL     OW90467   9.949   8.597  11.061  0.2360  0.1471  0.1342
28979SOL    HW190468  10.022   8.644  11.102 -0.3472 -0.3272  1.7952
28979SOL    HW290469   9.920   8.655  10.991  1.5652  0.7974  0.0894
28980SOL     OW90470   0.369   7.588  10.214  0.1147 -0.1613 -0.0804
28980SOL    HW190471   0.436   7.552  10.155  1.3196  0.7847  0.6782
28980SOL    HW290472   0.339   7.513  10.265 -0.0602 -0.7569 -1.0252
28981SOL     OW90473   1.619   8.672   0.123  0.1582 -0.3841  0.1322
28981SOL    HW190474   1.569   8.617   0.062 -1.6249  0.8553  0.4104
28981SOL    HW290475   1.589   8.761   0.106 -0.9760 -0.0215  3.2172
28982SOL     OW90476   2.582   7.623   3.474 -0.0618 -0.1499 -0.7822
28982SOL    HW190477   2.564   7.709   3.511  0.3928  0.0006 -0.9042
28982SOL    HW290478   2.667   7.632   3.431  0.0549 -0.6933 -0.6832
28983SOL     OW90479   0.823   5.110   1.085  0.3007  0.3448  0.2283
28983SOL    HW190480   0.898   5.096   1.142  0.6408  1.1308 -0.0109
28983SOL    HW290481   0.825   5.035   1.025  0.7684  0.2439  0.3618
28984SOL     OW90482   6.907   1.356   2.544  0.4499  0.1606 -0.2401
28984SOL    HW190483   6.964   1.325   2.614  0.5440 -1.5918 -1.0487
28984SOL    HW290484   6.824   1.375   2.588  0.7605 -0.0974  0.4765
28985SOL     OW90485   5.226   5.570   6.549  0.5557  0.2748 -0.3119
28985SOL    HW190486   5.254   5.660   6.563  0.7918  0.0187  1.0170
28985SOL    HW290487   5.306   5.523   6.525  0.6566  0.1797  0.2131
28986SOL     OW90488   5.696  10.711   4.946  0.5316  0.1252  0.0389
28986SOL    HW190489   5.687  10.619   4.969  1.5472  0.0820  0.2998
28986SOL    HW290490   5.616  10.752   4.981  1.3017 -0.1999  2.3484
28987SOL     OW90491   4.295   5.982   6.089  0.7656 -0.2987  0.2230
28987SOL    HW190492   4.295   6.067   6.044 -1.3734  0.0023  0.6683
28987SOL    HW290493   4.336   5.999   6.173  1.5503 -0.0304 -0.2033
28988SOL     OW90494   9.769  10.687   4.603  0.3241  1.0237  0.2680
28988SOL    HW190495   9.717  10.609   4.623 -0.1177  1.0186 -0.8306
28988SOL    HW290496   9.815  10.707   4.685  1.5529 -1.2069  0.2026
28989SOL     OW90497   7.125   7.094   8.100  0.0965  0.1261 -0.2958
28989SOL    HW190498   7.146   7.032   8.031  1.3886 -0.0015  0.1922
28989SOL    HW290499   7.128   7.180   8.058  1.3710  0.0907 -0.3110
28990SOL     OW90500   1.596   5.730   7.332 -0.6000 -0.1376 -0.1799
28990SOL    HW190501   1.614   5.739   7.238 -1.4313 -2.1136 -0.5677
28990SOL    HW290502   1.655   5.660   7.361  1.6379  2.2096  1.4438
28991SOL     OW90503   9.415   0.948   0.908  0.6556  0.0343 -0.5938
28991SOL    HW190504   9.464   1.003   0.847  0.4075 -0.4978 -1.2790
28991SOL    HW290505   9.364   0.890   0.853  0.2242 -0.2820  0.1223
28992SOL     OW90506   0.980   3.791   8.712 -0.5935 -0.3936  0.3810
28992SOL    HW190507   0.958   3.822   8.800  0.7526 -1.1009  1.0036
28992SOL    HW290508   0.926   3.712   8.700 -0.7757 -0.3002  0.5790
28993SOL     OW90509   2.405   9.887   3.875  0.2463 -0.0261 -0.2270
28993SOL    HW190510   2.500   9.897   3.872  0.2864 -0.2353  0.2861
28993SOL    HW290511   2.372   9.971   3.843  0.6001  0.3376  0.3437
28994SOL     OW90512   7.226   0.531   9.634  0.5728  0.3730  0.7557
28994SOL    HW190513   7.222   0.448   9.680 -0.1964  1.1949  2.2371
28994SOL    HW290514   7.173   0.591   9.686  0.0188  1.4786 -0.9710
28995SOL     OW90515   6.265   9.378   5.649  0.0781  0.0932 -0.0249
28995SOL    HW190516   6.187   9.378   5.594  0.0015 -2.0258  0.0116
28995SOL    HW290517   6.279   9.470   5.671 -1.7050  0.6399 -1.0109
28996SOL     OW90518  10.358   3.638   1.626  0.2892  0.2912 -0.3420
28996SOL    HW190519  10.396   3.652   1.539 -0.3293  1.8251 -0.3986
28996SOL    HW290520  10.429   3.660   1.687  0.4813 -0.0164 -0.4516
28997SOL     OW90521   6.813   4.400   7.749  0.0198 -0.1465 -0.3560
28997SOL    HW190522   6.848   4.471   7.695 -0.9046 -0.0874 -0.8997
28997SOL    HW290523   6.766   4.344   7.688  0.1775 -0.8663  0.1719
28998SOL     OW90524   0.610  10.651   8.362  0.3034  0.1831  0.1516
28998SOL    HW190525   0.682  10.671   8.421  1.9245  0.6372 -1.8767
28998SOL    HW290526   0.606  10.556   8.360  1.2025  0.1476 -0.1195
28999SOL     OW90527   6.174   5.445   1.271  0.1196  0.8364 -0.4831
28999SOL    HW190528   6.176   5.534   1.306 -2.4439  0.5492  0.6024
28999SOL    HW290529   6.083   5.431   1.247  0.3314 -1.7171 -0.0299
29000SOL     OW90530   9.439   4.519   7.505 -0.2616  0.2043  0.1287
29000SOL    HW190531   9.386   4.440   7.511  1.1872 -1.0294 -1.9090
29000SOL    HW290532   9.381   4.584   7.464 -0.6796 -0.6624 -0.7048
29001SOL     OW90533   5.393  10.444   5.720  0.2144  0.1502 -0.1167
29001SOL    HW190534   5.443  10.368   5.692  0.8205  0.5988 -0.2915
29001SOL    HW290535   5.442  10.519   5.685  0.6927  0.7215  1.6419
29002SOL     OW90536   7.669   0.024   4.579 -0.1017  0.0682  0.5318
29002SOL    HW190537   7.704  -0.036   4.514  1.6857  0.8987  0.6687
29002SOL    HW290538   7.575   0.027   4.561 -0.0741 -1.9109 -0.1495
29003SOL     OW90539   6.667   1.499   6.670 -0.2587  0.6991  0.0238
29003SOL    HW190540   6.662   1.478   6.763  0.3472 -0.3337 -0.1605
29003SOL    HW290541   6.648   1.416   6.626  1.5276  0.6754 -0.7552
29004SOL     OW90542   0.788   5.478   0.251  0.2705  0.5988 -0.3719
29004SOL    HW190543   0.735   5.473   0.331 -2.4251  1.4165 -1.9556
29004SOL    HW290544   0.878   5.463   0.281 -0.7867 -0.8483  2.5278
29005SOL     OW90545   0.536   5.395   7.069 -0.1571  0.2292  0.0249
29005SOL    HW190546   0.536   5.398   6.973 -0.5361  0.6758  0.0376
29005SOL    HW290547   0.606   5.334   7.091 -1.0394 -1.0705 -0.5784
29006SOL     OW90548  10.272  10.896   3.105 -0.4143 -0.5659  0.5092
29006SOL    HW190549  10.329  10.827   3.137 -1.8578 -0.4128  3.7683
29006SOL    HW290550  10.230  10.859   3.028 -0.2375 -2.8771  1.4556
29007SOL     OW90551   7.733   4.897   4.580 -0.7803 -0.2844  0.2705
29007SOL    HW190552   7.667   4.919   4.646  0.2114  0.5632  1.0085
29007SOL    HW290553   7.771   4.981   4.555  0.7671 -0.8266  0.6857
29008SOL     OW90554   6.350  10.002   9.777  0.3916 -0.2180 -0.0893
29008SOL    HW190555   6.318  10.049   9.854  1.5440  1.2384 -0.4476
29008SOL    HW290556   6.421  10.057   9.744 -1.0587  0.0173 -3.1113
29009SOL     OW90557   2.983   3.112  10.040  0.0763  0.5857 -0.6005
29009SOL    HW190558   2.991   3.042   9.975 -0.9963  1.1000 -1.3149
29009SOL    HW290559   3.004   3.192   9.991  0.6566  0.8416  0.0524
29010SOL     OW90560   9.818   6.892   1.379 -0.5948  0.1554 -0.5636
29010SOL    HW190561   9.772   6.920   1.299 -0.3663 -1.7362 -1.4000
29010SOL    HW290562   9.908   6.874   1.350 -0.5093 -0.5352  0.1060
29011SOL     OW90563   5.112   6.632   9.113  0.1530 -0.1903  0.0026
29011SOL    HW190564   5.036   6.660   9.061 -0.6608  0.7341  1.5758
29011SOL    HW290565   5.150   6.714   9.145 -0.0305 -0.7322  1.7074
29012SOL     OW90566   6.758   6.998   2.118  0.6322  0.2295  0.2508
29012SOL    HW190567   6.777   6.908   2.093 -2.0918 -1.0748  2.3116
29012SOL    HW290568   6.804   7.011   2.201  1.3444  0.9246 -0.2353
29013SOL     OW90569   6.348   4.308   2.495 -0.0869  0.7173  0.1306
29013SOL    HW190570   6.428   4.326   2.545  0.9077 -1.2777 -0.5999
29013SOL    HW290571   6.309   4.233   2.540 -0.7598  0.7519 -0.3898
29014SOL     OW90572   1.062   1.734   8.614  0.0699 -0.4304 -0.5449
29014SOL    HW190573   1.018   1.771   8.691  0.9504 -0.0714 -0.2084
29014SOL    HW290574   1.040   1.794   8.543  0.5992  0.1411 -0.2272
29015SOL     OW90575   3.542   7.758   2.459  0.2974 -0.3597 -0.3831
29015SOL    HW190576   3.493   7.741   2.540 -0.2453 -0.4161 -0.7147
29015SOL    HW290577   3.616   7.811   2.486 -1.2107  1.7586 -0.1733
29016SOL     OW90578   4.478   6.761   6.263 -0.0802  0.3209  0.1706
29016SOL    HW190579   4.556   6.709   6.242 -0.2487  0.2637 -0.3198
29016SOL    HW290580   4.404   6.707   6.235 -0.2154  1.8179 -2.7782
29017SOL     OW90581  10.308   3.913  10.602  0.6442 -0.8587 -0.6849
29017SOL    HW190582  10.280   3.976  10.668  1.0810  0.9007 -2.0887
29017SOL    HW290583  10.270   3.830  10.629 -0.0294  0.0260  1.1910
29018SOL     OW90584   1.950   3.680  11.093 -0.0065 -0.0879  0.0964
29018SOL    HW190585   1.983   3.591  11.108  0.8896  0.3418  0.8036
29018SOL    HW290586   2.019   3.723  11.042 -0.5854  0.1149 -0.5364
29019SOL     OW90587   9.623  10.754  10.736  0.3469 -0.4326 -0.0375
29019SOL    HW190588   9.690  10.740  10.670 -0.6226  1.7444 -1.5979
29019SOL    HW290589   9.660  10.821  10.795 -0.5029  1.0743 -1.1334
29020SOL     OW90590   4.208   9.966   7.242 -0.1223  0.1096  0.1032
29020SOL    HW190591   4.270   9.962   7.169 -0.3721 -1.0583 -0.0746
29020SOL    HW290592   4.262   9.956   7.320 -0.1865 -3.2341 -0.1215
29021SOL     OW90593   0.329   2.818   7.448  0.4328 -0.1513  0.3077
29021SOL    HW190594   0.422   2.838   7.457  0.3010  0.2919  0.7633
29021SOL    HW290595   0.286   2.904   7.445 -0.0859 -0.3468  1.5385
29022SOL     OW90596  10.325   9.970   5.221  0.1892  0.2355  0.2116
29022SOL    HW190597  10.239   9.928   5.230  0.7639 -0.8565  0.8040
29022SOL    HW290598  10.308  10.048   5.169 -0.5608 -2.0934 -3.4317
29023SOL     OW90599   9.312   8.763   6.121 -0.4431 -0.3550  0.1277
29023SOL    HW190600   9.275   8.850   6.102 -1.8795 -0.4411  2.1770
29023SOL    HW290601   9.292   8.711   6.043 -2.5554  0.2960  0.1688
29024SOL     OW90602   1.793   0.805   8.086 -0.0530  0.3839  0.3919
29024SOL    HW190603   1.786   0.727   8.031 -3.7880  1.5735 -1.1331
29024SOL    HW290604   1.885   0.832   8.078  0.0774 -0.6184 -3.8317
29025SOL     OW90605  10.650   2.375  10.454 -0.1640  0.4492  0.5554
29025SOL    HW190606  10.726   2.431  10.470  0.5907  0.1559 -1.6479
29025SOL    HW290607  10.687   2.289  10.436 -0.9796  0.3155 -0.6340
29026SOL     OW90608  10.548   5.121   7.975  0.4931 -0.0818  0.6050
29026SOL    HW190609  10.484   5.158   7.914  1.7270  0.0767 -0.6461
29026SOL    HW290610  10.538   5.026   7.967  2.3426 -0.1842 -1.8752
29027SOL     OW90611   2.132   1.993   1.021 -0.0773  0.2962 -0.2843
29027SOL    HW190612   2.200   1.927   1.005  0.1447  0.5455 -0.3890
29027SOL    HW290613   2.093   2.008   0.935  1.1190  1.6397 -0.6252
29028SOL     OW90614   5.815   2.207   7.312  0.3701 -0.9934  0.2493
29028SOL    HW190615   5.791   2.289   7.356 -0.5371 -2.0462  1.8197
29028SOL    HW290616   5.799   2.139   7.377 -1.1874 -2.6855 -1.7598
29029SOL     OW90617  10.829   1.927   9.317  0.1465 -0.1969  0.3198
29029SOL    HW190618  10.888   1.910   9.244  2.0195  0.2108  1.6658
29029SOL    HW290619  10.787   1.842   9.334 -0.0599 -0.3738 -0.9809
29030SOL     OW90620   8.315   0.072   9.857  0.5213 -0.6987 -0.1106
29030SOL    HW190621   8.226   0.046   9.832  0.9505 -1.4690 -0.9048
29030SOL    HW290622   8.365  -0.010   9.855  1.5312 -0.0927 -0.9764
29031SOL     OW90623  10.692   8.138   4.846  0.0058  0.3032 -0.3185
29031SOL    HW190624  10.720   8.229   4.848 -0.1418  0.3654 -0.9849
29031SOL    HW290625  10.658   8.122   4.934  1.8025  0.3113  0.4055
29032SOL     OW90626   9.547  10.648   0.842 -0.4427 -0.3466 -0.1433
29032SOL    HW190627   9.530  10.643   0.936 -2.8642  0.3138 -0.4743
29032SOL    HW290628   9.548  10.556   0.813 -1.5736 -0.5086  0.2704
29033SOL     OW90629   2.896   0.004   2.298 -0.5658 -0.2448  0.0345
29033SOL    HW190630   2.939   0.069   2.354  0.7768  0.1494 -1.3702
29033SOL    HW290631   2.822  -0.027   2.350 -0.8345  1.8830  1.0366
29034SOL     OW90632   2.386   6.369   1.387  0.4399 -0.4917 -0.1904
29034SOL    HW190633   2.344   6.371   1.300 -0.0846  0.6314  0.0723
29034SOL    HW290634   2.370   6.280   1.419 -1.8493 -0.0915 -0.0685
29035SOL     OW90635   4.233   1.127   6.560 -0.1998 -0.4809  0.5454
29035SOL    HW190636   4.240   1.057   6.495 -0.4491  0.7817 -0.9004
29035SOL    HW290637   4.323   1.158   6.572 -0.1911 -0.5132  0.5591
29036SOL     OW90638   3.428   5.108   1.049  0.6375 -0.1199 -0.5713
29036SOL    HW190639   3.445   5.201   1.036 -1.7062  0.3061 -1.0101
29036SOL    HW290640   3.421   5.098   1.144 -2.3369  0.9029 -0.5749
29037SOL     OW90641   4.870   7.240   3.152  0.5109  0.1158  0.2466
29037SOL    HW190642   4.797   7.208   3.099  1.0878 -0.1794 -0.3871
29037SOL    HW290643   4.933   7.273   3.088  0.3940  1.5411  0.8420
29038SOL     OW90644   5.550   3.505   8.928  0.4684  0.0877 -0.1536
29038SOL    HW190645   5.607   3.441   8.886  2.3668  1.3021  0.4607
29038SOL    HW290646   5.610   3.568   8.967 -1.2534  0.3282  2.3111
29039SOL     OW90647   6.139   9.433   2.747  0.2281 -0.2492  0.0547
29039SOL    HW190648   6.154   9.471   2.833 -1.0084 -0.2421  0.2883
29039SOL    HW290649   6.221   9.446   2.700  0.3071  1.3983  0.6064
29040SOL     OW90650   0.343   1.596   1.221  0.1802  0.3459  0.0534
29040SOL    HW190651   0.345   1.502   1.203 -0.4955  0.5328 -1.1079
29040SOL    HW290652   0.348   1.638   1.135  0.9655  1.4003  0.5719
29041SOL     OW90653   4.155   9.162   2.488 -0.3440 -0.5526  0.1922
29041SOL    HW190654   4.206   9.238   2.515 -0.9862 -0.6447  1.7995
29041SOL    HW290655   4.095   9.147   2.562 -0.3030 -2.5434 -0.1420
29042SOL     OW90656   0.038   2.648   2.389  0.3077  0.3773 -0.0165
29042SOL    HW190657   0.074   2.638   2.301  1.5431  0.0574  0.4923
29042SOL    HW290658  -0.048   2.607   2.385  0.2108  0.6506 -1.1443
29043SOL     OW90659   7.143  10.682   1.286  0.1931 -0.2188  0.5784
29043SOL    HW190660   7.140  10.592   1.317 -1.8250  0.2534  2.0119
29043SOL    HW290661   7.123  10.676   1.192 -1.8544 -1.1890  1.0165
29044SOL     OW90662   7.206   1.909   8.390  0.3457 -0.1878 -0.6800
29044SOL    HW190663   7.218   1.988   8.337  1.5137  0.4897  0.5450
29044SOL    HW290664   7.123   1.873   8.359 -0.1215  1.4031 -1.4208
29045SOL     OW90665   4.081   2.695   7.096 -0.2536 -0.2343  0.3939
29045SOL    HW190666   4.151   2.631   7.083  1.3112  1.7329 -1.7560
29045SOL    HW290667   4.104   2.741   7.177  0.4999 -0.1435  0.1315
29046SOL     OW90668   4.801   5.043   4.006  0.0604  0.4940  0.2565
29046SOL    HW190669   4.882   5.011   3.965  0.2454  0.2223  0.8272
29046SOL    HW290670   4.775   4.973   4.066  0.2483  1.2419  1.2306
29047SOL     OW90671   8.879   1.504   9.940 -0.2164  0.1857 -0.0167
29047SOL    HW190672   8.865   1.472   9.851 -1.6804  0.1873  0.1846
29047SOL    HW290673   8.799   1.553   9.960 -0.9996 -1.8186  2.1698
29048SOL     OW90674   2.118   0.401   3.958  0.5523 -0.4817  0.2939
29048SOL    HW190675   2.061   0.357   3.895  0.7543 -0.1586 -0.1223
29048SOL    HW290676   2.060   0.460   4.006  0.5215 -0.1939 -0.0912
29049SOL     OW90677   4.613   2.005   9.102  0.0166 -0.2934 -0.2259
29049SOL    HW190678   4.592   2.059   9.026 -0.1048 -0.2983 -0.1962
29049SOL    HW290679   4.533   1.955   9.119 -0.0760 -0.0259  0.1279
29050SOL     OW90680   9.140   0.194   5.475 -0.5345  0.6335  0.4832
29050SOL    HW190681   9.194   0.247   5.533  0.0607  1.8423 -1.0855
29050SOL    HW290682   9.182   0.204   5.389 -2.0505 -0.1208 -0.3784
29051SOL     OW90683   2.784   4.740   6.964 -0.1246 -0.1066  0.3518
29051SOL    HW190684   2.707   4.771   7.012 -0.4056  1.3390 -0.9588
29051SOL    HW290685   2.850   4.724   7.031 -1.2481 -0.4403  1.4163
29052SOL     OW90686   4.591   0.664   0.863 -0.1316 -0.8617 -0.1779
29052SOL    HW190687   4.562   0.716   0.938  0.7170  0.0584 -0.4548
29052SOL    HW290688   4.511   0.629   0.825 -0.7517  0.3504 -0.0389
29053SOL     OW90689   4.397   6.061   7.149 -0.2502  0.7282  0.0598
29053SOL    HW190690   4.376   5.972   7.178 -0.3173  0.5615 -0.4806
29053SOL    HW290691   4.383   6.115   7.226  0.3433  0.1970  0.5496
29054SOL     OW90692   2.226   9.796   0.862 -0.2416 -0.1772  0.2185
29054SOL    HW190693   2.195   9.795   0.953 -0.9433  0.0874 -0.0123
29054SOL    HW290694   2.304   9.740   0.863 -0.4383 -0.4511  0.9120
29055SOL     OW90695   3.514   8.293   2.786  0.4028 -0.0579  0.2594
29055SOL    HW190696   3.584   8.247   2.739 -0.3327  0.1846 -1.1271
29055SOL    HW290697   3.477   8.353   2.721  0.0968  1.1369  1.4937
29056SOL     OW90698   6.733  10.321   2.583  0.3433  0.5167 -0.1779
29056SOL    HW190699   6.674  10.323   2.508  0.1084 -1.8047 -0.1512
29056SOL    HW290700   6.820  10.314   2.545  0.3555  0.9536 -0.2297
29057SOL     OW90701   9.121   6.653   3.875 -0.4202  0.1467  0.1881
29057SOL    HW190702   9.058   6.591   3.836 -0.1288 -0.5466  0.7967
29057SOL    HW290703   9.067   6.709   3.932 -1.0230  1.8478 -1.9245
29058SOL     OW90704   8.911   3.035   4.717 -0.1417 -0.4030  0.6431
29058SOL    HW190705   8.914   3.128   4.741  0.5710 -1.0155  3.2174
29058SOL    HW290706   9.003   3.008   4.719  0.0610 -0.5507 -3.2091
29059SOL     OW90707   9.083   0.824  10.762 -0.6560  0.1278  1.1436
29059SOL    HW190708   9.024   0.767  10.712  0.8099 -0.7469  0.3458
29059SOL    HW290709   9.166   0.820  10.715 -0.6907  3.6660  0.5287
29060SOL     OW90710   4.885   7.088  10.301 -0.3146  0.5626  0.3898
29060SOL    HW190711   4.972   7.050  10.314  0.7663  2.2337 -1.4213
29060SOL    HW290712   4.900   7.183  10.298 -1.9825  0.8381 -1.2644
29061SOL     OW90713   6.892   6.533  10.741 -0.4654  0.1028  0.1214
29061SOL    HW190714   6.965   6.504  10.687  0.1088 -0.6617  1.2722
29061SOL    HW290715   6.853   6.452  10.775 -1.8223  0.4949 -0.4190
29062SOL     OW90716   4.730   0.478   0.482  0.0684  0.3882  0.4581
29062SOL    HW190717   4.765   0.444   0.564 -0.3562 -0.0021  0.4806
29062SOL    HW290718   4.802   0.471   0.420  0.3419  0.5363  0.7593
29063SOL     OW90719   5.322   8.143   4.697  0.0675  0.0655  0.1775
29063SOL    HW190720   5.356   8.154   4.785 -1.8921  0.6209  0.9151
29063SOL    HW290721   5.364   8.063   4.665  1.3742  0.2627  1.3041
29064SOL     OW90722   1.760   9.079   7.407 -0.3820 -0.0922  0.0020
29064SOL    HW190723   1.702   9.032   7.347 -1.9707  0.3461  1.1226
29064SOL    HW290724   1.836   9.023   7.415  0.3834  0.2792 -3.1620
29065SOL     OW90725   8.649   0.975   8.296  0.4460 -0.2037 -0.1317
29065SOL    HW190726   8.698   1.021   8.363  0.2297 -1.5126  0.9718
29065SOL    HW290727   8.657   0.882   8.320 -0.9575 -0.5799 -1.0072
29066SOL     OW90728   7.809   2.618   7.676  0.2479  0.7241 -0.0543
29066SOL    HW190729   7.852   2.703   7.682 -0.4616  1.1747 -0.9799
29066SOL    HW290730   7.829   2.575   7.759  1.3528  1.4356  0.0758
29067SOL     OW90731  11.054   7.476   1.952  0.3088  0.0791 -0.1111
29067SOL    HW190732  11.120   7.489   1.885  0.1793 -0.0751 -0.2696
29067SOL    HW290733  11.090   7.517   2.030  0.1422  0.9138 -0.4610
29068SOL     OW90734   3.271   6.091  11.124 -0.2618  0.6266  0.4177
29068SOL    HW190735   3.348   6.077  11.068 -1.2311  0.9851 -1.0511
29068SOL    HW290736   3.196   6.073  11.068 -1.3485  3.1903  0.9217
29069SOL     OW90737   0.458   1.157   5.372  0.3302  0.2138 -0.4262
29069SOL    HW190738   0.550   1.131   5.362  0.2575  0.2684 -1.3052
29069SOL    HW290739   0.408   1.085   5.334 -0.0084  0.1408  0.1323
29070SOL     OW90740   3.358   8.465   5.697 -0.5166  0.1180  0.0714
29070SOL    HW190741   3.326   8.443   5.609 -1.1599 -0.8025  0.5249
29070SOL    HW290742   3.289   8.520   5.735 -1.4949 -1.6432  0.9489
29071SOL     OW90743   5.438   6.193   8.748 -0.0767  0.3763  0.1416
29071SOL    HW190744   5.504   6.181   8.817  0.9318 -0.0323 -0.8522
29071SOL    HW290745   5.472   6.141   8.675 -1.7840 -0.2642 -0.2329
29072SOL     OW90746   8.107   6.461   7.519 -0.2188  0.1154  0.5157
29072SOL    HW190747   8.059   6.492   7.442  1.6715  2.5628  0.1879
29072SOL    HW290748   8.077   6.518   7.590  1.8038  1.4480  0.3765
29073SOL     OW90749   2.230   7.228   9.007  0.3226  0.1070 -0.5843
29073SOL    HW190750   2.136   7.227   8.988  0.2181  1.5836 -0.2977
29073SOL    HW290751   2.272   7.201   8.925 -0.3520 -1.4919 -0.4473
29074SOL     OW90752   4.797   2.498  10.776  0.7812  0.1528 -0.5718
29074SOL    HW190753   4.829   2.508  10.866  0.6554 -0.7750 -0.4137
29074SOL    HW290754   4.859   2.549  10.723  1.5399 -0.2216 -0.0743
29075SOL     OW90755   5.358   2.081  10.531 -0.1718 -0.1376  0.5968
29075SOL    HW190756   5.302   2.157  10.543  0.5409  0.3352  1.0378
29075SOL    HW290757   5.447   2.114  10.546  0.1275 -1.1083  1.0622
29076SOL     OW90758   8.516   6.080   1.520  0.2101  0.0817  0.3422
29076SOL    HW190759   8.452   6.150   1.510 -0.5649 -0.8695 -2.2128
29076SOL    HW290760   8.498   6.042   1.605 -2.0072  0.4851  0.0959
29077SOL     OW90761   2.288   7.486   8.373 -0.4496  0.0405  0.0063
29077SOL    HW190762   2.322   7.571   8.400  1.8920 -0.3923 -1.3529
29077SOL    HW290763   2.267   7.497   8.280  0.7876 -1.1087 -0.4303
29078SOL     OW90764   3.845   3.842   2.636 -0.2412  0.0106 -0.6451
29078SOL    HW190765   3.922   3.824   2.581 -0.0122 -0.5294 -0.1518
29078SOL    HW290766   3.831   3.936   2.625 -0.9049 -0.2663 -2.5298
29079SOL     OW90767   2.904   8.672   7.644  0.1524 -0.3697  0.1072
29079SOL    HW190768   2.941   8.740   7.701 -0.1452 -0.0751 -0.0473
29079SOL    HW290769   2.943   8.591   7.676 -1.0010 -0.3881  1.5822
29080SOL     OW90770   0.794   0.524   4.437 -0.4684  0.1207 -0.4986
29080SOL    HW190771   0.840   0.569   4.366  0.1874 -0.8222 -0.6805
29080SOL    HW290772   0.849   0.537   4.514 -0.7738  0.4488 -0.3286
29081SOL     OW90773   2.474   0.947   1.483  0.5826  0.3022  0.5038
29081SOL    HW190774   2.380   0.937   1.489  0.4121  0.3071 -1.5006
29081SOL    HW290775   2.488   1.041   1.472  0.7344  0.1885 -0.3078
29082SOL     OW90776  10.860   1.890  10.837  0.5179  0.4110 -0.1164
29082SOL    HW190777  10.809   1.951  10.784  0.6663 -0.0901 -0.8722
29082SOL    HW290778  10.798   1.819  10.857  1.0767 -0.6040 -1.7320
29083SOL     OW90779   7.542   2.595   7.884  0.6250 -0.2282  0.0129
29083SOL    HW190780   7.513   2.629   7.969  1.9423 -1.0932  0.8329
29083SOL    HW290781   7.589   2.668   7.843  0.2042  0.1064  0.1095
29084SOL     OW90782   8.212   1.089   8.364  0.5994  0.1147 -0.3384
29084SOL    HW190783   8.139   1.045   8.409  2.7586 -0.5842  2.7855
29084SOL    HW290784   8.186   1.181   8.361 -0.8325 -0.2598 -0.2705
29085SOL     OW90785  10.984   6.344   4.127  0.2205 -0.7632  0.1208
29085SOL    HW190786  11.059   6.299   4.167  0.3560 -0.0978  0.6247
29085SOL    HW290787  11.022   6.397   4.057  0.5466  1.2299  1.7085
29086SOL     OW90788   1.210   8.252   0.094  0.1613  0.3438 -0.1351
29086SOL    HW190789   1.125   8.209   0.103 -0.1686  0.8644 -0.6967
29086SOL    HW290790   1.192   8.330   0.042  1.0023  0.4233 -0.3185
29087SOL     OW90791   5.372   0.132   3.493  0.3835 -0.0912  0.4474
29087SOL    HW190792   5.420   0.057   3.458 -0.6642 -0.4134 -0.3583
29087SOL    HW290793   5.292   0.136   3.441 -1.7120 -1.1166  3.3115
29088SOL     OW90794   6.771  10.433   4.948  0.0141 -0.4837  0.2774
29088SOL    HW190795   6.701  10.497   4.951  0.2016 -0.3092  1.7043
29088SOL    HW290796   6.748  10.375   4.875 -1.0993  0.1390  0.1169
29089SOL     OW90797   0.907   0.307   7.621 -0.0121  0.0135 -0.5457
29089SOL    HW190798   0.839   0.317   7.688  1.3025 -3.2036  1.4719
29089SOL    HW290799   0.862   0.266   7.547 -0.4296 -1.7315  0.6212
29090SOL     OW90800   7.957   2.936   7.683  0.3079 -0.2460  0.4442
29090SOL    HW190801   7.903   3.007   7.650  0.9181  0.0031 -0.0478
29090SOL    HW290802   8.026   2.925   7.617 -0.1515 -1.7360  0.1623
29091SOL     OW90803   1.384   2.954   2.204  0.0136 -0.8383  0.6375
29091SOL    HW190804   1.314   3.002   2.159  0.2779  0.2928  1.3959
29091SOL    HW290805   1.347   2.933   2.290  0.5107 -0.4506  0.9498
29092SOL     OW90806   1.247  10.934   3.727  0.6185 -0.9707 -0.9690
29092SOL    HW190807   1.175  10.901   3.674 -1.1194 -0.7276  1.1042
29092SOL    HW290808   1.206  10.967   3.806  2.9826 -0.3834  0.1210
29093SOL     OW90809   0.416   5.421   5.786  0.1599 -0.2006 -0.3001
29093SOL    HW190810   0.512   5.414   5.779  0.3453 -0.8233  1.9750
29093SOL    HW290811   0.383   5.356   5.724  1.2443 -0.6838 -0.4029
29094SOL     OW90812   7.391   3.864   7.080 -0.7222 -0.5513 -0.0223
29094SOL    HW190813   7.434   3.950   7.075 -1.8195  0.0630  0.6354
29094SOL    HW290814   7.421   3.827   7.162 -0.6543 -0.5691 -0.0552
29095SOL     OW90815   6.675   6.341   8.824 -0.2480  0.5911 -0.3312
29095SOL    HW190816   6.586   6.309   8.805  0.0724  0.2293 -1.2390
29095SOL    HW290817   6.708   6.280   8.890 -0.1505 -0.1510 -1.0518
29096SOL     OW90818  10.847   2.925   2.487  0.2611  0.4775  0.3077
29096SOL    HW190819  10.757   2.949   2.509  0.1517  0.3938 -0.0286
29096SOL    HW290820  10.839   2.881   2.402  0.4109 -0.9982  1.0204
29097SOL     OW90821   5.711   5.558   9.046  0.0301  0.3648 -0.3865
29097SOL    HW190822   5.622   5.594   9.039 -0.0241  0.5765  1.0678
29097SOL    HW290823   5.719   5.531   9.138  1.0821 -0.6982 -0.7680
29098SOL     OW90824   8.592  10.760   1.951  0.1544 -0.0978 -0.0651
29098SOL    HW190825   8.603  10.837   2.006 -0.4387  0.4199 -0.6471
29098SOL    HW290826   8.501  10.734   1.963  0.0683 -0.0903 -0.6334
29099SOL     OW90827   9.417   0.744   3.840  0.5353 -0.1386 -0.3612
29099SOL    HW190828   9.406   0.683   3.913 -0.8889 -0.2479 -0.6543
29099SOL    HW290829   9.332   0.745   3.796  1.2113  0.3365 -1.7087
29100SOL     OW90830   1.617   1.098   5.427 -0.0382  0.3113  0.1837
29100SOL    HW190831   1.628   1.003   5.426 -1.3696  0.1392 -0.5336
29100SOL    HW290832   1.704   1.132   5.450  1.1007 -0.9943 -1.8364
29101SOL     OW90833   8.574   6.834   7.640 -0.1671 -0.3625 -0.8090
29101SOL    HW190834   8.533   6.864   7.558  0.7687  2.1420 -0.4443
29101SOL    HW290835   8.641   6.772   7.611 -1.4064 -1.3332 -1.7213
29102SOL     OW90836   4.464   4.062   7.848  0.4053 -0.3562 -0.1443
29102SOL    HW190837   4.494   4.077   7.758  0.3540 -0.6518 -0.2136
29102SOL    HW290838   4.524   3.996   7.882  0.0045 -0.7574 -0.1952
29103SOL     OW90839   0.143   9.008   2.169 -0.4177 -0.0056 -0.4322
29103SOL    HW190840   0.149   9.021   2.075 -1.2039 -3.1964 -1.0185
29103SOL    HW290841   0.221   8.956   2.192 -0.6764  0.0043  0.5361
29104SOL     OW90842   7.253   6.053   5.765  0.4967  0.1661  0.0024
29104SOL    HW190843   7.312   6.096   5.827  0.8057  0.4617 -0.4953
29104SOL    HW290844   7.243   5.964   5.799 -2.1879  1.2563  2.5325
29105SOL     OW90845   6.094   8.727   9.881  0.1023 -0.2285  0.4692
29105SOL    HW190846   6.179   8.761   9.908  0.0662  0.6607 -0.4733
29105SOL    HW290847   6.041   8.729   9.961 -0.0711  2.5212  0.3924
29106SOL     OW90848   0.881   9.797   8.287  0.4822  0.1407 -0.2215
29106SOL    HW190849   0.910   9.886   8.264  3.8642 -0.8368 -0.1251
29106SOL    HW290850   0.904   9.788   8.379 -1.6444 -0.2453  0.3192
29107SOL     OW90851   9.134   7.164   4.006 -0.1064 -0.3318 -0.8765
29107SOL    HW190852   9.105   7.253   3.988  0.8241  0.0924 -0.3499
29107SOL    HW290853   9.140   7.123   3.919  0.8232  0.5633 -1.2616
29108SOL     OW90854   7.833   2.772   8.891  0.1793 -0.1349 -0.0620
29108SOL    HW190855   7.819   2.693   8.839  1.0110 -1.1939  1.2406
29108SOL    HW290856   7.923   2.798   8.871  0.5389 -0.6097  0.8906
29109SOL     OW90857   6.046  10.617   1.844  0.3242 -0.6284 -0.0811
29109SOL    HW190858   5.981  10.649   1.906  0.7258  1.5500 -0.6928
29109SOL    HW290859   5.996  10.598   1.764  0.4043  1.2187 -0.6114
29110SOL     OW90860   6.299   5.623   4.820  0.2157 -0.6245  0.3403
29110SOL    HW190861   6.381   5.664   4.791  1.1426 -1.3899  1.7972
29110SOL    HW290862   6.303   5.534   4.786  1.4723 -1.6451  2.9260
29111SOL     OW90863   3.795   1.786   7.640 -0.6025  0.2538 -0.4425
29111SOL    HW190864   3.824   1.841   7.713  1.1506 -1.2465  0.0584
29111SOL    HW290865   3.719   1.739   7.674 -0.7878  0.7635 -0.1466
29112SOL     OW90866   5.906   5.843   7.666  0.1375 -0.1289  0.1689
29112SOL    HW190867   5.849   5.841   7.743 -1.6827  2.1604 -0.9867
29112SOL    HW290868   5.852   5.806   7.596  2.0887 -3.0886  0.0582
29113SOL     OW90869   0.212   7.654   0.204 -0.2730  0.1608  0.5072
29113SOL    HW190870   0.121   7.670   0.178 -0.1378 -0.6262 -0.5206
29113SOL    HW290871   0.248   7.742   0.216 -0.6175  0.5673 -1.1210
29114SOL     OW90872  10.120   6.481   3.326 -0.3587 -0.1480 -0.1517
29114SOL    HW190873  10.192   6.418   3.324  0.8798  1.1964  0.1755
29114SOL    HW290874  10.045   6.431   3.356  0.7424 -1.3177  0.7528
29115SOL     OW90875   4.973   9.830   0.200  0.4546 -0.0872  0.7759
29115SOL    HW190876   5.013   9.838   0.113  0.4068  1.0193  0.8483
29115SOL    HW290877   5.005   9.746   0.233  0.0522 -0.7769 -0.5202
29116SOL     OW90878   0.582   6.860   2.259 -0.5924 -0.3540 -0.1538
29116SOL    HW190879   0.512   6.921   2.234  0.3690  0.7329 -0.2947
29116SOL    HW290880   0.582   6.861   2.355 -0.1133  0.4504 -0.1530
29117SOL     OW90881   2.278   1.902   0.411 -0.2419  0.3440  0.3336
29117SOL    HW190882   2.222   1.828   0.437 -0.3788  0.7445  1.2083
29117SOL    HW290883   2.355   1.894   0.467 -0.1967  0.7857  0.3340
29118SOL     OW90884   2.849   1.283  10.988  0.2227  0.4551  0.1109
29118SOL    HW190885   2.876   1.289  10.897  1.0750  1.0913  0.3976
29118SOL    HW290886   2.815   1.370  11.009 -0.7934  0.0660  0.1611
29119SOL     OW90887   6.132   3.165   3.450 -0.4306 -0.1842 -0.3661
29119SOL    HW190888   6.122   3.105   3.524 -2.1117  0.7063  0.1653
29119SOL    HW290889   6.218   3.205   3.463  0.7764 -2.4395 -0.7625
29120SOL     OW90890   0.388  10.128   4.967  0.0420 -0.0352 -0.1004
29120SOL    HW190891   0.366  10.091   4.881 -0.1732 -2.2394  0.8461
29120SOL    HW290892   0.303  10.143   5.008  0.1640  0.1129  0.0956
29121SOL     OW90893   1.162   2.095   7.158  0.6802 -0.1835  0.0558
29121SOL    HW190894   1.163   2.186   7.130  0.8055 -0.2578 -0.1779
29121SOL    HW290895   1.076   2.084   7.200  0.8076  0.1364  0.4021
29122SOL     OW90896   9.487   8.816  10.255 -0.9294 -0.1006  0.1493
29122SOL    HW190897   9.511   8.841  10.345  0.9923 -0.4139 -0.2292
29122SOL    HW290898   9.449   8.896  10.218 -1.8978 -0.0093  1.2642
29123SOL     OW90899   4.165  11.122   0.494  0.3769 -0.5432  0.1735
29123SOL    HW190900   4.174  11.206   0.538 -3.4914 -0.3137  0.8604
29123SOL    HW290901   4.123  11.065   0.559 -0.9202 -1.6922 -1.5669
29124SOL     OW90902   9.928   7.803   9.051 -0.1072  0.5271 -0.5191
29124SOL    HW190903   9.956   7.871   8.989  0.8038 -0.3772 -1.1252
29124SOL    HW290904   9.974   7.725   9.023  0.6776  0.1886  1.5895
29125SOL     OW90905   4.988  10.683   6.606  0.2302  0.0254 -0.2638
29125SOL    HW190906   4.991  10.596   6.565  1.2578  0.2472 -0.6992
29125SOL    HW290907   5.073  10.722   6.585  0.1408  0.7808  0.7104
29126SOL     OW90908   8.045   3.652   6.166  0.5212 -0.7326 -0.4508
29126SOL    HW190909   7.991   3.720   6.126 -0.6632 -0.5767  1.3335
29126SOL    HW290910   8.082   3.604   6.091  0.2793  0.9780 -1.7268
29127SOL     OW90911   7.808   9.809   6.512  0.0233  0.2740 -0.0672
29127SOL    HW190912   7.868   9.820   6.438 -0.8368  0.5390 -0.7459
29127SOL    HW290913   7.726   9.778   6.472 -0.9668  1.9303  0.5675
29128SOL     OW90914   6.145   7.737   7.373 -0.3390 -0.3589  0.2659
29128SOL    HW190915   6.213   7.697   7.318 -0.1386 -0.5640  0.6555
29128SOL    HW290916   6.082   7.773   7.311 -0.3099 -0.9190 -0.0985
29129SOL     OW90917   4.351   6.514   8.385 -0.4122 -0.4920 -0.1256
29129SOL    HW190918   4.259   6.541   8.377 -1.0253 -2.3412  0.1562
29129SOL    HW290919   4.373   6.528   8.477 -0.1322  0.6988 -0.3551
29130SOL     OW90920   7.023   8.463   3.001 -0.1702  0.0422 -0.0900
29130SOL    HW190921   7.080   8.388   3.016  2.6513  1.8684 -0.8444
29130SOL    HW290922   6.952   8.452   3.064  1.9113 -1.5373  2.1658
29131SOL     OW90923   4.794   8.204   2.382  0.2306 -0.3754 -0.3342
29131SOL    HW190924   4.877   8.241   2.352  0.1095 -0.3002 -0.5780
29131SOL    HW290925   4.728   8.268   2.356 -0.1137 -1.2853 -1.7937
29132SOL     OW90926   9.098   3.627   3.196  0.1084  0.6868  0.0685
29132SOL    HW190927   9.115   3.720   3.213 -1.0747  1.3291 -1.9221
29132SOL    HW290928   9.044   3.627   3.117  1.1397 -1.7541 -0.7262
29133SOL     OW90929   9.804   3.493   6.794 -0.5737 -0.1395  0.4656
29133SOL    HW190930   9.721   3.475   6.749 -0.3944 -0.9434  0.4434
29133SOL    HW290931   9.792   3.580   6.831 -1.5257 -0.3313  0.6505
29134SOL     OW90932   0.958   5.531   3.898 -0.5109 -0.2717 -0.1611
29134SOL    HW190933   1.012   5.610   3.902  0.5093 -0.9823  0.3681
29134SOL    HW290934   0.988   5.486   3.819 -1.8041  0.3438 -1.0460
29135SOL     OW90935   4.003   8.850   2.582 -0.2029 -0.3389 -0.0652
29135SOL    HW190936   3.919   8.893   2.563 -0.5017 -0.6906  0.4427
29135SOL    HW290937   4.043   8.906   2.649  0.2894  0.2118 -0.8023
29136SOL     OW90938   0.475   6.240   6.398  0.8854 -0.6783 -0.4811
29136SOL    HW190939   0.509   6.153   6.419  0.3599 -0.2562  2.6359
29136SOL    HW290940   0.417   6.226   6.323  3.2348 -2.3896 -2.1057
29137SOL     OW90941   0.180   0.287   7.687 -0.3962 -0.6265 -0.4369
29137SOL    HW190942   0.247   0.235   7.731 -0.3661 -0.0371  0.2208
29137SOL    HW290943   0.098   0.258   7.726 -0.5799 -1.6272 -1.5176
29138SOL     OW90944   2.803   1.976   6.109  0.2713  0.2915 -0.0567
29138SOL    HW190945   2.761   1.987   6.194  0.3313  2.7470 -0.2823
29138SOL    HW290946   2.879   1.920   6.127 -0.9567 -1.0680  1.0549
29139SOL     OW90947   1.629   8.294   5.817 -0.2423  0.1387  0.5832
29139SOL    HW190948   1.687   8.370   5.809 -0.2010  0.0154 -0.4165
29139SOL    HW290949   1.651   8.255   5.902  1.4504 -0.1640  0.0237
29140SOL     OW90950   2.431   3.667   3.646  0.2329  0.2486 -0.3498
29140SOL    HW190951   2.510   3.650   3.696 -0.5948 -0.1608  0.8725
29140SOL    HW290952   2.435   3.605   3.573  1.5533  0.9919 -0.9445
29141SOL     OW90953   5.941   4.902   3.928  0.2174 -0.4354 -0.4210
29141SOL    HW190954   5.996   4.971   3.891  0.9359 -0.7404  0.0693
29141SOL    HW290955   5.942   4.832   3.864 -1.5170  0.4539 -1.5124
29142SOL     OW90956   8.246   7.052   7.854  0.4105 -0.0795 -0.5481
29142SOL    HW190957   8.267   7.092   7.769 -1.3207 -2.2911 -2.1220
29142SOL    HW290958   8.314   6.985   7.866  0.7543  0.3451 -0.0643
29143SOL     OW90959   7.722   7.202   6.223  0.0762 -0.2392  0.0835
29143SOL    HW190960   7.725   7.214   6.318  0.2133 -2.0152  0.3311
29143SOL    HW290961   7.635   7.165   6.207 -0.3574  1.0371 -0.6277
29144SOL     OW90962   2.584   2.975   7.698  0.5954 -0.0304  0.2926
29144SOL    HW190963   2.647   3.038   7.664  1.5205 -1.1191 -0.0858
29144SOL    HW290964   2.501   3.022   7.699  0.4172  0.0942 -3.6896
29145SOL     OW90965   4.650  10.103   5.172  0.5140  0.2712 -0.3786
29145SOL    HW190966   4.707  10.165   5.127  0.4032  1.0491  0.5308
29145SOL    HW290967   4.627  10.146   5.254  1.4979 -1.5090  0.8992
29146SOL     OW90968   8.650   7.937   9.099 -0.1587 -0.0741  0.5968
29146SOL    HW190969   8.735   7.935   9.056 -0.4986 -2.8707 -0.1649
29146SOL    HW290970   8.661   7.880   9.175 -1.4632 -0.9257  0.1799
29147SOL     OW90971   7.119   3.042   1.731 -0.4925  0.4482  0.4615
29147SOL    HW190972   7.168   3.123   1.716  0.2404  0.1532  1.2099
29147SOL    HW290973   7.163   2.977   1.676 -1.9131  0.8159 -1.2139
29148SOL     OW90974  10.869   5.264   3.403 -0.3377 -0.0511 -0.2150
29148SOL    HW190975  10.959   5.246   3.432 -0.4079  1.3058  0.9990
29148SOL    HW290976  10.817   5.193   3.440  0.0309  0.0213  0.4713
29149SOL     OW90977   9.425   0.152   6.013  0.2071 -0.6282 -0.1010
29149SOL    HW190978   9.357   0.099   6.054  0.8723 -2.1643 -0.8874
29149SOL    HW290979   9.448   0.218   6.078 -0.6902 -1.2720  0.8861
29150SOL     OW90980   3.100   0.821   4.395  0.1941  0.1323 -0.6116
29150SOL    HW190981   3.095   0.911   4.429 -3.5744 -0.0986 -0.0971
29150SOL    HW290982   3.058   0.825   4.310  0.7993 -1.0099 -0.9840
29151SOL     OW90983   0.999   8.108  11.036  0.3158  0.3382  0.1986
29151SOL    HW190984   1.045   8.025  11.019 -0.5672 -0.2765  0.7493
29151SOL    HW290985   1.062   8.175  11.009  1.9223 -0.4472  1.7402
29152SOL     OW90986   4.314   5.794   0.704  0.5562  0.3625  0.4298
29152SOL    HW190987   4.225   5.804   0.670  0.4472 -1.7596 -0.0752
29152SOL    HW290988   4.358   5.875   0.681 -0.4325  0.3078 -1.9730
29153SOL     OW90989   9.104  10.184   0.028  0.2862  0.1496 -0.6809
29153SOL    HW190990   9.048  10.118  -0.013  1.1717 -1.2117  0.2010
29153SOL    HW290991   9.192  10.165  -0.006  0.6765  0.3579  0.1871
29154SOL     OW90992   3.757   2.785   1.213 -0.4923  0.1711 -0.8580
29154SOL    HW190993   3.810   2.819   1.285 -0.9828  1.0463 -0.8807
29154SOL    HW290994   3.743   2.693   1.234  1.2515 -0.1563 -1.0059
29155SOL     OW90995   7.092  10.186   2.049 -0.1018  0.2364 -0.3423
29155SOL    HW190996   7.126  10.163   1.963  1.2554 -2.8115  0.8716
29155SOL    HW290997   7.169  10.206   2.101 -0.7994  0.8312  0.4882
29156SOL     OW90998   0.878   8.555   5.984 -0.1755 -0.1119  0.6563
29156SOL    HW190999   0.924   8.617   6.041 -0.4815 -0.4032  1.2353
29156SOL    HW291000   0.908   8.468   6.013  1.0537 -0.2255 -0.8431
29157SOL     OW91001   2.361   9.857   3.091  0.3888  0.1027  1.0563
29157SOL    HW191002   2.311   9.793   3.142 -1.8530  0.6312 -0.3336
29157SOL    HW291003   2.420   9.803   3.037 -0.0711 -0.6722  1.3088
29158SOL     OW91004   7.046  10.448   0.831 -0.5600 -0.1857  0.1196
29158SOL    HW191005   7.011  10.360   0.846  0.8786 -0.7086  0.5427
29158SOL    HW291006   7.016  10.471   0.743 -1.2288 -0.9631  0.1386
29159SOL     OW91007   2.249   1.040   6.751 -0.0014 -0.1313 -0.1363
29159SOL    HW191008   2.235   1.085   6.834 -0.0526 -1.6145  0.7052
29159SOL    HW291009   2.342   1.018   6.751 -0.2068 -1.0869  0.0763
29160SOL     OW91010  10.798   0.294   4.035  0.1381 -0.0685 -0.2096
29160SOL    HW191011  10.763   0.272   4.122  1.9012  2.1676  1.1656
29160SOL    HW291012  10.875   0.238   4.025  1.0015  0.9609  0.5186
29161SOL     OW91013   2.038   9.627   0.109  0.0404 -0.2907  0.1847
29161SOL    HW191014   1.950   9.603   0.140  0.8418 -1.5485  1.5685
29161SOL    HW291015   2.025   9.647   0.016 -2.0877  1.6442  0.7915
29162SOL     OW91016   4.324   7.442   8.928  0.3290 -0.4585  0.3758
29162SOL    HW191017   4.351   7.362   8.972  0.7028  0.6523  2.2757
29162SOL    HW291018   4.234   7.426   8.902  0.2995 -1.3839  1.0006
29163SOL     OW91019  11.101   7.723   0.869 -0.7320  0.4565 -0.1203
29163SOL    HW191020  11.013   7.688   0.878 -0.7620  0.2548 -1.0619
29163SOL    HW291021  11.118   7.722   0.775  0.1614  0.7751  0.0217
29164SOL     OW91022   0.255   7.066   0.568 -0.3869  0.1296  0.2927
29164SOL    HW191023   0.194   7.103   0.504 -0.3603  1.2052  0.8747
29164SOL    HW291024   0.323   7.025   0.515 -0.1593  1.3403 -0.3948
29165SOL     OW91025   9.856   6.958   4.062 -0.3172  0.1404 -0.1812
29165SOL    HW191026   9.866   7.048   4.096  0.7011  0.2948 -0.8510
29165SOL    HW291027   9.820   6.969   3.975  2.3354  0.1146 -1.3852
29166SOL     OW91028   4.003   3.892   4.419 -0.0782  0.6924  0.2953
29166SOL    HW191029   4.064   3.911   4.490 -0.2372 -0.8946  0.9176
29166SOL    HW291030   3.968   3.977   4.393 -0.6000  1.2751  2.6466
29167SOL     OW91031   1.961   0.098   6.294 -0.5523 -0.4347  0.3867
29167SOL    HW191032   2.028   0.053   6.346 -1.5692  1.2941  3.4629
29167SOL    HW291033   1.906   0.142   6.359 -2.6741  0.9932 -2.1729
29168SOL     OW91034   7.403   0.812   0.967  0.6471 -0.1666 -0.4066
29168SOL    HW191035   7.324   0.829   1.018  0.7975  0.3211 -0.3289
29168SOL    HW291036   7.373   0.805   0.877  0.6979  1.6039 -0.5914
29169SOL     OW91037  10.237   5.039   7.912 -0.4459  0.4521  0.3901
29169SOL    HW191038  10.145   5.046   7.886 -0.2950 -1.5636 -0.9791
29169SOL    HW291039  10.284   5.089   7.845 -0.4031 -0.7825 -0.5503
29170SOL     OW91040   0.981   1.391   1.677  0.6832  1.0406  0.1546
29170SOL    HW191041   0.956   1.442   1.599 -1.4760  0.0200  0.1239
29170SOL    HW291042   0.913   1.410   1.741  1.8905  1.0600  1.4745
29171SOL     OW91043   2.143   7.737  10.047 -0.1449 -0.0065 -0.0617
29171SOL    HW191044   2.182   7.651  10.064  0.9232  0.1957 -1.2992
29171SOL    HW291045   2.053   7.728  10.076  0.5487 -0.7849  2.0772
29172SOL     OW91046   1.432   6.705   5.009 -0.0551 -0.0960  0.2323
29172SOL    HW191047   1.488   6.631   5.034  1.0385 -0.1653 -2.1539
29172SOL    HW291048   1.470   6.780   5.055 -0.5351 -0.7919  1.8440
29173SOL     OW91049   6.538  11.115   3.117  0.4522 -0.0387 -0.4621
29173SOL    HW191050   6.620  11.156   3.091  1.6109 -2.5076 -1.0018
29173SOL    HW291051   6.534  11.127   3.212  1.4990  0.0134 -0.4121
29174SOL     OW91052   1.983   5.677   2.619 -0.5463  0.3558  0.5886
29174SOL    HW191053   2.063   5.699   2.571 -1.2648 -1.5339 -1.6643
29174SOL    HW291054   1.983   5.582   2.624 -2.0926  0.3664  1.6116
29175SOL     OW91055   6.022  10.839  10.812  0.1520  0.2177 -0.1359
29175SOL    HW191056   6.085  10.770  10.831  1.4273  1.3666  0.0191
29175SOL    HW291057   6.010  10.884  10.896 -1.5083 -0.4680  0.0128
29176SOL     OW91058   7.885   8.634   6.268  0.0184 -0.0020 -0.2033
29176SOL    HW191059   7.809   8.689   6.246 -0.8043 -0.5672  1.1297
29176SOL    HW291060   7.932   8.684   6.334  0.7430  0.2748 -0.9158
29177SOL     OW91061   6.574   6.018   1.238  0.7369  1.0983  0.2294
29177SOL    HW191062   6.588   6.103   1.197  2.3462  0.6880 -0.1487
29177SOL    HW291063   6.658   5.974   1.231  0.3557  0.0462  1.7804
29178SOL     OW91064   1.125   3.019   0.958  0.4262 -0.0085  0.1652
29178SOL    HW191065   1.163   2.949   1.011  0.1098 -0.2935  0.0192
29178SOL    HW291066   1.157   3.002   0.869 -1.3933 -1.2803 -0.3130
29179SOL     OW91067   0.124   4.706  10.423 -0.6572  0.3759 -0.4587
29179SOL    HW191068   0.173   4.657  10.489  2.4142  0.9011 -2.1598
29179SOL    HW291069   0.047   4.652  10.406 -0.8123 -0.4772  2.4345
29180SOL     OW91070   7.977   7.241  10.617  0.4910 -0.4650 -0.1275
29180SOL    HW191071   7.923   7.315  10.590 -0.7653 -1.0753  0.6017
29180SOL    HW291072   8.063   7.259  10.580  0.0002  0.9450 -0.6488
29181SOL     OW91073   6.156  11.061   5.384  0.2509  0.1031 -0.3700
29181SOL    HW191074   6.072  11.105   5.375  0.4331  0.5685  0.1710
29181SOL    HW291075   6.206  11.116   5.444  0.0557 -1.4488  1.3146
29182SOL     OW91076   8.289   7.630   0.113  0.1964 -0.5463  0.0630
29182SOL    HW191077   8.357   7.687   0.149  0.5178 -2.2936  2.4981
29182SOL    HW291078   8.321   7.608   0.026  1.4975  0.6780  0.1912
29183SOL     OW91079  11.023   5.263   9.330  0.0741  0.6268  0.2480
29183SOL    HW191080  11.107   5.222   9.309 -0.0285 -0.9902  2.5738
29183SOL    HW291081  10.988   5.210   9.401 -2.2203  2.2007  0.4031
29184SOL     OW91082   4.106   9.168  10.255 -0.6236 -0.2685 -0.1522
29184SOL    HW191083   4.017   9.200  10.273 -0.4339  0.5231 -0.5769
29184SOL    HW291084   4.094   9.077  10.230 -1.1455 -0.6776  1.4774
29185SOL     OW91085   4.976  10.184   5.848 -0.0892 -0.0896  0.4285
29185SOL    HW191086   4.898  10.204   5.796  0.2555  0.5827  0.1574
29185SOL    HW291087   5.005  10.269   5.882 -0.1430 -0.4829  1.4920
29186SOL     OW91088   2.081   8.355   5.161  0.5018  0.2064 -0.0686
29186SOL    HW191089   2.059   8.333   5.251  0.4011 -0.2088 -0.1905
29186SOL    HW291090   2.095   8.450   5.161  1.1145  0.1220  0.5088
29187SOL     OW91091   8.981   9.962   9.662  0.0296 -0.2658  0.1790
29187SOL    HW191092   8.961  10.048   9.698  1.2996 -0.1831  0.7471
29187SOL    HW291093   8.913   9.947   9.596 -0.3908  1.0310  0.2897
29188SOL     OW91094   4.537   4.951   6.428 -0.0108 -0.6618 -0.1329
29188SOL    HW191095   4.511   4.879   6.371 -2.7435  0.5327 -0.5351
29188SOL    HW291096   4.545   5.027   6.369 -1.1369  0.2046  0.7810
29189SOL     OW91097   0.469   8.772   5.268 -0.0182  0.3388 -0.2273
29189SOL    HW191098   0.375   8.763   5.286  0.0050  2.0010  0.9219
29189SOL    HW291099   0.511   8.740   5.348  0.1956  4.0054  1.3352
29190SOL     OW91100   0.551   5.284   9.565  0.0026  0.3384  0.6075
29190SOL    HW191101   0.610   5.258   9.494  0.5795 -0.8138  1.4790
29190SOL    HW291102   0.465   5.254   9.536  0.1595  0.2441  0.2258
29191SOL     OW91103   5.109   0.632  11.107 -0.1935 -0.3130 -0.3067
29191SOL    HW191104   5.198   0.668  11.098 -0.6057  0.5230 -1.2300
29191SOL    HW291105   5.122   0.547  11.149  0.8746  0.6019  1.3482
29192SOL     OW91106   3.402   0.558   2.301  0.4468  0.4193 -0.9212
29192SOL    HW191107   3.333   0.554   2.366  0.4806 -2.4661 -0.9442
29192SOL    HW291108   3.357   0.574   2.218  0.1664  1.6798 -0.5398
29193SOL     OW91109   4.453   2.909  11.107 -0.2134 -0.5974  0.1188
29193SOL    HW191110   4.548   2.898  11.110 -0.0022  1.0230  0.3319
29193SOL    HW291111   4.433   2.916  11.014 -0.0407 -0.3643  0.0973
29194SOL     OW91112   9.492   3.702   4.532 -0.3832  0.2747 -0.3067
29194SOL    HW191113   9.461   3.779   4.486  3.1919  1.0799 -1.7392
29194SOL    HW291114   9.530   3.736   4.614  2.6658  0.4474 -1.6628
29195SOL     OW91115   8.599  10.319   1.201  0.1418  0.5923 -0.1955
29195SOL    HW191116   8.560  10.259   1.136  2.5872  0.8506 -2.0512
29195SOL    HW291117   8.595  10.405   1.159 -0.3173  1.1909  1.0330
29196SOL     OW91118   4.577   1.109   9.622  0.2082  0.2966  0.7594
29196SOL    HW191119   4.493   1.067   9.636 -0.0763  0.6792  0.2254
29196SOL    HW291120   4.571   1.147   9.534 -0.0128  2.4945  1.6593
29197SOL     OW91121   7.667   2.505   4.612 -0.1287 -0.4150 -0.3807
29197SOL    HW191122   7.668   2.444   4.686  0.8111  0.5676  0.4512
29197SOL    HW291123   7.580   2.545   4.617  0.1003  0.0067  0.5229
29198SOL     OW91124  10.935   3.281   4.103 -0.1820  0.0319 -0.0775
29198SOL    HW191125  10.856   3.324   4.069  0.2175  1.2805  0.5151
29198SOL    HW291126  10.943   3.201   4.051 -2.5555 -0.7915  0.6860
29199SOL     OW91127   4.105   9.514  11.063  0.7424 -0.0665  0.2674
29199SOL    HW191128   4.014   9.512  11.033  1.0991  0.1550 -0.8683
29199SOL    HW291129   4.104   9.576  11.136 -0.1845 -0.7620  0.8754
29200SOL     OW91130   8.478   8.825   7.150  0.1269 -0.0084 -0.5207
29200SOL    HW191131   8.386   8.852   7.153  0.0794 -0.1685 -0.4840
29200SOL    HW291132   8.474   8.730   7.136  0.2931  0.2522 -2.6611
29201SOL     OW91133   7.266   1.353   7.608  0.3173 -0.0672  0.0203
29201SOL    HW191134   7.301   1.278   7.558  0.2027 -0.4357  0.4828
29201SOL    HW291135   7.302   1.341   7.696  0.7494  0.7341 -0.0358
29202SOL     OW91136  10.635   6.494   2.349  0.1254 -0.1373  0.5724
29202SOL    HW191137  10.655   6.524   2.260 -1.0511  1.2665  0.7484
29202SOL    HW291138  10.694   6.542   2.405 -1.1628  1.2746  0.7776
29203SOL     OW91139   2.459   6.388   1.831  0.5044  0.3389 -0.8079
29203SOL    HW191140   2.462   6.397   1.926 -1.8366  0.1552 -0.6569
29203SOL    HW291141   2.438   6.296   1.817  1.9248  0.1136 -1.5641
29204SOL     OW91142   5.338   0.142   4.203  0.1662  0.1817  0.2334
29204SOL    HW191143   5.375   0.069   4.153 -1.2475 -0.3039 -0.1564
29204SOL    HW291144   5.388   0.144   4.284 -0.0913 -1.5729  0.4841
29205SOL     OW91145   5.354   9.602   3.823  0.2387  0.1881  0.4452
29205SOL    HW191146   5.430   9.604   3.764  0.9017 -2.0422  1.1282
29205SOL    HW291147   5.283   9.640   3.771  0.8193 -1.5845 -1.8360
29206SOL     OW91148   5.029   0.767   2.925 -0.3188  0.8472 -0.2711
29206SOL    HW191149   4.968   0.796   2.857 -1.3455 -1.9827 -0.6889
29206SOL    HW291150   5.090   0.710   2.880 -0.0313  0.1902  0.9023
29207SOL     OW91151   5.215   8.937   0.367  0.2319  0.0811  0.5368
29207SOL    HW191152   5.161   8.978   0.299 -0.0197 -1.4093 -0.2232
29207SOL    HW291153   5.235   8.850   0.331  2.0781  0.1279  1.3623
29208SOL     OW91154   8.139   4.536   1.929  0.2913 -0.0288  0.2365
29208SOL    HW191155   8.118   4.453   1.887 -1.5180 -0.4237  1.7996
29208SOL    HW291156   8.055   4.569   1.961  0.9563  2.4375 -0.3562
29209SOL     OW91157   9.152   7.685   1.609  0.0783 -0.7865 -0.0940
29209SOL    HW191158   9.057   7.674   1.610  0.0154 -0.3523  1.7255
29209SOL    HW291159   9.186   7.596   1.624 -0.0486 -0.8486 -0.1687
29210SOL     OW91160   8.570   7.478   9.790 -0.0068  0.0158  0.1385
29210SOL    HW191161   8.500   7.435   9.740 -0.3960  1.3595 -0.5163
29210SOL    HW291162   8.555   7.451   9.880 -0.8943 -0.3499 -0.1051
29211SOL     OW91163   0.545   7.981   5.275 -0.2346  0.2248  0.1671
29211SOL    HW191164   0.557   7.904   5.331 -0.6350  0.0898  0.0680
29211SOL    HW291165   0.560   7.948   5.187  0.8889  0.5436  0.2259
29212SOL     OW91166   9.118   9.999   0.751  1.1765  0.2216  0.4541
29212SOL    HW191167   9.132  10.012   0.657  1.8865 -1.7233  0.2541
29212SOL    HW291168   9.089  10.085   0.782  0.1782  0.7218 -1.6556
29213SOL     OW91169   2.294   7.720   8.583  0.1867 -0.1327  0.2121
29213SOL    HW191170   2.228   7.711   8.651  0.0959  1.2205  0.3181
29213SOL    HW291171   2.283   7.809   8.549 -0.1017 -0.9046 -1.9188
29214SOL     OW91172   8.677   9.324   4.594 -0.6040 -0.1661  0.5083
29214SOL    HW191173   8.758   9.289   4.559 -0.3935 -0.7104  1.5220
29214SOL    HW291174   8.645   9.383   4.525  0.1769 -0.6337 -0.2693
29215SOL     OW91175   7.338   1.534   6.149 -0.1074 -0.0477 -0.3930
29215SOL    HW191176   7.348   1.480   6.071  0.9898 -2.3427  1.2173
29215SOL    HW291177   7.422   1.577   6.159 -0.5853  1.0557 -1.0106
29216SOL     OW91178   1.899   7.534   1.396 -0.1855 -0.4697 -0.1494
29216SOL    HW191179   1.932   7.516   1.484 -0.2629  1.3794  0.2921
29216SOL    HW291180   1.961   7.489   1.338 -0.2154 -1.8288  0.8213
29217SOL     OW91181   6.379   1.877   4.369  0.0851  0.2113  0.5790
29217SOL    HW191182   6.437   1.833   4.432  1.0003  1.6741  0.8073
29217SOL    HW291183   6.301   1.900   4.420  0.4226  0.5509  0.9482
29218SOL     OW91184   4.428   7.627   0.819  0.0234  0.8907 -0.7586
29218SOL    HW191185   4.409   7.652   0.729 -0.2538 -1.2801 -1.3610
29218SOL    HW291186   4.420   7.708   0.869 -2.2727  1.7038 -2.3076
29219SOL     OW91187   9.740   4.800  11.116  0.8611  0.9551  0.2895
29219SOL    HW191188   9.793   4.739  11.168  0.8904  0.6689 -0.0698
29219SOL    HW291189   9.738   4.880  11.168  0.2067  0.4220  1.1136
29220SOL     OW91190   3.029   3.808   4.370  0.4811  0.3702  0.2839
29220SOL    HW191191   3.071   3.779   4.451 -0.1030 -3.2931 -0.5228
29220SOL    HW291192   2.970   3.736   4.347 -0.2830  1.8101 -2.7658
29221SOL     OW91193   0.284   3.356  10.609 -0.0635  0.3018  0.1722
29221SOL    HW191194   0.207   3.335  10.555  0.5176 -0.0023 -0.5530
29221SOL    HW291195   0.355   3.367  10.546  0.4645  0.7154  0.8292
29222SOL     OW91196   1.271   1.463   9.382 -0.0102 -0.3997  0.1536
29222SOL    HW191197   1.226   1.426   9.458  0.1652  1.7645  1.3947
29222SOL    HW291198   1.235   1.552   9.373  1.0698 -0.0661 -1.3581
29223SOL     OW91199   8.428   2.575   0.855 -0.4040  0.1441 -0.5764
29223SOL    HW191200   8.485   2.516   0.805 -1.3809 -1.3497 -0.0081
29223SOL    HW291201   8.474   2.588   0.938  0.9126  2.1080 -1.5510
29224SOL     OW91202   5.204   3.405   3.761 -0.1943 -0.1228 -0.4723
29224SOL    HW191203   5.163   3.319   3.752  0.6461 -0.5905  0.0634
29224SOL    HW291204   5.194   3.426   3.854  0.5534 -0.1335 -0.3877
29225SOL     OW91205   9.133  10.679   6.511  0.0055 -0.4135  0.2251
29225SOL    HW191206   9.204  10.630   6.552  0.0938  0.2938  0.9508
29225SOL    HW291207   9.161  10.689   6.420  0.6205 -0.5475  0.3929
29226SOL     OW91208   8.560   2.435   9.596  0.3761 -0.2937 -0.2564
29226SOL    HW191209   8.532   2.444   9.687  1.0576 -3.3144  0.3802
29226SOL    HW291210   8.523   2.511   9.552 -3.8025 -0.8752  1.6775
29227SOL     OW91211   5.091   0.600  10.417 -0.2579  0.1133  0.4875
29227SOL    HW191212   5.065   0.515  10.452 -0.4196  0.1313  0.4104
29227SOL    HW291213   5.009   0.644  10.396 -0.1428 -0.3430 -1.0089
29228SOL     OW91214   2.743   4.940   7.909 -0.4638 -0.0409  0.2162
29228SOL    HW191215   2.787   4.997   7.972 -0.0127  0.7900 -0.8263
29228SOL    HW291216   2.811   4.914   7.847 -0.2220 -3.1490  1.5659
29229SOL     OW91217  10.099   8.270   1.561 -0.5229  0.1928  0.3222
29229SOL    HW191218  10.172   8.332   1.566 -0.5943  0.1832  2.2968
29229SOL    HW291219  10.021   8.325   1.563 -0.5841  0.0976  0.5244
29230SOL     OW91220   2.963   3.264   8.875  0.0178 -0.7294  0.3987
29230SOL    HW191221   2.959   3.333   8.941 -1.4108 -0.2010 -0.1878
29230SOL    HW291222   2.877   3.266   8.834  0.7970 -1.1624 -1.3528
29231SOL     OW91223   6.568   5.138   3.518 -0.4919  0.3968 -0.1831
29231SOL    HW191224   6.586   5.176   3.432  0.2876 -0.1730 -0.2767
29231SOL    HW291225   6.637   5.072   3.531 -0.9441  0.0661  0.6231
29232SOL     OW91226  11.070   7.715   0.138  0.2164  0.1700 -0.0525
29232SOL    HW191227  11.079   7.695   0.044  0.5850  0.4331 -0.0786
29232SOL    HW291228  11.019   7.643   0.173 -0.8508  0.6015 -0.6517
29233SOL     OW91229   5.441   6.981   0.805  0.2419  1.1819 -0.8376
29233SOL    HW191230   5.382   6.911   0.779  0.8792 -0.5268  1.9094
29233SOL    HW291231   5.387   7.039   0.859  0.6360  0.4264  0.4258
29234SOL     OW91232   2.261   9.958   1.883  0.5312  0.4491  0.1339
29234SOL    HW191233   2.273   9.946   1.977  1.6551 -2.5474 -0.2665
29234SOL    HW291234   2.166   9.951   1.870  0.3375  1.2043  1.0545
29235SOL     OW91235   6.563  10.055   7.123 -0.1341 -0.4794  0.5004
29235SOL    HW191236   6.549  10.071   7.029 -0.1824  0.3173  0.6335
29235SOL    HW291237   6.564   9.960   7.131 -0.1677 -0.5593 -0.3062
29236SOL     OW91238   8.881   1.540   4.165  0.3967 -0.2550  0.7351
29236SOL    HW191239   8.833   1.622   4.176  2.6458  1.1891  0.3674
29236SOL    HW291240   8.966   1.566   4.130  0.6058 -2.9095 -0.9963
29237SOL     OW91241   8.297   6.878   1.761  0.2555  0.2265 -0.0770
29237SOL    HW191242   8.267   6.861   1.850 -1.8611 -2.4630 -1.1567
29237SOL    HW291243   8.346   6.799   1.737  1.8321  1.4105 -0.9403
29238SOL     OW91244   4.518   1.134   2.541  0.0756 -0.3840  0.2919
29238SOL    HW191245   4.482   1.091   2.463  1.3205 -1.1434  0.1181
29238SOL    HW291246   4.503   1.071   2.612 -0.2299 -0.0835  0.4977
29239SOL     OW91247   3.231   0.385   0.427  0.0999 -0.1375 -0.0889
29239SOL    HW191248   3.248   0.301   0.471 -0.1106  0.0300  0.3166
29239SOL    HW291249   3.195   0.441   0.496  1.3708  0.6772 -0.0569
29240SOL     OW91250   7.295   1.989   4.742 -0.1033  0.4465 -0.0320
29240SOL    HW191251   7.282   1.904   4.700  0.6494  0.5762 -0.5499
29240SOL    HW291252   7.349   1.969   4.819  0.0557  0.4598 -0.1416
29241SOL     OW91253  10.019   1.925   7.023 -0.4564  0.0626  0.1504
29241SOL    HW191254  10.058   1.912   7.109 -0.1831  1.3882  0.2548
29241SOL    HW291255  10.048   1.849   6.972 -0.2125 -0.4853  1.0729
29242SOL     OW91256  10.902   3.491   1.431 -0.2676 -0.1878 -0.0472
29242SOL    HW191257  10.807   3.502   1.436 -0.6948 -2.2199 -2.0351
29242SOL    HW291258  10.932   3.564   1.377 -0.3639  1.5140  2.0609
29243SOL     OW91259  10.753  11.010  10.439 -0.3050 -0.1582  0.0307
29243SOL    HW191260  10.735  11.088  10.387 -0.9214 -0.7457 -0.6617
29243SOL    HW291261  10.841  10.983  10.413 -0.6074 -0.4462 -0.7169
29244SOL     OW91262  10.201  10.059   3.852 -0.1685 -0.3095 -0.7500
29244SOL    HW191263  10.169  10.117   3.783 -1.2098  0.2693  0.1892
29244SOL    HW291264  10.170  10.099   3.933  2.7081  0.1730  0.2584
29245SOL     OW91265  10.496   3.100   3.955  0.4230  0.1502  0.0336
29245SOL    HW191266  10.440   3.178   3.958 -2.4767 -1.8148  1.3730
29245SOL    HW291267  10.522   3.093   3.864 -0.9133  1.5990 -0.5093
29246SOL     OW91268   7.150   9.126   1.920 -0.1502 -0.0854  0.0090
29246SOL    HW191269   7.191   9.090   1.842 -0.5444 -0.7450  0.0976
29246SOL    HW291270   7.221   9.130   1.985 -0.0889 -0.6549 -0.0198
29247SOL     OW91271   8.888   1.235   5.239  0.3100  0.5620  0.5029
29247SOL    HW191272   8.901   1.324   5.274  0.4644  0.7911 -0.1318
29247SOL    HW291273   8.807   1.241   5.188  0.1728  0.2658  0.6812
29248SOL     OW91274   0.974   8.221   8.477  0.9949 -0.3165 -0.4943
29248SOL    HW191275   0.947   8.143   8.525  1.5298  0.2469  0.7440
29248SOL    HW291276   1.007   8.187   8.393  0.5470 -1.3500 -0.2626
29249SOL     OW91277   5.550   0.934   7.274 -0.4914  0.2361  0.1273
29249SOL    HW191278   5.514   0.949   7.186 -1.3776  2.0822  0.7452
29249SOL    HW291279   5.599   1.013   7.294  0.5198 -0.5699  0.9329
29250SOL     OW91280   9.503   5.973   9.407  0.0405 -0.1976  0.3445
29250SOL    HW191281   9.532   5.882   9.415 -2.3885 -1.1275 -0.4761
29250SOL    HW291282   9.480   5.999   9.497 -0.8366 -0.9992  0.3648
29251SOL     OW91283   4.875   8.794   3.490  0.5310  0.8526  0.3885
29251SOL    HW191284   4.847   8.704   3.475  1.9931  0.5387 -0.6817
29251SOL    HW291285   4.969   8.794   3.471  0.3227  2.8934 -1.0451
29252SOL     OW91286   9.970   4.570   0.919 -0.2941 -0.0818  0.1492
29252SOL    HW191287   9.894   4.583   0.975  0.0676  0.5282  0.5057
29252SOL    HW291288  10.035   4.529   0.976 -0.6225 -1.3871 -0.3638
29253SOL     OW91289   0.597   1.112   3.498  0.1114 -0.7413  0.2548
29253SOL    HW191290   0.583   1.109   3.403  0.2085  1.4070  0.1282
29253SOL    HW291291   0.642   1.030   3.518  1.6217 -0.5030 -1.8351
29254SOL     OW91292   7.184  10.975  10.512 -0.2270 -1.2933  0.7376
29254SOL    HW191293   7.206  11.011  10.426 -0.2038 -1.3485  0.7204
29254SOL    HW291294   7.265  10.986  10.563 -1.0705  1.4793  1.6872
29255SOL     OW91295   2.185   6.291  10.928  0.2573 -0.2292  0.4741
29255SOL    HW191296   2.095   6.300  10.958  0.4085 -0.4530  0.9976
29255SOL    HW291297   2.177   6.257  10.839 -0.2251  1.5517 -0.2188
29256SOL     OW91298   7.095   5.782   0.139 -0.3211 -0.3295  0.2016
29256SOL    HW191299   7.097   5.752   0.230  2.2184  1.2271  0.7752
29256SOL    HW291300   7.181   5.758   0.104 -0.4910  0.8680 -1.1452
29257SOL     OW91301   0.465   1.601  10.625  0.6097  0.0168  0.2695
29257SOL    HW191302   0.451   1.530  10.688  1.3724 -1.1784 -0.8360
29257SOL    HW291303   0.396   1.588  10.560 -0.0027  1.0699  0.6899
29258SOL     OW91304   0.318   6.381  10.563 -0.3624  0.4933 -0.2296
29258SOL    HW191305   0.280   6.389  10.475 -2.0948  1.1642  0.5367
29258SOL    HW291306   0.291   6.461  10.608 -0.0360 -0.1338  1.1123
29259SOL     OW91307   0.587   5.850   0.380  0.0447  0.7488  0.3242
29259SOL    HW191308   0.514   5.817   0.328  0.0562  0.8292  0.2571
29259SOL    HW291309   0.576   5.945   0.379  0.0715  0.7527  0.4295
29260SOL     OW91310   7.462   5.862   1.380  0.4836  0.3853  0.2212
29260SOL    HW191311   7.548   5.876   1.420  0.5783 -1.7728  0.8897
29260SOL    HW291312   7.465   5.771   1.348 -1.9677 -0.1766  1.4071
29261SOL     OW91313   3.567   8.419   5.889  0.4594 -0.4915 -0.0955
29261SOL    HW191314   3.494   8.425   5.828 -0.1663 -1.5085  0.5409
29261SOL    HW291315   3.608   8.334   5.870  1.0830 -0.2195 -0.0026
29262SOL     OW91316   7.080   4.699   6.187  0.6948  0.1904 -0.2874
29262SOL    HW191317   7.080   4.690   6.283 -1.0949  3.0841  0.1178
29262SOL    HW291318   7.100   4.611   6.155  1.1637 -0.9412  2.7243
29263SOL     OW91319   7.281   9.517   1.848  0.4635  0.0475  0.3456
29263SOL    HW191320   7.190   9.534   1.826 -0.2260 -0.5441  2.4749
29263SOL    HW291321   7.322   9.604   1.847  0.3517  0.1423 -2.2842
29264SOL     OW91322   0.295   0.521   5.018 -0.0525  0.1250  0.5312
29264SOL    HW191323   0.333   0.504   5.104 -2.1842 -0.5126  1.4023
29264SOL    HW291324   0.205   0.489   5.024 -0.3725  0.3693 -1.8405
29265SOL     OW91325   2.643  10.798   7.248 -0.1592  0.3370  0.0011
29265SOL    HW191326   2.581  10.829   7.182 -1.4211  1.2613  1.5527
29265SOL    HW291327   2.657  10.706   7.226 -0.7691  0.5477 -1.3735
29266SOL     OW91328   9.742   6.675   3.157 -0.2300  0.1830  0.5363
29266SOL    HW191329   9.734   6.625   3.239  0.3178 -0.0554  0.4430
29266SOL    HW291330   9.834   6.700   3.153 -0.0274 -0.6880 -0.5195
29267SOL     OW91331   7.773   8.878   0.039 -0.4148  0.0655 -0.2328
29267SOL    HW191332   7.749   8.936  -0.033  0.3074  2.7461  1.5478
29267SOL    HW291333   7.710   8.806   0.034 -3.1501  2.3599 -0.9673
29268SOL     OW91334   8.148   3.883   2.046  0.0734  0.3746 -0.2421
29268SOL    HW191335   8.187   3.970   2.055  1.5496 -0.3044  0.0750
29268SOL    HW291336   8.151   3.865   1.952 -1.2563  1.1013 -0.4472
29269SOL     OW91337   9.655   9.836   6.277 -0.3349  0.3592 -0.1271
29269SOL    HW191338   9.653   9.763   6.215  0.7792  0.0317  0.2074
29269SOL    HW291339   9.583   9.893   6.248  0.3536  0.3916 -1.9506
29270SOL     OW91340   2.395   6.418   0.651  0.2446 -0.2463 -0.7310
29270SOL    HW191341   2.333   6.445   0.583  0.0682 -0.6777 -0.7482
29270SOL    HW291342   2.368   6.328   0.673 -0.8456  0.4904  1.1955
29271SOL     OW91343   1.960  10.680   9.179  0.0948  0.2833  0.5779
29271SOL    HW191344   1.937  10.589   9.159  0.1696  0.6797 -1.5581
29271SOL    HW291345   1.907  10.701   9.256 -0.5962 -1.2923  0.5833
29272SOL     OW91346   2.387   5.267  10.182  0.6784 -0.3952 -0.0312
29272SOL    HW191347   2.293   5.253  10.196  0.0465  1.6967 -1.7103
29272SOL    HW291348   2.395   5.362  10.172  2.7196 -0.6785 -1.5764
29273SOL     OW91349   3.896   3.321   9.823  0.1451 -0.1140 -0.6087
29273SOL    HW191350   3.866   3.399   9.777  0.4986  0.9550  0.8754
29273SOL    HW291351   3.836   3.251   9.796 -2.1263  1.3714  0.3357
29274SOL     OW91352   5.516   8.043   0.232 -0.4384 -0.1954  0.0553
29274SOL    HW191353   5.536   7.974   0.169 -0.9334  0.5888 -0.9813
29274SOL    HW291354   5.581   8.111   0.213  0.1752 -0.4255  1.2035
29275SOL     OW91355   5.842   9.860   7.043  0.6344  0.0569 -0.2068
29275SOL    HW191356   5.830   9.806   7.120  0.1571  0.5004  0.0358
29275SOL    HW291357   5.936   9.879   7.041  0.9282 -1.3058 -0.6684
29276SOL     OW91358   6.054   7.285   6.389  0.3158 -0.5113  0.2045
29276SOL    HW191359   6.100   7.317   6.466  1.3189  0.8944 -0.9197
29276SOL    HW291360   6.123   7.256   6.330 -0.1536  1.5934 -1.4967
29277SOL     OW91361   7.680   7.399   8.863  0.3774 -0.0981  0.3059
29277SOL    HW191362   7.658   7.422   8.953 -0.3040  2.3489 -0.4057
29277SOL    HW291363   7.681   7.483   8.817  0.9719 -1.2593 -1.9225
29278SOL     OW91364   7.629  10.139   4.416  0.4163 -0.5152  0.6167
29278SOL    HW191365   7.602  10.049   4.431  0.4741 -0.7346 -0.4809
29278SOL    HW291366   7.548  10.186   4.395  0.4959 -0.5301  0.2536
29279SOL     OW91367   2.598   3.528   4.512  0.0925 -0.5237 -0.3280
29279SOL    HW191368   2.596   3.443   4.467 -1.6426  0.3570 -2.0170
29279SOL    HW291369   2.507   3.543   4.539  0.5407  0.4221  0.7172
29280SOL     OW91370   6.831   4.894   4.023  0.1769  0.4209 -0.4592
29280SOL    HW191371   6.876   4.973   3.995 -0.4795  0.4950 -1.3420
29280SOL    HW291372   6.895   4.848   4.077  0.5123  1.6224  0.1985
29281SOL     OW91373   3.062   3.730   1.941  0.1742  0.4320 -0.0925
29281SOL    HW191374   2.986   3.671   1.940  0.5393 -0.0509  0.1868
29281SOL    HW291375   3.125   3.687   1.883  1.6566 -1.1090  2.4446
29282SOL     OW91376   7.334   9.832   2.734  0.3480 -0.0794  0.6629
29282SOL    HW191377   7.349   9.918   2.694  0.3255 -0.2519  0.2785
29282SOL    HW291378   7.422   9.801   2.757  0.4339 -0.3150  0.0370
29283SOL     OW91379   8.997   9.415   7.106 -0.1303  0.0189 -0.4737
29283SOL    HW191380   9.007   9.478   7.178  0.8134 -1.4980  0.7649
29283SOL    HW291381   8.978   9.470   7.030 -0.0462  1.7599  0.6951
29284SOL     OW91382  11.065   5.556   8.374 -0.1506 -0.1306  0.1647
29284SOL    HW191383  11.158   5.575   8.388  0.5861 -3.1446  0.0348
29284SOL    HW291384  11.056   5.551   8.279 -0.7819  1.4371  0.1216
29285SOL     OW91385   9.727   6.222   6.930  0.1280 -0.0547  0.8548
29285SOL    HW191386   9.646   6.264   6.902  1.2044 -0.4259 -3.7208
29285SOL    HW291387   9.743   6.155   6.863  4.4498  0.3588  1.2010
29286SOL     OW91388   3.116   3.363   6.930 -0.1451  0.6070  0.0369
29286SOL    HW191389   3.118   3.323   7.017 -0.4562  1.8730  0.6381
29286SOL    HW291390   3.141   3.454   6.944 -2.6158  1.5028 -0.7994
29287SOL     OW91391   0.399   9.132   0.124 -0.4216 -0.4617  0.2173
29287SOL    HW191392   0.473   9.101   0.177 -0.3614 -0.5128  0.1052
29287SOL    HW291393   0.387   9.223   0.151 -1.1952 -0.8470  1.2171
29288SOL     OW91394   1.972   3.916   6.750 -0.2398  0.4279  0.2408
29288SOL    HW191395   2.005   4.005   6.737 -0.3933  0.4376 -0.0922
29288SOL    HW291396   1.910   3.903   6.679  0.6351 -0.3611 -0.4046
29289SOL     OW91397   8.472   9.591   5.381 -0.2025 -0.0482  0.2355
29289SOL    HW191398   8.519   9.673   5.366 -0.7900  0.4280  0.9521
29289SOL    HW291399   8.534   9.523   5.352  0.7816  0.5796  0.8000
29290SOL     OW91400   8.333   5.698   4.481 -0.0828 -0.2085 -0.6667
29290SOL    HW191401   8.420   5.737   4.494 -1.3639  2.9964 -0.6485
29290SOL    HW291402   8.341   5.647   4.401  1.7683  0.2487 -0.8084
29291SOL     OW91403   5.903   9.479   1.422  0.3403  0.1208 -0.0831
29291SOL    HW191404   5.843   9.421   1.469 -0.1536  1.4669  0.9909
29291SOL    HW291405   5.887   9.459   1.329 -0.4173 -0.8472  0.2335
29292SOL     OW91406   3.319   3.846   1.354 -0.2959  0.0811  0.3148
29292SOL    HW191407   3.227   3.865   1.372 -0.8995 -2.5790  0.4397
29292SOL    HW291408   3.360   3.842   1.440 -0.2262  0.5615  0.3032
29293SOL     OW91409   8.318   0.016   3.460 -0.2808 -0.5273 -0.3243
29293SOL    HW191410   8.345   0.090   3.406 -0.0487  0.0128  0.5146
29293SOL    HW291411   8.291   0.055   3.544  3.3866 -1.5588  1.5597
29294SOL     OW91412   8.969   5.647   8.668 -0.1134  0.2869 -0.3680
29294SOL    HW191413   9.011   5.726   8.700  1.5798 -0.6636 -0.1005
29294SOL    HW291414   9.039   5.582   8.666 -1.3374 -1.0761 -1.0543
29295SOL     OW91415   5.571   3.075   1.372 -0.3503 -0.7239  0.2464
29295SOL    HW191416   5.626   3.140   1.416 -1.7938 -0.3186  1.5386
29295SOL    HW291417   5.564   3.003   1.434  1.4544 -2.3266 -1.2765
29296SOL     OW91418   0.157   2.414   7.157 -0.0924 -0.0255 -0.0122
29296SOL    HW191419   0.163   2.319   7.168  3.1409  0.1914  0.9958
29296SOL    HW291420   0.161   2.449   7.245 -0.6383  1.0873 -0.4150
29297SOL     OW91421   8.748   1.221  10.963 -0.3301  0.2942 -0.6865
29297SOL    HW191422   8.659   1.197  10.988  0.4772 -0.0672  2.2459
29297SOL    HW291423   8.769   1.166  10.888 -1.1638 -2.7772  1.1807
29298SOL     OW91424   5.837   4.028   4.060 -0.4201  0.7133  0.3348
29298SOL    HW191425   5.833   3.996   3.970  0.4233  0.1347  0.4922
29298SOL    HW291426   5.804   4.118   4.056 -1.0618  0.4446 -0.4272
29299SOL     OW91427   9.415   4.658   2.714  0.0647 -0.9378 -0.0838
29299SOL    HW191428   9.347   4.722   2.691  1.2094 -0.0198 -1.0100
29299SOL    HW291429   9.403   4.643   2.808 -0.2114  0.6741  0.1679
29300SOL     OW91430  10.168   7.293   0.593 -0.4597 -0.1121  0.2758
29300SOL    HW191431  10.184   7.295   0.687 -1.3008 -0.1376  0.4273
29300SOL    HW291432  10.094   7.353   0.580  0.4214  0.8271 -0.5262
29301SOL     OW91433   3.517   8.063   5.418  0.2748  0.2998 -0.5300
29301SOL    HW191434   3.611   8.074   5.409  0.5105 -1.5619 -0.8035
29301SOL    HW291435   3.507   8.009   5.497 -0.4371 -0.7919 -1.3460
29302SOL     OW91436  10.307   5.468   5.755  0.1039 -0.1097 -0.2564
29302SOL    HW191437  10.400   5.450   5.765  0.3687 -0.0374 -2.1032
29302SOL    HW291438  10.268   5.385   5.728 -0.4666 -0.2561  0.9676
29303SOL     OW91439   6.063   7.453   3.455 -0.5266  0.4669  0.7627
29303SOL    HW191440   6.147   7.496   3.466 -0.1235  0.1521 -0.8803
29303SOL    HW291441   6.083   7.359   3.456 -0.9355  0.3748  0.8381
29304SOL     OW91442   9.544   3.075   9.558 -0.2421 -0.4212  0.5987
29304SOL    HW191443   9.486   3.027   9.499  0.0923  0.4012 -0.4156
29304SOL    HW291444   9.613   3.110   9.502  0.1263  0.3268  1.4839
29305SOL     OW91445   8.742   5.839   2.127  0.1264 -0.7090  0.3088
29305SOL    HW191446   8.716   5.832   2.219 -2.7580  0.8360 -0.2639
29305SOL    HW291447   8.710   5.759   2.087 -0.3642 -0.5249  0.3229
29306SOL     OW91448   4.426  10.887  10.628 -0.5822  0.9351 -0.2742
29306SOL    HW191449   4.429  10.792  10.640  1.2298  1.0484  0.6125
29306SOL    HW291450   4.353  10.916  10.682 -0.7804  0.1126 -0.0795
29307SOL     OW91451   0.071  10.269  10.371  1.0412 -0.2694  0.0692
29307SOL    HW191452   0.054  10.243  10.461  2.2742 -0.2944  0.3137
29307SOL    HW291453   0.018  10.210  10.318  0.3333 -0.2795  0.7665
29308SOL     OW91454   7.361   1.327   0.200  0.5770  0.3328  0.4938
29308SOL    HW191455   7.438   1.338   0.143  1.5160 -0.2110  1.6297
29308SOL    HW291456   7.287   1.327   0.139  1.4015  1.5437 -0.5793
29309SOL     OW91457   2.686   8.560   2.718  0.2236  0.0956  0.4166
29309SOL    HW191458   2.612   8.534   2.772  0.8926 -0.4994  1.0785
29309SOL    HW291459   2.647   8.601   2.641 -0.7611  1.4121  1.5529
29310SOL     OW91460   9.755   6.575   8.981 -0.3374  0.4167 -0.5664
29310SOL    HW191461   9.821   6.611   8.922  0.5857 -0.8038 -0.3344
29310SOL    HW291462   9.736   6.645   9.043 -0.8151  1.4913 -1.8723
29311SOL     OW91463  11.123   7.854   7.380 -0.2216 -0.6641 -0.2764
29311SOL    HW191464  11.165   7.775   7.344  1.3648 -0.0524  0.1669
29311SOL    HW291465  11.096   7.904   7.302 -1.5555 -1.7604 -0.5657
29312SOL     OW91466   4.036   1.513   9.177 -0.4596  0.1814  0.0459
29312SOL    HW191467   4.032   1.591   9.232  0.5044  1.9689 -2.2334
29312SOL    HW291468   4.130   1.500   9.162 -0.6413 -1.0745 -0.1017
29313SOL     OW91469   4.713   8.460   6.962  0.2698 -0.5810 -0.4373
29313SOL    HW191470   4.628   8.476   7.001  1.6507  0.5609  2.4048
29313SOL    HW291471   4.743   8.378   7.003 -0.0060 -1.7862 -2.5264
29314SOL     OW91472   1.845   6.478  10.764  0.2834 -0.4227  0.3172
29314SOL    HW191473   1.794   6.426  10.701  1.0694 -0.9412  0.0968
29314SOL    HW291474   1.930   6.490  10.723  0.0943  1.1369  0.3320
29315SOL     OW91475   5.627   3.312   8.632 -0.0218  0.0748 -0.0780
29315SOL    HW191476   5.666   3.365   8.702 -2.9587  2.1923  0.1397
29315SOL    HW291477   5.598   3.375   8.567  0.1461 -1.6507 -1.9224
29316SOL     OW91478   8.097   7.949   6.172 -0.3019  0.1409 -0.0407
29316SOL    HW191479   8.043   7.938   6.250  1.5524  1.8876  1.6145
29316SOL    HW291480   8.038   7.987   6.106 -1.6153 -0.2450  0.8796
29317SOL     OW91481   8.411  10.058   1.914  0.5871 -0.0171  0.2935
29317SOL    HW191482   8.483  10.033   1.856 -0.4526  0.2943 -1.1811
29317SOL    HW291483   8.335  10.010   1.880 -0.1841  0.6500  1.0299
29318SOL     OW91484   2.733   4.986  11.071  0.7990  0.1862  0.0850
29318SOL    HW191485   2.708   5.077  11.054 -0.4362 -0.0894  0.3491
29318SOL    HW291486   2.785   4.991  11.152  0.4189  0.6090  0.3083
29319SOL     OW91487  10.731   9.644   1.215  0.0321  0.0590  0.0062
29319SOL    HW191488  10.737   9.702   1.139 -0.1067 -0.4805 -0.4231
29319SOL    HW291489  10.643   9.607   1.210 -0.1930  0.4804  0.7741
29320SOL     OW91490   5.001   9.507   1.913 -0.6230 -0.1577  0.6472
29320SOL    HW191491   4.990   9.600   1.897  0.6125  0.0029  0.6381
29320SOL    HW291492   5.002   9.467   1.826  0.8713  0.0909  0.5114
29321SOL     OW91493   9.601   9.823  10.816  0.8033  0.5528 -0.6357
29321SOL    HW191494   9.513   9.856  10.797 -0.0003  0.2330  2.0708
29321SOL    HW291495   9.589   9.729  10.830  1.4713  0.5878  0.2675
29322SOL     OW91496   1.550   6.150   0.281 -0.0901  0.1445 -0.0020
29322SOL    HW191497   1.571   6.133   0.190  0.3516  2.3481 -0.3706
29322SOL    HW291498   1.455   6.159   0.283  0.0533  2.6024 -0.8081
29323SOL     OW91499   7.757  10.085   6.971 -0.2183  0.3266  0.6564
29323SOL    HW191500   7.765  10.136   6.891 -0.1617  0.8405  0.9791
29323SOL    HW291501   7.663  10.071   6.982 -0.1096 -3.2593 -1.6307
29324SOL     OW91502   8.331   5.247   5.143  0.4641  0.0694 -0.0499
29324SOL    HW191503   8.288   5.263   5.227  1.5023  2.4391  0.1214
29324SOL    HW291504   8.396   5.318   5.136  0.4624 -0.1018 -2.8081
29325SOL     OW91505  10.428  10.173   0.320 -0.1747 -0.4435 -0.4186
29325SOL    HW191506  10.422  10.213   0.407  1.3205 -1.1486  0.0506
29325SOL    HW291507  10.391  10.085   0.331 -1.0291 -0.1410 -0.7940
29326SOL     OW91508   1.778  10.114   7.439  0.1865 -0.7403  0.2613
29326SOL    HW191509   1.838  10.139   7.509  0.2976 -1.2383  0.3506
29326SOL    HW291510   1.835  10.079   7.370  0.1876  0.9626 -0.6326
29327SOL     OW91511   1.262  10.685   3.374 -0.4777  0.0685 -0.1002
29327SOL    HW191512   1.195  10.691   3.306 -1.0392  0.3420  0.4683
29327SOL    HW291513   1.303  10.600   3.359 -0.5481  0.1567 -0.8227
29328SOL     OW91514   3.840   8.260   3.504 -0.2969 -0.6285 -0.5796
29328SOL    HW191515   3.921   8.247   3.553 -0.2956  1.3466  0.0246
29328SOL    HW291516   3.771   8.259   3.571 -0.3089  1.9594 -0.4774
29329SOL     OW91517   1.003   2.651   2.242  0.4285 -0.3397 -0.4564
29329SOL    HW191518   0.945   2.609   2.179 -1.2410 -1.0513  1.4457
29329SOL    HW291519   0.945   2.683   2.311  2.1206  0.8701  0.4952
29330SOL     OW91520   6.183   5.530   8.882  0.3956  0.7331 -0.1329
29330SOL    HW191521   6.095   5.522   8.919 -0.7133 -0.2623 -2.7192
29330SOL    HW291522   6.198   5.625   8.876 -0.6213  0.9191  0.0897
29331SOL     OW91523   2.920   1.286   5.704 -0.0101 -0.3270 -0.0567
29331SOL    HW191524   2.909   1.308   5.612 -2.0873 -0.2987  0.1478
29331SOL    HW291525   2.939   1.192   5.704 -2.6364 -0.9466 -0.4752
29332SOL     OW91526   7.081  10.876   6.546 -0.5427  0.1630 -0.4591
29332SOL    HW191527   7.015  10.931   6.588 -0.1402  1.1355 -1.0450
29332SOL    HW291528   7.106  10.925   6.467  2.9512  1.3183  1.1540
29333SOL     OW91529   4.490   2.233   9.796  0.2862 -0.8120 -0.1421
29333SOL    HW191530   4.410   2.181   9.803  0.1706 -0.4826  1.0881
29333SOL    HW291531   4.561   2.170   9.806  0.1566 -0.8443  0.5690
29334SOL     OW91532   0.733   0.896   4.349  0.2074  0.2814  0.0735
29334SOL    HW191533   0.807   0.920   4.293  1.0268  0.0935  1.0573
29334SOL    HW291534   0.660   0.885   4.288  1.0895  0.0261 -0.9663
29335SOL     OW91535   2.969   1.842   7.261  0.0560  0.1141 -0.1839
29335SOL    HW191536   2.937   1.907   7.324 -1.8598  0.3697 -1.3535
29335SOL    HW291537   2.899   1.777   7.256  0.9253 -0.7991 -0.7998
29336SOL     OW91538   6.338   3.888   1.636  0.2865 -0.1006  0.2244
29336SOL    HW191539   6.322   3.915   1.726  1.4670 -0.5368  0.5983
29336SOL    HW291540   6.308   3.797   1.633  1.9779 -0.7281  0.7627
29337SOL     OW91541   9.908   1.785   4.178  0.1103 -0.8297 -0.0138
29337SOL    HW191542   9.977   1.777   4.112  0.4463 -0.3061  0.2698
29337SOL    HW291543   9.929   1.719   4.244  0.9531  0.0376  0.6099
29338SOL     OW91544   5.399   2.709   1.397  0.1080 -0.3127  0.4940
29338SOL    HW191545   5.427   2.643   1.461 -1.0863 -0.5670  0.7748
29338SOL    HW291546   5.407   2.792   1.444  2.5456 -0.0955 -0.1663
29339SOL     OW91547   0.835  10.662   5.019 -0.0411 -0.4920 -0.3203
29339SOL    HW191548   0.901  10.610   5.066  1.0181  0.7624 -0.3650
29339SOL    HW291549   0.786  10.707   5.088 -1.2956 -1.8810 -0.2545
29340SOL     OW91550   3.362   9.561   6.348  0.4386  0.9631 -0.6475
29340SOL    HW191551   3.419   9.625   6.390 -3.0447  3.5190  0.7580
29340SOL    HW291552   3.306   9.528   6.419 -0.8262 -0.2301 -2.1188
29341SOL     OW91553   9.341   6.584   2.183  0.4310  0.2243 -0.2209
29341SOL    HW191554   9.364   6.500   2.222  2.1321  0.6905 -0.1402
29341SOL    HW291555   9.257   6.569   2.140  1.2506 -1.8298 -1.2227
29342SOL     OW91556   3.663   7.089   6.363 -0.5911  0.4564  0.0705
29342SOL    HW191557   3.745   7.110   6.319 -0.8322 -2.8928 -2.3774
29342SOL    HW291558   3.599   7.150   6.327  0.2312  1.1271 -0.2774
29343SOL     OW91559   6.418   2.314  10.905  0.1721 -0.3765  0.3911
29343SOL    HW191560   6.440   2.406  10.919  1.3363 -0.6978  0.8309
29343SOL    HW291561   6.492   2.279  10.855  0.3191 -1.3382  1.2403
29344SOL     OW91562   2.180  10.683   4.451  0.4286 -0.1491  0.0377
29344SOL    HW191563   2.127  10.761   4.470  0.0623 -0.2907 -0.3888
29344SOL    HW291564   2.267  10.718   4.430  1.3251 -0.0386  3.3688
29345SOL     OW91565   5.594   7.141   7.947 -0.5247  0.4514 -0.1292
29345SOL    HW191566   5.621   7.052   7.930  0.8555  0.9558 -0.6863
29345SOL    HW291567   5.634   7.163   8.031 -2.1853  0.0433  0.8167
29346SOL     OW91568   9.124   5.950   9.458 -0.3273 -0.2588  0.4333
29346SOL    HW191569   9.112   5.979   9.368 -1.6493 -0.4742  0.5206
29346SOL    HW291570   9.087   6.020   9.512  0.3060 -0.2042  0.8058
29347SOL     OW91571   6.780   0.346   4.433  0.1530 -0.3416  0.5971
29347SOL    HW191572   6.750   0.422   4.481  0.2989 -1.4322  2.4944
29347SOL    HW291573   6.701   0.293   4.420  0.2769 -0.4967  0.4754
29348SOL     OW91574   1.622   9.275   0.373  0.6666 -0.1099  0.6026
29348SOL    HW191575   1.690   9.266   0.306  0.0845 -2.3084  0.2075
29348SOL    HW291576   1.668   9.266   0.456  1.1223  0.5809  0.4325
29349SOL     OW91577   9.522   3.597  10.073  0.1710  0.1665  0.2038
29349SOL    HW191578   9.558   3.624  10.158  0.3087 -1.4980  0.7066
29349SOL    HW291579   9.460   3.667  10.050  2.9041  2.6691 -0.2170
29350SOL     OW91580   6.370   1.390   4.329 -0.2991  0.1632  0.0437
29350SOL    HW191581   6.274   1.389   4.335 -0.2207  0.5576  3.0267
29350SOL    HW291582   6.398   1.318   4.385  1.1501  0.5091 -0.1978
29351SOL     OW91583   2.110   3.845   8.050 -0.4817 -0.7057  0.4944
29351SOL    HW191584   2.073   3.881   8.131 -0.0898 -2.0126  1.2980
29351SOL    HW291585   2.202   3.870   8.053 -0.4264 -0.9121  0.5600
29352SOL     OW91586   1.985   8.926   7.455 -0.1815  0.8886 -0.5511
29352SOL    HW191587   2.060   8.951   7.509 -1.0089  1.4222  0.3867
29352SOL    HW291588   1.945   8.852   7.501 -1.2964  1.7805 -0.0141
29353SOL     OW91589   9.151   7.174   6.925 -0.4671  0.0736  0.3663
29353SOL    HW191590   9.185   7.211   6.843 -2.1765  1.2988  0.1545
29353SOL    HW291591   9.066   7.139   6.901 -0.8433  0.1478  1.5568
29354SOL     OW91592   2.496   2.122   1.630  0.4960 -0.4492 -0.6457
29354SOL    HW191593   2.430   2.125   1.561  0.9299 -1.0188 -1.0974
29354SOL    HW291594   2.557   2.055   1.601  0.7563 -0.5982  0.2341
29355SOL     OW91595   9.641  11.017   3.131  0.1971 -0.1182  0.0508
29355SOL    HW191596   9.649  10.935   3.178  2.4385  0.9607  1.7186
29355SOL    HW291597   9.645  11.085   3.198  1.8653  1.4370 -1.4650
29356SOL     OW91598  10.108   7.325   2.296  0.2531 -0.0508 -0.1674
29356SOL    HW191599  10.137   7.396   2.354  0.7524  0.4417 -1.0014
29356SOL    HW291600  10.175   7.321   2.228  0.7588 -1.9652  0.3571
29357SOL     OW91601   3.216   2.568   3.498  0.1037  0.3341  0.1859
29357SOL    HW191602   3.186   2.643   3.549  0.6569  1.3368 -0.9210
29357SOL    HW291603   3.284   2.528   3.552  2.7211  3.0230 -0.8398
29358SOL     OW91604   5.262   3.669   9.942  0.1205  0.1314 -0.0110
29358SOL    HW191605   5.304   3.724  10.008 -0.9721  1.0032 -0.0183
29358SOL    HW291606   5.304   3.584   9.952  0.1962  0.3251  1.6049
29359SOL     OW91607   7.609   8.265   4.594  0.0140 -0.1367 -0.1519
29359SOL    HW191608   7.535   8.278   4.535 -0.0843  1.8096  0.3046
29359SOL    HW291609   7.665   8.342   4.578  1.2572 -0.8885  0.4611
29360SOL     OW91610   9.913   2.604   5.545 -0.1557 -0.0296  0.0627
29360SOL    HW191611  10.003   2.598   5.515  0.0549  0.1454  0.6465
29360SOL    HW291612   9.915   2.670   5.614 -1.1962  1.8775 -1.6402
29361SOL     OW91613   3.531   0.988   5.547  0.4327 -0.0397 -0.1395
29361SOL    HW191614   3.575   1.070   5.523  0.6864 -0.1736 -0.1254
29361SOL    HW291615   3.440   1.014   5.564  0.5482  0.2632  0.0156
29362SOL     OW91616  10.840   3.359   8.052 -0.6078 -0.1408  0.0469
29362SOL    HW191617  10.863   3.289   8.112 -0.4141 -0.8474 -0.8301
29362SOL    HW291618  10.789   3.316   7.984  1.4984  0.0607 -1.7885
29363SOL     OW91619   0.831   6.331   2.195 -0.2903  0.0267  0.2239
29363SOL    HW191620   0.747   6.375   2.184 -0.2553 -0.0941 -0.5328
29363SOL    HW291621   0.809   6.243   2.225 -0.3968  0.2279  0.7560
29364SOL     OW91622   5.297   8.498   3.279 -0.5613 -0.7268 -0.0960
29364SOL    HW191623   5.309   8.587   3.244  1.8121 -1.2657 -0.8578
29364SOL    HW291624   5.386   8.469   3.300 -1.4577 -2.2840  1.8278
29365SOL     OW91625   8.338  10.425   4.513  0.1778 -0.1085  0.4743
29365SOL    HW191626   8.244  10.424   4.530 -0.6500 -2.2990 -3.0780
29365SOL    HW291627   8.346  10.454   4.422  2.8319 -0.7720  0.3999
29366SOL     OW91628   3.530   8.286   7.105  0.1137 -0.0176  0.2806
29366SOL    HW191629   3.624   8.273   7.107  0.1270  0.0802  0.2898
29366SOL    HW291630   3.501   8.239   7.027 -0.0930 -1.7790  1.3599
29367SOL     OW91631   9.385   5.957  11.078 -0.1252 -0.0176 -0.0251
29367SOL    HW191632   9.457   5.905  11.115  0.2927 -0.1996 -1.0470
29367SOL    HW291633   9.402   5.957  10.984 -1.5808 -0.2225 -0.3142
29368SOL     OW91634   2.537   1.246   1.446  0.0305 -0.1916  0.5270
29368SOL    HW191635   2.632   1.240   1.438 -0.0443 -0.7109  0.0017
29368SOL    HW291636   2.518   1.340   1.434  0.5652  0.1017  1.7969
29369SOL     OW91637   8.524   2.268   6.079  0.1893 -0.5060  0.3441
29369SOL    HW191638   8.548   2.306   6.163 -1.1887  0.7164  0.2356
29369SOL    HW291639   8.438   2.306   6.059  0.9735  0.2186 -2.1532
29370SOL     OW91640   5.978   8.239   4.607  0.2527 -0.5253 -0.5940
29370SOL    HW191641   6.068   8.227   4.639  0.1929 -0.8472 -0.5466
29370SOL    HW291642   5.976   8.330   4.575  0.4934 -0.4058 -0.2743
29371SOL     OW91643   0.983   6.643   6.522  0.0563  0.4178  0.1744
29371SOL    HW191644   0.964   6.729   6.486 -1.1968  0.6840  1.4103
29371SOL    HW291645   0.962   6.582   6.451 -0.8733  1.0116 -0.0775
29372SOL     OW91646   9.295   6.892   4.900  0.1264  0.2295  0.3384
29372SOL    HW191647   9.375   6.879   4.850  0.5889  0.9473  0.8841
29372SOL    HW291648   9.291   6.986   4.915 -0.4221  0.1091  0.9707
29373SOL     OW91649   5.854   9.625   7.923  0.7028 -0.7863 -0.4021
29373SOL    HW191650   5.855   9.531   7.941  0.4929 -0.8305 -0.6220
29373SOL    HW291651   5.762   9.650   7.926  0.6895 -0.7305 -1.0861
29374SOL     OW91652   5.184   2.212   0.758  0.5983  0.3347 -0.4705
29374SOL    HW191653   5.249   2.144   0.778  0.6917  0.4935 -0.2206
29374SOL    HW291654   5.212   2.248   0.674 -0.1460 -0.7548 -1.1922
29375SOL     OW91655   7.517   1.014  10.290  0.5213  0.3888 -0.4101
29375SOL    HW191656   7.612   1.003  10.282  0.6333  0.3214  0.7701
29375SOL    HW291657   7.483   0.925  10.281  0.4660  0.5286 -1.8103
29376SOL     OW91658   5.452   9.969   2.926  0.2679  0.2426  0.0223
29376SOL    HW191659   5.453   9.954   3.021 -0.1419 -1.6269 -0.2357
29376SOL    HW291660   5.395  10.045   2.914  0.7847  0.8685  1.3037
29377SOL     OW91661   1.387   4.153   3.763 -0.0065 -0.1337  0.2280
29377SOL    HW191662   1.385   4.120   3.673  1.0307 -1.1528  0.5526
29377SOL    HW291663   1.312   4.112   3.806 -0.8594  0.8252 -0.3100
29378SOL     OW91664   8.085   2.565   7.415  0.7927 -0.2506 -0.0915
29378SOL    HW191665   8.146   2.546   7.344  2.5794 -0.2995  1.3768
29378SOL    HW291666   8.008   2.602   7.372  1.7664 -0.3905 -2.0435
29379SOL     OW91667   4.862   0.390   2.238  0.4401 -0.5022  0.5276
29379SOL    HW191668   4.915   0.378   2.159  1.0494 -0.3068  0.9032
29379SOL    HW291669   4.894   0.324   2.299  0.9065  0.2260  1.0919
29380SOL     OW91670   0.396   2.158  10.145 -0.0102 -0.1352 -0.1758
29380SOL    HW191671   0.466   2.111  10.101 -0.3920 -0.4134 -0.4991
29380SOL    HW291672   0.343   2.194  10.074 -1.2044 -1.4263  0.0073
29381SOL     OW91673   4.984   6.745   1.784  0.0721 -0.0413  0.2454
29381SOL    HW191674   4.973   6.840   1.798  0.9898  0.4599 -2.0540
29381SOL    HW291675   5.069   6.725   1.824  0.8962  0.5832 -1.1259
29382SOL     OW91676   8.458   5.964   1.783  0.2466  0.6137  0.1314
29382SOL    HW191677   8.373   5.923   1.798 -0.1558  1.4231  0.0675
29382SOL    HW291678   8.471   6.022   1.858  0.3210  1.1907 -0.3271
29383SOL     OW91679  10.033   8.194   7.516  0.2982  0.4792 -0.7478
29383SOL    HW191680  10.040   8.161   7.426 -0.4451 -1.2019 -0.2443
29383SOL    HW291681  10.057   8.286   7.510  0.9664  0.2333 -2.5459
29384SOL     OW91682   8.890   4.510   1.542 -0.0656 -0.1800 -0.3483
29384SOL    HW191683   8.819   4.528   1.604  0.1091 -1.5111  0.2722
29384SOL    HW291684   8.850   4.454   1.475  0.3068 -0.6282 -0.1995
29385SOL     OW91685   7.343   0.458   4.137 -0.5191  0.0365 -0.2337
29385SOL    HW191686   7.361   0.460   4.043  0.0443  0.5334 -0.1187
29385SOL    HW291687   7.254   0.424   4.143  0.2678 -2.3695 -0.8272
29386SOL     OW91688   2.416   2.504   8.252 -0.0807  0.1723  0.6106
29386SOL    HW191689   2.401   2.451   8.174 -1.0978  0.6893  0.4357
29386SOL    HW291690   2.477   2.572   8.224  0.7407 -0.5192  0.6767
29387SOL     OW91691  11.081   7.975   3.044  0.0133  0.3301 -0.3234
29387SOL    HW191692  11.118   7.897   3.086 -2.6035  0.6326  3.0164
29387SOL    HW291693  11.123   8.048   3.090 -1.8352  0.7029  0.8724
29388SOL     OW91694  10.775   6.543  11.068 -0.4036 -0.4786  0.2573
29388SOL    HW191695  10.723   6.571  11.143 -1.0663  1.5414 -0.8808
29388SOL    HW291696  10.719   6.560  10.992  1.7890  1.7787 -1.0127
29389SOL     OW91697   7.789   0.573   1.161  0.0577 -0.4673  0.2994
29389SOL    HW191698   7.792   0.481   1.186  0.0436 -0.4262  0.4575
29389SOL    HW291699   7.799   0.573   1.066 -1.2616 -0.7231  0.1344
29390SOL     OW91700   4.830   3.175   0.892  0.0362 -0.1871 -0.8823
29390SOL    HW191701   4.870   3.208   0.812  0.1904  0.6559 -0.4750
29390SOL    HW291702   4.796   3.254   0.936 -0.5591 -0.6986 -0.4024
29391SOL     OW91703  10.653   2.658   5.632 -0.4736 -0.0379  0.3937
29391SOL    HW191704  10.702   2.654   5.550 -2.0143 -0.8132 -0.5133
29391SOL    HW291705  10.719   2.685   5.697  0.4352  2.1930 -1.3330
29392SOL     OW91706   7.897   6.835   7.233 -0.2826 -0.1129 -0.4609
29392SOL    HW191707   7.823   6.778   7.214 -0.4330  0.0356 -0.3260
29392SOL    HW291708   7.965   6.806   7.173  0.1465 -1.4000  0.5949
29393SOL     OW91709   5.010   3.455   0.231 -0.9008  0.2113 -0.5641
29393SOL    HW191710   5.004   3.380   0.290  1.1445  0.3765 -0.0610
29393SOL    HW291711   4.934   3.509   0.252 -2.0757 -1.4044 -0.5122
29394SOL     OW91712   2.424   2.391   9.362 -0.7875 -0.2440 -0.0398
29394SOL    HW191713   2.400   2.482   9.344  0.0192  0.3611  1.7626
29394SOL    HW291714   2.343   2.342   9.346 -1.0766  0.6536 -1.6450
29395SOL     OW91715   2.260   1.341   2.129 -0.5131  0.8160  0.4881
29395SOL    HW191716   2.181   1.353   2.182 -0.7192 -0.6014  0.5442
29395SOL    HW291717   2.228   1.311   2.044 -0.0460  0.0010  0.5850
29396SOL     OW91718   3.621   2.030   4.748  0.5229 -0.1204 -0.7107
29396SOL    HW191719   3.673   2.089   4.802 -0.2274  1.8726 -2.0702
29396SOL    HW291720   3.625   2.067   4.660 -1.3677 -1.1528 -1.2960
29397SOL     OW91721   9.784   9.744   5.176  0.1641 -0.7991  0.3763
29397SOL    HW191722   9.733   9.665   5.195 -0.7865 -0.7839 -1.7920
29397SOL    HW291723   9.744   9.780   5.097 -0.0838  2.4476  1.8205
29398SOL     OW91724   3.356   1.750   7.191  0.3213  0.4259  0.2104
29398SOL    HW191725   3.336   1.667   7.235  1.4788  0.3081  0.5525
29398SOL    HW291726   3.451   1.756   7.193  0.2386  2.1732  0.9617
29399SOL     OW91727   3.526  10.293   3.092  0.6349 -0.3213 -0.2126
29399SOL    HW191728   3.620  10.275   3.096  0.4146 -1.3559  1.4952
29399SOL    HW291729   3.485  10.206   3.093 -0.3456  0.0451 -2.5595
29400SOL     OW91730   1.816   7.852   2.210  0.8603  0.4267 -0.0288
29400SOL    HW191731   1.845   7.944   2.207  0.2373  0.6465  0.4593
29400SOL    HW291732   1.793   7.838   2.301 -0.1126  0.1189 -0.3136
29401SOL     OW91733   1.120   8.125   4.251  0.1141 -0.7463  0.7534
29401SOL    HW191734   1.174   8.096   4.325 -0.1694 -1.3623  0.7178
29401SOL    HW291735   1.046   8.064   4.249 -0.4081 -0.1180  0.5871
29402SOL     OW91736   3.757   5.861   7.667 -0.3055  0.2530 -0.2770
29402SOL    HW191737   3.681   5.875   7.723 -0.3664 -1.2085  0.0463
29402SOL    HW291738   3.803   5.787   7.708  1.0884  0.8757 -0.6735
29403SOL     OW91739  10.758   4.468   7.028  0.2542  0.5609 -0.0155
29403SOL    HW191740  10.789   4.496   6.941 -1.7771  0.7784 -0.7237
29403SOL    HW291741  10.703   4.392   7.010  1.0244 -0.3275  1.2729
29404SOL     OW91742   1.500   4.199   9.897 -0.3643  1.0360  0.5973
29404SOL    HW191743   1.444   4.229   9.969 -0.7222  1.2729  0.2222
29404SOL    HW291744   1.571   4.263   9.894  0.6042  0.0913  1.8458
29405SOL     OW91745  10.772   6.181   0.022  0.1538 -0.1844 -0.2328
29405SOL    HW191746  10.734   6.115   0.080  0.4249 -0.3305 -0.2190
29405SOL    HW291747  10.817   6.241   0.082  1.2865 -0.8837 -0.3409
29406SOL     OW91748   2.579   2.809   1.317  0.0474 -0.3169 -0.2624
29406SOL    HW191749   2.498   2.852   1.345  0.1059  0.5360 -1.3273
29406SOL    HW291750   2.614   2.769   1.397 -0.2091  1.3135  0.7278
29407SOL     OW91751   4.657   7.567   3.565  0.3928  0.2312 -0.2100
29407SOL    HW191752   4.687   7.657   3.550  0.0922  0.4472  0.4321
29407SOL    HW291753   4.660   7.526   3.479  0.8346  0.7656 -0.4566
29408SOL     OW91754   3.263   5.065   4.950  0.4093 -0.2632  0.0628
29408SOL    HW191755   3.250   5.073   4.855  0.9571  0.5277  0.0463
29408SOL    HW291756   3.316   5.141   4.974 -2.0007  1.0998  1.4516
29409SOL     OW91757   5.865   9.184   3.610  0.0770  0.6854  0.2603
29409SOL    HW191758   5.915   9.110   3.574  1.6088  0.8007  2.0609
29409SOL    HW291759   5.831   9.151   3.693 -3.7558  0.2844 -1.2468
29410SOL     OW91760  10.377   1.543   8.588  0.1353 -0.2344 -0.8135
29410SOL    HW191761  10.322   1.491   8.529  1.9206 -2.7852 -0.4393
29410SOL    HW291762  10.452   1.485   8.607  1.6757  2.0771  0.6645
29411SOL     OW91763   4.522  11.043   4.966 -1.1674 -0.0210 -0.7004
29411SOL    HW191764   4.475  11.091   5.034 -2.2306 -1.1572 -0.6072
29411SOL    HW291765   4.486  11.076   4.884 -0.8426  0.3791 -0.6876
29412SOL     OW91766   6.068   3.096   8.384 -0.4947  0.2659 -0.6434
29412SOL    HW191767   6.039   3.017   8.429 -1.2481 -0.4407 -2.2708
29412SOL    HW291768   5.987   3.141   8.361 -0.0737  1.4958  0.1934
29413SOL     OW91769   0.686   7.273   9.337  0.2335 -1.0917  0.2682
29413SOL    HW191770   0.712   7.355   9.296 -0.2621 -1.5221 -0.9630
29413SOL    HW291771   0.760   7.214   9.322 -0.1494 -1.3933 -0.4412
29414SOL     OW91772   6.672   9.788  11.029 -0.2078  0.1866  1.0050
29414SOL    HW191773   6.668   9.697  10.999 -0.7360  0.6339 -0.3365
29414SOL    HW291774   6.581   9.813  11.043 -0.0849  0.5936  1.0856
29415SOL     OW91775   1.368   6.136   7.117 -0.0301 -0.0705 -0.0568
29415SOL    HW191776   1.453   6.133   7.072 -0.8877  0.7659 -1.8482
29415SOL    HW291777   1.345   6.044   7.130  0.9168 -0.3119  0.0078
29416SOL     OW91778   9.182   4.824   1.429  0.0150  0.2499  1.0412
29416SOL    HW191779   9.214   4.879   1.358 -1.1494  0.9849  1.0623
29416SOL    HW291780   9.259   4.774   1.457  0.3515 -0.6560 -1.2472
29417SOL     OW91781   8.504  10.069   5.194  0.3665  0.3341  0.6105
29417SOL    HW191782   8.459  10.120   5.262  0.4116  0.0610  0.8480
29417SOL    HW291783   8.440  10.002   5.168  0.9042 -0.5748  1.5338
29418SOL     OW91784   3.463  11.038   7.103 -0.1173 -0.1180 -0.4243
29418SOL    HW191785   3.383  11.086   7.125  0.3409  0.2589  0.4858
29418SOL    HW291786   3.451  10.952   7.143  1.1542  0.9003  2.3940
29419SOL     OW91787   2.600   8.677   2.963  0.1934 -0.1845 -0.5225
29419SOL    HW191788   2.650   8.679   2.881  1.1978 -1.3179  0.0278
29419SOL    HW291789   2.632   8.599   3.008 -0.2074  0.5289  1.0393
29420SOL     OW91790   4.557   9.036   9.571 -0.0455  0.0502  0.3089
29420SOL    HW191791   4.559   9.073   9.483 -0.7638  0.8039  0.5971
29420SOL    HW291792   4.634   8.979   9.575  2.1778  2.8182  0.4072
29421SOL     OW91793   0.736   6.644   6.125  0.3378 -0.3166 -0.2280
29421SOL    HW191794   0.825   6.612   6.141  0.4927  1.3344  3.2453
29421SOL    HW291795   0.744   6.739   6.126 -1.6007 -0.0588  2.2525
29422SOL     OW91796   7.245   7.068   2.957 -0.3064 -0.4223  0.1031
29422SOL    HW191797   7.289   6.997   3.004  0.0444 -0.2635  0.0164
29422SOL    HW291798   7.316   7.126   2.928 -0.2296 -1.7151 -2.6771
29423SOL     OW91799   3.859   6.736   3.862 -0.1150  0.2782  0.2804
29423SOL    HW191800   3.925   6.718   3.795  0.4009 -0.5016  0.9707
29423SOL    HW291801   3.841   6.651   3.902 -0.9874  0.6052  0.6087
29424SOL     OW91802   7.743   4.146   5.276  0.0739  0.0728  0.0254
29424SOL    HW191803   7.723   4.116   5.188 -0.2391  0.3946 -0.0153
29424SOL    HW291804   7.755   4.066   5.327 -1.3403 -0.1400  0.0554
29425SOL     OW91805   9.560   0.923   3.700  0.2244  0.7432 -0.8133
29425SOL    HW191806   9.482   0.871   3.722  0.1543  1.4114  0.5877
29425SOL    HW291807   9.627   0.894   3.762 -0.2115  3.2240  0.9419
29426SOL     OW91808  10.917   0.919   5.343  0.0535 -0.1047  0.1550
29426SOL    HW191809  10.836   0.922   5.393 -0.1686  1.1450 -0.2304
29426SOL    HW291810  10.976   0.865   5.395 -0.0160  1.4882  1.9979
29427SOL     OW91811   6.814   7.325   2.413 -0.3069 -0.2718  0.0479
29427SOL    HW191812   6.784   7.390   2.350  0.7954 -0.4940 -0.7263
29427SOL    HW291813   6.885   7.368   2.460 -1.1775 -0.0730  1.2351
29428SOL     OW91814   3.891   6.960   1.178 -0.3187 -0.2086 -0.4886
29428SOL    HW191815   3.957   6.999   1.121 -0.2432 -1.0853 -1.0117
29428SOL    HW291816   3.931   6.879   1.210 -0.6806 -0.1436  0.1495
29429SOL     OW91817   9.141   0.735   0.426  0.5489  0.5738 -1.1066
29429SOL    HW191818   9.047   0.729   0.442  0.4255  1.3988 -1.4695
29429SOL    HW291819   9.181   0.681   0.495 -0.1829  0.2162 -0.9557
29430SOL     OW91820   7.522   5.700   9.021 -0.4195  0.2613 -0.0209
29430SOL    HW191821   7.491   5.631   8.963  1.5386  0.2190 -1.1130
29430SOL    HW291822   7.532   5.657   9.106 -0.6353 -0.4076 -0.3277
29431SOL     OW91823  11.047   5.875   3.841 -0.2243  0.0032  0.0528
29431SOL    HW191824  11.120   5.823   3.808 -1.0405  0.0042 -1.8608
29431SOL    HW291825  10.988   5.884   3.767 -2.0107  0.3350  1.4483
29432SOL     OW91826   9.313   8.854   8.185  0.4072  0.2248  0.1350
29432SOL    HW191827   9.229   8.817   8.160  0.8828 -1.9744  1.5273
29432SOL    HW291828   9.357   8.872   8.102 -0.0615 -1.9427 -0.6455
29433SOL     OW91829   3.179  10.916   2.444 -0.0374 -0.1112 -0.9128
29433SOL    HW191830   3.269  10.945   2.458 -0.1371 -0.0580 -0.3403
29433SOL    HW291831   3.131  10.951   2.519 -0.7965  0.9428 -1.8578
29434SOL     OW91832   6.219   5.951   9.809 -0.8181  0.1062 -0.0475
29434SOL    HW191833   6.173   6.031   9.835 -1.3008 -0.2526  0.2271
29434SOL    HW291834   6.274   5.930   9.884  1.7364  1.8783 -1.2625
29435SOL     OW91835   3.561  10.943   0.446  0.2123 -0.4187 -0.5139
29435SOL    HW191836   3.487  10.934   0.505 -2.2056 -1.3273 -3.4144
29435SOL    HW291837   3.634  10.902   0.492 -1.7913 -2.1481  1.3155
29436SOL     OW91838   8.143   9.456   7.617  0.1124  0.6769 -0.7196
29436SOL    HW191839   8.059   9.468   7.572 -0.6533  1.2325  0.7765
29436SOL    HW291840   8.134   9.372   7.662  0.0140  1.1389  0.1380
29437SOL     OW91841   1.531   4.807   8.032 -0.3648 -0.7569  0.0359
29437SOL    HW191842   1.506   4.865   7.960 -1.0442  0.2594  1.0584
29437SOL    HW291843   1.476   4.729   8.021 -0.5464 -0.5606 -0.4693
29438SOL     OW91844  10.713   6.646   8.741  0.6673  0.3026 -0.1020
29438SOL    HW191845  10.689   6.652   8.649  0.0845  0.4727  0.0501
29438SOL    HW291846  10.659   6.574   8.775  0.0315  0.9728  0.3477
29439SOL     OW91847   3.179   3.639   8.256 -0.1088 -0.1328  0.3215
29439SOL    HW191848   3.154   3.659   8.165 -0.4360 -4.6775 -0.8274
29439SOL    HW291849   3.097   3.623   8.301  0.1492  0.3434  0.9875
29440SOL     OW91850   3.530   0.378   9.620 -0.4238 -0.0754  0.0384
29440SOL    HW191851   3.617   0.416   9.635  0.0631 -0.7112 -1.0148
29440SOL    HW291852   3.528   0.360   9.526 -1.2097 -1.2514  0.2622
29441SOL     OW91853   4.967   3.655   6.301  0.0082  0.4914 -0.2346
29441SOL    HW191854   4.981   3.748   6.284  1.9806  0.6878  1.9694
29441SOL    HW291855   5.025   3.635   6.375 -2.0450 -1.9725  0.8481
29442SOL     OW91856  10.318  11.008   6.778 -0.2214 -0.2747 -0.4959
29442SOL    HW191857  10.392  10.979   6.831  0.2512  0.0491 -0.9766
29442SOL    HW291858  10.293  10.930   6.727 -0.7031 -0.6002  0.2140
29443SOL     OW91859   8.580   8.820   0.197 -0.1549  0.2366 -0.5676
29443SOL    HW191860   8.528   8.856   0.268  0.8275  0.3410  0.1268
29443SOL    HW291861   8.663   8.867   0.202 -0.1853  0.4990 -2.0189
29444SOL     OW91862   2.264  10.378   5.919 -0.0191  0.1938  0.1926
29444SOL    HW191863   2.227  10.371   6.008  0.1535 -0.2360  0.2324
29444SOL    HW291864   2.355  10.352   5.929 -0.2163 -0.7080 -0.2646
29445SOL     OW91865   1.312   5.528   9.035 -0.6903 -0.1361  0.7706
29445SOL    HW191866   1.322   5.544   8.942  1.9103 -1.7969  0.6557
29445SOL    HW291867   1.231   5.477   9.042 -1.8675  1.4914 -0.3057
29446SOL     OW91868   4.017   5.207   7.365  0.2430 -0.3657 -0.0583
29446SOL    HW191869   3.943   5.153   7.392  0.2586  0.0385  0.8384
29446SOL    HW291870   4.068   5.151   7.307 -1.3683 -0.2660 -1.6336
29447SOL     OW91871   5.103   1.181   6.459 -0.1007  0.0759  0.1426
29447SOL    HW191872   5.079   1.206   6.548  2.8579  0.6706  0.8810
29447SOL    HW291873   5.046   1.233   6.402  0.8676  3.0565  1.7055
29448SOL     OW91874   5.076   4.734   1.577 -0.0080 -0.1110  0.3685
29448SOL    HW191875   5.071   4.829   1.591  1.1570 -0.0990  0.7993
29448SOL    HW291876   5.070   4.723   1.483 -0.6290  0.3520  0.3455
29449SOL     OW91877   8.762  10.060  10.476 -0.5109  0.1442 -0.6261
29449SOL    HW191878   8.752  10.003  10.400 -0.2912  0.4759 -0.9088
29449SOL    HW291879   8.712  10.017  10.545 -1.0350  0.0389 -1.0618
29450SOL     OW91880  10.720   0.795   7.255  0.2587 -0.4570  0.1344
29450SOL    HW191881  10.728   0.700   7.256 -1.0966 -0.6292 -1.0439
29450SOL    HW291882  10.713   0.820   7.347 -0.5471 -1.6212  0.4137
29451SOL     OW91883   8.825   2.374   0.123  0.4623  0.2970  0.0378
29451SOL    HW191884   8.871   2.451   0.158 -0.9255  2.0499 -1.7799
29451SOL    HW291885   8.840   2.379   0.028 -2.2734  0.1725 -0.4595
29452SOL     OW91886   6.321   1.407   5.835 -0.4951  0.2512 -0.0814
29452SOL    HW191887   6.254   1.435   5.897 -1.6666  0.2836 -1.3237
29452SOL    HW291888   6.366   1.487   5.811  0.0736  0.2188  0.8197
29453SOL     OW91889   5.448   9.284   4.413  0.2285 -0.4117  0.2056
29453SOL    HW191890   5.519   9.332   4.456 -0.2326  1.6249 -1.1752
29453SOL    HW291891   5.486   9.252   4.331 -0.3919  0.6776 -0.5357
29454SOL     OW91892   0.668   0.650  10.822  0.4563  0.3229 -0.0172
29454SOL    HW191893   0.700   0.734  10.856 -1.3673  0.6609  0.9794
29454SOL    HW291894   0.747   0.605  10.793  1.6152  1.8944  0.5393
29455SOL     OW91895  10.784   3.548   8.794  0.0656 -0.1574 -0.7176
29455SOL    HW191896  10.854   3.489   8.766  1.1625  0.7551 -0.0387
29455SOL    HW291897  10.741   3.575   8.713  0.3088 -0.9695 -1.1250
29456SOL     OW91898   4.946   6.485   1.371  0.6911  0.1990 -0.6271
29456SOL    HW191899   4.937   6.576   1.398 -0.4452 -0.1268  0.1740
29456SOL    HW291900   4.982   6.489   1.282  1.9270  1.3689 -0.1112
29457SOL     OW91901   4.149   5.739   7.484  0.2534 -0.1375 -0.6267
29457SOL    HW191902   4.204   5.692   7.421  0.2156  0.5524 -1.1839
29457SOL    HW291903   4.096   5.798   7.431 -0.7680 -0.5231 -0.0609
29458SOL     OW91904   6.408   3.113   6.216 -0.0700  0.2654 -0.1927
29458SOL    HW191905   6.440   3.199   6.246 -1.2527  1.1739 -1.4066
29458SOL    HW291906   6.334   3.094   6.274 -2.1004  1.8325 -2.0830
29459SOL     OW91907   7.280   3.930   6.777 -0.0554  0.4012  0.5200
29459SOL    HW191908   7.370   3.911   6.803  0.7328  0.5436 -1.8786
29459SOL    HW291909   7.269   3.885   6.693 -1.3734  2.4496 -0.4792
29460SOL     OW91910   4.015   7.143   8.491  0.1163  0.3535  0.2000
29460SOL    HW191911   4.017   7.047   8.494  0.6659  0.3576  0.0903
29460SOL    HW291912   3.996   7.170   8.580  0.0878  0.1470  0.2567
29461SOL     OW91913   8.003   0.723   3.401 -0.2615  0.3072 -0.1792
29461SOL    HW191914   8.027   0.792   3.463 -0.4939 -0.7341  1.1284
29461SOL    HW291915   8.080   0.666   3.398  0.5617  1.4247 -2.4961
29462SOL     OW91916   6.498   1.582   6.368  1.0204 -0.4098 -0.5336
29462SOL    HW191917   6.510   1.487   6.372  1.2261 -0.3569  0.3825
29462SOL    HW291918   6.557   1.616   6.435  1.7339  0.4479 -1.5691
29463SOL     OW91919   7.949   7.317   5.621  0.0680  0.5035  0.3001
29463SOL    HW191920   8.035   7.283   5.597  0.4512  0.6567  1.4051
29463SOL    HW291921   7.910   7.343   5.537  0.6455 -0.5835 -0.3347
29464SOL     OW91922   6.393   1.652   5.708  0.1401  0.0255 -0.2268
29464SOL    HW191923   6.330   1.719   5.680 -0.2095 -0.4145 -0.5229
29464SOL    HW291924   6.412   1.602   5.628 -1.2853 -1.5996  0.3706
29465SOL     OW91925   4.148   1.748   7.962  0.0563  0.0296  0.1083
29465SOL    HW191926   4.179   1.710   7.880  1.8385 -0.3988  0.9257
29465SOL    HW291927   4.112   1.673   8.010 -2.1534  0.4807 -0.7259
29466SOL     OW91928   8.645   0.840   7.444  0.0597  0.1385  0.2545
29466SOL    HW191929   8.638   0.916   7.501 -0.4566  0.5910 -0.4030
29466SOL    HW291930   8.740   0.828   7.431  0.1480  2.2767 -1.7296
29467SOL     OW91931   3.084   4.108   6.453  0.2390  0.1197 -0.2417
29467SOL    HW191932   2.992   4.083   6.450 -0.0697  0.8190  1.6032
29467SOL    HW291933   3.107   4.130   6.363 -1.5176  0.2935 -0.6717
29468SOL     OW91934   4.665  10.137   7.956 -0.1606  0.0312 -0.7505
29468SOL    HW191935   4.652  10.103   8.045 -1.5502 -0.8783 -1.2754
29468SOL    HW291936   4.760  10.135   7.943 -0.0701 -2.0229 -0.1089
29469SOL     OW91937   9.372   6.723   9.328 -0.9431  0.1997  0.3247
29469SOL    HW191938   9.389   6.796   9.268 -0.3408 -0.6749 -0.5934
29469SOL    HW291939   9.440   6.730   9.395 -0.5711  0.1873 -0.0488
29470SOL     OW91940   7.079   4.372   1.119  0.4116 -0.0085  0.6251
29470SOL    HW191941   7.005   4.361   1.178 -0.7488  1.2657 -0.5144
29470SOL    HW291942   7.101   4.465   1.126  2.3424 -0.4665  1.3949
29471SOL     OW91943  10.017   0.354   5.312 -0.2459  0.0329 -0.3425
29471SOL    HW191944  10.076   0.339   5.386 -0.7212  0.9702  0.2464
29471SOL    HW291945   9.933   0.375   5.352 -1.0594 -1.4896 -1.1748
29472SOL     OW91946   1.856   4.722   1.064 -0.3436 -0.3371  0.4436
29472SOL    HW191947   1.898   4.808   1.064  0.1520 -0.5744  0.1772
29472SOL    HW291948   1.773   4.735   1.110  0.3567 -0.0284  1.6507
29473SOL     OW91949   7.790   9.755   8.879 -0.3425  0.6447 -0.0336
29473SOL    HW191950   7.732   9.790   8.812  1.4495  2.0887 -0.9325
29473SOL    HW291951   7.876   9.790   8.857  1.1827 -2.4413  0.4607
29474SOL     OW91952   0.814   0.570   3.600 -0.1117 -0.7642  0.1474
29474SOL    HW191953   0.862   0.563   3.518 -0.8720 -1.3751 -0.2559
29474SOL    HW291954   0.880   0.596   3.664  0.9620 -2.4848 -0.1973
29475SOL     OW91955   0.731   1.791  10.098  0.4781  0.1876 -0.6413
29475SOL    HW191956   0.791   1.763  10.166 -1.7992 -0.6877  1.1334
29475SOL    HW291957   0.711   1.882  10.119 -1.1218 -0.4132  0.6639
29476SOL     OW91958   4.891   0.593   5.173  0.1544 -0.5850 -0.0185
29476SOL    HW191959   4.822   0.641   5.126  0.1693  0.9111  1.4040
29476SOL    HW291960   4.845   0.549   5.244  0.4082 -1.1994 -0.2295
29477SOL     OW91961   8.545   5.680   0.855 -0.1391  0.2145 -0.4299
29477SOL    HW191962   8.600   5.668   0.777  1.4969 -0.7639  0.8093
29477SOL    HW291963   8.605   5.668   0.929 -1.8294  0.1821  1.0082
29478SOL     OW91964   5.993   6.052   7.188 -0.0019  0.1223  0.9142
29478SOL    HW191965   6.028   5.978   7.138 -0.9153 -0.6990  1.4374
29478SOL    HW291966   5.999   6.126   7.128 -1.5755 -0.9312 -0.6945
29479SOL     OW91967   2.553   0.649   4.305 -0.5487  0.1718 -0.1148
29479SOL    HW191968   2.466   0.688   4.289 -0.8868 -0.6143 -0.2314
29479SOL    HW291969   2.539   0.555   4.295  0.0881 -0.0457  0.9970
29480SOL     OW91970   4.626   3.506   7.990 -0.4320 -0.0750  0.1851
29480SOL    HW191971   4.569   3.432   8.010 -1.0483  0.3830  0.1549
29480SOL    HW291972   4.699   3.497   8.051 -0.4348 -0.7707  0.0975
29481SOL     OW91973   3.391   8.794   5.517  0.2358 -0.2801 -0.6870
29481SOL    HW191974   3.352   8.801   5.430 -1.4094  0.6196  0.0825
29481SOL    HW291975   3.362   8.873   5.563  1.6014 -0.4188  0.4847
29482SOL     OW91976   7.595   2.888   5.055  0.4070 -0.6211  0.1925
29482SOL    HW191977   7.612   2.794   5.049  4.0779 -0.1246  0.6225
29482SOL    HW291978   7.587   2.905   5.149  2.3375 -0.2092  0.3146
29483SOL     OW91979   9.079   2.251   9.870 -0.1239 -0.4808  0.2927
29483SOL    HW191980   9.074   2.303   9.790 -1.3050 -2.3692 -0.9340
29483SOL    HW291981   9.072   2.315   9.941  0.8310  1.2298 -1.0800
29484SOL     OW91982   4.036   8.848   9.814 -0.4100  0.2927  0.1918
29484SOL    HW191983   3.967   8.872   9.875  0.6745  1.5842  0.9840
29484SOL    HW291984   4.066   8.762   9.844 -0.7848  0.3211  0.6535
29485SOL     OW91985   5.020   7.357   6.717 -0.6329  0.0363 -0.4437
29485SOL    HW191986   4.943   7.344   6.661 -1.4580  2.6420 -0.0211
29485SOL    HW291987   4.984   7.368   6.805  0.3452 -0.0039 -0.0268
29486SOL     OW91988   9.510   0.049   6.358 -0.2041 -0.2999  0.6090
29486SOL    HW191989   9.442   0.070   6.294  0.1671 -0.1258  0.2631
29486SOL    HW291990   9.592   0.074   6.315 -0.0841  1.9206  1.9835
29487SOL     OW91991   9.431   8.640   9.063 -0.0795 -0.4040  0.1051
29487SOL    HW191992   9.499   8.574   9.057  0.1149 -0.2203  0.2794
29487SOL    HW291993   9.349   8.592   9.053  0.1054 -0.2901 -3.6594
29488SOL     OW91994   6.766   7.905   0.806 -0.2331  0.2736  0.5309
29488SOL    HW191995   6.737   7.972   0.869 -0.4366 -0.3168  1.0719
29488SOL    HW291996   6.742   7.941   0.720 -0.9013  0.6271  0.8560
29489SOL     OW91997   1.377   7.658   3.797  0.6454  0.2158 -0.6709
29489SOL    HW191998   1.433   7.624   3.728  0.1547  0.0727 -1.0013
29489SOL    HW291999   1.433   7.720   3.845  1.1610 -0.1183 -0.8300
29490SOL     OW92000   9.056  11.078   5.564 -0.2020 -0.5781  0.2337
29490SOL    HW192001   8.995  11.107   5.632  0.5836 -0.5759  0.9577
29490SOL    HW292002   9.095  11.158   5.531  2.5535 -0.6891  2.7822
29491SOL     OW92003  10.677   7.636   0.561 -0.0890 -0.3718 -0.2368
29491SOL    HW192004  10.586   7.620   0.589  0.3446 -2.3133  0.2328
29491SOL    HW292005  10.687   7.731   0.564 -1.6039 -0.2171  1.3484
29492SOL     OW92006  10.113   4.552  10.714  0.0852  0.0405  0.6455
29492SOL    HW192007  10.196   4.549  10.761  0.1963 -0.8969  0.4068
29492SOL    HW292008  10.074   4.636  10.740  1.8751  1.3404 -0.5850
29493SOL     OW92009   0.131   5.190  10.938 -0.7388  0.4056  0.3020
29493SOL    HW192010   0.061   5.234  10.986 -1.0026 -1.0272  1.3170
29493SOL    HW292011   0.089   5.159  10.858 -1.0032  0.4834  0.4069
29494SOL     OW92012   8.914   6.080   8.400  0.2452 -0.0109 -0.2943
29494SOL    HW192013   8.830   6.042   8.426 -0.0353  1.3297  0.9314
29494SOL    HW292014   8.917   6.070   8.305 -0.9529 -0.7628 -0.2702
29495SOL     OW92015   0.105   3.580   7.012  0.0528 -0.3291 -0.2278
29495SOL    HW192016   0.020   3.618   7.036  0.5855  1.8884 -1.5160
29495SOL    HW292017   0.135   3.537   7.091 -1.1097  1.1167  1.0649
29496SOL     OW92018   6.309  10.768  10.599 -0.3075 -0.2996 -0.7505
29496SOL    HW192019   6.308  10.812  10.684  1.3004  0.7689 -1.2142
29496SOL    HW292020   6.328  10.677  10.619  1.7310  0.2230  0.0156
29497SOL     OW92021   8.701   0.446   9.713  0.1179  0.0044 -0.4764
29497SOL    HW192022   8.684   0.505   9.640  0.3723 -1.8790 -2.1181
29497SOL    HW292023   8.616   0.408   9.734  0.3624 -0.9395 -1.1443
29498SOL     OW92024   2.947   1.920   3.866 -0.3483  0.1038  0.3599
29498SOL    HW192025   2.999   1.888   3.792 -0.4193 -0.0193  0.3624
29498SOL    HW292026   2.918   1.840   3.910 -3.9226 -0.0477 -1.9121
29499SOL     OW92027  10.905   3.883   1.222  0.2952  0.1930  0.2769
29499SOL    HW192028  10.978   3.914   1.168  0.9505 -1.4871  0.1234
29499SOL    HW292029  10.835   3.865   1.160  0.1194  0.7674  0.3019
29500SOL     OW92030   5.268   8.075   6.919 -0.1342 -0.0491 -0.0671
29500SOL    HW192031   5.280   7.982   6.900 -1.7589 -0.3338  0.1382
29500SOL    HW292032   5.269   8.117   6.833 -0.0821 -0.3499 -0.2177
29501SOL     OW92033   3.754   0.174   9.633 -0.4414 -0.1844  0.2363
29501SOL    HW192034   3.669   0.136   9.610 -0.4187 -1.4727  2.1008
29501SOL    HW292035   3.740   0.215   9.718  1.1110 -1.6104  1.2211
29502SOL     OW92036   7.670   0.331   6.628 -0.0244  0.2573  0.4002
29502SOL    HW192037   7.743   0.380   6.666  0.6985 -0.1032 -0.4681
29502SOL    HW292038   7.699   0.240   6.631 -0.1043  0.1879 -0.6521
29503SOL     OW92039   7.711  10.222   5.745 -0.2733  0.2565 -0.0981
29503SOL    HW192040   7.768  10.237   5.669 -1.3476  2.2196 -0.5821
29503SOL    HW292041   7.772  10.211   5.818  0.7747 -1.3788 -1.1585
29504SOL     OW92042   6.532   4.984   4.965 -0.5071  0.1970  0.9798
29504SOL    HW192043   6.600   4.921   4.941  0.2740  0.2202  2.9766
29504SOL    HW292044   6.577   5.068   4.967 -1.1736  0.5947 -0.0455
29505SOL     OW92045   1.387   7.518   9.390  0.1853  0.0419  0.2258
29505SOL    HW192046   1.312   7.576   9.384 -0.8876 -0.9865  2.6829
29505SOL    HW292047   1.438   7.550   9.464  2.5154  0.9806 -1.6354
29506SOL     OW92048   0.408  10.142   1.349 -0.2031 -0.2309  0.2434
29506SOL    HW192049   0.406  10.106   1.437 -2.6517 -1.4423 -0.2052
29506SOL    HW292050   0.321  10.180   1.337  0.2873  0.4452 -1.4452
29507SOL     OW92051   5.289   8.653  10.795 -0.1873 -0.0085  0.1235
29507SOL    HW192052   5.326   8.565  10.796  0.6841  0.2134 -2.8494
29507SOL    HW292053   5.364   8.710  10.775 -0.8102  1.3940  1.5991
29508SOL     OW92054   7.046   0.992   7.142 -0.4125  0.5678  0.7749
29508SOL    HW192055   7.096   1.073   7.128  0.4431 -0.0519  0.0825
29508SOL    HW292056   6.959   1.021   7.167  0.1308  1.7000  1.4360
29509SOL     OW92057   4.837   7.376   2.745 -0.1607 -0.0105 -0.3345
29509SOL    HW192058   4.795   7.306   2.796  1.8616 -0.1788  1.2166
29509SOL    HW292059   4.876   7.331   2.670  1.1913 -0.6310  0.6934
29510SOL     OW92060   9.329   0.641  10.946 -0.4183 -0.0900 -0.1302
29510SOL    HW192061   9.314   0.721  10.997  0.1213  1.2546 -1.9621
29510SOL    HW292062   9.243   0.621  10.909 -0.5663 -0.4199  0.3747
29511SOL     OW92063  10.808   9.250   6.591  0.1474 -0.6692  0.3833
29511SOL    HW192064  10.900   9.227   6.584  0.3227  0.3288 -0.9268
29511SOL    HW292065  10.799   9.332   6.543 -1.5282 -1.0346 -0.0166
29512SOL     OW92066   9.593   4.970   8.895  0.0835  0.5725  0.4715
29512SOL    HW192067   9.535   4.899   8.922 -0.5523  1.1104  0.5533
29512SOL    HW292068   9.679   4.945   8.929 -0.5492  0.8757  2.3847
29513SOL     OW92069  10.973  10.393  10.529 -0.8576 -0.0282 -0.0486
29513SOL    HW192070  11.032  10.440  10.470 -1.3798 -0.5731 -1.0241
29513SOL    HW292071  11.012  10.306  10.537 -1.2533 -0.2347 -0.3059
29514SOL     OW92072   2.721   1.492   5.711 -0.1772 -0.0132 -0.5032
29514SOL    HW192073   2.785   1.424   5.730 -2.2896 -2.0661 -0.3297
29514SOL    HW292074   2.648   1.446   5.670 -1.7510  2.1349 -0.2975
29515SOL     OW92075   0.215   4.623   2.402  0.3723 -0.6560 -0.6804
29515SOL    HW192076   0.301   4.581   2.414 -0.0595 -1.5296 -0.5487
29515SOL    HW292077   0.162   4.556   2.358  0.3547  0.5946 -2.7208
29516SOL     OW92078   1.058   1.478   2.563  0.6658  0.4334  0.3629
29516SOL    HW192079   0.976   1.508   2.602  0.1266  0.8720 -1.0174
29516SOL    HW292080   1.093   1.556   2.520  0.7369 -0.2162 -0.7988
29517SOL     OW92081   5.364   1.160   6.408  0.2806 -0.1054  0.1323
29517SOL    HW192082   5.355   1.084   6.351 -1.9403 -0.4115  0.7650
29517SOL    HW292083   5.276   1.174   6.443  0.6383  2.7140  0.1322
29518SOL     OW92084   5.745   2.511  10.743 -0.0696 -0.0409 -0.1171
29518SOL    HW192085   5.766   2.555  10.660 -0.2856  0.0188 -0.1423
29518SOL    HW292086   5.761   2.418  10.725 -0.7662 -0.1045 -0.4382
29519SOL     OW92087   3.147   5.921  10.867  0.2627 -0.3999 -0.6840
29519SOL    HW192088   3.061   5.894  10.901  0.0589 -0.2953 -1.1072
29519SOL    HW292089   3.187   5.840  10.836  0.8825 -0.6615  0.7280
29520SOL     OW92090   5.987  10.652   9.272 -0.0429  0.0801  0.9064
29520SOL    HW192091   5.896  10.627   9.256 -0.0078  0.6072 -0.2379
29520SOL    HW292092   5.987  10.685   9.361 -0.6405 -1.3747  1.4865
29521SOL     OW92093   0.791  10.125   4.469 -0.2554  0.2888  0.8630
29521SOL    HW192094   0.837  10.186   4.527 -0.8531 -0.5851  2.2774
29521SOL    HW292095   0.745  10.065   4.527 -1.4396 -0.1993 -0.5207
29522SOL     OW92096  10.162   0.873   9.609  0.1223 -0.0179 -0.6480
29522SOL    HW192097  10.147   0.824   9.690  1.3910  1.6916  0.6921
29522SOL    HW292098  10.155   0.807   9.539 -1.0900 -1.5176  0.8148
29523SOL     OW92099   8.265   0.492   4.577  0.1557 -0.4824 -0.7910
29523SOL    HW192100   8.327   0.562   4.556 -0.5402  0.1896 -0.6631
29523SOL    HW292101   8.297   0.416   4.529 -0.6571  0.6468 -3.3367
29524SOL     OW92102   7.596   0.168   5.814 -0.3004  0.5981 -0.3516
29524SOL    HW192103   7.633   0.142   5.899 -0.7189  0.1801 -0.2973
29524SOL    HW292104   7.611   0.262   5.810 -0.0445  0.5810  0.0711
29525SOL     OW92105   8.353   6.075   3.944  0.6806  0.0500 -0.2406
29525SOL    HW192106   8.333   6.167   3.933  0.2597 -0.2085 -1.9243
29525SOL    HW292107   8.371   6.043   3.855  2.4840 -1.1187  0.4727
29526SOL     OW92108   1.798   7.765   0.548 -0.1913 -0.1666  0.0556
29526SOL    HW192109   1.775   7.794   0.637 -2.0319  0.6508 -0.6431
29526SOL    HW292110   1.776   7.839   0.492  2.9572  0.1605 -0.9268
29527SOL     OW92111   7.015   5.130   6.101  0.1090  0.5805 -0.0009
29527SOL    HW192112   7.030   5.222   6.121  1.2224  0.3096  0.4417
29527SOL    HW292113   7.089   5.084   6.140 -1.3684 -0.7252  1.4132
29528SOL     OW92114   8.047   2.175   8.190 -0.4879  0.6211  0.1874
29528SOL    HW192115   8.062   2.095   8.140  0.8044  0.1124  1.3240
29528SOL    HW292116   8.000   2.147   8.268 -0.6588  1.0900  0.2574
29529SOL     OW92117   1.723   1.378   1.067 -0.6214 -0.2540  0.1026
29529SOL    HW192118   1.649   1.375   1.007  0.8633 -1.1264 -1.8140
29529SOL    HW292119   1.711   1.302   1.124 -0.9447 -0.6700 -0.5151
29530SOL     OW92120   9.720   5.958   0.757 -0.7107  0.2591 -0.1247
29530SOL    HW192121   9.781   5.887   0.777  0.4474  1.1126 -0.5162
29530SOL    HW292122   9.664   5.924   0.687 -0.3563 -0.3568 -0.1104
29531SOL     OW92123   8.918  10.652   3.595  0.2533 -0.5400  0.2545
29531SOL    HW192124   8.933  10.619   3.683  1.2431  2.5953  1.4244
29531SOL    HW292125   9.006  10.659   3.557 -0.0985 -1.0698 -0.6949
29532SOL     OW92126  11.051   3.757   7.107 -0.5276  0.6628  0.3495
29532SOL    HW192127  11.106   3.818   7.156 -1.1027  1.5067 -0.0329
29532SOL    HW292128  10.965   3.762   7.150 -0.0899 -1.4501  1.6287
29533SOL     OW92129   7.096   0.895   1.652  0.0028  0.3618  0.2430
29533SOL    HW192130   7.104   0.814   1.602 -2.5405 -0.3732  0.8662
29533SOL    HW292131   7.107   0.868   1.743  1.2559  1.1129  0.3333
29534SOL     OW92132   7.717   1.195   6.662  0.0868  0.1498  0.2404
29534SOL    HW192133   7.757   1.258   6.603  0.3519 -0.2952 -0.0649
29534SOL    HW292134   7.781   1.124   6.668  0.3759  0.4872  1.5985
29535SOL     OW92135  10.625   7.248   7.313  0.2417 -0.6565 -0.0861
29535SOL    HW192136  10.632   7.288   7.400  0.4191 -1.5200  0.3135
29535SOL    HW292137  10.546   7.194   7.318  0.6072 -1.2178 -0.2381
29536SOL     OW92138   2.272   8.599   5.201 -0.1853  1.0702 -0.1598
29536SOL    HW192139   2.260   8.609   5.295 -0.0612  0.2220 -0.0424
29536SOL    HW292140   2.260   8.687   5.166 -0.3158  1.3830  0.6366
29537SOL     OW92141   7.086   0.370   4.075  0.1797 -0.1167  0.5255
29537SOL    HW192142   7.062   0.294   4.022  0.1914 -1.5626  2.4924
29537SOL    HW292143   7.003   0.401   4.112 -0.0653  1.8983 -1.5148
29538SOL     OW92144  10.426   8.035  10.192 -0.0009  0.4451 -0.3799
29538SOL    HW192145  10.436   8.110  10.133 -1.9596  0.3016 -0.9330
29538SOL    HW292146  10.345   7.992  10.165  0.4952 -1.2479  0.6466
29539SOL     OW92147   0.767   7.176   0.197 -0.0773  0.0943  0.5471
29539SOL    HW192148   0.691   7.230   0.174 -0.5051 -0.1848  1.2575
29539SOL    HW292149   0.741   7.131   0.277  0.0987 -1.5305 -0.2736
29540SOL     OW92150  10.522   4.497   7.454  0.1042  0.4883 -0.3696
29540SOL    HW192151  10.520   4.437   7.379  0.7564  0.3481 -0.2838
29540SOL    HW292152  10.493   4.444   7.528 -0.6710  0.6622 -0.5345
29541SOL     OW92153   8.805   1.152   7.863  0.1528  0.2345  0.3401
29541SOL    HW192154   8.739   1.137   7.931  1.1380 -1.2198  1.0237
29541SOL    HW292155   8.880   1.188   7.912  0.3835  0.4904 -0.1987
29542SOL     OW92156   3.977   3.938   2.202  0.0250 -0.6922 -0.3913
29542SOL    HW192157   3.999   3.870   2.138  0.0884 -0.1850 -0.9219
29542SOL    HW292158   3.975   4.019   2.151 -0.4121 -0.3448  0.1595
29543SOL     OW92159   0.933   2.842   1.406  0.1693 -0.5806  0.3439
29543SOL    HW192160   0.997   2.912   1.418 -0.2953 -0.0030 -0.4915
29543SOL    HW292161   0.959   2.800   1.324  0.3437 -1.2875  0.7561
29544SOL     OW92162   9.723   6.100   8.207  1.0266  0.0092  0.3399
29544SOL    HW192163   9.702   6.098   8.114  1.3234  0.4751  0.2581
29544SOL    HW292164   9.653   6.050   8.249  0.7099  0.0812 -0.1006
29545SOL     OW92165   7.196   9.709   7.512  0.2591 -0.0548 -0.8128
29545SOL    HW192166   7.227   9.770   7.445  0.2912 -0.6164 -1.3182
29545SOL    HW292167   7.276   9.665   7.543  0.2851  0.4318 -0.1691
29546SOL     OW92168   1.771   6.752   4.595  0.4980 -0.2386  0.3467
29546SOL    HW192169   1.715   6.829   4.608  0.4489  0.0168 -1.1964
29546SOL    HW292170   1.714   6.678   4.617 -0.0473  0.0816  0.0501
29547SOL     OW92171   6.637   1.801   1.539  0.1297 -0.1909 -0.2883
29547SOL    HW192172   6.551   1.802   1.581  0.4409 -0.3695  0.3677
29547SOL    HW292173   6.688   1.738   1.590  0.4732 -0.5330 -1.0401
29548SOL     OW92174   2.801   2.494   9.692  0.1458 -0.3231  0.4860
29548SOL    HW192175   2.721   2.545   9.700 -0.1267 -0.9808  2.9258
29548SOL    HW292176   2.867   2.555   9.660 -0.7878  0.8596  0.7768
29549SOL     OW92177   2.474   9.194   4.851  0.3105  0.4318 -0.3424
29549SOL    HW192178   2.448   9.250   4.924  0.1680 -0.0001 -0.0634
29549SOL    HW292179   2.532   9.249   4.799  1.0764  0.4699  0.5327
29550SOL     OW92180   2.379   1.286   9.421  0.7762 -0.0806 -0.0780
29550SOL    HW192181   2.430   1.207   9.441  0.7383 -0.2156 -0.5080
29550SOL    HW292182   2.343   1.270   9.334  0.9861  0.5273 -0.2770
29551SOL     OW92183   5.655   6.662   3.609  0.3826 -0.7478 -0.1123
29551SOL    HW192184   5.593   6.589   3.614 -1.9679  1.1587  0.8143
29551SOL    HW292185   5.642   6.699   3.522 -1.1792  0.7006  0.6749
29552SOL     OW92186   0.559  10.387   1.009 -0.3172  0.3215  0.3530
29552SOL    HW192187   0.557  10.340   0.925 -0.2566  0.4807  0.2635
29552SOL    HW292188   0.578  10.319   1.074  1.5683  0.4980  0.0306
29553SOL     OW92189   4.754   9.716   8.466  0.4179 -0.0243 -0.2569
29553SOL    HW192190   4.794   9.793   8.426 -1.2314  1.3713  0.6464
29553SOL    HW292191   4.827   9.667   8.503  1.4273  1.7719  0.2482
29554SOL     OW92192   2.220   9.523   4.947  0.0163  0.5228 -0.2917
29554SOL    HW192193   2.144   9.576   4.923  0.9976  1.1339 -2.3582
29554SOL    HW292194   2.274   9.522   4.867  1.2972 -1.4087  0.5276
29555SOL     OW92195   9.417  10.920   5.357 -0.2710 -0.4529 -0.0083
29555SOL    HW192196   9.326  10.919   5.387  0.5388  0.0214  2.7647
29555SOL    HW292197   9.468  10.904   5.437  2.0794 -0.7794 -1.5055
29556SOL     OW92198   3.170   3.563  10.052 -0.3408  0.4298  0.0465
29556SOL    HW192199   3.228   3.591  10.123 -0.2849  0.7132 -0.1121
29556SOL    HW292200   3.224   3.572   9.973 -0.6480  0.8237 -0.1176
29557SOL     OW92201   0.109   5.444   5.524 -0.0278 -0.1885  0.0781
29557SOL    HW192202   0.160   5.513   5.567  1.1913 -0.9597 -0.1024
29557SOL    HW292203   0.069   5.488   5.448 -0.5768  0.6934  0.8523
29558SOL     OW92204   7.656   1.818   3.728 -0.4775  0.3151  0.5541
29558SOL    HW192205   7.644   1.746   3.666  0.0370  0.3727  0.3819
29558SOL    HW292206   7.581   1.812   3.786 -1.2485  0.5864 -0.3919
29559SOL     OW92207   9.679   9.148   1.660 -0.9100  0.8600 -0.4024
29559SOL    HW192208   9.609   9.206   1.631 -2.3053  1.0366  2.9422
29559SOL    HW292209   9.721   9.195   1.732  0.2859 -0.8058  0.0392
29560SOL     OW92210   7.385   3.958   7.531  0.1031  0.2049 -0.1376
29560SOL    HW192211   7.295   3.956   7.563  0.9346  0.5801  2.4154
29560SOL    HW292212   7.407   4.051   7.527  0.9972  0.0708  1.2106
29561SOL     OW92213   8.068   2.776   8.562 -0.3723  0.3561  0.3859
29561SOL    HW192214   8.119   2.814   8.491  0.9430 -1.9399 -0.0073
29561SOL    HW292215   7.997   2.729   8.519 -0.8058  0.6822  0.7344
29562SOL     OW92216   7.473   7.993   3.892  0.1055 -0.2465  0.2061
29562SOL    HW192217   7.418   8.001   3.814  0.9691 -0.3334 -0.4203
29562SOL    HW292218   7.487   8.083   3.921  1.0145 -0.1029 -0.6241
29563SOL     OW92219   1.132   0.273   3.817  0.0829 -0.0005  0.3147
29563SOL    HW192220   1.081   0.256   3.738  1.3992  0.9930 -0.7849
29563SOL    HW292221   1.201   0.207   3.815 -0.0087 -0.1119  0.7592
29564SOL     OW92222   9.593   2.534   7.528  0.2999  0.6226 -0.1364
29564SOL    HW192223   9.528   2.492   7.584  1.1142  0.3567  0.6279
29564SOL    HW292224   9.594   2.482   7.449 -0.7807  0.9301 -0.3748
29565SOL     OW92225  10.994   1.764  10.538 -0.2887  0.2403  0.4064
29565SOL    HW192226  11.035   1.755  10.624 -3.4168  3.0553  2.4368
29565SOL    HW292227  11.050   1.827  10.491  0.4290  0.1011  1.0535
29566SOL     OW92228   0.057   4.415   2.291  0.0192 -0.3018 -0.0173
29566SOL    HW192229   0.045   4.349   2.360  0.2703 -0.3539 -0.0198
29566SOL    HW292230   0.085   4.364   2.215 -0.8461 -0.3150 -0.3362
29567SOL     OW92231   0.576   6.226   4.663 -0.6948  0.7636 -0.1921
29567SOL    HW192232   0.574   6.189   4.751 -0.3577  0.5307 -0.2812
29567SOL    HW292233   0.484   6.241   4.640 -0.9788 -1.6663 -0.8575
29568SOL     OW92234   3.548   0.368   0.642 -0.5501 -0.0236 -0.4577
29568SOL    HW192235   3.638   0.337   0.630 -0.7400 -1.4558  1.3864
29568SOL    HW292236   3.493   0.296   0.612 -1.0797  0.5412 -0.8686
29569SOL     OW92237   2.033   5.618   9.145  0.2009  0.1870  0.0507
29569SOL    HW192238   2.066   5.707   9.152  0.2928  0.2569 -1.1437
29569SOL    HW292239   1.938   5.628   9.137  0.3750  0.3553 -2.4893
29570SOL     OW92240   9.196   2.894   7.032  0.6573  0.0171 -0.5293
29570SOL    HW192241   9.260   2.861   6.968  1.3105 -0.0137  0.1277
29570SOL    HW292242   9.236   2.974   7.066  1.5884 -1.3053  1.7397
29571SOL     OW92243   1.725  10.193   2.678  0.2633 -0.0911  0.5053
29571SOL    HW192244   1.808  10.223   2.640 -0.4202  1.0613 -0.1475
29571SOL    HW292245   1.709  10.109   2.636  0.6322  0.1286 -0.1007
29572SOL     OW92246   0.958   4.699   9.740  0.1173 -0.2452  0.2573
29572SOL    HW192247   0.929   4.764   9.804 -0.7641 -0.8443  0.4919
29572SOL    HW292248   0.879   4.648   9.720  0.5919 -0.6794 -0.5882
29573SOL     OW92249   9.979   4.804   9.527 -0.0777 -0.4149  0.1950
29573SOL    HW192250  10.001   4.836   9.439 -1.6283 -3.5274 -1.4837
29573SOL    HW292251   9.970   4.709   9.517 -1.4771 -0.7743  3.5083
29574SOL     OW92252   7.864   9.865   7.109  0.1040  0.0823  0.6530
29574SOL    HW192253   7.920   9.821   7.045  0.2174  0.9475  0.1510
29574SOL    HW292254   7.832   9.943   7.064  0.4296  0.8690  1.7414
29575SOL     OW92255   5.495   0.466   4.094 -0.3315  0.1027 -0.0578
29575SOL    HW192256   5.558   0.432   4.158 -0.0043 -0.0616 -0.4595
29575SOL    HW292257   5.516   0.419   4.013 -1.5120 -0.5689  0.0082
29576SOL     OW92258   9.615   3.136   6.667 -0.1852  0.0990 -0.0368
29576SOL    HW192259   9.622   3.041   6.660 -0.5165  0.1212 -0.7880
29576SOL    HW292260   9.571   3.163   6.586  0.3533  0.9444 -0.0620
29577SOL     OW92261   0.079   0.686  10.113 -0.2216 -0.1876 -0.1971
29577SOL    HW192262   0.168   0.699  10.145  0.1938 -0.5246 -1.1862
29577SOL    HW292263   0.070   0.749  10.041 -1.0552  0.3892  0.3907
29578SOL     OW92264   7.848   0.958   7.766  0.1114 -0.4062 -0.0741
29578SOL    HW192265   7.763   0.923   7.739  0.6854 -0.8104 -1.4756
29578SOL    HW292266   7.905   0.939   7.692  1.6143 -0.8081  1.1506
29579SOL     OW92267   8.417   4.271   5.468  0.5643  0.3948 -0.9260
29579SOL    HW192268   8.444   4.263   5.377 -1.9903 -0.6159 -1.6894
29579SOL    HW292269   8.349   4.339   5.467 -1.3682 -1.4095 -0.3417
29580SOL     OW92270   6.258   1.106   0.896 -0.1563  0.4736 -0.2511
29580SOL    HW192271   6.323   1.050   0.939 -1.4238 -0.4127  0.5950
29580SOL    HW292272   6.249   1.182   0.952 -0.3673  0.2456  0.0303
29581SOL     OW92273   6.393   3.487   5.695  0.3408  0.1738 -0.1139
29581SOL    HW192274   6.397   3.489   5.790  0.2264  2.3563 -0.1094
29581SOL    HW292275   6.395   3.579   5.669  1.0149 -0.3884 -2.2542
29582SOL     OW92276  11.072   9.245   4.343 -0.4088 -0.1750  0.3236
29582SOL    HW192277  11.021   9.178   4.297  0.2548 -0.7107  0.3409
29582SOL    HW292278  11.160   9.207   4.349  0.2580  1.1545 -0.6067
29583SOL     OW92279   5.962   0.503   6.610  0.3636  0.2002  0.3805
29583SOL    HW192280   6.031   0.444   6.641 -1.3003 -0.7653  2.4863
29583SOL    HW292281   5.909   0.448   6.551 -1.1836 -0.5095  2.3393
29584SOL     OW92282   9.281   0.751   5.278 -0.7002  0.5471  0.0909
29584SOL    HW192283   9.275   0.670   5.227  2.5984  0.1996  0.0508
29584SOL    HW292284   9.263   0.723   5.368  2.0366 -0.7392  0.3565
29585SOL     OW92285   7.312  10.968   1.849  0.8572  0.3405  0.2547
29585SOL    HW192286   7.252  10.895   1.832  1.5816 -0.4153  0.8841
29585SOL    HW292287   7.394  10.942   1.808  1.6932 -0.1022  2.1303
29586SOL     OW92288   0.632   5.626   2.818 -0.0616  0.3845  0.3250
29586SOL    HW192289   0.675   5.642   2.734 -0.8754  0.0284 -0.1712
29586SOL    HW292290   0.629   5.531   2.825  1.6450  0.3896  1.6299
29587SOL     OW92291   0.951   1.602   4.319 -0.5876  0.1614 -0.2857
29587SOL    HW192292   1.010   1.531   4.348 -1.1189  0.2477  1.0849
29587SOL    HW292293   0.900   1.623   4.397  0.9212  3.4573 -0.0195
29588SOL     OW92294   3.704   7.508  10.009 -0.0105 -0.2685  0.1064
29588SOL    HW192295   3.695   7.416  10.034 -0.4712 -0.3278 -0.2594
29588SOL    HW292296   3.662   7.513   9.923 -1.0922  0.5268  0.6554
29589SOL     OW92297   2.470  11.114   5.421 -0.5966  0.2800  0.1716
29589SOL    HW192298   2.382  11.086   5.395 -1.0050  0.3423  1.4204
29589SOL    HW292299   2.528  11.044   5.390 -0.9185  0.7939 -1.6976
29590SOL     OW92300  10.315   4.702   5.068  0.2602 -0.4402 -0.3287
29590SOL    HW192301  10.324   4.618   5.113  0.9869 -0.9537 -1.3881
29590SOL    HW292302  10.295   4.764   5.138  0.0334 -1.4287  0.5203
29591SOL     OW92303   8.291   2.854   3.190 -0.5835  0.4974  0.0585
29591SOL    HW192304   8.231   2.890   3.256 -0.4648  0.6693  0.0741
29591SOL    HW292305   8.360   2.811   3.240 -0.5273  0.5737  0.0461
29592SOL     OW92306   3.496   5.100   6.974  0.2820 -0.5204 -0.2632
29592SOL    HW192307   3.531   5.137   7.055 -0.3146 -1.0434  0.2441
29592SOL    HW292308   3.440   5.169   6.938  1.1106 -0.0110 -0.6277
29593SOL     OW92309   4.596   7.477  10.212 -0.4579 -0.1906  0.7445
29593SOL    HW192310   4.614   7.517  10.127 -0.3386 -0.6493  0.5523
29593SOL    HW292311   4.567   7.388  10.191  3.9236 -1.9859  1.2843
29594SOL     OW92312   0.300   1.277   8.504 -0.3603 -0.2421 -0.0499
29594SOL    HW192313   0.327   1.242   8.419  1.1710 -0.0395  0.3263
29594SOL    HW292314   0.263   1.363   8.485 -1.8169 -0.9823 -0.7019
29595SOL     OW92315   2.445  10.805   3.865  0.0717  0.1743  0.1535
29595SOL    HW192316   2.469  10.883   3.914  1.8513 -0.0724 -0.2403
29595SOL    HW292317   2.447  10.832   3.773  1.2238 -0.4330 -0.0164
29596SOL     OW92318   8.768   7.703   2.309 -0.3192  0.1757 -0.0763
29596SOL    HW192319   8.834   7.696   2.240 -0.4551 -0.3000 -0.1636
29596SOL    HW292320   8.706   7.633   2.290 -0.6019  0.3266  0.2720
29597SOL     OW92321   9.712  10.405   4.998 -0.0135  0.2969  0.0488
29597SOL    HW192322   9.761  10.387   5.078  0.5065  0.7480 -0.1635
29597SOL    HW292323   9.626  10.436   5.029 -0.8126 -2.1225  0.4202
29598SOL     OW92324   8.689   4.817   5.144 -0.2495 -0.7171 -0.4974
29598SOL    HW192325   8.618   4.881   5.154 -0.7116 -1.1998 -0.6474
29598SOL    HW292326   8.712   4.792   5.233  1.4529  1.2776 -0.3003
29599SOL     OW92327   3.249   8.501   7.095 -0.6746 -0.4723 -0.5333
29599SOL    HW192328   3.205   8.470   7.174  1.7081 -2.2170  0.2416
29599SOL    HW292329   3.235   8.432   7.030 -1.7286  0.4611 -1.3310
29600SOL     OW92330   5.976   4.664   8.196  0.3360  0.0003 -0.5793
29600SOL    HW192331   5.989   4.669   8.101  0.5616 -0.2695 -0.5655
29600SOL    HW292332   6.023   4.584   8.222  0.8162  0.4143 -0.1515
29601SOL     OW92333   0.722   4.633   9.341  0.2424  0.1422 -0.1988
29601SOL    HW192334   0.778   4.556   9.354  0.5439  0.5103  0.7482
29601SOL    HW292335   0.642   4.613   9.390 -0.1507 -0.0500 -0.9056
29602SOL     OW92336  10.694   7.520   2.578 -0.3127  0.3353  0.2696
29602SOL    HW192337  10.663   7.530   2.488 -0.7422  1.9357  0.5639
29602SOL    HW292338  10.699   7.610   2.612  0.9576 -0.1569  1.4766
29603SOL     OW92339   0.750   9.004   4.218  0.0920  0.0811 -0.2902
29603SOL    HW192340   0.816   9.072   4.206 -0.0494 -0.0242 -1.8614
29603SOL    HW292341   0.687   9.019   4.148 -0.0212 -1.5730 -0.5763
29604SOL     OW92342   2.335   6.186   9.844  0.0807 -0.1604  0.2046
29604SOL    HW192343   2.257   6.160   9.795 -0.5279  0.3488  0.8904
29604SOL    HW292344   2.378   6.104   9.865  0.3718 -0.3895 -1.2068
29605SOL     OW92345   0.429   5.851   6.046  0.1900  0.2269 -0.4319
29605SOL    HW192346   0.492   5.791   6.005  0.9314  0.5925  0.1566
29605SOL    HW292347   0.477   5.932   6.058  0.1103  0.0464  1.4349
29606SOL     OW92348   0.292   3.270   7.256 -0.0179 -0.2130  0.1228
29606SOL    HW192349   0.379   3.246   7.290  0.1126 -0.0763 -0.1169
29606SOL    HW292350   0.298   3.363   7.237 -0.2154 -0.2054  0.0939
29607SOL     OW92351   0.872  10.707  10.540 -0.1369 -0.3847 -0.0711
29607SOL    HW192352   0.856  10.639  10.605  2.3233 -2.2405 -1.2731
29607SOL    HW292353   0.809  10.690  10.470 -0.2358 -0.7644  0.1127
29608SOL     OW92354  10.695   8.970   9.313  0.0079 -0.1273  0.4468
29608SOL    HW192355  10.718   8.976   9.406 -1.4578 -3.0033  1.0947
29608SOL    HW292356  10.777   8.945   9.270  0.3655 -0.2626  1.1848
29609SOL     OW92357  10.456   8.232   3.528 -0.2998  0.0708  0.1684
29609SOL    HW192358  10.452   8.326   3.549 -0.9733  0.0706  0.0670
29609SOL    HW292359  10.450   8.189   3.613  2.9111  0.1335  0.5151
29610SOL     OW92360  10.365   5.567   2.595 -0.3427  0.3948  0.4108
29610SOL    HW192361  10.353   5.615   2.676 -0.9485  2.2671 -0.7245
29610SOL    HW292362  10.296   5.599   2.537  0.7015 -0.0912 -1.1875
29611SOL     OW92363   1.954   9.413   8.257 -0.1988 -0.4633  0.0100
29611SOL    HW192364   2.026   9.352   8.274  0.6400  0.5800  0.3441
29611SOL    HW292365   1.975   9.490   8.311 -0.6821  0.5133 -1.1384
29612SOL     OW92366  10.182   8.327   6.055 -0.5646 -0.2193  0.1671
29612SOL    HW192367  10.226   8.329   6.140  1.0788 -2.0806 -0.5766
29612SOL    HW292368  10.237   8.379   5.997 -1.3836  0.5746  0.0696
29613SOL     OW92369   4.440  10.056   9.251 -0.2543 -0.2906 -0.2318
29613SOL    HW192370   4.424   9.962   9.259  1.7493 -0.7421 -1.0743
29613SOL    HW292371   4.395  10.081   9.170 -2.3736 -0.0728  0.9234
29614SOL     OW92372  10.907   9.294   3.933 -0.0800  0.1228  0.2841
29614SOL    HW192373  10.963   9.348   3.989 -1.7558 -0.0373  2.2203
29614SOL    HW292374  10.849   9.356   3.890 -0.6230  0.0278  0.8795
29615SOL     OW92375   9.441   1.455   3.074 -0.5466  0.2631  0.0736
29615SOL    HW192376   9.347   1.441   3.065 -0.7843  0.3037  2.0402
29615SOL    HW292377   9.480   1.368   3.064 -0.7395  0.2991 -1.1087
29616SOL     OW92378   1.179   6.826   5.074  0.1389 -0.3242  0.7889
29616SOL    HW192379   1.262   6.794   5.037 -0.2029 -0.8158  0.4417
29616SOL    HW292380   1.202   6.854   5.163  0.7413 -0.1579  0.5878
29617SOL     OW92381   8.751   5.381   4.082  0.0362 -0.3378 -0.0625
29617SOL    HW192382   8.712   5.433   4.011 -0.1809  0.1375  0.3956
29617SOL    HW292383   8.837   5.420   4.096  0.1483 -0.5424 -0.1831
29618SOL     OW92384   6.710   6.358   9.574 -0.7432  0.1130  0.2871
29618SOL    HW192385   6.634   6.315   9.536 -0.3174 -0.2714 -0.1389
29618SOL    HW292386   6.768   6.287   9.600  0.5412  0.3928 -1.5905
29619SOL     OW92387   0.976   5.075  11.125 -0.2578  0.0680  0.3711
29619SOL    HW192388   1.068   5.048  11.131  0.2694  1.6953  0.2233
29619SOL    HW292389   0.950   5.051  11.037  0.4065  0.6505  0.0019
29620SOL     OW92390  10.314   7.744   3.954  0.3351 -0.1698 -0.7480
29620SOL    HW192391  10.367   7.773   4.028 -1.1787  0.1844  0.2384
29620SOL    HW292392  10.314   7.819   3.894  0.1483  0.2007 -0.2925
29621SOL     OW92393  10.903   9.607   8.649 -0.3735  0.0084  0.2144
29621SOL    HW192394  10.939   9.680   8.698  3.2118  0.3525 -2.5480
29621SOL    HW292395  10.822   9.641   8.610 -0.8125  1.1578  2.0092
29622SOL     OW92396   2.780   3.144   7.590  0.1100 -0.3315  1.0223
29622SOL    HW192397   2.834   3.209   7.634  0.1859 -0.6853  1.4539
29622SOL    HW292398   2.841   3.073   7.568  0.2691  0.2216 -0.4623
29623SOL     OW92399   7.145   6.684   3.634  0.4651  0.0173 -0.5164
29623SOL    HW192400   7.073   6.712   3.577 -1.0219  0.1321  1.3479
29623SOL    HW292401   7.161   6.593   3.608 -0.5284 -0.0932 -0.7781
29624SOL     OW92402   5.912   5.754   3.805 -0.1903  0.0955 -0.0027
29624SOL    HW192403   5.927   5.812   3.730 -0.6334  0.9950  0.5882
29624SOL    HW292404   5.879   5.673   3.765 -1.8801  1.0642 -0.7284
29625SOL     OW92405   9.816  10.592   5.984 -0.1845  0.8031 -0.5425
29625SOL    HW192406   9.905  10.628   5.993 -0.3129  1.2457 -0.9979
29625SOL    HW292407   9.758  10.666   6.005 -0.4526  0.3250  0.4761
29626SOL     OW92408   3.553   4.084   0.089 -0.1395  0.3159  0.1280
29626SOL    HW192409   3.500   4.074   0.168 -0.1176 -0.7702  0.0158
29626SOL    HW292410   3.535   4.005   0.038  1.6469 -0.1261  0.1319
29627SOL     OW92411   7.904   2.364   8.672  0.2149  0.4603  0.0503
29627SOL    HW192412   7.883   2.314   8.751  0.8510 -0.4102 -0.3156
29627SOL    HW292413   8.000   2.357   8.664  0.1444  0.4408 -0.8536
29628SOL     OW92414   7.377   0.272   0.001 -0.7081 -0.1568 -0.5508
29628SOL    HW192415   7.460   0.287  -0.045 -0.1502 -0.6571  0.2661
29628SOL    HW292416   7.320   0.343  -0.029 -0.3440 -0.4205 -1.9322
29629SOL     OW92417   2.450   8.861   0.580  1.1224 -0.2822 -0.0142
29629SOL    HW192418   2.451   8.765   0.578 -3.2938 -0.5345 -1.5513
29629SOL    HW292419   2.480   8.887   0.493  0.9496 -0.3582 -0.0974
29630SOL     OW92420   8.317   1.081   5.210 -0.0212  0.1714 -0.2434
29630SOL    HW192421   8.303   1.176   5.205 -0.8526  0.0468 -0.3844
29630SOL    HW292422   8.406   1.068   5.178 -0.0229  0.8712 -0.5367
29631SOL     OW92423   9.864   6.108   8.822 -0.5780 -0.0745  0.0656
29631SOL    HW192424   9.812   6.134   8.746  0.7350  2.0617 -0.1801
29631SOL    HW292425   9.800   6.091   8.891 -1.6342  2.0127 -0.3402
29632SOL     OW92426   4.807   1.888   5.079 -0.3532 -0.2254  0.4148
29632SOL    HW192427   4.833   1.799   5.103  0.6026  0.3540  1.6688
29632SOL    HW292428   4.718   1.898   5.113  0.4306  0.0772  2.5539
29633SOL     OW92429  10.541   5.242   0.077  0.0719 -0.1237 -0.1082
29633SOL    HW192430  10.550   5.291  -0.005  0.9373 -0.9854 -0.5440
29633SOL    HW292431  10.457   5.196   0.068  0.4975 -0.7936 -0.8521
29634SOL     OW92432   3.350   0.159   6.271  0.1621  0.4511 -0.4881
29634SOL    HW192433   3.335   0.080   6.323  0.7673 -0.3134 -1.4453
29634SOL    HW292434   3.443   0.178   6.281  0.3556  0.1157 -1.5063
29635SOL     OW92435   5.272   2.967   4.939  0.1227  0.0058 -0.4419
29635SOL    HW192436   5.269   2.872   4.927 -1.3370 -0.2233  1.2509
29635SOL    HW292437   5.217   3.001   4.868  0.5535 -0.4041 -0.9879
29636SOL     OW92438   0.586   7.724   7.153  0.1736  0.3029 -0.2754
29636SOL    HW192439   0.541   7.640   7.166 -0.5657  0.7942  0.4033
29636SOL    HW292440   0.634   7.712   7.071 -1.5284 -0.1076 -1.2707
29637SOL     OW92441   9.679   8.942   4.091  0.4007 -0.1659  0.1712
29637SOL    HW192442   9.640   8.971   4.173 -0.3348 -0.6953  0.0236
29637SOL    HW292443   9.658   9.011   4.029 -1.5868 -1.0631 -0.2468
29638SOL     OW92444   6.372   7.868   3.668 -0.6349  0.3225  0.6986
29638SOL    HW192445   6.464   7.843   3.679 -0.0764  2.0767  0.1910
29638SOL    HW292446   6.329   7.786   3.643  0.6951 -0.6169  1.3187
29639SOL     OW92447   5.485   5.090   0.205 -0.0484  0.1401 -0.1932
29639SOL    HW192448   5.502   5.010   0.156 -0.8717  0.0631 -0.3713
29639SOL    HW292449   5.536   5.157   0.160  0.1915 -0.1719 -0.3919
29640SOL     OW92450   0.054   5.564   7.199  0.0734 -0.1806  0.2322
29640SOL    HW192451   0.141   5.525   7.185  0.0362  0.2516 -1.3239
29640SOL    HW292452  -0.007   5.497   7.170  0.0049  0.8776 -2.2797
29641SOL     OW92453   0.875   6.991   6.731 -0.5394 -0.4038  0.1065
29641SOL    HW192454   0.875   6.970   6.824  0.6457 -0.7631  0.0419
29641SOL    HW292455   0.810   6.931   6.693  1.1791 -2.5086  0.2625
29642SOL     OW92456  10.862   6.069   7.784 -0.2819  0.0563 -0.1232
29642SOL    HW192457  10.911   6.097   7.707 -1.6229  0.7880 -0.7247
29642SOL    HW292458  10.773   6.057   7.753 -0.5678 -0.9694  1.0281
29643SOL     OW92459   1.178   3.874   2.534  0.5584  0.2874  0.5474
29643SOL    HW192460   1.225   3.919   2.605 -1.1267  1.9165  0.7009
29643SOL    HW292461   1.193   3.928   2.457  0.0561  0.0787  0.2973
29644SOL     OW92462   3.748   7.288   5.034 -0.2242  0.1666  0.2194
29644SOL    HW192463   3.813   7.340   4.986 -0.1481  0.1343  0.2894
29644SOL    HW292464   3.799   7.226   5.085 -0.2464  0.9801  1.2634
29645SOL     OW92465   3.187   1.867   0.916  0.0310  0.2214 -0.4001
29645SOL    HW192466   3.116   1.910   0.965 -0.4256 -3.2095  2.3315
29645SOL    HW292467   3.266   1.911   0.945 -0.5441  0.4319  0.9208
29646SOL     OW92468   3.206   8.647   2.882  0.3286 -0.3330  0.2053
29646SOL    HW192469   3.255   8.655   2.800 -0.0097  2.0291  0.1662
29646SOL    HW292470   3.115   8.640   2.855  0.3182 -0.8788  0.3689
29647SOL     OW92471   8.966   5.217   2.012 -0.0498 -0.0691  0.0122
29647SOL    HW192472   9.014   5.135   2.003  0.2705  0.1658 -0.4560
29647SOL    HW292473   9.008   5.261   2.085  0.0509 -0.1384 -0.0035
29648SOL     OW92474   4.425   9.609  10.476 -0.8639  0.0230  0.2353
29648SOL    HW192475   4.359   9.677  10.487  1.0673  2.0016  0.1916
29648SOL    HW292476   4.491   9.629  10.542  0.2464 -1.2323 -0.4523
29649SOL     OW92477   5.771   4.816   0.244  0.1219 -0.0792 -0.0723
29649SOL    HW192478   5.811   4.891   0.199 -0.4537  0.9256  1.0353
29649SOL    HW292479   5.757   4.752   0.175 -0.4507  1.2922 -1.2923
29650SOL     OW92480   5.872   5.978   1.105  0.1639  0.2119  0.6714
29650SOL    HW192481   5.921   5.939   1.178  0.3700  0.8516  0.8785
29650SOL    HW292482   5.862   5.906   1.042  1.9295  0.2283  0.3359
29651SOL     OW92483   3.244   8.588   7.946 -0.4011  0.9615  0.4185
29651SOL    HW192484   3.202   8.670   7.922  0.5060  1.3322  0.0634
29651SOL    HW292485   3.242   8.536   7.866 -2.8126 -0.2213  1.1346
29652SOL     OW92486   3.723  10.907   9.748 -0.2844 -0.5526 -0.4517
29652SOL    HW192487   3.755  10.972   9.811 -2.1903  0.2258 -0.2346
29652SOL    HW292488   3.750  10.941   9.663  1.3380 -1.0541 -0.1849
29653SOL     OW92489   9.208   0.505   9.822 -0.1726  0.4438 -0.0801
29653SOL    HW192490   9.249   0.509   9.736 -0.3195 -0.1241 -0.1802
29653SOL    HW292491   9.139   0.571   9.819 -0.2900  0.3090 -0.4617
29654SOL     OW92492   9.684   9.194   9.974  0.1731 -0.2812 -0.2235
29654SOL    HW192493   9.612   9.231   9.923 -0.5756 -1.2025  0.1520
29654SOL    HW292494   9.723   9.269  10.019  0.5474  0.4859 -1.7488
29655SOL     OW92495   2.533   8.063   1.063  0.7787 -0.1015  0.3147
29655SOL    HW192496   2.459   8.094   1.012  0.1054 -0.9596  0.7409
29655SOL    HW292497   2.522   8.104   1.149 -0.2224 -1.5807  0.9423
29656SOL     OW92498   2.576   9.472   4.957  0.4066  0.8176  0.1053
29656SOL    HW192499   2.660   9.511   4.932  0.7209  0.0962  0.0243
29656SOL    HW292500   2.511   9.524   4.909  0.9088  0.3604 -1.1069
29657SOL     OW92501   0.204   9.542   8.781 -0.8089 -0.7340  0.0048
29657SOL    HW192502   0.165   9.543   8.869 -0.9594  0.7973 -0.0574
29657SOL    HW292503   0.160   9.613   8.734  2.3112  1.4434  0.0795
29658SOL     OW92504   9.068   9.435   0.097 -0.3253 -0.1740 -0.6688
29658SOL    HW192505   9.115   9.500   0.149 -0.8330 -0.3852  0.0804
29658SOL    HW292506   9.087   9.458   0.006 -1.2332  1.5905 -0.4631
29659SOL     OW92507  11.020   4.360   1.627  0.1248  0.3932  0.1851
29659SOL    HW192508  10.994   4.447   1.597 -0.5941  0.7471  1.6963
29659SOL    HW292509  11.023   4.368   1.723 -0.5125 -1.3860  0.3973
29660SOL     OW92510   5.286   9.313  10.540 -0.1564 -0.0859  0.6354
29660SOL    HW192511   5.305   9.295  10.632 -1.1428 -2.4209  0.4490
29660SOL    HW292512   5.372   9.313  10.497  0.4768  2.4927  1.6779
29661SOL     OW92513  10.805   2.466   7.034  0.3605  0.2652  0.1508
29661SOL    HW192514  10.778   2.557   7.022 -1.3365 -0.4199 -2.0311
29661SOL    HW292515  10.801   2.452   7.129  0.0808  2.2829  0.4778
29662SOL     OW92516   9.593  10.590   7.223  0.0324 -0.2623 -0.3088
29662SOL    HW192517   9.515  10.538   7.203 -0.0616  0.2838 -1.4448
29662SOL    HW292518   9.646  10.585   7.143 -0.4690  2.2375 -0.8870
29663SOL     OW92519  10.102   5.075   9.812 -0.6916 -0.0819 -0.6930
29663SOL    HW192520  10.073   5.131   9.740  0.4485  1.9224  0.3183
29663SOL    HW292521  10.151   5.134   9.870 -0.4646 -1.8954  1.0646
29664SOL     OW92522   8.522  10.454   2.403  0.8256  0.6491  0.1483
29664SOL    HW192523   8.528  10.448   2.498  0.6392 -0.2968  0.1125
29664SOL    HW292524   8.451  10.394   2.379  0.1710  1.6482 -0.5066
29665SOL     OW92525   6.386   5.217   1.895 -0.0508 -0.1978 -0.2525
29665SOL    HW192526   6.394   5.213   1.800  0.2970  2.4045 -0.4054
29665SOL    HW292527   6.319   5.283   1.911 -2.7395 -3.0338  1.3568
29666SOL     OW92528   8.369   8.484   5.694  0.5671 -0.2291 -0.1218
29666SOL    HW192529   8.310   8.532   5.751  0.4379  1.5601 -1.6689
29666SOL    HW292530   8.334   8.395   5.692  0.1101 -0.1328  1.8662
29667SOL     OW92531   8.189   3.427   9.680 -0.1498  0.5292 -0.3798
29667SOL    HW192532   8.224   3.337   9.680  1.2076  1.0403 -0.5802
29667SOL    HW292533   8.116   3.424   9.617  0.9790 -0.0382 -1.7155
29668SOL     OW92534   8.115   8.383   9.366 -0.2423 -0.0385 -0.4159
29668SOL    HW192535   8.035   8.393   9.417  1.0924  2.0902  1.4090
29668SOL    HW292536   8.162   8.311   9.408 -0.1722  0.2104 -0.0682
29669SOL     OW92537   6.955   4.635   5.647 -0.2061 -0.4733  0.6698
29669SOL    HW192538   6.967   4.722   5.610 -1.0439 -0.7916 -0.3769
29669SOL    HW292539   7.033   4.586   5.619  0.7103  0.1492  1.9957
29670SOL     OW92540  10.222   5.261   9.966  0.2190  0.0265 -0.1130
29670SOL    HW192541  10.244   5.183  10.016 -0.5658 -0.8341 -1.0939
29670SOL    HW292542  10.131   5.281   9.989 -0.1010 -0.2858 -1.0479
29671SOL     OW92543   9.757   7.808   4.031  0.6555 -0.1541 -0.3855
29671SOL    HW192544   9.757   7.717   3.999  0.4496 -0.3503  0.1459
29671SOL    HW292545   9.842   7.843   4.006  0.0787  0.0876 -2.1842
29672SOL     OW92546   5.687   9.960   4.878 -0.1991 -0.6933  0.3957
29672SOL    HW192547   5.722  10.026   4.938  0.0512  0.7705 -1.2661
29672SOL    HW292548   5.592   9.973   4.880 -0.2148 -0.8462  0.6825
29673SOL     OW92549  10.696  10.090   7.205 -0.0100  0.0413  0.9472
29673SOL    HW192550  10.642  10.150   7.153 -0.2695 -0.6141  0.4486
29673SOL    HW292551  10.633  10.029   7.244  0.3578 -0.7373  0.3475
29674SOL     OW92552   3.677   1.478   7.963 -0.1636 -0.4811  0.4352
29674SOL    HW192553   3.685   1.431   8.047 -2.2122 -0.4459  0.7001
29674SOL    HW292554   3.583   1.480   7.946  0.1827  0.0313 -1.6009
29675SOL     OW92555   2.586   5.678   7.394  0.2538 -0.1376  0.1349
29675SOL    HW192556   2.576   5.603   7.336 -0.9465  0.8185 -0.9573
29675SOL    HW292557   2.554   5.648   7.479 -2.4407 -0.2245 -0.8284
29676SOL     OW92558   2.648   4.908   2.042 -0.0228 -0.1485  0.2450
29676SOL    HW192559   2.638   4.837   2.105  0.0776 -0.0216  0.4058
29676SOL    HW292560   2.559   4.924   2.009 -0.5486  1.4839  2.2113
29677SOL     OW92561   5.636   3.049  10.780  0.1199 -0.0462 -0.1724
29677SOL    HW192562   5.598   3.094  10.855 -2.3680  0.8177 -1.8170
29677SOL    HW292563   5.574   2.978  10.762  0.9354 -0.5392 -1.1145
29678SOL     OW92564  10.905  10.160   5.879  0.6075 -0.1148  0.0092
29678SOL    HW192565  10.991  10.164   5.837  1.6542  0.1445  2.0269
29678SOL    HW292566  10.918  10.102   5.955 -0.6650  0.9090  1.0566
29679SOL     OW92567   0.702   7.561   4.904 -0.2763  0.1414 -0.2179
29679SOL    HW192568   0.658   7.608   4.975  1.4814  0.4124  0.7379
29679SOL    HW292569   0.636   7.557   4.834 -0.9638  2.8573  0.1345
29680SOL     OW92570   6.820   4.154   4.503  0.0930  0.0516 -0.9079
29680SOL    HW192571   6.743   4.212   4.506  2.2670  3.3571 -2.3978
29680SOL    HW292572   6.851   4.150   4.594 -0.6367  0.4636 -0.6333
29681SOL     OW92573   2.241   1.851   6.462 -0.3639 -0.3448  0.1765
29681SOL    HW192574   2.171   1.816   6.518 -1.3974 -0.0354 -0.8938
29681SOL    HW292575   2.248   1.943   6.489 -0.6839 -0.2609 -0.0223
29682SOL     OW92576   5.913   2.270  10.738 -0.7584 -0.2837  0.4366
29682SOL    HW192577   5.933   2.245  10.648 -1.1068  2.3022 -0.4249
29682SOL    HW292578   5.997   2.299  10.774 -0.7867 -0.4794  0.6628
29683SOL     OW92579   5.700   5.782   1.749  0.0005 -0.0275  0.0860
29683SOL    HW192580   5.727   5.787   1.657  0.6591 -2.4772  0.0890
29683SOL    HW292581   5.610   5.816   1.749 -0.7610 -1.8168 -1.8639
29684SOL     OW92582   3.502  10.391   1.055 -0.4492 -0.0062 -0.2534
29684SOL    HW192583   3.537  10.480   1.049  0.6292 -0.2176  1.9476
29684SOL    HW292584   3.532  10.348   0.976  2.2001  0.5856  0.3281
29685SOL     OW92585   0.030   9.634   1.346  0.4304  0.6683 -0.4476
29685SOL    HW192586  -0.043   9.572   1.361 -0.0886  1.5230  0.7119
29685SOL    HW292587   0.102   9.579   1.316  0.1990 -0.6294  1.2406
29686SOL     OW92588   5.442   1.276   3.709 -0.0233  0.2358 -0.0935
29686SOL    HW192589   5.479   1.364   3.704 -2.1478  1.2559  0.9438
29686SOL    HW292590   5.357   1.282   3.666 -0.2384 -1.3026  0.0385
29687SOL     OW92591  11.019   6.118   5.286  0.8076  0.3835 -0.0098
29687SOL    HW192592  11.026   6.150   5.197  0.5231 -0.6023 -0.4074
29687SOL    HW292593  10.994   6.194   5.338  0.2270  0.8166 -0.8970
29688SOL     OW92594   1.836   4.108   5.610  0.1435 -0.2494 -0.0107
29688SOL    HW192595   1.812   4.077   5.698 -0.5713 -0.0736 -0.1381
29688SOL    HW292596   1.821   4.202   5.613  0.3613 -0.2058 -0.2516
29689SOL     OW92597   0.245   1.156   4.899  0.0805 -0.3746  0.1579
29689SOL    HW192598   0.282   1.153   4.811  0.7505 -0.0773  0.4212
29689SOL    HW292599   0.212   1.068   4.914  0.2531 -0.5164 -0.2705
29690SOL     OW92600   7.788  10.586   9.610 -0.0618 -0.2757 -0.4852
29690SOL    HW192601   7.845  10.595   9.533  0.4179 -2.5112 -0.4603
29690SOL    HW292602   7.708  10.546   9.576 -0.7798  0.8475 -0.1613
29691SOL     OW92603   9.005   8.719   3.559 -0.2062 -0.5476  0.3665
29691SOL    HW192604   9.083   8.752   3.603 -0.3412  2.1091 -1.1052
29691SOL    HW292605   8.966   8.658   3.620  2.5130 -1.2550  1.5347
29692SOL     OW92606   8.070   1.555   5.135 -0.1156  0.6767 -0.0554
29692SOL    HW192607   8.038   1.545   5.225  0.6511  0.5693  0.2209
29692SOL    HW292608   8.099   1.646   5.130 -0.9424  0.9286 -0.4729
29693SOL     OW92609   9.033   0.865   0.706  0.1496  0.2506  0.0142
29693SOL    HW192610   8.939   0.880   0.702  0.0127 -0.8786 -3.3106
29693SOL    HW292611   9.042   0.778   0.744 -0.2689 -0.3119 -1.1453
29694SOL     OW92612   2.604   3.549   5.714  0.0000  0.6060  0.0623
29694SOL    HW192613   2.659   3.610   5.664  1.5556 -2.1244 -1.8207
29694SOL    HW292614   2.551   3.504   5.648 -0.4009 -0.7333  1.2401
29695SOL     OW92615   6.295  10.554   1.981 -0.0967  0.5760  0.3047
29695SOL    HW192616   6.321  10.462   1.986 -0.3043  0.5777  1.6328
29695SOL    HW292617   6.229  10.556   1.912  0.8454 -0.0220 -0.6659
29696SOL     OW92618  10.914   0.444   7.393 -0.2264 -0.2539 -0.1107
29696SOL    HW192619  10.989   0.384   7.388  1.3690  1.7181 -1.6852
29696SOL    HW292620  10.893   0.448   7.486  2.2178 -0.2553  0.5204
29697SOL     OW92621   9.772   1.052   5.984  0.0511 -0.0104  0.3505
29697SOL    HW192622   9.865   1.062   6.005  0.1573 -0.6179  0.1898
29697SOL    HW292623   9.767   0.969   5.937 -0.6142 -0.1187  0.6002
29698SOL     OW92624   9.466   6.032   7.704 -0.1186 -0.7465 -0.1751
29698SOL    HW192625   9.532   5.979   7.658 -0.3038 -0.6645 -0.5345
29698SOL    HW292626   9.435   6.094   7.639 -0.7297 -0.9426 -0.0769
29699SOL     OW92627   4.243   2.339   0.707  0.5534 -0.0526  0.0790
29699SOL    HW192628   4.193   2.340   0.626 -0.1039  1.1062  0.4710
29699SOL    HW292629   4.236   2.249   0.739  2.3698 -1.0624 -2.0389
29700SOL     OW92630   1.208   5.727   1.487  0.0398  0.0020  0.4786
29700SOL    HW192631   1.157   5.647   1.480  1.3049 -0.8455  0.6605
29700SOL    HW292632   1.184   5.763   1.572 -3.0221  1.6378 -0.9198
29701SOL     OW92633   8.840   2.239   6.639 -0.1512  0.0583  0.3209
29701SOL    HW192634   8.767   2.187   6.605 -0.2348  1.5291 -1.9667
29701SOL    HW292635   8.803   2.284   6.715 -1.2810 -0.1244 -0.1018
29702SOL     OW92636   0.651   2.660   8.913  0.0040 -0.3665 -0.5015
29702SOL    HW192637   0.669   2.578   8.866  0.5570  0.0781 -1.0918
29702SOL    HW292638   0.682   2.728   8.853  0.5541  0.2221  0.4361
29703SOL     OW92639   5.209   1.844   9.390 -1.0369  0.4206  0.1785
29703SOL    HW192640   5.251   1.768   9.351 -0.4491  0.3561  0.8994
29703SOL    HW292641   5.212   1.827   9.485 -2.1086  0.7184  0.2855
29704SOL     OW92642   7.310   7.644   3.805 -0.0205 -0.0182  0.5521
29704SOL    HW192643   7.312   7.563   3.754  1.8517  0.6474 -0.5619
29704SOL    HW292644   7.326   7.616   3.895 -1.4130 -1.0345  0.5189
29705SOL     OW92645   5.895   4.709   6.885 -0.0110  0.3520  0.5015
29705SOL    HW192646   5.943   4.712   6.802  0.6463 -1.3828  0.7688
29705SOL    HW292647   5.855   4.795   6.893 -1.2270  0.1383 -2.2774
29706SOL     OW92648   6.484   1.036  10.290  0.0581 -0.6115  0.1600
29706SOL    HW192649   6.538   0.987  10.352  0.3656  0.3448  0.6568
29706SOL    HW292650   6.461   1.116  10.336  0.6811  0.3337 -1.1199
29707SOL     OW92651   7.708   7.804   6.115 -0.1298 -0.1148  0.0073
29707SOL    HW192652   7.614   7.787   6.111 -0.5556  1.8237  0.7643
29707SOL    HW292653   7.747   7.717   6.125 -1.9938 -0.8375  1.7619
29708SOL     OW92654   8.603   3.807   4.559 -0.2905  0.2749 -0.2869
29708SOL    HW192655   8.521   3.792   4.606 -0.2688 -2.4774 -0.9431
29708SOL    HW292656   8.587   3.886   4.507 -1.4677  1.4668  1.7719
29709SOL     OW92657   3.028   2.356   6.277  0.1776 -0.0336 -0.3190
29709SOL    HW192658   3.055   2.399   6.358 -1.7104 -1.3673  1.1062
29709SOL    HW292659   2.974   2.420   6.232  0.7021  0.4834 -0.2295
29710SOL     OW92660   2.925   2.343  10.321 -0.1253  0.2589 -0.4365
29710SOL    HW192661   2.863   2.274  10.344 -0.9930  0.9368 -0.6755
29710SOL    HW292662   2.885   2.388  10.246 -0.3928  2.0168  0.6795
29711SOL     OW92663   3.019   5.784   5.515  0.4391  0.2481  0.2569
29711SOL    HW192664   3.064   5.702   5.534  1.0085  0.1648 -1.3294
29711SOL    HW292665   3.025   5.834   5.597  4.5223  0.7168 -0.1076
29712SOL     OW92666   7.204  10.609   8.914  0.2353 -0.2044  0.0593
29712SOL    HW192667   7.278  10.631   8.969  0.1918  0.3440 -0.0962
29712SOL    HW292668   7.200  10.679   8.848  0.2006 -0.7690 -0.5513
29713SOL     OW92669   5.840   8.304   2.517 -0.0242 -0.5362  0.0794
29713SOL    HW192670   5.885   8.380   2.479  1.6500 -1.4207  0.1885
29713SOL    HW292671   5.819   8.330   2.606  2.3822 -0.8218  0.8188
29714SOL     OW92672   4.893   1.300  11.010  0.0848 -0.5622 -0.0618
29714SOL    HW192673   4.954   1.237  10.972 -0.4555 -1.5671  0.6873
29714SOL    HW292674   4.885   1.274  11.102  1.1999  1.6785  0.7405
29715SOL     OW92675   3.182   6.761   9.522 -0.6077  0.5322  0.8584
29715SOL    HW192676   3.188   6.790   9.613 -2.5323  1.2554  0.8145
29715SOL    HW292677   3.249   6.812   9.476  0.7876 -0.2730  1.9341
29716SOL     OW92678   0.378   1.101   7.316  0.5697  0.1959  0.2200
29716SOL    HW192679   0.334   1.028   7.272  1.0341  0.9048 -1.5071
29716SOL    HW292680   0.459   1.114   7.266  1.5180  0.5664  1.7671
29717SOL     OW92681   2.167   2.783   6.323 -0.4259  0.7037  0.3136
29717SOL    HW192682   2.187   2.691   6.309 -0.1550  0.8657 -0.4721
29717SOL    HW292683   2.212   2.806   6.404 -0.4587  0.1600  0.4885
29718SOL     OW92684   5.955   2.581   5.320 -0.2950  0.3039  0.0105
29718SOL    HW192685   5.996   2.501   5.352  2.2356  1.7471  0.6542
29718SOL    HW292686   5.873   2.588   5.370  1.1994 -0.0450  2.6594
29719SOL     OW92687   5.324   0.306  10.546  0.1820 -0.1067 -0.1313
29719SOL    HW192688   5.350   0.242  10.612 -0.0649 -0.3875 -0.3052
29719SOL    HW292689   5.229   0.315  10.558  0.4160  1.3937  0.9391
29720SOL     OW92690   0.527   8.963   7.713  0.2572 -0.1606 -0.1216
29720SOL    HW192691   0.459   8.908   7.752  0.2612 -0.6224 -0.7483
29720SOL    HW292692   0.588   8.901   7.672  0.2833  0.2998 -0.8057
29721SOL     OW92693  10.438   9.764   9.870 -0.3202 -0.0485  0.1264
29721SOL    HW192694  10.396   9.849   9.882 -1.5466 -0.5298 -0.6315
29721SOL    HW292695  10.427   9.720   9.954  0.4021  0.5641  0.5530
29722SOL     OW92696   4.842   3.513   1.779  0.6552 -0.0640  0.0674
29722SOL    HW192697   4.892   3.587   1.744 -1.9944  1.9601  0.2860
29722SOL    HW292698   4.823   3.458   1.703 -0.5793  1.5385 -0.8316
29723SOL     OW92699   1.849   7.358   0.356 -0.8968  0.0485 -0.4136
29723SOL    HW192700   1.762   7.319   0.343 -1.2737  0.8262 -0.2578
29723SOL    HW292701   1.841   7.447   0.323  0.3926 -0.4406 -2.1490
29724SOL     OW92702   4.235   5.235   1.972 -0.1378  0.2773 -0.5135
29724SOL    HW192703   4.292   5.200   1.904  1.3596 -0.3230  1.0013
29724SOL    HW292704   4.191   5.159   2.009  0.8487  0.2958  0.7567
29725SOL     OW92705   7.198   4.685   4.255 -0.1950  0.5166 -0.5406
29725SOL    HW192706   7.129   4.749   4.239 -0.3105  0.0531 -1.9918
29725SOL    HW292707   7.267   4.709   4.193 -0.3422 -0.8962 -1.2949
29726SOL     OW92708   9.106   0.802   2.351  0.1897  0.5140 -0.4516
29726SOL    HW192709   9.151   0.717   2.352 -0.5915  0.0798  1.1625
29726SOL    HW292710   9.042   0.793   2.280 -0.0366 -0.3449 -0.1548
29727SOL     OW92711   7.817  10.454   8.103  0.0071  0.0324 -0.8980
29727SOL    HW192712   7.898  10.497   8.075  2.0175 -2.4179  0.6655
29727SOL    HW292713   7.768  10.439   8.022  2.1874 -0.3786 -2.2398
29728SOL     OW92714   2.994   3.622   5.735 -0.0911  0.0021  0.4546
29728SOL    HW192715   2.922   3.671   5.696 -0.4899 -0.5126  0.5371
29728SOL    HW292716   3.003   3.543   5.682 -0.6021 -0.6786  1.3453
29729SOL     OW92717   9.339   4.070   4.950  0.2731 -0.1771 -0.1793
29729SOL    HW192718   9.291   3.997   4.988 -0.1183 -0.3662 -1.0148
29729SOL    HW292719   9.431   4.042   4.952  0.2030 -0.3844  0.1604
29730SOL     OW92720   9.338   1.879  10.780  0.1723  0.2525 -0.3241
29730SOL    HW192721   9.284   1.849  10.853  1.5780 -1.0922  0.2158
29730SOL    HW292722   9.277   1.888  10.707 -1.4226  2.4403  1.1667
29731SOL     OW92723   0.169   8.852   5.119  0.6493 -0.3390  0.0954
29731SOL    HW192724   0.080   8.853   5.155 -0.4201  0.2222 -2.3865
29731SOL    HW292725   0.208   8.933   5.152  0.6317 -1.0235  1.9531
29732SOL     OW92726   2.391   2.070  10.709 -0.0721  0.3757  0.2213
29732SOL    HW192727   2.344   2.153  10.703  1.4327  1.4968  2.3694
29732SOL    HW292728   2.370   2.024  10.627 -1.0170  2.8247 -1.0187
29733SOL     OW92729   1.024   3.324   5.049  0.6679 -0.2029 -0.9288
29733SOL    HW192730   0.999   3.251   4.993  1.4937 -1.0881 -0.1905
29733SOL    HW292731   0.997   3.297   5.137  2.1794 -0.2557 -0.4362
29734SOL     OW92732   8.455   5.262   5.948 -0.2089  0.0651  0.4306
29734SOL    HW192733   8.482   5.171   5.961 -0.4032 -0.0012  0.3767
29734SOL    HW292734   8.529   5.303   5.904  0.2143  0.1479  1.2072
29735SOL     OW92735   5.544   4.563   9.946  0.5986  0.1717 -0.3923
29735SOL    HW192736   5.560   4.597   9.858 -1.0953 -0.4610 -0.9875
29735SOL    HW292737   5.600   4.487   9.953  1.4782  0.7910 -0.5339
29736SOL     OW92738   9.135   8.041   0.914  0.4053 -0.0448  0.4950
29736SOL    HW192739   9.200   8.058   0.983  0.8739 -0.7120  0.2276
29736SOL    HW292740   9.176   8.072   0.834  0.0841  0.2208  0.4321
29737SOL     OW92741   1.557   0.444   9.976  0.0484  0.1675  0.0803
29737SOL    HW192742   1.548   0.357   9.936 -0.4404  0.3153 -0.1434
29737SOL    HW292743   1.503   0.501   9.921 -2.1581  0.0448  1.9749
29738SOL     OW92744   4.691   9.851   5.800  0.5877 -0.0736  0.0091
29738SOL    HW192745   4.635   9.908   5.747 -0.9056 -0.7950  0.7546
29738SOL    HW292746   4.769   9.838   5.746  0.0669  1.0013 -1.0562
29739SOL     OW92747   0.697   9.131   9.962 -0.5850  1.2004  0.1032
29739SOL    HW192748   0.740   9.098  10.041 -2.0133  0.5132  0.6244
29739SOL    HW292749   0.767   9.135   9.897  0.2401 -0.0828  0.8585
29740SOL     OW92750   5.868   7.311   3.315 -0.2711 -0.3010  0.0088
29740SOL    HW192751   5.788   7.297   3.365 -1.2526  1.0540 -1.1338
29740SOL    HW292752   5.901   7.395   3.345 -2.3223  1.9242 -3.3220
29741SOL     OW92753   8.126   8.381   9.086 -0.0829 -0.1988  0.4042
29741SOL    HW192754   8.058   8.315   9.103 -0.5488 -0.1160 -1.0151
29741SOL    HW292755   8.142   8.421   9.171 -0.6122 -1.3623  1.0831
29742SOL     OW92756   9.498   2.293   2.595  0.4551 -0.3030  0.1475
29742SOL    HW192757   9.533   2.205   2.612  0.9623 -0.3651 -1.0985
29742SOL    HW292758   9.570   2.352   2.618 -0.1676 -0.1181  1.7991
29743SOL     OW92759   6.111   1.524   7.972 -0.3307  0.3292 -0.5262
29743SOL    HW192760   6.181   1.519   7.907  0.3051 -0.0720  0.1696
29743SOL    HW292761   6.131   1.453   8.034 -1.3685  0.1962 -0.3308
29744SOL     OW92762   7.977   6.227  10.376  0.4702 -0.9212 -0.7700
29744SOL    HW192763   7.932   6.311  10.368  1.6036 -0.1576  0.3546
29744SOL    HW292764   8.007   6.207  10.288 -0.0141 -0.2637 -1.0881
29745SOL     OW92765   7.235   2.997   3.968 -0.1140  0.1317 -0.5434
29745SOL    HW192766   7.248   2.983   4.062 -0.5241  0.9379 -0.3632
29745SOL    HW292767   7.143   3.022   3.960  0.2222  1.2744 -1.0129
29746SOL     OW92768   7.297   8.938   6.536 -0.2024  0.0869 -0.5086
29746SOL    HW192769   7.316   9.029   6.556  0.5190 -0.0531 -0.5393
29746SOL    HW292770   7.338   8.889   6.607 -0.8248 -0.2075 -0.3410
29747SOL     OW92771   0.053   1.375   8.281 -0.4321  0.1588  0.9584
29747SOL    HW192772   0.037   1.452   8.227 -0.4996  0.0188  0.7752
29747SOL    HW292773   0.053   1.302   8.219 -0.7198 -0.0277  1.1700
29748SOL     OW92774   8.449   3.703   9.360 -0.1153 -0.0117 -0.2058
29748SOL    HW192775   8.405   3.701   9.274  0.8906  1.2087 -0.7779
29748SOL    HW292776   8.433   3.616   9.397 -2.5289  0.1974 -0.6122
29749SOL     OW92777   3.235   9.332   3.130  0.3940 -0.0948  0.4751
29749SOL    HW192778   3.228   9.250   3.081  1.0851  0.0607  0.0969
29749SOL    HW292779   3.324   9.362   3.113 -0.7282  2.2970 -1.8842
29750SOL     OW92780   1.400   9.741   6.443  0.5423 -0.0755 -0.0899
29750SOL    HW192781   1.467   9.806   6.463  1.1535 -0.7937  0.2666
29750SOL    HW292782   1.334   9.789   6.393  1.0640  0.7681  0.0058
29751SOL     OW92783   1.925   2.501  10.502  0.7912 -0.2353 -0.4883
29751SOL    HW192784   1.984   2.576  10.508  1.2143 -0.6235  0.4331
29751SOL    HW292785   1.870   2.520  10.426  2.0078  0.2019 -1.3000
29752SOL     OW92786   5.525   0.912   5.524  0.4582 -0.5307  0.9424
29752SOL    HW192787   5.607   0.920   5.475 -1.3466 -3.1900 -3.0130
29752SOL    HW292788   5.501   1.002   5.546  2.0330  0.8071 -2.1804
29753SOL     OW92789   9.721   1.556   4.020  0.0919 -0.6915 -0.2208
29753SOL    HW192790   9.792   1.492   4.024  0.5753 -0.2441 -1.2197
29753SOL    HW292791   9.690   1.551   3.930  0.4933  0.8450 -0.4678
29754SOL     OW92792   1.097   2.238   8.712  0.3165 -0.7990  0.2769
29754SOL    HW192793   1.004   2.249   8.730  0.2437  0.8808 -0.8952
29754SOL    HW292794   1.139   2.248   8.798 -0.5599 -1.9080  0.8723
29755SOL     OW92795   3.880   7.619   2.056  0.1096  0.8767  0.1445
29755SOL    HW192796   3.802   7.583   2.098  0.3791 -1.3681 -1.1136
29755SOL    HW292797   3.868   7.714   2.061 -0.8838  0.6901  3.2606
29756SOL     OW92798   3.975   2.236   9.957  0.2002 -0.2776 -0.1882
29756SOL    HW192799   3.893   2.279   9.980  1.0547  0.5093  1.5655
29756SOL    HW292800   3.969   2.223   9.862 -2.4583 -1.3703  0.0155
29757SOL     OW92801   1.197   8.639   6.828  0.0207  0.1945  0.3521
29757SOL    HW192802   1.272   8.631   6.770  1.5805  1.2678  2.1227
29757SOL    HW292803   1.216   8.580   6.901 -0.2326  1.3914  1.4168
29758SOL     OW92804   3.218   2.672   2.921  0.0130 -0.6719  0.1106
29758SOL    HW192805   3.287   2.609   2.943  2.0592  1.4124  0.0994
29758SOL    HW292806   3.240   2.701   2.833 -2.4718 -1.8325 -0.9831
29759SOL     OW92807   8.831   8.852  11.055 -0.4120 -0.1314  0.2534
29759SOL    HW192808   8.828   8.946  11.038  1.9895  0.0028  0.2820
29759SOL    HW292809   8.850   8.813  10.970 -1.5468 -0.6468  0.2135
29760SOL     OW92810   8.711   1.416   1.953 -0.1246  0.3686 -0.7716
29760SOL    HW192811   8.747   1.352   1.891 -0.8394 -0.6109 -0.2082
29760SOL    HW292812   8.771   1.490   1.948  1.7618 -1.0292 -0.1416
29761SOL     OW92813  10.146   7.104   2.486  0.2409  0.3638 -0.1341
29761SOL    HW192814  10.063   7.145   2.460  1.0413  2.0828 -0.0722
29761SOL    HW292815  10.177   7.157   2.559  1.5960 -0.0192 -0.4149
29762SOL     OW92816   6.594  10.448   9.276 -0.1797  0.5933 -0.9965
29762SOL    HW192817   6.614  10.361   9.239 -0.4362 -0.0245  0.2649
29762SOL    HW292818   6.649  10.508   9.226  1.0287 -0.4659 -1.0039
29763SOL     OW92819   2.290   3.283   5.255 -0.2386 -0.3364  0.6031
29763SOL    HW192820   2.354   3.346   5.222 -1.1264 -0.0597 -0.6636
29763SOL    HW292821   2.343   3.210   5.286  0.7134 -0.5988 -1.4418
29764SOL     OW92822   6.637  11.085   6.896  0.1284 -0.4135  0.2288
29764SOL    HW192823   6.605  11.073   6.986 -0.7072 -0.9896 -0.1326
29764SOL    HW292824   6.615  11.176   6.875 -2.4765 -1.0975 -0.4243
29765SOL     OW92825   7.002   9.964   5.823 -0.3162 -0.0828  0.2114
29765SOL    HW192826   7.095   9.943   5.833 -0.6938 -1.6862  0.6258
29765SOL    HW292827   6.998  10.021   5.747  1.1491  1.1696  1.0138
29766SOL     OW92828   0.506   1.813   6.283  0.0527  0.0383  0.1499
29766SOL    HW192829   0.554   1.784   6.205 -0.2913  3.2039 -1.4309
29766SOL    HW292830   0.414   1.810   6.257  0.0383  4.0237 -0.9370
29767SOL     OW92831  10.222   9.150   9.295  0.5422 -0.0618  0.0532
29767SOL    HW192832  10.143   9.124   9.342 -1.2521  2.8894 -1.0727
29767SOL    HW292833  10.236   9.082   9.230 -1.0586 -0.6558  0.3073
29768SOL     OW92834   1.528   5.409  10.931  0.3067 -0.4422 -0.7847
29768SOL    HW192835   1.514   5.350  11.005  1.6939  0.1885  0.0291
29768SOL    HW292836   1.623   5.422  10.928  0.0694  1.5078 -1.1092
29769SOL     OW92837  10.248   9.238   1.202  0.0798 -0.5549  0.3331
29769SOL    HW192838  10.258   9.252   1.296  0.2931 -0.2685  0.2686
29769SOL    HW292839  10.181   9.170   1.195  1.2515 -1.7996  0.7412
29770SOL     OW92840   7.194   0.794   8.688 -0.1403 -0.0735 -0.1664
29770SOL    HW192841   7.214   0.714   8.639 -1.4956  0.2097 -1.2099
29770SOL    HW292842   7.151   0.851   8.625 -1.7790  0.3734  1.2783
29771SOL     OW92843   4.560  10.061   4.472 -0.0990 -0.0360 -0.2994
29771SOL    HW192844   4.607  10.124   4.528 -0.7606  0.4787 -0.3146
29771SOL    HW292845   4.576   9.976   4.513 -2.1775  0.5135  1.8551
29772SOL     OW92846   4.977   5.669   4.640  0.8071  0.1066 -0.6654
29772SOL    HW192847   4.996   5.754   4.600  1.7297 -0.3662 -1.2599
29772SOL    HW292848   5.047   5.657   4.704  0.4505 -0.0354 -0.2996
29773SOL     OW92849   0.194   5.912   8.909  0.0592  0.4626  0.6217
29773SOL    HW192850   0.266   5.891   8.968  0.2303 -1.3312 -0.1493
29773SOL    HW292851   0.125   5.850   8.933  0.2445 -0.5068 -1.2161
29774SOL     OW92852   5.935   9.723   9.348 -0.0949 -0.4885 -0.0969
29774SOL    HW192853   5.928   9.779   9.425 -0.3932  0.5236 -0.8353
29774SOL    HW292854   6.018   9.748   9.308 -1.5876  1.6781 -2.0881
29775SOL     OW92855   7.799   5.829   4.742 -0.2077  0.2822  0.2726
29775SOL    HW192856   7.870   5.882   4.704  0.8284 -2.2791 -1.7226
29775SOL    HW292857   7.737   5.893   4.776  1.9945  2.6950  0.1047
29776SOL     OW92858   2.809   8.033   1.025  0.5769 -0.3956  0.1040
29776SOL    HW192859   2.722   7.994   1.017  0.6191 -0.3185 -0.9214
29776SOL    HW292860   2.794   8.117   1.067 -0.3757  1.2288 -3.1353
29777SOL     OW92861   3.837   5.406   2.645 -0.6497 -0.0159 -0.3448
29777SOL    HW192862   3.900   5.440   2.708 -1.3381 -0.7451  0.7739
29777SOL    HW292863   3.890   5.381   2.569  0.0934  1.6309 -0.4112
29778SOL     OW92864   4.109   1.537   2.956  0.1191  0.3417 -0.7331
29778SOL    HW192865   4.196   1.509   2.929  0.0447 -2.0696  1.1572
29778SOL    HW292866   4.119   1.560   3.049 -1.5112 -1.7286  0.0342
29779SOL     OW92867   9.056   1.133   0.695 -0.1361  0.2038  0.0370
29779SOL    HW192868   9.051   1.041   0.721  0.9429 -0.0556 -0.6267
29779SOL    HW292869   9.128   1.137   0.632  1.5845  1.9296  1.9323
29780SOL     OW92870   0.340   6.053   9.271  0.4857 -0.3934  0.2992
29780SOL    HW192871   0.271   6.000   9.311  0.9160 -0.5758  0.8071
29780SOL    HW292872   0.400   5.989   9.231  1.3462 -0.3376  1.4597
29781SOL     OW92873   1.424   8.691   4.918  0.3270 -0.0215  0.0441
29781SOL    HW192874   1.440   8.657   5.006 -1.0656  2.3254  1.2982
29781SOL    HW292875   1.367   8.626   4.877  1.6088 -1.5217  0.5574
29782SOL     OW92876   8.435   9.983   5.574  0.0684 -0.4185 -0.3413
29782SOL    HW192877   8.523   9.945   5.574  0.2282 -0.0810  0.8878
29782SOL    HW292878   8.376   9.908   5.563  0.4175 -0.9634  1.3055
29783SOL     OW92879   9.252   3.739   0.367  0.3256  0.4226 -0.2945
29783SOL    HW192880   9.329   3.793   0.384  0.7888 -0.2004 -0.3825
29783SOL    HW292881   9.277   3.684   0.293 -0.1648  0.1355 -0.2509
29784SOL     OW92882   4.669   6.412   8.098 -0.0418  0.0222 -0.5320
29784SOL    HW192883   4.750   6.462   8.105 -0.7456  1.3898 -1.5931
29784SOL    HW292884   4.689   6.342   8.036  0.8298 -0.7942  0.6332
29785SOL     OW92885   0.117   4.841  10.984  0.1868  0.9587 -0.0703
29785SOL    HW192886   0.091   4.891  10.907 -0.2713 -0.1913 -0.6939
29785SOL    HW292887   0.152   4.759  10.949 -0.6822  0.1166  0.9445
29786SOL     OW92888   8.107   6.621   3.828  0.1188  0.2597 -0.3275
29786SOL    HW192889   8.141   6.556   3.890 -1.1254  0.8671  1.0491
29786SOL    HW292890   8.146   6.596   3.744  0.6982 -1.4820  0.4042
29787SOL     OW92891   9.514   2.619   2.906  0.1685 -0.8182  0.4428
29787SOL    HW192892   9.502   2.581   2.994 -0.9737  0.1765  0.7445
29787SOL    HW292893   9.426   2.647   2.880  0.2889 -2.0363 -1.4907
29788SOL     OW92894   4.332   2.621   6.921  0.2960 -0.5372 -0.1749
29788SOL    HW192895   4.314   2.553   6.856  0.7820 -1.1681  0.3356
29788SOL    HW292896   4.298   2.701   6.882  0.7359 -0.8689 -1.2796
29789SOL     OW92897   3.920   1.298   3.533  0.1472 -0.5039  0.6285
29789SOL    HW192898   3.940   1.208   3.508  0.2600 -0.4316  0.4528
29789SOL    HW292899   3.860   1.329   3.464 -1.0979 -0.9245  1.4933
29790SOL     OW92900   7.530   9.312  10.755 -0.0867 -0.0009 -0.3016
29790SOL    HW192901   7.461   9.329  10.820  1.8518  1.7962  1.4616
29790SOL    HW292902   7.501   9.359  10.677 -0.7079  1.0893  0.5456
29791SOL     OW92903   4.426  10.389   4.289  0.1607  0.1462  0.5091
29791SOL    HW192904   4.473  10.471   4.274  0.5654 -0.1005  0.4328
29791SOL    HW292905   4.426  10.379   4.385 -0.4230  0.5434  0.5595
29792SOL     OW92906   5.410  10.742   6.876 -0.2311  0.3996  0.4290
29792SOL    HW192907   5.376  10.671   6.822 -1.4082  1.3856 -0.1723
29792SOL    HW292908   5.432  10.700   6.959 -1.8683 -0.5040  0.4499
29793SOL     OW92909   4.857  10.142   9.835  0.4439 -0.5744  0.2437
29793SOL    HW192910   4.912  10.135   9.913 -0.7240 -2.2831  0.9888
29793SOL    HW292911   4.886  10.070   9.779  0.4337 -0.1331 -0.3322
29794SOL     OW92912   0.905   7.913   9.735 -0.4808 -0.0447  0.7573
29794SOL    HW192913   0.944   7.959   9.810  0.5603 -1.4413  1.0983
29794SOL    HW292914   0.865   7.835   9.773  0.0919 -0.7867 -0.1420
29795SOL     OW92915   5.213   9.471   3.301  0.1805  0.0922 -0.4912
29795SOL    HW192916   5.205   9.420   3.220 -1.7741 -0.8218  0.2273
29795SOL    HW292917   5.133   9.451   3.350  1.4803  0.3498  1.8491
29796SOL     OW92918   2.193   4.303   2.828  0.5292 -0.5050 -0.4689
29796SOL    HW192919   2.264   4.261   2.875  0.3367  1.8138  2.1643
29796SOL    HW292920   2.226   4.390   2.807 -1.4280  0.6227  0.8025
29797SOL     OW92921   5.681   4.316   0.591  0.2353 -0.0565  0.6117
29797SOL    HW192922   5.609   4.292   0.533  0.1988  0.8853  0.2599
29797SOL    HW292923   5.689   4.411   0.582 -0.0492  0.1699  2.4800
29798SOL     OW92924   5.025   2.009   4.970  0.5741 -0.4739  0.0721
29798SOL    HW192925   4.975   1.952   5.029 -0.1244 -0.3906 -0.4283
29798SOL    HW292926   5.057   2.079   5.027 -2.7871  1.4176 -0.0843
29799SOL     OW92927   4.640   8.128   7.726  0.4524 -0.4580 -0.1611
29799SOL    HW192928   4.678   8.044   7.751  0.4903 -0.1810  0.7341
29799SOL    HW292929   4.601   8.161   7.806 -0.4187 -0.0646 -0.7332
29800SOL     OW92930   4.825   4.585   9.994 -0.2657 -0.5576 -0.0681
29800SOL    HW192931   4.869   4.624  10.069  0.8284 -1.9287  0.0583
29800SOL    HW292932   4.887   4.519   9.962 -1.9905 -2.1884 -0.2473
29801SOL     OW92933   6.664   6.376   5.210 -0.0421  0.1880 -0.2477
29801SOL    HW192934   6.678   6.407   5.120 -1.5206 -1.0085 -0.9338
29801SOL    HW292935   6.665   6.281   5.202  0.9629  0.0534  1.2247
29802SOL     OW92936   6.530   7.085   0.297  0.1732 -0.1946 -0.2113
29802SOL    HW192937   6.436   7.097   0.306  0.3078  1.0442 -0.1519
29802SOL    HW292938   6.566   7.172   0.316  1.3626 -0.7883  0.3259
29803SOL     OW92939   7.388   0.856   9.955  0.3536 -0.3639  0.6978
29803SOL    HW192940   7.443   0.929   9.926 -1.4079  0.5982 -0.4371
29803SOL    HW292941   7.393   0.793   9.883  1.9966 -1.5116  1.7443
29804SOL     OW92942   9.449   3.497   8.864  0.0047 -0.2970  0.5932
29804SOL    HW192943   9.376   3.547   8.900 -0.3065  0.2691 -0.7753
29804SOL    HW292944   9.503   3.475   8.940 -1.1096  0.0505  1.5104
29805SOL     OW92945   9.513  10.239   7.022  0.5460  0.8005  0.3607
29805SOL    HW192946   9.465  10.294   7.084 -0.3425  1.6415 -0.9877
29805SOL    HW292947   9.555  10.302   6.963 -0.4846  0.0739 -1.2155
29806SOL     OW92948   1.127   7.445   1.446  0.0565 -0.0315 -0.1628
29806SOL    HW192949   1.070   7.437   1.370  0.3144  0.3851 -0.4082
29806SOL    HW292950   1.127   7.358   1.486  1.9073 -0.9908 -2.0701
29807SOL     OW92951   6.187   4.173  10.142  0.1078 -0.6309  0.1403
29807SOL    HW192952   6.222   4.241  10.085  1.1237 -0.4599  0.9228
29807SOL    HW292953   6.113   4.214  10.187  0.6030 -0.0840  0.4711
29808SOL     OW92954   9.954   1.464   3.850  0.3395  0.2256 -0.1768
29808SOL    HW192955  10.049   1.451   3.851  0.3795  0.4262 -0.8809
29808SOL    HW292956   9.936   1.506   3.766 -0.7433 -2.5983 -1.4665
29809SOL     OW92957   3.350  10.528   3.357  0.2999 -0.2912  0.3148
29809SOL    HW192958   3.395  10.519   3.441  0.1683  0.7946  0.5191
29809SOL    HW292959   3.419  10.555   3.296 -0.0850  1.8031  0.7197
29810SOL     OW92960   6.320   5.586   6.416 -0.0149 -0.2391  0.5167
29810SOL    HW192961   6.362   5.671   6.432  0.6990 -0.4948  0.0204
29810SOL    HW292962   6.385   5.536   6.367 -0.2690 -1.2281  1.1672
29811SOL     OW92963   1.100   9.163   7.227  0.3403  0.5908  1.2731
29811SOL    HW192964   1.023   9.129   7.182  0.4708 -0.1004  1.5626
29811SOL    HW292965   1.079   9.255   7.244  0.5639  1.0600 -0.7675
29812SOL     OW92966   7.005  10.933   7.660  0.3701  0.6047  0.4396
29812SOL    HW192967   7.018  10.981   7.578 -1.8235  0.3422 -0.1457
29812SOL    HW292968   6.913  10.948   7.682  0.1533 -1.5968  1.3493
29813SOL     OW92969  10.651   6.095   7.572 -0.3285  0.4351  0.0728
29813SOL    HW192970  10.563   6.059   7.562  0.2982 -1.2470  0.3809
29813SOL    HW292971  10.641   6.188   7.548 -2.2595  0.3951  0.5522
29814SOL     OW92972  10.044   4.071   5.775  0.1745  0.0379 -0.0275
29814SOL    HW192973   9.983   4.131   5.818  0.3928 -1.0575  1.8939
29814SOL    HW292974  10.108   4.129   5.732 -0.7366  1.1701  0.0981
29815SOL     OW92975   7.045   9.557   2.878  0.2330 -0.2368 -0.3230
29815SOL    HW192976   7.016   9.535   2.966  2.7040 -1.1123  0.3747
29815SOL    HW292977   6.985   9.509   2.820  0.5125 -2.3157  0.9990
29816SOL     OW92978  11.128  10.402   7.081  0.3401 -0.5396  0.6107
29816SOL    HW192979  11.125  10.307   7.075 -0.1206 -0.4693 -0.7020
29816SOL    HW292980  11.078  10.424   7.159  1.9392 -1.4478  1.9334
29817SOL     OW92981   2.112   4.448   0.142 -0.4476 -0.1700 -0.2354
29817SOL    HW192982   2.063   4.397   0.077 -0.3162  0.3029 -0.7177
29817SOL    HW292983   2.190   4.477   0.095 -0.8322  1.0164 -0.1838
29818SOL     OW92984   0.742   9.714   4.043  0.2919 -0.0629  0.5464
29818SOL    HW192985   0.756   9.645   3.978 -1.2344 -0.4627  0.6102
29818SOL    HW292986   0.657   9.751   4.020  0.8733  1.5095  0.7920
29819SOL     OW92987   3.785   7.986   8.535 -0.3822 -0.4288 -0.0087
29819SOL    HW192988   3.721   8.006   8.466  0.7574 -2.3690 -1.7659
29819SOL    HW292989   3.830   7.908   8.503  1.1282 -0.6211  2.3689
29820SOL     OW92990   9.737   6.699   8.253  0.0946 -0.3143 -0.2262
29820SOL    HW192991   9.653   6.729   8.288  1.3182  0.9800  1.7651
29820SOL    HW292992   9.795   6.774   8.261  1.2782 -0.9254 -2.3420
29821SOL     OW92993   0.105   5.863  10.559 -0.4294 -0.2108 -0.3171
29821SOL    HW192994   0.107   5.950  10.519 -2.6615 -0.1481 -0.4202
29821SOL    HW292995   0.177   5.865  10.623 -1.2444  2.2354  0.6808
29822SOL     OW92996   0.565   0.562   5.141  0.5974 -0.2060 -0.7698
29822SOL    HW192997   0.649   0.523   5.115 -0.2432 -1.1249 -2.3226
29822SOL    HW292998   0.589   0.641   5.189  2.3562 -0.5194 -1.0460
29823SOL     OW92999  10.433   8.423   0.959 -0.2511 -0.8458 -0.4011
29823SOL    HW193000  10.370   8.371   1.010 -1.4239 -0.6618 -1.6114
29823SOL    HW293001  10.458   8.366   0.886 -0.5078 -0.2219 -0.9918
29824SOL     OW93002   6.283   3.671   4.593 -0.0433  0.0002 -0.1145
29824SOL    HW193003   6.363   3.713   4.561 -0.1780  1.6103  1.5388
29824SOL    HW293004   6.221   3.742   4.602 -1.6738 -1.2061 -1.1968
29825SOL     OW93005   4.045   9.438   3.671  0.6174 -0.5778 -0.1454
29825SOL    HW193006   4.077   9.526   3.653 -0.2778  0.0283  1.0943
29825SOL    HW293007   3.998   9.445   3.754  1.9321 -2.5863  0.8477
29826SOL     OW93008   6.933   8.364   2.010 -0.4317 -0.3268  0.0668
29826SOL    HW193009   6.917   8.433   2.074  0.1909  0.5684 -0.7055
29826SOL    HW293010   6.847   8.325   1.995 -1.2849  1.8387 -1.1793
29827SOL     OW93011   6.913   2.159   6.830 -0.5967  0.6366 -0.2980
29827SOL    HW193012   6.957   2.148   6.747  0.3567  1.1709  0.1238
29827SOL    HW293013   6.981   2.189   6.890 -1.0476 -0.6284  0.9100
29828SOL     OW93014   7.268   9.569   8.833 -0.2610 -0.3165  0.4191
29828SOL    HW193015   7.296   9.644   8.780 -0.5666 -0.7875 -0.4229
29828SOL    HW293016   7.338   9.559   8.898  0.7727 -0.5075 -0.6856
29829SOL     OW93017   9.621  10.548  10.920  0.1775 -0.0951  0.2883
29829SOL    HW193018   9.609  10.637  10.886 -0.0485 -0.6622 -1.2101
29829SOL    HW293019   9.646  10.560  11.011  0.0969  1.5063  0.1266
29830SOL     OW93020  10.157   9.695  10.978 -0.1733  0.1431  0.0548
29830SOL    HW193021  10.121   9.668  10.894 -1.4852  1.9016 -0.0037
29830SOL    HW293022  10.164   9.614  11.029  0.5206 -0.9239 -1.6655
29831SOL     OW93023  10.801   9.882   8.218 -0.2312 -0.2485  0.1871
29831SOL    HW193024  10.818   9.847   8.130  1.1184 -0.5729  0.5601
29831SOL    HW293025  10.829   9.973   8.214 -1.4389  0.1266 -0.0832
29832SOL     OW93026   3.638   3.809   4.303  0.1111 -0.2270 -0.2384
29832SOL    HW193027   3.651   3.730   4.251 -1.5509 -0.0396 -1.0144
29832SOL    HW293028   3.679   3.879   4.252  0.9114 -0.4711  0.0722
29833SOL     OW93029   2.043   2.693   8.390 -0.2020 -0.0955  0.6431
29833SOL    HW193030   2.068   2.609   8.430  0.7474 -0.7315 -1.1596
29833SOL    HW293031   2.111   2.754   8.418  1.0597 -0.7872 -0.7305
29834SOL     OW93032   3.823   7.884   9.794  0.1968 -0.2373  0.0373
29834SOL    HW193033   3.853   7.835   9.718  2.1835  1.4034 -0.3076
29834SOL    HW293034   3.902   7.901   9.845 -0.3915  2.3743  0.2261
29835SOL     OW93035  10.282   6.956   0.846 -0.2685 -0.1241 -0.0057
29835SOL    HW193036  10.333   7.026   0.887  1.4172 -1.8478  1.0502
29835SOL    HW293037  10.272   6.983   0.755  1.4421  0.9223  0.0765
29836SOL     OW93038   5.988   9.745   6.042 -0.1587 -0.4957  0.0896
29836SOL    HW193039   5.906   9.787   6.067  0.3126  0.1106  0.6397
29836SOL    HW293040   6.031   9.808   5.983 -0.3306 -1.0446 -0.6423
29837SOL     OW93041  10.064   9.383   0.875  0.2137 -0.1321 -0.0756
29837SOL    HW193042  10.108   9.331   0.943  0.9654  0.6463  0.0435
29837SOL    HW293043  10.116   9.369   0.796  0.0868 -0.0034 -0.1823
29838SOL     OW93044   3.377   5.366   5.897  0.2260  0.2055 -0.2480
29838SOL    HW193045   3.384   5.432   5.966 -0.1160 -0.6996  0.6792
29838SOL    HW293046   3.287   5.333   5.904 -0.1819  0.8811 -1.8789
29839SOL     OW93047   9.212   4.823   3.198 -0.0127 -0.0181  0.4589
29839SOL    HW193048   9.149   4.751   3.188 -0.5954  0.2757  1.7944
29839SOL    HW293049   9.284   4.785   3.249  0.7237 -0.2248 -0.6786
29840SOL     OW93050   1.411   2.977   6.352 -0.2332  0.2675  0.1771
29840SOL    HW193051   1.402   2.893   6.306 -1.4728  0.4334  0.1012
29840SOL    HW293052   1.479   2.961   6.417  0.4492 -0.4258 -0.6746
29841SOL     OW93053  10.668   5.368  10.691  0.2322  0.6406  0.1322
29841SOL    HW193054  10.585   5.389  10.649 -0.7952 -1.2000  1.1224
29841SOL    HW293055  10.728   5.349  10.619 -0.6673  0.4436 -0.5752
29842SOL     OW93056   5.585   8.440   1.527  0.1595  0.3524 -0.5672
29842SOL    HW193057   5.566   8.478   1.441  0.5043  0.0811 -0.7673
29842SOL    HW293058   5.602   8.347   1.509  0.4323  0.3353 -0.2340
29843SOL     OW93059   1.932   1.254   7.127  0.0860 -0.3996 -0.7250
29843SOL    HW193060   1.936   1.216   7.215  1.0768 -0.0746 -0.6128
29843SOL    HW293061   1.855   1.215   7.087 -0.3738 -0.5574  0.2921
29844SOL     OW93062   9.331   8.588  10.265 -0.9245  0.5947 -0.4867
29844SOL    HW193063   9.390   8.663  10.260 -1.3470  0.8373 -2.3216
29844SOL    HW293064   9.244   8.628  10.274 -1.1545  0.3518 -1.5167
29845SOL     OW93065   1.995   4.112  10.283 -0.1234  0.1158 -0.2700
29845SOL    HW193066   1.942   4.036  10.259 -1.6000  1.6033 -1.9922
29845SOL    HW293067   1.941   4.160  10.346  0.0196  0.6256 -0.5273
29846SOL     OW93068   9.239   2.764   4.265 -0.5523 -0.5964 -0.6639
29846SOL    HW193069   9.279   2.812   4.192 -1.5019 -1.0307 -1.5052
29846SOL    HW293070   9.220   2.831   4.331  2.6432 -0.5248  0.3449
29847SOL     OW93071   7.104   7.055   3.885 -0.2496  0.7657 -0.4636
29847SOL    HW193072   7.016   7.094   3.880  0.3869  2.1115 -3.1289
29847SOL    HW293073   7.097   6.976   3.832  0.2613  1.2073 -1.2090
29848SOL     OW93074   3.821   4.784   3.694  0.3178  0.2039  0.1569
29848SOL    HW193075   3.864   4.699   3.684  2.9282  1.1813  2.0274
29848SOL    HW293076   3.777   4.779   3.779 -0.9524  0.1944 -0.4792
29849SOL     OW93077   0.838   6.201   1.532 -0.5087  0.8025 -0.5468
29849SOL    HW193078   0.744   6.205   1.547 -0.5312  1.3421 -0.8393
29849SOL    HW293079   0.876   6.253   1.603 -0.3442 -0.4468  0.3258
29850SOL     OW93080   1.255   6.078   8.019 -0.4203 -0.1721 -0.2596
29850SOL    HW193081   1.203   6.000   8.035 -0.0261 -0.5668 -0.8823
29850SOL    HW293082   1.228   6.139   8.088 -0.4592 -0.9848  0.4531
29851SOL     OW93083  10.201   4.421   3.123  0.3423  0.4876 -0.2662
29851SOL    HW193084  10.137   4.490   3.139  0.0988  0.1680  0.1851
29851SOL    HW293085  10.222   4.429   3.030  0.1384  1.0118 -0.2721
29852SOL     OW93086   2.499   9.670   6.329  0.1896 -0.0448 -0.1131
29852SOL    HW193087   2.592   9.684   6.315  0.1985  0.0138  0.0086
29852SOL    HW293088   2.472   9.740   6.389  0.2225 -0.5086  0.4535
29853SOL     OW93089  10.834   5.868   6.849  0.1567 -0.5469 -0.5013
29853SOL    HW193090  10.883   5.831   6.922  1.4378 -0.3707 -1.2481
29853SOL    HW293091  10.812   5.957   6.877 -0.3341 -0.8409  0.0915
29854SOL     OW93092   5.378   8.161   8.041 -0.2121 -0.0273  0.2550
29854SOL    HW193093   5.364   8.221   8.114 -1.2806 -0.8776  0.7805
29854SOL    HW293094   5.375   8.217   7.963 -3.5406  0.4029  0.5316
29855SOL     OW93095   3.363   1.138   0.419 -0.3083 -0.1229 -0.0581
29855SOL    HW193096   3.437   1.081   0.402 -0.4078  0.0171 -0.9707
29855SOL    HW293097   3.307   1.130   0.342  0.1051  1.8767 -0.6055
29856SOL     OW93098   2.450   2.733   7.736 -0.6665 -0.4424  0.2766
29856SOL    HW193099   2.502   2.813   7.726  1.4684 -1.9867 -2.3550
29856SOL    HW293100   2.501   2.680   7.798 -1.1503 -0.4661  0.6577
29857SOL     OW93101   6.115   7.912   9.726 -0.3090  0.1494 -0.4559
29857SOL    HW193102   6.022   7.909   9.706 -0.4440  0.3837  0.1199
29857SOL    HW293103   6.119   7.914   9.822  0.3223 -1.1581 -0.4307
29858SOL     OW93104  10.034  11.091   8.578 -0.0314  0.1119 -0.7838
29858SOL    HW193105  10.025  11.167   8.522 -1.1774  0.6388  0.0732
29858SOL    HW293106  10.120  11.055   8.557  0.0489  0.9798 -2.0013
29859SOL     OW93107   4.292   6.480   4.054 -0.2685  0.1346  0.4247
29859SOL    HW193108   4.247   6.525   3.983  1.8221 -0.0891 -1.1513
29859SOL    HW293109   4.327   6.550   4.109  0.4938  0.3963 -0.3736
29860SOL     OW93110   6.632   8.130   2.107 -0.1742  0.3541 -0.4545
29860SOL    HW193111   6.597   8.048   2.071  2.5222 -2.0440  1.8564
29860SOL    HW293112   6.653   8.183   2.030 -1.7803 -1.2140 -2.0592
29861SOL     OW93113   7.261   2.557  10.230  0.4523 -0.2912 -0.5872
29861SOL    HW193114   7.284   2.478  10.278  0.5822 -0.4370 -0.8883
29861SOL    HW293115   7.191   2.530  10.170  0.0815 -0.0423 -0.2730
29862SOL     OW93116   7.311   4.393   0.963  0.4692  0.2886  0.5611
29862SOL    HW193117   7.245   4.369   1.028  0.3731  0.6608  0.6009
29862SOL    HW293118   7.373   4.447   1.010 -0.1929  1.4988  0.1002
29863SOL     OW93119   9.559  10.818   7.429  0.0866  0.0558 -0.0559
29863SOL    HW193120   9.555  10.736   7.381 -0.1592 -0.0667  0.1706
29863SOL    HW293121   9.484  10.815   7.489  0.4670  0.1402  0.4292
29864SOL     OW93122   8.106  10.844   1.890 -0.1302  0.4533 -0.2521
29864SOL    HW193123   8.165  10.891   1.831  0.5925  0.1602  0.2287
29864SOL    HW293124   8.096  10.902   1.965 -1.3614  0.9974 -0.8191
29865SOL     OW93125   6.913  10.944   1.941 -0.0451  0.0993 -0.0539
29865SOL    HW193126   6.878  10.888   2.011  2.1812 -0.7118  0.4748
29865SOL    HW293127   6.996  10.904   1.917 -1.0341 -0.0518 -3.7386
29866SOL     OW93128   9.881  10.056   9.785  0.2797 -0.0552  0.0261
29866SOL    HW193129   9.793  10.021   9.794  0.4432 -0.4461  0.1311
29866SOL    HW293130   9.883  10.131   9.845  0.3015 -0.5958  0.7184
29867SOL     OW93131   1.768   1.634   3.634 -0.3439  0.0978 -0.4198
29867SOL    HW193132   1.675   1.636   3.612 -0.2550  0.8386 -0.7383
29867SOL    HW293133   1.778   1.554   3.686 -1.0606 -0.2494 -0.7972
29868SOL     OW93134   4.725   8.108   8.451  0.5747 -0.0858  0.0037
29868SOL    HW193135   4.716   8.097   8.356  0.8779 -2.1354  0.1604
29868SOL    HW293136   4.818   8.092   8.469  0.2730 -1.0670  0.7788
29869SOL     OW93137   6.285   5.417   9.103 -0.6493 -0.1961  0.2998
29869SOL    HW193138   6.258   5.447   9.017  0.4434  0.0498  0.0301
29869SOL    HW293139   6.226   5.462   9.164 -0.3234  0.9591 -0.2152
29870SOL     OW93140   9.623   2.223   3.623  0.0907 -0.2946 -0.1713
29870SOL    HW193141   9.695   2.166   3.596 -0.3931 -0.3936 -1.3579
29870SOL    HW293142   9.626   2.295   3.560  0.3564  0.7179  0.9798
29871SOL     OW93143   8.097   9.276   3.652 -1.0243  0.1396 -0.3262
29871SOL    HW193144   8.142   9.229   3.722 -2.2562  1.1901  1.2567
29871SOL    HW293145   8.105   9.220   3.575  0.4973 -0.9923  0.6063
29872SOL     OW93146   8.750  10.783   0.088 -0.5774 -0.3703 -0.5535
29872SOL    HW193147   8.696  10.848   0.134 -1.4983 -0.5157 -1.4057
29872SOL    HW293148   8.707  10.771   0.004  0.1130 -1.4012 -0.7775
29873SOL     OW93149   2.061   7.263   5.934 -0.4587 -0.3146  0.2747
29873SOL    HW193150   2.109   7.299   5.860  0.3227  1.1464  1.4335
29873SOL    HW293151   1.971   7.253   5.903 -0.3245  1.1001 -0.6032
29874SOL     OW93152   7.966   1.005  11.122 -0.7372 -0.1731 -0.3736
29874SOL    HW193153   7.989   0.914  11.106  0.9099 -0.0265  0.8108
29874SOL    HW293154   7.938   1.039  11.037  0.2595 -1.3359 -1.1959
29875SOL     OW93155   6.290   9.695   3.482 -0.1615 -0.1575 -0.1955
29875SOL    HW193156   6.382   9.712   3.461 -1.0094  3.6044 -1.7111
29875SOL    HW293157   6.257   9.647   3.406  0.1149  0.2657 -0.5885
29876SOL     OW93158   7.257   3.583   5.953 -0.4861  0.7718  0.1054
29876SOL    HW193159   7.179   3.527   5.954 -0.6386  0.9762  1.1717
29876SOL    HW293160   7.317   3.539   5.893  0.1440 -1.6501  2.2929
29877SOL     OW93161   2.937   2.009   9.256 -0.3176  0.2858 -0.0631
29877SOL    HW193162   2.900   1.993   9.169  0.7343 -1.4738 -0.2329
29877SOL    HW293163   3.028   2.032   9.240 -0.1606  0.1220  0.5635
29878SOL     OW93164   5.345   5.232   6.703 -0.4704  0.1330 -0.2381
29878SOL    HW193165   5.378   5.196   6.621  0.1118 -0.4068  0.2219
29878SOL    HW293166   5.422   5.268   6.747 -0.2942 -1.8169  1.1895
29879SOL     OW93167   7.149   4.667   3.299 -0.5878 -0.2281 -0.0674
29879SOL    HW193168   7.060   4.688   3.326 -0.4661  0.7593 -0.4047
29879SOL    HW293169   7.201   4.671   3.380 -1.0944 -2.4144  0.4328
29880SOL     OW93170   7.006   8.636  10.020 -0.3886 -0.3725 -0.1497
29880SOL    HW193171   7.070   8.630   9.950 -0.2647 -0.5867 -0.0190
29880SOL    HW293172   7.009   8.727  10.048  0.7064 -0.6394  0.6505
29881SOL     OW93173   6.982   3.558   4.284  0.4188  0.2889  0.2414
29881SOL    HW193174   6.918   3.598   4.344  0.7069 -0.1618  0.8564
29881SOL    HW293175   7.060   3.545   4.338  0.2182 -1.4571  0.1640
29882SOL     OW93176   4.370   0.194   0.235  0.5838  0.1112  0.5936
29882SOL    HW193177   4.290   0.242   0.211  1.2998  1.2309  0.3837
29882SOL    HW293178   4.417   0.253   0.293  1.3582 -0.4601  0.5584
29883SOL     OW93179   3.075   8.105   8.777 -0.0783  0.0292  0.2749
29883SOL    HW193180   3.030   8.181   8.815  0.6676  0.5987  0.0502
29883SOL    HW293181   3.137   8.078   8.845 -1.0105 -0.9948  0.7402
29884SOL     OW93182   1.984  10.212   0.282 -0.0718 -0.4688  0.5430
29884SOL    HW193183   2.074  10.183   0.268  0.1710  1.2781 -2.2449
29884SOL    HW293184   1.935  10.132   0.303  1.5350 -1.9654 -1.1214
29885SOL     OW93185   6.126   5.137   0.812  0.1632 -0.2353 -0.4294
29885SOL    HW193186   6.108   5.191   0.736 -0.8889  0.7105  0.4598
29885SOL    HW293187   6.137   5.199   0.884 -1.4021 -1.1674  0.6882
29886SOL     OW93188   7.465   9.132   9.643  0.5080 -0.5810 -0.3130
29886SOL    HW193189   7.552   9.116   9.680  0.3453  0.2019  0.4566
29886SOL    HW293190   7.423   9.191   9.706 -0.0540  0.2242 -1.4119
29887SOL     OW93191   3.887   1.688   2.333 -0.3156  0.4677 -0.0752
29887SOL    HW193192   3.880   1.633   2.412 -2.4512  0.8167  0.0247
29887SOL    HW293193   3.912   1.627   2.264  0.7832  0.0114  0.6940
29888SOL     OW93194   9.337   2.686   5.720 -0.2633 -0.1447  0.2044
29888SOL    HW193195   9.338   2.750   5.792  1.6360 -0.0314  0.1346
29888SOL    HW293196   9.421   2.699   5.676 -0.7501 -1.2674 -1.1074
29889SOL     OW93197   6.088  10.508   4.634  0.6888  0.3598  0.5278
29889SOL    HW193198   6.045  10.502   4.720  1.5276  0.4146  0.9641
29889SOL    HW293199   6.143  10.587   4.641  1.3367 -0.0564  0.2056
29890SOL     OW93200   4.311   4.180   8.530  0.5290 -0.3038 -0.0357
29890SOL    HW193201   4.318   4.120   8.604  2.0257 -0.9578 -0.6821
29890SOL    HW293202   4.359   4.138   8.460 -2.3528 -0.5781 -2.0209
29891SOL     OW93203   8.683   3.495   7.007 -0.1663  0.5029  0.6604
29891SOL    HW193204   8.654   3.555   7.076 -0.2067 -0.2302  1.2949
29891SOL    HW293205   8.605   3.478   6.955 -0.3283  0.4014  0.9357
29892SOL     OW93206   3.452  10.816   4.695  0.0502 -0.3506  0.0159
29892SOL    HW193207   3.433  10.840   4.604  1.2151  1.6531  0.2330
29892SOL    HW293208   3.384  10.861   4.746 -1.4861 -2.6293  0.1274
29893SOL     OW93209   4.982   1.485   2.636  0.2345 -0.4129 -0.6811
29893SOL    HW193210   5.049   1.447   2.579  0.1313 -0.8386 -0.5145
29893SOL    HW293211   4.905   1.430   2.624  0.7040 -1.5270  1.1192
29894SOL     OW93212   6.347  10.260   1.890  0.5158  0.8852  0.1473
29894SOL    HW193213   6.287  10.213   1.948  2.0801 -1.8358 -0.2628
29894SOL    HW293214   6.342  10.211   1.807  2.9251  0.8104 -0.0192
29895SOL     OW93215   6.434   9.020   3.838 -0.1539 -0.9417  0.2941
29895SOL    HW193216   6.460   9.109   3.814 -0.8503 -1.2262 -1.6435
29895SOL    HW293217   6.382   9.031   3.918 -0.5556  0.4369 -0.1306
29896SOL     OW93218   4.644   7.048   4.063  0.3555 -0.3402 -0.7485
29896SOL    HW193219   4.577   7.115   4.083  1.4537  0.5909 -0.0521
29896SOL    HW293220   4.726   7.097   4.063  1.3215 -1.8528  0.8136
29897SOL     OW93221   0.692   7.937   8.265  0.3028 -0.0243 -0.0479
29897SOL    HW193222   0.725   8.027   8.253  1.6108 -0.3223  1.0298
29897SOL    HW293223   0.599   7.943   8.247  0.6675  1.1906 -1.7734
29898SOL     OW93224  10.817   0.755   4.119 -0.3053 -0.9507  0.2520
29898SOL    HW193225  10.893   0.810   4.101 -1.0009  0.2717  0.9497
29898SOL    HW293226  10.753   0.778   4.052 -0.2455 -1.6675 -0.0699
29899SOL     OW93227   8.252   9.827   7.284  0.6070  0.3968  0.2391
29899SOL    HW193228   8.282   9.740   7.310  0.6369  0.0026 -1.0324
29899SOL    HW293229   8.287   9.886   7.351 -0.3657 -0.6884  1.7605
29900SOL     OW93230   7.525  10.667   8.762 -0.1115 -0.3048 -0.1960
29900SOL    HW193231   7.440  10.626   8.779  0.5759 -1.0435  1.7042
29900SOL    HW293232   7.517  10.703   8.674 -2.2236 -0.7768 -0.2440
29901SOL     OW93233   9.223  10.658   2.783 -0.4853  0.0671  0.3750
29901SOL    HW193234   9.147  10.620   2.828 -0.8316 -1.2990 -1.2590
29901SOL    HW293235   9.214  10.752   2.796 -2.2819 -0.0883  0.4911
29902SOL     OW93236   2.533   4.702   0.154  0.2807  0.1619  0.1186
29902SOL    HW193237   2.529   4.674   0.063 -1.8842  0.8670 -0.0535
29902SOL    HW293238   2.508   4.625   0.205  3.5257 -0.8958  0.3776
29903SOL     OW93239  10.424   8.260   8.953 -0.0336 -0.2650 -0.2336
29903SOL    HW193240  10.389   8.251   8.865 -2.1973  0.8276  0.4296
29903SOL    HW293241  10.430   8.355   8.968  3.3103 -0.3411 -0.2316
29904SOL     OW93242   6.940   9.222   3.543 -0.0702  0.1378  0.2841
29904SOL    HW193243   7.028   9.223   3.504  0.7011  2.7131  1.8041
29904SOL    HW293244   6.900   9.304   3.513 -0.9840  0.2197  1.6339
29905SOL     OW93245  10.630   5.957   3.895 -0.3634 -0.5150 -0.0558
29905SOL    HW193246  10.659   5.869   3.917  2.1796  0.2250 -0.1712
29905SOL    HW293247  10.699   6.015   3.928 -0.5503  1.2300 -2.4051
29906SOL     OW93248   7.622   0.979   6.404  0.6737 -0.3179  0.4526
29906SOL    HW193249   7.586   0.892   6.417 -2.0553  0.6746  0.2439
29906SOL    HW293250   7.594   1.028   6.482  1.1115  0.6726  0.0064
29907SOL     OW93251   4.799   2.633   7.945  0.3815 -0.3090  0.0559
29907SOL    HW193252   4.753   2.567   7.892  0.8973  0.3663 -1.2712
29907SOL    HW293253   4.810   2.707   7.886  1.8045  0.1263  0.8330
29908SOL     OW93254   6.128   2.500   4.506 -0.0404 -0.4886 -0.1238
29908SOL    HW193255   6.171   2.571   4.554  0.0611 -2.2567  2.6179
29908SOL    HW293256   6.200   2.453   4.463  0.6183 -1.8618  2.2788
29909SOL     OW93257   0.300   4.400   7.761 -0.1210  0.2871 -0.1163
29909SOL    HW193258   0.356   4.417   7.837 -0.5595  0.3847  0.1882
29909SOL    HW293259   0.235   4.470   7.763 -1.8902 -1.2880  1.0793
29910SOL     OW93260   3.487   3.282   5.562 -0.0526 -0.4972  0.0889
29910SOL    HW193261   3.414   3.331   5.524 -0.3522 -0.4390  0.7290
29910SOL    HW293262   3.483   3.196   5.521 -0.8240 -0.6777  0.5352
29911SOL     OW93263   1.257   6.098   4.870  0.1804  0.8418  0.6427
29911SOL    HW193264   1.178   6.052   4.897 -0.6109  1.1522 -1.0252
29911SOL    HW293265   1.232   6.190   4.866  0.6970  0.9768  0.3350
29912SOL     OW93266   6.344   9.735   4.130 -0.1820 -0.3711 -0.0137
29912SOL    HW193267   6.281   9.701   4.065  0.6828  0.1951 -1.1764
29912SOL    HW293268   6.318   9.692   4.212 -2.0442 -0.2033 -0.4625
29913SOL     OW93269   4.034   0.677   9.712 -0.2371  0.5749 -0.0190
29913SOL    HW193270   4.006   0.769   9.711  0.2497  0.7330  0.5789
29913SOL    HW293271   4.047   0.655   9.620 -0.5192  1.0549 -0.1772
29914SOL     OW93272   6.852  10.346   5.355 -0.3970  0.2695  0.1179
29914SOL    HW193273   6.766  10.347   5.313 -0.2328  0.1996 -0.2251
29914SOL    HW293274   6.914  10.337   5.282  0.0205  2.2302  0.1974
29915SOL     OW93275   4.958   8.568   1.196  0.5525 -0.0974  0.1879
29915SOL    HW193276   5.051   8.548   1.200  0.4165 -1.0735 -1.0498
29915SOL    HW293277   4.941   8.584   1.104 -0.7192 -1.0419  0.2364
29916SOL     OW93278  10.206  10.537   6.223 -0.4230  0.2368  0.2890
29916SOL    HW193279  10.264  10.478   6.174 -0.0191  0.3971  0.5761
29916SOL    HW293280  10.172  10.597   6.156 -1.5941 -0.9047 -0.1888
29917SOL     OW93281   6.222   0.646   1.135  0.6329 -0.3934  0.2449
29917SOL    HW193282   6.199   0.588   1.207 -2.1577  1.2764  0.8342
29917SOL    HW293283   6.310   0.678   1.157  0.7733 -1.6504  1.6890
29918SOL     OW93284   7.461   7.006   0.064  0.0908 -0.1556 -0.3924
29918SOL    HW193285   7.420   6.966  -0.013 -0.8476 -0.5637  0.2862
29918SOL    HW293286   7.542   7.044   0.032 -1.0438  1.0997 -1.9125
29919SOL     OW93287   5.695   9.462   9.126  0.2874 -0.4259 -1.1220
29919SOL    HW193288   5.655   9.376   9.135 -2.9628  1.1709  1.8062
29919SOL    HW293289   5.763   9.465   9.194  1.0240 -0.9039 -1.8134
29920SOL     OW93290   2.997   2.155   6.086  0.3383  0.5299  0.4990
29920SOL    HW193291   2.913   2.109   6.087  0.7472 -0.2527  1.9709
29920SOL    HW293292   2.994   2.211   6.163  1.9032 -0.9707  1.7257
29921SOL     OW93293   0.947   0.286   9.084 -0.5826 -0.0916  0.7191
29921SOL    HW193294   1.002   0.301   9.007  0.9707  0.5123  1.8961
29921SOL    HW293295   0.858   0.281   9.050 -0.0189  1.0572 -0.9989
29922SOL     OW93296  11.120   0.853   4.392 -0.0382  0.2223  0.3350
29922SOL    HW193297  11.104   0.893   4.306  1.5909  0.9529  0.3324
29922SOL    HW293298  11.213   0.828   4.390 -0.2134 -0.6472  1.5423
29923SOL     OW93299   6.843   0.198   5.636 -0.3204 -0.0737  0.0514
29923SOL    HW193300   6.806   0.195   5.724 -1.5282 -0.0474 -0.4289
29923SOL    HW293301   6.862   0.107   5.614 -1.4582 -0.2619 -0.2214
29924SOL     OW93302   8.795   8.184   7.710  0.0865  0.2602  0.0432
29924SOL    HW193303   8.874   8.135   7.688 -0.5855 -0.3502 -1.0502
29924SOL    HW293304   8.818   8.276   7.692  0.6235  0.1221  0.0033
29925SOL     OW93305   1.995   3.637   6.577 -0.2327 -0.0140 -0.3881
29925SOL    HW193306   2.091   3.641   6.574 -0.0141 -0.1407  2.8317
29925SOL    HW293307   1.968   3.727   6.596 -0.3579 -0.5728  2.6252
29926SOL     OW93308   0.126   2.816   6.627 -0.1908 -0.4626  0.5597
29926SOL    HW193309   0.079   2.887   6.583  1.2605 -0.3543 -0.9331
29926SOL    HW293310   0.063   2.780   6.690 -2.4637 -0.6964 -1.6965
29927SOL     OW93311   9.501   9.289   2.860 -0.0026  0.4481 -0.6530
29927SOL    HW193312   9.591   9.321   2.870  0.1005  0.1293 -0.5268
29927SOL    HW293313   9.468   9.330   2.780  0.7803 -0.6317 -1.5573
29928SOL     OW93314   0.637   7.598  10.916 -0.1139  0.5329  0.5058
29928SOL    HW193315   0.679   7.684  10.917 -0.6039  0.8027  2.1207
29928SOL    HW293316   0.545   7.616  10.934 -0.7359 -0.1546 -1.6838
29929SOL     OW93317   2.865   8.558   8.908 -0.0450  0.1098 -0.3490
29929SOL    HW193318   2.840   8.623   8.842  1.5030  0.0662 -1.0352
29929SOL    HW293319   2.892   8.610   8.984 -1.3845  0.1734  0.0954
29930SOL     OW93320  10.718   5.348   5.312  0.5794  0.1079 -0.1394
29930SOL    HW193321  10.736   5.434   5.275 -0.3662  0.0762 -0.7065
29930SOL    HW293322  10.671   5.301   5.243  1.0803 -0.8720  0.1575
29931SOL     OW93323   4.485  10.701   4.136  0.1201  0.8590 -0.6723
29931SOL    HW193324   4.402  10.735   4.105 -1.6607 -0.2315  2.4559
29931SOL    HW293325   4.504  10.627   4.078 -3.0338 -1.1184  0.5662
29932SOL     OW93326   8.884   1.721   1.308 -0.9422  0.3901 -0.2200
29932SOL    HW193327   8.819   1.772   1.357 -0.4559  0.0410  0.8258
29932SOL    HW293328   8.860   1.734   1.216 -1.3108  1.8585  0.0455
29933SOL     OW93329   6.149   9.522   6.031 -1.0381 -0.2629  0.3212
29933SOL    HW193330   6.235   9.563   6.046 -0.3369 -1.0025 -1.4543
29933SOL    HW293331   6.088   9.595   6.030 -0.3929  0.3152  1.2585
29934SOL     OW93332   9.138   1.395   8.965 -0.5141 -0.3098  0.1011
29934SOL    HW193333   9.176   1.461   9.023  0.2114 -1.0360  0.4587
29934SOL    HW293334   9.144   1.434   8.878  1.4588 -0.5540  0.0820
29935SOL     OW93335   6.978   8.078   2.466  0.5495 -0.3603 -0.4493
29935SOL    HW193336   6.893   8.041   2.444  0.5246 -0.9403  0.5076
29935SOL    HW293337   6.981   8.074   2.562  1.5795 -0.2010 -0.4605
29936SOL     OW93338   8.017   3.623   2.715 -0.4594 -0.3324  0.2602
29936SOL    HW193339   8.075   3.565   2.764 -0.9386  1.1829  2.8563
29936SOL    HW293340   7.940   3.569   2.694 -0.4573 -0.9418  1.6988
29937SOL     OW93341   0.007   2.334  10.873 -0.0069 -0.1839  0.5002
29937SOL    HW193342  -0.083   2.302  10.880 -0.3397  0.5971 -0.0488
29937SOL    HW293343   0.058   2.273  10.927 -0.7344 -1.1185  0.1690
29938SOL     OW93344   6.709  10.918   3.066  0.0349  0.2955 -0.2608
29938SOL    HW193345   6.635  10.978   3.071  0.8043  1.1804  1.6839
29938SOL    HW293346   6.681  10.841   3.116  0.1849  0.3466 -0.0995
29939SOL     OW93347   1.228   2.067   1.000  0.5454  0.3575  0.0623
29939SOL    HW193348   1.231   2.004   0.928  0.0727  1.3123 -0.8212
29939SOL    HW293349   1.278   2.025   1.071  1.2585 -0.4879 -0.9038
29940SOL     OW93350   1.558   0.311   7.100  0.2984 -0.1546  0.6372
29940SOL    HW193351   1.578   0.327   7.008 -1.1274 -1.9501 -0.0530
29940SOL    HW293352   1.611   0.235   7.124 -0.8565 -0.9873  0.6498
29941SOL     OW93353   1.905   7.054   5.748  0.4464 -0.0232  0.4470
29941SOL    HW193354   1.862   7.028   5.666  1.1547 -0.1212  0.1031
29941SOL    HW293355   1.998   7.040   5.732  0.6102  0.1660  1.1984
29942SOL     OW93356   2.454   6.100   0.813  0.5645  0.9637  0.3585
29942SOL    HW193357   2.454   6.028   0.751  1.3895  0.3859  1.0098
29942SOL    HW293358   2.374   6.088   0.865  2.0323 -1.1603  2.3117
29943SOL     OW93359   5.836   6.279   7.607  0.1615  0.2981  0.1809
29943SOL    HW193360   5.893   6.224   7.553  0.6521  1.4468 -0.5366
29943SOL    HW293361   5.845   6.244   7.695 -0.2856 -1.3412 -0.3883
29944SOL     OW93362   1.403   0.887   5.597 -0.3782  0.0383  0.2113
29944SOL    HW193363   1.450   0.862   5.676 -2.3948 -1.5213  1.0106
29944SOL    HW293364   1.384   0.980   5.609  1.6477  0.4847  0.2634
29945SOL     OW93365   9.351   5.705   7.026  0.6264 -0.0695 -0.4757
29945SOL    HW193366   9.418   5.655   6.979  0.5015  0.3014 -1.0648
29945SOL    HW293367   9.271   5.692   6.974  0.1437 -0.8286  0.4324
29946SOL     OW93368  11.033   1.375   7.668  0.0162 -0.3262 -0.5009
29946SOL    HW193369  11.078   1.459   7.676 -1.2884  0.3188  0.3044
29946SOL    HW293370  11.090   1.323   7.610 -0.2375  1.8829 -2.9419
29947SOL     OW93371   9.489   7.441   7.066 -0.3380 -0.2588 -0.1831
29947SOL    HW193372   9.453   7.525   7.093  1.6262  0.0497  1.6833
29947SOL    HW293373   9.439   7.377   7.117 -0.1078 -0.0257  0.3450
29948SOL     OW93374   1.761   1.211   2.580 -0.1129  0.0058  0.3405
29948SOL    HW193375   1.682   1.217   2.526  1.7113  0.8743 -2.3828
29948SOL    HW293376   1.770   1.117   2.598 -0.1341 -0.4891 -1.9534
29949SOL     OW93377   7.626   9.105   9.373  0.1726  0.2556 -0.2741
29949SOL    HW193378   7.572   9.043   9.325  1.4216  0.9301 -2.7001
29949SOL    HW293379   7.563   9.157   9.424 -1.4445  0.5134 -2.3945
29950SOL     OW93380   5.265  10.772   6.604 -0.6656 -0.0109  0.0805
29950SOL    HW193381   5.275  10.806   6.694  1.1353  1.1178 -0.4889
29950SOL    HW293382   5.290  10.680   6.610 -0.2268  0.1394  0.6801
29951SOL     OW93383   2.323   2.545   6.341  0.3679 -0.1113  0.2821
29951SOL    HW193384   2.309   2.472   6.280  1.6839  0.3693 -0.6400
29951SOL    HW293385   2.331   2.503   6.427  0.7039 -1.0193 -0.1828
29952SOL     OW93386   3.694   8.358   4.536 -0.6430  0.3586  0.2717
29952SOL    HW193387   3.654   8.441   4.562  0.5740  1.1451 -0.2776
29952SOL    HW293388   3.677   8.351   4.442  0.6276  0.7998 -0.0102
29953SOL     OW93389   2.385   1.842   7.759 -0.2148 -0.4331  0.7851
29953SOL    HW193390   2.322   1.793   7.706 -0.0952  0.2256  0.0135
29953SOL    HW293391   2.373   1.933   7.732  1.4393 -0.3517  0.2177
29954SOL     OW93392   0.593   2.985   7.665  0.1513  0.0421 -0.1086
29954SOL    HW193393   0.673   2.987   7.719 -0.3414  0.0523  0.6415
29954SOL    HW293394   0.614   2.926   7.593 -0.3419 -2.9886  2.0215
29955SOL     OW93395   9.841   3.449   2.049  0.1631 -0.0546 -0.7454
29955SOL    HW193396   9.866   3.540   2.060  0.6931 -0.0452 -1.8821
29955SOL    HW293397   9.911   3.399   2.091  1.2340  0.0189 -2.3665
29956SOL     OW93398   3.161   5.728   9.326 -0.1951  0.1028  0.4549
29956SOL    HW193399   3.121   5.814   9.311  0.0823 -0.0744 -1.6409
29956SOL    HW293400   3.097   5.666   9.291  1.6103 -0.1956 -2.7008
29957SOL     OW93401   5.185   4.977   1.717 -0.0573 -0.3773  0.5020
29957SOL    HW193402   5.102   5.019   1.741  0.2427 -0.9372  2.8530
29957SOL    HW293403   5.244   5.049   1.696 -0.8805  0.0752 -0.3068
29958SOL     OW93404   2.499  10.341  10.597  0.8148 -0.1993 -0.3143
29958SOL    HW193405   2.579  10.295  10.574  2.2505  1.1972  1.6120
29958SOL    HW293406   2.508  10.360  10.690 -2.0221 -0.4472  0.1035
29959SOL     OW93407   6.482   2.872   8.434  0.3153 -0.0235  0.1354
29959SOL    HW193408   6.547   2.885   8.503 -0.9876  1.3030  1.2058
29959SOL    HW293409   6.398   2.884   8.479 -0.5862  0.7364 -1.6493
29960SOL     OW93410   8.693   0.510   0.676  0.0728 -0.2738  0.7702
29960SOL    HW193411   8.697   0.586   0.618 -0.3207 -1.0791 -0.3421
29960SOL    HW293412   8.606   0.517   0.717  0.0640 -0.0896  0.7236
29961SOL     OW93413  10.518   5.616   6.552 -0.4648  0.3106 -0.4938
29961SOL    HW193414  10.510   5.642   6.460 -1.0707  0.5322 -0.3851
29961SOL    HW293415  10.536   5.698   6.599 -1.8943  0.4942 -0.2098
29962SOL     OW93416   9.883   1.720   2.804  0.5794  0.2660  0.2846
29962SOL    HW193417   9.957   1.667   2.774 -0.2444 -0.4729 -0.5127
29962SOL    HW293418   9.890   1.801   2.753 -0.7730 -0.9550 -1.9893
29963SOL     OW93419   7.137  10.295   4.895 -0.0589  0.5453  0.1471
29963SOL    HW193420   7.120  10.310   4.802 -0.3332  2.3012  0.4615
29963SOL    HW293421   7.165  10.203   4.899 -1.3107  0.0512 -1.4759
29964SOL     OW93422   4.880   5.454  10.259  0.8915 -0.1138 -0.6533
29964SOL    HW193423   4.946   5.470  10.327 -0.0539 -0.0522  0.2645
29964SOL    HW293424   4.822   5.530  10.263  0.6141 -0.2900 -1.2777
29965SOL     OW93425   2.219  10.577  11.098 -0.3589  0.7681  0.3190
29965SOL    HW193426   2.210  10.558  11.192 -0.2777  0.5563  0.2837
29965SOL    HW293427   2.189  10.497  11.055  0.0232  0.7031  0.1705
29966SOL     OW93428   0.075   4.111   3.970  0.6642  0.2226 -0.1303
29966SOL    HW193429   0.032   4.181   3.921 -0.1819  1.1256  1.8169
29966SOL    HW293430   0.146   4.082   3.912 -0.5879  0.8613 -2.0803
29967SOL     OW93431   1.043   3.716   3.286  0.1779 -0.3428 -0.2439
29967SOL    HW193432   1.068   3.760   3.205  0.0629 -1.1248 -0.7177
29967SOL    HW293433   1.057   3.781   3.354  2.2891 -0.3191 -0.6389
29968SOL     OW93434   4.423  10.020   8.439  0.1057 -0.2418  0.0843
29968SOL    HW193435   4.361   9.962   8.483  0.1085 -0.4745 -0.2146
29968SOL    HW293436   4.503  10.013   8.490 -0.0722 -0.0475  0.3912
29969SOL     OW93437   9.626   3.695   8.762  0.8156  0.0754 -0.2751
29969SOL    HW193438   9.572   3.625   8.800 -0.2701 -0.2253 -2.1843
29969SOL    HW293439   9.567   3.739   8.700  2.2366  0.9871 -1.0369
29970SOL     OW93440   2.548   6.340   5.526 -0.2443 -0.3620 -0.4531
29970SOL    HW193441   2.488   6.359   5.454 -2.3441 -0.2183  1.2358
29970SOL    HW293442   2.533   6.410   5.590  0.1964 -1.4778  0.9416
29971SOL     OW93443   8.131   1.044   9.359  0.5904 -0.2178  0.0811
29971SOL    HW193444   8.116   1.132   9.325  1.4700 -0.5115 -1.1327
29971SOL    HW293445   8.188   1.057   9.435 -1.9991  0.5053  2.0671
29972SOL     OW93446   1.558   0.630   8.831  0.7639  0.6778  0.1881
29972SOL    HW193447   1.552   0.572   8.907  1.0492 -0.0272 -0.3224
29972SOL    HW293448   1.471   0.669   8.823  0.3038 -0.3573 -0.0019
29973SOL     OW93449   7.259  10.033   9.841 -0.2258 -0.4104 -0.0600
29973SOL    HW193450   7.265  10.107   9.902 -4.0332  0.7533 -0.7875
29973SOL    HW293451   7.218   9.963   9.891  0.9277 -1.1175 -0.0843
29974SOL     OW93452   9.649   8.557   1.046 -0.2327  0.0152  0.6820
29974SOL    HW193453   9.735   8.566   1.086  0.0632  0.8174 -0.0896
29974SOL    HW293454   9.592   8.526   1.116  0.7344 -0.7930  1.1373
29975SOL     OW93455  10.945   5.485  10.681 -0.7384 -0.1800  0.0627
29975SOL    HW193456  10.962   5.492  10.587 -2.4270 -0.5184 -0.2837
29975SOL    HW293457  10.865   5.435  10.688 -0.4263 -0.5074  1.7230
29976SOL     OW93458  10.505   7.367   9.051 -0.1000  0.4143 -0.5884
29976SOL    HW193459  10.535   7.426   9.120 -0.7966  0.2267 -0.1206
29976SOL    HW293460  10.580   7.308   9.036  0.4644  1.1686 -0.8028
29977SOL     OW93461   9.431   3.154   6.469  0.3601  0.2968  0.0710
29977SOL    HW193462   9.339   3.178   6.468  0.1930  0.0293  2.3885
29977SOL    HW293463   9.455   3.143   6.377 -1.5281  1.7438 -0.6516
29978SOL     OW93464   2.693   8.500  10.437  0.0478 -0.0183 -0.1634
29978SOL    HW193465   2.660   8.421  10.482 -0.5177  0.8479  0.9987
29978SOL    HW293466   2.627   8.518  10.370  0.1654 -0.5035 -0.4204
29979SOL     OW93467   2.688   1.821   6.620 -0.1409  0.0127  0.0594
29979SOL    HW193468   2.677   1.729   6.647  1.2646  0.2490  1.5723
29979SOL    HW293469   2.748   1.858   6.684 -0.0042  1.7933 -1.0309
29980SOL     OW93470   5.153   4.223   2.495  0.1308  0.0663 -0.2049
29980SOL    HW193471   5.065   4.219   2.458 -1.0629 -0.5884  2.4867
29980SOL    HW293472   5.164   4.314   2.520 -0.6142 -0.2065  1.2130
29981SOL     OW93473  10.470   8.797   7.206 -0.3795 -0.0959  0.2775
29981SOL    HW193474  10.559   8.763   7.203  0.3378  1.6976  0.0977
29981SOL    HW293475  10.415   8.720   7.219  1.2672 -1.1201  1.5168
29982SOL     OW93476   5.676   6.000   6.611  0.6051  0.9332 -0.0003
29982SOL    HW193477   5.604   6.062   6.602  0.7574  1.0092 -0.7628
29982SOL    HW293478   5.748   6.052   6.647  0.5517  1.0636 -0.0797
29983SOL     OW93479   2.891   0.294   6.968  0.3529  0.4478  0.1496
29983SOL    HW193480   2.846   0.233   7.027 -0.7407 -0.6516 -1.7010
29983SOL    HW293481   2.973   0.250   6.947 -0.2251 -0.2029 -0.8126
29984SOL     OW93482  10.519   8.071   1.993  0.6952 -0.3407  0.3875
29984SOL    HW193483  10.471   8.130   1.935 -1.9871 -1.3184  1.4477
29984SOL    HW293484  10.581   8.127   2.039  0.5322  1.0213 -0.9958
29985SOL     OW93485   8.240   2.545   0.057 -0.5596  0.0345  0.3989
29985SOL    HW193486   8.147   2.541   0.038 -0.3471 -1.1083 -0.5957
29985SOL    HW293487   8.250   2.498   0.140 -0.8140 -0.4210  0.1799
29986SOL     OW93488   2.324   4.142   3.902 -0.0324 -0.0165 -0.7823
29986SOL    HW193489   2.300   4.055   3.870  0.3724 -0.2141 -0.5594
29986SOL    HW293490   2.303   4.201   3.830  1.0112 -0.4706 -1.4712
29987SOL     OW93491   5.989  10.122   7.744 -0.2473 -0.4019  0.1105
29987SOL    HW193492   5.928  10.053   7.720  1.2148 -1.1073 -1.8701
29987SOL    HW293493   6.068  10.076   7.772  0.0017  0.4801  0.9255
29988SOL     OW93494   6.718   2.361   2.208 -0.5430 -0.0309  0.5064
29988SOL    HW193495   6.657   2.389   2.276  0.7874  1.4012  1.1744
29988SOL    HW293496   6.777   2.435   2.196  0.8607 -1.2245 -0.3639
29989SOL     OW93497  10.521   9.942   3.367 -0.1750  0.0029  0.6598
29989SOL    HW193498  10.508  10.003   3.439 -0.8223  0.3186  0.2825
29989SOL    HW293499  10.466   9.976   3.296 -0.2845 -0.8258  0.3339
29990SOL     OW93500   1.894   5.988   5.499  0.0173  0.2718 -0.1659
29990SOL    HW193501   1.943   5.947   5.570  1.2717 -0.1204 -1.2222
29990SOL    HW293502   1.813   5.936   5.493  0.0946  0.0468  0.6840
29991SOL     OW93503   3.101   5.729   7.802 -0.0994 -0.0373  0.0197
29991SOL    HW193504   3.161   5.655   7.807  0.0482  0.1023  0.3289
29991SOL    HW293505   3.014   5.689   7.810 -0.1963 -0.4785 -2.5365
29992SOL     OW93506   5.236  10.222   9.659 -0.2077 -0.2055 -0.0855
29992SOL    HW193507   5.243  10.215   9.755 -0.6879 -2.5864 -0.1681
29992SOL    HW293508   5.153  10.267   9.644  0.9320  2.2940  0.5817
29993SOL     OW93509   6.215   2.920   7.099 -0.1518  0.3949  0.2042
29993SOL    HW193510   6.151   2.864   7.144  0.6643  0.1315  1.0806
29993SOL    HW293511   6.163   2.973   7.039 -0.9718 -1.3014 -0.6720
29994SOL     OW93512   6.587   1.794   5.172  0.5743 -0.2698  0.3460
29994SOL    HW193513   6.536   1.823   5.248 -0.3058  0.5527 -0.5364
29994SOL    HW293514   6.533   1.727   5.131 -0.2626  1.1947 -1.0712
29995SOL     OW93515   4.710  10.084   1.773 -0.1864 -0.5983 -0.4814
29995SOL    HW193516   4.673  10.077   1.685  1.2050  0.1602 -1.1690
29995SOL    HW293517   4.795  10.040   1.767  0.5376  0.6715  0.0869
29996SOL     OW93518   0.654   1.549   2.245  0.4569 -0.6960 -0.1642
29996SOL    HW193519   0.723   1.486   2.261  1.6157  0.6090  0.1834
29996SOL    HW293520   0.630   1.582   2.331  0.5701  0.0476 -0.4039
29997SOL     OW93521   8.876  10.789   3.015 -0.1360 -0.1514 -0.1629
29997SOL    HW193522   8.937  10.809   3.086 -0.5571  0.0871  0.1365
29997SOL    HW293523   8.792  10.775   3.059 -0.1258 -1.3212 -0.4886
29998SOL     OW93524   4.235   0.886   6.698 -0.1253  0.8541  0.4934
29998SOL    HW193525   4.149   0.910   6.662 -0.9179  0.0678  1.8021
29998SOL    HW293526   4.235   0.922   6.786  0.7553  0.5421  0.6284
29999SOL     OW93527  10.168   9.427   7.923 -0.7777 -0.0956  0.1745
29999SOL    HW193528  10.118   9.416   8.004 -2.6470 -0.2130 -0.9292
29999SOL    HW293529  10.239   9.364   7.930 -0.3491  0.5323  2.0958
30000SOL     OW93530   7.584   3.468   5.476 -0.0289 -0.2965 -0.5116
30000SOL    HW193531   7.530   3.438   5.548  1.3248 -1.3711  0.1068
30000SOL    HW293532   7.522   3.503   5.412 -1.1594  2.8431  2.0556
30001SOL     OW93533   8.819   9.478   2.062 -0.6841 -0.4798 -0.0335
30001SOL    HW193534   8.793   9.446   1.976 -1.0704 -0.5161  0.0965
30001SOL    HW293535   8.906   9.439   2.077 -0.5081 -0.2743 -0.5093
30002SOL     OW93536   6.224   1.424   2.360  0.5924  0.0881  0.0306
30002SOL    HW193537   6.166   1.399   2.288  1.7695  0.5830 -1.1361
30002SOL    HW293538   6.194   1.512   2.385 -0.2710 -0.3669  0.6562
30003SOL     OW93539  10.642   9.693   4.339 -0.0643  0.4128 -0.0605
30003SOL    HW193540  10.599   9.611   4.363  0.3824  0.5513  1.3216
30003SOL    HW293541  10.626   9.751   4.413  0.0135  1.4285 -0.8224
30004SOL     OW93542   0.036   1.737   8.329  0.3969  0.1474 -0.6279
30004SOL    HW193543  -0.049   1.694   8.337  0.4191  0.4259  1.8399
30004SOL    HW293544   0.084   1.684   8.266 -0.5651 -1.8138  0.2032
30005SOL     OW93545   9.176   7.803   6.383  0.1561 -0.2986  0.1439
30005SOL    HW193546   9.155   7.858   6.459  0.5793 -0.2423  0.2258
30005SOL    HW293547   9.100   7.810   6.326 -0.0356 -0.0887  0.4217
30006SOL     OW93548   5.383   5.803   7.467 -0.8267  0.5125 -0.2595
30006SOL    HW193549   5.317   5.791   7.536  1.0845  0.3145  1.6537
30006SOL    HW293550   5.374   5.725   7.412 -2.5356  0.7703 -0.4225
30007SOL     OW93551   6.340   2.665   4.607  0.0885 -0.3687  0.1805
30007SOL    HW193552   6.393   2.700   4.535 -0.0212 -0.2312  0.1663
30007SOL    HW293553   6.403   2.627   4.667  0.1503 -0.9727 -0.2513
30008SOL     OW93554   0.846   3.337   8.399 -0.3212  0.0319 -0.6545
30008SOL    HW193555   0.792   3.330   8.321  0.2473  0.7861 -1.1250
30008SOL    HW293556   0.793   3.298   8.469 -1.4931  0.7908 -1.0938
30009SOL     OW93557   2.720   9.391   9.282  0.3902 -0.1549  0.8082
30009SOL    HW193558   2.727   9.299   9.309  0.4376 -0.5121 -0.3939
30009SOL    HW293559   2.626   9.410   9.288  0.3283 -0.4082  0.6656
30010SOL     OW93560   2.666   6.282   8.378  0.4874  0.1356  0.1520
30010SOL    HW193561   2.600   6.349   8.392 -0.9296 -1.1648 -0.0049
30010SOL    HW293562   2.656   6.256   8.287  0.1838 -1.1190  0.5268
30011SOL     OW93563   6.846  10.070   7.211 -0.4582  0.5867 -0.6049
30011SOL    HW193564   6.751  10.076   7.202 -0.6711 -2.3475 -1.3349
30011SOL    HW293565   6.881  10.121   7.138 -1.5712 -0.2680 -1.7766
30012SOL     OW93566   5.399   6.258   0.842  0.1095  0.1490  0.2317
30012SOL    HW193567   5.399   6.233   0.934 -0.8002  2.0908  0.8084
30012SOL    HW293568   5.471   6.321   0.834 -0.3458  0.6216 -0.2034
30013SOL     OW93569   5.102   8.633   4.249 -0.0045 -0.1562  0.4756
30013SOL    HW193570   5.172   8.682   4.292 -1.2450  1.9132  0.2637
30013SOL    HW293571   5.137   8.610   4.163  0.4709  0.7416  0.4233
30014SOL     OW93572   6.693   7.832   1.676 -0.1444  0.2904  0.3613
30014SOL    HW193573   6.693   7.833   1.772  2.9848  3.0410  0.5015
30014SOL    HW293574   6.670   7.922   1.652 -0.2738 -0.2056 -1.4804
30015SOL     OW93575   5.220   8.821   2.692  0.1107 -0.0389  0.1546
30015SOL    HW193576   5.249   8.754   2.755  1.1583 -1.1376 -1.4011
30015SOL    HW293577   5.301   8.866   2.667 -0.2215  0.1153 -0.6734
30016SOL     OW93578   4.073   9.932   5.620  0.3683  0.0153 -0.0077
30016SOL    HW193579   4.052   9.901   5.532  1.9211 -1.2568  0.0328
30016SOL    HW293580   3.996   9.907   5.673 -0.0932 -0.2305 -0.7789
30017SOL     OW93581  10.408   9.634   6.391 -0.4454  0.1411  0.5431
30017SOL    HW193582  10.391   9.649   6.483  0.5450  0.3489  0.7069
30017SOL    HW293583  10.490   9.584   6.389 -0.6024 -0.1067 -0.2077
30018SOL     OW93584   7.578   0.539   2.168 -0.0756 -0.1990 -0.2438
30018SOL    HW193585   7.624   0.510   2.090  0.0969  1.1045 -0.6540
30018SOL    HW293586   7.622   0.620   2.193 -0.8832  0.0222  0.5066
30019SOL     OW93587   1.639   8.433   8.097 -0.3526 -0.1756  0.0865
30019SOL    HW193588   1.625   8.478   8.014  0.1247 -0.5914 -0.2296
30019SOL    HW293589   1.620   8.498   8.164 -2.0887 -0.2139 -0.3207
30020SOL     OW93590  10.835   7.932   5.120 -0.1326 -0.3175 -0.0998
30020SOL    HW193591  10.755   7.913   5.169  0.4225 -2.8494 -0.0339
30020SOL    HW293592  10.901   7.947   5.188 -0.4534  1.5068 -0.1536
30021SOL     OW93593   9.804   9.919   8.858  0.1680  0.1066  1.0761
30021SOL    HW193594   9.873   9.878   8.910  0.3029 -0.1455  0.6954
30021SOL    HW293595   9.788  10.003   8.902  0.2872 -0.1020  1.5194
30022SOL     OW93596   9.440   7.763  10.230  0.3522 -0.6220 -0.0534
30022SOL    HW193597   9.387   7.795  10.157 -0.4948 -2.0175 -0.0839
30022SOL    HW293598   9.429   7.668  10.228 -0.2418 -0.6495  2.3127
30023SOL     OW93599   0.857   0.181   7.358 -0.7879  0.0434  0.1448
30023SOL    HW193600   0.763   0.196   7.357 -1.1762 -1.9637  1.2871
30023SOL    HW293601   0.875   0.135   7.277 -0.6983  0.7854 -0.2666
30024SOL     OW93602   3.915   9.502   9.327 -0.1153 -0.2631  0.0404
30024SOL    HW193603   3.959   9.550   9.257  0.3380  0.4228  0.7820
30024SOL    HW293604   3.846   9.452   9.282  0.2853  0.0125 -0.9094
30025SOL     OW93605   5.052   8.030   2.454  0.4495  0.3481  0.2021
30025SOL    HW193606   5.004   8.098   2.407  1.2390  1.2374  0.6496
30025SOL    HW293607   5.144   8.056   2.446  0.7449 -0.5598  0.5603
30026SOL     OW93608   4.961   3.084   7.088 -0.0876  0.7845  0.6861
30026SOL    HW193609   5.051   3.072   7.058 -0.2628  2.5560 -0.6699
30026SOL    HW293610   4.969   3.097   7.183  1.0590  0.7522  0.6060
30027SOL     OW93611  10.126   8.204   9.929  0.3701  0.2009  0.0466
30027SOL    HW193612  10.125   8.278   9.868  0.7611 -0.2705 -0.5385
30027SOL    HW293613  10.034   8.187   9.948  0.2081 -0.0881 -0.9513
30028SOL     OW93614   3.072   2.385   5.070  0.5295  0.1396  0.5319
30028SOL    HW193615   3.000   2.349   5.123  0.2535  0.5929  0.4756
30028SOL    HW293616   3.150   2.341   5.102  0.3775  0.4637  1.3741
30029SOL     OW93617   9.319   8.322   8.772 -0.1654  0.9019 -0.3640
30029SOL    HW193618   9.260   8.299   8.844  1.2323 -0.5038  0.3944
30029SOL    HW293619   9.406   8.322   8.811  0.7786 -1.0493 -2.2667
30030SOL     OW93620   5.835  10.413   3.545  0.0596 -0.3040  0.1045
30030SOL    HW193621   5.779  10.374   3.478  0.3107  0.2310 -0.4364
30030SOL    HW293622   5.863  10.340   3.600 -1.7866 -0.4857  0.8685
30031SOL     OW93623   8.945   3.713   9.275 -0.5462  0.0777 -0.7767
30031SOL    HW193624   8.878   3.654   9.308 -2.1351  1.7636 -0.8544
30031SOL    HW293625   8.993   3.660   9.211 -0.3104 -1.8417  0.8698
30032SOL     OW93626   8.527   3.549  10.509  0.1284 -0.2424 -0.2548
30032SOL    HW193627   8.455   3.565  10.448 -2.6719 -2.3831  2.2618
30032SOL    HW293628   8.529   3.454  10.521  1.8968 -0.0590  1.4877
30033SOL     OW93629   1.240   0.330   5.542  0.1316  0.0251 -0.4720
30033SOL    HW193630   1.168   0.367   5.491  0.0297 -0.5671 -0.7677
30033SOL    HW293631   1.198   0.294   5.620 -0.0196 -1.0799 -1.0442
30034SOL     OW93632   0.006   8.473   1.971 -0.0015 -0.1525  0.1493
30034SOL    HW193633  -0.017   8.558   1.932 -1.2699  0.0113  1.1732
30034SOL    HW293634   0.092   8.453   1.935  0.8298  2.0870  0.6860
30035SOL     OW93635  10.603   0.970   0.176 -0.6615  0.5671 -0.0849
30035SOL    HW193636  10.561   0.905   0.232 -0.9183  0.5260 -0.3215
30035SOL    HW293637  10.530   1.023   0.142 -0.4126  1.3511  0.5696
30036SOL     OW93638   8.564   9.764   3.689 -0.3669 -0.3995 -0.5135
30036SOL    HW193639   8.607   9.732   3.609 -0.3606 -0.6495 -0.4124
30036SOL    HW293640   8.633   9.759   3.756 -0.0784  0.7577 -0.7050
30037SOL     OW93641  10.611   8.072  10.448 -0.3362 -0.3493  0.4146
30037SOL    HW193642  10.576   8.079  10.537  0.5343  0.7724  0.6973
30037SOL    HW293643  10.694   8.120  10.452  0.8021 -2.1626 -0.4537
30038SOL     OW93644   0.295   2.973   0.966 -0.1471 -0.0205  0.6373
30038SOL    HW193645   0.234   2.902   0.947  0.2990 -0.7997  1.9611
30038SOL    HW293646   0.370   2.929   1.008  0.5122  1.1331  0.7127
30039SOL     OW93647  11.109   7.249   7.974 -0.1272  0.7043  0.4138
30039SOL    HW193648  11.082   7.236   8.065 -0.6439 -0.1698  0.1528
30039SOL    HW293649  11.182   7.310   7.979  0.9707 -0.6191  1.5767
30040SOL     OW93650   9.294   0.848   0.676 -0.2457 -0.9918 -0.0478
30040SOL    HW193651   9.281   0.905   0.600  0.9317 -1.2241 -0.4517
30040SOL    HW293652   9.215   0.860   0.729 -0.1171  0.8562 -0.2135
30041SOL     OW93653   5.392   2.928   9.606 -0.5372  0.5070 -0.1569
30041SOL    HW193654   5.440   2.918   9.688  0.6535  2.0562 -0.6145
30041SOL    HW293655   5.446   2.883   9.541 -0.5996  0.7284 -0.3649
30042SOL     OW93656   5.131   4.761   6.833  0.1855 -0.0788  0.1120
30042SOL    HW193657   5.209   4.705   6.840 -0.8584 -1.6236  0.0307
30042SOL    HW293658   5.058   4.699   6.834 -1.0058  1.2539 -0.8554
30043SOL     OW93659   6.533   4.584   8.400  0.2173  0.8126  0.3958
30043SOL    HW193660   6.461   4.646   8.408  0.2525  1.3305 -2.2838
30043SOL    HW293661   6.610   4.638   8.382  0.3537  0.0750 -1.4235
30044SOL     OW93662   4.083   3.568  10.979 -0.0819  0.8632 -0.1734
30044SOL    HW193663   4.041   3.615  11.051  0.3869  2.2973 -0.8071
30044SOL    HW293664   4.177   3.576  10.996  0.0179 -0.6743  0.1999
30045SOL     OW93665   9.879   8.310   6.528 -0.2965 -0.0240 -0.7090
30045SOL    HW193666   9.846   8.271   6.609  1.2899 -2.9081 -1.2963
30045SOL    HW293667   9.803   8.319   6.472 -0.8749 -1.6625 -0.2347
30046SOL     OW93668   7.477   6.472   2.355  0.4931  0.8010 -0.3445
30046SOL    HW193669   7.476   6.383   2.319 -1.6650  0.9349 -0.7616
30046SOL    HW293670   7.537   6.521   2.298  0.6102 -0.0499 -0.9685
30047SOL     OW93671   7.305   7.178   4.943 -0.5847  0.3662 -0.7562
30047SOL    HW193672   7.347   7.245   4.997 -0.0296 -1.3358  1.0567
30047SOL    HW293673   7.215   7.207   4.934 -0.5164  1.0671  0.5388
30048SOL     OW93674  10.782   5.798   5.648  0.2148 -0.2602 -0.3086
30048SOL    HW193675  10.750   5.888   5.645 -0.4210 -0.1899  3.6043
30048SOL    HW293676  10.702   5.744   5.650  0.2081 -0.3963  3.7521
30049SOL     OW93677   4.221   2.779  10.697  0.3250 -0.0197 -0.1804
30049SOL    HW193678   4.165   2.833  10.641  0.2954 -1.3102 -1.4644
30049SOL    HW293679   4.224   2.825  10.780  0.0947  1.8181 -1.1385
30050SOL     OW93680   3.298   0.327   5.115  0.4358  0.3073 -0.1849
30050SOL    HW193681   3.300   0.380   5.036  2.1556  1.0643  0.3238
30050SOL    HW293682   3.390   0.315   5.139  0.2266 -3.7767 -0.7904
30051SOL     OW93683  11.096   3.501   9.176 -0.6402 -0.0106 -0.5597
30051SOL    HW193684  11.029   3.555   9.136 -0.3562  0.6089 -0.2067
30051SOL    HW293685  11.051   3.455   9.247 -0.4339  1.3252  0.4652
30052SOL     OW93686   1.112   9.529   9.181  0.1615  0.2455 -0.0711
30052SOL    HW193687   1.105   9.492   9.093  1.2392  0.8569 -0.4458
30052SOL    HW293688   1.058   9.473   9.236  0.4610 -0.8874 -0.9031
30053SOL     OW93689   8.497   1.002   0.660  0.2243 -0.3611 -0.8126
30053SOL    HW193690   8.411   1.000   0.702  1.0275  1.3066  1.1201
30053SOL    HW293691   8.515   1.095   0.647  1.6532 -0.6902 -1.3407
30054SOL     OW93692   1.465   5.877   2.171  0.5101  0.0820  0.5135
30054SOL    HW193693   1.378   5.905   2.143  0.8814  0.5798 -0.1790
30054SOL    HW293694   1.493   5.945   2.233  0.5989  0.1828  0.3641
30055SOL     OW93695   2.513   1.756   1.668  0.3031 -0.3225 -0.4005
30055SOL    HW193696   2.560   1.758   1.751  0.9519 -1.2325 -0.7167
30055SOL    HW293697   2.552   1.827   1.616 -0.5602  0.6758  0.2864
30056SOL     OW93698  10.331   2.229   2.104  0.1317 -0.3518 -0.0354
30056SOL    HW193699  10.392   2.158   2.122  0.1860 -0.8421 -1.9763
30056SOL    HW293700  10.275   2.195   2.034 -1.6537  0.5072  0.9020
30057SOL     OW93701   7.166   8.006   1.852 -0.1677 -0.1062  0.2623
30057SOL    HW193702   7.133   7.947   1.785 -0.3529  0.4755 -0.1702
30057SOL    HW293703   7.172   7.953   1.931 -3.2414  0.0029  0.6702
30058SOL     OW93704   1.176   4.570   4.054 -0.0501 -0.2010  0.1624
30058SOL    HW193705   1.169   4.665   4.053  0.9802 -0.1132 -0.1467
30058SOL    HW293706   1.169   4.545   3.962  0.6070 -0.3324  0.1416
30059SOL     OW93707   4.204   1.428   2.516 -0.1618  0.5822 -0.0588
30059SOL    HW193708   4.115   1.430   2.550 -0.6222  0.3227 -1.1963
30059SOL    HW293709   4.255   1.383   2.583 -0.8425  0.9027  0.6864
30060SOL     OW93710   5.083   2.733   7.472 -0.4398  0.0019 -0.3579
30060SOL    HW193711   5.023   2.793   7.428 -0.9923 -1.0741 -1.1014
30060SOL    HW293712   5.100   2.774   7.557 -0.6337  1.3088 -0.9226
30061SOL     OW93713   5.032   7.246   5.918  0.2853  0.4512 -0.0164
30061SOL    HW193714   4.942   7.273   5.936  0.6359  1.0282  0.9591
30061SOL    HW293715   5.072   7.324   5.878 -0.1216 -0.3872 -2.1838
30062SOL     OW93716   6.926   9.403   4.818  0.2578 -0.2204  0.0314
30062SOL    HW193717   6.931   9.311   4.790 -1.4422 -0.5206  0.5733
30062SOL    HW293718   7.011   9.440   4.794  1.0794 -1.9926  0.0267
30063SOL     OW93719   6.777  10.467   5.701 -0.1801  0.0724 -0.1552
30063SOL    HW193720   6.692  10.497   5.733 -0.2612 -0.0530 -0.2545
30063SOL    HW293721   6.779  10.491   5.609 -0.9088 -1.6435 -0.6508
30064SOL     OW93722   2.966   3.813   6.483 -0.1567 -0.3623  0.2290
30064SOL    HW193723   2.923   3.863   6.552  0.4482  1.1458 -0.4527
30064SOL    HW293724   3.006   3.738   6.529 -0.5901  0.0824  1.3536
30065SOL     OW93725   4.501   8.937   1.341 -0.0418  0.9487  0.3113
30065SOL    HW193726   4.503   8.909   1.432  1.8252  0.9246  0.3138
30065SOL    HW293727   4.569   9.005   1.336  0.1407  0.6859 -1.1307
30066SOL     OW93728   8.246   9.875   0.788  0.5120  0.1513 -0.2701
30066SOL    HW193729   8.180   9.938   0.760 -1.3303 -0.9262  1.4090
30066SOL    HW293730   8.325   9.928   0.802 -0.1825  1.6067 -1.5468
30067SOL     OW93731   5.969  10.781  10.493  0.1612  0.3528  0.1939
30067SOL    HW193732   5.934  10.724  10.562 -0.7101  1.3417  0.5918
30067SOL    HW293733   6.060  10.753  10.483 -0.1959 -0.9949  0.4926
30068SOL     OW93734   8.024   4.882   8.500  0.0580  0.5200 -0.0788
30068SOL    HW193735   7.947   4.831   8.474  0.4976  0.1855 -0.7637
30068SOL    HW293736   7.997   4.973   8.487 -0.6978  0.4697  1.0610
30069SOL     OW93737   1.079   3.865   3.053 -0.0758  0.2064  0.2619
30069SOL    HW193738   1.007   3.880   2.991  0.3148  2.5158  0.2736
30069SOL    HW293739   1.144   3.816   3.003  0.0888  1.7486 -1.1017
30070SOL     OW93740   4.117   8.297   2.638 -0.0204  0.0757 -0.3874
30070SOL    HW193741   4.052   8.265   2.576 -0.1154  0.7442 -0.6475
30070SOL    HW293742   4.134   8.387   2.610  0.8899 -0.0325 -0.2193
30071SOL     OW93743   1.350   3.781   1.658  0.1925  0.0427  0.1535
30071SOL    HW193744   1.441   3.755   1.652 -0.5974 -2.5273 -2.8327
30071SOL    HW293745   1.309   3.715   1.714 -0.0498  0.7233  0.8135
30072SOL     OW93746   5.967   1.853   8.991  0.0939 -0.0264  0.0794
30072SOL    HW193747   6.045   1.806   9.020  0.2743 -0.2229 -0.6905
30072SOL    HW293748   5.964   1.932   9.045  1.5799  0.6479 -0.7796
30073SOL     OW93749   4.472   6.379   0.585 -0.0102  0.1455  0.9615
30073SOL    HW193750   4.439   6.366   0.674 -0.2430 -0.6772  0.7602
30073SOL    HW293751   4.449   6.298   0.539  0.1496  0.5475  0.1660
30074SOL     OW93752   6.977   4.911   4.281  0.6309 -0.4193  0.1685
30074SOL    HW193753   7.044   4.958   4.332 -0.9145  0.6302  1.3093
30074SOL    HW293754   6.902   4.970   4.281 -0.6135 -1.9536 -0.3151
30075SOL     OW93755   3.588   9.066   3.539  0.0639 -0.4493  0.6467
30075SOL    HW193756   3.539   9.051   3.620  1.9707 -1.2978  1.7022
30075SOL    HW293757   3.659   9.125   3.565  0.9689 -1.1002 -0.2984
30076SOL     OW93758   5.679  10.835   2.288 -0.0848 -0.0999  0.2698
30076SOL    HW193759   5.692  10.771   2.218  1.7867  1.5955 -1.0496
30076SOL    HW293760   5.753  10.823   2.347 -0.2560  0.1800  0.5486
30077SOL     OW93761   0.453   7.693  10.567 -0.1914  0.3874  0.0353
30077SOL    HW193762   0.364   7.706  10.601  0.2122  0.4827  1.0861
30077SOL    HW293763   0.457   7.600  10.545 -0.0832  0.0379  1.4201
30078SOL     OW93764   5.257   5.903  10.142 -0.4570  0.0210  0.5324
30078SOL    HW193765   5.299   5.930  10.224  0.1531  0.1515  0.1848
30078SOL    HW293766   5.330   5.876  10.086 -0.8799 -0.1780  0.0744
30079SOL     OW93767   0.393   8.451   3.125 -0.1146  0.1732 -0.5895
30079SOL    HW193768   0.467   8.460   3.064  0.0889  0.7193 -0.2717
30079SOL    HW293769   0.433   8.427   3.208 -0.2288  1.1063 -0.2575
30080SOL     OW93770   7.596   7.004   5.718 -0.1628  0.7130  0.0856
30080SOL    HW193771   7.587   6.934   5.783  0.6180  0.5142 -0.0107
30080SOL    HW293772   7.682   7.042   5.735  1.5388 -1.3909 -2.7623
30081SOL     OW93773   1.066   0.197   9.962  0.3767  0.4844 -0.4237
30081SOL    HW193774   0.980   0.237   9.967 -0.7665 -1.7873 -0.7807
30081SOL    HW293775   1.051   0.104   9.976  2.9721  0.1685  1.0842
30082SOL     OW93776   2.397   2.923   5.731 -0.4000  0.6697 -0.4015
30082SOL    HW193777   2.309   2.894   5.754 -0.9710  1.0300 -1.9864
30082SOL    HW293778   2.455   2.872   5.788 -1.5441 -0.7683 -0.4579
30083SOL     OW93779   4.456   1.793   7.369  0.3793  0.1750 -0.0133
30083SOL    HW193780   4.521   1.787   7.440  0.8012 -1.3989 -0.4940
30083SOL    HW293781   4.508   1.784   7.289 -0.5147 -2.7492 -0.3806
30084SOL     OW93782   4.305   1.229   2.713 -0.0200 -0.3594  0.3696
30084SOL    HW193783   4.359   1.176   2.654 -0.8331 -0.8326  0.0271
30084SOL    HW293784   4.289   1.172   2.788  0.8411  0.1697  0.9807
30085SOL     OW93785   9.953   9.289  10.474  0.1136 -0.6370  0.3519
30085SOL    HW193786   9.945   9.369  10.422  1.5565 -0.4243  0.4326
30085SOL    HW293787   9.863   9.257  10.481 -0.5175  1.0289  0.4167
30086SOL     OW93788   1.457   8.512  10.321 -0.2336 -0.0228  0.2597
30086SOL    HW193789   1.426   8.422  10.313  0.1714 -0.1770  0.4301
30086SOL    HW293790   1.552   8.504  10.333 -0.0751  0.4595 -0.6142
30087SOL     OW93791   7.531   8.859   7.155 -0.3809 -0.3756  0.2366
30087SOL    HW193792   7.572   8.795   7.096 -0.8026  0.0046 -0.4769
30087SOL    HW293793   7.444   8.873   7.120 -0.7079 -0.2638  1.0545
30088SOL     OW93794   0.865   7.477   8.883  0.3664 -0.4426  0.3113
30088SOL    HW193795   0.900   7.497   8.796 -1.8673 -0.5606 -0.6787
30088SOL    HW293796   0.879   7.383   8.893  0.3362 -0.4907 -0.0830
30089SOL     OW93797   1.627   2.549   7.904 -0.0383 -0.2779  0.1919
30089SOL    HW193798   1.704   2.606   7.900 -0.4715  0.2840 -0.3583
30089SOL    HW293799   1.613   2.520   7.814 -0.0087 -1.0128  0.4174
30090SOL     OW93800   0.682   5.966   0.721 -0.4170  0.3646 -0.3614
30090SOL    HW193801   0.643   5.981   0.635 -1.7777  0.3005  0.2123
30090SOL    HW293802   0.776   5.958   0.704 -0.7322 -0.3675 -1.9268
30091SOL     OW93803   0.339   8.627   8.226 -0.4404  0.1381 -0.1421
30091SOL    HW193804   0.254   8.639   8.269 -0.5766 -0.0141 -0.3670
30091SOL    HW293805   0.356   8.533   8.231 -1.2266 -0.1371 -1.8409
30092SOL     OW93806   6.662   8.051   6.095 -0.0706  0.9024  0.0814
30092SOL    HW193807   6.627   7.962   6.101  0.2195  0.6622 -1.5094
30092SOL    HW293808   6.667   8.080   6.186 -1.3294 -0.2424  0.5541
30093SOL     OW93809   4.160   7.255   6.668 -0.4940 -0.1009  0.0265
30093SOL    HW193810   4.242   7.283   6.626  0.2381 -1.7378  0.2828
30093SOL    HW293811   4.187   7.224   6.754 -1.5981  0.5866  0.6403
30094SOL     OW93812   3.240   6.863   3.876 -0.2615 -0.0579 -0.2239
30094SOL    HW193813   3.315   6.922   3.879 -0.5948  0.3808 -0.5336
30094SOL    HW293814   3.225   6.839   3.968  0.5296 -0.4992 -0.2048
30095SOL     OW93815   1.324   4.010  10.363 -0.3355 -0.2939 -0.2043
30095SOL    HW193816   1.384   4.021  10.289 -0.3940 -1.5777 -0.4766
30095SOL    HW293817   1.381   4.012  10.441 -0.0972 -0.2366 -0.3797
30096SOL     OW93818   0.693   4.126   2.968  0.0442 -0.5150  0.5395
30096SOL    HW193819   0.614   4.128   2.915  0.7503  0.2322 -0.5450
30096SOL    HW293820   0.676   4.188   3.039 -0.0190  0.3549 -0.2090
30097SOL     OW93821   6.326   7.591   7.213  0.2940 -0.1987  0.6557
30097SOL    HW193822   6.345   7.654   7.143 -2.8327  0.5391  0.3131
30097SOL    HW293823   6.366   7.510   7.183  2.4979  1.0548  0.0221
30098SOL     OW93824   1.819   0.288   8.770  0.1457 -0.3633 -0.0415
30098SOL    HW193825   1.910   0.280   8.742  0.2307  3.3816 -1.3985
30098SOL    HW293826   1.824   0.298   8.865  1.1240 -0.1784 -0.1067
30099SOL     OW93827   6.782   4.459   5.182 -0.8170 -0.4111 -0.6518
30099SOL    HW193828   6.836   4.459   5.260 -2.9192  1.3720  0.9309
30099SOL    HW293829   6.839   4.426   5.113  2.0269  0.7013  1.0099
30100SOL     OW93830   1.135  10.742   5.305  0.0133 -0.0096 -0.1390
30100SOL    HW193831   1.183  10.823   5.323  1.6277 -0.6770 -1.2522
30100SOL    HW293832   1.147  10.689   5.384  1.3446 -0.2570 -0.4870
30101SOL     OW93833   4.242   6.093   8.267  0.6177 -0.4166  0.2575
30101SOL    HW193834   4.151   6.081   8.241  0.4461 -1.3347  1.2036
30101SOL    HW293835   4.280   6.147   8.198 -0.8967  0.8737  0.3786
30102SOL     OW93836   1.616   6.155   7.700 -0.2825 -0.6716  0.1905
30102SOL    HW193837   1.553   6.084   7.690  2.6137 -3.2452 -1.8899
30102SOL    HW293838   1.682   6.121   7.760  1.2730  0.1418 -0.9763
30103SOL     OW93839   1.386   9.935   8.729 -0.1160  0.2890  0.4903
30103SOL    HW193840   1.435   9.999   8.677  0.0431  0.2975  0.6525
30103SOL    HW293841   1.344   9.987   8.797  0.2754  0.1760  0.8176
30104SOL     OW93842   8.194   7.690   0.871  0.0432  0.3554 -0.2900
30104SOL    HW193843   8.249   7.727   0.802  0.4426 -1.2041 -0.8311
30104SOL    HW293844   8.163   7.607   0.836 -1.8207  0.7029  0.4271
30105SOL     OW93845  10.452  10.444   9.935  0.1922  0.2606  0.0225
30105SOL    HW193846  10.385  10.428   9.869 -0.5961  1.0900  0.6085
30105SOL    HW293847  10.484  10.533   9.916 -0.4221  0.7209  1.0705
30106SOL     OW93848  10.794   5.634   2.311  0.5263  0.1960  0.0814
30106SOL    HW193849  10.781   5.564   2.374 -4.9370  0.6149 -0.0902
30106SOL    HW293850  10.760   5.712   2.355  1.8698  1.7415 -1.4727
30107SOL     OW93851   3.237   8.022   7.474  0.2852  0.4756  0.3870
30107SOL    HW193852   3.280   8.026   7.559  1.2082 -0.5417  0.0011
30107SOL    HW293853   3.303   8.054   7.413 -0.7488  2.2538  0.1597
30108SOL     OW93854   8.177  10.473   5.892 -0.3293  0.3814  0.1600
30108SOL    HW193855   8.240  10.535   5.855 -1.0271  0.4182 -1.0146
30108SOL    HW293856   8.110  10.528   5.932 -2.0706  0.5801 -2.6920
30109SOL     OW93857   3.392   9.131   5.377 -0.4187 -0.2993 -0.1100
30109SOL    HW193858   3.327   9.184   5.423  1.1131  0.9149  0.7324
30109SOL    HW293859   3.467   9.189   5.365 -0.0892 -1.1157 -2.6402
30110SOL     OW93860   6.549   5.381   7.354  0.6401  0.1856 -0.4471
30110SOL    HW193861   6.570   5.444   7.285  0.9511  1.0785  0.4483
30110SOL    HW293862   6.564   5.429   7.435 -2.7347  0.2051  0.2987
30111SOL     OW93863   4.805   7.047   1.534 -0.0562 -0.3426 -0.3782
30111SOL    HW193864   4.857   7.026   1.457 -0.1417 -0.1028 -0.5014
30111SOL    HW293865   4.859   7.111   1.582  1.0026 -2.0603  0.8744
30112SOL     OW93866   1.777   0.464  10.237 -0.5548 -0.3422  0.0078
30112SOL    HW193867   1.789   0.370  10.219  1.8980 -0.3871  1.4607
30112SOL    HW293868   1.831   0.481  10.314 -3.1110  1.7447  1.5005
30113SOL     OW93869   1.888   3.601   8.840  0.2172  0.3376  0.3140
30113SOL    HW193870   1.980   3.599   8.813  0.0484 -1.3912 -0.2412
30113SOL    HW293871   1.847   3.663   8.780  0.5851 -0.6682 -1.0325
30114SOL     OW93872   8.152   2.630   1.822 -0.6423 -0.1797  0.1782
30114SOL    HW193873   8.240   2.661   1.844  0.3746 -1.4909 -1.7982
30114SOL    HW293874   8.128   2.681   1.745 -1.4795 -0.1180  0.4683
30115SOL     OW93875   5.679   2.816   1.222 -0.1865 -1.1419 -0.4557
30115SOL    HW193876   5.718   2.880   1.163 -0.0715 -1.0228 -0.2563
30115SOL    HW293877   5.589   2.846   1.236  0.0432 -0.6774  0.1112
30116SOL     OW93878   1.694   0.061   6.817 -0.4443  0.1061 -1.1169
30116SOL    HW193879   1.740   0.077   6.734  0.0744  0.4327 -0.7722
30116SOL    HW293880   1.668  -0.031   6.813 -0.2224  0.0606 -1.5449
30117SOL     OW93881   3.100   7.742  10.712  0.3795  0.3585 -0.2657
30117SOL    HW193882   3.142   7.822  10.682 -0.3642  0.1108 -2.0609
30117SOL    HW293883   3.151   7.716  10.789  0.3252  2.8020  0.6971
30118SOL     OW93884   0.136   4.478   7.348  0.0858 -0.5864 -0.4164
30118SOL    HW193885   0.206   4.428   7.390 -0.1313 -0.2471  0.3588
30118SOL    HW293886   0.157   4.569   7.368  1.0171 -0.2360 -2.6090
30119SOL     OW93887  10.434  10.367   9.244  0.0892  0.6558  0.2265
30119SOL    HW193888  10.361  10.312   9.273  0.0249  1.0483  0.8252
30119SOL    HW293889  10.428  10.366   9.149  0.5049 -0.9323  0.1970
30120SOL     OW93890   2.036   9.610   2.421  0.4285  0.0329 -0.2057
30120SOL    HW193891   2.009   9.693   2.381 -0.6202  0.7502  1.8698
30120SOL    HW293892   2.022   9.623   2.514  0.2558 -2.5160  0.1722
30121SOL     OW93893   6.193   9.667   6.558  0.1717  0.3053  0.4100
30121SOL    HW193894   6.149   9.689   6.476  0.1624  1.4056  0.6878
30121SOL    HW293895   6.147   9.590   6.590  0.1482 -0.1139 -0.5869
30122SOL     OW93896   5.547  10.792   6.131 -0.3339  0.3546 -0.3385
30122SOL    HW193897   5.572  10.775   6.222 -1.7182  2.0404  0.4281
30122SOL    HW293898   5.586  10.877   6.111 -0.9899  0.5290 -0.9062
30123SOL     OW93899   3.352   2.747   3.779 -0.2888 -0.4803  0.3873
30123SOL    HW193900   3.362   2.656   3.751  0.3054 -0.0442 -0.9017
30123SOL    HW293901   3.436   2.769   3.820  0.4786  0.1709 -1.4370
30124SOL     OW93902   4.250   5.908   5.224 -0.5362 -0.1427  0.5505
30124SOL    HW193903   4.194   5.853   5.279  0.9605  0.7090  3.0880
30124SOL    HW293904   4.257   5.991   5.271  0.2400  0.9102 -1.3250
30125SOL     OW93905  10.490   0.762   9.313 -0.1801 -0.3589 -0.2668
30125SOL    HW193906  10.503   0.771   9.407  1.3673  1.4464 -0.5883
30125SOL    HW293907  10.458   0.672   9.301  1.6493 -1.3746  1.7823
30126SOL     OW93908   1.582   5.888   0.253  0.0394 -0.1716 -0.0642
30126SOL    HW193909   1.552   5.973   0.284 -1.4870 -0.4585 -0.6649
30126SOL    HW293910   1.601   5.838   0.332  0.1734  0.4550  0.3028
30127SOL     OW93911   2.846   9.652   8.593  0.2907  0.5164  0.3590
30127SOL    HW193912   2.764   9.700   8.599 -0.6155 -0.8807 -0.3513
30127SOL    HW293913   2.859   9.638   8.499  1.1583  0.4118  0.4848
30128SOL     OW93914  10.034  10.682   1.203  0.1153  0.1240  0.1020
30128SOL    HW193915   9.966  10.621   1.173 -2.1052  1.2517  2.4114
30128SOL    HW293916  10.007  10.767   1.168  1.8518  0.2196 -1.0981
30129SOL     OW93917   0.402   5.206   2.172  0.2527  0.3373  0.0860
30129SOL    HW193918   0.325   5.183   2.224  0.4355  1.1543  0.7575
30129SOL    HW293919   0.469   5.143   2.199  0.1873  0.4211  0.4555
30130SOL     OW93920   3.003   8.405   4.861 -0.2011 -0.0195  0.3361
30130SOL    HW193921   2.967   8.326   4.902 -1.5085  0.0959 -0.5006
30130SOL    HW293922   2.949   8.476   4.897 -0.5491  0.2131 -0.6171
30131SOL     OW93923   0.298  10.064   8.649  0.2669  0.1483 -0.1686
30131SOL    HW193924   0.280   9.976   8.683  0.1127  0.7218  1.3273
30131SOL    HW293925   0.390  10.062   8.623 -0.0247 -0.7631 -1.2182
30132SOL     OW93926   1.390   2.396   1.290  0.1698 -0.1552  0.0356
30132SOL    HW193927   1.480   2.403   1.258 -0.1926  2.7530 -0.6009
30132SOL    HW293928   1.361   2.309   1.261  3.4419 -2.2541  2.3127
30133SOL     OW93929  10.511   6.656   2.655 -0.9556 -0.1974 -0.2575
30133SOL    HW193930  10.441   6.722   2.656 -0.9649 -0.1514 -1.6258
30133SOL    HW293931  10.473   6.583   2.605  0.3331  0.2737 -2.0142
30134SOL     OW93932   2.152   9.088   9.015  0.6493 -0.0697  0.5781
30134SOL    HW193933   2.195   9.023   8.960 -0.4019  0.1365 -0.5120
30134SOL    HW293934   2.092   9.037   9.070  2.4159 -0.4000  2.3406
30135SOL     OW93935   6.456   4.665   2.947 -0.6744 -0.1481 -0.5285
30135SOL    HW193936   6.496   4.581   2.969 -0.3562  0.0146 -0.4709
30135SOL    HW293937   6.417   4.695   3.029  1.5105  1.0012  0.1673
30136SOL     OW93938   8.807   9.067   6.477 -0.7245 -0.0340  0.4380
30136SOL    HW193939   8.901   9.086   6.480 -0.5495 -0.7281 -0.3048
30136SOL    HW293940   8.765   9.153   6.478 -0.0465  0.3103 -0.1723
30137SOL     OW93941   8.959   1.387   3.263 -0.1698 -0.1372 -0.8042
30137SOL    HW193942   8.902   1.455   3.298 -1.0684 -0.8542 -0.8261
30137SOL    HW293943   9.044   1.429   3.253 -0.3630  0.5961  0.4677
30138SOL     OW93944   7.807   3.372  10.636 -0.6021 -0.1484  0.1165
30138SOL    HW193945   7.771   3.450  10.595 -3.0390 -0.7910  0.8632
30138SOL    HW293946   7.852   3.404  10.714  1.0900  0.7351 -1.1598
30139SOL     OW93947   2.301   7.147   8.664 -0.2773  0.2559 -0.8431
30139SOL    HW193948   2.276   7.083   8.597  1.3661 -0.6920 -0.6253
30139SOL    HW293949   2.374   7.105   8.710  1.0062  2.3672 -0.8129
30140SOL     OW93950   1.701   9.337   8.216 -0.3152  0.1798  0.3095
30140SOL    HW193951   1.795   9.349   8.226 -0.5553  0.4112  2.8019
30140SOL    HW293952   1.691   9.247   8.185  0.6677 -0.7026  2.4139
30141SOL     OW93953   8.234   6.818   4.673  0.0939 -0.8559  0.1041
30141SOL    HW193954   8.239   6.817   4.769 -0.3029  2.0620  0.2274
30141SOL    HW293955   8.307   6.763   4.644  0.9533 -0.8195  2.0753
30142SOL     OW93956   6.025   4.073  10.721 -0.6344  0.1903  0.0693
30142SOL    HW193957   6.103   4.054  10.669 -1.0417 -1.1181 -0.0881
30142SOL    HW293958   6.036   4.164  10.748  2.6463 -0.8441  2.9710
30143SOL     OW93959   6.250   0.203   6.483  0.0101 -0.1915  0.0928
30143SOL    HW193960   6.178   0.232   6.427 -1.1671 -0.0718  1.5887
30143SOL    HW293961   6.303   0.146   6.427 -0.9864  0.0914 -1.1790
30144SOL     OW93962   9.035   3.542   9.074  0.2016 -0.1667 -0.7552
30144SOL    HW193963   9.010   3.470   9.131 -0.3329  0.5085 -0.1032
30144SOL    HW293964   9.073   3.501   8.997 -0.8087 -1.1604 -0.7402
30145SOL     OW93965   7.514   4.498   0.668  0.2030  0.1307  0.1152
30145SOL    HW193966   7.577   4.478   0.737  1.1347 -0.6609 -0.9172
30145SOL    HW293967   7.497   4.592   0.677  0.0936 -0.0080  1.5661
30146SOL     OW93968   6.578   9.799   4.401  0.3974 -0.7443 -0.1159
30146SOL    HW193969   6.501   9.848   4.373 -1.2562 -4.9184 -4.1023
30146SOL    HW293970   6.652   9.855   4.375 -1.3245  0.7791 -2.0680
30147SOL     OW93971   4.482  10.336   5.717  0.1064 -0.5858  0.1280
30147SOL    HW193972   4.418  10.352   5.787  0.6593  0.9393  0.3050
30147SOL    HW293973   4.460  10.400   5.649  0.1975 -1.4010 -0.6915
30148SOL     OW93974   1.296   1.308   7.762  0.7093 -0.0817 -0.7868
30148SOL    HW193975   1.275   1.254   7.686  1.6128 -0.0386 -1.0769
30148SOL    HW293976   1.274   1.397   7.735 -0.9113 -0.2852 -0.2602
30149SOL     OW93977   7.664   6.966   4.755 -0.3619 -0.2567 -0.3869
30149SOL    HW193978   7.682   6.965   4.849  4.0775  0.6623 -1.0153
30149SOL    HW293979   7.711   6.891   4.720 -1.0513  0.0269 -2.0263
30150SOL     OW93980   6.561   0.273  10.939  0.2722  0.0187 -0.2298
30150SOL    HW193981   6.524   0.347  10.889  0.4942  0.4311  0.2110
30150SOL    HW293982   6.551   0.299  11.030  1.1479 -0.1149 -0.0945
30151SOL     OW93983  10.729   1.601   9.352 -0.0918  0.3352  0.6952
30151SOL    HW193984  10.636   1.622   9.349 -0.6985 -2.1406 -0.3478
30151SOL    HW293985  10.733   1.509   9.375  2.0530  0.1094 -0.2759
30152SOL     OW93986   3.971   0.217   3.291 -0.1537 -0.6488  0.0607
30152SOL    HW193987   4.055   0.186   3.259 -0.8269 -2.1810 -0.3004
30152SOL    HW293988   3.954   0.165   3.370 -0.1838  0.5615  0.8870
30153SOL     OW93989   4.741   0.827   5.098 -0.0303  0.6368 -0.1818
30153SOL    HW193990   4.671   0.881   5.060  0.5854  0.8934 -0.9781
30153SOL    HW293991   4.822   0.875   5.078  0.3171  0.9964  1.8050
30154SOL     OW93992   1.128   0.551   3.497 -0.6096  0.1458 -0.1008
30154SOL    HW193993   1.171   0.550   3.583  0.7275 -0.5824 -0.7421
30154SOL    HW293994   1.127   0.459   3.470 -1.4592  0.3072 -0.6711
30155SOL     OW93995   6.164   9.253   5.366  0.0295 -0.1925  0.1252
30155SOL    HW193996   6.194   9.164   5.384  0.0135 -0.0370  0.9729
30155SOL    HW293997   6.244   9.302   5.345 -0.1434 -0.8070 -2.2639
30156SOL     OW93998   6.647   5.318   7.809  0.0660 -0.0710 -0.4201
30156SOL    HW193999   6.607   5.369   7.738 -1.1732 -0.6177 -0.1424
30156SOL    HW294000   6.643   5.376   7.885  3.2603  1.3404 -1.1319
30157SOL     OW94001   1.866   8.260   3.234  0.5566  0.2520 -0.4726
30157SOL    HW194002   1.831   8.332   3.182 -1.8995 -0.9233 -0.6192
30157SOL    HW294003   1.853   8.287   3.324  2.3705  1.1599 -0.4251
30158SOL     OW94004   1.370   7.613   5.136  0.6437 -0.1639 -0.6134
30158SOL    HW194005   1.301   7.595   5.072  0.0559 -0.8871  0.2010
30158SOL    HW294006   1.364   7.707   5.151 -1.8273 -0.5128  1.2277
30159SOL     OW94007   3.903   1.256   5.456 -0.7512 -0.2639  0.4775
30159SOL    HW194008   3.954   1.333   5.484 -0.3805  0.0887 -1.1064
30159SOL    HW294009   3.878   1.214   5.538 -1.5403  1.9075  1.4217
30160SOL     OW94010   6.761   9.002   9.183 -0.2884 -0.3337 -0.2131
30160SOL    HW194011   6.679   8.976   9.141 -1.0007 -1.7227  1.8850
30160SOL    HW294012   6.734   9.042   9.266  1.1304  0.2393  0.0037
30161SOL     OW94013   8.676   6.729   6.860 -0.7091  0.4610 -0.2943
30161SOL    HW194014   8.663   6.819   6.889  0.7352  0.9249 -1.0372
30161SOL    HW294015   8.769   6.712   6.874 -1.2954 -1.6288  1.7748
30162SOL     OW94016   3.314   7.527   8.198  0.2697  0.2148 -0.4659
30162SOL    HW194017   3.330   7.464   8.127  1.8307 -0.3895  0.3679
30162SOL    HW294018   3.295   7.609   8.153  1.9144  0.0140 -1.6277
30163SOL     OW94019   4.069   6.728   1.205  0.2426 -0.9965  0.1497
30163SOL    HW194020   4.003   6.660   1.192 -0.3801 -0.4081  0.1659
30163SOL    HW294021   4.121   6.697   1.279 -1.1689 -0.6245  1.3494
30164SOL     OW94022   4.374   9.508   7.593 -0.5410  0.0477  0.5119
30164SOL    HW194023   4.318   9.440   7.557  0.5200 -0.2648 -0.6012
30164SOL    HW294024   4.382   9.573   7.523  0.9052 -0.1773  0.4348
30165SOL     OW94025   6.883  10.755   1.083  0.1618  0.1103  0.0022
30165SOL    HW194026   6.974  10.742   1.057  0.7738  1.0317  1.5797
30165SOL    HW294027   6.861  10.677   1.133  0.3071  0.2021  0.2093
30166SOL     OW94028   7.313   3.539   9.217 -0.1267 -1.1947  0.0606
30166SOL    HW194029   7.397   3.554   9.259  0.5829 -0.2769 -1.5835
30166SOL    HW294030   7.288   3.450   9.244  2.5577 -2.4868 -1.3404
30167SOL     OW94031   0.524   1.752   1.335  0.3372 -0.2522 -0.6115
30167SOL    HW194032   0.454   1.697   1.299 -1.3430 -0.4579  2.5827
30167SOL    HW294033   0.482   1.798   1.408  2.5569  2.7744 -1.0593
30168SOL     OW94034   0.375  10.787   8.743 -0.1566  0.0916 -0.3208
30168SOL    HW194035   0.287  10.786   8.704 -0.6427 -1.7798  0.6606
30168SOL    HW294036   0.410  10.700   8.723  1.0953  0.4744  0.1375
30169SOL     OW94037   3.591   7.196   9.600 -0.5210 -0.3279  0.7948
30169SOL    HW194038   3.627   7.159   9.680 -1.9283 -0.1173  1.5676
30169SOL    HW294039   3.666   7.203   9.541  0.9091  1.0397  2.6393
30170SOL     OW94040   0.565   0.178   9.802 -0.0806 -0.2453 -0.4663
30170SOL    HW194041   0.603   0.261   9.830 -1.5539 -0.6444  3.4238
30170SOL    HW294042   0.482   0.202   9.761 -0.4452  0.2356  0.5285
30171SOL     OW94043   3.982   4.682   9.493 -0.6347 -0.3395 -0.6791
30171SOL    HW194044   4.059   4.672   9.438 -0.1044  0.0410 -0.0129
30171SOL    HW294045   3.993   4.767   9.535 -0.6697 -0.9290  0.5613
30172SOL     OW94046   7.069   2.008   1.866  0.3607 -0.3572  0.5266
30172SOL    HW194047   7.054   2.045   1.954  1.4166 -0.4376  0.7639
30172SOL    HW294048   7.107   1.922   1.883 -0.2383 -0.7350 -0.0242
30173SOL     OW94049   8.476   2.466   5.305  0.0574 -0.1555  0.1640
30173SOL    HW194050   8.465   2.400   5.236  0.6709 -0.5689  0.4506
30173SOL    HW294051   8.562   2.503   5.288 -0.5469  1.0561 -0.3889
30174SOL     OW94052   6.062   7.704   1.221 -0.2146 -0.4517 -0.1610
30174SOL    HW194053   6.065   7.690   1.126 -0.4369  0.9697 -0.3955
30174SOL    HW294054   6.100   7.791   1.234 -0.9010 -0.3030  0.9770
30175SOL     OW94055   8.382   2.893   8.433 -0.1377 -0.3909 -0.2886
30175SOL    HW194056   8.312   2.882   8.370 -3.7517  1.9321  2.8423
30175SOL    HW294057   8.379   2.814   8.487 -1.3587  0.2337  0.6103
30176SOL     OW94058   5.876   3.377  10.323  0.0049  0.4732 -0.0937
30176SOL    HW194059   5.932   3.303  10.348 -0.3712  0.1631 -0.1412
30176SOL    HW294060   5.934   3.452  10.319  0.4125  0.1560 -0.1365
30177SOL     OW94061   0.168   2.248   0.171  0.0897  0.2585  0.1940
30177SOL    HW194062   0.224   2.215   0.100  1.6251  1.5669  0.7219
30177SOL    HW294063   0.148   2.338   0.146 -0.2834  0.3768  0.8917
30178SOL     OW94064   4.574   5.396   8.918 -0.1612  0.0506  0.2342
30178SOL    HW194065   4.589   5.303   8.903 -0.4127 -0.0408  0.5524
30178SOL    HW294066   4.618   5.439   8.844  0.3356 -0.2948  0.3219
30179SOL     OW94067   2.931   3.820   9.810  0.0741 -0.7972  0.1414
30179SOL    HW194068   2.977   3.811   9.894 -0.9357  0.9792  0.9305
30179SOL    HW294069   2.881   3.900   9.818  0.0405 -0.4981 -2.2479
30180SOL     OW94070   8.878   8.202   4.401  0.3084 -0.1990  0.3071
30180SOL    HW194071   8.949   8.139   4.384 -0.5424 -1.3535  0.9103
30180SOL    HW294072   8.846   8.179   4.488 -2.1092 -0.9979 -0.7162
30181SOL     OW94073   4.219   0.012   8.046 -0.4612 -0.3161  0.1678
30181SOL    HW194074   4.268   0.094   8.042  0.9519 -0.9300  2.6315
30181SOL    HW294075   4.240  -0.033   7.964  0.7347  0.7244 -0.1329
30182SOL     OW94076   8.181   3.046   0.450 -0.4937 -0.0547  0.1773
30182SOL    HW194077   8.275   3.060   0.462  0.2968 -2.0829 -2.5879
30182SOL    HW294078   8.144   3.135   0.448  1.0639  0.7464  2.7767
30183SOL     OW94079   2.195   9.844   8.165  0.3059 -0.2569  0.4853
30183SOL    HW194080   2.281   9.881   8.144  0.6411 -0.3624  1.6309
30183SOL    HW294081   2.148   9.846   8.081  1.5486 -0.5625 -0.2609
30184SOL     OW94082   9.029  10.227   9.718 -0.0530  0.3837 -0.6629
30184SOL    HW194083   9.122  10.246   9.732  0.1240 -0.1058 -1.1494
30184SOL    HW294084   8.983  10.307   9.747  0.5632  0.9110 -1.1230
30185SOL     OW94085   8.788   4.178   1.659  0.4961  0.3824 -0.4752
30185SOL    HW194086   8.718   4.144   1.604  0.2900 -2.0330  1.1224
30185SOL    HW294087   8.743   4.215   1.735  0.8401 -1.4482  0.7031
30186SOL     OW94088   1.893   1.464   0.129  0.0352 -0.0229 -0.9183
30186SOL    HW194089   1.798   1.457   0.118  0.0297 -2.1878  0.0776
30186SOL    HW294090   1.905   1.492   0.219  0.3555 -0.0753 -0.9437
30187SOL     OW94091  10.041   1.646   7.352 -0.1938  0.0570  0.0521
30187SOL    HW194092  10.005   1.620   7.268 -1.9571 -0.6762  0.9740
30187SOL    HW294093   9.990   1.597   7.416  3.4609 -2.2288  1.5052
30188SOL     OW94094   5.043   1.118  10.916 -0.2048 -0.2915  0.1133
30188SOL    HW194095   5.027   1.036  10.963 -0.6048  0.1542  0.7785
30188SOL    HW294096   5.132   1.108  10.881 -1.0536 -1.9258 -1.7965
30189SOL     OW94097  11.037   7.348   4.131  0.4202 -0.2709 -0.1404
30189SOL    HW194098  10.976   7.275   4.133 -1.5381  1.2803 -0.4060
30189SOL    HW294099  11.108   7.322   4.191 -0.6107 -2.0154  0.3793
30190SOL     OW94100   7.275   9.747   1.220 -0.2701 -0.0278 -0.4556
30190SOL    HW194101   7.289   9.655   1.201 -1.2333  0.0327 -1.5960
30190SOL    HW294102   7.229   9.781   1.143  0.2674  1.4603 -0.1663
30191SOL     OW94103   5.907  10.238   3.754 -0.3308 -0.7157 -0.0603
30191SOL    HW194104   5.990  10.210   3.715  0.6504  0.3557  1.1683
30191SOL    HW294105   5.884  10.169   3.815  0.6302 -0.1825  0.9306
30192SOL     OW94106   1.034   8.591   3.248 -0.2548  0.1967 -0.2751
30192SOL    HW194107   1.006   8.577   3.158  0.7819  1.9365 -0.9315
30192SOL    HW294108   0.979   8.663   3.280  0.5851  0.8217 -0.1752
30193SOL     OW94109   1.075   7.065   2.886 -0.2762 -0.0444  0.4721
30193SOL    HW194110   0.989   7.099   2.908 -0.9674 -1.6882  0.4726
30193SOL    HW294111   1.093   6.998   2.952  1.0559  0.3377  0.5357
30194SOL     OW94112   0.095   7.032   5.514  0.2487  0.2495 -0.1075
30194SOL    HW194113   0.148   6.970   5.464  0.3661  0.4771 -0.2654
30194SOL    HW294114   0.011   7.034   5.469  0.7561  1.3950 -1.0428
30195SOL     OW94115   7.490   3.798   6.477  0.0831  0.4302 -0.2972
30195SOL    HW194116   7.515   3.831   6.391  2.0856  0.0926  0.1226
30195SOL    HW294117   7.571   3.766   6.516 -0.9296 -0.2710  1.3655
30196SOL     OW94118   0.612   7.069   0.387 -0.3634  0.0824 -0.5966
30196SOL    HW194119   0.536   7.013   0.372 -1.0941  0.9741 -0.3189
30196SOL    HW294120   0.575   7.151   0.420  0.4834  1.4616 -2.8545
30197SOL     OW94121   5.980   1.633   1.077  0.3169  0.4192  0.0055
30197SOL    HW194122   6.014   1.567   1.016  0.6258  0.3201  0.2774
30197SOL    HW294123   6.029   1.712   1.056 -0.1641  0.6074 -0.4248
30198SOL     OW94124   1.384   2.238   4.152 -0.8962 -0.0539 -0.1322
30198SOL    HW194125   1.473   2.218   4.121 -1.3599 -1.0247 -0.8706
30198SOL    HW294126   1.383   2.207   4.243 -0.8341 -1.1390 -0.4874
30199SOL     OW94127   5.218  10.669   5.262  0.3920 -0.7361 -0.3700
30199SOL    HW194128   5.132  10.664   5.304  0.7038 -0.9477  0.2529
30199SOL    HW294129   5.199  10.682   5.169 -0.3113 -0.5873 -0.2096
30200SOL     OW94130   3.814   7.726   6.628  0.1123  0.6902  0.4319
30200SOL    HW194131   3.832   7.744   6.721  0.1173 -1.1008  0.8175
30200SOL    HW294132   3.813   7.631   6.622  0.2452  0.7680 -1.4566
30201SOL     OW94133   4.978   0.894   1.351  0.0531  0.2118 -0.1069
30201SOL    HW194134   4.964   0.986   1.370 -1.3846 -0.0460  0.1765
30201SOL    HW294135   5.072   0.887   1.333  0.3818  1.5296  0.9428
30202SOL     OW94136   1.896  10.815   3.499 -0.3427  0.3781 -0.1758
30202SOL    HW194137   1.875  10.722   3.489 -0.9002  0.3989  0.7456
30202SOL    HW294138   1.987  10.817   3.527  0.2428  0.1959 -1.9168
30203SOL     OW94139   2.406   9.737  10.312 -0.4355 -0.3214 -0.2412
30203SOL    HW194140   2.381   9.701  10.396 -0.7009 -1.8422 -0.9395
30203SOL    HW294141   2.327   9.781  10.280  0.1769  1.9123  1.0652
30204SOL     OW94142   3.429   0.160   4.343 -0.2066  0.4517 -0.3048
30204SOL    HW194143   3.464   0.076   4.314  1.6434  1.5138 -1.3489
30204SOL    HW294144   3.384   0.195   4.267  0.5864  1.1686 -0.4630
30205SOL     OW94145   5.557   8.399   6.514  0.0558 -0.0011 -0.0359
30205SOL    HW194146   5.572   8.474   6.457  0.8143 -0.1254 -0.0134
30205SOL    HW294147   5.462   8.395   6.525 -0.0219  0.6426 -0.4517
30206SOL     OW94148   3.227   9.826   7.204  0.1367 -0.4386 -0.1806
30206SOL    HW194149   3.151   9.861   7.159 -0.4783  1.1178  1.9244
30206SOL    HW294150   3.292   9.813   7.135 -0.9016  1.3800 -1.5888
30207SOL     OW94151   7.625   1.127   2.256  0.0936  0.1575  0.2489
30207SOL    HW194152   7.603   1.113   2.348 -0.5135  1.9816  0.4242
30207SOL    HW294153   7.698   1.188   2.258 -0.4342  0.8298 -0.4723
30208SOL     OW94154   3.100   8.370   0.914 -0.1739  0.5210  0.4018
30208SOL    HW194155   3.074   8.289   0.870  0.0515 -0.1679  1.5031
30208SOL    HW294156   3.196   8.370   0.908 -0.1760  0.7321  0.3678
30209SOL     OW94157  10.306  10.058   2.426  0.2014 -0.4127 -0.1926
30209SOL    HW194158  10.290  10.067   2.520  1.6201 -2.0494  0.2612
30209SOL    HW294159  10.247   9.988   2.399 -0.1005 -0.0405 -0.4975
30210SOL     OW94160   2.081   9.767   7.522 -0.2039  0.0674 -0.3086
30210SOL    HW194161   2.133   9.780   7.443 -0.6916  0.1495 -0.6154
30210SOL    HW294162   2.035   9.685   7.507 -1.4488  0.8244 -0.7505
30211SOL     OW94163   4.367   8.717   2.184 -0.0806  0.4959 -0.4656
30211SOL    HW194164   4.403   8.645   2.236 -0.6438 -0.0175 -0.7736
30211SOL    HW294165   4.279   8.689   2.162  0.5362  0.1152 -2.7487
30212SOL     OW94166   3.522   1.023   9.347  0.1910 -0.6377  0.1348
30212SOL    HW194167   3.478   1.013   9.263  1.3059 -2.6505 -0.2792
30212SOL    HW294168   3.586   0.952   9.349  1.6093  0.5976  1.8224
30213SOL     OW94169   8.181   7.871   5.870 -0.0321 -0.2523  0.9047
30213SOL    HW194170   8.159   7.949   5.819  1.5250 -0.4886 -0.2173
30213SOL    HW294171   8.125   7.803   5.835  1.0243 -0.4127 -0.5735
30214SOL     OW94172   8.979   5.069   2.408  0.3617  0.1134  0.0642
30214SOL    HW194173   8.896   5.020   2.412  0.1977  0.3365 -0.5553
30214SOL    HW294174   8.952   5.158   2.387  0.8497 -0.1041 -1.6389
30215SOL     OW94175   1.375   3.932   7.358 -0.2283  0.2945 -0.3216
30215SOL    HW194176   1.316   3.948   7.431 -0.6793 -1.4707 -0.2455
30215SOL    HW294177   1.457   3.904   7.400 -0.5697 -0.9752 -0.4608
30216SOL     OW94178   4.327   6.169   5.659  0.9295  0.1686 -0.0479
30216SOL    HW194179   4.309   6.219   5.579  1.6527 -1.2322 -1.1130
30216SOL    HW294180   4.333   6.078   5.630  1.7231 -0.3062  1.5291
30217SOL     OW94181   0.892   5.181   2.721 -0.0771  0.3989  0.0728
30217SOL    HW194182   0.947   5.255   2.747 -0.5329  1.1135 -0.9488
30217SOL    HW294183   0.954   5.113   2.694  0.3460  0.3392  1.1501
30218SOL     OW94184   5.705   7.930   1.193  0.0183 -0.4693  0.0474
30218SOL    HW194185   5.617   7.920   1.157  0.4792  0.4600 -1.4320
30218SOL    HW294186   5.724   8.023   1.184  0.7742 -0.4739  1.3216
30219SOL     OW94187   4.571  10.834   4.669 -0.4240 -0.8001 -0.4317
30219SOL    HW194188   4.513  10.819   4.744 -0.7278 -0.5552 -0.6160
30219SOL    HW294189   4.581  10.747   4.630 -0.6605 -0.8474 -0.3927
30220SOL     OW94190   7.622   3.072   2.279 -0.2233  0.1904 -0.1435
30220SOL    HW194191   7.660   3.025   2.204 -3.3062  1.1277 -2.5186
30220SOL    HW294192   7.569   3.007   2.324 -0.8694  0.2906 -0.7287
30221SOL     OW94193   1.745   0.378   7.380 -0.4519  0.0876  0.2040
30221SOL    HW194194   1.712   0.333   7.458  0.2539  1.7331  1.5192
30221SOL    HW294195   1.754   0.309   7.314 -2.4465 -1.1168  1.0971
30222SOL     OW94196  11.084   5.069   1.641 -0.0120  0.1222  0.1184
30222SOL    HW194197  11.101   5.151   1.595 -0.2860 -0.9073 -1.9536
30222SOL    HW294198  11.004   5.035   1.601  1.7024 -2.6061 -1.3304
30223SOL     OW94199   8.877   8.586   6.630  0.4990  0.0141 -0.3554
30223SOL    HW194200   8.912   8.672   6.605  0.7204 -0.3244 -1.2570
30223SOL    HW294201   8.866   8.539   6.547 -1.2414 -0.2328 -0.0297
30224SOL     OW94202   0.333  10.543   1.186  0.2360 -0.5858 -0.4417
30224SOL    HW194203   0.310  10.574   1.274  0.3833 -3.0032  0.5497
30224SOL    HW294204   0.429  10.546   1.184  0.1957  1.6277 -1.4396
30225SOL     OW94205   0.112   5.134   5.945  0.0545 -0.5300 -0.8300
30225SOL    HW194206   0.196   5.118   5.902 -0.9325 -1.0673 -2.6698
30225SOL    HW294207   0.088   5.222   5.916  0.9789  0.5912  1.5320
30226SOL     OW94208   4.515   6.783   8.604  0.0041 -0.0972 -0.0545
30226SOL    HW194209   4.570   6.747   8.534  0.4640  1.2694 -0.4200
30226SOL    HW294210   4.524   6.719   8.676 -0.9103 -1.8136 -1.3858
30227SOL     OW94211   6.458   8.140   6.313 -0.2449 -0.3875  0.1280
30227SOL    HW194212   6.403   8.099   6.247  0.0680 -2.2149  0.9444
30227SOL    HW294213   6.484   8.069   6.371  2.6621  0.4584  0.0133
30228SOL     OW94214   9.491   1.767   7.901 -0.1878 -0.1270 -0.1152
30228SOL    HW194215   9.472   1.714   7.824  0.5097  0.0220 -0.3980
30228SOL    HW294216   9.567   1.819   7.876 -0.0337  0.0188  0.6319
30229SOL     OW94217   8.061   7.484   0.403  0.2621 -0.4228 -0.2625
30229SOL    HW194218   8.016   7.406   0.436 -0.0934 -0.3431 -0.5461
30229SOL    HW294219   8.046   7.481   0.309  0.2827 -0.0335 -0.2772
30230SOL     OW94220   3.155   3.933   9.989  0.5975  0.3718 -0.5300
30230SOL    HW194221   3.184   4.024   9.988  1.3527  0.1357 -1.1108
30230SOL    HW294222   3.170   3.903  10.078 -0.5086  1.0664 -0.0824
30231SOL     OW94223   2.603   2.213  10.801  0.1752  0.1345  0.2944
30231SOL    HW194224   2.560   2.136  10.763 -0.3616  0.2102  0.7306
30231SOL    HW294225   2.536   2.252  10.858  0.2807  1.1974 -0.2875
30232SOL     OW94226   0.551   6.598   4.336  0.6112  0.1635 -0.4962
30232SOL    HW194227   0.615   6.626   4.271  0.4148 -1.3020 -1.3494
30232SOL    HW294228   0.602   6.552   4.402  0.5694 -0.0598 -0.6198
30233SOL     OW94229   5.047   9.347   4.166  0.4324  0.0200  0.3189
30233SOL    HW194230   5.038   9.391   4.251 -0.7344  1.8683 -0.6891
30233SOL    HW294231   5.121   9.390   4.124 -0.9637  1.4378 -0.8403
30234SOL     OW94232   7.926   3.631   5.346  0.4992  0.5563  0.1800
30234SOL    HW194233   7.961   3.610   5.433  2.0145 -0.3380 -0.6025
30234SOL    HW294234   7.986   3.697   5.312  0.3271  0.3920 -0.4473
30235SOL     OW94235   3.171   2.591   3.216  0.3370 -0.4085  0.1936
30235SOL    HW194236   3.212   2.530   3.155  1.2581  1.3558 -1.0407
30235SOL    HW294237   3.218   2.578   3.298  1.8781 -0.0221 -0.5914
30236SOL     OW94238   0.384   6.360  11.040  0.0538  0.0639  0.4219
30236SOL    HW194239   0.445   6.385  10.971 -0.1870  0.5360  0.3687
30236SOL    HW294240   0.438   6.322  11.109  0.2777 -0.5818 -0.0987
30237SOL     OW94241   9.420  10.989   9.000 -0.7038 -0.5932 -0.1579
30237SOL    HW194242   9.476  10.918   9.030 -1.6544 -1.5477 -0.5823
30237SOL    HW294243   9.480  11.052   8.960  0.1684 -1.0459  0.4247
30238SOL     OW94244   4.518   7.840  10.084 -0.3661 -0.0254 -0.6522
30238SOL    HW194245   4.441   7.848  10.028  0.3339  0.9792 -1.5298
30238SOL    HW294246   4.524   7.924  10.130 -0.7128 -0.7051  0.6596
30239SOL     OW94247   6.022   0.796  10.405  0.5655 -0.0816  0.3541
30239SOL    HW194248   5.967   0.866  10.441 -1.5899 -1.9190  0.8750
30239SOL    HW294249   6.105   0.839  10.383 -0.4995  2.5086  1.0586
30240SOL     OW94250   2.711  10.479   6.756 -0.2547  0.1195  0.6310
30240SOL    HW194251   2.722  10.565   6.795 -1.6855  0.3061  0.6515
30240SOL    HW294252   2.619  10.475   6.730 -0.0160 -1.0846 -0.1294
30241SOL     OW94253   1.472   7.035   3.373 -1.0665  0.3524 -0.1273
30241SOL    HW194254   1.517   6.959   3.337 -3.0334 -0.6569 -0.6032
30241SOL    HW294255   1.436   7.080   3.296 -3.3330 -0.5323  0.3218
30242SOL     OW94256   7.636   3.227  10.428 -0.2752 -0.5181 -0.5495
30242SOL    HW194257   7.573   3.293  10.456 -0.3264 -0.6908 -0.2540
30242SOL    HW294258   7.583   3.158  10.389 -0.2347 -0.4609 -0.7071
30243SOL     OW94259   0.976   9.759   0.029  0.1315  0.2437  0.5597
30243SOL    HW194260   0.980   9.775  -0.066  0.8011 -0.3882  0.4774
30243SOL    HW294261   0.900   9.809   0.058  0.4835  1.2486 -0.1572
30244SOL     OW94262   3.974   4.018   9.655  0.2435 -0.2422 -0.2759
30244SOL    HW194263   3.991   4.111   9.638 -0.2470 -0.1230 -0.1050
30244SOL    HW294264   3.910   4.017   9.725 -1.1191 -0.6751 -1.4797
30245SOL     OW94265   3.452   8.202   7.938  0.7021  0.6209  0.4174
30245SOL    HW194266   3.518   8.268   7.920  1.7895 -0.3367  0.7915
30245SOL    HW294267   3.481   8.125   7.891  1.1544 -0.5290  2.4466
30246SOL     OW94268   0.917  10.387   7.064  0.1336  0.1804  0.3249
30246SOL    HW194269   0.839  10.374   7.009 -0.0250 -0.4048  0.6768
30246SOL    HW294270   0.980  10.323   7.031  0.6538  0.9797 -0.2797
30247SOL     OW94271   1.346   8.314  10.770 -0.6509  0.5379 -0.2105
30247SOL    HW194272   1.278   8.381  10.781 -1.2434 -0.1496  0.3952
30247SOL    HW294273   1.317   8.262  10.695 -1.3590 -0.4061  0.6966
30248SOL     OW94274   1.516   0.714   2.499  0.7178  0.0512 -0.1543
30248SOL    HW194275   1.583   0.647   2.513  2.8436  2.1830  0.3266
30248SOL    HW294276   1.551   0.771   2.431 -0.8416  0.9768 -0.2430
30249SOL     OW94277  10.077  10.690  10.605  0.6485  0.2431 -0.4875
30249SOL    HW194278  10.127  10.759  10.562  0.4372  1.1304  0.6347
30249SOL    HW294279  10.136  10.655  10.671  0.5724 -0.2828 -0.7001
30250SOL     OW94280   7.004   7.442   0.063  0.2565  0.2304 -0.7666
30250SOL    HW194281   6.953   7.485   0.132  0.3303  1.3322 -1.3725
30250SOL    HW294282   6.947   7.444  -0.013  0.5787 -0.0238 -1.0152
30251SOL     OW94283   5.573   0.159   5.669  0.0194  0.7063 -0.3684
30251SOL    HW194284   5.589   0.071   5.635 -0.6503  0.3069  0.3251
30251SOL    HW294285   5.561   0.147   5.763 -1.9129  1.2582 -0.4929
30252SOL     OW94286   5.171   7.797   9.374 -0.1091  0.0186 -0.0478
30252SOL    HW194287   5.262   7.824   9.365 -0.5646  1.0138 -2.5563
30252SOL    HW294288   5.137   7.852   9.445  0.7547  1.0999 -0.4462
30253SOL     OW94289   7.386  10.020  10.822 -0.5813  0.0199  0.3477
30253SOL    HW194290   7.458  10.010  10.884 -1.0695  0.0047  0.9219
30253SOL    HW294291   7.327   9.947  10.841 -1.2306  0.5861  0.5475
30254SOL     OW94292   0.406   6.369   3.239 -0.4067 -0.4301 -0.3993
30254SOL    HW194293   0.318   6.405   3.252 -0.6748 -1.3389  0.3944
30254SOL    HW294294   0.460   6.415   3.303 -0.3263 -0.0130 -0.7549
30255SOL     OW94295   6.443   9.343   7.978  0.0413  0.1308 -0.1160
30255SOL    HW194296   6.513   9.278   7.974  0.1880  0.3353 -0.9061
30255SOL    HW294297   6.487   9.424   8.005 -0.2508 -0.2346  1.5819
30256SOL     OW94298   9.305   3.719   3.479  0.3300 -0.4114 -0.5565
30256SOL    HW194299   9.310   3.727   3.383 -1.1591  1.0169 -0.5577
30256SOL    HW294300   9.396   3.719   3.507  0.7919  0.7892 -1.8866
30257SOL     OW94301   6.248   0.322   1.142  0.2165  0.3237  0.4025
30257SOL    HW194302   6.189   0.254   1.175 -1.6401  2.0009  0.6878
30257SOL    HW294303   6.238   0.394   1.205  0.8877  1.4772 -0.7781
30258SOL     OW94304   4.177  10.616  10.015 -0.2428  0.0783 -0.2037
30258SOL    HW194305   4.193  10.681   9.947 -1.7061 -0.0464 -0.6959
30258SOL    HW294306   4.181  10.532   9.969 -0.0901 -0.0842  0.0985
30259SOL     OW94307   0.405   0.767   7.396 -0.1143 -0.0347  0.2240
30259SOL    HW194308   0.398   0.810   7.310  1.1417 -0.6468 -0.2147
30259SOL    HW294309   0.474   0.816   7.441  0.0952 -0.4934  0.4029
30260SOL     OW94310   3.348   3.555   9.859  0.1678  0.1644  0.5522
30260SOL    HW194311   3.424   3.529   9.808 -1.9113 -2.2737 -1.5926
30260SOL    HW294312   3.331   3.645   9.832 -0.3698 -0.7705 -2.6419
30261SOL     OW94313   2.909   9.526   5.064  0.1905 -0.1135 -0.3032
30261SOL    HW194314   2.933   9.435   5.050  2.5255  0.3922 -0.1233
30261SOL    HW294315   2.866   9.553   4.983 -0.3258 -1.3017 -0.4402
30262SOL     OW94316   5.627   0.595   4.752 -0.0123 -0.4209  0.1728
30262SOL    HW194317   5.675   0.519   4.719 -0.0225 -0.5362  0.4238
30262SOL    HW294318   5.618   0.579   4.846 -0.5258 -0.3916  0.1314
30263SOL     OW94319  10.973   4.955   9.222 -0.8535 -0.0339 -0.8107
30263SOL    HW194320  10.907   4.917   9.280 -0.8784  0.8447 -0.2425
30263SOL    HW294321  10.924   4.987   9.147 -0.9311 -0.3754 -0.9079
30264SOL     OW94322   0.925   1.927   4.703 -0.5028 -0.4441 -0.2207
30264SOL    HW194323   0.838   1.917   4.743 -0.4321  2.1661  0.7972
30264SOL    HW294324   0.924   2.016   4.668  2.2972  0.3242  1.3655
30265SOL     OW94325   0.725   8.685   8.718 -0.0956 -0.1977  0.5062
30265SOL    HW194326   0.775   8.664   8.797  1.1210 -1.2882 -0.5024
30265SOL    HW294327   0.634   8.679   8.745  0.2864 -0.7627  1.7712
30266SOL     OW94328   4.604   0.284   1.956  0.4716 -0.3996  0.0277
30266SOL    HW194329   4.620   0.357   2.016 -0.2493 -1.1912  1.2119
30266SOL    HW294330   4.673   0.221   1.977  0.4119 -0.5428 -0.2059
30267SOL     OW94331   3.019   9.345   9.510 -0.3892  0.4299 -0.6568
30267SOL    HW194332   3.081   9.284   9.469  0.6910 -0.2563  1.7827
30267SOL    HW294333   2.937   9.297   9.517 -0.3302  0.2510 -1.2127
30268SOL     OW94334   6.803   3.398   6.453 -0.6205 -0.5090  0.1308
30268SOL    HW194335   6.743   3.472   6.445  0.6367  0.4610 -0.5805
30268SOL    HW294336   6.803   3.359   6.365  0.5278  0.0999 -0.1538
30269SOL     OW94337   3.119   1.471   6.264 -0.2748  0.0617  0.2568
30269SOL    HW194338   3.076   1.542   6.313  0.5332 -0.5397  1.9014
30269SOL    HW294339   3.178   1.430   6.327  0.5234 -1.0238 -1.1315
30270SOL     OW94340   0.992   4.941   2.659  0.4746  0.0155 -0.5572
30270SOL    HW194341   0.901   4.913   2.650  0.4937  0.0519 -0.8693
30270SOL    HW294342   1.037   4.865   2.694  0.1471  0.2946  0.4998
30271SOL     OW94343  10.689   6.890   5.968 -0.1029 -0.0133 -0.1624
30271SOL    HW194344  10.676   6.983   5.949  0.1950 -0.3365 -2.2950
30271SOL    HW294345  10.776   6.885   6.008  0.2555  0.5783 -0.8332
30272SOL     OW94346   1.694   0.528   6.652  0.3353 -0.3632  0.1387
30272SOL    HW194347   1.725   0.615   6.677  1.1884 -0.3633 -0.8476
30272SOL    HW294348   1.650   0.541   6.568  2.5688 -1.2024 -1.2457
30273SOL     OW94349   5.006   7.532  10.717 -0.1387 -0.3091  0.5233
30273SOL    HW194350   5.070   7.603  10.705 -0.6104  0.5774  2.7903
30273SOL    HW294351   4.921   7.574  10.703 -0.3556 -1.2508 -1.4171
30274SOL     OW94352   8.481  10.369   5.115 -0.1926  0.2645  0.1203
30274SOL    HW194353   8.482  10.278   5.089  0.4239  0.0828  0.7201
30274SOL    HW294354   8.551  10.410   5.063  0.0519  0.2209  0.4108
30275SOL     OW94355   3.797   6.622   1.359 -0.0361 -0.4163 -0.1091
30275SOL    HW194356   3.825   6.531   1.371  0.1694 -0.3192  0.1787
30275SOL    HW294357   3.710   6.625   1.399 -0.3766 -0.6652 -0.8051
30276SOL     OW94358   2.190  10.355   7.597 -0.7118  0.1726  0.1667
30276SOL    HW194359   2.098  10.327   7.599 -0.2682 -1.3255  1.0273
30276SOL    HW294360   2.233  10.292   7.540  0.0641 -0.0876  1.0174
30277SOL     OW94361   1.958  10.869  10.993 -0.5757 -0.3722 -0.3643
30277SOL    HW194362   1.898  10.925  11.042 -0.7892 -0.8435 -0.0794
30277SOL    HW294363   1.930  10.779  11.014 -1.4477 -0.6104 -2.2895
30278SOL     OW94364   4.335  10.236   8.257 -0.4660  0.1744 -0.1432
30278SOL    HW194365   4.296  10.201   8.337 -0.6775  1.8082  0.5037
30278SOL    HW294366   4.424  10.201   8.256  0.0613  1.3593  1.6457
30279SOL     OW94367  11.050   8.636   8.619  0.3312  0.0473 -0.3383
30279SOL    HW194368  11.130   8.583   8.621  0.5318  0.3200 -0.8407
30279SOL    HW294369  11.079   8.721   8.584 -0.2220  0.0607 -0.7820
30280SOL     OW94370   2.061   4.669   1.289 -0.6856 -0.0073  0.0198
30280SOL    HW194371   2.023   4.610   1.353 -1.5453 -0.6604 -1.0593
30280SOL    HW294372   2.041   4.629   1.204 -0.0010  1.0766 -0.6813
30281SOL     OW94373   6.596   8.861   0.001  0.2920 -0.7751  0.4006
30281SOL    HW194374   6.565   8.901  -0.080 -0.8326 -2.2906  0.0183
30281SOL    HW294375   6.682   8.825  -0.020 -0.1032 -1.3740 -0.2057
30282SOL     OW94376   5.291   8.249  10.490  0.4335  0.1425 -0.6461
30282SOL    HW194377   5.264   8.159  10.507  0.7128 -0.2463 -2.0925
30282SOL    HW294378   5.236   8.277  10.416  0.5874  1.0442 -0.4365
30283SOL     OW94379   3.188   0.125   2.718 -0.0271  0.5562 -0.1260
30283SOL    HW194380   3.215   0.215   2.736 -0.3396  0.6877 -0.3060
30283SOL    HW294381   3.195   0.081   2.803 -0.2370  0.8461  0.0429
30284SOL     OW94382   5.744   4.096   1.263 -0.3327 -0.0535 -0.0415
30284SOL    HW194383   5.730   4.061   1.175 -0.6341  2.3652 -1.0527
30284SOL    HW294384   5.734   4.021   1.322  0.7552 -1.9223 -2.1144
30285SOL     OW94385   3.020   0.586   6.544 -0.1544 -0.7112  0.2106
30285SOL    HW194386   3.031   0.491   6.555  0.4171 -0.7803 -0.7924
30285SOL    HW294387   2.948   0.609   6.602 -0.0455 -1.6990  0.7547
30286SOL     OW94388   4.991   4.956   6.681  0.4821  0.3020 -0.3856
30286SOL    HW194389   4.924   4.978   6.746  2.0762  2.0559  0.7920
30286SOL    HW294390   5.058   4.910   6.731  0.8758 -0.0468 -1.2165
30287SOL     OW94391  10.480   5.588   9.521 -0.4048 -0.2067  0.4545
30287SOL    HW194392  10.519   5.542   9.596  0.5262 -0.6261 -0.2568
30287SOL    HW294393  10.524   5.674   9.521 -0.2533 -0.2840  0.2712
30288SOL     OW94394   0.717   6.717   7.593 -0.1124 -0.3028  0.4166
30288SOL    HW194395   0.650   6.778   7.564 -0.1054  0.1047  1.2314
30288SOL    HW294396   0.767   6.696   7.513 -1.9816 -1.6448 -0.4723
30289SOL     OW94397   9.278   1.157   0.149  0.0252 -0.0172  0.3635
30289SOL    HW194398   9.263   1.179   0.057  0.2791  1.8013  0.7123
30289SOL    HW294399   9.190   1.143   0.184 -0.0384 -1.4403 -0.2809
30290SOL     OW94400   0.146   3.641   7.391  0.2562 -0.3072 -0.1800
30290SOL    HW194401   0.202   3.716   7.409  1.5493 -0.8592 -1.6982
30290SOL    HW294402   0.197   3.587   7.331 -0.3190 -2.7783  1.4069
30291SOL     OW94403   9.868   6.170   7.733  0.0207  0.2642 -0.3165
30291SOL    HW194404   9.802   6.218   7.783  0.8884  3.2490 -1.7981
30291SOL    HW294405   9.820   6.133   7.659 -0.2399  1.5537 -0.8308
30292SOL     OW94406   8.231   4.440   5.149 -0.0395 -0.3502  0.1572
30292SOL    HW194407   8.318   4.463   5.181 -0.4738  2.3092 -0.3732
30292SOL    HW294408   8.224   4.484   5.064 -2.3399  0.6364  0.7777
30293SOL     OW94409   3.714   1.715   9.372  0.0529  0.1218  0.3944
30293SOL    HW194410   3.639   1.758   9.331 -0.1967 -0.6741 -0.0027
30293SOL    HW294411   3.681   1.629   9.399  1.1229 -0.7541 -0.9143
30294SOL     OW94412   2.396   8.612   2.573  0.2639  0.5650 -0.1813
30294SOL    HW194413   2.360   8.565   2.498  1.3702  1.6599 -1.4363
30294SOL    HW294414   2.357   8.699   2.569  2.2425  1.4734 -1.0295
30295SOL     OW94415   0.688   0.424  10.204 -0.0388 -0.1934  0.1389
30295SOL    HW194416   0.658   0.374  10.280 -0.9394 -0.0043 -0.0787
30295SOL    HW294417   0.621   0.490  10.191  0.2687 -0.0244 -0.6314
30296SOL     OW94418   5.102  11.105  10.541  0.2030  0.1725  0.4270
30296SOL    HW194419   5.057  11.163  10.603  1.2869  1.4234  0.0958
30296SOL    HW294420   5.075  11.017  10.566 -0.5850  0.7506  1.6974
30297SOL     OW94421   0.031   6.438   8.642 -0.7139 -0.0644  0.1114
30297SOL    HW194422   0.053   6.531   8.647  1.9500 -0.3955 -2.4391
30297SOL    HW294423  -0.009   6.428   8.555  0.2740 -1.4661 -0.2185
30298SOL     OW94424   2.402   4.010   8.670  0.1425 -0.2899 -0.0629
30298SOL    HW194425   2.466   3.965   8.614  0.0976  0.3198 -0.6202
30298SOL    HW294426   2.415   4.103   8.651  0.5115 -0.0260  1.3672
30299SOL     OW94427   2.186   8.531  10.261  0.4951  0.8772 -0.3848
30299SOL    HW194428   2.183   8.568  10.349  0.2968 -0.5650  0.2388
30299SOL    HW294429   2.109   8.475  10.256  1.3206 -0.2432 -0.9286
30300SOL     OW94430   1.188   9.612   3.301 -0.2478  0.4123 -0.0638
30300SOL    HW194431   1.136   9.588   3.224 -1.1792  2.7788 -0.2561
30300SOL    HW294432   1.145   9.568   3.374 -0.7967  0.0724 -0.5832
30301SOL     OW94433   8.474   4.419   4.071  0.1282  0.1495  0.6793
30301SOL    HW194434   8.504   4.489   4.128  1.0195 -1.7012  2.6067
30301SOL    HW294435   8.383   4.405   4.095  0.0734  0.3508  0.5906
30302SOL     OW94436   1.532   2.121   5.815  0.6778  0.4940  0.3287
30302SOL    HW194437   1.523   2.176   5.892  1.3528  0.4978  0.4109
30302SOL    HW294438   1.546   2.183   5.743 -4.2097  0.8412 -0.6191
30303SOL     OW94439   7.677   0.568   9.122 -0.2480 -0.2679  0.1958
30303SOL    HW194440   7.618   0.637   9.092 -0.3998 -0.8619 -0.9093
30303SOL    HW294441   7.661   0.562   9.216 -0.3792  1.0544  0.2825
30304SOL     OW94442   9.329   9.296   2.037 -0.1646 -0.3851 -0.3381
30304SOL    HW194443   9.353   9.385   2.010  1.1227 -0.4564  0.4793
30304SOL    HW294444   9.321   9.248   1.955  3.5187 -0.5578 -0.7766
30305SOL     OW94445   8.432   9.391   2.602 -0.4105 -0.3331  0.0136
30305SOL    HW194446   8.360   9.348   2.555 -1.9135  0.1999  1.6925
30305SOL    HW294447   8.446   9.337   2.679  1.3645 -0.6789 -0.5170
30306SOL     OW94448   8.308  11.077   2.262  0.3565 -0.3167  0.2356
30306SOL    HW194449   8.214  11.077   2.279  0.5359 -2.9709  1.7784
30306SOL    HW294450   8.346  11.038   2.340  2.6341 -0.5976 -0.9411
30307SOL     OW94451   3.360   3.266   4.626  0.4272  0.6812  0.2491
30307SOL    HW194452   3.417   3.190   4.613 -0.9255 -0.2866 -0.2273
30307SOL    HW294453   3.382   3.298   4.714  1.1270 -0.1499  0.3852
30308SOL     OW94454   6.309   7.390   0.266 -0.0767 -0.0292 -0.6679
30308SOL    HW194455   6.370   7.450   0.310 -1.1712 -0.2801  1.2785
30308SOL    HW294456   6.311   7.418   0.174  1.0124  1.6330 -0.1928
30309SOL     OW94457   1.386   7.482   9.695  0.2275  0.6116 -0.1910
30309SOL    HW194458   1.389   7.495   9.790  0.7500  1.0585 -0.2590
30309SOL    HW294459   1.477   7.495   9.667 -0.1621  1.9884 -0.9356
30310SOL     OW94460   4.815   8.978   5.367 -0.1962 -0.0141 -0.1994
30310SOL    HW194461   4.860   9.026   5.436 -1.4807  0.3975  0.3800
30310SOL    HW294462   4.842   8.887   5.378  1.3342  0.3655 -0.5644
30311SOL     OW94463   1.162   8.774   2.844 -0.3139 -0.2519 -0.4158
30311SOL    HW194464   1.124   8.850   2.887  0.2357  0.6197 -1.4235
30311SOL    HW294465   1.238   8.752   2.897  0.0045  0.4265 -0.5805
30312SOL     OW94466   0.924   2.357  10.491 -0.3611 -0.0968  0.2575
30312SOL    HW194467   0.946   2.428  10.431  0.7767 -0.5016  0.1624
30312SOL    HW294468   0.953   2.388  10.577  1.6408 -1.0445 -0.0271
30313SOL     OW94469   6.446   9.500   2.054 -0.1758  0.2559 -0.5470
30313SOL    HW194470   6.492   9.583   2.044  0.2995 -0.2568 -3.5128
30313SOL    HW294471   6.508   9.443   2.100  0.7563  0.6318 -1.3065
30314SOL     OW94472   8.756   3.335   8.376  0.0721  0.7054  0.3786
30314SOL    HW194473   8.795   3.285   8.305  0.7124 -1.7279  2.3150
30314SOL    HW294474   8.822   3.400   8.399  0.9763 -0.2030  0.4260
30315SOL     OW94475   4.693  10.716   3.513 -0.6680 -0.5138  0.3606
30315SOL    HW194476   4.783  10.730   3.484 -0.1477 -3.5191  0.2262
30315SOL    HW294477   4.653  10.803   3.511  1.6623  0.6122 -1.4424
30316SOL     OW94478   8.130   9.294   0.329 -0.2669  0.5555  0.1202
30316SOL    HW194479   8.077   9.241   0.389 -1.4142  0.7064 -0.7208
30316SOL    HW294480   8.166   9.364   0.384 -1.6968  0.9825  0.5457
30317SOL     OW94481   6.506   3.942   9.323  0.0086  0.0014 -0.3679
30317SOL    HW194482   6.440   3.880   9.292 -0.2647  0.2934 -0.3828
30317SOL    HW294483   6.533   3.909   9.409 -0.6252  0.2275 -0.0783
30318SOL     OW94484   8.051   9.708   5.446 -0.4618 -0.0387  0.4755
30318SOL    HW194485   8.123   9.755   5.489  0.4147 -1.0471  0.1593
30318SOL    HW294486   8.057   9.735   5.354 -0.2475 -0.3971  0.3811
30319SOL     OW94487   5.755  10.056   8.724 -0.2336  0.0154 -0.0869
30319SOL    HW194488   5.705  10.085   8.800  2.5575  1.1301  1.4895
30319SOL    HW294489   5.846  10.076   8.746  0.8301 -0.6430 -3.2997
30320SOL     OW94490   4.052   7.476   8.840  0.0216 -0.6104 -0.8310
30320SOL    HW194491   4.057   7.572   8.845 -2.8477 -0.2944 -1.8030
30320SOL    HW294492   3.981   7.453   8.901  1.1237 -2.2356 -0.0844
30321SOL     OW94493  10.932   3.802   8.155  0.1594 -0.0825  0.0857
30321SOL    HW194494  10.928   3.884   8.203 -0.3192 -0.0539  0.0007
30321SOL    HW294495  11.016   3.805   8.108 -0.0424  0.5350 -0.2400
30322SOL     OW94496   6.415  10.980   9.143  0.0505  0.1320 -0.3020
30322SOL    HW194497   6.487  10.986   9.080  0.3949 -0.6989 -0.0026
30322SOL    HW294498   6.342  11.023   9.099  0.5489  0.4162 -0.8752
30323SOL     OW94499   2.535   4.102   0.173  0.1272 -0.2052  0.4854
30323SOL    HW194500   2.608   4.112   0.234 -0.3586 -0.8211  1.1814
30323SOL    HW294501   2.459   4.136   0.220  0.3221  2.8438 -1.1511
30324SOL     OW94502   7.590   3.216  10.780  0.4587 -0.0163 -0.0136
30324SOL    HW194503   7.671   3.262  10.758  0.2611 -0.3871 -1.6144
30324SOL    HW294504   7.601   3.191  10.872  0.9505  2.3990  0.6715
30325SOL     OW94505   1.148   0.419   2.600 -0.6234  0.0823  0.4196
30325SOL    HW194506   1.186   0.491   2.650 -0.3387  0.7585 -0.7537
30325SOL    HW294507   1.171   0.341   2.650 -0.8910  0.7786  1.6868
30326SOL     OW94508  10.499   8.754   9.197 -0.8619 -0.6134 -0.3683
30326SOL    HW194509  10.482   8.809   9.121 -1.5485 -0.7241 -0.3085
30326SOL    HW294510  10.548   8.811   9.257 -0.3568 -0.5157 -0.8730
30327SOL     OW94511   5.267   7.928   8.093  0.8900 -0.0258  0.3569
30327SOL    HW194512   5.308   8.009   8.063  0.0625 -0.2125 -1.3453
30327SOL    HW294513   5.334   7.886   8.148  1.8838  1.0604 -0.0022
30328SOL     OW94514   7.721   7.633  10.079 -0.4975  0.2454 -0.0584
30328SOL    HW194515   7.649   7.674  10.031 -2.9959 -1.2784  2.0883
30328SOL    HW294516   7.702   7.540  10.076  0.5709 -0.0795  1.7701
30329SOL     OW94517  11.125  10.772  10.994  0.0525 -0.7309  0.3863
30329SOL    HW194518  11.193  10.786  10.927 -1.2742  4.5877 -0.2557
30329SOL    HW294519  11.174  10.765  11.076  1.5025  0.5122 -0.3245
30330SOL     OW94520   8.075   9.002   6.222  0.2398 -0.3339 -0.1347
30330SOL    HW194521   7.984   9.000   6.194 -0.0836 -2.4466  0.9472
30330SOL    HW294522   8.073   8.984   6.316  1.7730 -0.4450 -0.0907
30331SOL     OW94523  10.595   7.752   7.873  0.0245  0.6524  0.2765
30331SOL    HW194524  10.595   7.840   7.912  0.9010  0.7949 -0.0355
30331SOL    HW294525  10.651   7.700   7.930  0.6022  0.6392 -0.2957
30332SOL     OW94526   7.363   5.575   5.058 -0.6642 -0.1551 -0.6082
30332SOL    HW194527   7.288   5.593   5.001 -1.9978 -1.5529  0.6002
30332SOL    HW294528   7.332   5.595   5.146  0.5171 -0.4127 -0.1112
30333SOL     OW94529   4.721   1.509   5.800  0.4041  0.0686  0.6953
30333SOL    HW194530   4.781   1.470   5.864 -1.0361  0.4567  2.3901
30333SOL    HW294531   4.722   1.603   5.821  1.2988  0.5053 -1.1277
30334SOL     OW94532   3.620   6.013   4.354  0.2157 -0.0733 -0.1165
30334SOL    HW194533   3.647   6.068   4.427 -0.6480 -1.6555  1.5029
30334SOL    HW294534   3.525   6.012   4.359  0.1804 -0.8592 -0.7592
30335SOL     OW94535   6.652   7.687   4.033  0.4345 -0.1764  0.0064
30335SOL    HW194536   6.658   7.775   4.069 -0.9220  0.4635 -1.2351
30335SOL    HW294537   6.560   7.662   4.043  0.5084 -0.8915 -0.8923
30336SOL     OW94538   8.079  10.079   0.706  0.0983  0.0279 -0.0574
30336SOL    HW194539   8.021  10.126   0.767 -0.1195 -0.1351 -0.1384
30336SOL    HW294540   8.025  10.063   0.629  0.4081  0.3295 -0.3397
30337SOL     OW94541   7.664   8.970   6.837 -0.0397 -0.0323  0.2569
30337SOL    HW194542   7.658   9.065   6.853 -1.1268 -0.1549  0.6891
30337SOL    HW294543   7.590   8.951   6.780 -0.6906 -0.8498  1.3455
30338SOL     OW94544   2.619   5.894   4.595  0.1495 -0.3903  0.0715
30338SOL    HW194545   2.621   5.859   4.685 -0.6845 -0.2892  0.1366
30338SOL    HW294546   2.635   5.988   4.606 -0.5766 -0.2758  0.1772
30339SOL     OW94547   4.092   9.919   9.089  0.2859 -0.2412 -0.9380
30339SOL    HW194548   4.071  10.012   9.095  1.6357  0.1198 -1.5786
30339SOL    HW294549   4.158   9.905   9.157 -0.2055 -0.8346 -0.5690
30340SOL     OW94550   9.184   0.736   9.195 -0.3255  0.4068  0.1993
30340SOL    HW194551   9.125   0.668   9.228  0.8699 -0.5283  0.4820
30340SOL    HW294552   9.271   0.710   9.227  0.1101  2.3414  0.7641
30341SOL     OW94553   1.145   9.250   3.153 -0.1468 -0.2123  0.1447
30341SOL    HW194554   1.237   9.277   3.148  0.0040 -0.5707  0.8961
30341SOL    HW294555   1.133   9.220   3.243 -1.1457  0.3111  0.2023
30342SOL     OW94556   6.729   7.799   7.448  0.1613 -0.0954  0.1587
30342SOL    HW194557   6.741   7.881   7.495 -2.2774  0.8033 -0.6504
30342SOL    HW294558   6.652   7.813   7.394 -1.0288 -3.2956  0.8303
30343SOL     OW94559   3.876   2.687   2.315 -0.1000  0.2824  0.0753
30343SOL    HW194560   3.833   2.763   2.353 -0.6603  0.1006 -0.1792
30343SOL    HW294561   3.858   2.693   2.221  0.6016  0.3086 -0.0600
30344SOL     OW94562   9.142   3.824   6.118 -0.2774 -0.0388  0.0813
30344SOL    HW194563   9.190   3.818   6.201 -0.6491  1.4702  0.4241
30344SOL    HW294564   9.177   3.902   6.075  0.9882 -1.5929 -1.9352
30345SOL     OW94565   0.928   1.982   5.813 -0.1243 -0.0245  0.1863
30345SOL    HW194566   0.936   2.077   5.813 -0.3884  0.0302  2.0067
30345SOL    HW294567   0.834   1.966   5.816 -0.1125 -0.3704 -0.9688
30346SOL     OW94568   3.192   3.524   1.832 -0.0914  0.1673  0.1095
30346SOL    HW194569   3.136   3.569   1.769  0.2249  1.2524  0.5653
30346SOL    HW294570   3.131   3.484   1.894 -0.3882 -0.2473 -0.4467
30347SOL     OW94571   5.370   3.683   6.856  0.7107  0.2427 -0.7597
30347SOL    HW194572   5.376   3.682   6.951 -1.8746 -1.2915 -0.5180
30347SOL    HW294573   5.276   3.676   6.838  1.2336 -1.2364 -3.4269
30348SOL     OW94574   1.008   2.461  10.759 -0.4542 -0.2726  0.0451
30348SOL    HW194575   1.057   2.535  10.795 -2.0886  1.2166 -0.5763
30348SOL    HW294576   1.045   2.384  10.802  1.4468  0.8707  0.6019
30349SOL     OW94577   0.949   8.246   3.580  0.3006 -0.0898 -0.1794
30349SOL    HW194578   0.987   8.333   3.565 -1.5528  0.5023 -1.8797
30349SOL    HW294579   0.854   8.261   3.580 -0.0638 -2.1210 -0.5785
30350SOL     OW94580   2.464   2.259   2.371  0.3527  0.2544  0.1594
30350SOL    HW194581   2.498   2.346   2.349 -0.4499  0.5092 -0.1004
30350SOL    HW294582   2.474   2.208   2.290  1.6711 -0.1818  0.5718
30351SOL     OW94583   2.242   0.082   4.734  0.1046  0.0607  0.9066
30351SOL    HW194584   2.147   0.092   4.725  0.2856  2.4058  0.9520
30351SOL    HW294585   2.255   0.058   4.826 -0.4486 -0.6676  0.8022
30352SOL     OW94586   8.612   3.928  10.185  0.3133  0.1234  0.6050
30352SOL    HW194587   8.650   3.856  10.134 -1.0924 -0.3768  0.2086
30352SOL    HW294588   8.619   4.004  10.128  0.7167  0.0408  0.5407
30353SOL     OW94589   2.538   5.662   3.132 -0.3534  0.2906  0.6730
30353SOL    HW194590   2.601   5.618   3.074 -0.4499  1.1332 -0.1041
30353SOL    HW294591   2.465   5.684   3.075  0.1694  2.4443  0.7449
30354SOL     OW94592   1.909  11.051  10.702 -0.0657 -0.2629 -0.3317
30354SOL    HW194593   1.833  10.999  10.677  0.4323 -1.1017 -0.1541
30354SOL    HW294594   1.984  10.994  10.683  0.5116  0.4765 -0.3354
30355SOL     OW94595   8.355   9.157   3.700  0.2226 -0.2787  0.0139
30355SOL    HW194596   8.382   9.215   3.628  0.2615 -1.2722 -0.8049
30355SOL    HW294597   8.371   9.069   3.666 -1.3352 -0.8265  0.6077
30356SOL     OW94598   6.145   5.804   5.105  0.4978  0.3027  0.3033
30356SOL    HW194599   6.178   5.892   5.126  0.0383  0.8098 -1.0359
30356SOL    HW294600   6.197   5.777   5.030  0.3205 -0.3962  0.4274
30357SOL     OW94601   5.646   1.191   9.340 -0.3635  0.1126  0.1647
30357SOL    HW194602   5.604   1.108   9.358  1.1309 -0.7215 -0.0381
30357SOL    HW294603   5.634   1.205   9.246  0.8570 -0.7425 -0.1318
30358SOL     OW94604   5.616   0.527   6.240 -0.0827 -0.3387 -0.7279
30358SOL    HW194605   5.627   0.482   6.156  1.0610 -1.0039 -0.2499
30358SOL    HW294606   5.648   0.616   6.223  0.6481 -0.6172 -0.8807
30359SOL     OW94607   3.571   3.416   7.402  0.4042  0.1181  0.2824
30359SOL    HW194608   3.606   3.367   7.477  0.0129 -1.4975 -0.5267
30359SOL    HW294609   3.506   3.357   7.365  0.8137  0.7557 -1.5140
30360SOL     OW94610  10.284   2.723   2.629  0.3600 -0.6468  0.5500
30360SOL    HW194611  10.239   2.808   2.630 -1.3533 -1.5044  0.1705
30360SOL    HW294612  10.294   2.701   2.722  0.3201 -0.2720  0.6472
30361SOL     OW94613   7.416   1.227   8.225  0.3573 -0.1796  0.1363
30361SOL    HW194614   7.469   1.287   8.172 -0.9278  1.8841  1.0862
30361SOL    HW294615   7.424   1.260   8.314 -2.4375  0.2117  0.3253
30362SOL     OW94616   4.150   3.709   8.833 -0.5759 -0.3173 -0.1169
30362SOL    HW194617   4.085   3.765   8.875  0.0297  0.3412 -0.0418
30362SOL    HW294618   4.186   3.763   8.762  0.3634 -0.4306  0.2617
30363SOL     OW94619   5.972   4.282   6.649  0.0074  0.2038  0.0203
30363SOL    HW194620   6.010   4.214   6.593  0.9805  0.9429 -0.2232
30363SOL    HW294621   5.941   4.349   6.589 -1.8128 -0.4173  0.2017
30364SOL     OW94622   3.232   3.182   1.182 -0.3633  0.1479  0.4756
30364SOL    HW194623   3.180   3.104   1.161  1.5553 -1.4283  1.2614
30364SOL    HW294624   3.207   3.247   1.116 -2.5513 -0.8675  0.2368
30365SOL     OW94625   8.642   1.000   2.040  0.0526  0.2441 -0.0123
30365SOL    HW194626   8.662   0.992   1.947  1.4717  0.9011  0.2003
30365SOL    HW294627   8.728   1.012   2.082 -0.5165 -0.4258  1.4247
30366SOL     OW94628   7.058   0.929   9.184 -0.1413  0.0947 -0.2051
30366SOL    HW194629   6.998   0.870   9.139 -0.5449  0.3354  0.0097
30366SOL    HW294630   7.054   0.903   9.276 -0.2202  0.3716 -0.1301
30367SOL     OW94631   3.788   2.125   2.101 -0.3190 -0.4241  0.8301
30367SOL    HW194632   3.827   2.051   2.055  2.0705  1.3030 -0.1843
30367SOL    HW294633   3.731   2.086   2.167  0.6728 -3.1256  0.2047
30368SOL     OW94634   4.366   9.540   8.108  0.2114 -0.3936 -0.5559
30368SOL    HW194635   4.458   9.523   8.090  0.1167 -0.1871 -1.2629
30368SOL    HW294636   4.322   9.527   8.024  0.0835  2.9658 -1.1539
30369SOL     OW94637   2.940   8.751   3.025  0.2187  0.5289  0.2033
30369SOL    HW194638   2.895   8.818   3.076  0.5985  1.9743 -1.2966
30369SOL    HW294639   2.922   8.773   2.934 -0.2173 -1.8444 -0.3448
30370SOL     OW94640   2.179   9.168   8.584  0.0370 -0.4417  0.0761
30370SOL    HW194641   2.252   9.207   8.631  0.2736 -1.5077  0.6213
30370SOL    HW294642   2.204   9.076   8.573 -1.6104 -1.0773  1.1595
30371SOL     OW94643  10.651   5.506   4.366  0.5722 -0.3386 -0.0659
30371SOL    HW194644  10.682   5.428   4.412  2.3925 -0.0327 -0.6974
30371SOL    HW294645  10.672   5.490   4.274 -0.4787  0.2512 -0.4340
30372SOL     OW94646   1.178   8.031   8.003 -0.0704 -0.4496 -0.4246
30372SOL    HW194647   1.120   8.073   8.066  0.7713  0.7990 -0.4467
30372SOL    HW294648   1.195   8.098   7.937  0.3433 -1.2258 -1.1328
30373SOL     OW94649   5.217   3.594   5.424 -0.3799 -0.4315  0.6375
30373SOL    HW194650   5.157   3.534   5.379 -0.7750  1.2136 -1.1511
30373SOL    HW294651   5.271   3.631   5.354 -0.1628  1.3187  1.6666
30374SOL     OW94652   3.340   1.646   6.802 -0.5309 -0.4460  0.4270
30374SOL    HW194653   3.283   1.697   6.744 -0.1694 -1.2282 -0.6624
30374SOL    HW294654   3.311   1.555   6.790 -0.6002 -0.6068  1.6729
30375SOL     OW94655   5.683   2.692   3.035  0.5729 -0.0790  0.9172
30375SOL    HW194656   5.627   2.663   2.962 -0.3178 -1.4626  2.0921
30375SOL    HW294657   5.626   2.748   3.088  1.2242  0.9416  0.5805
30376SOL     OW94658   7.106   4.165   2.837  0.1787  0.5237 -0.2532
30376SOL    HW194659   7.126   4.138   2.747  0.3315  3.0133 -1.0543
30376SOL    HW294660   7.020   4.127   2.856 -0.0716  0.3535 -1.6393
30377SOL     OW94661   8.783   2.839   0.409  0.1274  0.3710 -0.6277
30377SOL    HW194662   8.732   2.871   0.483  1.1753  2.4807 -0.7453
30377SOL    HW294663   8.820   2.756   0.440 -1.3426  0.0382  0.3339
30378SOL     OW94664   4.930   5.896   7.684 -0.1724 -0.7683 -0.1801
30378SOL    HW194665   4.887   5.980   7.703  1.4245  0.3653 -1.2364
30378SOL    HW294666   4.868   5.830   7.713 -1.7422  0.7780  0.1742
30379SOL     OW94667   2.008   3.845   3.250  0.6198  0.1626  0.4056
30379SOL    HW194668   2.038   3.765   3.291  2.6064  0.7234  0.1475
30379SOL    HW294669   2.088   3.893   3.228 -0.4656  1.5709 -0.7307
30380SOL     OW94670   3.799   8.546   7.545  0.8844  0.2171 -0.3789
30380SOL    HW194671   3.813   8.639   7.529  0.0618  0.4751  0.3165
30380SOL    HW294672   3.721   8.543   7.600  1.4204 -0.8317  0.3526
30381SOL     OW94673   9.644   8.156   5.086 -0.4181 -0.4996 -0.3223
30381SOL    HW194674   9.671   8.076   5.132 -0.3334 -0.7026 -0.7263
30381SOL    HW294675   9.686   8.150   5.000 -0.3834 -0.0036 -0.3436
30382SOL     OW94676   5.574   7.865   6.966 -0.7577 -0.0963  0.0767
30382SOL    HW194677   5.612   7.898   6.884 -1.8216  0.5219 -0.1876
30382SOL    HW294678   5.628   7.788   6.988  0.9714  1.0475  0.0342
30383SOL     OW94679   6.287   5.704   8.514  0.3985  1.2372  0.1031
30383SOL    HW194680   6.376   5.715   8.547  0.6494  0.8592 -0.4375
30383SOL    HW294681   6.274   5.777   8.453 -0.6192  2.8763  2.1222
30384SOL     OW94682   2.718   9.566   6.484 -0.0250  0.1978  0.6168
30384SOL    HW194683   2.811   9.543   6.494 -0.1752 -0.8331 -0.2102
30384SOL    HW294684   2.702   9.628   6.555  0.6918 -1.4455  2.3066
30385SOL     OW94685   1.444   3.552   4.612 -0.1157 -0.3028  0.4690
30385SOL    HW194686   1.478   3.628   4.659  1.2867  0.6778 -1.9558
30385SOL    HW294687   1.513   3.486   4.620 -0.2819 -0.4695  0.5488
30386SOL     OW94688  10.125   7.780   1.509  0.3651  0.2566  0.6589
30386SOL    HW194689  10.055   7.798   1.572 -1.4423  0.2434 -1.2246
30386SOL    HW294690  10.129   7.684   1.505 -1.4387  0.1747 -1.1041
30387SOL     OW94691   8.894   7.081   0.710 -0.1856  0.5152 -0.0324
30387SOL    HW194692   8.982   7.046   0.699 -0.1455  0.8416 -0.8105
30387SOL    HW294693   8.890   7.157   0.651 -0.7943  0.8530  0.4268
30388SOL     OW94694   3.273   1.183  10.593  0.3222 -1.1709 -0.2514
30388SOL    HW194695   3.344   1.187  10.657 -0.2603 -0.7976  0.3923
30388SOL    HW294696   3.306   1.126  10.523  2.5376  1.5115 -1.5911
30389SOL     OW94697   9.873   4.763   8.388 -0.5461 -0.2421 -0.2149
30389SOL    HW194698   9.948   4.733   8.438 -0.4293  0.1668 -0.1452
30389SOL    HW294699   9.804   4.777   8.453 -0.8776 -1.1862 -0.3397
30390SOL     OW94700   7.929   4.613   5.450 -0.1657  0.1117  0.4804
30390SOL    HW194701   7.909   4.640   5.540  0.5745 -0.2907  0.7754
30390SOL    HW294702   8.014   4.569   5.457 -0.5558 -0.7707 -0.2690
30391SOL     OW94703   9.675   1.273   6.468 -0.5557 -0.3562  0.3034
30391SOL    HW194704   9.661   1.179   6.481 -0.3761 -0.4203  0.0344
30391SOL    HW294705   9.650   1.288   6.377  1.1854 -0.4881 -0.2261
30392SOL     OW94706   3.451   7.727   0.203  0.5078 -0.2054 -0.3087
30392SOL    HW194707   3.377   7.666   0.204  0.3244 -0.0734 -1.9224
30392SOL    HW294708   3.415   7.809   0.236  0.2111 -0.4326 -0.0662
30393SOL     OW94709   6.194   8.323   2.099  0.1660 -0.1173 -0.1579
30393SOL    HW194710   6.247   8.246   2.120  1.1481  0.6736  0.3462
30393SOL    HW294711   6.221   8.347   2.010 -1.3925 -1.3317 -1.0312
30394SOL     OW94712  10.045   3.069   8.815 -0.3819  0.5732 -0.1415
30394SOL    HW194713   9.966   3.075   8.761 -1.1238  1.2670  0.9949
30394SOL    HW294714  10.039   3.144   8.874  1.0959  0.5883  0.0189
30395SOL     OW94715   2.583   8.387  11.034  0.0439 -0.1182 -0.7394
30395SOL    HW194716   2.587   8.335  11.114 -1.1165  0.3267 -0.3752
30395SOL    HW294717   2.645   8.345  10.975 -0.0846 -1.2685 -0.0836
30396SOL     OW94718   8.540   4.818   6.237  0.1186 -0.3507  0.2386
30396SOL    HW194719   8.633   4.840   6.230 -0.3195  1.4324 -0.5558
30396SOL    HW294720   8.537   4.722   6.233  1.7862 -0.3796 -1.4426
30397SOL     OW94721   5.979   3.608   8.963  0.6095 -0.3532 -0.7918
30397SOL    HW194722   6.031   3.681   8.997  0.2260 -0.8986  1.0794
30397SOL    HW294723   6.042   3.555   8.914  1.0128  0.8935 -1.6704
30398SOL     OW94724   4.006   0.986   3.796  0.2513  0.2751  0.4649
30398SOL    HW194725   4.077   0.925   3.817  0.6727 -0.0575 -1.6222
30398SOL    HW294726   4.042   1.072   3.817  1.3088  0.1029 -0.5008
30399SOL     OW94727   7.981   3.343   1.697 -0.0945 -0.1685 -0.4073
30399SOL    HW194728   7.937   3.283   1.636  0.6304 -1.1364 -0.0103
30399SOL    HW294729   7.979   3.297   1.781  1.3226 -0.0825 -0.2971
30400SOL     OW94730   7.745   5.195   6.299 -0.0191  0.0972  0.0541
30400SOL    HW194731   7.660   5.214   6.259  0.1271 -0.0462 -0.3231
30400SOL    HW294732   7.804   5.181   6.225 -0.3493 -2.9276  0.2631
30401SOL     OW94733   9.386   2.834   5.943  0.4034 -0.0281  0.1341
30401SOL    HW194734   9.358   2.895   6.011  0.7604 -0.3717  0.5988
30401SOL    HW294735   9.458   2.784   5.983  1.1864  0.3298 -0.7700
30402SOL     OW94736   7.632   0.266  10.731  0.2742 -0.5899  0.5913
30402SOL    HW194737   7.711   0.218  10.707 -0.6365 -0.7045 -2.7558
30402SOL    HW294738   7.637   0.347  10.680 -2.9880 -1.8731 -2.1370
30403SOL     OW94739   1.701   7.561   7.360 -0.3305  0.7311  0.3637
30403SOL    HW194740   1.618   7.575   7.404 -0.0703 -1.4755  1.7334
30403SOL    HW294741   1.765   7.608   7.413 -0.3203 -0.1223  1.1359
30404SOL     OW94742   1.574   8.268   0.824  0.1382 -0.0346 -0.4725
30404SOL    HW194743   1.665   8.239   0.819  0.2338 -0.4108  2.0819
30404SOL    HW294744   1.526   8.191   0.858 -0.7170  0.8174  0.3125
30405SOL     OW94745   0.840   4.872   2.981 -0.2938  0.0569  0.3445
30405SOL    HW194746   0.829   4.782   3.013 -2.4020  0.7501  1.8149
30405SOL    HW294747   0.906   4.910   3.038  0.1953 -0.3885  0.0833
30406SOL     OW94748   2.091  10.192   8.162  0.0834 -0.4413 -0.1413
30406SOL    HW194749   2.155  10.248   8.206 -1.1819 -0.7681  2.2789
30406SOL    HW294750   2.141  10.145   8.096  2.2535 -0.3262  1.3345
30407SOL     OW94751   2.140   7.859   4.374  0.1736 -0.4435 -0.7035
30407SOL    HW194752   2.105   7.781   4.417 -0.9169 -0.2482 -1.1893
30407SOL    HW294753   2.094   7.932   4.417  2.4964  0.1027  1.0216
30408SOL     OW94754   8.500   3.863   3.416  0.1844  0.4843 -0.0067
30408SOL    HW194755   8.485   3.880   3.510  0.7449  1.6501 -0.1037
30408SOL    HW294756   8.556   3.786   3.414  0.9076  0.9786  0.6667
30409SOL     OW94757   4.720   4.170   3.687 -0.3998 -0.1546 -0.3360
30409SOL    HW194758   4.650   4.129   3.638 -0.3286 -0.8268  0.1055
30409SOL    HW294759   4.689   4.172   3.778  0.0745 -0.3120 -0.1618
30410SOL     OW94760   5.928   9.044   1.271 -0.1419  0.1631  0.0144
30410SOL    HW194761   5.884   8.975   1.321  0.9187 -0.8162 -0.3676
30410SOL    HW294762   5.920   9.122   1.325 -0.5073 -0.4869  0.9119
30411SOL     OW94763   7.067   1.896   0.732 -0.5338 -0.1539  1.0420
30411SOL    HW194764   7.044   1.824   0.792 -2.0802  1.9484  3.1703
30411SOL    HW294765   7.142   1.938   0.773  0.0613 -0.2484  0.0655
30412SOL     OW94766   6.490   5.759  10.231 -0.2581  0.3170  0.0604
30412SOL    HW194767   6.424   5.714  10.179 -1.2504  0.3668  1.2343
30412SOL    HW294768   6.441   5.826  10.279  0.5494  0.0126  1.3558
30413SOL     OW94769  10.605  10.287   3.330  0.3808  0.3735 -0.3475
30413SOL    HW194770  10.653  10.364   3.299 -0.3009 -0.3450 -3.6296
30413SOL    HW294771  10.668  10.215   3.321  0.0475  0.0901 -0.4127
30414SOL     OW94772   6.175   9.498   0.597  0.4697 -0.0399  0.6637
30414SOL    HW194773   6.160   9.419   0.649  0.4712  0.0975  0.8714
30414SOL    HW294774   6.183   9.568   0.661 -0.6734  0.3224  0.4429
30415SOL     OW94775   0.363   8.436   7.962  1.2288  0.0609  0.0919
30415SOL    HW194776   0.359   8.349   7.924  0.0787  0.6683 -1.2792
30415SOL    HW294777   0.456   8.451   7.979  1.5441 -1.0520 -0.5633
30416SOL     OW94778   9.664   2.111   2.328 -0.0788  0.9415  0.9365
30416SOL    HW194779   9.685   2.148   2.414  0.6631  0.8003  0.8173
30416SOL    HW294780   9.731   2.146   2.270 -2.4735  3.8681 -0.3751
30417SOL     OW94781   5.639   5.796   8.722  0.8294 -0.2832  0.3804
30417SOL    HW194782   5.568   5.768   8.779  0.5889  0.2492  0.3509
30417SOL    HW294783   5.609   5.775   8.634 -0.4293  2.1916  0.1253
30418SOL     OW94784   8.503   7.859   3.466 -0.0612  0.3796  0.1660
30418SOL    HW194785   8.588   7.878   3.426 -0.5879  0.7879 -0.8013
30418SOL    HW294786   8.518   7.866   3.560  1.3744 -1.2198  0.0975
30419SOL     OW94787   4.170   1.206   4.242  0.2709 -0.2178  0.3378
30419SOL    HW194788   4.113   1.272   4.202  0.2856 -0.8259 -0.7057
30419SOL    HW294789   4.258   1.231   4.216  0.3333 -0.2907  0.4804
30420SOL     OW94790   9.782   4.742  10.172  0.2205 -0.1124  0.0893
30420SOL    HW194791   9.864   4.721  10.127  1.2904 -0.3733  2.0882
30420SOL    HW294792   9.723   4.769  10.101  2.5159  1.7502 -1.2529
30421SOL     OW94793   3.507   2.903   1.443  0.0594 -0.1605  0.4121
30421SOL    HW194794   3.505   2.902   1.348 -0.3128  0.7189  0.4034
30421SOL    HW294795   3.572   2.837   1.466  0.9620  0.3836 -0.4846
30422SOL     OW94796   0.890  11.031   1.190  0.5625  0.2906  0.1835
30422SOL    HW194797   0.960  11.026   1.125  0.2283  2.1184 -0.3693
30422SOL    HW294798   0.898  10.949   1.239  1.5738 -0.6126 -1.3767
30423SOL     OW94799   7.357   8.611   5.011  0.0129 -0.3095 -0.0309
30423SOL    HW194800   7.420   8.558   5.058 -0.4767 -0.1248  0.8453
30423SOL    HW294801   7.395   8.699   5.009  0.7056 -0.6063 -1.2642
30424SOL     OW94802   0.444   0.518   5.695 -0.1319 -0.0654 -0.5138
30424SOL    HW194803   0.457   0.605   5.732  1.2817  0.1330 -1.4032
30424SOL    HW294804   0.368   0.527   5.638  0.4782  0.8145 -1.2179
30425SOL     OW94805   5.343   6.025   4.114 -0.0824  0.0966 -0.2418
30425SOL    HW194806   5.373   6.026   4.204 -0.7895  0.1845 -0.0015
30425SOL    HW294807   5.340   6.118   4.089  0.5221  0.0551 -0.5063
30426SOL     OW94808   2.278   7.930   9.816 -0.0359  0.1480 -0.1797
30426SOL    HW194809   2.339   7.856   9.815  0.3004  0.2854  2.4670
30426SOL    HW294810   2.217   7.909   9.887 -1.7009  1.1072 -1.2548
30427SOL     OW94811   3.753   9.188   3.980 -0.4821  0.6721  0.6864
30427SOL    HW194812   3.683   9.130   3.949 -0.5552  1.5209 -0.8468
30427SOL    HW294813   3.833   9.140   3.959 -0.5361  1.1868 -0.7801
30428SOL     OW94814   0.142   6.339   5.043  0.2136 -0.0347  0.0081
30428SOL    HW194815   0.050   6.366   5.039  0.6191  1.6552  1.1838
30428SOL    HW294816   0.183   6.401   5.103  1.8868 -1.5023  0.4712
30429SOL     OW94817   4.331  10.522   4.545  0.1261  0.1010 -0.8267
30429SOL    HW194818   4.254  10.465   4.546  0.7222 -0.7188 -1.2395
30429SOL    HW294819   4.314  10.586   4.614 -0.0856 -1.1786  0.3427
30430SOL     OW94820   0.766   0.960   6.049  0.1396 -0.1971 -0.1106
30430SOL    HW194821   0.765   1.030   5.984  1.5522 -1.7412 -1.9345
30430SOL    HW294822   0.723   0.997   6.125  1.5616  2.9571 -0.6725
30431SOL     OW94823  10.383   8.246  10.900  0.5924 -0.2438  0.1255
30431SOL    HW194824  10.344   8.166  10.867 -1.5669  1.6158 -2.1786
30431SOL    HW294825  10.310   8.296  10.937  1.8580  0.7193  1.4636
30432SOL     OW94826   7.437   5.015   4.406  0.0420 -0.0664 -0.1592
30432SOL    HW194827   7.341   5.011   4.404  0.0529 -0.8162 -1.9791
30432SOL    HW294828   7.459   5.035   4.496 -1.8013 -1.2730  0.6203
30433SOL     OW94829  10.002   4.396   2.152  0.0688  1.0287  0.0659
30433SOL    HW194830  10.046   4.312   2.163 -1.9874  0.0009  0.9118
30433SOL    HW294831   9.916   4.384   2.194 -1.3319  2.6829 -2.1120
30434SOL     OW94832   4.830   5.604   7.659 -0.5701 -0.1230 -0.0936
30434SOL    HW194833   4.865   5.605   7.570 -1.3413 -0.4613 -0.4031
30434SOL    HW294834   4.736   5.616   7.648 -0.7763 -1.0276  0.6244
30435SOL     OW94835   8.038   6.332   7.779  0.2751 -0.5135  0.1320
30435SOL    HW194836   8.103   6.346   7.710  1.3662 -1.5482  0.9275
30435SOL    HW294837   7.954   6.335   7.733  0.9302 -0.3021 -1.0933
30436SOL     OW94838   3.879   5.001   3.166  0.0831 -0.1923  0.2163
30436SOL    HW194839   3.802   5.046   3.131 -0.0176 -0.8127 -0.3673
30436SOL    HW294840   3.951   5.064   3.154 -0.0425 -0.2026 -0.6688
30437SOL     OW94841   1.623   5.146   7.331 -0.9405 -0.1340 -0.6192
30437SOL    HW194842   1.529   5.125   7.331 -1.1192  0.6036  0.9407
30437SOL    HW294843   1.665   5.065   7.299 -2.0994 -0.3699 -1.6440
30438SOL     OW94844   0.814   9.315   2.326  0.8555  0.3383  0.2995
30438SOL    HW194845   0.781   9.325   2.237  0.9061 -0.8259  0.1374
30438SOL    HW294846   0.772   9.386   2.375 -1.3812 -0.6576 -0.0391
30439SOL     OW94847   7.260   6.842   8.203 -0.6835 -0.2258 -0.0079
30439SOL    HW194848   7.318   6.822   8.130 -0.9647 -0.2680 -0.2232
30439SOL    HW294849   7.317   6.842   8.280  0.0381  2.0174 -0.4781
30440SOL     OW94850   5.403  10.103   9.103  0.0477 -0.3996  0.3065
30440SOL    HW194851   5.315  10.129   9.076  0.3805  1.4305  0.8321
30440SOL    HW294852   5.460  10.139   9.036  0.4934 -0.4028  0.6812
30441SOL     OW94853   7.494   5.349  10.028 -0.0248 -0.4318 -0.4008
30441SOL    HW194854   7.414   5.303  10.053 -1.6045  2.4075  0.1029
30441SOL    HW294855   7.525   5.390  10.109  0.8436  0.1116 -0.9851
30442SOL     OW94856   7.658  10.255   0.884  0.4814 -0.2272 -0.1319
30442SOL    HW194857   7.578  10.308   0.886  0.2409 -0.5981  0.3683
30442SOL    HW294858   7.651  10.198   0.960  0.8245 -0.8440 -0.5478
30443SOL     OW94859   5.263  10.334   3.592 -0.0185  0.4936 -0.2400
30443SOL    HW194860   5.173  10.304   3.577  0.3207 -1.8743  1.8361
30443SOL    HW294861   5.318  10.265   3.554  1.0358  2.2721 -2.1835
30444SOL     OW94862   5.209   1.422  10.169  0.6580 -0.2119  0.1763
30444SOL    HW194863   5.290   1.370  10.173  0.5395 -0.4176 -0.0939
30444SOL    HW294864   5.177   1.422  10.259  0.8678 -0.2770  0.2530
30445SOL     OW94865  10.621   9.278   2.849 -0.5741 -0.2581 -0.5479
30445SOL    HW194866  10.548   9.340   2.842 -1.2223 -0.9529 -0.1941
30445SOL    HW294867  10.596   9.221   2.922 -0.1424 -1.1099 -1.0470
30446SOL     OW94868   2.624   9.470   7.573  0.0259 -0.5074 -0.1213
30446SOL    HW194869   2.553   9.459   7.637  0.2414 -0.0819  0.1984
30446SOL    HW294870   2.640   9.564   7.570 -0.9657 -0.3597 -1.9071
30447SOL     OW94871   2.832   9.714   2.327 -0.2667 -0.4703  0.1745
30447SOL    HW194872   2.914   9.702   2.280  0.4967  0.5670  1.1812
30447SOL    HW294873   2.770   9.744   2.261  0.2501 -0.9445 -0.5334
30448SOL     OW94874   4.747   4.278   8.381 -0.1368  0.1185  0.1197
30448SOL    HW194875   4.769   4.340   8.311 -1.7849  0.3812 -0.1928
30448SOL    HW294876   4.779   4.194   8.349  0.8778  0.5494 -0.0607
30449SOL     OW94877   0.665   6.701   1.003 -0.0343 -0.0353 -0.0836
30449SOL    HW194878   0.577   6.724   0.973  0.3734  1.1195 -0.4579
30449SOL    HW294879   0.651   6.628   1.063 -1.1202 -0.7029 -1.0999
30450SOL     OW94880   8.264   0.512   0.183 -0.3992 -0.1524 -0.7586
30450SOL    HW194881   8.223   0.503   0.097 -2.4780 -0.7759  0.2260
30450SOL    HW294882   8.228   0.594   0.218 -1.6815 -1.2016  0.5220
30451SOL     OW94883   6.919   6.049   5.946 -0.2869  0.0861 -1.2884
30451SOL    HW194884   6.840   6.036   5.998 -0.1191  0.1340 -1.0232
30451SOL    HW294885   6.912   5.984   5.875 -0.0653 -0.6106 -0.6848
30452SOL     OW94886   5.776   8.918   4.939  0.7940  0.4028 -0.7661
30452SOL    HW194887   5.829   8.984   4.895  0.4808  0.7346 -0.6402
30452SOL    HW294888   5.827   8.894   5.016  1.2902 -0.0958 -1.2341
30453SOL     OW94889   7.913   0.144   6.527  0.3437  0.0903  0.0889
30453SOL    HW194890   7.934   0.054   6.504  0.6638  0.2185 -0.1151
30453SOL    HW294891   7.960   0.160   6.609 -0.7296 -0.3395  0.8065
30454SOL     OW94892   7.328   0.519   3.857  0.2774 -0.2846 -0.4373
30454SOL    HW194893   7.297   0.435   3.824  0.8440 -1.0396  0.8546
30454SOL    HW294894   7.423   0.511   3.860  0.2891  0.0506  0.5476
30455SOL     OW94895   9.766   0.752   0.481 -0.2234  0.9973  0.0959
30455SOL    HW194896   9.738   0.843   0.491  0.1873  1.1242  0.0761
30455SOL    HW294897   9.686   0.706   0.456 -0.8909  0.9869  2.1302
30456SOL     OW94898   9.958   9.786   8.012  0.0643  0.7244 -0.1710
30456SOL    HW194899   9.993   9.716   8.066 -0.2851  0.6250 -0.0676
30456SOL    HW294900   9.875   9.751   7.979 -0.2504  1.1902  0.1072
30457SOL     OW94901   6.387   4.253   4.774  0.6642 -0.0706 -0.2879
30457SOL    HW194902   6.307   4.305   4.784  0.1103 -0.7957 -0.8657
30457SOL    HW294903   6.456   4.307   4.813 -0.1047  0.5602  0.2179
30458SOL     OW94904   8.024   3.557   5.595  0.5133 -0.1993 -0.0260
30458SOL    HW194905   7.969   3.533   5.669  1.1445 -1.2992  0.1032
30458SOL    HW294906   8.059   3.474   5.563 -0.2515  0.1507 -1.9772
30459SOL     OW94907   8.991   7.428   0.303  0.0681  0.3122  0.0312
30459SOL    HW194908   8.934   7.446   0.228  1.6563 -0.5504 -1.4650
30459SOL    HW294909   9.026   7.514   0.327  1.2623  0.3896 -1.7328
30460SOL     OW94910   9.783   5.414   4.540 -1.3575  0.1363 -0.0057
30460SOL    HW194911   9.733   5.469   4.601  0.6205  0.5034  1.3803
30460SOL    HW294912   9.847   5.369   4.596  1.3703  1.4156 -1.9283
30461SOL     OW94913   5.562   5.456   9.763 -0.0511  0.4563 -0.7031
30461SOL    HW194914   5.601   5.513   9.697  0.4998  0.1941 -0.6093
30461SOL    HW294915   5.628   5.451   9.832 -1.0494  1.5799  0.3657
30462SOL     OW94916   5.204   2.718   9.845  0.3044  0.4478 -0.0288
30462SOL    HW194917   5.256   2.753   9.774  0.5323  0.9020  0.3573
30462SOL    HW294918   5.241   2.631   9.862 -2.0648 -1.3363 -2.9162
30463SOL     OW94919  10.790   4.058   2.685 -0.4212  0.5656 -0.4353
30463SOL    HW194920  10.709   4.011   2.670 -0.4814  0.0846  1.2507
30463SOL    HW294921  10.778   4.100   2.770  2.1262 -1.8985  1.3204
30464SOL     OW94922   5.980   4.765   6.135 -0.3656  0.0441  0.1614
30464SOL    HW194923   6.014   4.845   6.176 -0.9247  0.4997 -0.2480
30464SOL    HW294924   5.885   4.775   6.139 -0.5056 -1.3782  1.6174
30465SOL     OW94925  10.647   2.798   5.096 -0.3348 -0.2687 -0.0871
30465SOL    HW194926  10.694   2.871   5.055  1.4334 -1.2401  0.1126
30465SOL    HW294927  10.557   2.828   5.100  0.2655  1.7636 -0.3437
30466SOL     OW94928   2.232   8.724   0.367 -0.0437  0.4353 -0.2980
30466SOL    HW194929   2.303   8.776   0.329  1.9996 -0.3192  2.2467
30466SOL    HW294930   2.257   8.633   0.350 -0.4264  0.1592  0.5705
30467SOL     OW94931   5.648  10.984   2.842 -0.3771 -0.8478  0.6538
30467SOL    HW194932   5.632  10.894   2.870  1.8407 -1.4426  0.2120
30467SOL    HW294933   5.650  10.980   2.746  1.5521 -0.7690  0.6363
30468SOL     OW94934   1.680   6.617   6.825  0.0391  0.4737 -0.0439
30468SOL    HW194935   1.776   6.613   6.831  0.0918  1.2640 -0.2646
30468SOL    HW294936   1.650   6.542   6.875  0.7837  0.1083 -0.1305
30469SOL     OW94937   2.804   8.556   5.020 -0.1684 -0.3986  0.2632
30469SOL    HW194938   2.724   8.511   5.048 -0.1940  0.1475  1.1033
30469SOL    HW294939   2.775   8.646   5.002  0.4374  0.0869  1.6149
30470SOL     OW94940   5.939  10.863   1.042  0.1071  0.5083  0.2258
30470SOL    HW194941   5.959  10.956   1.029 -2.1421  1.2738  1.6758
30470SOL    HW294942   5.930  10.854   1.137  0.6847 -1.3188  0.1464
30471SOL     OW94943   3.832   7.114   6.783  0.3697  0.0100  0.3552
30471SOL    HW194944   3.894   7.169   6.831 -0.4107  0.1783  1.1961
30471SOL    HW294945   3.773   7.176   6.741  0.0081 -0.1789  0.5891
30472SOL     OW94946   7.485   8.505  10.250 -0.0456  0.4029 -0.3690
30472SOL    HW194947   7.430   8.427  10.256  1.0402 -0.3446  0.1481
30472SOL    HW294948   7.471   8.538  10.161 -0.6223 -0.2891 -0.5421
30473SOL     OW94949   5.699   8.793  10.311 -0.3269  0.1985  0.0922
30473SOL    HW194950   5.757   8.807  10.386 -0.5099 -0.5064  0.3642
30473SOL    HW294951   5.614   8.774  10.349 -0.8912  1.7304 -0.3049
30474SOL     OW94952  10.466   9.851   6.150  0.7350  1.0145 -0.2474
30474SOL    HW194953  10.390   9.882   6.200 -1.0347 -0.7158 -1.6912
30474SOL    HW294954  10.539   9.856   6.212 -1.1052  0.0173  2.1804
30475SOL     OW94955   7.690   2.055   0.361  0.5878 -0.9366  0.3222
30475SOL    HW194956   7.707   1.983   0.421  1.7811 -1.0039 -0.0592
30475SOL    HW294957   7.618   2.025   0.306  0.2259 -1.3143  0.9883
30476SOL     OW94958   4.473   7.753   5.222 -0.0753  0.1826  0.2703
30476SOL    HW194959   4.453   7.659   5.226 -1.0368  0.3579 -0.2349
30476SOL    HW294960   4.526   7.769   5.300  1.1075 -1.0131 -0.2599
30477SOL     OW94961   2.246   0.392   4.636  0.4782 -0.2666  0.4644
30477SOL    HW194962   2.319   0.339   4.668  0.1978  0.0530  1.7066
30477SOL    HW294963   2.168   0.346   4.666  0.1903 -0.1523 -0.1048
30478SOL     OW94964   9.132   5.425   7.783 -0.2130 -0.0830  0.4401
30478SOL    HW194965   9.154   5.426   7.690  1.8450 -1.3508  0.8475
30478SOL    HW294966   9.038   5.411   7.786 -0.2520 -0.4383 -1.4417
30479SOL     OW94967   1.116  10.414   1.949  0.2196 -0.1661 -0.6182
30479SOL    HW194968   1.061  10.338   1.969  0.6836 -0.2043  0.5928
30479SOL    HW294969   1.088  10.442   1.862 -1.7171 -0.1995 -0.0536
30480SOL     OW94970  10.491   7.417   3.049  0.1843  0.6649 -0.5508
30480SOL    HW194971  10.544   7.447   3.122 -0.3614  1.8970 -0.6263
30480SOL    HW294972  10.508   7.323   3.043  0.6625  0.6456  0.7956
30481SOL     OW94973   7.148   3.827   7.569 -0.2186  0.5463 -0.2776
30481SOL    HW194974   7.194   3.745   7.556  0.4979  1.1201 -1.5910
30481SOL    HW294975   7.091   3.811   7.644  0.4375 -0.9028 -0.0490
30482SOL     OW94976  10.462  10.110   3.571 -0.1695  0.2034 -0.5785
30482SOL    HW194977  10.531  10.152   3.623 -1.2673  1.2072  0.1282
30482SOL    HW294978  10.431  10.039   3.627 -0.9946  0.9577 -0.0477
30483SOL     OW94979   9.694   6.280   2.216  0.0404  0.3602  0.2523
30483SOL    HW194980   9.610   6.255   2.177 -0.1569 -3.0599  2.4651
30483SOL    HW294981   9.673   6.356   2.271 -1.1702  0.6605 -0.5722
30484SOL     OW94982   1.070   8.765   3.575 -0.6298  0.2611 -0.2486
30484SOL    HW194983   1.148   8.821   3.583  0.4483 -1.0988 -0.7485
30484SOL    HW294984   0.997   8.826   3.566  0.5474  1.5852 -1.2368
30485SOL     OW94985   1.073   2.696   4.401 -0.3759 -0.3953  0.8748
30485SOL    HW194986   1.165   2.675   4.386 -0.0286  1.9371 -0.7681
30485SOL    HW294987   1.075   2.778   4.450 -1.5950 -0.4238  0.9994
30486SOL     OW94988   7.729   4.608   3.092  0.2290 -0.4383 -0.1727
30486SOL    HW194989   7.764   4.661   3.021  0.2598 -0.8946 -0.5060
30486SOL    HW294990   7.781   4.631   3.169 -1.3651  1.8579  0.3238
30487SOL     OW94991   1.681   6.881   6.742  0.1829  0.5187 -0.5287
30487SOL    HW194992   1.674   6.797   6.786 -0.9218 -0.1132 -1.8479
30487SOL    HW294993   1.599   6.927   6.763 -0.3735  0.1982 -1.8805
30488SOL     OW94994   1.502   1.180   3.373 -0.0301 -0.3370  0.0221
30488SOL    HW194995   1.418   1.208   3.338 -0.3574 -1.6694 -0.3306
30488SOL    HW294996   1.482   1.145   3.460  0.6145  1.9078  1.1614
30489SOL     OW94997   5.833   7.338   2.919 -0.1912  0.1274 -0.2297
30489SOL    HW194998   5.923   7.327   2.947 -0.1662  0.9170  0.0427
30489SOL    HW294999   5.806   7.422   2.957 -1.6318 -0.9532  1.2401
30490SOL     OW95000   4.273   0.516   9.548  0.0775 -0.4960  0.0847
30490SOL    HW195001   4.321   0.434   9.560  0.2348 -0.4051  0.0793
30490SOL    HW295002   4.294   0.568   9.626 -0.8481 -0.8706  0.5922
30491SOL     OW95003   2.429   4.965   0.012  0.1009  0.3978 -0.6367
30491SOL    HW195004   2.473   5.048   0.031 -1.0748  0.4633  2.2790
30491SOL    HW295005   2.495   4.898   0.025  0.1353  0.6797  0.8015
30492SOL     OW95006  10.144   3.371   3.818 -0.2550 -0.5175  0.2148
30492SOL    HW195007  10.209   3.392   3.751 -0.4672 -1.3585 -0.2752
30492SOL    HW295008  10.196   3.350   3.896  0.2018 -2.9640 -0.6649
30493SOL     OW95009   8.819   4.435   4.244  0.0466  0.0322  0.3057
30493SOL    HW195010   8.766   4.386   4.180 -0.3004 -1.9186  1.9686
30493SOL    HW295011   8.791   4.526   4.234 -1.6667 -0.5629 -0.7266
30494SOL     OW95012   1.833   4.938   5.623  0.0236  0.1252  0.1298
30494SOL    HW195013   1.771   4.943   5.551  1.9138 -0.2855 -1.6084
30494SOL    HW295014   1.854   5.029   5.644  2.0143  0.2894 -2.2202
30495SOL     OW95015   3.045   6.943  10.602 -0.0615  0.2141  0.5211
30495SOL    HW195016   3.017   6.858  10.635 -0.9997  1.1451  2.2356
30495SOL    HW295017   3.136   6.929  10.575  0.4801 -0.8511  2.6998
30496SOL     OW95018   3.322   4.319   6.343 -0.1505  0.1313 -0.3291
30496SOL    HW195019   3.244   4.300   6.291 -0.6305 -0.4012  0.5589
30496SOL    HW295020   3.290   4.321   6.433  1.2493 -2.5390  0.3210
30497SOL     OW95021   5.184   2.255   9.684  0.4148 -0.7030 -0.2077
30497SOL    HW195022   5.245   2.307   9.630 -0.7240  0.6447 -0.2531
30497SOL    HW295023   5.230   2.246   9.768  0.7957  0.0885 -0.3144
30498SOL     OW95024   4.796   6.741   6.954  0.3619 -0.7143 -0.1226
30498SOL    HW195025   4.837   6.818   6.912 -0.3849 -0.2148  0.0477
30498SOL    HW295026   4.858   6.716   7.022  1.1990 -1.0277 -0.9711
30499SOL     OW95027   8.593   0.650   4.388  0.0917  0.1495  0.3242
30499SOL    HW195028   8.547   0.667   4.306 -1.5059 -3.2943  0.3358
30499SOL    HW295029   8.530   0.673   4.456  1.0991  2.1758  0.6331
30500SOL     OW95030   9.726   1.145   8.704 -0.7056  0.3763 -0.1793
30500SOL    HW195031   9.760   1.171   8.618  1.2562 -2.4444 -0.4250
30500SOL    HW295032   9.801   1.104   8.748 -2.4391 -1.0934  1.6092
30501SOL     OW95033   9.425   7.707   2.482 -0.1139  0.5100  0.1053
30501SOL    HW195034   9.352   7.761   2.453 -1.2470 -1.2749 -0.5321
30501SOL    HW295035   9.397   7.672   2.566  0.8839  1.3789  0.8263
30502SOL     OW95036   0.862   0.037   1.572 -0.1494  0.0930 -0.7417
30502SOL    HW195037   0.950   0.023   1.608  0.4372  1.5758 -1.5306
30502SOL    HW295038   0.823   0.103   1.629  0.3363  1.5518 -2.0256
30503SOL     OW95039   0.493  10.570   3.874 -1.0770  0.2459 -0.0545
30503SOL    HW195040   0.583  10.575   3.906 -1.0289 -0.0556 -0.1322
30503SOL    HW295041   0.440  10.611   3.943 -1.0159 -0.7224  0.5900
30504SOL     OW95042   3.560  10.815   0.787  0.0536 -0.0486  0.3467
30504SOL    HW195043   3.472  10.812   0.825 -0.5989 -0.9151 -1.1560
30504SOL    HW295044   3.577  10.908   0.775 -0.8846  0.1134  0.1564
30505SOL     OW95045   0.787   6.656   0.371  0.2654  0.0122  0.7281
30505SOL    HW195046   0.697   6.635   0.345  0.8894  0.5752 -2.2424
30505SOL    HW295047   0.778   6.735   0.424 -0.9795  0.3777  0.0203
30506SOL     OW95048   9.874   4.804   5.049  0.5071 -0.2639 -0.1892
30506SOL    HW195049   9.923   4.879   5.082 -0.5188  0.1431  0.4577
30506SOL    HW295050   9.867   4.819   4.955 -1.5895  1.6529  0.1834
30507SOL     OW95051   3.176   4.234   5.396  0.0685 -0.0554 -0.5272
30507SOL    HW195052   3.186   4.229   5.301 -0.9329 -1.0645 -0.5971
30507SOL    HW295053   3.210   4.151   5.429 -0.7467 -0.2350 -0.1191
30508SOL     OW95054   4.409   1.601   6.531 -0.3757 -0.0171 -0.1807
30508SOL    HW195055   4.471   1.626   6.463  0.5705 -2.0065 -0.1225
30508SOL    HW295056   4.450   1.629   6.613  0.6973 -1.6730 -0.1090
30509SOL     OW95057   1.522  10.324   1.104 -0.4332  0.1558 -0.0136
30509SOL    HW195058   1.575  10.401   1.127  0.0691 -0.6690  1.7722
30509SOL    HW295059   1.439  10.338   1.149  0.4182 -1.2983  2.1719
30510SOL     OW95060   1.585  11.080   0.282  0.9978  0.4951  0.6649
30510SOL    HW195061   1.578  11.018   0.355 -0.5022 -0.9937 -0.6698
30510SOL    HW295062   1.679  11.095   0.273  1.3574 -1.0675  1.4691
30511SOL     OW95063   3.374   5.970   5.869  0.4817  0.0031 -0.2653
30511SOL    HW195064   3.457   5.927   5.852  0.4472 -0.2553  0.2075
30511SOL    HW295065   3.384   6.009   5.956  0.0259 -0.2414 -0.0990
30512SOL     OW95066  10.150   8.723   3.218 -0.2052  0.2791 -0.1395
30512SOL    HW195067  10.222   8.771   3.176  0.2050 -0.8879 -0.8352
30512SOL    HW295068  10.139   8.764   3.303  2.7241 -0.8300  0.8741
30513SOL     OW95069  10.224   8.581   1.239  0.2702  0.6253 -0.1399
30513SOL    HW195070  10.236   8.597   1.146  0.5261 -0.1088 -0.2447
30513SOL    HW295071  10.305   8.537   1.266 -0.4223 -0.5503  0.0855
30514SOL     OW95072   0.674   4.241   2.408 -0.2251  0.1152  0.4728
30514SOL    HW195073   0.608   4.232   2.340 -1.3751 -0.3285  1.6092
30514SOL    HW295074   0.636   4.300   2.473  1.2500  1.3422  0.2948
30515SOL     OW95075   2.185   5.473   9.595 -0.0849  0.0098 -0.6382
30515SOL    HW195076   2.165   5.550   9.542  0.0310 -0.3175 -1.1710
30515SOL    HW295077   2.114   5.411   9.576 -1.3394  0.7369  1.3913
30516SOL     OW95078   2.523   1.251   2.183  0.1846  0.0370 -0.5597
30516SOL    HW195079   2.431   1.272   2.167  0.0892 -1.1897 -1.8359
30516SOL    HW295080   2.524   1.216   2.272 -0.4380  0.7868 -0.2431
30517SOL     OW95081   4.409  10.508   8.585 -0.2891  0.2422 -0.4633
30517SOL    HW195082   4.487  10.552   8.552  0.5086  1.8902  3.1026
30517SOL    HW295083   4.337  10.566   8.561  0.0128  0.4296 -0.9164
30518SOL     OW95084   0.955   9.151   8.029 -0.4572  0.5342 -0.0637
30518SOL    HW195085   1.017   9.222   8.046 -1.3283  1.0027  1.2854
30518SOL    HW295086   1.008   9.083   7.987  1.4099  0.1712  2.6395
30519SOL     OW95087   6.366   5.714  10.880 -0.2292 -0.0226 -0.2589
30519SOL    HW195088   6.337   5.673  10.799 -1.8987  0.6162 -0.0187
30519SOL    HW295089   6.290   5.762  10.911  0.7126  0.6307  1.1326
30520SOL     OW95090   3.042   0.655   1.117 -0.1759  0.7175  0.2392
30520SOL    HW195091   3.098   0.590   1.075 -1.6196 -0.5285  0.1800
30520SOL    HW295092   3.100   0.699   1.180  0.5865 -1.4604  1.1647
30521SOL     OW95093   3.668   7.207   2.668  0.5594 -0.1649  0.0986
30521SOL    HW195094   3.667   7.272   2.598  0.9041 -0.2087  0.0489
30521SOL    HW295095   3.608   7.241   2.734  0.2186 -0.1296 -0.2244
30522SOL     OW95096   5.157   2.442   1.844  0.7060  0.0134 -0.2536
30522SOL    HW195097   5.217   2.412   1.912  2.1904 -0.4905 -1.7059
30522SOL    HW295098   5.204   2.512   1.799 -1.5503  2.6610  1.2186
30523SOL     OW95099   0.085   8.393   2.236  0.6128  0.4532  0.0447
30523SOL    HW195100   0.046   8.413   2.150  0.9145 -1.1311 -0.4982
30523SOL    HW295101   0.179   8.387   2.219  0.5977 -0.7322  0.2763
30524SOL     OW95102   1.990   1.226   5.976  0.2807  0.0674 -0.1445
30524SOL    HW195103   1.945   1.308   5.996  0.4706  0.3761 -0.9319
30524SOL    HW295104   2.080   1.241   6.005 -0.3867 -1.1369  2.9868
30525SOL     OW95105   9.975   3.534   2.590 -0.3270  0.5384  0.3947
30525SOL    HW195106   9.965   3.507   2.681  0.7191  0.1950  0.4161
30525SOL    HW295107   9.916   3.610   2.581 -0.4351  0.5817  1.3479
30526SOL     OW95108   5.839   8.863   3.259  0.4787 -0.6417  0.5833
30526SOL    HW195109   5.881   8.872   3.345  0.3982  2.1819  0.4087
30526SOL    HW295110   5.868   8.939   3.210  0.2708 -2.0309 -1.8474
30527SOL     OW95111  10.453   1.289   3.622  0.0913  0.3058  0.6788
30527SOL    HW195112  10.428   1.363   3.567 -0.9554  1.9125  3.1527
30527SOL    HW295113  10.382   1.225   3.610 -0.4847  0.9336  0.6968
30528SOL     OW95114   7.099   9.990   0.379  0.5367  0.2939  0.3241
30528SOL    HW195115   7.164   9.920   0.380  0.8667  0.5980  0.1156
30528SOL    HW295116   7.056   9.981   0.293  0.8809  0.6240  0.1161
30529SOL     OW95117   7.276   3.389  10.632  0.0603 -0.2029  0.0961
30529SOL    HW195118   7.210   3.321  10.638 -0.0752 -0.1254 -0.4632
30529SOL    HW295119   7.331   3.363  10.557  2.0059 -1.4362  1.8308
30530SOL     OW95120   5.071   0.951   7.040 -0.2007  0.2037 -0.0831
30530SOL    HW195121   5.089   0.961   7.133 -1.3750 -1.2439  0.3356
30530SOL    HW295122   5.157   0.955   6.998  0.3135  1.1915  1.0002
30531SOL     OW95123   6.095   5.147   8.996  0.3984  0.2390  0.2959
30531SOL    HW195124   6.099   5.120   8.904  0.7154  1.3266 -0.0277
30531SOL    HW295125   6.179   5.190   9.012  2.1329 -3.4734  2.2961
30532SOL     OW95126   8.971   5.194   7.554 -0.3798 -0.2464  0.1487
30532SOL    HW195127   9.038   5.139   7.596 -1.1870 -0.7025  0.8719
30532SOL    HW295128   8.890   5.170   7.598 -0.8959  0.8752 -0.1746
30533SOL     OW95129   6.320   0.431   5.132  0.4648 -0.3838 -0.4321
30533SOL    HW195130   6.247   0.370   5.125  0.5950 -0.5820 -0.0668
30533SOL    HW295131   6.344   0.450   5.041 -0.7247  0.5100 -0.5931
30534SOL     OW95132   5.004   6.965   3.917 -0.4380  0.3014  0.2166
30534SOL    HW195133   5.035   7.006   3.997 -0.1464  1.3607 -0.4253
30534SOL    HW295134   4.928   7.017   3.890 -0.7679 -0.2713 -0.0012
30535SOL     OW95135   5.592   5.199   6.136 -0.3085  0.1060 -0.0869
30535SOL    HW195136   5.569   5.266   6.072  0.8185  1.2308  0.6487
30535SOL    HW295137   5.641   5.133   6.086 -1.4311 -0.2050 -0.8110
30536SOL     OW95138   2.561  10.404   7.402 -0.2318  0.4130  0.0108
30536SOL    HW195139   2.635  10.441   7.451 -0.3817 -0.6895  1.1417
30536SOL    HW295140   2.600  10.335   7.348 -0.4104 -0.1749  0.6136
30537SOL     OW95141   3.630   0.196   7.210  0.0071  0.1382  0.7224
30537SOL    HW195142   3.628   0.101   7.217  2.7230 -0.0401  0.2008
30537SOL    HW295143   3.618   0.228   7.300 -3.1748 -0.5264  0.6311
30538SOL     OW95144   9.927   6.352   3.446 -0.3629  0.6042 -0.6982
30538SOL    HW195145   9.950   6.337   3.538  2.1334  1.1491 -1.1454
30538SOL    HW295146   9.927   6.265   3.406 -0.6596  0.4427 -0.3513
30539SOL     OW95147   4.562   0.931   9.213 -0.1637 -0.4615  0.4578
30539SOL    HW195148   4.625   0.902   9.279  0.0746 -1.0498 -0.0119
30539SOL    HW295149   4.521   0.850   9.183  0.6204 -0.3525 -0.9925
30540SOL     OW95150   0.228   3.062   7.415  0.4907 -0.0282 -0.5527
30540SOL    HW195151   0.218   3.146   7.371  0.7057 -1.3488 -3.2983
30540SOL    HW295152   0.147   3.051   7.466  1.6710  3.0694  2.3528
30541SOL     OW95153  10.148   4.131   2.182  0.7795  0.6973 -0.0721
30541SOL    HW195154  10.129   4.103   2.271 -0.7137  1.5825 -0.0789
30541SOL    HW295155  10.158   4.049   2.133  2.1722  0.2036  0.9887
30542SOL     OW95156   1.480   6.984   1.131 -0.0762  0.7169 -0.0970
30542SOL    HW195157   1.391   7.007   1.158 -0.7558  0.1401 -1.7630
30542SOL    HW295158   1.470   6.908   1.074  1.5279  0.4390 -0.0691
30543SOL     OW95159   8.401   0.552   5.093 -0.2248  0.1051  0.4106
30543SOL    HW195160   8.327   0.593   5.139 -0.3614 -0.2455  0.5062
30543SOL    HW295161   8.473   0.614   5.104 -0.0529 -0.2757  1.7206
30544SOL     OW95162   7.725   0.706   1.818  0.0151 -0.6472  0.2868
30544SOL    HW195163   7.649   0.762   1.832 -0.9165 -1.7794 -0.0584
30544SOL    HW295164   7.796   0.766   1.794 -0.5455  0.5074  1.3961
30545SOL     OW95165   6.141   8.568   8.823  0.2948 -0.8336 -0.4330
30545SOL    HW195166   6.091   8.647   8.803 -0.9037 -2.1096 -2.9122
30545SOL    HW295167   6.233   8.595   8.820 -0.0966  0.4537 -1.2637
30546SOL     OW95168   8.363   6.047   7.643  0.0461 -0.3373 -0.3225
30546SOL    HW195169   8.352   6.141   7.658 -2.3157 -0.5683 -0.1147
30546SOL    HW295170   8.425   6.041   7.570  1.5130  1.2909  0.7134
30547SOL     OW95171   0.332   3.371   2.009 -0.3094  0.2526  0.1200
30547SOL    HW195172   0.401   3.424   1.971 -1.3152  2.3442  1.0385
30547SOL    HW295173   0.267   3.362   1.939 -0.4844  0.9262  0.1889
30548SOL     OW95174   3.344  10.132   2.461 -0.1894 -0.0280 -0.4129
30548SOL    HW195175   3.330  10.196   2.392  0.5669  0.1921 -0.3731
30548SOL    HW295176   3.393  10.180   2.528  0.3401 -0.6323 -0.3600
30549SOL     OW95177   6.702   0.260   9.858  0.0249 -0.1540 -0.0335
30549SOL    HW195178   6.710   0.355   9.861  1.3063 -0.2455 -0.2395
30549SOL    HW295179   6.718   0.236   9.767 -1.7035 -0.4807 -0.2958
30550SOL     OW95180   0.130  10.508   4.696  0.2255 -0.4403  0.2029
30550SOL    HW195181   0.134  10.468   4.609  2.4035  1.0701 -0.4585
30550SOL    HW295182   0.195  10.578   4.694 -1.7756  1.6354  2.0896
30551SOL     OW95183   2.576   2.833   3.764 -0.0991  0.3373 -0.0215
30551SOL    HW195184   2.615   2.916   3.737 -1.6498  1.1522  0.1279
30551SOL    HW295185   2.498   2.824   3.709 -0.9830 -0.0700  1.2611
30552SOL     OW95186   5.733   6.675   3.119  0.2193  0.4657 -0.3783
30552SOL    HW195187   5.698   6.586   3.122 -0.9898  0.9067 -0.8873
30552SOL    HW295188   5.695   6.713   3.040  0.4509  1.5519  0.0130
30553SOL     OW95189  11.007   8.158   9.751 -0.3305  0.2621 -0.0332
30553SOL    HW195190  10.972   8.069   9.755 -0.7290  0.3747 -0.9140
30553SOL    HW295191  11.064   8.164   9.828 -1.3896 -0.2822  0.8323
30554SOL     OW95192   6.169   5.476   8.405  0.2565  0.0152  0.5331
30554SOL    HW195193   6.216   5.557   8.423  1.2811 -0.9093  2.2696
30554SOL    HW295194   6.084   5.505   8.371  1.2761  1.7574 -0.6983
30555SOL     OW95195   2.046   8.602   1.839 -0.5502 -0.5562  0.4481
30555SOL    HW195196   1.986   8.671   1.810 -0.4688 -0.5863  0.2028
30555SOL    HW295197   2.084   8.635   1.920 -0.9525 -0.5678  0.6440
30556SOL     OW95198   0.959  10.874   9.228  0.3841  0.2024  0.1391
30556SOL    HW195199   0.916  10.957   9.209  1.4826  1.4302  2.6356
30556SOL    HW295200   1.041  10.898   9.270  0.4218 -2.1335  1.5720
30557SOL     OW95201   3.818   0.161   1.449  0.5386 -0.5251  0.0830
30557SOL    HW195202   3.827   0.199   1.362 -1.1035  2.0606  0.8958
30557SOL    HW295203   3.860   0.225   1.507 -1.6910 -0.1829  1.4644
30558SOL     OW95204  10.210   5.357   4.156  0.4557  0.2014  0.2711
30558SOL    HW195205  10.292   5.335   4.114  0.6006 -0.9437  1.1211
30558SOL    HW295206  10.142   5.324   4.097  0.6453 -0.6430  0.5213
30559SOL     OW95207   8.610   9.082   4.364  0.4468  0.1137  0.4687
30559SOL    HW195208   8.702   9.101   4.383  0.8097 -1.5197  0.5138
30559SOL    HW295209   8.561   9.149   4.412  1.6163  1.9490 -0.7542
30560SOL     OW95210  11.066   0.692   6.598  0.1399 -0.1491 -0.0842
30560SOL    HW195211  11.123   0.768   6.587 -0.5376  0.6887  1.7484
30560SOL    HW295212  11.011   0.692   6.519  0.0455  1.3761 -0.0556
30561SOL     OW95213   4.926   1.665  10.889  0.4371 -0.4972 -0.0736
30561SOL    HW195214   4.980   1.666  10.968  0.4238  2.8251  0.0302
30561SOL    HW295215   4.859   1.599  10.907  1.9373 -1.7174  1.5299
30562SOL     OW95216   2.760   1.603   9.958  0.1132  0.3506 -0.5922
30562SOL    HW195217   2.817   1.572   9.888  1.2962  0.3187  0.3331
30562SOL    HW295218   2.821   1.631  10.027 -1.0041 -0.2013  0.6722
30563SOL     OW95219   7.689   8.928  10.577 -0.1557 -0.4084 -0.4091
30563SOL    HW195220   7.600   8.908  10.548  0.1436 -0.8191 -1.0908
30563SOL    HW295221   7.742   8.855  10.544  0.6495  0.5111 -1.2291
30564SOL     OW95222   8.580   0.507   7.500  0.6662 -0.6018  0.5614
30564SOL    HW195223   8.595   0.548   7.584 -0.4497 -0.5755  0.7667
30564SOL    HW295224   8.637   0.430   7.500  0.5394 -0.7018  1.4113
30565SOL     OW95225   4.972   0.007   6.799 -1.3691 -0.1158 -0.0542
30565SOL    HW195226   4.931  -0.015   6.883 -0.7718 -0.6884  0.0988
30565SOL    HW295227   5.036   0.075   6.821 -0.5638 -0.9049  0.1327
30566SOL     OW95228   7.880   4.139   2.728 -0.2754 -0.1643  0.3782
30566SOL    HW195229   7.913   4.056   2.692 -0.8399 -0.8619  1.4213
30566SOL    HW295230   7.800   4.156   2.679 -1.5989 -1.6427  1.8838
30567SOL     OW95231   0.877   4.538   6.742  0.4656 -0.1156  0.0005
30567SOL    HW195232   0.821   4.615   6.752  2.3556  1.1586  1.3857
30567SOL    HW295233   0.897   4.535   6.648 -0.8221  0.1893 -0.2966
30568SOL     OW95234   1.114   1.175   1.757  0.1635 -0.2713  0.0803
30568SOL    HW195235   1.163   1.204   1.834  1.0898 -2.3497  0.3473
30568SOL    HW295236   1.057   1.249   1.735  2.7878  1.9480  0.2511
30569SOL     OW95237   6.682   6.176  10.169 -0.1977 -0.0749 -0.4928
30569SOL    HW195238   6.710   6.251  10.221  1.3600 -0.9053 -0.0447
30569SOL    HW295239   6.677   6.209  10.079  1.2834  0.3957 -0.4329
30570SOL     OW95240   7.061   5.620   9.564 -0.0128  0.6107 -0.0998
30570SOL    HW195241   7.151   5.604   9.592  0.0293  1.1537  0.0925
30570SOL    HW295242   7.071   5.665   9.480 -0.1398 -1.5700 -1.3640
30571SOL     OW95243   2.409   6.278   2.588  0.3047  0.0282  0.7649
30571SOL    HW195244   2.431   6.218   2.516 -0.2094 -1.4064  1.7711
30571SOL    HW295245   2.320   6.307   2.568 -0.6309 -1.9500  1.8099
30572SOL     OW95246   7.618   3.838   3.620 -0.0173 -0.1058 -0.6873
30572SOL    HW195247   7.614   3.906   3.552 -0.0716 -0.7171 -1.3049
30572SOL    HW295248   7.704   3.799   3.609 -0.7413 -1.4924 -1.6866
30573SOL     OW95249   8.188   3.085   9.368  0.5060 -0.2765  0.0147
30573SOL    HW195250   8.188   3.179   9.386 -0.6460 -0.5042  1.4515
30573SOL    HW295251   8.210   3.078   9.275  1.5268  1.3413  0.0940
30574SOL     OW95252   3.875   1.841   1.290 -0.2160 -0.0314 -0.2221
30574SOL    HW195253   3.957   1.830   1.338  0.5285 -1.5602 -1.7014
30574SOL    HW295254   3.812   1.785   1.336  0.2881 -0.8986 -0.5655
30575SOL     OW95255   4.114   0.647   9.394  0.1545  1.1222 -0.0186
30575SOL    HW195256   4.174   0.608   9.457 -2.1768  0.9666  2.2783
30575SOL    HW295257   4.139   0.739   9.392 -0.0112  1.2430  1.6100
30576SOL     OW95258   2.515   8.449   8.642  0.2905  0.3314  0.3170
30576SOL    HW195259   2.433   8.413   8.610  0.3986  0.4203 -0.0634
30576SOL    HW295260   2.491   8.496   8.722 -0.0766  0.6148  0.0419
30577SOL     OW95261   1.762   7.081   1.615 -0.5044  0.4470 -0.4849
30577SOL    HW195262   1.834   7.037   1.660  0.5880  0.4798 -2.1315
30577SOL    HW295263   1.784   7.174   1.620 -1.6377  0.6834  0.9747
30578SOL     OW95264   0.501  10.818   4.054  0.0455  0.6276 -0.3582
30578SOL    HW195265   0.580  10.801   4.105  0.6853 -1.7184 -2.0142
30578SOL    HW295266   0.442  10.860   4.117  1.2735 -0.8903  1.9526
30579SOL     OW95267   2.691   6.635  10.214 -0.3444 -0.2888  0.0115
30579SOL    HW195268   2.679   6.676  10.300  0.1754 -0.4725  0.1747
30579SOL    HW295269   2.612   6.582  10.203 -0.2513 -0.5509  0.5426
30580SOL     OW95270   6.358   0.648   0.660 -0.2856 -0.7386 -0.3503
30580SOL    HW195271   6.400   0.586   0.599  1.0083 -0.0002 -0.2564
30580SOL    HW295272   6.321   0.716   0.604  0.9015 -0.0616 -0.3532
30581SOL     OW95273   6.772   0.069   2.702 -0.3215 -0.1828 -0.4533
30581SOL    HW195274   6.799  -0.021   2.718 -1.2125 -0.5688 -1.0461
30581SOL    HW295275   6.738   0.099   2.786 -1.0208 -0.7746 -0.5112
30582SOL     OW95276   8.389   6.029   4.475 -0.2465 -0.1408  0.0520
30582SOL    HW195277   8.433   5.974   4.539 -2.1359 -0.8746  0.7901
30582SOL    HW295278   8.316   5.976   4.443 -0.8542  1.1571 -0.8128
30583SOL     OW95279  10.838   6.646  10.665 -0.4096 -0.8700  0.1520
30583SOL    HW195280  10.894   6.665  10.740 -0.5172 -0.3158  0.1011
30583SOL    HW295281  10.768   6.592  10.701 -0.1956 -1.0157  0.3505
30584SOL     OW95282   2.048  10.466   2.506  0.8201  0.1060 -0.5650
30584SOL    HW195283   2.044  10.371   2.515 -0.3396  0.1641 -0.2813
30584SOL    HW295284   1.985  10.486   2.437  0.6522  0.7172 -0.2405
30585SOL     OW95285   0.033   1.966   0.864 -0.2229  0.0632 -0.1005
30585SOL    HW195286  -0.018   2.025   0.808  0.1142  0.0527 -0.4201
30585SOL    HW295287   0.121   1.967   0.826 -0.2922 -0.8952 -0.2956
30586SOL     OW95288   2.035   7.054   4.256 -0.3620  0.3877 -0.0322
30586SOL    HW195289   1.988   7.004   4.323  1.5169 -3.0682 -1.0495
30586SOL    HW295290   2.105   7.098   4.305 -1.1406  0.8307  0.7090
30587SOL     OW95291   9.794   1.426  10.269 -0.2533 -0.3905  0.3573
30587SOL    HW195292   9.864   1.361  10.259  1.1046  0.7845  1.6435
30587SOL    HW295293   9.830   1.490  10.331 -0.7756  2.5718 -2.1288
30588SOL     OW95294   8.591   8.086   7.147 -0.5372 -0.1675 -0.6051
30588SOL    HW195295   8.634   8.171   7.161  0.9996 -0.8695 -0.8224
30588SOL    HW295296   8.651   8.022   7.186 -0.7008 -1.3289 -2.1636
30589SOL     OW95297   7.125   5.221   8.282  0.1158 -0.5937 -0.2336
30589SOL    HW195298   7.146   5.314   8.276 -1.6046 -0.0912  0.8713
30589SOL    HW295299   7.126   5.190   8.192 -0.3690  0.7618 -0.7235
30590SOL     OW95300   0.637   3.007   8.371 -0.6571 -0.6565 -0.1787
30590SOL    HW195301   0.601   3.031   8.285 -0.9686 -1.8652 -0.3977
30590SOL    HW295302   0.565   2.961   8.415 -0.4643 -0.1390  0.7015
30591SOL     OW95303   3.797   4.767   7.535  0.1575 -0.5040  0.0598
30591SOL    HW195304   3.745   4.697   7.497 -0.5062 -0.3320  0.6273
30591SOL    HW295305   3.888   4.747   7.510  0.0879 -2.0331  0.9393
30592SOL     OW95306   3.771  10.791   6.903 -0.2232 -0.2745 -0.0662
30592SOL    HW195307   3.747  10.728   6.835 -1.0257  0.2941 -0.3102
30592SOL    HW295308   3.808  10.736   6.973 -2.0434 -1.1745  0.2552
30593SOL     OW95309   0.789   8.774   3.012 -0.0869  0.0122 -0.0565
30593SOL    HW195310   0.720   8.765   2.946 -1.2666 -0.6684  1.2125
30593SOL    HW295311   0.830   8.688   3.016 -0.3401 -0.0876  0.4324
30594SOL     OW95312   5.728  10.494   4.742 -0.0609  0.1854 -0.5591
30594SOL    HW195313   5.815  10.510   4.777  0.3031 -0.9213 -0.9236
30594SOL    HW295314   5.742  10.444   4.662 -1.0589 -0.9396 -0.0692
30595SOL     OW95315   6.893   1.480   1.958 -0.0726 -0.6150 -0.4860
30595SOL    HW195316   6.986   1.466   1.978  0.0881  1.3940  0.3863
30595SOL    HW295317   6.848   1.467   2.042 -0.5947 -1.5986 -0.9091
30596SOL     OW95318   4.891   7.686   3.284 -0.0012  0.1674  0.0869
30596SOL    HW195319   4.859   7.600   3.307  0.7763 -0.2706 -0.4169
30596SOL    HW295320   4.825   7.747   3.318 -1.8071 -0.7266 -1.6300
30597SOL     OW95321  10.871   3.831  11.051  0.0774  0.1676 -0.4702
30597SOL    HW195322  10.924   3.908  11.073  1.2434 -0.4127 -1.0911
30597SOL    HW295323  10.817   3.859  10.977 -1.7212  1.2518  1.1971
30598SOL     OW95324   6.098   8.080   8.707 -0.9977 -1.1705  0.5901
30598SOL    HW195325   6.140   8.022   8.644 -0.0693 -0.8790  0.9257
30598SOL    HW295326   6.104   8.167   8.667  1.2364 -0.6766  1.8287
30599SOL     OW95327   6.354   8.249   4.707 -0.6689  0.2820  0.4385
30599SOL    HW195328   6.406   8.201   4.642  0.1424  1.9552 -0.2035
30599SOL    HW295329   6.390   8.338   4.705 -1.4320  0.6730  2.3251
30600SOL     OW95330   5.973   6.797  10.361 -0.3693 -0.1033 -0.6160
30600SOL    HW195331   5.965   6.805  10.266 -0.0762 -0.7894 -0.7089
30600SOL    HW295332   6.054   6.748  10.375  0.3079  1.1677  0.0521
30601SOL     OW95333  10.504   3.982   1.034  0.5285 -0.0528 -0.0210
30601SOL    HW195334  10.564   4.034   0.981 -0.9562  0.8628 -0.8842
30601SOL    HW295335  10.509   4.019   1.122  2.2695 -0.9341  0.2859
30602SOL     OW95336   3.162  10.182   9.106 -0.7026 -0.4026 -0.1666
30602SOL    HW195337   3.093  10.117   9.116 -2.6866  1.3917 -1.2982
30602SOL    HW295338   3.121  10.253   9.056  1.5821  1.3476  0.2686
30603SOL     OW95339   1.572  10.113   8.601 -0.2750  0.2135  0.2400
30603SOL    HW195340   1.660  10.077   8.591 -0.2294  0.2207  0.6180
30603SOL    HW295341   1.553  10.153   8.516  1.1331  2.5067  0.9222
30604SOL     OW95342   7.522   9.424   0.069 -0.2274  0.4097 -0.0029
30604SOL    HW195343   7.443   9.464   0.031 -0.3805  0.7431  0.6559
30604SOL    HW295344   7.489   9.357   0.129  0.0245 -0.6406 -0.9840
30605SOL     OW95345   8.289   7.647   9.602 -0.3054 -0.0526 -0.2689
30605SOL    HW195346   8.348   7.704   9.651 -0.4281 -1.1035  1.1628
30605SOL    HW295347   8.331   7.561   9.606 -1.2691 -0.5348 -0.3833
30606SOL     OW95348   1.962   4.847   1.963 -0.2459  0.5328  0.3345
30606SOL    HW195349   1.987   4.859   2.054 -0.0858  0.8273  0.2555
30606SOL    HW295350   1.987   4.929   1.921  0.4327  0.0990 -0.1382
30607SOL     OW95351   1.708   1.536  10.010 -0.0349 -0.1419 -0.3449
30607SOL    HW195352   1.683   1.524   9.919  0.5283 -1.6512 -0.3436
30607SOL    HW295353   1.763   1.614  10.010  0.2750 -0.3440 -1.3780
30608SOL     OW95354   8.949   3.134   5.506 -0.1533 -0.0813  0.2486
30608SOL    HW195355   8.954   3.227   5.486  0.4364 -0.4583 -1.6469
30608SOL    HW295356   9.032   3.098   5.472 -0.1246 -1.2237  1.4404
30609SOL     OW95357   3.882   7.648   9.631 -0.1970 -0.1295  0.5990
30609SOL    HW195358   3.911   7.557   9.639 -1.6555 -0.5177  1.9455
30609SOL    HW295359   3.931   7.682   9.556  2.0777 -1.3349  1.4344
30610SOL     OW95360   4.715  10.198   8.760  0.2782 -0.1839  0.3385
30610SOL    HW195361   4.636  10.203   8.707  1.0469 -0.8302 -0.9065
30610SOL    HW295362   4.744  10.107   8.753  1.1196  0.0334  0.7903
30611SOL     OW95363   3.950   9.004   1.628  0.4069  0.6457 -0.5936
30611SOL    HW195364   3.993   8.933   1.582 -0.1533  1.1898 -2.0388
30611SOL    HW295365   4.008   9.025   1.702  1.6119  0.0927 -1.3590
30612SOL     OW95366   7.143   0.039   3.394 -0.5849  0.5524 -0.4799
30612SOL    HW195367   7.169   0.119   3.440  0.1935  1.1436 -1.8840
30612SOL    HW295368   7.214   0.022   3.332 -0.6865 -1.2980 -0.1641
30613SOL     OW95369   9.524   3.525  10.965 -0.2724  0.3136  0.1392
30613SOL    HW195370   9.446   3.494  10.919 -1.5782  1.4063  1.5148
30613SOL    HW295371   9.583   3.554  10.895 -1.5595  0.5203 -0.9072
30614SOL     OW95372   6.640   0.505   8.113 -0.0867 -0.5927  0.6174
30614SOL    HW195373   6.548   0.481   8.103 -0.4605  1.1125 -0.5353
30614SOL    HW295374   6.639   0.600   8.124  1.6035 -0.3158 -1.0237
30615SOL     OW95375   1.708   1.314   7.863 -0.0366 -0.0489 -0.2111
30615SOL    HW195376   1.673   1.353   7.783  0.6173 -1.1417 -1.0558
30615SOL    HW295377   1.631   1.278   7.907 -0.5463  1.4889  0.2185
30616SOL     OW95378   7.704   0.589   4.400 -0.5708  0.5172 -0.4419
30616SOL    HW195379   7.626   0.535   4.388  1.0093 -1.3882 -3.6608
30616SOL    HW295380   7.766   0.532   4.445  0.4868  0.2038 -2.1954
30617SOL     OW95381   6.916   8.962   4.414  0.6752  0.4455  0.0227
30617SOL    HW195382   6.994   9.010   4.384 -0.0712  2.0580  0.5476
30617SOL    HW295383   6.852   8.976   4.345 -0.3707  2.4293  1.2764
30618SOL     OW95384   5.214   6.768   5.936 -0.4446 -0.6766 -0.4885
30618SOL    HW195385   5.209   6.718   5.855 -3.0765 -0.2396 -0.6760
30618SOL    HW295386   5.163   6.847   5.919  1.3213  0.8010  0.7116
30619SOL     OW95387   6.524   2.502   1.080  0.3625 -0.0141 -0.6400
30619SOL    HW195388   6.458   2.500   1.011  0.2608  0.6740 -0.5741
30619SOL    HW295389   6.583   2.430   1.060 -0.5051 -0.7600 -0.6040
30620SOL     OW95390   2.227   0.256   7.679  0.2692  0.4148 -0.2969
30620SOL    HW195391   2.147   0.263   7.731  0.9915 -0.7165  1.0499
30620SOL    HW295392   2.265   0.344   7.681  0.2804  0.3975  1.1321
30621SOL     OW95393  10.561   2.871   4.694  0.1401 -0.3958 -0.3127
30621SOL    HW195394  10.483   2.914   4.728  0.5471 -1.8086  2.6812
30621SOL    HW295395  10.620   2.943   4.670 -1.3971  0.6601 -1.0643
30622SOL     OW95396   2.706   6.291   8.851 -0.1000  0.2441  0.2417
30622SOL    HW195397   2.781   6.308   8.909  0.1608 -0.7353  0.2052
30622SOL    HW295398   2.662   6.375   8.844 -0.1947  0.3644  1.9508
30623SOL     OW95399   0.231   3.952   7.020 -0.8477  0.5645  0.1472
30623SOL    HW195400   0.270   3.879   6.972  1.4882  1.6596  0.2368
30623SOL    HW295401   0.212   3.915   7.107  2.4804  0.5000  1.0008
30624SOL     OW95402   6.527   5.548   2.279 -0.5079  0.1183  0.6520
30624SOL    HW195403   6.590   5.503   2.223  0.8431  1.3631  1.0978
30624SOL    HW295404   6.451   5.563   2.222 -0.2228 -0.9596 -0.0513
30625SOL     OW95405   1.082   7.725   6.528  0.0055  0.4944 -0.4494
30625SOL    HW195406   1.033   7.695   6.451  1.5278 -0.3254 -1.1581
30625SOL    HW295407   1.019   7.722   6.600 -0.5970 -2.0375 -0.9943
30626SOL     OW95408   1.801  10.585  10.031  0.1317  0.1693 -0.0699
30626SOL    HW195409   1.712  10.557  10.007 -0.1433  1.5723 -0.8410
30626SOL    HW295410   1.841  10.507  10.070 -1.2585 -0.6468 -0.1818
30627SOL     OW95411  10.283   7.217   5.358  0.3648  0.0598 -0.1299
30627SOL    HW195412  10.219   7.284   5.333  0.0134 -0.3778 -0.4256
30627SOL    HW295413  10.237   7.163   5.423  1.5386  1.6596  2.1504
30628SOL     OW95414   2.135   2.973  10.861 -0.1521  0.1812  0.0228
30628SOL    HW195415   2.070   2.904  10.843 -1.6389  2.0800 -2.7082
30628SOL    HW295416   2.101   3.050  10.815  4.0621  1.3154 -1.7136
30629SOL     OW95417   6.071   0.841   2.741  0.2084  0.1878  0.1173
30629SOL    HW195418   6.153   0.887   2.757 -0.3283  0.9181  0.8192
30629SOL    HW295419   6.062   0.841   2.645  0.3830  1.2370  0.0971
30630SOL     OW95420   4.365   9.670   5.723 -0.0632 -0.1940  0.4739
30630SOL    HW195421   4.438   9.663   5.785  0.4635  0.7939 -0.0104
30630SOL    HW295422   4.291   9.697   5.778  0.0805 -0.5837  0.8710
30631SOL     OW95423   1.141   9.980   3.891  0.1556 -0.4016  0.7304
30631SOL    HW195424   1.055   9.952   3.923  0.4132 -0.1973  1.6551
30631SOL    HW295425   1.202   9.953   3.960  0.6683  0.5510  0.6792
30632SOL     OW95426   9.589  10.420   4.038 -0.4045  0.0420 -0.8975
30632SOL    HW195427   9.593  10.448   4.130 -0.9657  2.9357 -1.6836
30632SOL    HW295428   9.604  10.325   4.042 -3.4475 -0.5198  2.4897
30633SOL     OW95429   4.144   3.162   9.847 -0.7561 -0.2130  0.7114
30633SOL    HW195430   4.200   3.234   9.818 -0.2826 -0.5686  0.7429
30633SOL    HW295431   4.060   3.204   9.868 -0.5255  0.3078  0.5961
30634SOL     OW95432   0.958   5.430   8.011 -0.4762 -0.2247  0.2997
30634SOL    HW195433   0.961   5.526   8.001  1.2254 -0.2930 -0.1751
30634SOL    HW295434   0.869   5.412   8.041 -0.4221  1.6392  1.7680
30635SOL     OW95435   7.352   0.951   0.317 -0.1147 -0.2674 -0.0606
30635SOL    HW195436   7.306   1.028   0.352  0.5409 -0.2125  0.7159
30635SOL    HW295437   7.298   0.877   0.346 -0.2657 -0.1491 -0.0352
30636SOL     OW95438   8.971   9.947   6.926 -0.0466  0.4394  0.3508
30636SOL    HW195439   9.010   9.998   6.855  0.6455  2.0666  1.8315
30636SOL    HW295440   8.885   9.987   6.940  0.3770  1.0483  1.3160
30637SOL     OW95441   4.517   3.986   9.244  0.0920 -0.1013  0.3011
30637SOL    HW195442   4.566   3.973   9.163 -0.8824  0.9247 -0.4813
30637SOL    HW295443   4.535   3.907   9.295 -0.1828 -1.3084 -1.3828
30638SOL     OW95444   5.039   2.984   4.515  0.0737  0.7472  0.8917
30638SOL    HW195445   5.064   3.038   4.590  1.8178  2.3535 -0.7421
30638SOL    HW295446   5.077   3.028   4.440 -1.9935 -0.5471 -1.0493
30639SOL     OW95447   9.182   5.464   8.638 -0.2951 -0.0821  0.2669
30639SOL    HW195448   9.214   5.389   8.689 -0.9751  1.0979  2.5981
30639SOL    HW295449   9.260   5.501   8.598  0.4482 -0.4781  1.2962
30640SOL     OW95450   2.073   7.368   7.369  0.1443  0.2965  0.0641
30640SOL    HW195451   2.024   7.351   7.450  0.4520 -1.0031 -0.0022
30640SOL    HW295452   2.164   7.345   7.391  0.3945  0.8094 -0.3968
30641SOL     OW95453   9.030   5.112   6.984 -0.3364  0.4145 -0.1246
30641SOL    HW195454   9.019   5.121   7.079  0.1435  1.3467 -0.1480
30641SOL    HW295455   8.962   5.168   6.947  0.4414  1.2489 -0.3145
30642SOL     OW95456   1.696   9.217  11.121 -0.0899  0.3409  0.3090
30642SOL    HW195457   1.754   9.178  11.056  0.6276  0.1447  1.0420
30642SOL    HW295458   1.752   9.232  11.197 -0.1420  3.4844 -0.1291
30643SOL     OW95459   8.812   3.815   0.992  0.1432  0.1628  0.1726
30643SOL    HW195460   8.849   3.827   0.904  0.8157  0.2323  0.4586
30643SOL    HW295461   8.875   3.758   1.037 -0.9756 -1.1639  0.1191
30644SOL     OW95462   2.515   6.498   8.893 -0.2466  0.4422 -0.0937
30644SOL    HW195463   2.475   6.482   8.808 -0.1425 -1.7562  0.2140
30644SOL    HW295464   2.442   6.502   8.954 -0.2157 -0.2537  0.0023
30645SOL     OW95465   0.777   4.067   4.680  0.0709 -0.6692 -0.1737
30645SOL    HW195466   0.865   4.030   4.666  1.0791  0.5301  2.4682
30645SOL    HW295467   0.778   4.149   4.630  0.4030 -0.6988 -0.2200
30646SOL     OW95468   3.559   9.310   6.009 -0.6071 -0.1364 -0.5430
30646SOL    HW195469   3.631   9.356   5.966 -1.1705 -0.7541 -2.2129
30646SOL    HW295470   3.599   9.232   6.047 -0.2599 -0.0735 -0.7748
30647SOL     OW95471   5.642   8.178   7.767 -0.0292 -0.6088 -0.0894
30647SOL    HW195472   5.627   8.113   7.698  0.5247 -0.9641  0.1161
30647SOL    HW295473   5.688   8.130   7.836 -1.8567 -0.6296  1.1669
30648SOL     OW95474   6.913   8.380   8.459  0.3521  0.1133  0.3092
30648SOL    HW195475   6.985   8.318   8.448 -0.5976 -1.1570  0.9469
30648SOL    HW295476   6.885   8.368   8.550 -1.3126 -0.1603 -0.2088
30649SOL     OW95477   3.999   1.528   4.407 -0.0062 -0.4334 -0.0466
30649SOL    HW195478   3.976   1.621   4.414 -0.7271 -0.6690  0.9798
30649SOL    HW295479   4.088   1.528   4.371 -0.4462  0.6036 -1.2135
30650SOL     OW95480   6.872   3.904   3.274  0.0646 -0.4122  0.1210
30650SOL    HW195481   6.868   3.997   3.297  1.1048 -0.5851  1.0949
30650SOL    HW295482   6.954   3.894   3.226  0.9893 -1.1446  1.7688
30651SOL     OW95483   0.940   2.965   8.106  0.5238  0.7661 -0.3088
30651SOL    HW195484   1.028   2.985   8.135  0.2560 -0.8932  1.9310
30651SOL    HW295485   0.930   2.871   8.122 -1.5806  0.8710 -0.6525
30652SOL     OW95486   7.831   0.960   2.749  0.0029 -0.3985  0.0309
30652SOL    HW195487   7.822   0.963   2.653 -1.5180  0.1841  0.1594
30652SOL    HW295488   7.877   1.041   2.771  0.3272 -0.5181 -0.2011
30653SOL     OW95489   9.913   4.907   9.289 -0.1177 -0.2714 -0.1115
30653SOL    HW195490   9.891   4.996   9.314 -1.9393 -0.5160 -0.7050
30653SOL    HW295491   9.991   4.915   9.234 -1.6542  1.2628 -2.2317
30654SOL     OW95492   5.927   1.936   0.642  0.5871  0.0310  0.2975
30654SOL    HW195493   6.016   1.901   0.648  0.3564 -0.3103  3.2996
30654SOL    HW295494   5.887   1.889   0.569  2.2327 -1.3775  0.2409
30655SOL     OW95495   3.349   8.310   5.455  0.1704 -0.2175 -0.0095
30655SOL    HW195496   3.388   8.223   5.461 -0.2304 -0.4016 -0.0349
30655SOL    HW295497   3.423   8.370   5.459  0.3731 -0.5200  1.0586
30656SOL     OW95498   6.253   0.379   8.277  0.2571  0.3340  0.1279
30656SOL    HW195499   6.277   0.439   8.348  0.8447 -1.1008  1.1756
30656SOL    HW295500   6.266   0.292   8.313  0.3210 -0.4478 -1.6699
30657SOL     OW95501   8.458  10.678   2.222 -0.2284 -0.1778 -0.7152
30657SOL    HW195502   8.455  10.589   2.259  1.1261 -0.3457 -0.9802
30657SOL    HW295503   8.407  10.671   2.141  1.2674 -1.1828 -1.6221
30658SOL     OW95504   1.496   9.952   0.220  0.1719 -0.1910  0.2495
30658SOL    HW195505   1.476  10.008   0.295  1.5454 -0.0153  0.4968
30658SOL    HW295506   1.525   9.869   0.259  0.6583 -0.1795 -0.0891
30659SOL     OW95507   5.539  11.060   8.876  0.5822  0.3510  0.3674
30659SOL    HW195508   5.508  10.985   8.926 -1.4337  0.7037 -0.2469
30659SOL    HW295509   5.635  11.053   8.877  0.4712 -3.0103 -0.8262
30660SOL     OW95510   7.087   5.400  10.769  0.4637 -0.2227  0.1837
30660SOL    HW195511   7.012   5.341  10.777  0.5330 -0.1680  1.3597
30660SOL    HW295512   7.100   5.435  10.857 -0.6241  2.8739 -0.7318
30661SOL     OW95513   2.335   5.005   5.801 -0.4558  0.1479 -0.7347
30661SOL    HW195514   2.247   4.980   5.775 -0.9201  1.1447 -0.1729
30661SOL    HW295515   2.391   4.936   5.765 -1.3837 -0.1322 -1.6940
30662SOL     OW95516   0.691   4.259   6.277 -0.3309 -0.3634 -0.2534
30662SOL    HW195517   0.656   4.316   6.345 -0.6225 -2.3825  1.4180
30662SOL    HW295518   0.613   4.225   6.232 -0.1684  0.3686 -1.1196
30663SOL     OW95519   0.635   8.109   3.378 -0.3601 -0.2862 -0.0496
30663SOL    HW195520   0.673   8.167   3.443  1.0930 -0.0528 -1.0686
30663SOL    HW295521   0.603   8.167   3.308 -0.9566 -0.5933 -0.0470
30664SOL     OW95522   5.880   3.235  11.056 -0.0214  0.4293 -0.4440
30664SOL    HW195523   5.888   3.183  10.976  1.9817  0.9432 -0.6329
30664SOL    HW295524   5.965   3.228  11.098 -1.0428  0.1707  1.6997
30665SOL     OW95525   3.247   7.198   8.892 -0.5193  0.1470 -0.5846
30665SOL    HW195526   3.327   7.225   8.938  0.3087 -3.7725  0.7486
30665SOL    HW295527   3.187   7.171   8.962 -0.5576 -2.7286 -1.5731
30666SOL     OW95528   1.290   6.024   0.355 -0.1971 -0.1924  0.1805
30666SOL    HW195529   1.259   6.088   0.290  1.3681  1.1046  0.6475
30666SOL    HW295530   1.216   5.965   0.367 -0.5450 -0.5096 -2.7877
30667SOL     OW95531   9.001   6.676   0.205 -0.2749  0.7946 -0.7912
30667SOL    HW195532   9.030   6.607   0.265 -1.7836  1.0209  0.2439
30667SOL    HW295533   8.970   6.629   0.128 -0.9469  0.3318 -0.2428
30668SOL     OW95534   8.200   2.610   9.719 -0.7267  0.7220 -0.1830
30668SOL    HW195535   8.151   2.545   9.667  0.0052 -1.2892  1.4991
30668SOL    HW295536   8.221   2.564   9.801  1.4709  2.4670  0.3250
30669SOL     OW95537  10.539   9.449   3.077 -0.3386  0.1518  0.4980
30669SOL    HW195538  10.544   9.411   3.165  0.3823  0.1917  0.4779
30669SOL    HW295539  10.614   9.508   3.072 -1.3263  1.4420  0.4651
30670SOL     OW95540   6.535  10.158   5.904  0.5092  0.7451 -0.6073
30670SOL    HW195541   6.602  10.169   5.837  1.2566 -0.5167 -0.0961
30670SOL    HW295542   6.511  10.065   5.900  1.5804  0.2732  1.7611
30671SOL     OW95543   2.086   6.688   2.835  1.0288  0.1358 -0.8239
30671SOL    HW195544   2.071   6.665   2.743 -2.2516 -0.3089 -0.3187
30671SOL    HW295545   2.004   6.730   2.862  1.5499 -0.5323  2.1230
30672SOL     OW95546   7.820   8.119   1.792 -0.1694  0.5114 -0.2852
30672SOL    HW195547   7.726   8.099   1.795 -0.2734  0.9707 -0.3037
30672SOL    HW295548   7.857   8.054   1.732 -0.5065  0.4433 -0.4189
30673SOL     OW95549  10.397   9.716   0.561 -0.0864  0.1869 -0.1356
30673SOL    HW195550  10.315   9.673   0.585 -0.6483  1.6821  0.8171
30673SOL    HW295551  10.455   9.702   0.636  0.8674 -1.5452 -1.1302
30674SOL     OW95552   5.142   5.217   5.531 -0.2070 -0.2422  0.1363
30674SOL    HW195553   5.151   5.271   5.453 -0.7785  0.0916  0.2945
30674SOL    HW295554   5.093   5.272   5.592 -1.4165 -1.1840  0.0467
30675SOL     OW95555   2.022  10.058   3.703 -0.1720  0.2389 -0.3873
30675SOL    HW195556   1.932  10.069   3.735 -0.3639  1.8685 -1.3848
30675SOL    HW295557   2.059   9.991   3.761 -2.0312 -0.5296  0.0075
30676SOL     OW95558   8.884   8.432   3.438 -0.3091 -0.0874  0.2911
30676SOL    HW195559   8.971   8.468   3.419 -0.4852 -0.3777 -1.2269
30676SOL    HW295560   8.901   8.342   3.466 -0.1010 -0.0162  0.3947
30677SOL     OW95561   8.300   2.905   2.397 -0.2466  0.6155  0.1513
30677SOL    HW195562   8.206   2.887   2.392 -0.5668  2.3242 -1.0633
30677SOL    HW295563   8.330   2.901   2.306  0.8055  0.3722  0.4963
30678SOL     OW95564  10.531   0.801   8.818 -1.0383  0.0235  0.2452
30678SOL    HW195565  10.575   0.790   8.902 -0.1344 -0.6875 -0.3018
30678SOL    HW295566  10.469   0.873   8.832  0.5583  1.3270  0.9462
30679SOL     OW95567   2.188   9.444   8.748 -0.1644  0.8127 -0.3648
30679SOL    HW195568   2.110   9.438   8.803  0.7329 -0.8053  0.8057
30679SOL    HW295569   2.172   9.521   8.693 -1.2412  2.3287  1.9238
30680SOL     OW95570   3.413   8.127   2.450  0.1201  0.7774  0.6308
30680SOL    HW195571   3.495   8.144   2.497 -0.8639  3.7405  1.4945
30680SOL    HW295572   3.409   8.196   2.384 -0.5523 -0.8426 -1.1137
30681SOL     OW95573   5.330   7.065   5.158  0.1722 -0.1415  0.8873
30681SOL    HW195574   5.414   7.106   5.136 -0.1675  0.1585  0.0971
30681SOL    HW295575   5.347   6.971   5.152  0.1540 -0.0783 -0.5347
30682SOL     OW95576   9.784   9.417  10.124  0.0509 -0.7718  0.5849
30682SOL    HW195577   9.786   9.423  10.219  0.6639  1.3375  0.4905
30682SOL    HW295578   9.869   9.450  10.096 -0.5132 -0.3508 -0.7169
30683SOL     OW95579  10.358   8.506   0.091  0.4024 -0.2001 -0.5501
30683SOL    HW195580  10.436   8.550   0.055 -0.4736  2.1315  0.1761
30683SOL    HW295581  10.384   8.480   0.179  0.9210 -1.1564 -0.9713
30684SOL     OW95582   2.306   0.972   2.826  0.5532  0.0400 -0.1226
30684SOL    HW195583   2.385   0.918   2.827  0.3979 -0.2059 -0.8534
30684SOL    HW295584   2.243   0.922   2.776 -0.2538 -0.0096  0.9105
30685SOL     OW95585   0.289   9.080   5.593 -0.9876 -0.4536  0.4164
30685SOL    HW195586   0.255   9.167   5.575 -3.2197 -1.5065 -1.0086
30685SOL    HW295587   0.368   9.072   5.540 -0.6253  0.7617  0.7603
30686SOL     OW95588   3.805   6.239  10.576  0.0034 -0.0978  0.5288
30686SOL    HW195589   3.732   6.287  10.615  1.0725  0.6504  1.6735
30686SOL    HW295590   3.844   6.300  10.513  0.0706 -0.2453  0.4254
30687SOL     OW95591   0.957   2.642   0.192 -0.6672 -0.2605  0.2976
30687SOL    HW195592   0.932   2.682   0.275  0.0754  0.2968  0.2594
30687SOL    HW295593   0.884   2.584   0.171 -0.1086 -1.7966  2.2397
30688SOL     OW95594   7.659   1.769   9.283 -0.4539  0.4646 -0.3611
30688SOL    HW195595   7.745   1.784   9.245 -0.3277  0.4752 -0.0726
30688SOL    HW295596   7.618   1.704   9.226 -0.7830  1.4541 -1.2856
30689SOL     OW95597   1.254   3.383   8.798 -0.4126  0.7193  0.3466
30689SOL    HW195598   1.230   3.421   8.882  2.7108  2.4320  0.5934
30689SOL    HW295599   1.262   3.289   8.816  0.5691  1.0960  2.0741
30690SOL     OW95600   0.356   6.586   3.010 -0.2522 -0.2619  0.1007
30690SOL    HW195601   0.297   6.542   3.072  2.2571 -1.3487  1.9228
30690SOL    HW295602   0.383   6.517   2.950  0.4790 -0.2098  0.3638
30691SOL     OW95603   0.972   7.306   2.018 -0.2762 -0.2649  0.1609
30691SOL    HW195604   0.939   7.325   1.930  0.6616 -0.8044 -0.3239
30691SOL    HW295605   0.893   7.297   2.072 -0.8408  1.0677 -0.3975
30692SOL     OW95606   6.141   9.747   2.880  0.0045  0.1793  0.2847
30692SOL    HW195607   6.079   9.802   2.832 -0.6546 -0.1992  0.6923
30692SOL    HW295608   6.219   9.746   2.825 -0.2877  0.7978 -0.1574
30693SOL     OW95609   8.800   0.669   4.562  0.1342 -0.4133 -0.6014
30693SOL    HW195610   8.723   0.661   4.505  0.1303  0.3631 -0.7105
30693SOL    HW295611   8.767   0.712   4.641  0.2633 -0.9511 -0.2497
30694SOL     OW95612   2.537  10.452   4.486 -0.1399 -0.4214  0.4953
30694SOL    HW195613   2.447  10.419   4.482 -0.8293  1.4227 -0.5863
30694SOL    HW295614   2.570  10.441   4.396 -0.2086  1.2165  0.2415
30695SOL     OW95615  10.184   8.718   0.021  0.2952 -0.0105 -0.3871
30695SOL    HW195616  10.211   8.809   0.036  1.7925 -0.2848 -1.2117
30695SOL    HW295617  10.248   8.666   0.068 -0.6081 -0.6492  0.1484
30696SOL     OW95618  10.433   1.875   3.462  0.0141  0.3802  0.0124
30696SOL    HW195619  10.521   1.878   3.500 -0.9437  0.1204  2.4253
30696SOL    HW295620  10.375   1.869   3.538 -2.0405 -0.5825 -1.5599
30697SOL     OW95621   9.615   0.939   6.211 -0.1892 -0.7638 -0.3729
30697SOL    HW195622   9.602   0.845   6.215  1.1226 -0.9724 -0.5757
30697SOL    HW295623   9.663   0.953   6.129  1.0203 -0.1083  0.4273
30698SOL     OW95624   4.054   7.505   4.103 -0.2857  0.3216 -0.1853
30698SOL    HW195625   4.059   7.597   4.078 -1.6276 -0.5103 -4.3446
30698SOL    HW295626   4.126   7.464   4.055 -1.3548 -1.1121 -0.6272
30699SOL     OW95627   6.380   9.899   5.017  0.2767 -0.3561 -0.1949
30699SOL    HW195628   6.307   9.862   5.066  1.7338 -0.7134  1.8582
30699SOL    HW295629   6.403   9.831   4.953 -0.8698 -0.4319 -0.5345
30700SOL     OW95630   2.351   8.511   3.334 -0.4638  0.0300  0.1572
30700SOL    HW195631   2.364   8.493   3.427 -1.2195 -0.4011  0.1819
30700SOL    HW295632   2.341   8.606   3.329 -2.7114 -0.1259  0.8178
30701SOL     OW95633   8.559   2.097   5.881  0.1369  0.2319  0.0016
30701SOL    HW195634   8.630   2.150   5.846  0.6844  0.0710  0.8318
30701SOL    HW295635   8.537   2.139   5.964 -0.2802 -0.1094  0.0672
30702SOL     OW95636   9.314   9.654   3.571  0.3277 -0.8664 -0.1094
30702SOL    HW195637   9.328   9.717   3.640  0.4642 -0.6017 -0.3775
30702SOL    HW295638   9.241   9.600   3.602 -0.2611 -0.1291 -0.1893
30703SOL     OW95639   8.921   9.578   2.962  0.1175 -0.1410 -0.1212
30703SOL    HW195640   8.996   9.628   2.996 -1.8243  2.0977  1.1572
30703SOL    HW295641   8.941   9.487   2.984  1.1216  0.6969  3.0179
30704SOL     OW95642   8.369   4.529   7.097 -0.0977  0.2271  0.1274
30704SOL    HW195643   8.337   4.602   7.044  1.9361 -0.6282 -2.4957
30704SOL    HW295644   8.315   4.455   7.070  0.0513  0.0690  0.2644
30705SOL     OW95645   3.518   7.305   4.091 -0.0839  0.4955  0.0882
30705SOL    HW195646   3.598   7.346   4.122  1.0093  0.1361 -2.0804
30705SOL    HW295647   3.457   7.378   4.079  0.5336  1.0077  0.0056
30706SOL     OW95648   3.216   2.704   8.907 -0.5988 -0.5838 -0.1301
30706SOL    HW195649   3.214   2.609   8.922 -1.3929 -1.0879 -2.8678
30706SOL    HW295650   3.124   2.728   8.893 -0.5651  0.8920  1.8292
30707SOL     OW95651   2.082   1.096   0.075 -0.3262  0.0175  0.2894
30707SOL    HW195652   2.070   1.185   0.110 -0.6299  0.7338 -1.5259
30707SOL    HW295653   2.176   1.084   0.071 -0.2788  0.3418  0.3686
30708SOL     OW95654   4.457  10.766   4.905 -0.3241 -1.0926  0.0874
30708SOL    HW195655   4.364  10.773   4.927 -0.4128 -0.9447 -0.3290
30708SOL    HW295656   4.498  10.841   4.950 -0.3559 -1.3318  0.5210
30709SOL     OW95657   4.011   8.100   9.590 -0.1103 -0.4274 -0.6850
30709SOL    HW195658   4.014   8.117   9.685  0.8101  1.0629 -0.9425
30709SOL    HW295659   3.925   8.132   9.563 -0.9006 -2.0341 -0.1841
30710SOL     OW95660  10.761   8.530   9.196  0.1485 -0.1529 -0.3436
30710SOL    HW195661  10.820   8.521   9.272  1.1414 -0.4714 -1.1285
30710SOL    HW295662  10.697   8.596   9.224  0.3438 -0.4422  0.8635
30711SOL     OW95663   1.754   7.983   3.812 -0.2592 -0.0789  0.0221
30711SOL    HW195664   1.769   8.077   3.804  0.6079 -0.1842  0.3376
30711SOL    HW295665   1.822   7.943   3.758 -0.9637 -0.5205 -0.5602
30712SOL     OW95666   5.321   6.472   5.758  0.3230  0.3179  0.2104
30712SOL    HW195667   5.313   6.541   5.692  1.4632  1.1157  0.8721
30712SOL    HW295668   5.414   6.452   5.761 -0.0118 -1.4407 -0.1198
30713SOL     OW95669   7.934   0.897   6.892 -0.3127  0.3832 -0.3769
30713SOL    HW195670   7.947   0.952   6.815  3.5982  0.7222  0.3544
30713SOL    HW295671   8.006   0.835   6.890 -1.2142 -0.8670  2.0114
30714SOL     OW95672   1.209   9.696  10.732 -0.5230 -0.1760 -0.2114
30714SOL    HW195673   1.273   9.765  10.714 -1.4021  0.6454 -0.3202
30714SOL    HW295674   1.209   9.687  10.827  3.0836 -3.5030 -0.3022
30715SOL     OW95675   9.423   3.442   7.159  0.2898  0.1693 -0.1619
30715SOL    HW195676   9.429   3.429   7.254  0.9385 -1.9761 -0.4459
30715SOL    HW295677   9.329   3.451   7.142 -0.1367 -2.3118  0.4282
30716SOL     OW95678   0.098   2.701   7.037  0.2188  0.5124  0.1137
30716SOL    HW195679   0.063   2.643   6.969  1.4048  0.8192 -0.7994
30716SOL    HW295680   0.091   2.650   7.118 -1.8406  0.3995 -0.1034
30717SOL     OW95681   6.220   8.793   1.597 -0.3598  0.1086  0.1364
30717SOL    HW195682   6.277   8.746   1.658 -0.0159 -1.3352 -1.2391
30717SOL    HW295683   6.272   8.799   1.516 -1.7236 -0.2369 -0.7878
30718SOL     OW95684  10.767  10.520   7.438  0.5272 -0.0634 -0.7633
30718SOL    HW195685  10.687  10.469   7.447  1.5699 -1.3485  2.4504
30718SOL    HW295686  10.739  10.611   7.451 -0.4327 -0.5054  0.4267
30719SOL     OW95687   1.536   4.048   0.459 -0.0408  0.4066 -0.4137
30719SOL    HW195688   1.608   3.985   0.454 -0.7010 -0.5316  1.2664
30719SOL    HW295689   1.462   4.002   0.420 -0.3029  0.4768  0.0030
30720SOL     OW95690   0.401  10.605  10.649  0.3894 -0.0859 -0.2717
30720SOL    HW195691   0.424  10.695  10.627 -1.4884  0.0389 -1.9469
30720SOL    HW295692   0.483  10.566  10.679  1.0881  2.3827  1.3393
30721SOL     OW95693   9.140   4.004   8.223  0.1928 -0.4536  0.7866
30721SOL    HW195694   9.219   4.059   8.213  0.1124 -0.0865  1.9877
30721SOL    HW295695   9.105   3.996   8.134  0.8805  0.4421  0.4157
30722SOL     OW95696   8.367   5.638   5.159 -0.2453  0.0080 -0.5689
30722SOL    HW195697   8.389   5.663   5.249  1.0416 -1.3802 -0.4579
30722SOL    HW295698   8.272   5.630   5.159 -0.1650 -1.7320  1.1947
30723SOL     OW95699   5.021   2.255   6.645  0.9067 -0.0534  0.5905
30723SOL    HW195700   4.995   2.163   6.653 -0.4076 -0.0466 -2.2027
30723SOL    HW295701   5.073   2.258   6.564 -1.1768  1.9333 -0.8223
30724SOL     OW95702   7.702   6.029  10.197  0.5687  0.1984  0.1030
30724SOL    HW195703   7.700   5.947  10.147  1.4978 -0.8449  1.6889
30724SOL    HW295704   7.721   6.096  10.133 -0.4431 -0.7817 -1.2890
30725SOL     OW95705   7.507   1.090   1.392 -0.2396  0.1773  0.1737
30725SOL    HW195706   7.421   1.085   1.433 -0.1848 -3.0636  0.1390
30725SOL    HW295707   7.491   1.083   1.298 -0.0437  2.4439 -0.0791
30726SOL     OW95708   5.030   4.162   0.312 -0.0524  0.0425  0.3394
30726SOL    HW195709   5.085   4.085   0.324  0.3705  0.1932 -0.5963
30726SOL    HW295710   4.960   4.152   0.377 -0.3467 -1.4226 -0.1827
30727SOL     OW95711   0.905   4.604   3.757 -0.5913 -0.1620  0.0855
30727SOL    HW195712   0.985   4.555   3.775 -0.0290  0.0545 -1.6284
30727SOL    HW295713   0.845   4.580   3.829  0.2141 -2.0647  0.1852
30728SOL     OW95714   1.753   2.786   1.805 -0.2931  0.4229  0.5901
30728SOL    HW195715   1.821   2.847   1.775 -1.3290 -0.1044 -3.5110
30728SOL    HW295716   1.800   2.704   1.821  0.3469  0.6724  0.0567
30729SOL     OW95717  10.296   4.879   5.560 -0.2930 -0.3598 -0.0503
30729SOL    HW195718  10.358   4.865   5.631  0.0281  0.7413 -0.0919
30729SOL    HW295719  10.212   4.850   5.595 -0.1063  0.0083  0.7202
30730SOL     OW95720   4.155   4.923   0.013  0.0850 -0.3087 -0.1494
30730SOL    HW195721   4.070   4.927   0.057 -0.3493 -0.9605 -0.9126
30730SOL    HW295722   4.149   4.988  -0.056  0.5110  0.2129  0.2925
30731SOL     OW95723   7.367   9.306   1.049  0.0806 -0.3575  0.3276
30731SOL    HW195724   7.416   9.262   1.118  1.1331  0.9466  0.4533
30731SOL    HW295725   7.300   9.357   1.095  0.6624  0.3641  0.3900
30732SOL     OW95726   9.612   5.481   7.257 -0.2499 -0.1548  0.1254
30732SOL    HW195727   9.633   5.453   7.168  1.7395 -0.8285  0.7515
30732SOL    HW295728   9.607   5.400   7.307 -2.0019  0.1670  0.5507
30733SOL     OW95729   0.486   9.857   2.904 -0.6804 -0.0396 -0.3844
30733SOL    HW195730   0.435   9.853   2.985 -0.3467  0.7131 -0.1281
30733SOL    HW295731   0.470   9.945   2.870  1.5677  0.7770  0.4704
30734SOL     OW95732   4.371   0.562   3.800  0.4672  0.6974 -0.9033
30734SOL    HW195733   4.380   0.622   3.874 -1.8326 -0.8396  0.7588
30734SOL    HW295734   4.461   0.547   3.771  1.2602  3.3413 -0.1371
30735SOL     OW95735   2.831   2.331  10.734  0.1572  0.6239  0.2647
30735SOL    HW195736   2.830   2.360  10.643  0.2454  0.1781  0.1192
30735SOL    HW295737   2.744   2.294  10.749  0.2632  0.3669  0.2506
30736SOL     OW95738   5.253   8.099   3.388  0.0575 -0.3389  0.5456
30736SOL    HW195739   5.329   8.143   3.426 -0.6959  0.9724  0.6170
30736SOL    HW295740   5.197   8.171   3.357 -1.1026 -1.2677  0.4141
30737SOL     OW95741   6.850   3.267   1.181 -0.2074  0.3455  0.3825
30737SOL    HW195742   6.809   3.291   1.098  1.4237  0.6362 -0.3758
30737SOL    HW295743   6.777   3.248   1.239 -1.3887  0.3084 -1.0643
30738SOL     OW95744   8.931   9.382  10.928  0.0087  0.4799  0.0687
30738SOL    HW195745   9.011   9.430  10.907  1.0154 -1.4340 -0.7940
30738SOL    HW295746   8.868   9.449  10.952  0.8360  2.3527 -2.5400
30739SOL     OW95747   8.290   9.853   7.026  0.0862  0.0230  0.1553
30739SOL    HW195748   8.268   9.765   6.994  0.7034  0.3417 -1.2182
30739SOL    HW295749   8.279   9.847   7.121 -0.3957 -1.3864  0.0405
30740SOL     OW95750   8.503   9.120   6.193  0.4683  0.0862 -0.0570
30740SOL    HW195751   8.441   9.181   6.233  0.8435  0.0606  0.5748
30740SOL    HW295752   8.451   9.074   6.127 -0.3883 -0.4973  0.9978
30741SOL     OW95753   3.851   0.642   3.342 -0.1805  0.2510 -0.0575
30741SOL    HW195754   3.895   0.580   3.285  2.5428  2.5781 -0.7026
30741SOL    HW295755   3.895   0.633   3.426 -0.2055  0.8606  0.0252
30742SOL     OW95756   0.520   2.061   2.523  0.0263  0.0964  0.2815
30742SOL    HW195757   0.535   1.981   2.472  1.2974 -0.6994  1.8469
30742SOL    HW295758   0.597   2.115   2.507 -1.3071  1.5980 -1.6599
30743SOL     OW95759   0.360   5.002   7.028  0.3391 -0.2976  0.5371
30743SOL    HW195760   0.316   5.010   6.944  0.9700 -0.2720  0.2081
30743SOL    HW295761   0.421   5.075   7.032  0.0601 -0.0876  1.1758
30744SOL     OW95762  10.732   8.193   8.866  0.0507  0.5099  0.1265
30744SOL    HW195763  10.694   8.139   8.936  0.4511  0.3814  0.2508
30744SOL    HW295764  10.792   8.252   8.911 -0.6729  1.3313  0.0306
30745SOL     OW95765   7.499   3.194   3.752  0.5945 -0.1075 -0.5940
30745SOL    HW195766   7.494   3.101   3.774  0.3554  0.5859  2.9749
30745SOL    HW295767   7.569   3.200   3.687  0.6723 -2.7341 -0.8606
30746SOL     OW95768   2.388  10.878   0.109  0.2003 -0.7974  0.3798
30746SOL    HW195769   2.452  10.941   0.140  0.5177 -1.5714  1.3510
30746SOL    HW295770   2.426  10.842   0.029  0.4936 -0.4937  0.3813
30747SOL     OW95771   6.410  10.698   9.235 -0.1159 -0.2206 -0.7180
30747SOL    HW195772   6.425  10.758   9.162  0.4558  0.4540 -0.0699
30747SOL    HW295773   6.497  10.669   9.261 -0.1040  1.2361  1.0568
30748SOL     OW95774   7.624   7.008   5.352 -0.3985 -0.5141 -0.2139
30748SOL    HW195775   7.567   7.073   5.310 -1.2554 -1.1070  0.0157
30748SOL    HW295776   7.692   7.060   5.394 -1.0193  0.2370 -0.1139
30749SOL     OW95777  10.142   3.255   9.042  0.0139  0.1205  0.2749
30749SOL    HW195778  10.107   3.301   8.965 -2.8486  0.6329  1.7431
30749SOL    HW295779  10.162   3.325   9.105  0.4983 -0.3916  0.6966
30750SOL     OW95780  11.005   0.566   7.064  0.1940 -0.2486 -0.0672
30750SOL    HW195781  11.041   0.599   7.146  0.4053 -0.4573 -0.0764
30750SOL    HW295782  10.919   0.532   7.089 -0.6272  1.5239 -0.2906
30751SOL     OW95783   5.309   0.348   8.588  0.3706 -0.0078  0.3909
30751SOL    HW195784   5.352   0.320   8.507  0.5037 -1.0597  0.8121
30751SOL    HW295785   5.329   0.280   8.651 -1.8259 -0.5118  0.6348
30752SOL     OW95786   7.215   1.324   1.096  0.5246 -0.2316  0.5031
30752SOL    HW195787   7.275   1.374   1.152  1.7478 -0.5513 -0.4682
30752SOL    HW295788   7.207   1.239   1.139  0.1078  0.0863  1.0650
30753SOL     OW95789   4.703   2.816   9.252  0.3123 -0.8393 -0.3862
30753SOL    HW195790   4.775   2.777   9.301  0.2889 -0.1374  0.2313
30753SOL    HW295791   4.642   2.744   9.237  0.6070 -1.1938  0.0931
30754SOL     OW95792   2.615   7.796   8.958 -0.0771  0.0292  0.0613
30754SOL    HW195793   2.610   7.781   8.864 -0.9323  1.2351 -0.1215
30754SOL    HW295794   2.705   7.776   8.982 -0.4941 -2.8908 -0.4958
30755SOL     OW95795   0.845   6.330  10.563  0.0359  0.3070  0.0832
30755SOL    HW195796   0.871   6.252  10.514 -0.5553  0.0075  0.2315
30755SOL    HW295797   0.926   6.379  10.576  0.4033 -0.2507 -0.0741
30756SOL     OW95798   3.014  11.096   8.930  1.3363 -0.0104  0.1581
30756SOL    HW195799   3.031  11.063   9.018  1.5072  2.0238  0.9563
30756SOL    HW295800   2.923  11.073   8.913  1.9190 -2.3569 -0.0879
30757SOL     OW95801   1.891   6.416   4.296 -0.0501 -0.1533  0.6146
30757SOL    HW195802   1.889   6.422   4.392 -0.8696  1.5834  0.5377
30757SOL    HW295803   1.816   6.468   4.268  1.7585  1.7392 -1.0321
30758SOL     OW95804   4.759   3.368   1.560  0.0446  0.3831 -0.3963
30758SOL    HW195805   4.764   3.313   1.481 -0.7220 -1.9465  1.0570
30758SOL    HW295806   4.665   3.377   1.576  0.1933  0.7239  0.3067
30759SOL     OW95807   5.782   6.093   9.390  0.2089 -0.4645  0.1831
30759SOL    HW195808   5.821   6.008   9.368  0.8059 -0.0425 -0.4150
30759SOL    HW295809   5.850   6.157   9.372 -0.5787  0.2410 -0.3810
30760SOL     OW95810   0.130   9.008   9.316  0.9747  0.3111 -0.3444
30760SOL    HW195811   0.116   8.915   9.295 -0.6490  0.3363  0.4185
30760SOL    HW295812   0.184   9.007   9.395  1.1091  0.0236 -0.4389
30761SOL     OW95813   9.056   6.220   6.334 -0.1295 -0.1239 -0.2006
30761SOL    HW195814   9.032   6.145   6.389  0.7226  0.9415  1.7068
30761SOL    HW295815   9.064   6.293   6.395 -0.3636  1.4165 -1.9366
30762SOL     OW95816   0.066   3.440   1.690 -0.1219 -0.0737 -0.0419
30762SOL    HW195817  -0.030   3.447   1.694 -0.0273  0.5809  2.1556
30762SOL    HW295818   0.093   3.516   1.639 -0.7262  0.2229  0.0658
30763SOL     OW95819   6.725   1.739   5.485  0.2761 -0.4493  0.1971
30763SOL    HW195820   6.650   1.791   5.454 -0.7173 -1.3241  1.0583
30763SOL    HW295821   6.730   1.758   5.579  0.6649 -0.9792  0.2870
30764SOL     OW95822   3.895  10.684  10.585 -0.1383  0.0416 -0.3185
30764SOL    HW195823   3.869  10.777  10.584  1.3825  0.5057 -2.3509
30764SOL    HW295824   3.931  10.668  10.498  1.3805 -1.9761  0.6067
30765SOL     OW95825   5.010   8.993   7.279 -0.3467  0.2285 -0.0536
30765SOL    HW195826   4.951   9.069   7.275 -0.9715 -0.2993 -1.4855
30765SOL    HW295827   4.999   8.950   7.195  2.8892  0.6547 -0.7985
30766SOL     OW95828   9.660   6.059   8.978  0.1201  0.2502 -0.4234
30766SOL    HW195829   9.591   6.123   8.964 -0.1019  0.1150  0.0086
30766SOL    HW295830   9.692   6.077   9.066 -0.2971 -0.5469 -0.0906
30767SOL     OW95831   6.857   5.148   1.745 -0.2473  0.0282  0.0595
30767SOL    HW195832   6.939   5.197   1.740 -0.3731  0.1861 -0.4763
30767SOL    HW295833   6.826   5.164   1.834  1.0982 -1.3319  0.8232
30768SOL     OW95834  10.666   1.856   4.013  0.4912 -0.0463  0.2839
30768SOL    HW195835  10.698   1.940   3.982 -1.3088  0.1420 -1.2395
30768SOL    HW295836  10.735   1.794   3.991  1.1886  0.8004  0.0491
30769SOL     OW95837   3.849   4.073   9.258 -0.2011  0.7174 -0.0987
30769SOL    HW195838   3.926   4.130   9.256  0.4547 -0.0590 -3.5788
30769SOL    HW295839   3.775   4.132   9.241  0.0820  1.0072 -0.3553
30770SOL     OW95840  11.066   8.266  10.269 -0.0229 -0.0337  0.1071
30770SOL    HW195841  11.104   8.304  10.191  1.2516 -0.6124  0.4170
30770SOL    HW295842  11.127   8.288  10.339 -0.9870  0.2164  0.8999
30771SOL     OW95843   1.446   5.759   9.129  0.2113 -0.2385 -0.0829
30771SOL    HW195844   1.482   5.775   9.042 -0.5507  0.3443 -0.3017
30771SOL    HW295845   1.386   5.685   9.117 -3.8391  2.8661 -1.2420
30772SOL     OW95846   1.618   2.977   3.151 -0.1557 -0.4284 -0.4000
30772SOL    HW195847   1.574   2.913   3.206  0.6541 -2.3180 -1.8481
30772SOL    HW295848   1.704   2.988   3.192 -0.1812 -0.5016 -0.3272
30773SOL     OW95849   9.671   2.270   2.867 -0.2558  0.2246  0.5629
30773SOL    HW195850   9.596   2.295   2.920 -0.3778  0.0800  0.4588
30773SOL    HW295851   9.695   2.350   2.820 -1.3659 -0.1259 -0.6464
30774SOL     OW95852   8.964   2.242   9.058  0.1613  0.3300 -0.1807
30774SOL    HW195853   8.882   2.268   9.015  0.1482 -0.8756 -0.9462
30774SOL    HW295854   8.944   2.245   9.151  0.2548  3.2307 -0.1614
30775SOL     OW95855   2.569   4.909   9.972 -0.1287  0.0565  0.6332
30775SOL    HW195856   2.530   4.990   9.938 -1.8532  0.4188  3.2029
30775SOL    HW295857   2.632   4.938  10.038  0.4420 -0.6983  0.4386
30776SOL     OW95858   8.865   3.173   7.312 -0.4348  0.1904 -0.2773
30776SOL    HW195859   8.873   3.234   7.239  2.7896  0.7593  0.4075
30776SOL    HW295860   8.954   3.139   7.326 -0.8228  0.2429  3.4475
30777SOL     OW95861   9.954  11.049  11.002  0.5339  0.0461  0.0774
30777SOL    HW195862  10.001  11.064  10.920  0.6219  0.0547  0.1290
30777SOL    HW295863   9.902  10.971  10.985  2.5568 -1.5765  0.8505
30778SOL     OW95864   2.264   7.454   8.080 -0.1525  0.7723  0.7879
30778SOL    HW195865   2.213   7.377   8.106  2.0005 -1.4393 -1.0333
30778SOL    HW295866   2.222   7.484   8.000 -0.6185  1.0948  1.1524
30779SOL     OW95867   4.204   2.517  10.627  0.0571 -0.1968 -0.2907
30779SOL    HW195868   4.268   2.502  10.557 -0.1135  0.1143 -0.5168
30779SOL    HW295869   4.225   2.605  10.660 -1.0219  0.4310 -1.1952
30780SOL     OW95870   4.142   5.916   1.683 -0.4253 -0.0147  0.3353
30780SOL    HW195871   4.072   5.966   1.726 -2.3201  0.4424 -2.9921
30780SOL    HW295872   4.207   5.982   1.659 -0.1762 -0.0220  0.9779
30781SOL     OW95873   9.766   8.528   0.470 -0.4699  0.5062 -0.4586
30781SOL    HW195874   9.800   8.560   0.554 -1.1856 -1.9226  0.8574
30781SOL    HW295875   9.836   8.546   0.407  1.4244 -0.4092  1.2917
30782SOL     OW95876   4.636   6.410   7.287  0.2712  0.2715  0.0956
30782SOL    HW195877   4.622   6.472   7.359 -0.2848 -0.1384  0.3416
30782SOL    HW295878   4.726   6.380   7.298 -0.2077 -0.7719  1.3946
30783SOL     OW95879   3.790  11.109   8.283  0.5779 -0.4835  0.3869
30783SOL    HW195880   3.812  11.105   8.190 -1.8825  0.5408 -0.3039
30783SOL    HW295881   3.769  11.018   8.306 -1.6960 -0.3599 -0.9027
30784SOL     OW95882   6.718   3.034   6.315 -0.1738  0.1903  0.2164
30784SOL    HW195883   6.735   3.094   6.242  1.1471  0.4619  0.7307
30784SOL    HW295884   6.627   3.053   6.339 -0.2752  0.8923 -0.6230
30785SOL     OW95885   1.493   3.596   2.610 -0.3809 -0.3502 -0.1969
30785SOL    HW195886   1.585   3.569   2.602 -0.7191 -2.0238  0.9501
30785SOL    HW295887   1.488   3.641   2.694 -1.3789 -4.4390  2.2260
30786SOL     OW95888   3.788   5.022   7.383 -0.3212  0.2254 -0.4634
30786SOL    HW195889   3.737   5.057   7.310 -1.0374  0.8708  0.3209
30786SOL    HW295890   3.730   5.030   7.459  1.1235  1.4894  0.5633
30787SOL     OW95891   7.747   8.331   1.600  0.3147 -0.1360  0.0961
30787SOL    HW195892   7.776   8.245   1.569  2.7576  0.8641 -0.6322
30787SOL    HW295893   7.723   8.317   1.691 -0.3734 -1.7841 -0.2932
30788SOL     OW95894  10.597   2.646   6.497 -0.1270  0.1060 -0.3330
30788SOL    HW195895  10.559   2.666   6.412 -1.0643  0.4752  0.1487
30788SOL    HW295896  10.662   2.578   6.480  0.2150  0.6957 -1.4313
30789SOL     OW95897   1.968   1.917   5.677  0.7603  0.1307  0.3395
30789SOL    HW195898   1.883   1.886   5.706 -1.0489  2.7252 -1.7218
30789SOL    HW295899   1.991   1.988   5.737  0.4432  0.7642 -0.2645
30790SOL     OW95900   1.080   2.593   5.364  0.0556 -0.2757 -0.5109
30790SOL    HW195901   1.137   2.561   5.434  0.2935 -1.1883 -1.0964
30790SOL    HW295902   1.076   2.520   5.301 -0.1241  0.5244 -1.4591
30791SOL     OW95903   7.797   5.782   3.045  0.0261  0.1438  0.3643
30791SOL    HW195904   7.733   5.849   3.067  0.1580  0.1757  0.6570
30791SOL    HW295905   7.878   5.811   3.087 -0.2125 -0.8102  1.5190
30792SOL     OW95906   7.678   5.614   1.143 -0.7326 -0.4188  0.4414
30792SOL    HW195907   7.608   5.670   1.110  1.0351  1.1886 -0.8236
30792SOL    HW295908   7.660   5.528   1.105 -0.6555  0.5850 -2.0890
30793SOL     OW95909   8.721   0.977   2.936 -0.1367  0.7773 -0.1613
30793SOL    HW195910   8.654   1.039   2.966  0.1187  0.7393  0.5010
30793SOL    HW295911   8.745   0.928   3.014 -0.2175 -0.0557 -0.6447
30794SOL     OW95912   9.306   6.039   1.862  0.3391 -0.1271  0.0320
30794SOL    HW195913   9.222   6.082   1.877  0.5753  0.2332  0.3175
30794SOL    HW295914   9.306   6.019   1.768  0.2858  0.6095 -0.1271
30795SOL     OW95915   6.443   4.073   2.743 -0.4242  0.5760  0.1602
30795SOL    HW195916   6.369   4.027   2.705 -1.0878  0.0446  1.9830
30795SOL    HW295917   6.514   4.008   2.745 -0.8371  0.1357  1.1414
30796SOL     OW95918   3.284   8.512   9.347  0.4857  0.1911  0.0781
30796SOL    HW195919   3.243   8.523   9.262  1.5138  3.2797 -0.1444
30796SOL    HW295920   3.249   8.584   9.400  0.5487 -1.1262  2.0185
30797SOL     OW95921   9.392   3.394   0.441  0.0861 -0.1804  0.5225
30797SOL    HW195922   9.321   3.331   0.452 -2.2617  2.3347  0.7011
30797SOL    HW295923   9.366   3.448   0.366  0.9697  1.8523  1.5947
30798SOL     OW95924   8.481  10.692   8.041 -0.0793 -0.1842  0.5915
30798SOL    HW195925   8.455  10.661   7.954 -0.4176  2.5608 -0.3901
30798SOL    HW295926   8.456  10.621   8.100 -0.9499 -1.6460 -1.4048
30799SOL     OW95927   3.566   8.441   8.531 -0.4154 -0.4187  0.3541
30799SOL    HW195928   3.592   8.532   8.543  2.7558 -1.1827  0.1344
30799SOL    HW295929   3.560   8.430   8.436 -1.8032 -0.2440  0.3984
30800SOL     OW95930  10.182   8.403   9.748 -0.1440 -0.3537 -0.1940
30800SOL    HW195931  10.189   8.419   9.654  0.0717  1.9162  0.1490
30800SOL    HW295932  10.257   8.448   9.786 -1.3689  0.6069  1.2208
30801SOL     OW95933   9.975   4.846   7.885  0.1705  0.2753 -0.7480
30801SOL    HW195934   9.962   4.786   7.958 -1.1861 -0.2012 -1.3471
30801SOL    HW295935   9.897   4.901   7.884  0.5821  0.8657 -1.2988
30802SOL     OW95936   1.736   4.606   2.881 -0.1136  0.2921 -0.0340
30802SOL    HW195937   1.702   4.557   2.806  0.9156 -1.0139  0.3079
30802SOL    HW295938   1.827   4.625   2.856 -0.1182  0.8744  0.3970
30803SOL     OW95939   6.933   3.570   7.543  0.6679  0.3739 -0.6584
30803SOL    HW195940   6.884   3.626   7.603  0.0078  0.8961 -1.6546
30803SOL    HW295941   6.899   3.482   7.559 -0.1985  0.6464 -0.9333
30804SOL     OW95942   3.291   5.528   7.735  0.0437  0.0474 -0.1353
30804SOL    HW195943   3.380   5.531   7.700 -0.3690 -3.1108 -1.9316
30804SOL    HW295944   3.235   5.543   7.659 -1.0198  1.7635  0.9240
30805SOL     OW95945   8.256   7.593   9.214  0.3609  0.2576  0.1563
30805SOL    HW195946   8.173   7.613   9.257 -0.1704  2.1236 -1.5746
30805SOL    HW295947   8.321   7.597   9.285 -0.9266 -0.8400  1.4696
30806SOL     OW95948   4.718   2.816  11.011  0.4228  0.1178 -0.2179
30806SOL    HW195949   4.671   2.733  11.017  0.1072  0.2619 -0.6360
30806SOL    HW295950   4.797   2.795  10.962  0.7886 -0.1206  0.4638
30807SOL     OW95951   8.008   0.497   8.281  0.0694  0.0828 -0.3589
30807SOL    HW195952   8.054   0.449   8.212 -0.1742 -1.4469  0.4897
30807SOL    HW295953   8.072   0.561   8.312  1.5276 -1.7051  0.5094
30808SOL     OW95954   8.767   1.972   0.931 -0.2868  0.5267 -0.5864
30808SOL    HW195955   8.749   1.880   0.952  0.2385  0.6204  0.3289
30808SOL    HW295956   8.851   1.990   0.974 -0.1094  1.2842 -1.2262
30809SOL     OW95957   1.874   8.408   3.487  0.0001 -0.1076  0.1430
30809SOL    HW195958   1.924   8.447   3.559 -0.4057 -1.6673  1.3299
30809SOL    HW295959   1.787   8.448   3.494  0.1653  0.2746  0.0517
30810SOL     OW95960  10.555   9.672   1.477  0.6099 -0.0510  0.8472
30810SOL    HW195961  10.608   9.730   1.531  0.9502 -0.9526  1.5050
30810SOL    HW295962  10.550   9.591   1.527  1.4445 -1.1316 -0.7550
30811SOL     OW95963   8.794   7.574   6.733 -0.1659 -0.8942  0.2464
30811SOL    HW195964   8.829   7.640   6.793 -0.4301 -1.8971  1.5550
30811SOL    HW295965   8.809   7.491   6.778 -0.7870 -1.6421 -0.8876
30812SOL     OW95966   0.870   9.230   3.093 -0.2560 -0.0218 -0.3340
30812SOL    HW195967   0.886   9.171   3.020  1.2888 -0.2504  0.1575
30812SOL    HW295968   0.953   9.277   3.105 -0.8563  0.8718  0.5107
30813SOL     OW95969   4.012   4.584   0.199 -0.2134 -0.2499  0.1872
30813SOL    HW195970   4.002   4.605   0.107 -1.0560 -1.5817 -0.0628
30813SOL    HW295971   4.091   4.630   0.227  0.9422 -1.0491 -1.5948
30814SOL     OW95972   7.121   2.657   1.026 -0.1197 -0.1450  0.6309
30814SOL    HW195973   7.116   2.689   0.936 -0.4203  1.4663  1.1927
30814SOL    HW295974   7.055   2.707   1.073 -1.0179 -2.0417  1.4724
30815SOL     OW95975   5.982   7.737   8.934 -0.1167 -0.3192  0.0238
30815SOL    HW195976   5.912   7.679   8.964 -1.1346  1.3258  0.9853
30815SOL    HW295977   5.992   7.801   9.005 -0.1934  1.6534 -1.6362
30816SOL     OW95978   0.062   5.183   8.383 -0.3175 -0.3212  0.2140
30816SOL    HW195979   0.137   5.231   8.349 -0.7802  0.2036 -0.0843
30816SOL    HW295980   0.013   5.157   8.304 -1.9394  1.7608  0.4640
30817SOL     OW95981   0.561   6.265  10.501  0.2354  0.0494 -0.2160
30817SOL    HW195982   0.612   6.338  10.536 -0.5843 -0.2601  1.7698
30817SOL    HW295983   0.471   6.284  10.528 -0.1498 -1.1727 -0.5586
30818SOL     OW95984   4.241   2.319   6.326 -0.6075  0.2526 -0.0280
30818SOL    HW195985   4.304   2.378   6.366 -0.9530  0.5305  0.1148
30818SOL    HW295986   4.162   2.329   6.379 -0.4819 -0.8122  0.3946
30819SOL     OW95987   0.677   9.196   8.020 -0.0638 -0.4317  0.1834
30819SOL    HW195988   0.771   9.182   8.018 -0.1802 -1.8220  2.0362
30819SOL    HW295989   0.639   9.108   8.030 -1.5868  0.0638 -0.8207
30820SOL     OW95990   2.844   7.195   4.011  0.1701 -0.1023 -0.1666
30820SOL    HW195991   2.935   7.211   4.038 -0.0032  0.8223 -0.1028
30820SOL    HW295992   2.813   7.280   3.979 -0.0130 -0.8739 -2.1848
30821SOL     OW95993   3.901   2.648   2.586  0.2448  0.5363 -0.2218
30821SOL    HW195994   3.898   2.643   2.490  0.2404 -0.1256 -0.1920
30821SOL    HW295995   3.819   2.608   2.615  0.0780  1.0683  0.0532
30822SOL     OW95996   8.513   6.908   7.894 -0.0626  0.5559  0.2483
30822SOL    HW195997   8.575   6.977   7.920  0.8389 -0.2196  0.1759
30822SOL    HW295998   8.547   6.875   7.811  0.1641 -0.7717  0.8596
30823SOL     OW95999   5.274  11.104   7.297 -0.0810 -0.3401  0.3052
30823SOL    HW196000   5.186  11.074   7.318  0.2030 -1.1767  0.3064
30823SOL    HW296001   5.288  11.077   7.207  0.1575 -0.1544  0.2837
30824SOL     OW96002   3.689   1.172   7.758 -0.1117 -0.0478 -0.0501
30824SOL    HW196003   3.624   1.120   7.806  1.2616 -1.5622  0.2411
30824SOL    HW296004   3.640   1.248   7.727 -1.8562 -0.7858  0.7562
30825SOL     OW96005   9.452   3.574   1.828 -0.4157 -0.4890  0.2666
30825SOL    HW196006   9.389   3.607   1.892 -1.2741  0.9012 -1.2207
30825SOL    HW296007   9.399   3.551   1.752  0.4538 -3.1136  0.3385
30826SOL     OW96008   2.966   7.989   7.361 -0.0618 -0.0143 -0.3258
30826SOL    HW196009   2.910   7.942   7.300  0.5919 -1.6740  0.2757
30826SOL    HW296010   3.022   7.921   7.400  0.3096  1.1291  1.2786
30827SOL     OW96011   0.152   4.308   0.765  0.3051  0.1207 -0.0712
30827SOL    HW196012   0.061   4.334   0.753  0.5491  1.7231  1.2148
30827SOL    HW296013   0.195   4.386   0.801  1.7380 -1.2015  1.2387
30828SOL     OW96014   8.989   5.427  11.005  0.3122 -0.1083 -0.4455
30828SOL    HW196015   8.894   5.414  11.010  0.4778 -1.2640 -0.0995
30828SOL    HW296016   8.999   5.516  10.971 -0.8935  0.4648  0.6117
30829SOL     OW96017   3.682   9.201   1.749 -0.0417 -0.1291  0.0019
30829SOL    HW196018   3.587   9.190   1.750 -0.1004  0.2400  2.1627
30829SOL    HW296019   3.706   9.217   1.840  2.3189 -1.9889 -0.1650
30830SOL     OW96020   9.522   4.255  10.992  0.3454 -0.6836  0.4067
30830SOL    HW196021   9.534   4.336  11.041  0.8590  0.6366 -1.7565
30830SOL    HW296022   9.462   4.203  11.045 -0.3934  1.3174  1.6339
30831SOL     OW96023   6.876   1.480   5.878  0.0382 -0.2679 -0.4380
30831SOL    HW196024   6.921   1.520   5.953  0.7877 -1.3958 -0.2724
30831SOL    HW296025   6.864   1.553   5.817  0.0457  0.5205  0.4716
30832SOL     OW96026   5.114   2.848   8.923 -0.6485  0.0182  0.0600
30832SOL    HW196027   5.116   2.856   9.019  0.2876  1.4659 -0.0534
30832SOL    HW296028   5.109   2.938   8.892 -0.0489 -0.3940 -1.2886
30833SOL     OW96029   7.123   8.776   9.546 -0.7852 -0.6075  0.4509
30833SOL    HW196030   7.146   8.830   9.621  1.3655 -2.9292  1.6192
30833SOL    HW296031   7.183   8.804   9.477 -0.9338 -0.2643  0.4616
30834SOL     OW96032   0.875   6.560   4.585  0.0686 -0.3272  0.3830
30834SOL    HW196033   0.970   6.550   4.587  0.0037 -1.0083  0.5215
30834SOL    HW296034   0.860   6.649   4.555  0.7736  0.2920  1.7791
30835SOL     OW96035   9.120   8.558   5.373  0.7063  0.2884  0.3256
30835SOL    HW196036   9.103   8.652   5.367  2.1395  0.6526  1.2389
30835SOL    HW296037   9.181   8.540   5.301  0.0074 -0.0622 -0.1847
30836SOL     OW96038   3.489   0.080   4.983 -0.1680 -0.0328 -0.7396
30836SOL    HW196039   3.397   0.106   4.984 -0.3123 -0.4276  1.3336
30836SOL    HW296040   3.532   0.141   5.043  0.5716 -0.9182 -0.3361
30837SOL     OW96041   8.351   9.149   0.021  0.1443  0.5493  0.7912
30837SOL    HW196042   8.290   9.223   0.023 -1.0614 -0.4465  1.4709
30837SOL    HW296043   8.368   9.130   0.113  0.0744 -0.3330  0.6260
30838SOL     OW96044   0.539   3.673  11.112  0.3478  0.4712 -0.1501
30838SOL    HW196045   0.615   3.628  11.075  1.3283  0.7488  1.4153
30838SOL    HW296046   0.495   3.713  11.036  0.9251 -0.9025 -1.2501
30839SOL     OW96047   1.687   2.208   6.302 -0.4355 -0.2151  0.3779
30839SOL    HW196048   1.638   2.288   6.285  2.0969  1.1543 -1.1151
30839SOL    HW296049   1.779   2.234   6.295  0.5040 -3.2026  0.1438
30840SOL     OW96050   6.768   0.194   7.321 -0.2895 -0.2439 -0.1559
30840SOL    HW196051   6.825   0.122   7.348  0.5939  0.6484  0.4233
30840SOL    HW296052   6.828   0.264   7.296 -1.0220 -0.7627 -3.9649
30841SOL     OW96053  10.149   2.091   1.975  0.4012 -0.1976  0.3591
30841SOL    HW196054  10.079   2.152   1.949  0.4580 -0.9466 -1.7775
30841SOL    HW296055  10.103   2.017   2.014 -0.0334 -0.6013 -0.8625
30842SOL     OW96056   5.288  10.961   9.460 -0.7382  0.0524  0.6139
30842SOL    HW196057   5.342  10.882   9.461 -1.7898 -0.6922  0.5479
30842SOL    HW296058   5.247  10.961   9.373 -1.4079  0.2038  0.9265
30843SOL     OW96059   7.428   7.449   6.218  0.2382 -0.0614 -0.0075
30843SOL    HW196060   7.491   7.497   6.271  0.0460  1.0443 -0.7445
30843SOL    HW296061   7.348   7.501   6.223  0.2313  0.0958 -1.3894
30844SOL     OW96062   4.459   5.038   8.489 -0.1405 -0.2160  0.0509
30844SOL    HW196063   4.475   5.048   8.583 -1.3100 -1.0310  0.3549
30844SOL    HW296064   4.364   5.036   8.481 -0.0685 -2.2993 -0.8982
30845SOL     OW96065   6.950   4.911   1.161 -0.5779  0.6908  0.4966
30845SOL    HW196066   7.007   4.983   1.135 -1.9502  0.8611 -2.3937
30845SOL    HW296067   6.863   4.951   1.169 -1.3517 -0.5931 -1.1283
30846SOL     OW96068   9.256   1.459   7.969 -0.4080 -0.0139  0.0962
30846SOL    HW196069   9.238   1.534   7.913  2.6332 -0.5101 -1.7687
30846SOL    HW296070   9.260   1.495   8.058  0.7052  2.0008 -0.7188
30847SOL     OW96071   9.037   0.691   6.575  0.2718 -0.0813  0.2910
30847SOL    HW196072   9.043   0.783   6.601  0.0727  0.1135 -0.3233
30847SOL    HW296073   8.995   0.648   6.649  0.4660  0.3017  0.6319
30848SOL     OW96074   3.354   1.878   8.509 -0.0364 -0.4208 -0.6615
30848SOL    HW196075   3.428   1.819   8.517 -1.5530 -2.1729  2.2417
30848SOL    HW296076   3.373   1.949   8.571 -0.6297 -0.7768 -0.0511
30849SOL     OW96077   7.890   9.481   9.356 -0.3912 -0.0064 -0.0432
30849SOL    HW196078   7.951   9.525   9.415  0.3911  1.2193 -1.6780
30849SOL    HW296079   7.927   9.393   9.344  0.6956  0.4791 -0.4334
30850SOL     OW96080   8.979   8.722   5.043 -0.0748  0.0747  0.0045
30850SOL    HW196081   9.004   8.814   5.049 -0.2237  0.0384  1.4907
30850SOL    HW296082   9.050   8.674   5.085 -0.2783 -0.4439 -0.2308
30851SOL     OW96083   9.843   3.039   1.865 -0.2203  0.1359  0.6716
30851SOL    HW196084   9.914   3.007   1.921  0.2467  1.1852  0.6906
30851SOL    HW296085   9.856   3.133   1.860 -0.2083  0.0795 -1.2461
30852SOL     OW96086  10.543   6.629   1.840 -0.2036 -0.5126  0.1018
30852SOL    HW196087  10.522   6.579   1.762  0.8636  0.0885 -0.6020
30852SOL    HW296088  10.465   6.680   1.858 -0.4086 -0.5538 -0.6616
30853SOL     OW96089   6.395   3.305   3.485  0.1584  0.5465  0.2323
30853SOL    HW196090   6.459   3.376   3.481  1.7617 -0.8727 -0.2913
30853SOL    HW296091   6.413   3.261   3.568 -1.1728  1.0253  0.8008
30854SOL     OW96092   4.485   2.372   7.319 -0.2891 -0.3557  0.2669
30854SOL    HW196093   4.446   2.403   7.401 -1.1896  2.0059 -0.9565
30854SOL    HW296094   4.435   2.416   7.250  0.3239 -2.3838 -1.5939
30855SOL     OW96095  10.281  10.958   8.509 -0.0151 -0.1489  0.0046
30855SOL    HW196096  10.371  10.950   8.542 -0.0431  0.9781  0.4006
30855SOL    HW296097  10.277  10.895   8.438  1.1005 -0.2335 -0.0138
30856SOL     OW96098   1.449   7.582   7.657  0.1008  1.0616 -0.1793
30856SOL    HW196099   1.369   7.531   7.644  0.5661  0.2168  0.2015
30856SOL    HW296100   1.419   7.665   7.696 -0.6970  1.2543 -1.1873
30857SOL     OW96101   5.180   1.176   0.125  0.6172  0.0818  0.5257
30857SOL    HW196102   5.260   1.145   0.083 -0.2649  0.5837 -1.6894
30857SOL    HW296103   5.167   1.264   0.089 -1.7215 -0.5792 -0.4364
30858SOL     OW96104   6.889   0.561   7.269  0.5239  0.3411  0.2886
30858SOL    HW196105   6.878   0.499   7.197 -1.6668  0.3638  0.5465
30858SOL    HW296106   6.955   0.520   7.325 -2.6120 -3.2262  1.8349
30859SOL     OW96107   6.460   0.409   3.433 -0.0806 -0.8902  0.5361
30859SOL    HW196108   6.488   0.418   3.342 -0.1907 -0.2181  0.5646
30859SOL    HW296109   6.517   0.470   3.482 -1.9015  0.9251  0.5280
30860SOL     OW96110   1.620   7.735   4.151  0.7370 -0.7449  0.3807
30860SOL    HW196111   1.629   7.705   4.060  1.4642 -2.4919  0.9735
30860SOL    HW296112   1.711   7.746   4.181  0.4928  0.4615  0.7213
30861SOL     OW96113   6.409   9.357   9.158  0.6603 -0.2063 -0.0551
30861SOL    HW196114   6.419   9.333   9.066  2.0901 -1.7408  0.4625
30861SOL    HW296115   6.400   9.274   9.204  0.3839  0.5188  1.2510
30862SOL     OW96116   9.846   0.825   6.586 -0.3272 -0.6561 -0.0647
30862SOL    HW196117   9.903   0.843   6.661 -1.4193 -0.2266  0.7076
30862SOL    HW296118   9.856   0.901   6.529 -0.4764 -0.3448  0.3123
30863SOL     OW96119   0.984   0.907   1.980  0.1985 -0.6296 -0.7512
30863SOL    HW196120   0.917   0.839   1.989 -0.0733 -0.3742 -0.8362
30863SOL    HW296121   0.973   0.962   2.057 -0.2196 -0.1237 -1.1672
30864SOL     OW96122   4.814   8.932   2.272  1.1349 -0.2802  0.3612
30864SOL    HW196123   4.809   8.913   2.178 -0.0447  1.4823  0.0351
30864SOL    HW296124   4.905   8.958   2.286  0.7509  1.9023 -0.8424
30865SOL     OW96125  10.258   1.022   1.396 -0.1188  0.5329  0.2855
30865SOL    HW196126  10.175   0.981   1.373 -1.8466  4.1487 -0.7097
30865SOL    HW296127  10.281   1.076   1.320  2.4276  0.7368  1.0922
30866SOL     OW96128   5.852   6.197   6.336  0.8177  0.5047  0.7071
30866SOL    HW196129   5.760   6.222   6.329  0.5680 -0.7092 -0.8696
30866SOL    HW296130   5.897   6.279   6.357 -0.3903  1.5049 -0.4171
30867SOL     OW96131   0.723   5.831   3.308 -0.6234  0.4481  0.7275
30867SOL    HW196132   0.641   5.880   3.304 -1.0885 -0.3641  0.1314
30867SOL    HW296133   0.717   5.768   3.237  0.1236 -0.2312  1.2546
30868SOL     OW96134   7.277   8.922   7.009 -0.1058 -1.0798 -0.0519
30868SOL    HW196135   7.221   8.855   7.048  0.5702 -0.9659  1.1624
30868SOL    HW296136   7.233   9.005   7.029 -0.4062 -1.0995 -0.6348
30869SOL     OW96137   6.774   1.732  10.456  0.9946 -0.4141  0.4363
30869SOL    HW196138   6.701   1.707  10.399  1.5924 -3.3582  0.8056
30869SOL    HW296139   6.832   1.784  10.399 -0.0851 -0.3136 -0.6176
30870SOL     OW96140   3.192   4.859   4.754 -0.1080 -0.0972 -1.0119
30870SOL    HW196141   3.121   4.862   4.691 -1.6975  0.9021  0.7149
30870SOL    HW296142   3.160   4.801   4.823  0.8518  0.1756 -0.3177
30871SOL     OW96143   6.765   4.208   9.977 -0.2433 -0.9235 -0.3350
30871SOL    HW196144   6.777   4.265  10.053  0.7434 -1.3919 -0.1201
30871SOL    HW296145   6.785   4.264   9.902 -1.8411 -0.2857 -0.3061
30872SOL     OW96146   5.894  10.104   2.094 -1.1388 -0.9340  0.2614
30872SOL    HW196147   5.891  10.020   2.046 -0.8203 -1.0286  0.4083
30872SOL    HW296148   5.909  10.079   2.185  1.5645 -0.6269 -0.0159
30873SOL     OW96149   0.732   3.771   3.281  0.5206  0.2866 -0.1737
30873SOL    HW196150   0.815   3.724   3.293  0.1777  0.1148  1.8691
30873SOL    HW296151   0.729   3.790   3.188  2.4309 -0.5015 -0.4473
30874SOL     OW96152   6.824   5.237   3.439 -0.0865  0.4299  0.2880
30874SOL    HW196153   6.819   5.329   3.414  1.7591  0.2146 -1.0770
30874SOL    HW296154   6.803   5.236   3.533 -1.2405  2.0644  0.0896
30875SOL     OW96155   8.226   9.971   9.310 -0.1077 -0.6023 -0.1466
30875SOL    HW196156   8.164   9.962   9.238 -0.2886 -0.0563 -0.0642
30875SOL    HW296157   8.259   9.882   9.324  0.2016 -0.6636 -1.1373
30876SOL     OW96158   8.599   9.173   1.496  0.4052  0.3264  0.3936
30876SOL    HW196159   8.517   9.222   1.498  0.8702  1.1221  0.2164
30876SOL    HW296160   8.615   9.149   1.588 -0.3319 -0.3728  0.3536
30877SOL     OW96161   6.602   2.905   1.371  0.2583  0.2877 -0.3536
30877SOL    HW196162   6.586   2.826   1.320 -1.5043  0.8647 -0.7816
30877SOL    HW296163   6.675   2.883   1.428 -0.5831 -1.8660 -0.0112
30878SOL     OW96164   0.815   4.760   1.791  0.1035 -0.6309 -0.0170
30878SOL    HW196165   0.847   4.671   1.806 -0.0602 -1.0340 -1.7847
30878SOL    HW296166   0.868   4.815   1.848  1.4753 -1.6677 -0.2411
30879SOL     OW96167   2.688   5.850   8.170  0.6096 -0.5721 -0.1931
30879SOL    HW196168   2.773   5.808   8.154  1.1047  1.0190 -2.2098
30879SOL    HW296169   2.636   5.827   8.093 -0.4903 -0.7729  0.5970
30880SOL     OW96170   0.305   3.586   6.210  0.2668  0.1918  0.0445
30880SOL    HW196171   0.212   3.589   6.188  0.6921 -0.0502 -1.9944
30880SOL    HW296172   0.308   3.551   6.299 -1.6013  0.7139  0.3477
30881SOL     OW96173   3.550  11.009   7.993 -0.0409 -0.8834  0.3641
30881SOL    HW196174   3.518  10.920   8.009  0.3440 -1.1302 -0.2009
30881SOL    HW296175   3.493  11.044   7.924  0.4876 -1.0971 -0.1958
30882SOL     OW96176   0.656   3.202   8.558 -0.3822  0.6951 -0.3206
30882SOL    HW196177   0.639   3.157   8.641  0.5974  1.5799  0.3880
30882SOL    HW296178   0.666   3.131   8.495  1.4552 -0.1612  0.8405
30883SOL     OW96179   9.378   6.227   9.179 -0.9125  0.5290 -0.2349
30883SOL    HW196180   9.425   6.309   9.190 -0.5709  0.5794 -1.7817
30883SOL    HW296181   9.343   6.206   9.266 -3.0651  3.5155 -0.2269
30884SOL     OW96182   7.342   2.740   0.748 -0.0976  0.3129  0.0725
30884SOL    HW196183   7.399   2.731   0.672 -0.8294  0.3812 -0.4931
30884SOL    HW296184   7.402   2.751   0.822  0.6488 -1.2284 -0.2762
30885SOL     OW96185   7.132   5.176   9.097  0.2476  0.0213  0.6248
30885SOL    HW196186   7.162   5.088   9.075  0.4250 -0.4539  2.5622
30885SOL    HW296187   7.115   5.218   9.013  2.3344 -1.0910 -0.4124
30886SOL     OW96188   5.022  10.916   6.277 -0.1265  0.0924 -0.4042
30886SOL    HW196189   4.932  10.883   6.272  0.1942 -0.6056 -3.3227
30886SOL    HW296190   5.037  10.932   6.370 -2.4422 -2.0745  0.4359
30887SOL     OW96191  10.905   7.849   9.327 -0.2236 -0.1392  0.9003
30887SOL    HW196192  10.942   7.937   9.319 -0.7320 -0.0437 -0.6995
30887SOL    HW296193  10.945   7.813   9.407  2.1144  0.5167  0.0934
30888SOL     OW96194   8.807   4.163   3.304  0.0878 -0.2503 -0.2631
30888SOL    HW196195   8.796   4.179   3.398 -1.1570 -0.6892 -0.3168
30888SOL    HW296196   8.887   4.111   3.298  0.4430  0.1786  0.5103
30889SOL     OW96197   3.066   5.003   4.334  0.1915  1.0422  0.6876
30889SOL    HW196198   3.092   4.994   4.243  0.3268  1.8314  0.6392
30889SOL    HW296199   2.971   5.013   4.331 -0.2163 -1.9626  0.8740
30890SOL     OW96200   3.932   5.271   8.184  0.2093  0.4320  0.2180
30890SOL    HW196201   3.911   5.210   8.255  0.4780 -0.3513 -0.3530
30890SOL    HW296202   4.026   5.261   8.170  0.5584  2.1116  1.1204
30891SOL     OW96203   0.846   2.490   2.052 -0.2774  0.0450 -0.2002
30891SOL    HW196204   0.837   2.400   2.019 -1.5053  1.0279 -2.8667
30891SOL    HW296205   0.764   2.533   2.028  0.0529  1.7646  1.5032
30892SOL     OW96206   6.640   8.151   0.291 -0.4234  0.1906  0.2726
30892SOL    HW196207   6.611   8.072   0.335 -1.4855  0.2119 -0.3374
30892SOL    HW296208   6.569   8.171   0.229  0.5996  0.6515 -0.7902
30893SOL     OW96209   4.244   3.800   8.566  0.4174  1.2802 -0.0926
30893SOL    HW196210   4.282   3.766   8.485  0.9425  1.4790  0.0673
30893SOL    HW296211   4.292   3.881   8.583 -0.9218  2.2034 -0.5526
30894SOL     OW96212   8.200   0.519   7.794  0.1107 -0.5880  0.0337
30894SOL    HW196213   8.199   0.469   7.713 -0.1974 -2.4162  1.1170
30894SOL    HW296214   8.108   0.536   7.813  0.1027 -1.2109  0.5940
30895SOL     OW96215   3.268   1.068   3.239 -0.5756 -0.3694 -0.3588
30895SOL    HW196216   3.325   1.076   3.162 -1.8542  0.6521 -1.2464
30895SOL    HW296217   3.323   1.096   3.312  0.7138 -1.5094 -0.8640
30896SOL     OW96218   9.540   5.637   6.849  0.1389  0.3620  0.2117
30896SOL    HW196219   9.548   5.728   6.818  0.8277  0.2007 -0.1006
30896SOL    HW296220   9.466   5.601   6.799  0.5688  0.4212 -0.4791
30897SOL     OW96221   6.765   7.757   0.141  0.3599  0.0457 -0.0549
30897SOL    HW196222   6.671   7.775   0.134  0.6338  1.1622 -1.2924
30897SOL    HW296223   6.805   7.842   0.156  1.2973 -0.1834 -1.0774
30898SOL     OW96224   8.145   9.506   3.981 -0.1867 -0.0008 -0.2358
30898SOL    HW196225   8.127   9.522   4.073  0.1339 -0.7266 -0.0372
30898SOL    HW296226   8.180   9.417   3.979 -3.6020 -1.4881 -1.4479
30899SOL     OW96227   7.361   3.424   9.867 -0.0453  0.2838 -0.6599
30899SOL    HW196228   7.419   3.351   9.889 -0.6641 -0.5996 -1.8698
30899SOL    HW296229   7.416   3.483   9.815 -0.3952 -0.9389 -2.4996
30900SOL     OW96230   6.487   2.275   5.582 -0.1904 -0.5131 -0.3958
30900SOL    HW196231   6.422   2.312   5.522 -0.1310 -2.0897 -1.5089
30900SOL    HW296232   6.450   2.290   5.669 -1.1785  0.1952 -0.9042
30901SOL     OW96233   6.476   8.498   5.128  0.3147 -0.0197  0.5310
30901SOL    HW196234   6.510   8.501   5.039  0.6069 -0.5928  0.6154
30901SOL    HW296235   6.511   8.576   5.170  1.1215 -0.3432  0.4722
30902SOL     OW96236   5.611   3.910   1.684 -0.1809 -0.0455 -0.2537
30902SOL    HW196237   5.663   3.833   1.663  0.1596  0.3444 -0.8801
30902SOL    HW296238   5.671   3.983   1.672  0.3769  0.2093  3.0694
30903SOL     OW96239   8.503  10.306   6.819  0.4278 -0.0963 -0.2541
30903SOL    HW196240   8.591  10.287   6.850  0.2454 -1.1532 -0.3102
30903SOL    HW296241   8.489  10.243   6.748 -0.8543 -0.8901  0.6540
30904SOL     OW96242   9.350   8.748   5.261 -0.1518  0.3910  0.1129
30904SOL    HW196243   9.418   8.809   5.234 -1.2766  1.7869  0.3176
30904SOL    HW296244   9.268   8.792   5.237 -0.9941 -1.3764 -0.4363
30905SOL     OW96245   6.596   0.604   1.663 -0.2697  0.2507  0.1997
30905SOL    HW196246   6.528   0.537   1.666 -0.0480  0.0456  0.9031
30905SOL    HW296247   6.629   0.601   1.573 -0.5953 -0.2470  0.0921
30906SOL     OW96248   4.771   0.475   1.648  1.0620  0.2736  0.1364
30906SOL    HW196249   4.816   0.525   1.717  1.1077  0.0612  0.2601
30906SOL    HW296250   4.740   0.542   1.586  2.6149  0.3413 -0.5946
30907SOL     OW96251   0.972   4.024   9.141  0.3312 -0.1657  0.8132
30907SOL    HW196252   0.919   4.096   9.175  1.4996  1.6079 -0.8984
30907SOL    HW296253   1.055   4.065   9.117  0.9480 -2.0395 -0.4687
30908SOL     OW96254   3.239   5.474   3.838 -0.1754  0.6609 -0.8633
30908SOL    HW196255   3.150   5.470   3.802  0.0434  0.0611 -1.3471
30908SOL    HW296256   3.240   5.405   3.905 -1.0655  2.7385  1.4778
30909SOL     OW96257   0.990   7.894   9.202  0.2048  0.2045 -0.2238
30909SOL    HW196258   1.033   7.840   9.268  0.3173  0.8313  0.2185
30909SOL    HW296259   0.935   7.832   9.153  1.2271 -0.5228 -0.5000
30910SOL     OW96260   9.804   8.965   8.497 -0.4607 -0.2742 -0.4309
30910SOL    HW196261   9.808   8.877   8.461 -2.2978 -0.7606  0.4567
30910SOL    HW296262   9.711   8.987   8.498 -0.1028  1.3899  0.0701
30911SOL     OW96263   3.327   0.608   8.308 -0.2583 -0.2880  0.0557
30911SOL    HW196264   3.253   0.547   8.301 -0.5513  0.1840 -1.4078
30911SOL    HW296265   3.401   0.561   8.269 -0.5683  0.3855 -1.3972
30912SOL     OW96266  10.380  10.376   7.205 -0.0862  0.5264  0.3310
30912SOL    HW196267  10.406  10.346   7.292 -0.5578  0.7698  0.5559
30912SOL    HW296268  10.285  10.364   7.202 -0.0041 -0.0288 -0.3645
30913SOL     OW96269   5.213   2.894  10.690 -0.4961  0.4648 -0.0060
30913SOL    HW196270   5.144   2.880  10.626 -2.6877 -2.1120  2.6702
30913SOL    HW296271   5.171   2.944  10.760  0.8213  0.3128  0.9326
30914SOL     OW96272   5.140   6.721   5.184  0.2616 -0.1594 -0.7599
30914SOL    HW196273   5.061   6.703   5.235  0.5848 -0.4027 -0.3402
30914SOL    HW296274   5.109   6.734   5.094 -0.4232  1.1542 -0.3648
30915SOL     OW96275   3.161   9.112   8.015 -0.4053 -0.2035 -0.3611
30915SOL    HW196276   3.188   9.093   7.925 -0.7507 -0.1335 -0.4793
30915SOL    HW296277   3.228   9.172   8.047 -0.6116  0.2481 -0.7702
30916SOL     OW96278   4.188  10.600  10.866  0.0935 -0.6798  0.6683
30916SOL    HW196279   4.185  10.578  10.772  1.3528 -1.7980  0.8573
30916SOL    HW296280   4.162  10.692  10.870  2.2504  0.1021 -1.0412
30917SOL     OW96281   5.744   7.037   0.863 -0.1510  0.2646 -0.2822
30917SOL    HW196282   5.650   7.019   0.854  0.0819 -0.6094 -1.0181
30917SOL    HW296283   5.771   6.986   0.939  0.0026 -0.5540 -0.8833
30918SOL     OW96284   9.724   4.534   3.790 -0.6396 -0.6280 -0.1157
30918SOL    HW196285   9.757   4.476   3.721 -0.0069 -1.0870  0.5538
30918SOL    HW296286   9.629   4.522   3.789 -0.5169 -1.7166  0.0321
30919SOL     OW96287   1.811   8.849   9.265  0.3710 -0.0640  0.2902
30919SOL    HW196288   1.858   8.781   9.216  2.0579  1.0909  0.2366
30919SOL    HW296289   1.791   8.807   9.349  0.4501 -0.9581 -0.1218
30920SOL     OW96290   1.745   7.819   6.788  0.1067  0.0772 -0.2001
30920SOL    HW196291   1.701   7.767   6.855 -1.4936 -0.5628 -1.6805
30920SOL    HW296292   1.833   7.834   6.824 -0.4242 -0.9040  1.6681
30921SOL     OW96293   0.908   1.030   2.349  0.4773  0.0926 -0.0852
30921SOL    HW196294   0.919   0.935   2.356  0.0401  0.0507  0.1019
30921SOL    HW296295   0.873   1.043   2.261 -2.6963 -0.2692  0.9771
30922SOL     OW96296  10.586   5.071   3.666  0.9481 -0.4288  0.4821
30922SOL    HW196297  10.597   4.992   3.613 -1.1125 -0.7006  0.3782
30922SOL    HW296298  10.626   5.050   3.751 -1.1517 -2.2940  1.0746
30923SOL     OW96299   6.777   4.230   8.128  0.1648  0.0907 -0.1606
30923SOL    HW196300   6.785   4.278   8.210  1.4912 -0.3197 -0.0344
30923SOL    HW296301   6.784   4.138   8.154  2.5894  0.0059 -0.9038
30924SOL     OW96302  10.171   4.734   2.169 -0.1696  0.3819 -0.5406
30924SOL    HW196303  10.130   4.801   2.223  0.8335  1.1471 -0.7182
30924SOL    HW296304  10.226   4.782   2.108  2.5019 -0.6717  0.8908
30925SOL     OW96305   7.102   2.548   8.466 -0.4209 -0.4587  0.9674
30925SOL    HW196306   7.152   2.485   8.518  1.7528  0.2591 -0.1017
30925SOL    HW296307   7.169   2.598   8.419 -2.1807  0.7517 -0.3885
30926SOL     OW96308   1.326   0.956   6.174  0.3813  0.1674  0.0763
30926SOL    HW196309   1.317   1.050   6.154 -1.3812 -0.1228 -0.5989
30926SOL    HW296310   1.398   0.927   6.117  0.0303  0.8237 -0.7249
30927SOL     OW96311   4.348   0.160   1.042  0.8535 -0.3909  0.1361
30927SOL    HW196312   4.341   0.072   1.005  0.7217  0.0421 -0.9176
30927SOL    HW296313   4.424   0.156   1.101  0.7178 -1.2555  0.2646
30928SOL     OW96314   6.524   3.834   7.714 -0.0536 -0.0139 -0.4040
30928SOL    HW196315   6.429   3.818   7.712 -0.1606  0.1242  1.4218
30928SOL    HW296316   6.532   3.927   7.738  0.5517  0.1187 -1.0952
30929SOL     OW96317   8.329   4.896   4.449 -0.5824  0.2886 -0.5272
30929SOL    HW196318   8.365   4.982   4.426 -1.7072  0.6233 -1.0706
30929SOL    HW296319   8.239   4.913   4.474 -0.4810 -0.5918  0.4955
30930SOL     OW96320  10.049   7.910   4.074  0.5403 -0.0304  0.1597
30930SOL    HW196321  10.052   7.823   4.034 -1.3861 -0.0051 -0.1316
30930SOL    HW296322  10.075   7.970   4.004 -1.3033 -0.1267 -0.6757
30931SOL     OW96323   5.961   9.107  10.413 -0.4695  0.0148  0.4482
30931SOL    HW196324   6.011   9.041  10.462  1.1877  0.8041 -0.0978
30931SOL    HW296325   5.875   9.107  10.454 -0.2127 -1.8006  1.0831
30932SOL     OW96326   1.826  10.412   6.227 -0.2257 -0.3869 -0.5080
30932SOL    HW196327   1.867  10.449   6.149 -0.5105  0.7067 -0.1572
30932SOL    HW296328   1.742  10.457   6.233  0.3352  0.5210  1.1558
30933SOL     OW96329   1.749   3.917   1.238 -0.3879  0.0409 -0.1910
30933SOL    HW196330   1.707   3.847   1.187 -0.4196  0.5332 -0.8475
30933SOL    HW296331   1.784   3.872   1.315 -0.4464 -0.6972 -0.5838
30934SOL     OW96332   7.270   4.949   2.096 -0.1854 -0.4551  0.0542
30934SOL    HW196333   7.251   4.939   2.003 -0.5445 -2.3370  0.2971
30934SOL    HW296334   7.218   5.025   2.123 -0.0239  0.1490 -1.2826
30935SOL     OW96335   3.361   1.320   2.911  0.8735  0.3928  0.2513
30935SOL    HW196336   3.299   1.252   2.887  1.7517 -0.4190  0.2202
30935SOL    HW296337   3.308   1.387   2.954  0.0264 -0.4298  0.5202
30936SOL     OW96338   8.409   2.976   7.934 -0.4615 -0.1938  0.1888
30936SOL    HW196339   8.456   2.913   7.880 -0.3657  0.8265 -0.9720
30936SOL    HW296340   8.341   2.924   7.978  0.6207 -1.3675  0.5316
30937SOL     OW96341   0.900   1.382   7.663  0.0180  0.3853 -0.4243
30937SOL    HW196342   0.835   1.312   7.658  0.7740 -0.3129 -0.7633
30937SOL    HW296343   0.940   1.383   7.576  0.7514  0.5159 -0.0914
30938SOL     OW96344   0.349   1.913   1.851  1.0385  0.2670  0.8850
30938SOL    HW196345   0.291   1.942   1.921 -1.4392 -1.7373 -0.1675
30938SOL    HW296346   0.398   1.991   1.825 -0.1888  1.7365  2.7661
30939SOL     OW96347   5.062   4.710   6.545 -0.3638  0.3759  0.2557
30939SOL    HW196348   5.099   4.669   6.623  0.1429  1.3171  0.5252
30939SOL    HW296349   4.973   4.673   6.539 -0.3357  0.1218  1.1460
30940SOL     OW96350  10.141   6.780   0.105 -0.1667  0.4912 -0.5421
30940SOL    HW196351  10.062   6.808   0.151 -2.2892 -2.4165 -2.0701
30940SOL    HW296352  10.189   6.727   0.169 -1.0908 -0.2969 -0.4811
30941SOL     OW96353   7.894   4.539   1.655  0.3771  0.5186  0.2445
30941SOL    HW196354   7.872   4.541   1.748 -0.5471 -1.0488  0.0925
30941SOL    HW296355   7.971   4.483   1.650 -0.3242 -0.4372 -0.0506
30942SOL     OW96356   5.010   1.287   0.435 -0.2086  0.4930  0.4287
30942SOL    HW196357   5.039   1.227   0.504 -0.0692 -0.1517 -0.1784
30942SOL    HW296358   4.921   1.312   0.461 -0.6631 -0.7726  0.1876
30943SOL     OW96359   7.656   8.992   2.171  0.5694 -0.1793  0.2625
30943SOL    HW196360   7.672   9.042   2.092  1.1263 -0.8262 -0.0417
30943SOL    HW296361   7.561   8.977   2.171  0.3077  1.3404  0.6623
30944SOL     OW96362   9.155   6.070   9.918 -0.2506 -0.0883  0.6126
30944SOL    HW196363   9.105   6.036   9.844 -0.9195 -0.6596  1.3068
30944SOL    HW296364   9.238   6.021   9.915 -0.4593 -0.4392  0.5096
30945SOL     OW96365   6.836   7.996   4.210  0.0805  0.5183 -0.0726
30945SOL    HW196366   6.892   7.919   4.215 -0.2338  0.2464 -0.6178
30945SOL    HW296367   6.882   8.063   4.260 -0.3389 -0.4340  1.6792
30946SOL     OW96368  10.277   6.218   2.991  0.4392  0.6868  0.3561
30946SOL    HW196369  10.189   6.179   2.989 -0.0177  1.6823 -0.7195
30946SOL    HW296370  10.336   6.144   3.004 -0.4634 -0.2111 -0.4197
30947SOL     OW96371   0.962   2.482   9.845 -0.2778  0.4387 -0.1327
30947SOL    HW196372   0.980   2.575   9.827 -1.2892  0.5664 -0.5598
30947SOL    HW296373   0.889   2.461   9.787  0.3366 -0.7970 -0.4796
30948SOL     OW96374   0.451   9.186   4.194 -0.6210 -0.4193  0.1553
30948SOL    HW196375   0.473   9.204   4.285  1.5833 -2.1902  0.0629
30948SOL    HW296376   0.493   9.256   4.144 -2.4082  0.9452  0.4810
30949SOL     OW96377   9.178   9.505  10.066  0.0627 -0.2812  0.1061
30949SOL    HW196378   9.085   9.504  10.047 -0.5656 -1.3941  2.8059
30949SOL    HW296379   9.197   9.596  10.092  0.1919  0.3821 -2.1192
30950SOL     OW96380   4.001  11.118   2.620  0.2176  0.2339 -0.0020
30950SOL    HW196381   3.945  11.196   2.621 -0.6313 -0.3716  0.1266
30950SOL    HW296382   3.943  11.046   2.596  1.2111 -0.2105 -1.1984
30951SOL     OW96383  11.080   1.805   1.233 -0.4649  0.2530  0.6993
30951SOL    HW196384  11.031   1.886   1.248 -0.3031  0.5470 -0.2737
30951SOL    HW296385  11.033   1.739   1.284 -2.4127  0.3636 -0.8210
30952SOL     OW96386   6.863   2.767   6.167  0.2508  0.4946  0.0388
30952SOL    HW196387   6.788   2.741   6.220  0.1454  0.3014 -0.2052
30952SOL    HW296388   6.849   2.860   6.149  0.1581  0.4996  0.1364
30953SOL     OW96389   1.348   5.020   7.307 -0.3302 -0.5008 -0.3908
30953SOL    HW196390   1.272   4.963   7.310 -0.6014 -0.1480 -0.4783
30953SOL    HW296391   1.339   5.078   7.383 -0.0008 -0.6420 -0.2405
30954SOL     OW96392   5.292   3.103   6.308 -0.2953  0.1457  0.4626
30954SOL    HW196393   5.367   3.163   6.305  0.2110 -0.4656  0.5989
30954SOL    HW296394   5.295   3.057   6.224 -0.8692  0.5278  0.2285
30955SOL     OW96395   3.473   5.769   6.995  0.4671  0.0501  0.3100
30955SOL    HW196396   3.525   5.823   6.936  0.0184 -0.1901 -0.3104
30955SOL    HW296397   3.525   5.764   7.076  0.3373  1.7412  0.5315
30956SOL     OW96398   6.617  10.897   2.680 -0.3485  0.4871  0.3492
30956SOL    HW196399   6.555  10.879   2.750 -2.1089  2.8959 -0.4488
30956SOL    HW296400   6.701  10.906   2.724 -1.0284 -0.0986  1.8411
30957SOL     OW96401   7.215   5.924   5.068 -0.1256  0.1593 -0.0092
30957SOL    HW196402   7.129   5.963   5.085 -0.2413 -0.2289  0.3008
30957SOL    HW296403   7.239   5.881   5.150  0.5142  0.5381  0.0109
30958SOL     OW96404  10.582   0.374   0.868  0.5638  0.2638 -0.2399
30958SOL    HW196405  10.624   0.443   0.920 -0.0089 -0.0027  0.6014
30958SOL    HW296406  10.652   0.338   0.814  1.5222 -0.4220  1.3944
30959SOL     OW96407   6.129   7.306   5.714 -0.0605  0.6175  0.0399
30959SOL    HW196408   6.175   7.373   5.664  0.9142 -0.7291 -0.9369
30959SOL    HW296409   6.061   7.354   5.761  0.0984  2.1727 -1.2237
30960SOL     OW96410   8.837   6.441   8.856  0.3935  0.0484 -0.0340
30960SOL    HW196411   8.820   6.522   8.903 -0.1012  0.6093 -1.1361
30960SOL    HW296412   8.788   6.374   8.903 -1.0951  0.8120 -0.4620
30961SOL     OW96413   9.498   9.399   6.706  0.8123 -0.3781  0.4751
30961SOL    HW196414   9.490   9.304   6.708  0.5223 -0.4726 -2.0087
30961SOL    HW296415   9.408   9.430   6.697  1.0181  0.0213 -0.2892
30962SOL     OW96416   9.935   2.198   2.886  0.3878 -0.5562  0.4283
30962SOL    HW196417   9.843   2.197   2.914 -0.0997 -0.5739 -1.1013
30962SOL    HW296418   9.980   2.248   2.954 -0.7728 -0.4312  1.1329
30963SOL     OW96419   2.401   1.229   1.800 -0.7903 -0.0939  0.6992
30963SOL    HW196420   2.359   1.210   1.716 -1.5016 -0.9557  1.2362
30963SOL    HW296421   2.352   1.177   1.864  0.2463 -0.0770  1.5380
30964SOL     OW96422   5.518   0.563   6.493  0.1342 -0.1029 -0.2583
30964SOL    HW196423   5.583   0.585   6.561 -1.5015  0.8176  1.0894
30964SOL    HW296424   5.567   0.567   6.411  1.9220 -0.0852  0.7464
30965SOL     OW96425   5.617   8.443   0.587  0.2373 -0.2778 -0.3026
30965SOL    HW196426   5.639   8.495   0.509  1.5203 -0.5093 -0.1202
30965SOL    HW296427   5.675   8.367   0.582  0.0205 -0.5188  0.6454
30966SOL     OW96428   6.263   1.830   0.304  0.3777  0.0068 -0.0264
30966SOL    HW196429   6.174   1.862   0.286 -0.4957 -1.5279  1.3040
30966SOL    HW296430   6.291   1.878   0.381  0.2175 -0.3684  0.2666
30967SOL     OW96431   3.385   6.693   2.989  0.4181 -0.1489  0.0538
30967SOL    HW196432   3.412   6.707   3.080 -0.8189  0.5915  0.3349
30967SOL    HW296433   3.464   6.713   2.938  1.1956 -0.7977  0.9630
30968SOL     OW96434   2.104   9.024   4.839 -0.2868  0.0154  0.1408
30968SOL    HW196435   2.042   8.987   4.776  0.7373  0.9975 -1.5115
30968SOL    HW296436   2.059   9.101   4.874 -0.6994 -0.2977  0.3109
30969SOL     OW96437  11.004   6.978   7.058  0.2512  0.2756 -0.5033
30969SOL    HW196438  10.952   6.899   7.043  1.5102 -0.5191 -0.8067
30969SOL    HW296439  10.939   7.047   7.072 -0.8773 -0.8057 -0.2182
30970SOL     OW96440   3.817  10.649   1.731  0.3137 -0.8577 -0.0483
30970SOL    HW196441   3.751  10.707   1.767  0.7507 -0.9757  0.9578
30970SOL    HW296442   3.862  10.613   1.807  2.5633  0.3815 -0.7299
30971SOL     OW96443  10.810   3.388   6.128  0.9952 -0.0158 -0.4568
30971SOL    HW196444  10.731   3.333   6.129  1.6951 -1.0823  1.2565
30971SOL    HW296445  10.786   3.466   6.177  1.0689 -0.4779  0.3316
30972SOL     OW96446   0.881   1.759   6.901  0.0038 -0.1798 -0.2149
30972SOL    HW196447   0.952   1.804   6.947  0.0329 -0.7223  0.2780
30972SOL    HW296448   0.884   1.796   6.812  0.8760 -0.1596 -0.1907
30973SOL     OW96449   5.173   5.820   2.599  0.0400 -0.4743 -0.3620
30973SOL    HW196450   5.163   5.899   2.546 -1.0440  0.1964  0.7801
30973SOL    HW296451   5.265   5.819   2.625  0.3684 -0.3253 -1.4738
30974SOL     OW96452   9.157   9.157   9.036 -0.3492  0.4862  0.2783
30974SOL    HW196453   9.095   9.161   8.962  2.6649  1.5291 -2.4432
30974SOL    HW296454   9.172   9.064   9.049 -1.9540  0.2412  0.5443
30975SOL     OW96455   6.111   6.327   7.301 -0.4041 -0.2313 -0.9548
30975SOL    HW196456   6.190   6.298   7.346 -0.6695  1.5783  0.8311
30975SOL    HW296457   6.047   6.259   7.318 -0.0648 -0.2798  0.2118
30976SOL     OW96458   5.397   5.622   4.270  0.0209  0.8575  0.0669
30976SOL    HW196459   5.418   5.620   4.177 -1.1851 -2.9633 -0.3019
30976SOL    HW296460   5.482   5.631   4.314  0.5190  3.8729 -1.2783
30977SOL     OW96461   8.260   2.982  10.797  0.1401  0.2273 -0.5257
30977SOL    HW196462   8.242   2.975  10.703  0.1366 -0.9196 -0.4588
30977SOL    HW296463   8.200   2.920  10.838  1.5697 -0.8384  0.0360
30978SOL     OW96464   2.787   5.225   1.605  0.4432  0.0719  0.2833
30978SOL    HW196465   2.747   5.293   1.658 -1.0557  0.7502 -1.6068
30978SOL    HW296466   2.793   5.149   1.663 -0.9383  0.8385  1.4683
30979SOL     OW96467   8.871   4.302   9.933  0.1850 -0.5553  0.6728
30979SOL    HW196468   8.903   4.322   9.845 -0.5745  0.3311  0.5841
30979SOL    HW296469   8.941   4.251   9.973  0.0231 -2.0976 -0.8790
30980SOL     OW96470   2.249   5.048   3.289 -0.1012  0.0934  0.7846
30980SOL    HW196471   2.331   5.001   3.275 -0.5574 -0.0977 -1.7251
30980SOL    HW296472   2.196   4.987   3.341  1.1305  0.0274  2.0228
30981SOL     OW96473   4.084   9.808   6.539 -0.3070  0.0645 -0.3401
30981SOL    HW196474   4.038   9.770   6.464 -0.0146  1.2484 -1.1558
30981SOL    HW296475   4.163   9.755   6.548 -0.2605  0.0150 -0.9884
30982SOL     OW96476   4.968   4.656   0.954  0.4353 -0.0946 -0.2023
30982SOL    HW196477   4.976   4.664   0.858 -0.5836  0.2821 -0.2680
30982SOL    HW296478   5.020   4.729   0.988 -0.6677  0.8708 -0.5325
30983SOL     OW96479  10.438   0.171   4.246 -0.6131 -1.0225 -0.8114
30983SOL    HW196480  10.419   0.219   4.327  0.8838 -0.0390 -1.0047
30983SOL    HW296481  10.354   0.166   4.201 -1.4811 -1.5670  0.7770
30984SOL     OW96482   0.192   6.032   0.626  0.1175  0.0975  0.2567
30984SOL    HW196483   0.221   5.944   0.601 -1.4359 -0.4476  0.2807
30984SOL    HW296484   0.145   6.019   0.708 -0.0016  0.9786  0.3342
30985SOL     OW96485   4.597   6.997   0.000  0.0231 -0.3909  0.1902
30985SOL    HW196486   4.684   6.988   0.039 -1.0574 -1.9573  2.5249
30985SOL    HW296487   4.539   6.949   0.060 -2.4241  0.3752 -1.3966
30986SOL     OW96488   0.134   4.489   7.043 -0.2591 -0.3618  0.0891
30986SOL    HW196489   0.123   4.491   7.138  0.0742  1.7074  0.1331
30986SOL    HW296490   0.226   4.509   7.030 -0.8180  2.0333 -0.6769
30987SOL     OW96491  10.740   2.125   0.220 -0.0514  0.0868 -0.1107
30987SOL    HW196492  10.770   2.086   0.302  0.6942 -0.5564 -0.6746
30987SOL    HW296493  10.691   2.056   0.176  0.0228  0.2490 -0.4573
30988SOL     OW96494   9.773   8.047  10.883  0.0498  0.4925  0.5485
30988SOL    HW196495   9.839   7.982  10.909 -1.5546 -1.3702  0.2573
30988SOL    HW296496   9.751   8.024  10.792 -1.0886  0.9475  0.6831
30989SOL     OW96497   6.081   7.919   0.243  0.0301  0.5298 -0.1971
30989SOL    HW196498   6.095   7.832   0.281 -1.9767  1.0890  2.0736
30989SOL    HW296499   6.036   7.903   0.161 -1.6769 -0.5978  0.9034
30990SOL     OW96500   3.513   0.531   5.611  0.4138  0.1634 -0.2129
30990SOL    HW196501   3.447   0.492   5.669 -1.5805  1.4371 -1.5011
30990SOL    HW296502   3.511   0.624   5.632  2.0048  0.2050 -0.1450
30991SOL     OW96503   9.635   5.875   4.543 -0.0685  0.2700 -0.0712
30991SOL    HW196504   9.700   5.946   4.538  0.3902 -0.2219 -1.7436
30991SOL    HW296505   9.680   5.799   4.506 -1.2493 -0.3767 -0.2212
30992SOL     OW96506   7.855   8.347  10.905 -0.1787 -0.0569 -0.0520
30992SOL    HW196507   7.892   8.430  10.934 -0.0067  0.1080 -0.7338
30992SOL    HW296508   7.791   8.324  10.972 -0.3251  0.6992  0.0662
30993SOL     OW96509   3.885   7.476   5.748 -0.1746  0.5314 -0.1608
30993SOL    HW196510   3.822   7.547   5.760 -0.8289  0.1699 -1.3222
30993SOL    HW296511   3.909   7.450   5.837 -1.3519  0.9588  0.3037
30994SOL     OW96512  10.640   2.067   6.255 -0.0023 -0.1388  0.3956
30994SOL    HW196513  10.652   1.972   6.258  0.6846 -0.0439  0.6728
30994SOL    HW296514  10.567   2.084   6.315  1.2013 -0.2809  1.9367
30995SOL     OW96515   0.034   4.301   9.290  0.1818 -0.1911  0.0849
30995SOL    HW196516   0.044   4.385   9.336 -0.2624  0.8818 -1.6668
30995SOL    HW296517  -0.025   4.321   9.217 -0.7891 -2.3023  0.2221
30996SOL     OW96518   8.805   4.288   0.975 -0.4471  0.1635  0.2504
30996SOL    HW196519   8.849   4.212   1.013 -0.0358 -0.4725 -1.4214
30996SOL    HW296520   8.862   4.316   0.903 -1.4801  0.9454 -0.2928
30997SOL     OW96521   8.220   3.136   3.258 -0.3168  0.0859 -0.0007
30997SOL    HW196522   8.189   3.114   3.170 -2.1350 -2.7480  1.2104
30997SOL    HW296523   8.160   3.205   3.288  0.2469  0.9914 -0.8955
30998SOL     OW96524   0.961   6.483   2.008 -0.6983 -0.6422  0.0711
30998SOL    HW196525   1.055   6.486   2.027 -0.5549 -0.6070 -0.6502
30998SOL    HW296526   0.926   6.424   2.076  0.0501 -1.7637 -0.4816
30999SOL     OW96527   5.022   0.919   5.963  0.4663  0.7978  0.0402
30999SOL    HW196528   4.966   0.977   6.014  0.7254  2.0843 -1.0760
30999SOL    HW296529   4.999   0.937   5.872  0.3709 -1.0667 -0.3419
31000SOL     OW96530   6.755   3.885   8.203 -0.6690 -0.0961 -0.5258
31000SOL    HW196531   6.691   3.841   8.259 -0.7198  0.5922 -0.0201
31000SOL    HW296532   6.807   3.938   8.264  1.1423 -1.5027 -0.7628
31001SOL     OW96533   7.295   3.936   3.724 -0.5393 -0.0976  0.3130
31001SOL    HW196534   7.244   3.980   3.792 -2.9752 -2.6726  0.3531
31001SOL    HW296535   7.320   3.852   3.762  0.2422 -0.5497 -1.1076
31002SOL     OW96536   0.473   3.014   9.207 -0.4430  0.1639 -0.5809
31002SOL    HW196537   0.533   3.089   9.212 -0.4413  0.1270  2.9851
31002SOL    HW296538   0.529   2.938   9.220 -0.5391 -0.4915 -3.5197
31003SOL     OW96539   5.466   3.706   0.412  0.0844 -0.0926  0.0014
31003SOL    HW196540   5.466   3.721   0.317 -0.9172  0.0007 -0.0045
31003SOL    HW296541   5.375   3.723   0.438  0.4202  0.1990  1.0333
31004SOL     OW96542   2.484   9.099   9.760 -0.0586  0.0459  0.5747
31004SOL    HW196543   2.400   9.081   9.717  0.2321 -0.1528  0.0945
31004SOL    HW296544   2.539   9.137   9.692  0.9198 -1.7096  0.3242
31005SOL     OW96545   5.121   8.800   8.662 -0.0679  0.2903  0.1714
31005SOL    HW196546   5.215   8.805   8.675 -0.2501  0.6291  1.5068
31005SOL    HW296547   5.106   8.839   8.576  1.0628 -0.3577 -0.3360
31006SOL     OW96548   5.148   1.269   2.566  0.6141 -0.0659 -0.1922
31006SOL    HW196549   5.176   1.277   2.657 -0.3371  0.7400  0.0460
31006SOL    HW296550   5.229   1.277   2.515  1.3342 -1.7688  0.6000
31007SOL     OW96551   9.050   7.135   1.390 -0.2186  0.0290  0.2887
31007SOL    HW196552   9.122   7.197   1.397 -0.1881  0.1313 -0.8580
31007SOL    HW296553   9.084   7.063   1.338 -0.9955  0.1648 -0.4272
31008SOL     OW96554  10.211   8.502   2.269  0.2036  0.7346 -0.3888
31008SOL    HW196555  10.161   8.434   2.223  1.3637  0.4527 -1.2739
31008SOL    HW296556  10.287   8.457   2.304 -0.6571  0.9230  1.9518
31009SOL     OW96557   0.826   2.773   5.535 -0.3494  0.8587  0.2784
31009SOL    HW196558   0.816   2.685   5.497 -0.9673  0.9623  0.1778
31009SOL    HW296559   0.874   2.760   5.616  0.4172  0.5475 -0.2106
31010SOL     OW96560   6.636   1.375   4.785 -0.5879  0.3163 -0.8551
31010SOL    HW196561   6.629   1.406   4.875 -1.4073  0.0223 -0.8091
31010SOL    HW296562   6.563   1.418   4.739 -1.4856 -1.1830 -0.8845
31011SOL     OW96563   9.021  10.902   9.174 -0.2263  0.1508  0.1893
31011SOL    HW196564   9.038  10.809   9.160 -0.3443  0.2803 -0.9187
31011SOL    HW296565   8.993  10.908   9.265 -1.2264 -1.0589 -0.0072
31012SOL     OW96566   0.517   8.707   3.606 -0.3619 -0.0343 -0.2124
31012SOL    HW196567   0.523   8.637   3.672 -1.6376  0.3710  0.3688
31012SOL    HW296568   0.580   8.773   3.635  0.8188 -0.8954 -0.7390
31013SOL     OW96569   2.565   8.732   9.728  0.0012 -0.5102  0.3806
31013SOL    HW196570   2.510   8.664   9.766 -0.1375  1.1459  3.4686
31013SOL    HW296571   2.622   8.759   9.800  0.9397  1.7520 -1.1094
31014SOL     OW96572   8.815   3.657   3.129  0.8290  0.5935  0.0932
31014SOL    HW196573   8.742   3.613   3.084  1.0427 -1.1909  1.3988
31014SOL    HW296574   8.793   3.750   3.124 -1.4504  0.1290  0.2906
31015SOL     OW96575   8.217   2.036   4.969  0.3316 -0.6700  0.4515
31015SOL    HW196576   8.224   2.122   4.930 -0.4745  0.8880  3.4425
31015SOL    HW296577   8.192   2.052   5.060  0.1678 -4.0613  1.1635
31016SOL     OW96578   2.430   2.979   2.951  0.1528 -0.2964 -0.9098
31016SOL    HW196579   2.426   3.037   3.028  0.6338 -0.0364 -1.0764
31016SOL    HW296580   2.364   3.014   2.892  0.2893 -0.0491 -0.9174
31017SOL     OW96581   0.745   9.124  10.463  0.6012 -0.0728  0.2803
31017SOL    HW196582   0.682   9.083  10.403  0.0739 -1.8929  1.9706
31017SOL    HW296583   0.831   9.097  10.431  0.5736  1.7188 -1.5362
31018SOL     OW96584   8.328   0.268   7.770  0.2800  0.2563  0.0904
31018SOL    HW196585   8.319   0.213   7.848  0.7679  0.3778  0.2372
31018SOL    HW296586   8.299   0.354   7.798 -1.4382 -0.1272 -0.4098
31019SOL     OW96587   6.316   9.812  10.183 -0.1025  0.9000 -0.2151
31019SOL    HW196588   6.372   9.873  10.133  0.9063  0.2689  0.1050
31019SOL    HW296589   6.300   9.858  10.266 -1.0568  1.5811 -0.7627
31020SOL     OW96590   3.376   4.025  10.610 -0.0292  0.1920  0.4805
31020SOL    HW196591   3.395   3.987  10.696  0.1016 -0.0394  0.3519
31020SOL    HW296592   3.350   4.115  10.628  0.4652  0.2882  0.7193
31021SOL     OW96593   9.334   9.989   8.932 -0.3040 -0.0021  0.1051
31021SOL    HW196594   9.375   9.978   8.846  1.2206 -0.1573  0.8079
31021SOL    HW296595   9.307   9.900   8.956 -2.3898  0.2926 -0.9461
31022SOL     OW96596   3.831   8.787   8.922  0.6834  0.1674 -0.4488
31022SOL    HW196597   3.779   8.780   9.002 -0.9158 -0.7365 -1.5051
31022SOL    HW296598   3.919   8.810   8.952 -0.4677  2.6700  1.3805
31023SOL     OW96599   1.228   9.999   7.080 -0.6521 -0.0338 -0.1521
31023SOL    HW196600   1.297   9.966   7.137 -0.2595  0.3703 -0.3925
31023SOL    HW296601   1.149   9.997   7.135 -0.4201 -0.3284  0.1750
31024SOL     OW96602   9.236   8.337   0.971  0.1493 -0.0241  0.4054
31024SOL    HW196603   9.319   8.342   1.018  0.6815 -0.1081 -0.5143
31024SOL    HW296604   9.248   8.267   0.907 -0.6015  0.0191  0.2072
31025SOL     OW96605   2.152   9.738   5.459 -0.5542 -0.1959  0.4641
31025SOL    HW196606   2.073   9.788   5.441  0.2988  1.0485  0.0609
31025SOL    HW296607   2.144   9.660   5.404 -1.7149 -0.3259  0.7999
31026SOL     OW96608   3.001   6.834   1.591 -0.0530 -0.1761  0.0361
31026SOL    HW196609   3.027   6.918   1.628  1.6596  0.5754 -2.5834
31026SOL    HW296610   2.971   6.855   1.502  1.8054 -2.4138 -1.2260
31027SOL     OW96611   1.051   3.924   0.372 -0.4127 -0.0212 -0.0848
31027SOL    HW196612   1.049   3.904   0.466  0.4846  1.3139  0.2464
31027SOL    HW296613   1.048   3.839   0.329 -3.3338 -0.6308  1.0650
31028SOL     OW96614   7.513  10.586   9.879 -0.0902  0.3588 -0.6932
31028SOL    HW196615   7.513  10.682   9.876 -0.2704  0.4510  1.2195
31028SOL    HW296616   7.436  10.560   9.828  0.8231  1.1223 -2.5725
31029SOL     OW96617   4.432   1.165   4.456 -0.5785 -0.0842  0.3436
31029SOL    HW196618   4.432   1.076   4.422  0.9335 -0.0263  0.1011
31029SOL    HW296619   4.480   1.216   4.390  1.6499  0.2111  2.0453
31030SOL     OW96620   9.187   6.618   7.398  0.5337  0.6481 -0.6629
31030SOL    HW196621   9.242   6.696   7.393  1.4173  0.1984  1.1079
31030SOL    HW296622   9.154   6.618   7.488 -1.7014  0.4274 -1.4310
31031SOL     OW96623   2.181   6.219   0.590  0.8029 -0.2506 -0.5707
31031SOL    HW196624   2.112   6.184   0.645  1.6382 -0.1349  0.5788
31031SOL    HW296625   2.142   6.297   0.549 -0.6554 -1.7528 -2.2066
31032SOL     OW96626   3.834  10.322  10.908 -0.2460 -0.2440  0.4374
31032SOL    HW196627   3.756  10.335  10.962 -0.2351 -0.5417  0.5284
31032SOL    HW296628   3.906  10.359  10.959 -0.1597 -0.9607  0.8472
31033SOL     OW96629   2.174   8.081   1.947  0.3683  0.1830  0.0729
31033SOL    HW196630   2.224   8.154   1.910  2.4821 -1.1933  0.0394
31033SOL    HW296631   2.145   8.031   1.871  1.1682 -0.3987  0.1355
31034SOL     OW96632   5.172   2.083   4.265  0.5080  0.8255 -0.3011
31034SOL    HW196633   5.082   2.052   4.276  1.1447 -0.1578  3.1905
31034SOL    HW296634   5.172   2.169   4.308  1.6219 -0.0898  1.6492
31035SOL     OW96635   9.415   0.010   9.690 -0.5075  0.3727 -0.4358
31035SOL    HW196636   9.397  -0.000   9.596 -1.5557 -0.2239 -0.1922
31035SOL    HW296637   9.507   0.035   9.694  0.0642 -1.3257 -1.5445
31036SOL     OW96638   5.193   5.870   3.495  0.1811 -0.4091  0.2460
31036SOL    HW196639   5.148   5.818   3.562 -0.4470 -0.8741 -0.5149
31036SOL    HW296640   5.269   5.907   3.540 -1.3939  1.0916  1.8021
31037SOL     OW96641   9.356   1.245   3.504 -0.6481  0.2177 -0.0596
31037SOL    HW196642   9.290   1.224   3.570 -0.2018 -0.1776  0.2644
31037SOL    HW296643   9.427   1.286   3.554 -0.0214 -0.6893 -0.1947
31038SOL     OW96644   5.679   6.252   1.090  0.0524  0.2383 -0.0134
31038SOL    HW196645   5.671   6.275   0.997 -0.9914  0.0504  0.0197
31038SOL    HW296646   5.731   6.172   1.090 -0.4995 -0.1326 -0.4930
31039SOL     OW96647   8.690   0.773   9.118  0.6438  0.0589 -0.4750
31039SOL    HW196648   8.743   0.730   9.051  1.8496  2.8274 -1.4440
31039SOL    HW296649   8.740   0.762   9.199  0.2859 -1.3885 -0.4244
31040SOL     OW96650   8.217   9.181   4.603  0.0454 -0.1789  0.0484
31040SOL    HW196651   8.239   9.274   4.605  1.2884 -0.4705  0.2258
31040SOL    HW296652   8.297   9.136   4.629 -0.6306 -1.2955  0.2695
31041SOL     OW96653   8.043   8.376   1.252  0.2398  0.4835 -0.6079
31041SOL    HW196654   8.108   8.445   1.238 -0.2491  1.3251  1.0972
31041SOL    HW296655   8.002   8.397   1.336 -1.7340 -0.4320 -1.2742
31042SOL     OW96656   5.850   2.585   4.300 -0.0405  0.2498  0.0193
31042SOL    HW196657   5.867   2.627   4.384  1.1527  0.0164 -0.0847
31042SOL    HW296658   5.758   2.558   4.305  0.5683 -1.7730  2.1672
31043SOL     OW96659   8.226   7.226   1.226 -0.8099 -0.3827 -0.1848
31043SOL    HW196660   8.234   7.153   1.165 -0.0934 -1.7963  1.5120
31043SOL    HW296661   8.298   7.285   1.203  0.0537 -1.3808 -0.1057
31044SOL     OW96662   1.312  10.040   9.812 -1.0073 -0.3389 -0.7685
31044SOL    HW196663   1.222  10.020   9.786 -0.2952 -3.0050 -1.4953
31044SOL    HW296664   1.335   9.970   9.874  0.6925  0.0623 -0.8949
31045SOL     OW96665   9.834   0.645   1.922  0.5546  0.0224  0.1758
31045SOL    HW196666   9.909   0.625   1.865  1.6733 -0.7826  1.8648
31045SOL    HW296667   9.809   0.734   1.898  1.7732  0.1496 -0.7098
31046SOL     OW96668   5.591   2.150   4.831 -0.6878 -0.7324  0.6949
31046SOL    HW196669   5.544   2.231   4.812  0.0437 -0.3734  0.3962
31046SOL    HW296670   5.527   2.081   4.813 -1.3301 -0.2303  0.9958
31047SOL     OW96671   3.476   3.000   2.230  0.1566 -0.3337  0.4573
31047SOL    HW196672   3.430   2.936   2.176 -3.6275  1.9425  0.6502
31047SOL    HW296673   3.436   3.084   2.207  3.4028  1.7595  1.7322
31048SOL     OW96674   1.124   1.599   7.106  0.6713 -0.3042  0.2315
31048SOL    HW196675   1.041   1.559   7.080  1.4096 -1.4608 -0.4208
31048SOL    HW296676   1.117   1.690   7.077 -0.9872  0.0672  1.6248
31049SOL     OW96677   7.950   0.328  10.551 -0.7905  0.4418  0.1808
31049SOL    HW196678   7.934   0.234  10.561 -0.5750  0.3306 -0.4849
31049SOL    HW296679   7.872   0.369  10.589 -0.9933 -0.0116  0.2663
31050SOL     OW96680   1.230   9.843   4.293  0.3096 -0.1236 -0.9844
31050SOL    HW196681   1.203   9.932   4.313  0.2739 -0.3746  0.1938
31050SOL    HW296682   1.160   9.788   4.330  0.6381 -0.6564 -1.1384
31051SOL     OW96683  10.123   9.539   9.148 -0.2083 -0.1000  0.2950
31051SOL    HW196684  10.122   9.446   9.125 -0.5720  0.0347 -0.2566
31051SOL    HW296685  10.036   9.556   9.182 -1.0096  0.6007 -1.9686
31052SOL     OW96686   4.156   5.021   7.212 -0.1531  0.2934 -0.5558
31052SOL    HW196687   4.246   5.020   7.244  0.2206  0.1628 -1.5519
31052SOL    HW296688   4.138   4.930   7.189 -0.9901  0.0962  0.7819
31053SOL     OW96689   8.021   0.862   7.293 -0.2043 -0.3611  0.1201
31053SOL    HW196690   8.013   0.935   7.232  1.9496  0.4258  0.7081
31053SOL    HW296691   8.071   0.796   7.245 -0.3371 -0.6179  0.3276
31054SOL     OW96692  10.434   7.750   3.068 -0.4274  0.1872  0.0644
31054SOL    HW196693  10.433   7.758   3.163  0.7279  0.7418  0.0504
31054SOL    HW296694  10.483   7.669   3.051 -1.5466 -0.4806 -0.0476
31055SOL     OW96695   2.238   9.822   4.353  0.9139 -0.3523  0.0257
31055SOL    HW196696   2.298   9.747   4.355  1.2521 -0.1260 -0.9929
31055SOL    HW296697   2.293   9.896   4.379  0.5831 -0.4431  1.0194
31056SOL     OW96698   8.141   5.915   1.443 -0.4735  0.0616 -0.2518
31056SOL    HW196699   8.227   5.908   1.402 -1.0856 -1.8154 -1.3679
31056SOL    HW296700   8.096   5.834   1.418 -2.4284  0.8092  0.6129
31057SOL     OW96701   5.402   0.962   7.792 -0.0831 -0.2331  0.1108
31057SOL    HW196702   5.406   0.894   7.725  2.0871 -1.9437  1.8297
31057SOL    HW296703   5.427   0.918   7.873 -3.2173  1.5666  2.2852
31058SOL     OW96704  10.212   2.528   1.935 -0.5123  0.3396  0.6447
31058SOL    HW196705  10.247   2.561   1.853  0.9449 -1.4328  0.4982
31058SOL    HW296706  10.183   2.439   1.914 -4.1481  1.2591  1.0453
31059SOL     OW96707   8.813   8.888   9.648 -0.5312 -0.2779  0.9953
31059SOL    HW196708   8.779   8.799   9.659  0.3297 -1.0666 -1.7741
31059SOL    HW296709   8.900   8.885   9.687  0.1242 -1.1885 -0.4363
31060SOL     OW96710   9.263   6.216   6.164 -0.1882  0.5120 -0.6663
31060SOL    HW196711   9.325   6.279   6.201  0.7380 -0.1805 -0.9821
31060SOL    HW296712   9.189   6.216   6.225  0.8766  0.1022  0.6814
31061SOL     OW96713  10.657   5.205   8.718  0.1196  0.5445  0.1606
31061SOL    HW196714  10.752   5.215   8.727  0.1129  1.5172 -0.7319
31061SOL    HW296715  10.638   5.235   8.629 -0.9461 -0.2569  0.0977
31062SOL     OW96716   9.192   9.772  10.086 -0.2649  0.1841 -0.1540
31062SOL    HW196717   9.172   9.860  10.117  0.4179  0.9359 -1.7744
31062SOL    HW296718   9.196   9.779   9.991  1.7867 -1.1295 -0.2428
31063SOL     OW96719   7.845   0.290   3.055 -0.0569  0.0108  0.8715
31063SOL    HW196720   7.928   0.335   3.039  0.4925 -1.1329  0.3483
31063SOL    HW296721   7.778   0.352   3.026  0.6479  0.6952  0.6654
31064SOL     OW96722   2.394  11.110   7.132 -0.4753 -0.3042 -0.5678
31064SOL    HW196723   2.316  11.091   7.184 -0.2109 -0.9132 -0.3812
31064SOL    HW296724   2.445  11.170   7.185 -0.6634 -0.1594 -0.5492
31065SOL     OW96725   2.601   4.880   4.852  0.5491  0.0379 -0.6172
31065SOL    HW196726   2.538   4.819   4.890  0.4630 -0.3149 -1.3058
31065SOL    HW296727   2.649   4.827   4.788  1.4511  0.3393 -0.1987
31066SOL     OW96728   6.105   8.134   0.062 -0.4257  0.3272  0.3482
31066SOL    HW196729   6.088   8.215   0.111 -4.5311  0.1465 -0.3740
31066SOL    HW296730   6.141   8.074   0.127 -0.6230  1.7094  1.8021
31067SOL     OW96731   2.515   3.463   5.960  0.2051 -0.2211  0.0503
31067SOL    HW196732   2.539   3.524   6.030  1.1324 -0.2997 -0.1872
31067SOL    HW296733   2.539   3.508   5.879  1.0720 -0.9518 -0.1231
31068SOL     OW96734   5.843  10.143   8.136 -0.4044 -0.0506 -0.4437
31068SOL    HW196735   5.772  10.085   8.110 -1.9301 -0.1990  3.3799
31068SOL    HW296736   5.824  10.226   8.093 -0.8039 -1.0566 -2.2970
31069SOL     OW96737   7.400   1.261   2.643  0.4964 -0.4811  0.3472
31069SOL    HW196738   7.396   1.189   2.706 -0.8655 -0.4687  0.3220
31069SOL    HW296739   7.432   1.336   2.694  4.2639 -1.5744 -0.1678
31070SOL     OW96740  10.266   9.495   8.665  0.5825 -0.1278 -0.6110
31070SOL    HW196741  10.249   9.547   8.743 -3.3410 -2.1466  0.1403
31070SOL    HW296742  10.289   9.408   8.697  2.1973 -0.1898 -1.7974
31071SOL     OW96743   7.464   2.447   1.723 -0.1465  0.6174  0.7247
31071SOL    HW196744   7.548   2.489   1.706 -0.0760  1.1541  2.2114
31071SOL    HW296745   7.478   2.355   1.701  0.4195  0.9319 -0.2850
31072SOL     OW96746  10.350  10.863   9.580  0.6636  0.7592 -0.1905
31072SOL    HW196747  10.408  10.853   9.505  0.7457 -0.4239  0.0141
31072SOL    HW296748  10.340  10.958   9.591  0.7429  0.9466 -1.6186
31073SOL     OW96749   6.572   0.180   4.393  0.2872  0.0831 -0.0860
31073SOL    HW196750   6.514   0.235   4.444  1.4875  0.0188  1.4065
31073SOL    HW296751   6.516   0.109   4.362 -0.8901  1.1907 -0.5773
31074SOL     OW96752   3.269   6.866   1.050  0.1310  0.4017  0.2085
31074SOL    HW196753   3.318   6.802   1.101 -1.6842  1.0944  3.0609
31074SOL    HW296754   3.335   6.906   0.992  2.0081 -1.5375  0.8778
31075SOL     OW96755   1.770   9.351   7.340 -0.0711 -0.5403  0.7999
31075SOL    HW196756   1.763   9.256   7.332 -1.4077 -0.3563 -0.7586
31075SOL    HW296757   1.766   9.383   7.250  2.6843  0.9209  1.0831
31076SOL     OW96758   6.524   4.618  10.434 -0.8822  0.1191 -0.2892
31076SOL    HW196759   6.578   4.609  10.356 -1.0707 -1.7689 -0.2437
31076SOL    HW296760   6.586   4.618  10.507 -0.8475 -1.8920 -0.2465
31077SOL     OW96761   6.425   7.010   9.372 -0.0829 -0.8875  0.6514
31077SOL    HW196762   6.457   7.071   9.439 -0.1237 -0.5440  0.3625
31077SOL    HW296763   6.467   7.040   9.291 -2.2987  0.5256 -0.0458
31078SOL     OW96764   5.146   0.179   9.609 -0.3963 -0.2490 -0.0014
31078SOL    HW196765   5.237   0.154   9.600 -0.5787 -1.2887  0.8195
31078SOL    HW296766   5.103   0.101   9.644 -1.5315  0.3413 -0.0259
31079SOL     OW96767   0.789   5.191   0.475 -0.2842  0.0330  0.0145
31079SOL    HW196768   0.795   5.179   0.380 -1.9640 -1.5320  0.0532
31079SOL    HW296769   0.878   5.209   0.502  0.1113  1.4674 -1.9599
31080SOL     OW96770   7.007   4.276   2.313 -0.4505  0.2312  0.2266
31080SOL    HW196771   7.023   4.368   2.334  0.2918  0.1501  0.0400
31080SOL    HW296772   7.055   4.227   2.379 -0.2943 -0.0224 -0.0693
31081SOL     OW96773  11.073   8.076   1.886 -0.1808 -0.4407  0.1325
31081SOL    HW196774  11.166   8.081   1.864 -0.0150 -0.6328  0.7547
31081SOL    HW296775  11.031   8.039   1.809  0.0373  1.0088 -0.7262
31082SOL     OW96776   5.422   9.562   2.056  0.3583 -0.2021 -0.0305
31082SOL    HW196777   5.369   9.585   1.980  1.2263  0.8850 -0.3422
31082SOL    HW296778   5.372   9.493   2.100 -0.5302 -0.3222 -1.1577
31083SOL     OW96779   1.128   7.483   7.922  0.1247 -0.1568  0.4826
31083SOL    HW196780   1.201   7.448   7.871 -0.0558 -0.6600  0.5634
31083SOL    HW296781   1.139   7.578   7.918  3.2312 -0.1494  3.9396
31084SOL     OW96782   0.968   7.514   6.096  0.2980 -0.1149 -0.1088
31084SOL    HW196783   1.034   7.449   6.121  1.1903  0.7990 -0.0138
31084SOL    HW296784   1.013   7.570   6.032 -0.8604 -0.3553 -1.1702
31085SOL     OW96785   9.751   4.178   1.896  0.6541 -0.1586 -0.0464
31085SOL    HW196786   9.846   4.178   1.879  1.0018  0.1102  1.7454
31085SOL    HW296787   9.744   4.175   1.991 -1.1561  0.4821 -0.1349
31086SOL     OW96788   8.953   6.859   3.948  0.4742 -0.6969 -0.0454
31086SOL    HW196789   8.899   6.937   3.964  2.7723  1.3187 -1.3923
31086SOL    HW296790   8.971   6.824   4.035 -2.9457 -1.5643  0.4701
31087SOL     OW96791   1.160   8.229   1.292 -0.2461  0.9392  0.0201
31087SOL    HW196792   1.244   8.185   1.274 -0.4095  0.3429  0.6531
31087SOL    HW296793   1.097   8.183   1.236 -0.6610 -0.5695  1.6511
31088SOL     OW96794   1.753   3.367  11.074 -0.6343 -0.0535 -0.7631
31088SOL    HW196795   1.699   3.295  11.106  0.6980 -0.3927  0.8690
31088SOL    HW296796   1.691   3.430  11.039 -1.8901 -1.5672 -1.3644
31089SOL     OW96797   4.139  10.145   1.565  0.4478  0.4663  0.3131
31089SOL    HW196798   4.045  10.126   1.563  0.2557  1.3617  0.3204
31089SOL    HW296799   4.158  10.159   1.658  0.4655  0.8342  0.2564
31090SOL     OW96800   3.046   3.628   9.651  0.6360  0.3376 -0.2091
31090SOL    HW196801   2.985   3.688   9.693  1.2281 -0.4253  1.9041
31090SOL    HW296802   3.133   3.660   9.677  1.0129 -0.4434 -0.4633
31091SOL     OW96803   3.147   9.509   1.048 -0.1361  0.3532 -0.4660
31091SOL    HW196804   3.167   9.589   1.097 -1.5244  0.1507  0.4883
31091SOL    HW296805   3.060   9.484   1.077  0.5468 -1.9443 -0.1623
31092SOL     OW96806   2.409   1.577   2.403 -0.1855  0.4942  0.4542
31092SOL    HW196807   2.348   1.509   2.432  0.3699  0.3541  1.3012
31092SOL    HW296808   2.389   1.587   2.309 -0.4731 -0.6238  0.3751
31093SOL     OW96809   1.562   9.805  10.214 -0.1467 -0.1691 -0.0398
31093SOL    HW196810   1.623   9.733  10.225  0.2947  0.4142  1.6407
31093SOL    HW296811   1.482   9.776  10.258 -0.0218  0.3009  0.4996
31094SOL     OW96812   0.383   0.491   0.228  0.1895 -0.2705  0.0320
31094SOL    HW196813   0.300   0.524   0.262  0.0645 -1.3045  0.7999
31094SOL    HW296814   0.396   0.408   0.274  1.2012 -0.5657 -0.7461
31095SOL     OW96815   0.153   4.457   3.593  0.0083 -0.0575 -0.5881
31095SOL    HW196816   0.134   4.455   3.499  1.1351 -1.7930 -0.8154
31095SOL    HW296817   0.208   4.534   3.604 -0.0792  0.1271 -1.3692
31096SOL     OW96818   2.337   6.821   0.501 -0.3775  0.2913 -0.1071
31096SOL    HW196819   2.264   6.856   0.553 -0.2013  0.7687 -0.1782
31096SOL    HW296820   2.413   6.872   0.529 -0.2173  0.3283 -0.6008
31097SOL     OW96821   3.553   2.937   6.184 -0.0137  0.3901 -0.3010
31097SOL    HW196822   3.541   2.914   6.277 -1.6661  1.1856 -0.2768
31097SOL    HW296823   3.545   3.032   6.181 -0.4687  0.3339 -1.3248
31098SOL     OW96824   0.346   8.697   1.728  0.0762 -0.1265 -0.3569
31098SOL    HW196825   0.311   8.641   1.659  1.8630  0.1850 -1.5959
31098SOL    HW296826   0.346   8.785   1.690 -2.5129  0.7630  1.4891
31099SOL     OW96827  10.323   1.430   2.898  0.4687 -0.4090  0.3305
31099SOL    HW196828  10.318   1.496   2.829  0.5876  1.3932  1.9453
31099SOL    HW296829  10.375   1.359   2.860 -0.4320 -0.0068 -1.7826
31100SOL     OW96830   4.260   9.408  10.350  0.3885 -0.6671  0.6328
31100SOL    HW196831   4.191   9.389  10.414  0.8319 -0.4358  1.1931
31100SOL    HW296832   4.319   9.468  10.396  1.5967 -1.7741  0.5814
31101SOL     OW96833   4.880  10.905   9.903  0.7377  0.3909 -0.2316
31101SOL    HW196834   4.888  10.938   9.992 -0.9322  2.0990 -0.6443
31101SOL    HW296835   4.786  10.907   9.884  0.7327 -2.6236 -1.1161
31102SOL     OW96836   1.085   1.305   1.150 -0.2467  0.4868 -0.0393
31102SOL    HW196837   1.057   1.241   1.217  1.5164 -0.3700 -0.0580
31102SOL    HW296838   1.117   1.251   1.078  0.0231  1.4120 -0.6217
31103SOL     OW96839   9.238   6.554   1.781 -0.7891  0.5156  0.4315
31103SOL    HW196840   9.167   6.546   1.844 -1.1626 -0.4818 -0.0995
31103SOL    HW296841   9.210   6.502   1.706  2.3595 -3.9672  1.9251
31104SOL     OW96842   5.067   4.568   4.622  0.2488  0.5182 -0.3191
31104SOL    HW196843   5.035   4.601   4.538  0.1145  0.2935 -0.3593
31104SOL    HW296844   5.162   4.562   4.611  0.1224 -0.9040 -0.9819
31105SOL     OW96845   8.237   2.461   0.325  0.4107 -0.0608  0.6423
31105SOL    HW196846   8.323   2.436   0.358  1.2802  1.2113 -0.5245
31105SOL    HW296847   8.175   2.404   0.371  1.8808 -1.0931  1.4045
31106SOL     OW96848   7.773   4.940  10.447  0.5655 -0.3067  0.2195
31106SOL    HW196849   7.701   4.970  10.393  0.6081 -1.4323 -0.4939
31106SOL    HW296850   7.811   5.020  10.483 -1.9111  0.2749  1.7966
31107SOL     OW96851   5.983   7.876   7.702  0.3481 -0.3084  0.0686
31107SOL    HW196852   5.893   7.880   7.732  0.1211  0.5770 -0.6826
31107SOL    HW296853   6.005   7.783   7.704  0.7162 -0.2653  3.9190
31108SOL     OW96854   3.336   4.336   3.482  0.1544 -0.6931  0.2335
31108SOL    HW196855   3.261   4.323   3.423 -0.0961 -0.9111  0.6000
31108SOL    HW296856   3.298   4.376   3.560  0.6973  0.9462 -0.3010
31109SOL     OW96857   4.875   0.139   9.927 -0.1406  0.0435 -0.3072
31109SOL    HW196858   4.889   0.089   9.847 -0.2085 -0.4928  0.0097
31109SOL    HW296859   4.816   0.210   9.900 -1.8038 -1.2700 -0.3483
31110SOL     OW96860   1.143   0.552   3.838 -0.2866  0.5853 -0.1947
31110SOL    HW196861   1.230   0.558   3.876 -0.8270  0.5452  1.1050
31110SOL    HW296862   1.128   0.458   3.827 -0.9563  0.4448  1.5733
31111SOL     OW96863   8.092   4.889   0.972  0.4864  0.4210  0.1299
31111SOL    HW196864   8.069   4.851   1.057 -0.8126 -0.1730 -0.4496
31111SOL    HW296865   8.020   4.863   0.914  0.2686  2.5621 -0.6564
31112SOL     OW96866   3.953  10.003   4.394 -0.2934 -0.1254  0.3910
31112SOL    HW196867   3.887  10.013   4.462  0.1124 -0.9298  0.9253
31112SOL    HW296868   4.006   9.928   4.422 -1.3419 -1.8318 -1.8136
31113SOL     OW96869   9.146   4.988   1.997  0.1868 -0.1994  0.4268
31113SOL    HW196870   9.177   5.010   1.909 -2.3655 -0.1444 -0.5598
31113SOL    HW296871   9.133   4.893   1.994 -1.9641  0.0613 -0.0582
31114SOL     OW96872   8.893   5.862   3.573  0.7737  0.0188 -0.4699
31114SOL    HW196873   8.860   5.873   3.484  1.8154 -0.7192 -0.9644
31114SOL    HW296874   8.846   5.928   3.624 -0.3501 -0.0149 -1.4217
31115SOL     OW96875  10.859  10.676   1.185 -0.1343  0.1180  0.2391
31115SOL    HW196876  10.885  10.680   1.093  0.8929  0.7840  0.5276
31115SOL    HW296877  10.813  10.593   1.194  0.2223 -0.2048 -0.7633
31116SOL     OW96878   5.114   7.550   2.681  0.0940 -0.2519 -0.1026
31116SOL    HW196879   5.190   7.497   2.657  0.9116  0.9818 -0.3367
31116SOL    HW296880   5.141   7.594   2.762 -0.3824  0.1633 -0.1656
31117SOL     OW96881  10.418   4.725   1.550 -0.4423  0.1434  0.0409
31117SOL    HW196882  10.484   4.733   1.481 -0.0505  1.6693  0.5678
31117SOL    HW296883  10.418   4.631   1.571  0.7982 -0.0541 -0.6978
31118SOL     OW96884   3.868   2.713   0.497  0.7453  0.0125 -0.2484
31118SOL    HW196885   3.908   2.641   0.449 -0.9667 -1.2396  0.1385
31118SOL    HW296886   3.889   2.696   0.589 -1.7540 -1.4767  0.1318
31119SOL     OW96887   8.173   0.855   2.994  0.4618 -0.1818 -0.4389
31119SOL    HW196888   8.217   0.770   3.001 -2.0922 -1.5157  0.9176
31119SOL    HW296889   8.132   0.853   2.907  1.5313  0.3048 -0.9746
31120SOL     OW96890   8.578   1.174   5.276 -0.0009 -0.3507  0.1606
31120SOL    HW196891   8.524   1.174   5.355  0.8836  1.2016  0.8243
31120SOL    HW296892   8.578   1.266   5.247 -0.1453 -0.8510 -1.5408
31121SOL     OW96893  10.677   1.855   3.620 -0.2270 -0.3647 -0.0365
31121SOL    HW196894  10.732   1.921   3.577  2.4823 -1.2625  1.7924
31121SOL    HW296895  10.648   1.898   3.700 -1.1251 -0.3782 -0.3403
31122SOL     OW96896   3.084  10.366   8.656  0.2483  0.4568  0.3204
31122SOL    HW196897   3.153  10.371   8.722 -0.4157 -0.0488  1.0722
31122SOL    HW296898   3.088  10.450   8.610  2.6197 -0.2384 -0.9665
31123SOL     OW96899   9.268   5.653   4.828  0.0432  0.1095  0.7302
31123SOL    HW196900   9.235   5.574   4.784  0.0331  0.4732  0.0797
31123SOL    HW296901   9.224   5.653   4.913 -0.6255 -0.1152  0.3917
31124SOL     OW96902   4.986   9.740   7.074  0.0307  0.0959  0.3811
31124SOL    HW196903   5.022   9.676   7.013  1.3430  0.4388  0.7638
31124SOL    HW296904   4.891   9.733   7.062  0.1064 -2.0868  0.5858
31125SOL     OW96905   9.161   6.047   1.155 -0.0350  0.4244  0.1945
31125SOL    HW196906   9.067   6.062   1.143 -0.4095 -3.0691 -3.0424
31125SOL    HW296907   9.200   6.075   1.072  1.3425 -0.8653  0.3694
31126SOL     OW96908   9.316   7.760   5.893 -0.2192 -0.1015  0.0340
31126SOL    HW196909   9.231   7.788   5.928 -0.0073 -1.0644  1.3762
31126SOL    HW296910   9.294   7.719   5.809 -1.0779 -0.2626  0.3244
31127SOL     OW96911   5.395   4.243   9.670 -0.2250 -0.3692  0.0934
31127SOL    HW196912   5.361   4.229   9.759 -0.9679  0.4801 -0.0481
31127SOL    HW296913   5.401   4.338   9.661 -0.5784 -0.4311 -0.9236
31128SOL     OW96914  10.225   9.072   3.853 -0.1452 -0.1234 -0.7202
31128SOL    HW196915  10.154   9.022   3.893 -0.2677  0.7246  0.1772
31128SOL    HW296916  10.223   9.156   3.899  1.2749  0.0065 -0.8598
31129SOL     OW96917   9.615   0.667   4.708 -0.9013  0.2017  0.5341
31129SOL    HW196918   9.597   0.684   4.801  2.5687  1.0625  1.2054
31129SOL    HW296919   9.669   0.587   4.709 -1.6184 -0.3287 -0.8635
31130SOL     OW96920   0.429   7.043   8.324  0.0374 -0.0737  0.0308
31130SOL    HW196921   0.498   7.031   8.390  1.9262  0.7006 -1.7212
31130SOL    HW296922   0.401   6.953   8.303  0.1640 -0.3743  1.0674
31131SOL     OW96923   2.003   4.166   0.445  0.3698 -0.5330  0.1406
31131SOL    HW196924   1.978   4.120   0.525  1.0096 -2.0325 -0.4784
31131SOL    HW296925   2.084   4.123   0.417  1.8019  1.9374  0.2640
31132SOL     OW96926   6.966   4.594   8.785 -0.0793  0.5936 -0.1118
31132SOL    HW196927   6.979   4.618   8.876  2.0702  0.6498 -0.3959
31132SOL    HW296928   6.899   4.655   8.753  1.2320  2.5445  0.6674
31133SOL     OW96929   1.123   9.797   9.095  0.0089  0.2018 -0.2697
31133SOL    HW196930   1.125   9.736   9.169 -3.1653 -1.8605 -1.7013
31133SOL    HW296931   1.122   9.741   9.017  0.3023  2.2132 -1.8181
31134SOL     OW96932   7.829   8.666   1.304 -0.4038 -0.3466  0.2747
31134SOL    HW196933   7.873   8.615   1.372 -2.0794  0.6580  2.2439
31134SOL    HW296934   7.894   8.732   1.278  0.8884 -1.8598 -0.4761
31135SOL     OW96935   2.747   3.174   8.755 -0.0407  0.2399 -0.1201
31135SOL    HW196936   2.665   3.160   8.804  0.2112  0.7693  0.4664
31135SOL    HW296937   2.719   3.219   8.675 -0.7038 -2.3517 -1.4369
31136SOL     OW96938   2.484   6.861   1.115  0.0172  0.2214  0.3091
31136SOL    HW196939   2.454   6.793   1.055 -0.8716 -1.0624  2.1109
31136SOL    HW296940   2.470   6.943   1.067 -1.5778 -0.6833 -0.8630
31137SOL     OW96941  10.281   1.354   9.637 -0.3889 -0.2434 -0.4279
31137SOL    HW196942  10.249   1.425   9.580 -0.3503  1.1624  1.2190
31137SOL    HW296943  10.249   1.377   9.724  0.1380 -1.9737  0.2634
31138SOL     OW96944   4.762   9.033   3.662  0.0708  0.7982  0.3562
31138SOL    HW196945   4.809   8.952   3.644 -1.2053  0.0869  0.0611
31138SOL    HW296946   4.754   9.076   3.577 -2.4847 -0.6240 -0.2277
31139SOL     OW96947   7.335  10.882   9.140 -0.1451 -0.2486 -0.3133
31139SOL    HW196948   7.379  10.797   9.138  0.0090 -0.1732 -0.1128
31139SOL    HW296949   7.372  10.927   9.215  0.4480  0.3518 -0.9460
31140SOL     OW96950   5.036   0.574   2.372  0.1398 -0.0493  0.7631
31140SOL    HW196951   5.093   0.514   2.419 -0.2237 -0.2287  0.9716
31140SOL    HW296952   4.948   0.538   2.382  0.0194  0.0663  0.1939
31141SOL     OW96953   2.549   6.330   6.191 -0.2225  0.1287 -0.1839
31141SOL    HW196954   2.561   6.334   6.285  1.5746 -1.4103 -0.2898
31141SOL    HW296955   2.581   6.414   6.158  1.4750 -0.2536  0.4060
31142SOL     OW96956  10.036   9.414   1.610 -0.6700  0.4068  0.1244
31142SOL    HW196957  10.010   9.487   1.553  1.8371  1.4829  0.1849
31142SOL    HW296958  10.051   9.455   1.695 -0.4428 -0.4235  0.4914
31143SOL     OW96959   0.066  10.130  10.889  0.0338  0.1949  0.0013
31143SOL    HW196960  -0.020  10.133  10.931 -0.3069 -1.2668 -0.5549
31143SOL    HW296961   0.071  10.044  10.849  1.1784  0.7897 -1.2335
31144SOL     OW96962   6.221   2.088   8.874 -0.2574 -0.2300 -0.1563
31144SOL    HW196963   6.175   2.082   8.958 -1.2848 -2.1696 -0.7870
31144SOL    HW296964   6.284   2.159   8.885 -3.2746  2.4990  0.8406
31145SOL     OW96965   9.749   3.100   2.622 -0.1178 -0.3518  0.1204
31145SOL    HW196966   9.690   3.112   2.548  0.7721 -1.5260 -0.8255
31145SOL    HW296967   9.817   3.167   2.609  0.4228 -1.0123 -0.5517
31146SOL     OW96968   9.392  10.371   4.770  0.5726  0.2924  0.4926
31146SOL    HW196969   9.373  10.278   4.761  0.8292  0.2714  0.1523
31146SOL    HW296970   9.308  10.410   4.795  0.7318 -0.1969  1.9173
31147SOL     OW96971   2.895   9.666   7.299  0.1341 -0.2765  0.5706
31147SOL    HW196972   2.800   9.655   7.295  0.1102  0.1439 -0.1156
31147SOL    HW296973   2.908   9.760   7.308  0.5042 -0.2322 -0.3380
31148SOL     OW96974  10.217   7.053   9.812 -0.4189  0.1812 -0.5231
31148SOL    HW196975  10.278   7.117   9.775 -0.3086  1.1255  1.1845
31148SOL    HW296976  10.240   6.971   9.769  1.5786  0.6594 -0.4978
31149SOL     OW96977   0.241  10.995   0.701 -0.8045 -0.6777 -0.8162
31149SOL    HW196978   0.205  11.017   0.787 -0.8105  0.1353 -1.0100
31149SOL    HW296979   0.179  10.933   0.664 -1.7770  0.3385 -0.9565
31150SOL     OW96980   4.829  10.959   7.700  0.2126 -0.1912 -0.0071
31150SOL    HW196981   4.870  11.027   7.754  1.3089 -1.3272  0.6341
31150SOL    HW296982   4.794  11.007   7.625  3.6303  0.8135 -1.1642
31151SOL     OW96983  11.114   1.008  11.084 -0.7106 -0.1522 -0.0661
31151SOL    HW196984  11.047   0.998  11.016 -1.8114  0.6131  0.8493
31151SOL    HW296985  11.138   0.918  11.107  0.0459 -0.4221 -1.7722
31152SOL     OW96986   2.965   3.056  10.544  0.1222 -0.2046  0.6551
31152SOL    HW196987   2.917   3.086  10.467  0.8660 -0.6878 -0.0091
31152SOL    HW296988   2.920   3.098  10.618 -1.3807 -0.7200  0.0684
31153SOL     OW96989   1.845   3.194   7.257 -0.4167 -0.5270  0.9068
31153SOL    HW196990   1.784   3.120   7.260  0.6337 -1.3832  2.1242
31153SOL    HW296991   1.922   3.164   7.304  0.4701  0.9854  0.5020
31154SOL     OW96992   1.234   4.541   9.455 -0.3071  0.5567  0.1614
31154SOL    HW196993   1.215   4.478   9.525  0.3259  0.5786  0.3636
31154SOL    HW296994   1.327   4.560   9.466  0.4575 -1.3043 -2.1798
31155SOL     OW96995   6.726   3.353   7.757 -0.1927  0.3940  0.1818
31155SOL    HW196996   6.645   3.322   7.798 -1.5088  0.0183 -2.4846
31155SOL    HW296997   6.729   3.446   7.776  0.5165 -0.1177  3.0128
31156SOL     OW96998  11.054   6.946   0.495 -0.1218  0.8156 -0.1373
31156SOL    HW196999  11.072   6.940   0.401  0.9386  1.3960  0.0072
31156SOL    HW297000  11.135   6.915   0.536 -0.3951  1.0394  0.5804
31157SOL     OW97001   2.454  10.796   6.173 -0.5144  0.2808  0.4230
31157SOL    HW197002   2.388  10.865   6.170 -1.1715 -0.2720  1.5222
31157SOL    HW297003   2.411  10.723   6.218  1.4162  0.5422  2.8828
31158SOL     OW97004   1.329   5.444   0.900  0.0250  0.3699  0.8211
31158SOL    HW197005   1.367   5.427   0.814  0.5403  0.5971  1.0028
31158SOL    HW297006   1.237   5.421   0.890  0.7766 -3.5452  1.3152
31159SOL     OW97007   0.386   5.780   8.055  0.2724 -0.0424 -0.2335
31159SOL    HW197008   0.301   5.812   8.025 -0.2846  0.3659  1.6682
31159SOL    HW297009   0.449   5.846   8.024 -0.4995  1.3286  0.9430
31160SOL     OW97010   2.916   4.114   5.039 -0.4907 -0.1508 -0.2752
31160SOL    HW197011   2.997   4.091   4.993 -0.3598 -0.5684  0.1458
31160SOL    HW297012   2.869   4.031   5.048 -0.7568  0.0151 -0.1218
31161SOL     OW97013   8.970   8.809   5.835 -0.2339 -0.0611  0.1526
31161SOL    HW197014   8.927   8.894   5.822 -0.5644 -0.1840  0.4175
31161SOL    HW297015   9.025   8.798   5.758  0.7305  0.9360  0.6744
31162SOL     OW97016  10.331   8.075   9.622  0.4552  0.5810  0.5778
31162SOL    HW197017  10.359   8.161   9.653 -0.0628  0.4368  1.4706
31162SOL    HW297018  10.411   8.022   9.624  0.9457  1.2280 -0.7212
31163SOL     OW97019   6.400   8.346   0.958 -0.0771  0.4721 -0.8200
31163SOL    HW197020   6.448   8.383   1.032 -1.2792  0.5826 -0.0684
31163SOL    HW297021   6.430   8.397   0.882  0.1011  1.3421 -0.1835
31164SOL     OW97022   3.281   4.395  10.399  0.1244  0.3292  0.1235
31164SOL    HW197023   3.311   4.356  10.481 -0.9069 -1.3496 -0.2317
31164SOL    HW297024   3.191   4.420  10.416 -0.3162 -0.6455 -0.6517
31165SOL     OW97025   7.613   1.514   2.153  0.0893  0.1802  0.2180
31165SOL    HW197026   7.695   1.552   2.186 -0.1614  0.8805  0.0646
31165SOL    HW297027   7.545   1.574   2.185 -0.1356  1.1323 -1.8800
31166SOL     OW97028   7.692   2.517   8.996  0.0534 -0.5502  0.5889
31166SOL    HW197029   7.606   2.556   9.008 -0.4539 -1.7377  0.9372
31166SOL    HW297030   7.752   2.575   9.043 -0.2320  1.4101 -1.3470
31167SOL     OW97031   6.098  11.061   7.557  0.5487 -0.2865  0.1619
31167SOL    HW197032   6.147  11.035   7.479 -2.1625 -1.5553 -1.2317
31167SOL    HW297033   6.074  11.152   7.541 -0.7559 -0.8020 -0.9586
31168SOL     OW97034   1.414   9.196   7.972 -0.0075  0.2948 -0.1816
31168SOL    HW197035   1.495   9.165   8.013 -0.9231  0.1827  1.6250
31168SOL    HW297036   1.420   9.291   7.977 -0.2878  0.2771  0.5994
31169SOL     OW97037   2.253   6.440   9.751 -0.0650 -0.1034  0.2083
31169SOL    HW197038   2.305   6.509   9.793  0.7356  0.1660 -1.1783
31169SOL    HW297039   2.273   6.361   9.801  0.6047  0.2633  0.5354
31170SOL     OW97040   2.233   8.047   1.471  0.2416  0.5121 -0.1828
31170SOL    HW197041   2.220   7.964   1.517  0.1969  0.6078 -0.0228
31170SOL    HW297042   2.287   8.100   1.531  1.1041  0.2372 -0.6943
31171SOL     OW97043   0.498   9.558   2.487 -0.4158  0.2751  0.2916
31171SOL    HW197044   0.585   9.520   2.478 -0.2643  0.4203  1.1005
31171SOL    HW297045   0.442   9.502   2.433 -0.1420 -0.9309  1.2106
31172SOL     OW97046   6.706  10.799   4.211 -0.2816  0.4666  0.7227
31172SOL    HW197047   6.769  10.750   4.158  0.0451 -0.0962  1.6002
31172SOL    HW297048   6.620  10.773   4.178 -0.1041  2.5662 -1.6770
31173SOL     OW97049   9.282  10.207   3.204 -0.4500 -0.4737  0.2085
31173SOL    HW197050   9.264  10.180   3.294 -0.6942  2.0154  0.9805
31173SOL    HW297051   9.311  10.127   3.161 -2.8333 -2.3348  1.7634
31174SOL     OW97052  10.186  10.321   0.823  0.0025 -0.2737 -0.6054
31174SOL    HW197053  10.195  10.416   0.835 -0.9793 -0.3354  0.8221
31174SOL    HW297054  10.102  10.311   0.778 -2.1201 -0.5947  3.0421
31175SOL     OW97055  10.708   3.277   3.081  0.3888  0.5063  0.3382
31175SOL    HW197056  10.770   3.283   3.008 -0.4638 -1.0499 -0.5762
31175SOL    HW297057  10.698   3.183   3.096  0.5712  0.7882  2.5214
31176SOL     OW97058   9.879   0.348   2.850  0.0063  0.2428 -0.4336
31176SOL    HW197059   9.794   0.307   2.839 -0.6808  1.4747  0.1382
31176SOL    HW297060   9.906   0.326   2.939  0.1596  0.0821 -0.5194
31177SOL     OW97061   0.841   6.435   7.145  0.8683 -0.2271 -0.0557
31177SOL    HW197062   0.905   6.496   7.108  0.3777  0.3043 -0.0537
31177SOL    HW297063   0.871   6.349   7.116  2.0789 -0.0798  0.7023
31178SOL     OW97064   5.226  11.010   4.366  0.4711  0.3121  0.4145
31178SOL    HW197065   5.141  10.969   4.385  1.7194 -2.1902  1.0313
31178SOL    HW297066   5.203  11.092   4.322 -2.2477 -0.6496 -0.2001
31179SOL     OW97067   6.932   1.387   7.265  0.5845 -0.1538  0.3494
31179SOL    HW197068   7.012   1.377   7.213  0.4274 -0.3662  0.1462
31179SOL    HW297069   6.961   1.433   7.344  0.6788  0.8467 -0.2573
31180SOL     OW97070   0.004   1.534   1.363  0.3274 -0.2031 -0.6078
31180SOL    HW197071   0.016   1.567   1.452 -0.3095  1.9613 -1.2643
31180SOL    HW297072  -0.038   1.449   1.375 -1.9825  1.0549  1.1770
31181SOL     OW97073   5.476   6.597   0.841  0.3282 -0.0840 -0.0146
31181SOL    HW197074   5.384   6.574   0.827 -0.0293  1.7705 -1.0309
31181SOL    HW297075   5.473   6.675   0.897  1.3039 -0.1234  0.1163
31182SOL     OW97076   4.793   0.061   7.257 -0.0107 -0.2902 -0.1120
31182SOL    HW197077   4.862   0.128   7.257  0.3006 -0.5612  1.5264
31182SOL    HW297078   4.714   0.107   7.231  0.7223  0.0751 -1.8396
31183SOL     OW97079   6.625   0.361   8.936  0.0115 -0.2519  0.4481
31183SOL    HW197080   6.591   0.275   8.962 -1.2006 -0.0786 -0.4848
31183SOL    HW297081   6.600   0.419   9.008 -0.1278 -0.4713  0.5791
31184SOL     OW97082   2.365  10.618   7.765 -0.2366 -0.3942  0.4608
31184SOL    HW197083   2.312  10.552   7.811 -1.0748 -0.6076 -0.7546
31184SOL    HW297084   2.312  10.642   7.689  0.2791  1.3222  0.5985
31185SOL     OW97085   4.758   1.478   3.245  0.5980 -0.2019 -0.3060
31185SOL    HW197086   4.738   1.453   3.335 -0.8035  0.7542 -0.3247
31185SOL    HW297087   4.853   1.489   3.243  0.5501  0.6992  1.3148
31186SOL     OW97088   0.249  10.959   0.224 -0.5143 -0.1267  0.4044
31186SOL    HW197089   0.261  10.951   0.129  0.0986 -0.7460  0.5342
31186SOL    HW297090   0.208  10.876   0.250 -0.3978 -0.0802  0.7330
31187SOL     OW97091   7.882   7.671   4.393  0.0972  0.2238  0.1744
31187SOL    HW197092   7.895   7.592   4.445  1.3175  1.3344  1.6750
31187SOL    HW297093   7.902   7.644   4.303 -3.3622 -2.0775 -0.0877
31188SOL     OW97094   7.695   9.958   2.158  0.0349 -0.5842 -0.0057
31188SOL    HW197095   7.727  10.046   2.177  0.0816 -0.9245  1.6918
31188SOL    HW297096   7.605   9.970   2.130 -0.3082 -0.0644  1.2905
31189SOL     OW97097   4.930   8.931   6.224 -0.5546  0.1370  0.7567
31189SOL    HW197098   4.903   8.996   6.289  0.5047  1.5839 -0.1877
31189SOL    HW297099   4.974   8.982   6.156  1.0963 -1.6770  0.3828
31190SOL     OW97100   0.378   3.923   9.810 -0.2489 -0.1706  0.2155
31190SOL    HW197101   0.410   3.949   9.723  0.3767 -2.1207 -0.2083
31190SOL    HW297102   0.309   3.986   9.830 -2.0813 -0.9777 -2.7934
31191SOL     OW97103   7.049   5.218   0.855 -0.5120 -0.5640 -0.2375
31191SOL    HW197104   7.024   5.134   0.816 -0.9242 -0.0293 -1.1420
31191SOL    HW297105   7.143   5.224   0.842 -0.4934 -0.8479 -0.2420
31192SOL     OW97106   3.172  10.206   6.200 -0.1937 -0.1830 -0.0710
31192SOL    HW197107   3.094  10.252   6.172 -1.0068 -1.1014  0.6267
31192SOL    HW297108   3.206  10.258   6.273 -0.0491  0.3105 -0.4910
31193SOL     OW97109   2.045   2.141   8.174  0.1202  0.1701 -0.4922
31193SOL    HW197110   2.098   2.109   8.247  0.2617  0.5597 -0.4221
31193SOL    HW297111   1.972   2.187   8.216 -0.8057 -1.1697 -0.5656
31194SOL     OW97112   1.398   1.078  10.870  0.4683  0.2199  0.3405
31194SOL    HW197113   1.315   1.097  10.914  0.3755 -1.1788  0.8164
31194SOL    HW297114   1.461   1.070  10.942  0.7771  0.1365  0.0619
31195SOL     OW97115   0.057  10.845   0.900  0.2997 -0.1115 -0.1729
31195SOL    HW197116   0.038  10.888   0.983 -0.1351 -0.1727 -0.2383
31195SOL    HW297117   0.140  10.800   0.915  0.8501  0.8850 -0.1562
31196SOL     OW97118   0.358   0.737   2.061 -0.3014 -0.3640  0.3576
31196SOL    HW197119   0.423   0.695   2.005  0.0111  0.2603  0.2444
31196SOL    HW297120   0.280   0.743   2.007  0.3373  1.2921 -0.4469
31197SOL     OW97121   6.049   2.780   5.154  0.2737  0.7117 -0.3140
31197SOL    HW197122   6.009   2.707   5.199  0.8178  0.9610  0.6079
31197SOL    HW297123   6.133   2.792   5.198  1.0173  0.7033 -1.6685
31198SOL     OW97124   7.139   7.562   6.705 -0.2895 -0.6906  0.5840
31198SOL    HW197125   7.115   7.626   6.639 -0.8710 -2.5001 -1.0390
31198SOL    HW297126   7.177   7.614   6.776 -1.8929  1.5304 -0.0940
31199SOL     OW97127   8.692   8.113   5.969 -0.1049 -0.1963 -0.1790
31199SOL    HW197128   8.632   8.186   5.954 -0.0639 -0.3106 -0.9188
31199SOL    HW297129   8.713   8.081   5.882 -0.0457 -1.0328  0.1375
31200SOL     OW97130   1.100   0.469   1.694  0.2758  0.2865 -0.3118
31200SOL    HW197131   1.158   0.441   1.765 -0.6470 -2.9801 -0.6898
31200SOL    HW297132   1.044   0.536   1.734  1.2922  0.2243  1.3251
31201SOL     OW97133   2.077   5.935   9.575  0.2530 -0.0540  0.2524
31201SOL    HW197134   2.001   5.989   9.554 -0.9438 -1.0066  1.9306
31201SOL    HW297135   2.051   5.884   9.651  2.0571 -1.5375 -0.0384
31202SOL     OW97136   0.051   5.646   0.762  0.4127  0.0986 -0.2114
31202SOL    HW197137  -0.041   5.666   0.780  0.2234 -0.8290 -0.1068
31202SOL    HW297138   0.095   5.731   0.766 -0.1275  0.3409  1.6216
31203SOL     OW97139   4.096   2.523   6.585 -0.0531  0.4717 -0.0659
31203SOL    HW197140   4.025   2.569   6.629 -0.6498 -1.4992  1.1613
31203SOL    HW297141   4.052   2.454   6.535  0.9532 -1.3155  1.3677
31204SOL     OW97142   0.313   8.570   7.588  0.1205 -0.0420 -0.1530
31204SOL    HW197143   0.254   8.494   7.588 -0.3902  0.3260 -1.6860
31204SOL    HW297144   0.295   8.614   7.671 -3.5406  1.3667 -1.5274
31205SOL     OW97145   9.445   7.904   4.592 -0.1532 -0.0807 -0.4850
31205SOL    HW197146   9.374   7.843   4.609 -0.5238  0.6838  0.8031
31205SOL    HW297147   9.434   7.973   4.657  1.1955  0.5489 -0.8891
31206SOL     OW97148  10.377   4.216   6.816 -0.1375  0.4727 -0.3628
31206SOL    HW197149  10.346   4.139   6.864 -0.6325  0.8081 -0.1342
31206SOL    HW297150  10.417   4.180   6.737  0.2277 -0.0542  0.0559
31207SOL     OW97151  10.836   2.889   4.437 -0.3415  0.4033  0.2952
31207SOL    HW197152  10.870   2.975   4.414 -0.2246 -0.0602 -1.4131
31207SOL    HW297153  10.816   2.895   4.531 -0.1898  2.2115  0.2420
31208SOL     OW97154   3.620   9.582   4.419 -0.4461  0.2626  0.4290
31208SOL    HW197155   3.552   9.649   4.418  1.7083  2.5811 -0.7787
31208SOL    HW297156   3.612   9.541   4.505 -3.5157  0.1822  0.2153
31209SOL     OW97157   0.246   7.424   4.244  0.0476  0.2784  0.3797
31209SOL    HW197158   0.283   7.336   4.250 -0.2446  0.0459 -0.9306
31209SOL    HW297159   0.227   7.448   4.334 -0.8235 -1.4102  0.6862
31210SOL     OW97160   1.364   1.106   6.781  0.4619 -0.3757  0.0735
31210SOL    HW197161   1.331   1.029   6.734 -0.4170  0.9393 -1.5417
31210SOL    HW297162   1.295   1.171   6.773  1.1625  0.6012  1.4691
31211SOL     OW97163   8.781   1.627   9.627 -0.1946  0.1972  0.2778
31211SOL    HW197164   8.723   1.651   9.699 -2.5052 -2.4085 -0.5579
31211SOL    HW297165   8.788   1.532   9.633  0.8071  0.0648 -2.0597
31212SOL     OW97166   7.813   5.551  10.116 -0.4194 -0.3965 -0.1815
31212SOL    HW197167   7.851   5.489  10.053  0.7785  0.0729  0.0368
31212SOL    HW297168   7.841   5.518  10.201 -0.0587  0.2515 -0.0450
31213SOL     OW97169   7.453   3.418   4.852  0.6987 -0.1008  0.0789
31213SOL    HW197170   7.448   3.367   4.933 -0.8446 -2.2319 -1.2778
31213SOL    HW297171   7.519   3.373   4.799  1.8717  1.4150  0.1559
31214SOL     OW97172   6.069   5.407   3.695  0.7818  0.4385  0.4571
31214SOL    HW197173   5.993   5.428   3.750  1.8248  2.7287  1.1746
31214SOL    HW297174   6.107   5.329   3.735 -0.9963 -0.5653  0.2653
31215SOL     OW97175   0.971   1.507   0.217 -0.1831  0.0097  0.8023
31215SOL    HW197176   0.896   1.555   0.182  0.1057  0.5479  0.8978
31215SOL    HW297177   0.947   1.487   0.307 -0.2203  0.1784  0.8312
31216SOL     OW97178  10.124   1.219   1.212 -0.1923  0.2010 -0.1071
31216SOL    HW197179  10.164   1.252   1.292 -0.1461  1.2595 -0.5580
31216SOL    HW297180  10.030   1.221   1.229 -0.1383 -0.8007  0.3793
31217SOL     OW97181   5.438   5.977   6.880  0.0648 -0.1678 -0.7394
31217SOL    HW197182   5.431   5.912   6.809  1.1029 -2.0176  0.7514
31217SOL    HW297183   5.403   6.058   6.842 -0.7384 -1.4326 -2.8844
31218SOL     OW97184   8.203   7.722   2.911 -0.3395 -0.1209  0.0702
31218SOL    HW197185   8.113   7.695   2.931 -0.1494 -1.5812 -0.8665
31218SOL    HW297186   8.234   7.763   2.992 -2.0725  1.1124  0.1705
31219SOL     OW97187   1.816   0.910   1.114 -0.8656 -0.2796 -0.1115
31219SOL    HW197188   1.854   0.991   1.081  1.4420 -0.9209  0.7538
31219SOL    HW297189   1.806   0.855   1.036 -0.7273  0.1729 -0.4548
31220SOL     OW97190   1.508   2.596   2.037  0.3288 -0.0876 -0.7625
31220SOL    HW197191   1.559   2.673   2.061 -0.0813 -0.1702  0.4312
31220SOL    HW297192   1.523   2.534   2.109 -2.3002  0.3002  0.2481
31221SOL     OW97193   8.142  10.428   2.773 -0.3573  0.2937  0.5548
31221SOL    HW197194   8.134  10.377   2.854  2.7238  0.6239  1.1903
31221SOL    HW297195   8.209  10.494   2.793  1.1502 -0.1386 -2.5115
31222SOL     OW97196   2.196   9.972   7.926 -0.9192  0.4506 -0.6519
31222SOL    HW197197   2.270   9.979   7.866 -1.2049  1.0350 -0.9436
31222SOL    HW297198   2.126   9.935   7.872 -0.7228 -0.5344 -0.2638
31223SOL     OW97199  10.610   4.667   1.940  0.6801 -0.6703  0.1966
31223SOL    HW197200  10.572   4.592   1.986 -3.6530 -0.3587 -2.2852
31223SOL    HW297201  10.667   4.629   1.874  0.0300 -1.7046  0.2057
31224SOL     OW97202   2.768   7.973   8.250 -0.0658  0.6362 -0.2407
31224SOL    HW197203   2.838   8.025   8.290  0.7525 -1.1576  0.7828
31224SOL    HW297204   2.777   7.990   8.156  2.1002  0.1036 -0.1936
31225SOL     OW97205   0.089   3.679  10.775  0.2613 -0.0239  0.2874
31225SOL    HW197206   0.181   3.696  10.755 -0.2774  1.0810 -1.4685
31225SOL    HW297207   0.052   3.645  10.693 -0.5012 -2.3671  1.5042
31226SOL     OW97208   0.238   8.266   8.519 -0.3906 -0.1898  0.1175
31226SOL    HW197209   0.235   8.285   8.613 -2.2785 -0.5977  0.1760
31226SOL    HW297210   0.146   8.260   8.493  0.0654  1.2020 -2.0336
31227SOL     OW97211  10.439   3.395   5.190 -0.5647 -0.1660 -0.3378
31227SOL    HW197212  10.402   3.406   5.277  1.0073  1.1260  0.2150
31227SOL    HW297213  10.534   3.395   5.204 -0.2466  1.1926 -2.1298
31228SOL     OW97214   8.053   2.756  10.350 -0.5603 -0.5230  0.1306
31228SOL    HW197215   7.963   2.755  10.381 -0.8374 -2.0141 -0.6255
31228SOL    HW297216   8.059   2.834  10.295 -0.7384  0.7854  1.8830
31229SOL     OW97217  10.758   3.361   7.440 -0.2226  0.0070 -0.1001
31229SOL    HW197218  10.816   3.299   7.396 -0.9399 -0.6320 -0.1661
31229SOL    HW297219  10.797   3.446   7.423  0.1340 -0.3239 -1.0244
31230SOL     OW97220   0.260   0.227   2.299  0.0434  0.2158 -0.3082
31230SOL    HW197221   0.217   0.282   2.364  3.8889  1.2787  1.6264
31230SOL    HW297222   0.249   0.273   2.217 -1.2236  1.1238  0.3403
31231SOL     OW97223   8.909   0.683   6.805  0.2209  0.2674 -0.1624
31231SOL    HW197224   8.984   0.662   6.861 -0.7002 -2.9487  0.0948
31231SOL    HW297225   8.833   0.672   6.862 -0.5462  1.6360 -0.8836
31232SOL     OW97226   4.414   6.682   4.192  0.6687  0.3373  0.3853
31232SOL    HW197227   4.340   6.740   4.175  0.3574  0.0256  0.6806
31232SOL    HW297228   4.491   6.738   4.181  0.4123  0.5463 -0.4067
31233SOL     OW97229   3.483   5.491   4.587  0.5270 -0.0322 -0.1169
31233SOL    HW197230   3.443   5.559   4.641 -2.2323 -0.5591 -1.3321
31233SOL    HW297231   3.460   5.409   4.631 -1.7780 -0.4670 -1.9705
31234SOL     OW97232   9.003   0.220   1.662 -0.3348  0.0923  0.0640
31234SOL    HW197233   9.095   0.198   1.670 -0.5671 -0.9126  0.1223
31234SOL    HW297234   9.002   0.314   1.648  0.6973  0.1108  0.0394
31235SOL     OW97235   2.840  10.401   4.859  0.0188  0.3186  0.0772
31235SOL    HW197236   2.920  10.429   4.903 -0.7460  1.6063  0.7184
31235SOL    HW297237   2.769  10.430   4.917 -0.9459  0.1079 -0.9557
31236SOL     OW97238   2.823   3.201   2.953  1.1586  0.0391  0.2659
31236SOL    HW197239   2.803   3.108   2.939 -0.5611  0.3856  0.3182
31236SOL    HW297240   2.856   3.204   3.043  0.0986 -0.3593  0.6801
31237SOL     OW97241   1.231   7.319   2.097  0.3347 -0.6042  0.0734
31237SOL    HW197242   1.239   7.398   2.150  1.3380 -1.1293  0.7284
31237SOL    HW297243   1.138   7.314   2.076 -0.0760 -0.3183  1.6891
31238SOL     OW97244   6.331   5.771   6.046  0.1739  0.1059  0.7518
31238SOL    HW197245   6.378   5.831   6.103 -0.6194  0.8361  0.6631
31238SOL    HW297246   6.397   5.709   6.015  0.4471 -0.9479  3.2426
31239SOL     OW97247   0.702   0.054   7.618  0.1915  0.3094 -0.0779
31239SOL    HW197248   0.671  -0.006   7.551 -0.2715  0.1195  0.3015
31239SOL    HW297249   0.653   0.135   7.604  1.6131  1.0050 -1.2950
31240SOL     OW97250   8.240   9.026   9.924 -0.5212  0.2033  0.3567
31240SOL    HW197251   8.287   9.106   9.946  0.1719 -0.3630  1.0070
31240SOL    HW297252   8.148   9.047   9.939 -0.2645  0.5926  1.5142
31241SOL     OW97253   1.028   2.182   1.239  0.0902 -0.3451 -0.0044
31241SOL    HW197254   1.110   2.176   1.191 -0.9753  2.8796 -2.6280
31241SOL    HW297255   1.050   2.232   1.318  0.5998  1.1058 -1.0259
31242SOL     OW97256   7.637   1.825   5.770 -0.4102  0.2815  0.0049
31242SOL    HW197257   7.722   1.867   5.762 -1.0423  1.5150 -0.4530
31242SOL    HW297258   7.656   1.731   5.767  0.8764  0.5428 -0.5138
31243SOL     OW97259   4.950   6.213   7.557  0.7219 -0.3377  0.4445
31243SOL    HW197260   5.038   6.174   7.559  1.5450  1.4360  0.6269
31243SOL    HW297261   4.919   6.205   7.648  0.7146 -0.8897  0.3991
31244SOL     OW97262  10.687   7.745   0.035 -0.0459 -0.0082  0.3991
31244SOL    HW197263  10.722   7.746   0.124 -0.0468 -0.0856  0.4000
31244SOL    HW297264  10.742   7.681  -0.011  2.2377  2.4333 -0.5592
31245SOL     OW97265   8.534   7.903  11.089 -0.2858  0.6234  0.2258
31245SOL    HW197266   8.497   7.825  11.048  0.7597 -1.7108  3.3296
31245SOL    HW297267   8.607   7.927  11.032 -0.9201 -0.3531 -1.0606
31246SOL     OW97268   2.110   2.636   3.875  0.0854  0.4730 -0.0849
31246SOL    HW197269   2.021   2.645   3.912 -0.2820 -0.5357 -0.6909
31246SOL    HW297270   2.162   2.602   3.948 -0.0664  0.8391  0.2036
31247SOL     OW97271   0.208   9.348   1.029  0.1376  0.3057 -0.2644
31247SOL    HW197272   0.216   9.442   1.013  2.1822  0.4157  1.0974
31247SOL    HW297273   0.146   9.342   1.103  1.0495  0.7024  0.5551
31248SOL     OW97274   5.358   3.303   0.265  0.1997 -0.1383 -0.6789
31248SOL    HW197275   5.262   3.308   0.260 -0.0327 -2.7021 -0.1405
31248SOL    HW297276   5.377   3.313   0.358  0.6007  1.4945 -0.9056
31249SOL     OW97277   4.940   2.158   8.581  0.2283  0.4946 -0.1745
31249SOL    HW197278   4.865   2.213   8.603  1.3015  1.5446  1.1186
31249SOL    HW297279   5.015   2.205   8.618  1.4007 -1.0441 -0.4871
31250SOL     OW97280   4.071   0.228  10.837 -0.3021 -0.2287  0.6090
31250SOL    HW197281   4.113   0.238  10.752 -0.9334  1.2941  0.4319
31250SOL    HW297282   4.018   0.308  10.847  0.2298 -0.0743  2.6904
31251SOL     OW97283  10.452  11.065   0.617 -0.2655 -0.1155  0.2669
31251SOL    HW197284  10.538  11.040   0.586 -1.4170 -2.1979 -1.5139
31251SOL    HW297285  10.442  11.157   0.590  1.4885  0.3037  0.8985
31252SOL     OW97286   6.048   2.823   8.506 -0.1609 -0.0510  0.2055
31252SOL    HW197287   6.055   2.727   8.508  1.2796  0.0508  1.9350
31252SOL    HW297288   6.137   2.854   8.521 -0.4782  1.5950 -1.0981
31253SOL     OW97289   8.868   1.961   5.197  0.3733  0.2160 -0.0977
31253SOL    HW197290   8.826   2.001   5.121 -0.2499 -1.4088 -0.6543
31253SOL    HW297291   8.932   2.026   5.227 -1.0960  1.9058 -0.4810
31254SOL     OW97292   7.512   8.775   5.414 -0.1790 -0.0061  0.2485
31254SOL    HW197293   7.513   8.834   5.490 -0.7513  0.0632  0.2070
31254SOL    HW297294   7.591   8.798   5.365 -0.8648  1.3845 -0.2664
31255SOL     OW97295   8.303   7.472   8.629  0.4450  0.3215  0.4345
31255SOL    HW197296   8.321   7.379   8.634  0.4286  0.3830  2.0685
31255SOL    HW297297   8.388   7.514   8.646  0.1785  0.5911  1.1564
31256SOL     OW97298   7.936   8.746  10.254 -0.1766  0.6078 -0.4315
31256SOL    HW197299   7.934   8.748  10.350 -0.3240  0.6736 -0.4361
31256SOL    HW297300   7.958   8.655  10.233 -2.4873 -0.0154 -0.3717
31257SOL     OW97301   4.378   4.585   5.126  0.1978 -1.0426  0.2847
31257SOL    HW197302   4.338   4.594   5.212  1.4743 -0.6231  0.8607
31257SOL    HW297303   4.363   4.669   5.084  0.0437 -1.0593  0.3068
31258SOL     OW97304   9.765   1.568   8.154 -0.2129 -0.0998  0.6210
31258SOL    HW197305   9.802   1.482   8.171 -0.1295 -0.2744 -0.3403
31258SOL    HW297306   9.829   1.629   8.190  2.7456 -0.2756 -3.5502
31259SOL     OW97307   0.757   6.673   2.977 -0.5535  0.1249  0.1352
31259SOL    HW197308   0.688   6.705   3.035 -0.5121 -0.4337  0.5023
31259SOL    HW297309   0.713   6.610   2.920 -0.1650 -1.0058  1.0466
31260SOL     OW97310   2.994   1.203   7.178  0.5091 -0.0277 -0.0086
31260SOL    HW197311   3.026   1.286   7.142  1.2751 -0.3818 -0.1649
31260SOL    HW297312   3.067   1.169   7.229  0.0573 -0.4196  0.3888
31261SOL     OW97313   4.811   4.661   5.199  0.6765  0.0151 -0.3436
31261SOL    HW197314   4.743   4.597   5.220 -0.8842  1.8376  0.4570
31261SOL    HW297315   4.865   4.666   5.277  0.2489  0.3157 -0.0631
31262SOL     OW97316  10.264   8.118   2.249 -0.4802  0.0184 -0.2259
31262SOL    HW197317  10.328   8.189   2.254  0.2566 -0.6737  1.1198
31262SOL    HW297318  10.230   8.122   2.160  0.0003  1.6430 -0.3738
31263SOL     OW97319  10.344   1.561   5.286 -0.5909 -0.5119 -0.1617
31263SOL    HW197320  10.338   1.528   5.196 -0.0829  0.6703 -0.6559
31263SOL    HW297321  10.310   1.490   5.340  0.3283 -1.7832 -1.1704
31264SOL     OW97322   3.563  11.026   9.972  0.2901 -0.3950  0.1271
31264SOL    HW197323   3.643  11.078   9.968  0.9781 -1.2633  1.7399
31264SOL    HW297324   3.541  11.023  10.065  0.3421 -2.9972  0.1338
31265SOL     OW97325   3.724   7.665   8.222 -0.2693  0.2243 -0.0792
31265SOL    HW197326   3.699   7.602   8.289 -0.0248  1.1689  0.9218
31265SOL    HW297327   3.787   7.618   8.167 -0.5011 -0.5755  0.3190
31266SOL     OW97328  10.400   7.257   1.050  0.1487  0.0129  0.3078
31266SOL    HW197329  10.478   7.204   1.061 -0.2243 -0.3036  1.6903
31266SOL    HW297330  10.425   7.325   0.988  1.3138 -0.4690  0.2288
31267SOL     OW97331   7.505   6.764   5.432 -0.5566 -0.6297  0.6823
31267SOL    HW197332   7.416   6.770   5.397 -0.2104 -2.5529 -0.7253
31267SOL    HW297333   7.560   6.796   5.361  0.0198 -2.1684  0.4073
31268SOL     OW97334   2.619   2.385   1.961 -0.4098  0.2961  0.4635
31268SOL    HW197335   2.544   2.372   1.903 -1.1391  2.5413  0.7969
31268SOL    HW297336   2.693   2.402   1.901 -0.6248  0.1521  0.1542
31269SOL     OW97337   7.328   4.093   3.962  0.4286  0.1812  0.0663
31269SOL    HW197338   7.420   4.113   3.980  0.4787  0.3645 -0.3756
31269SOL    HW297339   7.305   4.027   4.027  0.7978  0.3245  0.3474
31270SOL     OW97340   4.806  10.195  10.904 -0.1525 -0.2574  0.6593
31270SOL    HW197341   4.850  10.272  10.869 -0.9156  1.0841  2.5213
31270SOL    HW297342   4.876  10.133  10.923  0.4637 -0.0998 -0.9514
31271SOL     OW97343   5.718   4.000   3.342 -0.0587  0.6456 -0.2956
31271SOL    HW197344   5.754   4.089   3.337 -1.8559  1.3565 -2.1378
31271SOL    HW297345   5.766   3.952   3.275 -1.0407  1.0359 -1.3050
31272SOL     OW97346   6.794   1.776   3.753  0.5757  0.7033 -0.4886
31272SOL    HW197347   6.789   1.871   3.765  0.1442  0.6032  0.1875
31272SOL    HW297348   6.768   1.762   3.662  1.3225  1.2865 -0.7960
31273SOL     OW97349  10.803   6.618   7.947 -0.3298 -0.0012 -0.3065
31273SOL    HW197350  10.729   6.562   7.922 -0.4682  0.3302 -0.6563
31273SOL    HW297351  10.879   6.560   7.945 -0.5295 -0.2654 -0.2819
31274SOL     OW97352   5.616   9.667   3.160  0.0712 -0.3799 -0.8509
31274SOL    HW197353   5.529   9.644   3.128  0.3980 -2.1017 -0.5838
31274SOL    HW297354   5.671   9.668   3.082  0.0743 -0.6340 -0.8529
31275SOL     OW97355   0.277   4.276   6.547  0.2908  0.1695 -0.3504
31275SOL    HW197356   0.328   4.200   6.576  0.9073  0.8361  0.3253
31275SOL    HW297357   0.188   4.241   6.536  0.2579 -0.3656  1.2857
31276SOL     OW97358   3.340   6.770   7.104 -0.0077 -0.0217 -0.2544
31276SOL    HW197359   3.435   6.778   7.112 -0.1892  2.9692 -0.0161
31276SOL    HW297360   3.308   6.778   7.194 -0.5223 -2.5109 -0.1249
31277SOL     OW97361   1.912   5.460   1.120  1.2338  0.1483  0.1997
31277SOL    HW197362   1.829   5.438   1.077  0.7609  2.1441 -0.0024
31277SOL    HW297363   1.964   5.503   1.052  1.6216  0.7368  0.8448
31278SOL     OW97364   8.267   3.966   9.373 -0.2798 -0.7596  0.0501
31278SOL    HW197365   8.246   3.873   9.374 -1.2381 -0.5702 -0.9863
31278SOL    HW297366   8.221   4.001   9.297  2.5497 -0.0034 -1.4548
31279SOL     OW97367   2.445   5.875   8.939 -0.4369 -0.1055  0.4307
31279SOL    HW197368   2.540   5.874   8.954 -0.4302  1.7756  0.8184
31279SOL    HW297369   2.436   5.893   8.845 -0.4538 -2.2794 -0.0294
31280SOL     OW97370   0.946   1.347   9.188 -0.2297  0.2142  0.2534
31280SOL    HW197371   0.918   1.398   9.264  0.4563  0.3751  0.4040
31280SOL    HW297372   1.020   1.295   9.220 -0.6828 -0.6132  0.0078
31281SOL     OW97373   4.505   8.172   8.706 -0.3644  0.6004  0.3288
31281SOL    HW197374   4.563   8.179   8.782  0.7918 -1.4625 -0.2920
31281SOL    HW297375   4.561   8.137   8.636 -2.1005 -0.4573 -0.6040
31282SOL     OW97376   3.216   0.573  11.077  0.4714 -0.1104 -0.2528
31282SOL    HW197377   3.213   0.501  11.015 -4.3908 -0.0382 -0.4564
31282SOL    HW297378   3.269   0.640  11.033  2.1318 -2.1681 -1.5882
31283SOL     OW97379   2.347   5.409   2.881  0.7585  0.2809 -0.1988
31283SOL    HW197380   2.343   5.317   2.906 -0.4052 -0.4648 -2.7827
31283SOL    HW297381   2.408   5.411   2.806  1.1834  1.7118  0.1523
31284SOL     OW97382   9.823   6.597  10.713  0.0436 -0.1273  0.1073
31284SOL    HW197383   9.888   6.591  10.783  0.2089  2.3136  0.2419
31284SOL    HW297384   9.739   6.602  10.758 -0.1415 -1.6746 -0.0162
31285SOL     OW97385   3.215   4.122   7.806  0.2292 -0.0355 -0.3657
31285SOL    HW197386   3.262   4.203   7.825  0.6799  0.0865 -1.8518
31285SOL    HW297387   3.258   4.087   7.728  0.2525 -1.8854  0.4172
31286SOL     OW97388   6.803   6.186   9.062  0.0423  0.1299 -0.7930
31286SOL    HW197389   6.897   6.185   9.081 -0.3413  0.7342  1.4252
31286SOL    HW297390   6.782   6.095   9.042  1.1723  0.0805 -1.8758
31287SOL     OW97391   8.878   6.281  10.994 -0.0871  0.1665  0.4745
31287SOL    HW197392   8.929   6.320  10.923 -1.3442  0.4660 -0.3084
31287SOL    HW297393   8.883   6.186  10.978  0.0826  0.2052  0.3000
31288SOL     OW97394   3.083   9.482   5.414 -0.3637 -0.2593 -0.1187
31288SOL    HW197395   3.086   9.392   5.384  1.2659 -0.9253  1.7998
31288SOL    HW297396   3.175   9.506   5.429 -0.7156  1.8605 -0.9180
31289SOL     OW97397   9.767   8.808   5.025 -0.2695  0.4603 -0.2160
31289SOL    HW197398   9.696   8.865   4.995  0.2452  0.5260 -1.3717
31289SOL    HW297399   9.836   8.869   5.051  0.4715  0.4067 -1.9237
31290SOL     OW97400   4.392   9.476   9.453 -0.2094  0.5664  0.7114
31290SOL    HW197401   4.454   9.449   9.521 -0.1053  0.0281  0.4143
31290SOL    HW297402   4.307   9.444   9.483  0.1368 -1.5570 -0.3739
31291SOL     OW97403   9.777   2.601   6.262 -0.2779  0.1885  0.3298
31291SOL    HW197404   9.863   2.610   6.303 -0.6000  0.2842  0.9918
31291SOL    HW297405   9.741   2.520   6.299 -0.9912  0.8062  1.0382
31292SOL     OW97406   8.195   2.265   2.012 -0.5169  0.1424 -0.7411
31292SOL    HW197407   8.197   2.267   2.108  1.3977 -0.3440 -0.7282
31292SOL    HW297408   8.281   2.298   1.986 -0.1259 -1.8779 -2.2186
31293SOL     OW97409   3.178   3.009   8.365 -0.3008  0.4429  0.1564
31293SOL    HW197410   3.261   2.996   8.412 -0.6287 -0.3617  0.5281
31293SOL    HW297411   3.205   3.033   8.276  0.3708 -1.1825 -0.1220
31294SOL     OW97412   7.675   0.837   6.853 -0.6096 -0.2024 -0.1493
31294SOL    HW197413   7.692   0.834   6.759 -2.0898  0.1894 -0.4495
31294SOL    HW297414   7.754   0.878   6.890 -0.1797  0.0018 -1.2547
31295SOL     OW97415   8.739   7.089   2.754  0.1945 -0.0515 -0.4376
31295SOL    HW197416   8.673   7.151   2.784  1.1613  0.7394  0.1405
31295SOL    HW297417   8.808   7.093   2.820  1.3845  0.0753 -1.6391
31296SOL     OW97418   5.858   1.547   8.652  0.0909 -0.1122 -0.3274
31296SOL    HW197419   5.817   1.547   8.566  0.5513 -1.3337 -0.5765
31296SOL    HW297420   5.811   1.479   8.701 -0.4578  0.8703  0.5478
31297SOL     OW97421   2.644   1.797   4.892  0.4464 -0.3040  0.5986
31297SOL    HW197422   2.730   1.800   4.934 -0.0262  1.1389  1.5388
31297SOL    HW297423   2.585   1.766   4.961 -0.2716  1.6996  0.9568
31298SOL     OW97424   5.054   3.153   1.113 -0.0318  0.3989  0.0796
31298SOL    HW197425   4.999   3.173   1.037  0.4631  0.5749 -0.2368
31298SOL    HW297426   5.112   3.082   1.083 -1.7408 -1.5707  1.1719
31299SOL     OW97427   7.892   2.474   2.515  0.3208 -0.3361  0.0895
31299SOL    HW197428   7.979   2.474   2.554  0.2824 -1.0037  0.1825
31299SOL    HW297429   7.893   2.401   2.453  0.0635  0.1036 -0.4421
31300SOL     OW97430   4.882   9.410   9.522 -0.5202  0.8608 -0.4588
31300SOL    HW197431   4.924   9.417   9.607 -0.5318 -0.6068 -0.3069
31300SOL    HW297432   4.944   9.448   9.461 -0.0643  0.9817  0.0741
31301SOL     OW97433   6.542   2.548   4.185 -0.4009  0.2236 -0.4177
31301SOL    HW197434   6.531   2.536   4.091 -0.6921 -1.8684 -0.1610
31301SOL    HW297435   6.632   2.520   4.203 -0.9054 -1.1401  0.1403
31302SOL     OW97436   2.043   5.418   1.813  0.5888  0.0096  0.0540
31302SOL    HW197437   1.951   5.425   1.838  0.9470  0.9462  1.2057
31302SOL    HW297438   2.086   5.381   1.891  1.2017 -0.3636 -0.4531
31303SOL     OW97439   9.057   0.632   5.124 -0.0983  0.6897  0.0487
31303SOL    HW197440   9.072   0.725   5.139  0.2884  0.7108 -0.4394
31303SOL    HW297441   9.051   0.623   5.029 -2.8606  0.6047  0.1509
31304SOL     OW97442   6.033   3.304   9.296 -0.1034  0.3041  0.0495
31304SOL    HW197443   5.969   3.246   9.257  0.8450 -0.6009 -0.1977
31304SOL    HW297444   5.995   3.330   9.380 -0.9855  0.1670 -0.3011
31305SOL     OW97445   3.757   3.027   5.526 -0.0516  0.3328 -0.0450
31305SOL    HW197446   3.764   3.011   5.621 -1.8221  0.2818  0.1155
31305SOL    HW297447   3.824   3.092   5.508  3.0492 -2.4661  0.4763
31306SOL     OW97448   7.450   0.696   6.174 -0.4195  0.3274  0.5461
31306SOL    HW197449   7.490   0.613   6.150  0.0467  0.3972  1.0581
31306SOL    HW297450   7.357   0.676   6.186 -0.6051  0.2219 -0.9147
31307SOL     OW97451   1.711   4.067   3.460 -0.4553 -0.6036  0.5634
31307SOL    HW197452   1.755   4.151   3.459 -1.5221 -0.0209 -1.3043
31307SOL    HW297453   1.776   4.006   3.494  1.2936  0.4817 -0.7021
31308SOL     OW97454  10.541   4.908   8.197 -0.3676  0.4929  0.1533
31308SOL    HW197455  10.451   4.940   8.187 -0.8682 -1.0922 -0.8385
31308SOL    HW297456  10.533   4.813   8.188  1.1895  0.1603  1.8271
31309SOL     OW97457   0.594   7.461   4.146  0.3112 -0.6016  0.2053
31309SOL    HW197458   0.621   7.375   4.113 -0.0707 -0.0560 -1.5855
31309SOL    HW297459   0.526   7.441   4.211 -0.0791 -1.6305 -0.4987
31310SOL     OW97460   6.780   3.044   3.328  0.3933 -0.0345  0.2115
31310SOL    HW197461   6.702   2.992   3.345  0.7496 -0.5584  0.2592
31310SOL    HW297462   6.750   3.114   3.271  0.2075 -1.1909 -1.1672
31311SOL     OW97463  10.513   2.826   7.802 -0.1442  0.1208  0.3406
31311SOL    HW197464  10.604   2.855   7.801 -0.1134  0.0487  0.9696
31311SOL    HW297465  10.463   2.899   7.764  0.4854 -0.9514 -2.8239
31312SOL     OW97466   7.780   6.362   7.690  0.0183  0.8200 -0.0178
31312SOL    HW197467   7.707   6.300   7.690 -0.1966  1.0697 -0.1630
31312SOL    HW297468   7.796   6.380   7.782  0.8952 -0.3902  0.0890
31313SOL     OW97469   9.884   0.384   4.972 -0.5570 -0.1791 -0.4833
31313SOL    HW197470   9.964   0.434   4.988 -2.0139  1.7430  1.4733
31313SOL    HW297471   9.906   0.294   4.995  0.7167  0.5376  1.3275
31314SOL     OW97472   6.111   5.673   5.652 -1.0457 -0.1280 -0.9702
31314SOL    HW197473   6.084   5.608   5.587 -2.6835  0.7550 -1.2149
31314SOL    HW297474   6.032   5.694   5.701 -0.0348 -0.0901  0.7409
31315SOL     OW97475   6.960   9.012   5.271  0.6862 -0.1156 -0.5237
31315SOL    HW197476   6.978   8.964   5.190 -0.0152 -0.8418 -0.2623
31315SOL    HW297477   6.880   9.061   5.253 -0.0449 -1.0725  0.0476
31316SOL     OW97478   0.185   8.894   0.164  0.2771 -0.0900  0.3034
31316SOL    HW197479   0.242   8.884   0.087 -0.8920 -0.2877 -0.5686
31316SOL    HW297480   0.171   8.988   0.172 -0.5769 -0.1306 -0.4977
31317SOL     OW97481   3.477   5.710   1.407  0.2373 -0.0065  0.6738
31317SOL    HW197482   3.401   5.762   1.435 -0.8935 -2.2435  2.0158
31317SOL    HW297483   3.517   5.680   1.489  2.0546  0.3558 -0.0366
31318SOL     OW97484   5.547   9.364   0.039 -0.0115  0.1124 -0.4146
31318SOL    HW197485   5.581   9.326   0.120 -0.6430  1.0945  0.3353
31318SOL    HW297486   5.624   9.368  -0.019  0.7308  0.5006  0.5643
31319SOL     OW97487   4.114   1.615   3.755  0.1871 -0.6052  0.3184
31319SOL    HW197488   4.048   1.548   3.777 -1.0151  1.0990  2.2944
31319SOL    HW297489   4.185   1.566   3.715 -0.3509 -3.1958  2.2441
31320SOL     OW97490   0.394   9.456   2.268 -0.4789 -0.0966 -0.1778
31320SOL    HW197491   0.474   9.494   2.233  0.6338 -0.8256  1.4500
31320SOL    HW297492   0.323   9.502   2.222  0.8560  0.5005 -1.7004
31321SOL     OW97493   6.019  10.461   8.396  0.5694  0.0474  0.5335
31321SOL    HW197494   6.060  10.390   8.346  0.3002  0.5365 -0.4118
31321SOL    HW297495   5.953  10.417   8.449  0.7403 -0.4762  0.3246
31322SOL     OW97496   7.215   8.659   6.266 -0.2618 -0.0187 -0.0804
31322SOL    HW197497   7.172   8.620   6.190  1.3500 -0.3345 -0.8745
31322SOL    HW297498   7.204   8.595   6.335 -0.4098 -0.4431 -0.4904
31323SOL     OW97499   1.737   1.716   9.120  0.1533 -0.5754 -0.2201
31323SOL    HW197500   1.688   1.688   9.043 -0.9142 -1.2625  0.6702
31323SOL    HW297501   1.739   1.638   9.176  1.7962 -0.4022  0.0300
31324SOL     OW97502   9.061   6.197   1.867  0.0635 -0.2712  0.0482
31324SOL    HW197503   9.051   6.277   1.918  1.4080  0.7057 -1.1339
31324SOL    HW297504   8.988   6.141   1.895 -0.7377  1.2323  1.1099
31325SOL     OW97505   2.882  10.249   5.888 -0.2984  0.1193 -0.0859
31325SOL    HW197506   2.959  10.210   5.847  1.1687  1.7725  1.0176
31325SOL    HW297507   2.824  10.174   5.903  0.8848 -1.1125 -1.2922
31326SOL     OW97508   5.251  10.091  10.552 -0.0075  0.5721 -0.1430
31326SOL    HW197509   5.246  10.137  10.469  0.2623 -0.3144 -0.6626
31326SOL    HW297510   5.253  10.160  10.618  0.7877  1.3126 -0.9176
31327SOL     OW97511   1.224   3.697  10.622 -0.6995  0.4433 -0.5446
31327SOL    HW197512   1.146   3.687  10.568 -1.1331 -0.1115  0.1725
31327SOL    HW297513   1.216   3.630  10.689  0.8322 -0.1970 -0.9633
31328SOL     OW97514   1.186   6.529   5.186 -0.0738  0.0976 -0.7174
31328SOL    HW197515   1.230   6.533   5.102 -1.8447  1.9812 -1.6349
31328SOL    HW297516   1.189   6.437   5.211  2.5570 -0.1417 -1.6484
31329SOL     OW97517   9.668   5.294   4.304  0.0795 -0.0508  0.3492
31329SOL    HW197518   9.726   5.319   4.375 -0.2809  0.1367  0.5796
31329SOL    HW297519   9.660   5.198   4.311 -0.1050 -0.0104  0.6733
31330SOL     OW97520   8.047   0.260   9.152  0.3888 -0.0008 -0.0106
31330SOL    HW197521   8.117   0.288   9.093  0.5523 -0.3814 -0.0006
31330SOL    HW297522   8.070   0.170   9.175  0.2424  0.0905  0.5089
31331SOL     OW97523   8.836   1.000   4.247 -0.2256 -0.3674 -0.2209
31331SOL    HW197524   8.865   0.913   4.275 -0.2256 -0.1115  0.6286
31331SOL    HW297525   8.745   1.006   4.279 -0.0738  0.1078  0.1372
31332SOL     OW97526   0.697   9.179   5.429 -0.2657  0.6228 -0.2953
31332SOL    HW197527   0.733   9.264   5.402  1.4516 -0.2806 -0.9671
31332SOL    HW297528   0.760   9.147   5.494 -1.1480  0.0400  0.2905
31333SOL     OW97529   6.456   5.632   3.093  0.3525 -0.8603 -0.3534
31333SOL    HW197530   6.367   5.648   3.062  0.4014  0.2785  0.0795
31333SOL    HW297531   6.453   5.649   3.187  0.7731 -1.9268 -0.1297
31334SOL     OW97532   9.580   7.944  10.420 -0.2477  0.0004 -0.1001
31334SOL    HW197533   9.505   7.887  10.405 -0.6761  0.7592 -0.9176
31334SOL    HW297534   9.559   7.990  10.502 -0.4456 -0.1521 -0.0646
31335SOL     OW97535   9.687  10.801   3.297 -0.0290  0.1089  0.0866
31335SOL    HW197536   9.782  10.794   3.290 -0.1828 -1.5424 -1.0325
31335SOL    HW297537   9.663  10.740   3.366 -0.4227 -1.1783 -1.1431
31336SOL     OW97538   9.883   4.617   0.204 -0.8664  0.1356  0.4435
31336SOL    HW197539   9.794   4.603   0.236 -1.2597 -0.3494 -0.8193
31336SOL    HW297540   9.937   4.617   0.283 -1.9660  0.3678  1.2217
31337SOL     OW97541   8.485   6.875   9.819 -0.3554  0.2067  0.0507
31337SOL    HW197542   8.418   6.887   9.752 -1.5542  0.5340  1.2692
31337SOL    HW297543   8.555   6.828   9.774 -1.0322  0.5922 -1.4762
31338SOL     OW97544   3.497   8.947   7.629  0.8208  0.2894 -0.8415
31338SOL    HW197545   3.438   8.881   7.594  2.7495 -1.4166 -1.0501
31338SOL    HW297546   3.520   8.915   7.716  1.5499  0.8481 -0.8183
31339SOL     OW97547   4.646   8.472   9.384  0.3563 -0.1822 -0.6695
31339SOL    HW197548   4.641   8.407   9.454  0.4848 -0.1060 -0.5881
31339SOL    HW297549   4.682   8.424   9.310  0.5794 -0.1737 -0.5686
31340SOL     OW97550   1.967   1.055  10.725  0.9510  0.1151  0.4831
31340SOL    HW197551   1.881   1.014  10.730  0.8365  0.4660  4.0727
31340SOL    HW297552   1.954   1.144  10.758  2.7322 -0.0372  1.7571
31341SOL     OW97553   2.241   3.527  10.873  0.1756  0.6378  0.2922
31341SOL    HW197554   2.282   3.460  10.928  1.3217  0.4935 -0.7138
31341SOL    HW297555   2.299   3.602  10.878 -1.4507  1.8841  1.9666
31342SOL     OW97556   9.326   8.071   5.777  0.5175  0.1839  0.5910
31342SOL    HW197557   9.413   8.100   5.749 -0.7942  3.7278 -0.4065
31342SOL    HW297558   9.336   8.054   5.871  2.9090 -2.7778 -0.0288
31343SOL     OW97559   0.212   4.874   7.241  0.0245 -0.1272 -0.8638
31343SOL    HW197560   0.133   4.855   7.189  1.0711 -0.0548 -2.5599
31343SOL    HW297561   0.277   4.902   7.177  1.0443  1.1636  0.6477
31344SOL     OW97562   2.390   1.947   3.036  0.0032 -0.2837  0.1439
31344SOL    HW197563   2.378   1.882   2.966  0.5416  0.8139 -0.9974
31344SOL    HW297564   2.300   1.973   3.059 -0.3642 -2.7980  2.0226
31345SOL     OW97565   9.724   7.688   2.667  0.2765  0.0934 -0.1519
31345SOL    HW197566   9.817   7.669   2.682  0.1855  0.7173  1.3675
31345SOL    HW297567   9.681   7.666   2.750 -0.5873  1.8612 -0.0903
31346SOL     OW97568   7.580   2.618   5.053  0.1463  0.1000  0.2900
31346SOL    HW197569   7.625   2.552   5.000 -1.2587 -0.2808 -0.5021
31346SOL    HW297570   7.489   2.615   5.022 -0.1766  1.6697  0.9770
31347SOL     OW97571   0.284  10.932  11.085  0.2170  0.1243  0.3860
31347SOL    HW197572   0.277  11.008  11.026  2.3062  3.4891  3.9893
31347SOL    HW297573   0.358  10.882  11.050 -0.7631  0.0240 -1.6924
31348SOL     OW97574   2.242   6.953  10.487 -0.1737  0.0524  0.5396
31348SOL    HW197575   2.300   6.878  10.474 -0.0452  0.1667  0.4495
31348SOL    HW297576   2.272   6.994  10.568 -0.9009 -0.5905  1.1553
31349SOL     OW97577   7.117   8.749  11.088 -0.2515  0.0118 -0.2805
31349SOL    HW197578   7.088   8.677  11.145  0.4706 -0.8074 -0.9244
31349SOL    HW297579   7.043   8.809  11.087 -0.9087 -0.7578  0.2111
31350SOL     OW97580   1.173   2.535   1.060 -0.1980  0.4153 -0.0548
31350SOL    HW197581   1.190   2.441   1.057 -0.5244  0.3860 -1.9652
31350SOL    HW297582   1.136   2.549   1.148  0.0656 -1.1886  0.3515
31351SOL     OW97583   6.717   3.470   9.132  0.2922 -0.0274 -0.2110
31351SOL    HW197584   6.703   3.377   9.147 -0.2225 -0.0524 -0.8078
31351SOL    HW297585   6.713   3.510   9.219  1.9244 -0.7314  0.2165
31352SOL     OW97586   3.870   4.517   7.382  0.1762  0.0030 -0.7035
31352SOL    HW197587   3.866   4.591   7.321  1.5382  0.6598 -0.0481
31352SOL    HW297588   3.959   4.483   7.371  0.8608  0.8258  1.6522
31353SOL     OW97589   1.367   6.463  10.089  0.2360 -0.0673 -0.1110
31353SOL    HW197590   1.402   6.377  10.064 -1.0606 -0.2629 -1.4126
31353SOL    HW297591   1.348   6.506  10.006 -1.1711  0.6002  0.5234
31354SOL     OW97592   8.534   4.002   4.087 -0.0326 -0.1592  0.0002
31354SOL    HW197593   8.526   4.062   4.013 -0.5897  0.1228  0.2799
31354SOL    HW297594   8.567   3.920   4.049 -0.5366 -0.0901 -0.5979
31355SOL     OW97595   5.763  10.251   6.251 -0.6243 -0.1900  0.3281
31355SOL    HW197596   5.853  10.248   6.282 -0.6650 -2.3547  0.4289
31355SOL    HW297597   5.713  10.287   6.324  0.0427  0.2288  0.5834
31356SOL     OW97598   3.761   6.859   8.443  0.5139 -0.1335 -0.2983
31356SOL    HW197599   3.763   6.880   8.537  1.7791  0.1979 -0.3790
31356SOL    HW297600   3.849   6.827   8.424 -0.4439 -2.5856 -0.8726
31357SOL     OW97601  10.340   1.207   6.712 -0.1743 -0.2438  0.3438
31357SOL    HW197602  10.429   1.192   6.682 -0.5789 -1.0496 -0.5115
31357SOL    HW297603  10.306   1.275   6.653  0.4213  1.3768  1.7915
31358SOL     OW97604   1.628   4.987   8.243  0.8192 -0.2973  0.1369
31358SOL    HW197605   1.602   4.919   8.305 -1.6887  1.0625  0.7068
31358SOL    HW297606   1.618   4.947   8.157 -4.2832  0.1822  0.1977
31359SOL     OW97607   4.949   5.011   4.826  0.3508 -0.0815 -0.9489
31359SOL    HW197608   4.977   5.005   4.917 -0.8559  0.6187 -0.5094
31359SOL    HW297609   4.890   4.936   4.814 -1.1928  0.9973 -0.4838
31360SOL     OW97610   8.563   0.646   5.596  0.3170 -0.0607 -0.1160
31360SOL    HW197611   8.504   0.582   5.556  0.3117  0.9027 -1.7674
31360SOL    HW297612   8.559   0.627   5.689 -0.6889 -1.6067 -0.4254
31361SOL     OW97613   0.405  10.111   0.223  0.3488  0.1415  0.0037
31361SOL    HW197614   0.359  10.174   0.279  2.4776 -1.0014  3.3475
31361SOL    HW297615   0.472  10.164   0.179  0.2581  0.6828  0.4983
31362SOL     OW97616  10.733   8.770   4.533  0.5577  0.0129 -0.1373
31362SOL    HW197617  10.720   8.822   4.453 -0.9464 -0.3819 -0.1847
31362SOL    HW297618  10.729   8.679   4.503  0.0351 -0.1371  0.3612
31363SOL     OW97619   9.661   4.216   3.148 -0.5083  0.1780 -0.1033
31363SOL    HW197620   9.616   4.186   3.227 -1.2140  0.6070 -0.3418
31363SOL    HW297621   9.618   4.169   3.076  1.3021 -1.6085 -0.1208
31364SOL     OW97622   2.179   7.478   4.323 -0.6222  0.2003  0.3029
31364SOL    HW197623   2.224   7.528   4.391  0.9209  0.4464 -0.8307
31364SOL    HW297624   2.088   7.473   4.352  0.3773 -1.9303  3.7123
31365SOL     OW97625   1.980   3.452   2.165  0.2116  0.1030 -0.5506
31365SOL    HW197626   1.952   3.531   2.118 -1.3052 -1.4237 -2.3712
31365SOL    HW297627   1.914   3.440   2.232  0.0643  0.0039 -0.7136
31366SOL     OW97628   4.058   6.470   6.977  0.7492 -0.0726 -0.4815
31366SOL    HW197629   4.146   6.434   6.987  1.9649  1.4149 -4.0228
31366SOL    HW297630   4.006   6.399   6.940  1.0485 -0.4004 -0.2660
31367SOL     OW97631   2.409   8.081  10.072  0.1079  0.4104 -0.1996
31367SOL    HW197632   2.432   8.115   9.986 -0.0457  1.7288  0.2559
31367SOL    HW297633   2.329   8.128  10.096 -1.2675 -1.7397 -0.3735
31368SOL     OW97634   6.444   2.792   4.333  0.2636 -0.0022  0.1820
31368SOL    HW197635   6.476   2.711   4.294 -0.9576 -0.8146  0.8065
31368SOL    HW297636   6.506   2.859   4.303  1.0309 -1.0735 -0.7234
31369SOL     OW97637   5.292   1.309   0.392  0.6604  0.5775  0.2938
31369SOL    HW197638   5.202   1.342   0.399  0.6971  1.2586 -1.7669
31369SOL    HW297639   5.305   1.295   0.299  2.0276 -1.5170  0.7234
31370SOL     OW97640   2.560   5.852   4.898 -0.0028  0.1865  0.0054
31370SOL    HW197641   2.485   5.911   4.907 -0.8166 -0.8246  0.0326
31370SOL    HW297642   2.554   5.793   4.973  0.7109 -0.0375 -0.1014
31371SOL     OW97643   1.488   9.521   3.938 -0.3495 -0.1834 -0.4694
31371SOL    HW197644   1.438   9.464   3.996  0.3904  1.2986  1.7994
31371SOL    HW297645   1.424   9.559   3.878 -1.1005 -1.9954 -0.8644
31372SOL     OW97646   8.250   1.864  10.256  0.0369  0.7179  0.3408
31372SOL    HW197647   8.171   1.837  10.210  0.1094 -0.7401  0.9968
31372SOL    HW297648   8.227   1.946  10.300 -1.3440 -0.0255  1.0607
31373SOL     OW97649  10.681   6.117   1.296  0.0716  0.5290 -0.3666
31373SOL    HW197650  10.706   6.048   1.357 -0.0395  0.9353  0.1540
31373SOL    HW297651  10.764   6.153   1.265  0.1818  1.6233  1.0693
31374SOL     OW97652   4.253   9.029   4.184  0.1962 -0.1598  0.1065
31374SOL    HW197653   4.217   8.967   4.121 -0.5010 -1.4930  1.7426
31374SOL    HW297654   4.190   9.101   4.186  0.3243 -0.0095 -0.8326
31375SOL     OW97655   1.019   0.797   7.499 -0.0295 -0.2375 -0.1942
31375SOL    HW197656   0.999   0.739   7.572 -0.2136  0.6147  0.4532
31375SOL    HW297657   1.023   0.740   7.423  0.4535 -1.1902  0.5229
31376SOL     OW97658   9.998   4.317   0.615  0.2207 -0.2627  0.0195
31376SOL    HW197659  10.086   4.353   0.627  0.3341 -0.9033  1.3617
31376SOL    HW297660   9.939   4.388   0.642  0.4662 -1.4540  4.4715
31377SOL     OW97661   7.013   2.775   2.109 -0.4595 -0.0772 -0.2734
31377SOL    HW197662   6.980   2.815   2.028  1.1457 -0.0997 -0.9843
31377SOL    HW297663   7.100   2.742   2.085 -0.2632 -0.7545  1.2747
31378SOL     OW97664   0.253   2.780   9.152  0.6594 -0.3020  0.0851
31378SOL    HW197665   0.293   2.715   9.094 -0.7460 -2.0011  0.9315
31378SOL    HW297666   0.201   2.729   9.214 -0.0812  1.6128  1.1404
31379SOL     OW97667   0.789   4.290   9.588 -0.6737  0.0888 -0.0094
31379SOL    HW197668   0.747   4.275   9.504 -0.9753 -1.9503  0.4601
31379SOL    HW297669   0.883   4.284   9.570 -0.7404 -2.9260  0.1287
31380SOL     OW97670   5.436   0.458   0.886  0.7172  0.5847  0.2244
31380SOL    HW197671   5.358   0.409   0.912  1.3726 -0.2890  0.5932
31380SOL    HW297672   5.507   0.394   0.888  1.9029  1.8393  2.2032
31381SOL     OW97673   0.581   5.498  10.899  0.3952  0.1875 -0.6533
31381SOL    HW197674   0.572   5.403  10.911 -0.8907  0.4362  0.6745
31381SOL    HW297675   0.615   5.529  10.983 -0.6697  1.0436 -0.5143
31382SOL     OW97676   3.194   7.554   0.968 -1.0377 -0.7881 -0.6490
31382SOL    HW197677   3.149   7.637   0.984 -2.2774 -1.7776  1.3134
31382SOL    HW297678   3.124   7.489   0.963  0.0205 -2.0690  0.3711
31383SOL     OW97679   8.733   7.559   9.582 -0.5897 -0.2719 -0.2967
31383SOL    HW197680   8.811   7.528   9.629 -0.1986 -0.1104 -0.8311
31383SOL    HW297681   8.659   7.527   9.635 -0.1813 -1.4043 -0.3835
31384SOL     OW97682  11.089   8.395   0.144 -0.0821  0.3380  0.3783
31384SOL    HW197683  11.053   8.375   0.058 -0.9001 -0.8840  0.9577
31384SOL    HW297684  11.132   8.480   0.134  2.0203 -0.8512 -1.8591
31385SOL     OW97685   2.151   1.555   4.293 -0.1840 -0.4091  0.2431
31385SOL    HW197686   2.244   1.537   4.278 -0.3771  0.8951 -3.4943
31385SOL    HW297687   2.105   1.495   4.234 -1.6465  0.0872  0.8313
31386SOL     OW97688   7.904   6.405   4.785  0.1654  0.2972 -0.1924
31386SOL    HW197689   7.925   6.367   4.870  0.5324  0.7118 -0.0950
31386SOL    HW297690   7.811   6.386   4.773  0.6145 -1.8244 -0.7607
31387SOL     OW97691   6.512   9.690   3.318 -0.2219  0.6176 -0.1120
31387SOL    HW197692   6.545   9.602   3.336  0.9827  1.2977  1.2175
31387SOL    HW297693   6.447   9.677   3.249  1.6252 -1.0376 -1.6967
31388SOL     OW97694   5.162   3.077   9.562  0.4300 -0.1974  0.5216
31388SOL    HW197695   5.244   3.048   9.602  0.7318 -1.3961 -0.8877
31388SOL    HW297696   5.158   3.031   9.479 -0.7559  1.3005 -0.3078
31389SOL     OW97697  10.839   9.381   2.208 -0.6808 -0.0270 -0.6414
31389SOL    HW197698  10.887   9.355   2.129  1.1179 -0.8044  0.6396
31389SOL    HW297699  10.781   9.307   2.226  0.2204 -0.6565 -0.2515
31390SOL     OW97700   7.853   7.191   6.548 -0.5123  0.5282  0.0176
31390SOL    HW197701   7.879   7.207   6.639 -0.0236  0.2441 -0.0709
31390SOL    HW297702   7.920   7.234   6.495 -0.2853 -0.0895 -0.2108
31391SOL     OW97703   4.212   1.256   1.015  0.1887  0.1528 -0.0484
31391SOL    HW197704   4.220   1.163   1.033 -2.3061  0.2331  1.9622
31391SOL    HW297705   4.202   1.261   0.920  0.6453 -1.5618 -0.2262
31392SOL     OW97706   5.755   4.317   5.313 -0.0048  0.1945 -0.5467
31392SOL    HW197707   5.809   4.388   5.346 -0.5770 -0.3433  1.6889
31392SOL    HW297708   5.682   4.360   5.270 -0.3095  0.9820  0.7186
31393SOL     OW97709   5.335   7.426   1.806 -0.2517 -0.0246 -0.2698
31393SOL    HW197710   5.379   7.458   1.885  0.7120 -0.8727 -0.4340
31393SOL    HW297711   5.407   7.404   1.746 -0.8399 -2.0539 -0.3110
31394SOL     OW97712   2.160   2.011   4.764  0.5073  0.3701 -0.0326
31394SOL    HW197713   2.219   2.031   4.691  1.4735 -2.7046 -0.2081
31394SOL    HW297714   2.217   1.977   4.833 -0.8645 -1.1741  0.4035
31395SOL     OW97715   9.721   8.055   6.935  0.0193 -0.5260  0.3480
31395SOL    HW197716   9.791   8.103   6.979  0.3154 -1.2634  0.7038
31395SOL    HW297717   9.766   7.990   6.881 -0.3780 -1.0014  0.5735
31396SOL     OW97718   9.856   5.170   9.294  0.2807 -0.3862  0.2065
31396SOL    HW197719   9.787   5.209   9.240  1.4702 -1.5010 -2.2854
31396SOL    HW297720   9.925   5.236   9.298 -0.6645  0.5866  2.4004
31397SOL     OW97721   0.491  11.086   0.182 -0.0141  0.3897  0.0060
31397SOL    HW197722   0.490  11.089   0.086 -0.9722  0.7779  0.0247
31397SOL    HW297723   0.408  11.045   0.206 -0.1109  0.9623  0.6945
31398SOL     OW97724  11.112   8.772   2.060  0.9218 -0.2613  0.5682
31398SOL    HW197725  11.129   8.856   2.103  1.0408 -0.2345  0.4706
31398SOL    HW297726  11.032   8.740   2.101 -0.5861  1.1000 -1.1364
31399SOL     OW97727   9.322   5.197   8.081  0.3576  0.2386  0.1019
31399SOL    HW197728   9.393   5.136   8.099  0.4026  0.5206  0.9475
31399SOL    HW297729   9.251   5.170   8.140 -1.5947 -2.1662 -3.0169
31400SOL     OW97730   6.597   9.557   0.274 -0.0706 -0.2146 -0.0735
31400SOL    HW197731   6.582   9.615   0.348 -1.1296 -1.3026  0.6065
31400SOL    HW297732   6.648   9.485   0.311 -2.2609 -1.7588  0.1348
31401SOL     OW97733   5.601   2.251   9.683 -0.3522 -0.0656 -0.2322
31401SOL    HW197734   5.573   2.178   9.628  0.5819 -0.4545 -0.2182
31401SOL    HW297735   5.589   2.221   9.773 -4.1546  1.4272 -0.0650
31402SOL     OW97736   0.363   2.157   5.169 -0.0726  0.1475  0.1049
31402SOL    HW197737   0.290   2.190   5.118 -0.2696 -1.5125 -0.7783
31402SOL    HW297738   0.330   2.151   5.259  0.0347  2.3861  0.3352
31403SOL     OW97739   5.957   9.099   3.118 -0.4122  0.5688 -0.6666
31403SOL    HW197740   6.046   9.067   3.104  0.0741  1.4962  0.1465
31403SOL    HW297741   5.933   9.140   3.035 -0.2293 -0.0134 -1.0130
31404SOL     OW97742   3.948   6.595   9.905 -0.2375 -0.2751  0.4559
31404SOL    HW197743   3.982   6.592   9.995 -0.9599 -0.8392  0.7240
31404SOL    HW297744   3.854   6.575   9.915 -0.2864 -0.5157 -0.4388
31405SOL     OW97745   8.766   6.751   3.742  0.5677 -0.0289  0.3176
31405SOL    HW197746   8.757   6.658   3.764 -0.8002  0.4277  1.8170
31405SOL    HW297747   8.817   6.788   3.814  0.1743  0.5922  0.2776
31406SOL     OW97748   2.467   1.971   6.657  0.1687 -0.1671  0.0171
31406SOL    HW197749   2.536   1.908   6.637  0.3267  0.3965 -1.2831
31406SOL    HW297750   2.465   2.030   6.582 -0.5637  0.8685  0.8151
31407SOL     OW97751   4.652   0.289   4.717 -0.1873 -0.0644 -0.2186
31407SOL    HW197752   4.560   0.264   4.707 -0.4885  0.3959  1.2203
31407SOL    HW297753   4.695   0.252   4.640 -1.9663  1.7248 -2.2240
31408SOL     OW97754   6.319   3.974   4.792  0.5330  0.0821 -0.3169
31408SOL    HW197755   6.341   4.067   4.785  0.2371  0.2960  1.1299
31408SOL    HW297756   6.403   3.929   4.796  0.6782  0.2552 -1.2535
31409SOL     OW97757   7.582   6.951   9.716 -0.0556  0.1109  0.1056
31409SOL    HW197758   7.585   6.863   9.753 -0.5587  1.1841  2.9900
31409SOL    HW297759   7.645   7.001   9.768 -0.3224  1.6070 -0.9519
31410SOL     OW97760   8.348   6.360   2.826 -0.4042  0.0504 -0.8159
31410SOL    HW197761   8.286   6.432   2.836 -1.3727 -0.6679 -1.3923
31410SOL    HW297762   8.415   6.395   2.768 -1.5407  0.1215 -2.1517
31411SOL     OW97763   9.449   7.866   6.358 -0.8106  0.1071 -0.0553
31411SOL    HW197764   9.444   7.946   6.409 -0.8060  0.5008 -0.6561
31411SOL    HW297765   9.361   7.828   6.365 -0.2446 -0.9496  1.9563
31412SOL     OW97766   9.081   3.170   9.419  0.1835  0.4453 -0.0894
31412SOL    HW197767   9.105   3.117   9.495  0.1483  0.5083 -0.0341
31412SOL    HW297768   9.150   3.153   9.355  0.3811  0.6332  0.0731
31413SOL     OW97769   3.189   0.647   7.987  0.2487  0.0306 -0.3813
31413SOL    HW197770   3.130   0.665   8.061  1.2114 -0.3135  0.4862
31413SOL    HW297771   3.261   0.708   7.999  1.3544 -1.3168  0.0666
31414SOL     OW97772   1.612   9.943   4.190  0.2320  0.0511  0.0133
31414SOL    HW197773   1.574   9.997   4.260  0.3156  1.0158 -0.6719
31414SOL    HW297774   1.622  10.002   4.116  2.0779 -0.4269 -0.1739
31415SOL     OW97775   4.315  10.269   5.396  0.3038  0.2546 -0.1294
31415SOL    HW197776   4.333  10.200   5.332 -0.6165  2.3351 -2.8426
31415SOL    HW297777   4.385  10.332   5.383 -0.1558  0.9318  0.5881
31416SOL     OW97778   5.088   5.931  10.826 -0.7693  0.2824 -0.3775
31416SOL    HW197779   5.116   5.953  10.737 -0.7612 -1.2397 -0.7704
31416SOL    HW297780   5.092   5.836  10.830 -0.4222  0.3327  1.3802
31417SOL     OW97781   0.701   0.207   0.671 -0.3123 -0.7650 -0.4948
31417SOL    HW197782   0.614   0.170   0.656 -0.4334  0.0221 -1.8037
31417SOL    HW297783   0.712   0.202   0.766 -1.1557 -2.2652 -0.4416
31418SOL     OW97784   4.301   5.567   4.789 -0.1376 -0.1856  0.0226
31418SOL    HW197785   4.394   5.555   4.812  0.0227  0.3397 -0.3269
31418SOL    HW297786   4.258   5.583   4.873  0.2879  0.7743  0.0722
31419SOL     OW97787   2.867   3.431   0.732  0.3118  0.1953  0.3839
31419SOL    HW197788   2.877   3.514   0.778 -0.8678  0.4745  0.1658
31419SOL    HW297789   2.781   3.399   0.759  0.5247 -0.6962  0.0479
31420SOL     OW97790   8.198   7.220   5.538 -0.0036  0.2208  0.0224
31420SOL    HW197791   8.262   7.279   5.579 -0.3305  1.0019 -0.5659
31420SOL    HW297792   8.225   7.214   5.447 -0.4297  0.0869 -0.0988
31421SOL     OW97793   3.918   4.308   1.692 -0.3031 -0.1392 -0.1543
31421SOL    HW197794   3.947   4.387   1.739 -0.3915 -0.7748  0.9923
31421SOL    HW297795   3.849   4.271   1.747  0.9733 -2.0125  0.2834
31422SOL     OW97796   3.623   3.686   5.964  0.6758  0.1963 -0.6370
31422SOL    HW197797   3.535   3.723   5.965  1.0716  1.1814  1.1343
31422SOL    HW297798   3.612   3.595   5.990  0.3064  0.7426  1.2775
31423SOL     OW97799   1.880   6.506  10.394 -0.1686  0.2074 -0.0866
31423SOL    HW197800   1.906   6.530  10.305 -0.1169 -0.4986 -0.2650
31423SOL    HW297801   1.789   6.477  10.385  0.0558 -0.5407 -0.0368
31424SOL     OW97802   6.777   9.504   5.415  0.2288 -0.1793  0.3032
31424SOL    HW197803   6.765   9.495   5.321 -0.6841  0.7767  0.3120
31424SOL    HW297804   6.816   9.421   5.442  0.2364 -0.5765 -0.8682
31425SOL     OW97805   7.475   6.071   3.815  0.2226  0.0791 -0.5554
31425SOL    HW197806   7.532   6.033   3.883  0.5487  0.6243 -0.5196
31425SOL    HW297807   7.455   5.997   3.757 -0.0468 -0.3904  0.1210
31426SOL     OW97808   5.992   3.643   1.282  0.0254 -0.7891  0.1372
31426SOL    HW197809   6.031   3.556   1.273  0.1636 -1.0346  2.5063
31426SOL    HW297810   5.958   3.644   1.372 -0.8446  1.2609 -0.1791
31427SOL     OW97811   5.107  11.117   7.928  0.6005  0.3771 -0.4637
31427SOL    HW197812   5.018  11.139   7.956  0.8439  2.0561 -0.8764
31427SOL    HW297813   5.148  11.079   8.006  0.2485  1.8683  0.4903
31428SOL     OW97814   5.878   9.892   7.886 -0.5716  0.3799 -0.0269
31428SOL    HW197815   5.905   9.800   7.890 -1.0568  0.2647  0.9768
31428SOL    HW297816   5.960   9.942   7.892 -0.2507  0.0193 -1.2392
31429SOL     OW97817   5.841   5.790   9.997 -0.0290  0.2464  0.5333
31429SOL    HW197818   5.916   5.759  10.048 -1.0972 -0.5262  1.7179
31429SOL    HW297819   5.774   5.808  10.063 -1.7983 -1.7035 -0.6323
31430SOL     OW97820   0.123   3.624   2.478  0.5320 -0.4281  0.1184
31430SOL    HW197821   0.170   3.652   2.557  0.2896 -0.3621  0.2406
31430SOL    HW297822   0.176   3.552   2.444  0.0348 -1.2264  0.9844
31431SOL     OW97823   9.975   7.106   7.154  0.2951  0.2927 -0.6926
31431SOL    HW197824   9.881   7.108   7.170 -0.0242  0.1835 -2.4082
31431SOL    HW297825   9.993   7.187   7.107  1.2044  0.6376  0.1862
31432SOL     OW97826   4.125   1.626   5.006 -0.1309  0.0343  0.1205
31432SOL    HW197827   4.075   1.630   4.924  1.1998  1.2712 -0.6925
31432SOL    HW297828   4.203   1.575   4.984  0.0889  0.1161  0.6960
31433SOL     OW97829   1.829   1.671  10.808  0.0121  0.2408  0.3343
31433SOL    HW197830   1.862   1.751  10.766  0.3825 -0.1900 -0.2039
31433SOL    HW297831   1.734   1.679  10.801  0.0235  0.9722  0.9196
31434SOL     OW97832   5.630  10.147   8.942  0.1026 -0.0256 -0.1340
31434SOL    HW197833   5.645  10.237   8.973  1.1382 -0.2416  0.0185
31434SOL    HW297834   5.547  10.152   8.894  0.3816  1.1201 -0.5358
31435SOL     OW97835   0.068   2.800   8.795  0.2054  0.3531 -0.1078
31435SOL    HW197836   0.133   2.863   8.827 -2.0801  2.9472 -0.1923
31435SOL    HW297837  -0.016   2.834   8.826 -1.4645 -0.9164 -2.8356
31436SOL     OW97838   3.456   9.678   5.592 -0.3700 -0.3044 -0.0215
31436SOL    HW197839   3.424   9.645   5.675 -0.9281  0.4019  0.0509
31436SOL    HW297840   3.467   9.772   5.606 -2.3987  0.1913 -1.3257
31437SOL     OW97841   9.895   0.579   6.900  0.2901  0.3652 -0.3250
31437SOL    HW197842   9.962   0.588   6.968  1.3056  1.0660 -1.3801
31437SOL    HW297843   9.875   0.669   6.875 -0.5651  0.1287 -0.4986
31438SOL     OW97844   1.578   7.284   3.504  0.2745 -0.3299 -0.2830
31438SOL    HW197845   1.647   7.267   3.439  0.1711 -0.9388 -0.2399
31438SOL    HW297846   1.518   7.211   3.494 -0.7123  0.5268 -0.7682
31439SOL     OW97847   5.294   2.767   2.067  0.2208  0.3685 -0.1197
31439SOL    HW197848   5.213   2.800   2.028  0.8172  1.7742 -0.2138
31439SOL    HW297849   5.285   2.786   2.160  0.3670  0.3575 -0.1040
31440SOL     OW97850   2.666   3.817   0.422  0.5284 -0.5915 -0.6607
31440SOL    HW197851   2.681   3.824   0.516  0.1994 -2.5491 -0.4215
31440SOL    HW297852   2.750   3.840   0.382  1.2572 -1.6366  0.2133
31441SOL     OW97853   3.379   9.845   6.670  0.3917 -0.4451 -0.4606
31441SOL    HW197854   3.440   9.916   6.691  0.6537 -0.3269 -1.5623
31441SOL    HW297855   3.400   9.821   6.580 -0.5634 -1.0459 -0.5358
31442SOL     OW97856   0.275   1.580   9.523 -0.2231  0.0173  0.0822
31442SOL    HW197857   0.280   1.485   9.535  0.6492  0.2401  1.7412
31442SOL    HW297858   0.274   1.592   9.428  1.4978 -1.5890 -0.2014
31443SOL     OW97859   7.885   3.984   8.918 -0.4758 -0.0303 -0.2597
31443SOL    HW197860   7.831   4.046   8.869  0.9164  1.3690 -0.0834
31443SOL    HW297861   7.954   3.957   8.857 -0.9563 -1.3057 -0.2780
31444SOL     OW97862   7.285   3.581  10.215 -0.1299  0.1994  0.5824
31444SOL    HW197863   7.189   3.587  10.221 -0.1599 -0.7615  1.5027
31444SOL    HW297864   7.308   3.515  10.281  1.1662  0.3946  0.3410
31445SOL     OW97865   7.604  10.088   5.073  0.0709  0.3415  0.1626
31445SOL    HW197866   7.639  10.097   4.984 -1.4318  1.1820 -0.3731
31445SOL    HW297867   7.591  10.178   5.103 -1.5215  0.0708  0.3582
31446SOL     OW97868   3.147   8.320   8.055  0.2749  0.6268  0.4859
31446SOL    HW197869   3.201   8.391   8.088 -2.2342  2.3791  1.1440
31446SOL    HW297870   3.072   8.364   8.014 -0.3125 -1.6233 -1.0528
31447SOL     OW97871   7.637   1.800   2.028  0.1063  0.2692  0.0144
31447SOL    HW197872   7.642   1.734   1.959  0.6826 -0.3185  0.5999
31447SOL    HW297873   7.548   1.835   2.021  0.7259  1.5564 -2.1890
31448SOL     OW97874   6.972   9.499   0.144  0.5432  0.3931 -0.2979
31448SOL    HW197875   7.019   9.498   0.061  0.1870  0.9026 -0.5172
31448SOL    HW297876   6.885   9.465   0.122  0.9972 -1.1731  0.2375
31449SOL     OW97877   3.280   9.815   8.442 -0.3610 -0.6202 -0.0997
31449SOL    HW197878   3.348   9.861   8.491 -1.6667  2.0294 -0.6083
31449SOL    HW297879   3.217   9.786   8.508 -1.0793  1.1293  0.0278
31450SOL     OW97880   9.369   4.528   0.388  0.3276 -0.4055  0.2411
31450SOL    HW197881   9.376   4.588   0.462 -1.1944  0.2515 -0.1152
31450SOL    HW297882   9.316   4.575   0.324  0.5797 -1.4545 -0.7619
31451SOL     OW97883   3.448  10.546   7.939 -0.1022  0.1064 -0.0789
31451SOL    HW197884   3.525  10.551   7.996 -0.2019  2.1067 -0.0728
31451SOL    HW297885   3.470  10.477   7.876 -0.3553 -2.8535  2.8110
31452SOL     OW97886   2.614   4.161   1.764  0.3669 -0.3773  0.6204
31452SOL    HW197887   2.700   4.131   1.735  0.2223 -0.0202 -0.2065
31452SOL    HW297888   2.579   4.088   1.815  1.1687 -0.5096  0.9956
31453SOL     OW97889   6.682   4.425   8.576  0.1154  0.1219 -0.4152
31453SOL    HW197890   6.636   4.491   8.524  0.6530 -0.4318 -1.6456
31453SOL    HW297891   6.681   4.460   8.665 -1.1588  0.9316 -0.7162
31454SOL     OW97892   4.298   4.744   6.087 -0.4503 -0.2234 -0.2128
31454SOL    HW197893   4.266   4.833   6.072 -0.8054 -0.6587 -2.2877
31454SOL    HW297894   4.228   4.700   6.134 -1.1067  0.0334 -0.9450
31455SOL     OW97895  10.912  10.122   8.768  0.0384  0.2522  0.0596
31455SOL    HW197896  10.847  10.148   8.703 -0.2356  0.1592  0.2925
31455SOL    HW297897  10.950  10.205   8.798  0.1776  0.2937 -0.2315
31456SOL     OW97898  11.105   5.771   4.996  0.8559 -0.8580 -0.1116
31456SOL    HW197899  11.125   5.682   4.968  2.1937 -0.2806 -1.0846
31456SOL    HW297900  11.150   5.827   4.934  0.0778  0.5195  0.5073
31457SOL     OW97901  10.308   0.647   6.877 -0.0662  0.3679  0.0281
31457SOL    HW197902  10.330   0.608   6.792 -1.5204  1.0725 -0.7069
31457SOL    HW297903  10.374   0.613   6.937 -0.5103 -2.2502 -0.8247
31458SOL     OW97904  10.483   2.589   1.088  0.6030  0.6546 -0.2152
31458SOL    HW197905  10.402   2.627   1.122  0.9611 -0.0275  1.5510
31458SOL    HW297906  10.524   2.548   1.165  1.4859 -1.0359 -1.5095
31459SOL     OW97907   9.267   1.123   6.618  0.0372  0.0233 -0.2393
31459SOL    HW197908   9.270   1.218   6.604 -1.9775  0.2974  0.7476
31459SOL    HW297909   9.231   1.114   6.707  1.0144 -1.6709  0.0173
31460SOL     OW97910   8.451   2.596   4.065 -0.2425 -0.2449 -0.1385
31460SOL    HW197911   8.511   2.578   3.994  0.4648 -0.7630  0.5750
31460SOL    HW297912   8.410   2.679   4.042  1.2855  0.4928 -0.2897
31461SOL     OW97913   3.850   9.268   4.594 -0.2252 -0.1545  0.0132
31461SOL    HW197914   3.894   9.326   4.532  0.8343 -1.4789 -0.5290
31461SOL    HW297915   3.922   9.229   4.645 -1.0145  0.1769  1.4407
31462SOL     OW97916  10.515   5.127   9.112  0.3102  0.6951  0.2708
31462SOL    HW197917  10.506   5.089   9.199  1.4948 -0.0523  0.0913
31462SOL    HW297918  10.482   5.216   9.121 -1.3455  0.0514  1.0141
31463SOL     OW97919   6.847   3.948   9.861 -0.0652 -0.0372 -0.0458
31463SOL    HW197920   6.911   3.914   9.923  1.6242  1.7591 -0.6992
31463SOL    HW297921   6.820   4.032   9.897  1.3851  1.3293 -1.8729
31464SOL     OW97922   2.275   7.351   1.772 -0.4965 -0.1125  0.0582
31464SOL    HW197923   2.312   7.264   1.783  0.4108  0.2938  0.2991
31464SOL    HW297924   2.222   7.365   1.851 -2.1766 -1.1637 -0.8366
31465SOL     OW97925   7.560   4.385   5.201 -0.1379  0.3620 -0.1148
31465SOL    HW197926   7.553   4.474   5.237 -0.4982 -0.2308  1.3686
31465SOL    HW297927   7.654   4.365   5.204 -0.0279  0.7590 -0.6702
31466SOL     OW97928   7.443   1.270   1.714  0.5488  0.7233 -0.3135
31466SOL    HW197929   7.412   1.186   1.679 -1.9573  1.1860  0.6737
31466SOL    HW297930   7.523   1.247   1.762  0.5347 -0.8882 -0.9850
31467SOL     OW97931   4.418   9.172   2.740  0.3712 -0.8875  0.4177
31467SOL    HW197932   4.352   9.163   2.809 -1.5877 -0.4326 -1.2758
31467SOL    HW297933   4.396   9.254   2.697  2.3510 -0.5198  0.0339
31468SOL     OW97934   6.453   6.723  10.969 -0.5721 -0.3075  0.2609
31468SOL    HW197935   6.467   6.774  10.888 -1.2456  1.2561  1.0833
31468SOL    HW297936   6.541   6.695  10.994 -0.1562  0.5483 -0.1737
31469SOL     OW97937   9.645   2.495   5.594 -0.0593 -0.1675  0.5228
31469SOL    HW197938   9.613   2.584   5.575  0.8397  0.3353  1.2611
31469SOL    HW297939   9.735   2.495   5.562 -0.4427 -1.2222 -0.5830
31470SOL     OW97940   9.245   5.048   7.363 -0.0370  0.2611  0.0700
31470SOL    HW197941   9.216   5.111   7.297  0.0133 -0.3979 -0.5987
31470SOL    HW297942   9.230   4.962   7.322 -0.2331 -0.1680  1.0160
31471SOL     OW97943   1.768   5.555   6.742 -0.4879  0.5936 -0.3739
31471SOL    HW197944   1.715   5.494   6.691  1.9681 -1.5278 -0.5715
31471SOL    HW297945   1.780   5.630   6.683 -2.9507  1.0215 -0.4055
31472SOL     OW97946   5.503  10.548   2.532 -0.3215  0.1921  0.6003
31472SOL    HW197947   5.539  10.542   2.621 -1.2656 -0.2104  0.9678
31472SOL    HW297948   5.572  10.590   2.481  1.5147 -2.3183  0.8236
31473SOL     OW97949  11.071   3.016   6.523  0.8104 -0.2479 -0.6795
31473SOL    HW197950  11.033   3.044   6.606  0.3539  0.8348 -1.2338
31473SOL    HW297951  11.018   2.941   6.496 -1.4628  1.6636 -1.7855
31474SOL     OW97952   5.075   7.611   3.042 -0.1891  0.5065 -0.0062
31474SOL    HW197953   4.982   7.594   3.026 -0.3359  1.0598  0.2562
31474SOL    HW297954   5.076   7.673   3.114  0.4063 -0.1460  0.5671
31475SOL     OW97955   6.705   0.299   6.363  0.5925  0.4108  0.0885
31475SOL    HW197956   6.754   0.234   6.413  4.7161  2.7206 -0.5082
31475SOL    HW297957   6.687   0.369   6.426  0.4151  0.7094 -0.2872
31476SOL     OW97958   8.002   8.376   2.701 -0.5461 -0.2675 -0.2415
31476SOL    HW197959   7.991   8.385   2.606 -1.3527 -2.9980 -0.4731
31476SOL    HW297960   7.913   8.383   2.735 -0.3213  0.1202  0.2766
31477SOL     OW97961   3.625   0.212   6.750  0.0082 -0.2042 -0.1098
31477SOL    HW197962   3.637   0.259   6.832 -1.5873 -0.3346  0.2511
31477SOL    HW297963   3.563   0.142   6.773 -0.7954  0.0184 -1.4984
31478SOL     OW97964   9.419   0.962  10.284 -1.1090 -0.5808 -0.0916
31478SOL    HW197965   9.463   0.912  10.352 -0.2423 -0.1249 -0.2989
31478SOL    HW297966   9.356   1.017  10.330  0.5570  0.8782  0.5206
31479SOL     OW97967   4.637   2.681   6.965  0.0083 -0.4219 -0.1535
31479SOL    HW197968   4.557   2.648   6.925 -0.5228  0.7701 -0.1082
31479SOL    HW297969   4.632   2.776   6.956  1.1504 -0.2879  0.3526
31480SOL     OW97970   6.489   5.421   3.858  0.7505  0.1230 -0.2340
31480SOL    HW197971   6.454   5.398   3.772  0.0136 -1.0129  0.3554
31480SOL    HW297972   6.538   5.344   3.886 -1.0464 -0.4946  1.4051
31481SOL     OW97973   4.311   7.873   2.942  0.4652  0.1526  0.4137
31481SOL    HW197974   4.379   7.924   2.986  0.8412 -3.2496  4.4973
31481SOL    HW297975   4.230   7.895   2.989 -0.1947  0.0753 -0.6406
31482SOL     OW97976   5.390  10.031   7.558  0.0155  0.7968  0.8699
31482SOL    HW197977   5.344  10.042   7.475  1.8502  2.6685  0.0221
31482SOL    HW297978   5.445   9.953   7.545 -1.7312 -0.5801  1.3801
31483SOL     OW97979   4.410   0.306   9.814 -0.0243  0.3395 -0.4822
31483SOL    HW197980   4.359   0.239   9.770  0.9755 -1.1272  0.4748
31483SOL    HW297981   4.347   0.352   9.870 -0.6764  0.0581 -0.9750
31484SOL     OW97982  10.094   6.765   8.431  0.2226 -0.1043  0.0839
31484SOL    HW197983  10.025   6.832   8.429  0.0831 -0.2551 -1.5408
31484SOL    HW297984  10.082   6.721   8.515 -2.1064 -0.5450 -0.4091
31485SOL     OW97985  10.804   7.416   8.522 -0.2276  0.1689  0.3756
31485SOL    HW197986  10.850   7.392   8.602 -1.2036 -1.3158  0.5373
31485SOL    HW297987  10.763   7.500   8.542  0.8420  0.5865  0.8664
31486SOL     OW97988   9.181   7.180   5.608 -0.5110 -0.0253 -0.0145
31486SOL    HW197989   9.242   7.252   5.624  0.2105 -0.5708 -0.2147
31486SOL    HW297990   9.135   7.205   5.528 -2.6015  1.7074  1.6015
31487SOL     OW97991  10.442   3.944   6.914  0.3182 -0.0109 -0.5138
31487SOL    HW197992  10.420   3.934   7.007 -1.5071  1.0765 -0.7833
31487SOL    HW297993  10.533   3.975   6.914  1.3493 -2.6700  0.7556
31488SOL     OW97994   3.747   6.985   7.510 -0.1909  0.7968 -0.8074
31488SOL    HW197995   3.735   6.902   7.463  1.3335  0.5231 -0.7709
31488SOL    HW297996   3.842   6.993   7.519 -0.3881  1.1768  1.6349
31489SOL     OW97997  10.534   9.877   4.510 -0.6237 -0.2694  0.4275
31489SOL    HW197998  10.512   9.936   4.438 -1.1477  0.8552  1.4570
31489SOL    HW297999  10.587   9.930   4.569 -0.5923 -1.0231  1.0923
31490SOL     OW98000   1.403   3.062   8.059  0.2344 -0.1782 -0.0999
31490SOL    HW198001   1.395   3.023   7.972  1.5477  1.0802 -0.8157
31490SOL    HW298002   1.461   3.137   8.047  0.8485 -0.2644  1.9562
31491SOL     OW98003   3.082   0.419   5.252 -0.3952 -0.2617 -0.5237
31491SOL    HW198004   3.089   0.510   5.222  0.4679 -0.1923 -0.1272
31491SOL    HW298005   3.163   0.378   5.225 -0.7473 -0.8996 -0.6231
31492SOL     OW98006   5.741  10.108   9.196 -0.1052 -0.4068 -0.3926
31492SOL    HW198007   5.831  10.089   9.224  0.1743  2.3886  0.9093
31492SOL    HW298008   5.740  10.087   9.102  1.7496 -0.9571 -0.3190
31493SOL     OW98009   5.282   9.711   9.335 -0.1733  0.3761 -0.6890
31493SOL    HW198010   5.232   9.668   9.405  0.2625 -0.5991 -0.9645
31493SOL    HW298011   5.250   9.802   9.336 -2.4495 -0.3466 -1.2748
31494SOL     OW98012   9.658   7.604   6.342  0.2119 -0.2561  0.2252
31494SOL    HW198013   9.698   7.523   6.374  1.7337 -0.3649 -1.7765
31494SOL    HW298014   9.594   7.576   6.277 -0.3133  0.1141  0.5712
31495SOL     OW98015   9.394   4.168   8.264 -0.5541  0.0079 -0.6895
31495SOL    HW198016   9.469   4.133   8.218 -0.3626  0.3173 -0.6122
31495SOL    HW298017   9.405   4.263   8.262  0.2750  0.0104  1.3250
31496SOL     OW98018   8.139   8.398  10.580 -0.2411  0.0342  0.5805
31496SOL    HW198019   8.072   8.342  10.618 -0.2214 -0.2155  0.2498
31496SOL    HW298020   8.203   8.337  10.543  1.2857  0.2143  2.7535
31497SOL     OW98021   7.169   9.733   3.806 -0.3623 -0.3046 -0.3408
31497SOL    HW198022   7.242   9.769   3.856  0.5040 -0.5148 -1.4164
31497SOL    HW298023   7.208   9.662   3.754 -0.8016  1.0591 -2.6847
31498SOL     OW98024  10.265   1.948   2.776  0.3507  0.4282  0.3079
31498SOL    HW198025  10.340   1.994   2.814  0.8620  1.5325 -1.9222
31498SOL    HW298026  10.207   2.017   2.745 -0.0709 -0.4298 -0.8607
31499SOL     OW98027   6.465   9.207   1.898  0.0395  0.0112  0.3657
31499SOL    HW198028   6.490   9.115   1.893 -0.2526 -0.0035 -1.0761
31499SOL    HW298029   6.375   9.206   1.930  0.7057 -0.0735  2.4192
31500SOL     OW98030   1.702   0.934   4.283  0.5260 -0.0672 -0.4635
31500SOL    HW198031   1.703   0.847   4.243  0.1404 -0.5089  0.4547
31500SOL    HW298032   1.610   0.961   4.282  0.6036  0.2042 -0.4783
31501SOL     OW98033   4.383   1.895   9.124 -0.0163  0.2107 -0.6322
31501SOL    HW198034   4.329   1.868   9.198  0.1074  1.0888 -0.2002
31501SOL    HW298035   4.345   1.850   9.048 -1.3425  0.7902 -0.3423
31502SOL     OW98036   2.179  10.219   6.140  0.2413  0.2388  0.1475
31502SOL    HW198037   2.261  10.170   6.139 -1.0855 -2.1257 -0.0034
31502SOL    HW298038   2.118  10.163   6.188 -1.9915  0.6440 -2.0362
31503SOL     OW98039   1.095   2.332   0.285  0.6262 -0.1376  0.5268
31503SOL    HW198040   1.054   2.314   0.370 -0.4105  1.8515  0.5093
31503SOL    HW298041   1.033   2.391   0.241  1.1660 -1.0618 -1.6064
31504SOL     OW98042   2.980   5.187   2.726  0.1888  0.4478  0.3788
31504SOL    HW198043   3.015   5.276   2.729  1.2849  0.0265  0.4427
31504SOL    HW298044   3.004   5.149   2.810 -0.4008  0.1251  0.4104
31505SOL     OW98045   7.901   1.005   6.631 -0.4023  0.2619 -0.0071
31505SOL    HW198046   7.937   1.045   6.552  0.7417  1.1240  0.9019
31505SOL    HW298047   7.853   0.928   6.600  0.2102  0.4518 -1.5042
31506SOL     OW98048   8.870   0.187   3.012 -0.1051  0.5732  0.3440
31506SOL    HW198049   8.842   0.191   3.103  0.0233  2.8224  0.3558
31506SOL    HW298050   8.964   0.166   3.017 -0.0925  0.7164  0.7497
31507SOL     OW98051   8.121   6.315   9.083  0.3561 -0.7828  0.4244
31507SOL    HW198052   8.107   6.366   9.003 -0.2225 -0.0276  0.9941
31507SOL    HW298053   8.103   6.225   9.056 -0.3500 -0.4766 -0.1759
31508SOL     OW98054   1.091   2.845  10.450  0.9236  0.5698  0.1114
31508SOL    HW198055   1.133   2.805  10.374  1.4762  0.5068  0.4425
31508SOL    HW298056   1.164   2.868  10.508  0.4006 -2.1807  2.0196
31509SOL     OW98057   5.690   2.024   9.011 -0.4265  0.3496  0.0308
31509SOL    HW198058   5.612   2.053   8.964 -0.1518  1.5930  0.3102
31509SOL    HW298059   5.761   2.033   8.947 -0.5306 -1.0084 -0.2986
31510SOL     OW98060   3.041   1.828   1.713  0.4575 -0.2448 -0.1168
31510SOL    HW198061   3.010   1.914   1.684  1.0796  0.5689  1.4517
31510SOL    HW298062   2.975   1.766   1.682 -0.6957  0.9643 -0.1747
31511SOL     OW98063   1.788  10.426   2.169 -0.5414 -0.1564 -0.2748
31511SOL    HW198064   1.871  10.455   2.205 -0.1461 -0.7967 -0.6346
31511SOL    HW298065   1.738  10.506   2.154 -0.6551  0.1328  1.5010
31512SOL     OW98066   5.319  11.112   5.851 -0.0840  0.3198  0.3287
31512SOL    HW198067   5.267  11.149   5.922 -0.0503  1.3436 -0.1506
31512SOL    HW298068   5.408  11.143   5.868  0.0966 -0.1932  0.3351
31513SOL     OW98069   6.192  10.511   3.972  0.3234 -0.1665 -0.5781
31513SOL    HW198070   6.213  10.448   4.041  0.9204 -1.5580 -1.9663
31513SOL    HW298071   6.277  10.530   3.931  0.0717  1.1574 -0.4975
31514SOL     OW98072   6.462   6.151   4.861 -0.2884 -0.3697  0.5110
31514SOL    HW198073   6.545   6.124   4.822 -0.0412  0.0720  0.7254
31514SOL    HW298074   6.482   6.164   4.953 -0.2928  0.9787  0.3358
31515SOL     OW98075   2.057   5.708   6.329 -0.8881 -0.5641 -0.1176
31515SOL    HW198076   2.080   5.663   6.247 -0.1559 -0.0575 -0.2071
31515SOL    HW298077   2.132   5.692   6.386 -1.4954 -1.0987  0.5382
31516SOL     OW98078   6.821   9.285   8.852  0.3702 -0.0655  0.1068
31516SOL    HW198079   6.729   9.278   8.878  0.4589  1.4406  0.9473
31516SOL    HW298080   6.822   9.358   8.791  1.2817  1.2764  1.6558
31517SOL     OW98081   6.074   3.876   8.325 -0.4648 -0.2911  0.0447
31517SOL    HW198082   6.130   3.950   8.303 -1.5768 -0.0120 -2.2260
31517SOL    HW298083   6.049   3.839   8.240 -4.0586 -0.1070  0.8581
31518SOL     OW98084   5.729   3.545  10.701 -0.2802 -0.1112 -0.1348
31518SOL    HW198085   5.688   3.607  10.642  1.4775 -0.4856 -1.8698
31518SOL    HW298086   5.693   3.460  10.675 -1.6255 -0.0115  1.2890
31519SOL     OW98087   0.539   9.211   2.826 -0.3558 -0.7369  0.2635
31519SOL    HW198088   0.594   9.143   2.865 -1.0959 -0.8808  1.1098
31519SOL    HW298089   0.599   9.283   2.808  0.2422 -1.1820  0.4400
31520SOL     OW98090   8.318   5.445   5.695 -0.0575  0.7279  0.5606
31520SOL    HW198091   8.369   5.409   5.768 -1.0574  0.3949  1.1156
31520SOL    HW298092   8.241   5.389   5.691 -0.7957  1.7427  0.2948
31521SOL     OW98093   2.559   2.397   0.337 -0.1699 -0.1454 -0.2947
31521SOL    HW198094   2.475   2.400   0.382 -0.4782 -0.9859 -0.7829
31521SOL    HW298095   2.621   2.365   0.402 -0.7119 -1.8450 -0.5720
31522SOL     OW98096   1.901   5.469   9.803  0.3856  0.2056  0.4669
31522SOL    HW198097   1.867   5.557   9.783  0.5298  0.1532 -0.0188
31522SOL    HW298098   1.912   5.469   9.898  0.5008  0.7588  0.4569
31523SOL     OW98099   1.856  11.101   2.350 -0.1562 -0.0455 -0.2894
31523SOL    HW198100   1.889  11.134   2.266  0.7142 -0.3691 -0.0929
31523SOL    HW298101   1.935  11.091   2.404 -0.6091 -0.6430  0.2796
31524SOL     OW98102   8.509   1.930   7.934 -0.1140 -0.0903  0.5905
31524SOL    HW198103   8.457   2.010   7.945  1.1940  0.7792  0.6411
31524SOL    HW298104   8.493   1.881   8.015 -0.3319  0.4742  0.9026
31525SOL     OW98105   0.345   6.778   3.398 -0.4112 -0.4035 -0.1303
31525SOL    HW198106   0.288   6.850   3.372 -0.8138 -1.1792 -1.4829
31525SOL    HW298107   0.361   6.729   3.317  0.8015 -1.1700  0.5375
31526SOL     OW98108   1.076   1.705   3.835  0.1876  0.0140 -0.0971
31526SOL    HW198109   1.020   1.776   3.802  0.0349  0.4534  1.0777
31526SOL    HW298110   1.018   1.628   3.835  0.7731 -0.5438 -2.8554
31527SOL     OW98111   8.840   5.166   0.288  0.1139  0.5766  0.2685
31527SOL    HW198112   8.875   5.086   0.328  0.2613  0.3114 -0.3867
31527SOL    HW298113   8.901   5.186   0.217 -0.5457  0.6299 -0.2952
31528SOL     OW98114   9.912   1.520   7.126 -0.3180  0.3026  0.2076
31528SOL    HW198115   9.952   1.432   7.123 -0.1154  0.2720  2.3817
31528SOL    HW298116   9.907   1.546   7.034  1.7098 -1.0586 -0.3806
31529SOL     OW98117   6.360   1.985   6.924  0.1566 -0.1064 -0.4275
31529SOL    HW198118   6.441   2.037   6.920  0.0978  0.0527  0.2822
31529SOL    HW298119   6.291   2.046   6.901  0.0977  0.1047  0.3084
31530SOL     OW98120   8.100   0.751   7.667 -0.0420  0.0591  0.1888
31530SOL    HW198121   8.100   0.841   7.634  0.9095  0.1729  0.4588
31530SOL    HW298122   8.190   0.721   7.655  0.4944  0.2720  3.0426
31531SOL     OW98123   5.092   9.291   0.762  0.4246  0.1194  0.2250
31531SOL    HW198124   5.143   9.220   0.721  0.2388  0.4003 -0.5060
31531SOL    HW298125   5.082   9.263   0.853  1.6738 -0.0684  0.3248
31532SOL     OW98126   5.324   3.230   4.113 -0.5177 -0.3054 -0.6810
31532SOL    HW198127   5.245   3.185   4.144 -0.6563  0.8583  0.7269
31532SOL    HW298128   5.387   3.221   4.184 -0.2113  0.8387 -0.7921
31533SOL     OW98129   0.871   1.957   1.761 -0.4755 -0.0565 -0.5502
31533SOL    HW198130   0.944   1.933   1.818 -0.0205  1.4058 -0.4617
31533SOL    HW298131   0.820   1.876   1.751  0.0607 -0.6337  1.0027
31534SOL     OW98132   0.474  10.395   7.671 -0.0505 -0.1377  0.6220
31534SOL    HW198133   0.407  10.327   7.663 -3.0916  2.8140 -2.1724
31534SOL    HW298134   0.535  10.377   7.599 -0.0867 -0.5838  0.6968
31535SOL     OW98135   6.778   4.565   6.626  0.0707 -0.4597  0.0574
31535SOL    HW198136   6.723   4.538   6.552 -1.4427  2.3101  0.0361
31535SOL    HW298137   6.728   4.540   6.704 -1.5211  2.2455  0.0396
31536SOL     OW98138   1.317   8.068  10.982 -0.1112 -0.3491 -0.0028
31536SOL    HW198139   1.313   8.132  11.053 -3.1143 -0.0653 -0.2895
31536SOL    HW298140   1.375   8.107  10.917  1.3184  0.1686  1.5275
31537SOL     OW98141   0.848  10.301   5.584 -0.3940 -0.1326  0.1311
31537SOL    HW198142   0.828  10.309   5.491  3.1895 -1.6849 -0.9286
31537SOL    HW298143   0.884  10.385   5.609 -0.4099 -0.0446 -0.1425
31538SOL     OW98144   5.782   7.858   2.473 -0.1357 -0.5408  0.3100
31538SOL    HW198145   5.788   7.930   2.411 -1.2758  0.3284  1.1591
31538SOL    HW298146   5.847   7.794   2.443  0.6421  0.6748 -0.6584
31539SOL     OW98147   1.502  10.370   0.828 -0.2860  0.2324 -0.3707
31539SOL    HW198148   1.502  10.336   0.917  0.0532 -0.8629 -0.7832
31539SOL    HW298149   1.410  10.392   0.812 -0.4225  0.0063  0.0759
31540SOL     OW98150   0.858  10.740   5.635 -0.0762 -0.1704  0.0114
31540SOL    HW198151   0.907  10.780   5.563  0.8477 -1.1838  0.0480
31540SOL    HW298152   0.797  10.808   5.663 -0.2345  0.3572 -1.5076
31541SOL     OW98153   4.705   1.702   7.540 -0.2216 -0.0620  0.3769
31541SOL    HW198154   4.639   1.711   7.609  1.4377  0.9087  1.9047
31541SOL    HW298155   4.779   1.755   7.569  1.8525 -2.2371 -0.5207
31542SOL     OW98156   6.686   4.800   5.189  0.2120 -0.0529 -0.3770
31542SOL    HW198157   6.643   4.812   5.274 -0.3240 -0.4452 -0.5805
31542SOL    HW298158   6.779   4.817   5.206  0.1517 -0.3997  0.3504
31543SOL     OW98159   0.624  10.934   1.125  0.0044  0.3896 -0.1340
31543SOL    HW198160   0.597  10.863   1.183  2.1033 -0.6347 -0.3216
31543SOL    HW298161   0.698  10.975   1.170  0.7645  0.4803 -1.4123
31544SOL     OW98162   2.783   8.206   3.288 -0.5379  0.4287 -0.6667
31544SOL    HW198163   2.694   8.241   3.282  0.0062  1.7199 -1.6191
31544SOL    HW298164   2.782   8.152   3.367 -1.4576  2.5038  0.8141
31545SOL     OW98165   6.144   2.474   2.392  0.2667  0.3370 -0.4391
31545SOL    HW198166   6.100   2.510   2.469  0.3793  1.4102 -0.8503
31545SOL    HW298167   6.223   2.528   2.383  1.6819 -1.5087  0.2612
31546SOL     OW98168   2.895   5.646   5.032 -0.0383 -0.2783 -0.4049
31546SOL    HW198169   2.872   5.597   4.953  0.8914 -0.2266 -0.7090
31546SOL    HW298170   2.862   5.735   5.015 -1.5735 -0.7184  0.0792
31547SOL     OW98171   2.757   6.456   0.436 -0.0354  0.7031 -0.5318
31547SOL    HW198172   2.737   6.544   0.405  0.2050  0.7620 -0.5250
31547SOL    HW298173   2.769   6.404   0.357 -1.0111  0.4789 -0.5367
31548SOL     OW98174   5.293   4.620   9.028  0.4646 -0.3444  0.4730
31548SOL    HW198175   5.295   4.541   9.081  0.1902 -0.4518  0.3244
31548SOL    HW298176   5.363   4.675   9.064 -1.3659  0.7183  2.7183
31549SOL     OW98177   6.828   8.702  11.101 -0.3568 -0.5243  0.2183
31549SOL    HW198178   6.835   8.630  11.039  1.2217 -1.1260  1.0298
31549SOL    HW298179   6.880   8.674  11.176 -0.9252  0.8467  1.1738
31550SOL     OW98180   9.901   8.469   3.909 -0.2766 -0.1355  0.6413
31550SOL    HW198181   9.875   8.382   3.879 -0.0302 -0.1302  0.4095
31550SOL    HW298182   9.879   8.527   3.836  0.1596 -0.0959  0.5401
31551SOL     OW98183   9.058   6.478   0.381 -0.2076  0.0533  0.2535
31551SOL    HW198184   9.015   6.396   0.356 -0.3328  0.6833 -1.7517
31551SOL    HW298185   9.011   6.507   0.459 -0.5308 -1.4828  0.6552
31552SOL     OW98186   5.663   2.443   6.346  0.0782  0.5516 -0.6704
31552SOL    HW198187   5.663   2.432   6.441 -2.7101 -1.1512 -0.7338
31552SOL    HW298188   5.593   2.506   6.329  0.2726  0.5281 -1.6063
31553SOL     OW98189   2.968  10.267   9.904 -0.5853  0.4559  0.2460
31553SOL    HW198190   2.991  10.342   9.849 -0.7488  0.1370 -0.2583
31553SOL    HW298191   3.040  10.205   9.892 -0.2368  0.6965  0.9911
31554SOL     OW98192   0.109   6.705   4.553 -0.6502  0.2324 -0.2672
31554SOL    HW198193   0.100   6.624   4.504 -1.4002  1.5385 -2.4337
31554SOL    HW298194   0.204   6.720   4.558 -0.3621 -1.6954  1.9362
31555SOL     OW98195   3.762   2.517   6.000 -0.2990 -0.1693  0.1778
31555SOL    HW198196   3.732   2.445   5.944  1.9003 -1.0487 -0.0115
31555SOL    HW298197   3.683   2.566   6.021 -1.6904 -1.8427 -0.8281
31556SOL     OW98198   4.254   0.806   7.955 -0.2736  0.0469 -0.2613
31556SOL    HW198199   4.242   0.780   7.864 -2.9467 -1.0004  0.3005
31556SOL    HW298200   4.349   0.809   7.967  0.1749 -2.4637 -2.3417
31557SOL     OW98201   1.709   3.955   2.500 -0.2727  0.0734 -0.1450
31557SOL    HW198202   1.773   3.964   2.571  0.4708 -1.0015 -0.6448
31557SOL    HW298203   1.630   3.999   2.533  0.7969  1.7259  0.3653
31558SOL     OW98204   0.133   7.688   9.684 -0.5384  0.1106  0.1155
31558SOL    HW198205   0.130   7.748   9.758 -0.4247  0.5688 -0.2484
31558SOL    HW298206   0.195   7.620   9.711 -0.4203  0.3305  0.4013
31559SOL     OW98207  10.504   6.949   5.706 -0.2271  0.2195 -0.1743
31559SOL    HW198208  10.438   7.016   5.690  1.1209  1.6504 -0.0770
31559SOL    HW298209  10.514   6.946   5.801  2.0618  2.4163 -0.2308
31560SOL     OW98210   8.705   0.302   4.199  0.4040  0.3841  0.3527
31560SOL    HW198211   8.797   0.279   4.215  0.2864 -0.6470 -0.3884
31560SOL    HW298212   8.698   0.311   4.104 -0.7283 -1.7347  0.1884
31561SOL     OW98213   7.956   2.135   1.061 -0.3864  0.2493  0.0386
31561SOL    HW198214   8.025   2.181   1.109  0.7751  0.3815 -1.6688
31561SOL    HW298215   7.902   2.205   1.024 -0.5430  0.1718  0.1191
31562SOL     OW98216   7.692   6.878   5.076 -0.4843 -0.3146  0.5269
31562SOL    HW198217   7.728   6.820   5.144 -1.5343 -0.9485  0.5634
31562SOL    HW298218   7.692   6.965   5.116 -0.5790 -0.5920  1.1374
31563SOL     OW98219   9.741   1.698  11.033  0.0090  0.7190  0.4554
31563SOL    HW198220   9.820   1.748  11.052  1.1286 -0.6140 -0.4546
31563SOL    HW298221   9.745   1.681  10.939 -0.1204 -1.3390  0.7687
31564SOL     OW98222   0.291   1.821   8.072  0.9386  0.1404  0.1456
31564SOL    HW198223   0.276   1.848   7.981  0.4742 -0.5629  0.0057
31564SOL    HW298224   0.292   1.903   8.121 -0.8628  0.4180 -0.2078
31565SOL     OW98225   4.748   1.053   0.584  0.9542  0.4773 -0.2804
31565SOL    HW198226   4.721   0.973   0.629 -1.1802  1.0686 -0.4296
31565SOL    HW298227   4.820   1.025   0.526  0.5571 -1.2265  0.0056
31566SOL     OW98228   5.399   2.640   1.837  0.6073  0.5719 -0.2610
31566SOL    HW198229   5.368   2.685   1.916 -1.3012 -0.2066 -0.5188
31566SOL    HW298230   5.358   2.688   1.765 -1.0731 -1.1849 -0.5561
31567SOL     OW98231   9.193   8.645   9.860 -0.4574  0.0338  0.3810
31567SOL    HW198232   9.282   8.610   9.868 -0.7300 -0.9934 -0.6959
31567SOL    HW298233   9.152   8.589   9.794 -1.4418  1.4428 -0.2454
31568SOL     OW98234   0.931   4.533   4.179  0.4143  0.1892 -0.1875
31568SOL    HW198235   0.881   4.552   4.099  2.1158 -1.6856 -1.7804
31568SOL    HW298236   1.022   4.528   4.150  1.0332 -0.9376  1.8162
31569SOL     OW98237   5.539   2.915  10.425 -0.0300  0.4016 -0.2551
31569SOL    HW198238   5.630   2.931  10.401  0.2405  1.3875  1.2766
31569SOL    HW298239   5.493   2.996  10.402 -0.2121  0.4807  0.3620
31570SOL     OW98240   4.064  10.808   6.986 -0.4748 -0.4867 -0.1133
31570SOL    HW198241   4.114  10.890   6.979 -0.8044 -0.0871  1.6986
31570SOL    HW298242   3.981  10.827   6.940 -0.6033  0.2607  0.3994
31571SOL     OW98243   1.913   3.018  10.381  0.5311 -0.0795  0.2450
31571SOL    HW198244   1.913   3.090  10.443  1.9634 -0.7789  1.1156
31571SOL    HW298245   1.984   3.039  10.320 -1.0961  0.7895 -1.4396
31572SOL     OW98246   6.239  10.184   7.264 -0.2196  0.1465 -0.4787
31572SOL    HW198247   6.327  10.216   7.285  0.6451 -0.9987 -2.0680
31572SOL    HW298248   6.241  10.092   7.288 -0.7012 -0.0741 -1.2403
31573SOL     OW98249   5.159  10.471   6.439  0.3398 -0.2159 -0.3748
31573SOL    HW198250   5.164  10.535   6.369  1.3097 -3.1896 -3.3087
31573SOL    HW298251   5.067  10.445   6.443 -0.0700  1.2788  0.8786
31574SOL     OW98252   7.364   8.091   3.445  0.3847  0.6285 -0.9737
31574SOL    HW198253   7.445   8.133   3.473 -0.3006  0.6978  1.0630
31574SOL    HW298254   7.329   8.050   3.524 -0.7247 -0.8531 -2.1559
31575SOL     OW98255   3.543   2.533   7.638 -0.1600 -0.2061 -0.1811
31575SOL    HW198256   3.543   2.447   7.594 -0.8435 -1.1042  1.4734
31575SOL    HW298257   3.631   2.540   7.676  0.6144  0.8059 -2.0141
31576SOL     OW98258   6.870   1.155   9.610  0.3472 -0.4322 -0.1509
31576SOL    HW198259   6.913   1.108   9.681  3.1569 -0.3994 -1.6874
31576SOL    HW298260   6.812   1.091   9.570  1.5383 -1.5679 -0.1010
31577SOL     OW98261   4.376  10.790   0.197 -0.1170  0.5595 -0.0739
31577SOL    HW198262   4.451  10.771   0.253  1.3378  0.3225 -1.9931
31577SOL    HW298263   4.357  10.882   0.211  1.2177  0.8902 -0.2888
31578SOL     OW98264  11.063   4.841   0.526  0.0687 -0.4365  0.2992
31578SOL    HW198265  11.094   4.874   0.611  1.6302 -0.8467 -0.0686
31578SOL    HW298266  11.072   4.916   0.467 -0.0903 -0.4184  0.2998
31579SOL     OW98267  10.133   6.783   2.125  0.2609 -0.4790  0.2143
31579SOL    HW198268  10.187   6.727   2.180 -1.0557 -0.9712  1.0401
31579SOL    HW298269  10.149   6.872   2.158  1.4777 -0.4571 -0.3598
31580SOL     OW98270  10.932   3.257   4.916 -0.2521  0.3488 -0.1947
31580SOL    HW198271  10.956   3.270   4.824 -0.3935 -0.2615 -0.3288
31580SOL    HW298272  10.961   3.336   4.961 -0.5274  0.8139 -0.8326
31581SOL     OW98273   3.750   4.631   2.933 -0.5597  0.4718  0.0785
31581SOL    HW198274   3.787   4.566   2.993 -1.4112 -0.7552 -0.7139
31581SOL    HW298275   3.788   4.610   2.848  0.3036  1.9426  0.0528
31582SOL     OW98276   9.758   8.992   9.802  0.2392  0.5266  0.1000
31582SOL    HW198277   9.718   9.050   9.866  0.1694  3.9680 -2.7051
31582SOL    HW298278   9.691   8.927   9.782 -0.6603  0.9586  1.6196
31583SOL     OW98279   0.647   8.219   4.752 -0.5003 -0.2659  0.6084
31583SOL    HW198280   0.596   8.280   4.699 -1.0476 -0.9584  0.3162
31583SOL    HW298281   0.611   8.228   4.841 -1.2738 -0.8753  0.3709
31584SOL     OW98282   7.446   1.751   3.449 -0.1752 -0.6876 -0.5722
31584SOL    HW198283   7.392   1.830   3.440  1.5777  0.6236 -0.1028
31584SOL    HW298284   7.395   1.694   3.506 -2.0943 -0.5089 -1.9940
31585SOL     OW98285   9.006   7.823   0.777  0.9928 -0.1217 -0.0258
31585SOL    HW198286   9.084   7.789   0.734  1.7050 -1.1647  1.9558
31585SOL    HW298287   9.038   7.890   0.837  0.6283 -1.4291  1.7384
31586SOL     OW98288   8.694   6.084  10.852  0.1577 -0.8143  0.4534
31586SOL    HW198289   8.755   6.013  10.835  0.4270 -0.6678  0.8037
31586SOL    HW298290   8.655   6.103  10.766  0.9690 -0.5692  0.1321
31587SOL     OW98291   4.486   3.900   0.872  0.7945  0.2023 -0.1402
31587SOL    HW198292   4.574   3.866   0.887  0.8971 -0.6399 -2.2623
31587SOL    HW298293   4.436   3.824   0.841 -1.0210  0.4024  2.0335
31588SOL     OW98294   9.887   4.392  11.063  0.3774  0.5636 -0.6569
31588SOL    HW198295   9.944   4.459  11.100  1.8101 -0.5289 -0.7926
31588SOL    HW298296   9.933   4.361  10.985 -0.1424 -0.7367 -0.4690
31589SOL     OW98297   5.380   6.644   4.614  0.1013  0.2207  0.3612
31589SOL    HW198298   5.440   6.576   4.582  0.8249  0.7754  0.5250
31589SOL    HW298299   5.426   6.684   4.688  0.3192  1.8568 -0.6263
31590SOL     OW98300   8.820  10.464   4.339  0.0799  0.6730  0.0175
31590SOL    HW198301   8.873  10.412   4.399  0.7090  0.4194 -0.7442
31590SOL    HW298302   8.883  10.515   4.288 -0.2720 -0.6475 -1.8648
31591SOL     OW98303   8.862   1.600   5.033  0.1478  0.0874 -0.3614
31591SOL    HW198304   8.948   1.631   5.060 -0.2130  0.8314 -0.0439
31591SOL    HW298305   8.827   1.671   4.980 -0.2111 -0.2776 -0.6218
31592SOL     OW98306   9.994   8.558   7.973  0.3387 -0.0201 -0.4747
31592SOL    HW198307  10.078   8.558   7.927 -0.0940  0.4891 -1.2860
31592SOL    HW298308   9.933   8.519   7.910  0.2417 -1.8225  0.6566
31593SOL     OW98309   2.633   3.205   1.204  0.0955 -0.4264  0.3728
31593SOL    HW198310   2.697   3.184   1.272 -0.0873  1.8816  1.3395
31593SOL    HW298311   2.684   3.247   1.135 -0.0405 -0.8208  0.0259
31594SOL     OW98312  10.007   4.336   3.371 -0.6388 -0.3774 -0.3145
31594SOL    HW198313   9.931   4.388   3.396 -1.4296 -2.0964  1.0090
31594SOL    HW298314   9.984   4.298   3.286 -1.2583 -0.8577  0.0611
31595SOL     OW98315  10.290   4.075   6.521  0.6238  0.3225  0.0089
31595SOL    HW198316  10.251   4.013   6.459  1.4140  0.5907 -0.7750
31595SOL    HW298317  10.315   4.150   6.468 -0.6343  1.4928  1.0055
31596SOL     OW98318   1.204   9.251   8.738  0.1083  0.4081 -0.0222
31596SOL    HW198319   1.155   9.183   8.691  1.9055 -0.8334 -0.2060
31596SOL    HW298320   1.264   9.287   8.672 -0.5380  1.9425  0.1789
31597SOL     OW98321   5.456   0.810   7.540  0.0194 -0.4615 -0.3350
31597SOL    HW198322   5.362   0.810   7.523 -0.3905  0.7174  1.6222
31597SOL    HW298323   5.497   0.828   7.455 -1.4298 -2.0655 -1.4301
31598SOL     OW98324   1.247   1.498   7.979 -0.4509  0.1620  0.3807
31598SOL    HW198325   1.318   1.541   7.931 -0.0419 -0.1557  0.6990
31598SOL    HW298326   1.256   1.530   8.068  0.4504 -1.2879  0.8438
31599SOL     OW98327   8.355   8.621   3.262 -0.5948  0.1969  0.4112
31599SOL    HW198328   8.444   8.603   3.293 -0.3381  1.3603  0.4098
31599SOL    HW298329   8.341   8.560   3.190  0.0097 -0.3397  0.7416
31600SOL     OW98330   4.528   3.297   1.894  0.0229  0.3666 -0.3927
31600SOL    HW198331   4.535   3.201   1.887  1.2831  0.5448 -2.0947
31600SOL    HW298332   4.497   3.325   1.808 -0.9139  1.4642  0.2863
31601SOL     OW98333   0.637   2.186   4.260  0.2254 -0.0170  0.1861
31601SOL    HW198334   0.573   2.192   4.331  1.7622  2.0755  1.5290
31601SOL    HW298335   0.611   2.255   4.198  2.0550  2.1819  1.6616
31602SOL     OW98336   9.518   6.614   8.727 -0.2617  0.3108  0.5579
31602SOL    HW198337   9.523   6.540   8.787 -1.7422 -0.7765 -0.5985
31602SOL    HW298338   9.584   6.596   8.660 -0.6731 -0.0246  0.2366
31603SOL     OW98339  10.601  10.195   0.111 -0.6321  0.0804  0.7585
31603SOL    HW198340  10.630  10.106   0.092  1.3362  0.6739  0.7263
31603SOL    HW298341  10.542  10.186   0.186 -0.4182 -1.2240  0.7922
31604SOL     OW98342   6.940   4.144   4.762  0.4119  0.9727 -0.1912
31604SOL    HW198343   7.007   4.118   4.826 -0.0960  2.3167  0.9453
31604SOL    HW298344   6.915   4.233   4.788 -1.2683  0.8020 -1.0635
31605SOL     OW98345   5.682   0.334   1.993 -0.7118  0.1846  0.0632
31605SOL    HW198346   5.613   0.269   1.978  0.3258 -1.1132  0.6948
31605SOL    HW298347   5.758   0.282   2.019 -0.0084  1.6981  1.1592
31606SOL     OW98348   3.710   7.563  10.664  0.1863 -0.3495  0.0236
31606SOL    HW198349   3.618   7.569  10.688 -0.3501 -0.4846 -1.8206
31606SOL    HW298350   3.709   7.524  10.577  2.1417 -2.4540  0.8691
31607SOL     OW98351   5.684   5.261  10.029  0.3660  0.1094 -0.2376
31607SOL    HW198352   5.771   5.223  10.034  1.4757  2.1621 -2.3059
31607SOL    HW298353   5.696   5.343   9.982 -2.8689 -0.1036 -1.6950
31608SOL     OW98354  10.292   8.770   8.043  0.6537  0.2316 -0.1739
31608SOL    HW198355  10.273   8.816   7.961  0.4564 -0.6328 -0.6159
31608SOL    HW298356  10.292   8.678   8.020  2.1795  0.0409  0.4738
31609SOL     OW98357   9.327   0.556   3.270  0.1145  0.4171 -0.3016
31609SOL    HW198358   9.329   0.616   3.196  1.0956  1.5504  0.6062
31609SOL    HW298359   9.396   0.587   3.328  1.7207 -2.4346 -0.4530
31610SOL     OW98360   6.235   6.500   3.347 -0.6422 -0.3473 -0.8561
31610SOL    HW198361   6.149   6.541   3.342 -0.7260 -0.5515 -1.0853
31610SOL    HW298362   6.223   6.413   3.309  0.3905  0.7326 -3.8991
31611SOL     OW98363   9.986   7.769   7.875 -0.3999 -0.4508 -0.3797
31611SOL    HW198364   9.983   7.674   7.886 -0.7939 -0.5303 -1.1207
31611SOL    HW298365  10.012   7.782   7.784  3.0386  0.1813  0.5357
31612SOL     OW98366   6.360   7.691   9.396 -0.0955  0.4388  0.0321
31612SOL    HW198367   6.294   7.753   9.426 -0.5406 -0.6116  1.3174
31612SOL    HW298368   6.410   7.740   9.330  1.6758  3.3518  3.1965
31613SOL     OW98369   5.014   0.418   3.458  0.4926  0.1065 -0.3925
31613SOL    HW198370   5.104   0.428   3.489  0.6810  0.7711 -1.1325
31613SOL    HW298371   5.018   0.347   3.394  0.2165 -0.8341  0.5923
31614SOL     OW98372   3.163   8.895   0.809 -0.1581  0.2815  0.0910
31614SOL    HW198373   3.159   8.801   0.790 -0.1246  0.5380 -1.2982
31614SOL    HW298374   3.072   8.923   0.805 -0.1036  0.4239 -0.1763
31615SOL     OW98375   3.475   8.552   5.006 -0.3213 -0.6994  0.0090
31615SOL    HW198376   3.456   8.645   4.998  0.7331 -0.4141  0.6479
31615SOL    HW298377   3.410   8.519   5.069 -1.0146 -0.5215 -0.5936
31616SOL     OW98378   7.315   9.119   0.848  0.1404 -0.6470 -0.5824
31616SOL    HW198379   7.228   9.139   0.814  0.8281  1.2257 -1.3572
31616SOL    HW298380   7.332   9.189   0.912  1.5002 -0.3569 -1.2351
31617SOL     OW98381  10.644   0.327   6.700  0.4306  0.0493 -0.4572
31617SOL    HW198382  10.571   0.285   6.744 -0.9328  2.2644 -0.4307
31617SOL    HW298383  10.657   0.277   6.620  0.3784 -1.6856  0.5686
31618SOL     OW98384   3.555   3.001  10.357  0.5466 -0.2082 -0.0720
31618SOL    HW198385   3.539   3.064  10.426  0.7216  0.1092 -0.3191
31618SOL    HW298386   3.635   3.031  10.314  1.9754 -1.8652  1.2692
31619SOL     OW98387   8.526   3.472   5.872 -0.1895  0.0428 -0.1938
31619SOL    HW198388   8.568   3.428   5.945  1.3208  2.9486  0.8457
31619SOL    HW298389   8.534   3.411   5.798 -0.2429 -2.2439  1.5986
31620SOL     OW98390   4.012   7.721   3.613  0.5289  0.3611  0.1921
31620SOL    HW198391   4.025   7.639   3.660 -1.4803 -0.1236 -0.0519
31620SOL    HW298392   3.979   7.782   3.679  0.1610  0.4239 -0.0500
31621SOL     OW98393   5.083   0.380   0.102  0.0276  0.0024  0.3384
31621SOL    HW198394   5.137   0.323   0.157 -0.4328 -0.9122 -0.1300
31621SOL    HW298395   5.038   0.320   0.043 -3.5666  0.4162  2.4031
31622SOL     OW98396   0.313   4.871   2.669  0.1552  0.0884  0.4317
31622SOL    HW198397   0.367   4.903   2.597  1.3528 -0.4418  1.0641
31622SOL    HW298398   0.259   4.802   2.630 -0.9800  1.4521 -0.4803
31623SOL     OW98399   0.568   7.245   3.520 -0.1475 -0.6246  0.1108
31623SOL    HW198400   0.493   7.187   3.529  0.0242 -0.7751  0.6262
31623SOL    HW298401   0.531   7.333   3.523 -0.3425 -0.6979 -0.0541
31624SOL     OW98402  10.002   7.880   6.354  0.4078 -0.0999  0.2155
31624SOL    HW198403  10.053   7.813   6.308 -0.5745 -0.7393  0.0236
31624SOL    HW298404  10.008   7.957   6.298  0.8962 -0.2596  0.0391
31625SOL     OW98405   7.836   7.801   9.676 -0.1561 -0.1776 -0.3745
31625SOL    HW198406   7.798   7.881   9.639  0.5000 -0.2135 -1.1634
31625SOL    HW298407   7.928   7.823   9.690 -0.4027 -0.1293  1.3968
31626SOL     OW98408  10.046   5.127   2.552  0.8841 -0.1241 -0.1302
31626SOL    HW198409  10.071   5.217   2.532  0.5466  0.3650  1.4983
31626SOL    HW298410   9.951   5.126   2.544  0.9026 -0.3747 -0.3168
31627SOL     OW98411   1.545   7.775   5.412 -0.2155 -0.0612  0.4686
31627SOL    HW198412   1.546   7.786   5.507  0.4510 -0.5971  0.5284
31627SOL    HW298413   1.628   7.732   5.391 -1.2268 -1.8126 -0.1331
31628SOL     OW98414   4.308   7.424   2.208  0.3660  0.1591 -0.2197
31628SOL    HW198415   4.343   7.348   2.253  0.3718 -0.1675 -0.7768
31628SOL    HW298416   4.363   7.497   2.237  0.0274  0.0567  0.7320
31629SOL     OW98417   7.131   6.185   6.424 -0.6624 -0.1955  0.3785
31629SOL    HW198418   7.135   6.101   6.378 -2.9046 -0.4023  0.4819
31629SOL    HW298419   7.099   6.247   6.358 -2.5071 -0.1980  1.2238
31630SOL     OW98420  10.534   8.478   3.649 -0.3614 -0.0265  0.2162
31630SOL    HW198421  10.551   8.572   3.647 -0.1437 -0.0740 -0.3417
31630SOL    HW298422  10.567   8.450   3.735  3.7463 -0.3277 -1.2258
31631SOL     OW98423   4.472   7.392  10.505  1.0259  0.1966 -0.1768
31631SOL    HW198424   4.546   7.372  10.448  0.5206 -1.4207 -0.3070
31631SOL    HW298425   4.399   7.405  10.445  0.8182  0.0252  0.0399
31632SOL     OW98426   5.439   4.535   9.596  0.2523  0.2196 -0.3721
31632SOL    HW198427   5.402   4.584   9.523  0.1352 -1.2523 -1.3366
31632SOL    HW298428   5.532   4.557   9.596  0.2845  0.1049 -1.0746
31633SOL     OW98429   5.917   1.923   6.879 -0.0770  0.3156 -0.0641
31633SOL    HW198430   5.922   1.953   6.788 -0.7372  1.1475  0.1571
31633SOL    HW298431   5.858   1.986   6.922 -0.3139 -0.4576  0.7814
31634SOL     OW98432   3.521  10.831   5.643  0.6679  0.0401  0.0174
31634SOL    HW198433   3.429  10.855   5.654  1.0682  1.0293  1.6028
31634SOL    HW298434   3.528  10.801   5.553 -1.3604 -0.7668  0.0808
31635SOL     OW98435   9.143   2.050  10.046  0.0309  0.2953  0.7600
31635SOL    HW198436   9.232   2.079  10.064 -0.1552  0.7300  1.0106
31635SOL    HW298437   9.109   2.116   9.986  0.0503 -0.1601  0.2414
31636SOL     OW98438  10.789   4.783   0.532  0.6959  0.5644  0.5813
31636SOL    HW198439  10.790   4.723   0.457 -0.4032  1.2476  0.0033
31636SOL    HW298440  10.877   4.822   0.533  1.1414 -0.4098  0.4503
31637SOL     OW98441   2.097   7.592  10.892  0.2132  0.2391 -0.8052
31637SOL    HW198442   2.003   7.607  10.889  0.2193  0.1595 -2.6021
31637SOL    HW298443   2.107   7.497  10.898  0.2094  0.3448  1.7556
31638SOL     OW98444   5.762   2.713   7.575  0.2474 -0.2195 -0.1678
31638SOL    HW198445   5.680   2.760   7.560 -0.0461 -0.1250  1.4916
31638SOL    HW298446   5.736   2.633   7.620  0.9157 -1.1198 -1.3189
31639SOL     OW98447   5.680  10.997   9.649 -0.7340  0.6288  0.0214
31639SOL    HW198448   5.649  10.907   9.635  0.4891 -0.1188  1.7504
31639SOL    HW298449   5.636  11.025   9.729  0.8537  0.5701  0.9522
31640SOL     OW98450   4.683  10.908   7.998  0.1856  0.2522  0.2997
31640SOL    HW198451   4.699  10.995   7.961  0.0028 -0.0094 -0.4314
31640SOL    HW298452   4.668  10.923   8.091  1.7853  0.8210  0.5054
31641SOL     OW98453   4.304  10.984   8.625 -0.1275 -0.2665  0.4956
31641SOL    HW198454   4.385  11.032   8.610 -0.3878  0.1455  0.3989
31641SOL    HW298455   4.300  10.921   8.553 -0.4095  0.4090 -0.0926
31642SOL     OW98456   2.872   0.673   4.645 -0.0776 -0.1036  0.4637
31642SOL    HW198457   2.781   0.666   4.615 -0.2188  0.2362  0.8126
31642SOL    HW298458   2.870   0.741   4.711  0.7988  1.4094 -0.9967
31643SOL     OW98459   8.070   3.946   4.407 -0.0752 -0.5198 -0.0181
31643SOL    HW198460   8.097   3.856   4.390 -0.5307 -0.7714  0.5587
31643SOL    HW298461   8.109   3.997   4.336  0.1687 -1.1745 -0.3565
31644SOL     OW98462   4.723  10.065   4.224  0.1763 -0.1835  0.5263
31644SOL    HW198463   4.661  10.004   4.185  0.8138 -0.8436  0.5208
31644SOL    HW298464   4.698  10.069   4.317 -1.1074  1.1040  0.1666
31645SOL     OW98465   2.531   5.893  10.197 -0.1777  0.2580 -0.1762
31645SOL    HW198466   2.451   5.946  10.192  0.0663  0.7808  0.9907
31645SOL    HW298467   2.593   5.938  10.141  0.0156  1.2209  0.7803
31646SOL     OW98468   4.747   0.464   0.915 -0.2887 -0.1693 -0.5036
31646SOL    HW198469   4.723   0.556   0.899  0.3363  0.0840 -0.0362
31646SOL    HW298470   4.772   0.461   1.007 -2.7818 -1.3773  0.2101
31647SOL     OW98471   3.365   3.787   7.319  0.2262 -0.3024 -0.0944
31647SOL    HW198472   3.411   3.857   7.273 -0.3845  0.2383  0.0831
31647SOL    HW298473   3.309   3.834   7.382 -0.5303 -0.9265 -0.2835
31648SOL     OW98474  10.122   2.442  10.373 -0.9048  0.0159  0.1877
31648SOL    HW198475  10.079   2.365  10.410 -0.3543  0.3309  1.5364
31648SOL    HW298476  10.206   2.409  10.341 -0.6247  0.0565  0.8583
31649SOL     OW98477   2.311   4.987   5.154 -0.1322 -0.4440 -0.4036
31649SOL    HW198478   2.220   4.957   5.155  1.0216 -4.8142 -2.4370
31649SOL    HW298479   2.324   5.025   5.241 -3.5591 -0.5900  0.3490
31650SOL     OW98480  10.199   7.460   9.201  0.3614  0.1758 -0.4119
31650SOL    HW198481  10.295   7.463   9.209  0.3046  1.4073  0.0588
31650SOL    HW298482  10.174   7.552   9.188 -0.8815  0.0698  0.9975
31651SOL     OW98483   7.675   7.341   8.146 -0.1925  0.3627 -0.4367
31651SOL    HW198484   7.765   7.369   8.166 -0.6621  2.2887 -0.7894
31651SOL    HW298485   7.623   7.375   8.219 -0.8042  0.4216 -0.8891
31652SOL     OW98486   8.269   0.757   2.550  0.7265 -0.5940  0.0859
31652SOL    HW198487   8.210   0.825   2.583  0.9527 -0.1695 -0.3722
31652SOL    HW298488   8.355   0.781   2.584  1.0019 -0.0245 -0.9788
31653SOL     OW98489   6.078   6.299   0.502 -0.3682 -0.5434 -0.3922
31653SOL    HW198490   6.089   6.391   0.479 -0.9563 -0.4865 -0.4599
31653SOL    HW298491   6.167   6.267   0.516 -0.2054  0.2198  0.3901
31654SOL     OW98492  11.039  10.640   6.927  0.3907  0.2044  0.0415
31654SOL    HW198493  11.068  10.578   6.994 -2.2205 -2.8322 -1.3854
31654SOL    HW298494  10.954  10.671   6.959  1.4366  2.8367  0.4977
31655SOL     OW98495   0.116   0.216   1.596 -0.4456 -0.0855  0.3443
31655SOL    HW198496   0.173   0.139   1.589 -1.4777 -0.7984 -0.6103
31655SOL    HW298497   0.097   0.223   1.690 -0.7923 -1.3657  0.3931
31656SOL     OW98498   3.729   5.672   5.666 -0.0729  0.2611  0.3704
31656SOL    HW198499   3.661   5.615   5.631  0.5962  0.7277 -1.8398
31656SOL    HW298500   3.692   5.708   5.746 -2.0275 -0.2445 -0.2648
31657SOL     OW98501  10.597   2.058   7.071 -0.3617 -0.6108  0.2161
31657SOL    HW198502  10.507   2.091   7.067  0.4089  1.5257 -1.1413
31657SOL    HW298503  10.588   1.963   7.074 -2.6722 -0.4116  1.2161
31658SOL     OW98504  10.752   7.305   2.770  0.5256 -0.0018 -0.1323
31658SOL    HW198505  10.727   7.379   2.715 -0.7693  0.2661  0.7785
31658SOL    HW298506  10.687   7.238   2.750 -0.6932  0.5027  1.8607
31659SOL     OW98507   1.403   1.316   1.125  0.0050 -0.3683 -0.3531
31659SOL    HW198508   1.339   1.316   1.054 -0.4433 -1.9261  0.0008
31659SOL    HW298509   1.436   1.226   1.128 -0.5385 -0.5616  1.8596
31660SOL     OW98510   6.982   1.978   6.286 -0.4983 -0.0016  0.0027
31660SOL    HW198511   6.980   1.995   6.380  0.9893  0.0264  0.0560
31660SOL    HW298512   6.896   2.006   6.254 -0.5801  1.1341  1.1676
31661SOL     OW98513   4.518   9.151  10.667  0.0816 -0.1724 -0.9390
31661SOL    HW198514   4.545   9.233  10.624 -0.0267  0.3778  0.0168
31661SOL    HW298515   4.554   9.158  10.755 -1.9399 -0.0880 -0.0800
31662SOL     OW98516   0.377   4.536  10.511 -0.1776  0.1145  0.6560
31662SOL    HW198517   0.289   4.505  10.492 -0.3513  0.8678  0.1758
31662SOL    HW298518   0.434   4.463  10.484 -0.5604  0.2690 -0.6818
31663SOL     OW98519   9.124   0.437   4.552 -0.0514 -0.6501 -0.1549
31663SOL    HW198520   9.106   0.531   4.557  0.5071 -0.5380 -0.1189
31663SOL    HW298521   9.114   0.416   4.459 -0.1008 -0.5396 -0.1751
31664SOL     OW98522   0.536   8.294   2.662 -0.3159 -0.2300  0.2439
31664SOL    HW198523   0.560   8.292   2.755 -1.1631  0.0003  0.4782
31664SOL    HW298524   0.453   8.341   2.660 -0.8539 -1.1618 -0.5049
31665SOL     OW98525   9.920   4.661   6.176 -0.5343 -0.1696 -0.3651
31665SOL    HW198526   9.946   4.569   6.189 -0.0610 -0.2747 -1.8414
31665SOL    HW298527   9.977   4.711   6.234 -2.3015 -0.8982  2.1979
31666SOL     OW98528   0.544   0.131   8.036  0.4892 -0.2851 -0.1945
31666SOL    HW198529   0.521   0.038   8.038  1.8289 -0.6430  1.4274
31666SOL    HW298530   0.519   0.160   7.948 -0.3349 -2.0673 -0.5995
31667SOL     OW98531   8.013   1.953   3.570  0.0295  0.3469 -0.6028
31667SOL    HW198532   8.026   1.896   3.494 -0.2608  0.9876 -1.1499
31667SOL    HW298533   7.918   1.951   3.586  0.0716  0.3328 -0.3482
31668SOL     OW98534   1.582   6.837  10.092  0.3444  0.3980 -0.6720
31668SOL    HW198535   1.562   6.851  10.185  1.8674  0.4380 -0.3358
31668SOL    HW298536   1.644   6.764  10.092  1.0304  0.9648 -1.5896
31669SOL     OW98537   4.730   6.265   5.701  0.8195 -0.0375  0.2962
31669SOL    HW198538   4.717   6.352   5.663  1.7330 -0.5268 -1.2471
31669SOL    HW298539   4.746   6.281   5.794 -0.6650  1.2920  0.3553
31670SOL     OW98540   5.093   7.666   2.228 -0.4639  0.0132  0.2982
31670SOL    HW198541   5.120   7.575   2.215  1.7614  0.6569 -0.1091
31670SOL    HW298542   5.174   7.712   2.251 -1.0070  2.3624 -1.9982
31671SOL     OW98543   5.977   6.902   1.523  0.3183 -0.5632  0.1365
31671SOL    HW198544   5.923   6.831   1.558 -1.2007 -0.3331 -1.5697
31671SOL    HW298545   6.061   6.862   1.502 -0.5460 -1.9013 -0.8857
31672SOL     OW98546   2.693   9.400   6.256 -0.3108 -0.4827  0.3078
31672SOL    HW198547   2.680   9.451   6.336  0.1565  2.6627 -1.4895
31672SOL    HW298548   2.608   9.401   6.213 -0.1083 -0.6335 -0.1000
31673SOL     OW98549   2.491  10.509   0.093 -0.4684 -0.1348 -0.6198
31673SOL    HW198550   2.396  10.521   0.099 -0.6622 -1.9364  2.5214
31673SOL    HW298551   2.504  10.415   0.106  1.7011 -0.3141 -3.3291
31674SOL     OW98552   8.884   5.426   1.219 -0.1552  0.3575  0.0648
31674SOL    HW198553   8.968   5.382   1.207 -0.9841 -0.9586 -1.2874
31674SOL    HW298554   8.907   5.510   1.258  1.7071 -0.2976  0.5054
31675SOL     OW98555  10.982   0.256   6.805 -0.6898 -0.0773  0.1433
31675SOL    HW198556  10.932   0.216   6.876 -0.3407 -0.9659 -0.0915
31675SOL    HW298557  11.065   0.282   6.845  0.4625 -2.6583 -0.3495
31676SOL     OW98558   4.313   8.586   8.230  0.0297 -0.1132 -0.2368
31676SOL    HW198559   4.233   8.633   8.250 -0.4271 -0.4359 -1.2391
31676SOL    HW298560   4.357   8.576   8.314 -0.6524  0.6549  0.2235
31677SOL     OW98561   9.136   4.921   6.812 -0.6635  0.1867 -0.4542
31677SOL    HW198562   9.066   4.938   6.748 -1.3923  1.6495  0.6827
31677SOL    HW298563   9.107   4.964   6.892  0.8261 -0.5239  0.5161
31678SOL     OW98564   3.704   1.551   8.495  0.1370 -0.3902 -0.4471
31678SOL    HW198565   3.770   1.611   8.529 -1.1946 -0.2336  2.1662
31678SOL    HW298566   3.737   1.464   8.517 -0.7862 -0.2875  1.6681
31679SOL     OW98567   0.045   5.002  10.771  0.1932  0.0045  0.2132
31679SOL    HW198568  -0.031   5.051  10.739  0.9494  1.0120 -0.0805
31679SOL    HW298569   0.058   4.934  10.706  0.2655  0.5738 -0.3820
31680SOL     OW98570   4.608   9.437   3.015  0.5506 -0.0675 -0.2162
31680SOL    HW198571   4.534   9.403   3.067  1.2246 -0.0594  0.7747
31680SOL    HW298572   4.583   9.527   2.995 -0.0617 -0.3097 -0.5829
31681SOL     OW98573   4.335  10.962   0.929  0.0416  0.0941  0.2754
31681SOL    HW198574   4.325  10.919   1.014 -1.9216  0.9529  0.5351
31681SOL    HW298575   4.278  10.912   0.871 -1.6386  1.7681  0.3952
31682SOL     OW98576   0.738   2.535   7.761 -0.0073  0.2506  0.0028
31682SOL    HW198577   0.785   2.494   7.689 -0.8831  0.8482 -0.9402
31682SOL    HW298578   0.787   2.615   7.780 -0.8582  1.1348 -1.3163
31683SOL     OW98579   3.763   4.829   2.380  0.5552 -0.4736  0.4650
31683SOL    HW198580   3.833   4.894   2.377  1.0569 -0.9604  1.3205
31683SOL    HW298581   3.805   4.750   2.412  0.2435 -1.6260 -1.7453
31684SOL     OW98582   9.392   7.603   0.245 -0.3207  0.1042  0.8329
31684SOL    HW198583   9.319   7.602   0.307 -0.7850  2.0864  0.3805
31684SOL    HW298584   9.350   7.618   0.160  0.5626  0.6334  0.4806
31685SOL     OW98585   7.861   8.331   4.886  0.3819 -0.1171  0.3477
31685SOL    HW198586   7.858   8.238   4.904 -0.4125  0.0788  1.2738
31685SOL    HW298587   7.899   8.337   4.798 -0.0687 -1.3255  0.0543
31686SOL     OW98588   6.673  11.013   2.392 -0.0807  0.4130  0.2971
31686SOL    HW198589   6.633  10.990   2.476  0.1779  0.1853  0.3573
31686SOL    HW298590   6.621  11.087   2.361 -1.5016 -0.8145 -0.3500
31687SOL     OW98591   8.771   6.326   6.511  0.0257 -0.1264 -0.3298
31687SOL    HW198592   8.747   6.273   6.587 -2.0668  0.2380 -0.6972
31687SOL    HW298593   8.806   6.407   6.548  2.3132 -1.2631  0.2215
31688SOL     OW98594   6.968   7.363   6.794 -0.1684 -0.2390 -0.6142
31688SOL    HW198595   7.031   7.292   6.800 -0.2651 -0.3278 -0.6556
31688SOL    HW298596   7.006   7.423   6.730  0.9943  0.8440  1.0128
31689SOL     OW98597   7.522  10.536   4.683  0.3070  0.3753 -0.1772
31689SOL    HW198598   7.572  10.601   4.732  0.2642 -1.2119  2.1252
31689SOL    HW298599   7.471  10.489   4.749  0.4618 -2.0862 -1.6612
31690SOL     OW98600   9.885  10.128   0.307  0.3856  0.0602  0.3976
31690SOL    HW198601   9.791  10.131   0.324  0.7148 -0.2071  2.4846
31690SOL    HW298602   9.892  10.081   0.223 -1.2828 -0.8760  0.7300
31691SOL     OW98603   3.780  10.831   0.544 -0.0170  0.1399  0.2553
31691SOL    HW198604   3.770  10.868   0.632 -0.0595  0.4775  0.1082
31691SOL    HW298605   3.867  10.861   0.516  0.4391 -0.8190  0.5877
31692SOL     OW98606   7.003  10.788   6.888  0.1628 -0.1526  0.2413
31692SOL    HW198607   6.935  10.778   6.955  1.1231  0.9016  1.4287
31692SOL    HW298608   7.022  10.698   6.859 -0.0270 -0.6627  1.6396
31693SOL     OW98609   2.419   6.430   9.527 -0.3724  0.3410 -0.0942
31693SOL    HW198610   2.448   6.348   9.487  1.1459  0.6394  0.3153
31693SOL    HW298611   2.350   6.404   9.588  0.5451 -0.7318  0.5205
31694SOL     OW98612   6.812  10.531   2.736 -0.7765 -0.1511 -0.0141
31694SOL    HW198613   6.890  10.498   2.781 -0.6428 -2.1264 -1.5558
31694SOL    HW298614   6.793  10.465   2.669 -2.6329  1.2516 -0.9682
31695SOL     OW98615   6.196   8.494   6.454  0.3962  0.0481 -0.1435
31695SOL    HW198616   6.220   8.531   6.369 -1.3641  2.9892  0.4866
31695SOL    HW298617   6.198   8.569   6.514 -2.5912 -1.0112  1.4722
31696SOL     OW98618   1.395   9.594   4.215 -0.1726  0.0734  0.1515
31696SOL    HW198619   1.490   9.608   4.219 -0.0406 -0.8666  0.3723
31696SOL    HW298620   1.360   9.657   4.279  0.4390 -0.7649  1.3489
31697SOL     OW98621   6.241   1.846   2.924 -0.2510 -0.2386 -0.1847
31697SOL    HW198622   6.297   1.914   2.887 -0.5858  0.3654  0.3920
31697SOL    HW298623   6.169   1.895   2.966 -1.1333 -0.9846 -0.7873
31698SOL     OW98624   1.592   7.466   5.274 -0.4433 -0.2342  0.5305
31698SOL    HW198625   1.535   7.525   5.226  0.5122 -0.6602 -1.2240
31698SOL    HW298626   1.672   7.517   5.288 -0.9732  0.1504  2.4230
31699SOL     OW98627   2.291   7.565   9.482  0.3240  0.1956  0.1472
31699SOL    HW198628   2.298   7.598   9.392  1.0736 -0.2843  0.0183
31699SOL    HW298629   2.377   7.525   9.499 -0.0078 -0.2184  0.8774
31700SOL     OW98630   8.308   9.737   5.576 -0.0241  0.6459 -0.2885
31700SOL    HW198631   8.304   9.675   5.648  3.1508  1.8637  1.0850
31700SOL    HW298632   8.359   9.693   5.508 -0.0122  0.8022 -0.3822
31701SOL     OW98633   8.182   0.878   6.210  0.4172 -0.3132 -0.3365
31701SOL    HW198634   8.097   0.840   6.235 -0.3555  2.1562  1.1906
31701SOL    HW298635   8.163   0.930   6.132  0.1336  1.2912  0.7379
31702SOL     OW98636   9.775   4.117   6.028  0.0459  0.6372  0.4872
31702SOL    HW198637   9.724   4.036   6.033  1.7820 -0.7097 -1.6075
31702SOL    HW298638   9.725   4.173   5.969  0.9465 -0.7719 -1.7544
31703SOL     OW98639  10.000   4.320  10.032  0.4910  0.0444  0.1034
31703SOL    HW198640   9.943   4.292  10.104 -0.0401  0.2772 -0.2231
31703SOL    HW298641  10.080   4.268  10.043  0.7407  0.6553  1.3295
31704SOL     OW98642  10.345   6.654   7.204  0.1128  0.6754  0.1436
31704SOL    HW198643  10.390   6.704   7.136 -0.0733  1.0887  0.3220
31704SOL    HW298644  10.287   6.595   7.156  1.1554 -0.1841 -0.1072
31705SOL     OW98645   6.414   0.096   1.474 -0.5481 -0.0655 -0.1718
31705SOL    HW198646   6.465   0.037   1.418 -1.2840  0.7226 -1.7149
31705SOL    HW298647   6.323   0.074   1.456 -0.8100  0.0186  0.9463
31706SOL     OW98648  10.266   2.689   3.862 -0.2574 -0.2062  0.3085
31706SOL    HW198649  10.244   2.759   3.801 -0.9198 -0.6184  0.0587
31706SOL    HW298650  10.264   2.730   3.949  1.9351  0.6864  0.0053
31707SOL     OW98651   5.112   8.971   7.548 -0.3506  0.9756 -0.2663
31707SOL    HW198652   5.111   8.906   7.617  0.4352  1.7017  0.4448
31707SOL    HW298653   5.026   9.013   7.554 -0.5365  0.5889 -0.1749
31708SOL     OW98654   4.491   8.382   7.701  0.0879  0.1880  0.3227
31708SOL    HW198655   4.545   8.334   7.765  0.2224  0.9141  0.7699
31708SOL    HW298656   4.403   8.347   7.713  0.4349 -0.9999 -0.4024
31709SOL     OW98657   6.681   9.649   6.688  0.2435 -0.4409  0.3384
31709SOL    HW198658   6.770   9.616   6.702  0.0729 -0.6112  1.0328
31709SOL    HW298659   6.679   9.673   6.595  1.9424  2.2294  0.8598
31710SOL     OW98660   0.098   3.515  10.038 -0.1538 -0.4891 -0.5166
31710SOL    HW198661   0.044   3.453   9.989 -1.7613 -0.3554  0.9827
31710SOL    HW298662   0.127   3.579   9.973 -1.5560 -0.7365 -1.4304
31711SOL     OW98663   9.329  10.023  10.082 -0.5501  0.1815  0.1529
31711SOL    HW198664   9.395   9.956  10.065 -1.5335 -0.6535 -0.4953
31711SOL    HW298665   9.379  10.101  10.105  0.6776 -0.2725 -0.8747
31712SOL     OW98666   6.413  10.638   9.596  0.1810  0.2869 -0.2635
31712SOL    HW198667   6.493  10.594   9.567 -0.0489 -0.5615  0.3494
31712SOL    HW298668   6.431  10.663   9.686 -1.0123 -1.9368  0.6652
31713SOL     OW98669   1.630   5.889   5.497  0.1905  0.8471  0.3533
31713SOL    HW198670   1.584   5.812   5.463  2.1992 -0.4050  0.3199
31713SOL    HW298671   1.571   5.923   5.565 -1.2762  0.0003 -0.4434
31714SOL     OW98672   6.259   3.076   5.180  0.6093 -0.0533  0.2320
31714SOL    HW198673   6.224   3.125   5.255  0.9503  0.2200  0.2158
31714SOL    HW298674   6.343   3.042   5.210  0.3344 -0.7078  0.2695
31715SOL     OW98675   8.796   2.158  10.643 -0.1404  0.2529  0.0967
31715SOL    HW198676   8.766   2.085  10.589  0.3929  0.4729 -0.5061
31715SOL    HW298677   8.793   2.125  10.733  1.0517 -0.8478 -0.2409
31716SOL     OW98678   7.164   7.600   3.426 -0.4626 -0.0853 -0.3466
31716SOL    HW198679   7.071   7.603   3.450 -0.6546  0.3741 -1.1122
31716SOL    HW298680   7.166   7.633   3.336  0.3156 -1.1380 -0.7277
31717SOL     OW98681   5.397   9.205  10.854  0.3204 -0.1709  0.1712
31717SOL    HW198682   5.454   9.258  10.798  1.6505 -1.9332 -0.2402
31717SOL    HW298683   5.362   9.266  10.918  1.2060  1.3199 -0.7132
31718SOL     OW98684   1.510   7.730   0.457  0.4616 -0.1813  0.2347
31718SOL    HW198685   1.594   7.725   0.411 -0.5321 -1.2104 -1.5756
31718SOL    HW298686   1.476   7.641   0.455 -0.9300  0.3162  0.4542
31719SOL     OW98687   6.370   0.415   0.331  0.7297  0.2154 -0.8306
31719SOL    HW198688   6.411   0.336   0.366 -1.0831  0.0864  1.1876
31719SOL    HW298689   6.423   0.487   0.365 -0.5176  0.0487  1.6055
31720SOL     OW98690   2.732   9.532   8.810  0.6551  0.9385 -0.6249
31720SOL    HW198691   2.775   9.535   8.724 -0.5511  0.5505 -1.2665
31720SOL    HW298692   2.672   9.458   8.804 -1.3467  2.4602 -0.3668
31721SOL     OW98693   7.399   6.266   6.524  1.0328 -0.1941  0.0709
31721SOL    HW198694   7.309   6.235   6.517  1.1655 -0.8153  0.8432
31721SOL    HW298695   7.392   6.361   6.530  0.2552 -0.3221  2.0893
31722SOL     OW98696   6.855   3.848   8.663 -0.3419 -0.1647 -0.0846
31722SOL    HW198697   6.859   3.908   8.589 -2.8250  2.8742  1.9535
31722SOL    HW298698   6.927   3.874   8.719 -0.7295  0.1502  0.2744
31723SOL     OW98699  10.511   0.531   1.354  0.0468  0.2332 -0.0086
31723SOL    HW198700  10.503   0.439   1.329 -0.9670  0.0449  0.9342
31723SOL    HW298701  10.605   0.544   1.367  0.2271 -0.5908 -0.4144
31724SOL     OW98702  11.110   0.578   9.815  0.3344  0.3656 -0.6189
31724SOL    HW198703  11.069   0.543   9.735  0.9790  1.2823 -1.3694
31724SOL    HW298704  11.192   0.617   9.785  1.5330 -0.9252  0.7625
31725SOL     OW98705   8.275   9.420   5.480  0.0465  0.0021 -0.5380
31725SOL    HW198706   8.327   9.494   5.448 -0.4368  0.2572 -0.7418
31725SOL    HW298707   8.221   9.395   5.406  0.0646 -0.4304 -0.4064
31726SOL     OW98708   3.682   7.862   2.127  0.2013  0.1308  0.9369
31726SOL    HW198709   3.598   7.900   2.101  1.2325  1.4475 -0.7640
31726SOL    HW298710   3.741   7.937   2.132  1.9689 -1.0186 -0.9875
31727SOL     OW98711   0.262   3.207   9.137 -0.0459  0.3797  0.0128
31727SOL    HW198712   0.270   3.291   9.183  1.9086  0.5094 -0.4334
31727SOL    HW298713   0.271   3.230   9.045  0.6220 -0.3089 -0.1072
31728SOL     OW98714   5.873   0.293   0.206 -0.3468 -0.2468 -0.8784
31728SOL    HW198715   5.869   0.363   0.141 -0.7428  0.1212 -0.4582
31728SOL    HW298716   5.785   0.256   0.207 -0.7326  0.6461  0.4309
31729SOL     OW98717  10.674   9.370  11.076 -0.5786 -0.6641  0.2811
31729SOL    HW198718  10.756   9.377  11.124  0.3165 -1.0446 -1.1463
31729SOL    HW298719  10.700   9.365  10.984 -2.1286 -1.8184 -0.1376
31730SOL     OW98720   0.754   2.190   4.782 -0.2252  0.1405  0.1018
31730SOL    HW198721   0.681   2.240   4.748 -1.0290 -1.4823 -0.6976
31730SOL    HW298722   0.714   2.126   4.841  0.9356  1.5206  2.5651
31731SOL     OW98723   9.560   0.880   5.455 -0.4314 -0.4286 -0.1793
31731SOL    HW198724   9.474   0.863   5.492 -1.3062  1.9004 -0.9803
31731SOL    HW298725   9.546   0.885   5.360  0.5648 -0.0493 -0.3275
31732SOL     OW98726   5.338   7.824   5.356  0.0834 -0.2741  0.1443
31732SOL    HW198727   5.268   7.888   5.361 -0.1908 -0.5460 -0.1452
31732SOL    HW298728   5.414   7.873   5.325 -0.3821 -0.2797 -1.0380
31733SOL     OW98729   6.684   5.698   2.937  0.0154 -0.5563  0.7702
31733SOL    HW198730   6.735   5.619   2.918 -0.3721 -0.5324 -0.4904
31733SOL    HW298731   6.603   5.665   2.976 -0.7252 -0.9401 -0.9572
31734SOL     OW98732   8.485   4.998   1.678  0.8061 -0.6197  0.4821
31734SOL    HW198733   8.577   5.016   1.695  0.6135  0.2034  0.7058
31734SOL    HW298734   8.485   4.929   1.612  1.5988  0.5154 -0.7472
31735SOL     OW98735  10.546   4.402   6.606  0.3418 -0.7756 -0.3981
31735SOL    HW198736  10.513   4.458   6.676  0.0327 -0.6706 -0.6261
31735SOL    HW298737  10.599   4.337   6.651  0.8513 -0.1938 -0.1497
31736SOL     OW98738   3.115   5.522   8.651 -0.2020  0.6938 -0.4547
31736SOL    HW198739   3.102   5.446   8.594 -0.2703 -0.0477  0.5219
31736SOL    HW298740   3.048   5.513   8.718  0.2758  1.2122  0.1017
31737SOL     OW98741   4.790   7.280   2.388 -0.8873 -0.2109  0.4542
31737SOL    HW198742   4.799   7.197   2.436  0.1959 -0.6336 -0.4354
31737SOL    HW298743   4.826   7.346   2.447  2.1675 -0.9636 -0.3907
31738SOL     OW98744   8.570   2.198  10.102  0.2421 -0.3355  0.2609
31738SOL    HW198745   8.611   2.178  10.186 -0.3176  0.3835  0.7171
31738SOL    HW298746   8.480   2.221  10.124  0.3141  0.6823 -0.4429
31739SOL     OW98747   1.924   0.707   0.887  0.1702  0.1038 -0.3140
31739SOL    HW198748   1.881   0.629   0.923  0.6734 -0.1410 -0.2330
31739SOL    HW298749   1.947   0.682   0.798 -0.0606  0.3146 -0.4325
31740SOL     OW98750   1.714   0.570   5.707 -0.0474 -0.3367 -0.1317
31740SOL    HW198751   1.793   0.601   5.752  0.3063 -1.7418  0.2437
31740SOL    HW298752   1.644   0.580   5.771  0.0905 -0.4602  0.0379
31741SOL     OW98753   1.328   6.720   7.697 -0.0097 -0.2815  0.1703
31741SOL    HW198754   1.270   6.730   7.773 -1.5129 -1.6504 -0.7417
31741SOL    HW298755   1.412   6.756   7.727 -0.7915  0.0321  2.1744
31742SOL     OW98756   8.333   1.803   3.171  0.0779  0.0848 -0.6927
31742SOL    HW198757   8.295   1.786   3.085 -1.4467  1.1092 -0.2880
31742SOL    HW298758   8.344   1.898   3.174 -0.9378  0.2060  0.5970
31743SOL     OW98759   4.421   9.682   7.140  0.4142  0.4394 -0.4317
31743SOL    HW198760   4.387   9.761   7.097  1.4584  0.8689 -0.4973
31743SOL    HW298761   4.486   9.715   7.203 -0.0533 -0.2830  0.4599
31744SOL     OW98762   7.899   8.397   0.170 -0.6611  0.5912  0.1464
31744SOL    HW198763   7.959   8.403   0.244  0.4651  0.6867 -0.7528
31744SOL    HW298764   7.812   8.412   0.208 -0.0091  1.5970  1.2869
31745SOL     OW98765   9.439   2.018   2.210  0.4344 -0.1907 -0.3084
31745SOL    HW198766   9.450   2.080   2.138  2.5743 -0.4403 -0.2501
31745SOL    HW298767   9.509   2.039   2.271  0.0244 -1.4309  0.6374
31746SOL     OW98768   2.480   6.730   2.486 -0.4484  0.2462 -0.1883
31746SOL    HW198769   2.454   6.801   2.545 -0.9178 -0.2953  0.2586
31746SOL    HW298770   2.398   6.696   2.451 -0.3144 -0.9453  0.6144
31747SOL     OW98771  10.901   2.437   8.352  0.6466  0.4163 -0.0921
31747SOL    HW198772  10.925   2.344   8.348  0.0569  0.2107  0.8798
31747SOL    HW298773  10.806   2.437   8.347  0.7092  1.1614 -2.8804
31748SOL     OW98774   8.696   8.798   8.399  0.1543  0.1026 -0.4211
31748SOL    HW198775   8.769   8.849   8.432 -0.1981  1.0000 -0.9691
31748SOL    HW298776   8.718   8.707   8.419  0.7785  0.4682  0.6131
31749SOL     OW98777   1.254  10.335  10.440  0.6893  0.2344  0.1700
31749SOL    HW198778   1.182  10.390  10.471  1.4152  1.2661  0.0658
31749SOL    HW298779   1.278  10.283  10.517  0.2052  0.2812  0.3600
31750SOL     OW98780   8.494   2.118   8.593 -0.0007 -0.1883 -0.4060
31750SOL    HW198781   8.505   2.173   8.515 -0.6066  2.4291  1.2297
31750SOL    HW298782   8.413   2.071   8.577 -1.2424  1.8633 -0.5979
31751SOL     OW98783   7.581   9.441   7.374  0.1244 -0.3150  0.3584
31751SOL    HW198784   7.615   9.351   7.375  0.7855 -0.1464 -1.6368
31751SOL    HW298785   7.567   9.460   7.281 -1.5343  1.1059  0.8450
31752SOL     OW98786   0.339   8.381   2.243  0.2817  0.0073 -0.5318
31752SOL    HW198787   0.382   8.464   2.223 -0.8433  0.7336 -0.0164
31752SOL    HW298788   0.411   8.318   2.252  1.1329  0.8791 -1.1290
31753SOL     OW98789   4.423  10.805   3.203 -0.1014  0.2927 -0.1197
31753SOL    HW198790   4.437  10.760   3.119  1.0516 -0.9841  0.7142
31753SOL    HW298791   4.391  10.738   3.262  0.0349  0.9477  0.7235
31754SOL     OW98792   6.244   5.092  10.819 -0.7577 -0.0816 -0.5097
31754SOL    HW198793   6.171   5.096  10.880  0.1765 -0.4343  0.6802
31754SOL    HW298794   6.318   5.131  10.867  0.7167 -2.8932 -0.2926
31755SOL     OW98795   8.715   9.993   0.655  0.1923 -0.7570 -0.3968
31755SOL    HW198796   8.799  10.032   0.631  0.1545 -1.4518 -1.7618
31755SOL    HW298797   8.684   9.951   0.574 -1.6930 -0.1198 -0.0539
31756SOL     OW98798  10.170  10.188   0.204  0.1773 -0.5283  0.4051
31756SOL    HW198799  10.221  10.110   0.184 -0.0610 -0.4492 -0.5617
31756SOL    HW298800  10.098  10.156   0.259  0.6176 -0.8200  0.8230
31757SOL     OW98801   8.031   7.342   0.891 -0.0154  0.6778  0.3874
31757SOL    HW198802   8.058   7.403   0.822  1.0046  0.2234  0.3750
31757SOL    HW298803   8.045   7.391   0.972  1.3761  0.2839  0.4152
31758SOL     OW98804   9.931   8.558   4.329 -0.5000 -0.4131 -0.1907
31758SOL    HW198805   9.870   8.561   4.403 -1.8509 -1.3114 -1.2212
31758SOL    HW298806   9.919   8.642   4.284  0.3921  0.1742  0.6219
31759SOL     OW98807   8.237  10.371   3.914 -0.4054 -0.4665 -0.4853
31759SOL    HW198808   8.170  10.334   3.971 -0.7997  0.3084 -0.4358
31759SOL    HW298809   8.191  10.436   3.862  0.5832  1.2124  0.6526
31760SOL     OW98810   4.886   7.640   0.352 -0.0858  0.3350  0.1610
31760SOL    HW198811   4.884   7.734   0.336 -0.9935  0.5258  1.3338
31760SOL    HW298812   4.815   7.624   0.413  1.6794 -0.7200  2.0778
31761SOL     OW98813  11.116   6.825   3.388  0.1319 -0.3397  0.3337
31761SOL    HW198814  11.148   6.826   3.478  3.4618  0.5687 -0.7248
31761SOL    HW298815  11.056   6.899   3.382  0.8615  0.3659  1.4971
31762SOL     OW98816   6.962   6.556   3.836 -0.1344 -0.1954 -0.0094
31762SOL    HW198817   6.965   6.462   3.818  1.3145  0.2236 -2.3536
31762SOL    HW298818   7.042   6.572   3.887  0.6706  0.0235 -1.2963
31763SOL     OW98819   8.323   1.664   3.561 -0.6865  0.1482 -0.0809
31763SOL    HW198820   8.287   1.610   3.631  0.2932 -1.1668 -0.5365
31763SOL    HW298821   8.296   1.619   3.480 -0.6623  0.8795 -0.5040
31764SOL     OW98822   4.035  10.065   6.784  0.2910  0.0646 -0.5141
31764SOL    HW198823   4.041  10.128   6.856 -1.3481 -1.0852  0.7052
31764SOL    HW298824   4.126  10.049   6.758  0.9276  0.6105  1.2362
31765SOL     OW98825   6.991   7.002   4.758  0.0246  0.2595  0.0014
31765SOL    HW198826   6.992   7.093   4.788  0.7713  0.1606  0.2819
31765SOL    HW298827   6.969   6.951   4.836 -0.9530  0.2334 -0.2767
31766SOL     OW98828   8.725   1.355   6.315 -0.1739  0.6041 -0.0830
31766SOL    HW198829   8.762   1.324   6.233 -0.3025 -1.0412  0.4359
31766SOL    HW298830   8.748   1.287   6.379  0.4106  2.1089  1.3796
31767SOL     OW98831   8.211   8.244   1.973  0.3841 -0.3410  0.3674
31767SOL    HW198832   8.247   8.181   1.911 -0.8231  1.6407 -2.5301
31767SOL    HW298833   8.123   8.262   1.942  1.0617  3.6484  0.2319
31768SOL     OW98834   4.572  10.610   5.981  0.2602 -0.5962  0.4112
31768SOL    HW198835   4.621  10.572   5.909  0.4393  1.7019 -0.7651
31768SOL    HW298836   4.485  10.627   5.945  0.2016  0.1469  0.8697
31769SOL     OW98837   8.821   4.184  10.373  0.1507  0.0461 -0.0995
31769SOL    HW198838   8.766   4.124  10.424  0.9659 -0.7185 -0.1120
31769SOL    HW298839   8.768   4.264  10.366  0.2482  0.4341  2.5084
31770SOL     OW98840   4.811   0.408   5.747 -0.1245  0.2035  0.0785
31770SOL    HW198841   4.747   0.341   5.725  1.2073 -0.9206 -0.5559
31770SOL    HW298842   4.838   0.444   5.662  0.6315  0.1160  0.2711
31771SOL     OW98843   1.214   7.250  10.700  0.6104 -0.4661 -0.1970
31771SOL    HW198844   1.218   7.167  10.747 -2.2023 -1.0253 -0.7379
31771SOL    HW298845   1.292   7.298  10.727  2.2392 -3.2014  0.2503
31772SOL     OW98846   0.601   1.052  10.767  0.1857  0.0524 -0.2597
31772SOL    HW198847   0.685   1.005  10.773 -0.4488 -0.9639  1.5263
31772SOL    HW298848   0.546   0.995  10.713  0.7557  0.9757 -1.8844
31773SOL     OW98849   0.978   6.933   8.366  0.5874 -0.4680 -0.1223
31773SOL    HW198850   1.074   6.936   8.366  0.5692  0.1161 -0.6268
31773SOL    HW298851   0.951   7.017   8.403  0.2666 -0.8539  0.5481
31774SOL     OW98852   1.138   4.343   7.716 -0.3928 -0.4450  0.0044
31774SOL    HW198853   1.168   4.421   7.763  2.3133 -0.9989 -0.5941
31774SOL    HW298854   1.090   4.293   7.782  0.7453  0.1834  1.3824
31775SOL     OW98855   0.528   2.717   5.783  0.1686  0.1371  0.1330
31775SOL    HW198856   0.577   2.669   5.716 -1.7561 -2.5514  0.4954
31775SOL    HW298857   0.554   2.675   5.866  1.0815  2.1598  0.9446
31776SOL     OW98858   0.035   1.404   9.398  0.1652 -0.2700  0.1905
31776SOL    HW198859   0.037   1.499   9.405 -0.4363 -0.2371  0.0097
31776SOL    HW298860   0.006   1.374   9.485 -1.6496 -0.1642 -0.3230
31777SOL     OW98861   5.798   3.122   8.336 -0.0865 -0.0792  0.0492
31777SOL    HW198862   5.768   3.085   8.419  0.5418  1.6585  1.1014
31777SOL    HW298863   5.718   3.146   8.289 -0.4363 -0.9187  0.1992
31778SOL     OW98864   3.372   6.091   7.604 -0.0902  0.6988  0.6207
31778SOL    HW198865   3.318   6.168   7.582 -0.7451  0.2047  0.4533
31778SOL    HW298866   3.316   6.040   7.663 -0.7141 -0.9095 -1.2500
31779SOL     OW98867   5.236   0.292   1.025 -0.0568  0.3396  0.4479
31779SOL    HW198868   5.140   0.299   1.024 -0.0365  0.5793 -0.2304
31779SOL    HW298869   5.260   0.305   1.117 -0.5911  1.5183  0.4342
31780SOL     OW98870   7.478   0.408   6.459  0.6290  0.6176  0.1145
31780SOL    HW198871   7.517   0.362   6.534  0.2244 -0.2104 -0.1712
31780SOL    HW298872   7.407   0.459   6.497  0.3546  0.1127  0.2826
31781SOL     OW98873   3.078   7.831   4.717  0.4049 -0.1534  0.2092
31781SOL    HW198874   3.162   7.877   4.711  1.5008 -2.1427 -0.3029
31781SOL    HW298875   3.076   7.796   4.806  0.0999 -0.1124  0.2197
31782SOL     OW98876   0.774   6.589   6.693 -0.6532 -0.1389  0.2669
31782SOL    HW198877   0.856   6.600   6.647 -0.7541 -0.0784  0.1003
31782SOL    HW298878   0.760   6.494   6.695 -0.1233 -0.2091  1.1044
31783SOL     OW98879   4.695   5.238   1.674 -0.2387  0.0062  0.2965
31783SOL    HW198880   4.618   5.266   1.624  0.1624 -1.0594 -0.9482
31783SOL    HW298881   4.673   5.260   1.765 -2.5798 -1.4692  0.1604
31784SOL     OW98882   5.928   1.251   6.701 -0.4235 -0.5635  0.1487
31784SOL    HW198883   5.911   1.172   6.753 -0.9869 -1.3679 -1.1899
31784SOL    HW298884   5.983   1.305   6.757 -0.2027 -1.8116  1.1996
31785SOL     OW98885   2.175   8.615  10.540 -0.5197 -0.2186  0.9050
31785SOL    HW198886   2.154   8.561  10.616 -0.9440 -0.7519  0.4148
31785SOL    HW298887   2.265   8.644  10.555 -0.3425 -0.9235  1.2566
31786SOL     OW98888   5.074   2.737   6.017  0.1464 -0.2818  0.0636
31786SOL    HW198889   5.059   2.734   5.923  3.3460 -1.1322 -0.5373
31786SOL    HW298890   5.097   2.828   6.035 -0.3780 -0.1385  0.0204
31787SOL     OW98891   2.298   2.747   1.246 -0.3099  0.1251  0.5963
31787SOL    HW198892   2.333   2.817   1.301 -3.0408  0.8383  1.5836
31787SOL    HW298893   2.242   2.792   1.183 -0.5689 -1.0191 -0.0171
31788SOL     OW98894   3.367   8.930   9.261 -0.2097 -0.3118  0.2668
31788SOL    HW198895   3.377   8.928   9.165  1.2685 -3.1451  0.3784
31788SOL    HW298896   3.454   8.954   9.293 -0.4387 -0.3487  0.9314
31789SOL     OW98897   6.408   5.362   2.430  0.1521  0.2285 -0.2421
31789SOL    HW198898   6.332   5.378   2.487 -0.1732 -0.9631 -0.3095
31789SOL    HW298899   6.447   5.449   2.418  0.4037  0.5018  2.0226
31790SOL     OW98900   4.734   1.432   3.509 -0.5481  0.3721 -0.0605
31790SOL    HW198901   4.659   1.429   3.568 -0.7857  0.9601 -0.3184
31790SOL    HW298902   4.795   1.367   3.543 -0.1755  1.4825  1.5160
31791SOL     OW98903   2.308   2.845   2.583  0.4142  0.2479 -0.4956
31791SOL    HW198904   2.325   2.759   2.622 -2.5522 -0.6113 -0.8584
31791SOL    HW298905   2.297   2.827   2.490 -0.5295  0.9684 -0.5330
31792SOL     OW98906   6.426   4.938   1.959  0.2997  0.3456  0.0689
31792SOL    HW198907   6.491   4.923   2.027  1.0119 -0.5348 -0.7688
31792SOL    HW298908   6.455   5.019   1.916  1.6545 -0.7158 -1.1379
31793SOL     OW98909   4.756   8.796   5.001 -0.3163  0.3713  0.4940
31793SOL    HW198910   4.796   8.712   4.979  0.4982  0.8844 -0.0181
31793SOL    HW298911   4.714   8.781   5.085 -1.3322 -0.9261 -0.2111
31794SOL     OW98912   1.777   0.858   1.642  0.4384 -0.6525 -0.1320
31794SOL    HW198913   1.754   0.923   1.708  0.4387 -0.4900 -0.2920
31794SOL    HW298914   1.706   0.863   1.578  0.5276 -0.6869 -0.2339
31795SOL     OW98915   2.489   7.069   8.838 -0.1730 -0.2405 -0.0770
31795SOL    HW198916   2.556   7.001   8.846 -0.6721 -0.7820 -0.4230
31795SOL    HW298917   2.486   7.111   8.924  1.5133  0.6520 -0.4156
31796SOL     OW98918   8.583   0.284   6.268  0.3948 -0.1961 -0.7213
31796SOL    HW198919   8.515   0.319   6.327  0.7901 -1.0119  0.2490
31796SOL    HW298920   8.657   0.267   6.325  0.6010 -1.5424 -1.3680
31797SOL     OW98921   6.163   1.845   8.131 -0.3442 -0.1125  0.0134
31797SOL    HW198922   6.077   1.827   8.092 -0.5407 -1.1837  0.8677
31797SOL    HW298923   6.226   1.816   8.065 -0.5859  1.7318 -1.0930
31798SOL     OW98924   9.924   9.560   5.754  0.1094  0.1196  0.5665
31798SOL    HW198925  10.005   9.554   5.704 -0.2745  0.7428 -0.1481
31798SOL    HW298926   9.855   9.564   5.687 -0.5887 -1.2436  1.1504
31799SOL     OW98927   1.852  10.913   0.248  0.2534 -0.4282  0.5709
31799SOL    HW198928   1.844  10.858   0.326  0.3598 -0.5024  0.5288
31799SOL    HW298929   1.946  10.922   0.235  0.2788 -2.5115 -1.0409
31800SOL     OW98930   2.761   1.067   4.499  0.2136  0.1393  0.1204
31800SOL    HW198931   2.857   1.067   4.498  0.2068  0.3161 -0.5515
31800SOL    HW298932   2.736   1.143   4.446 -0.2982  0.2639  0.5304
31801SOL     OW98933   4.061   5.069   6.642  0.6294 -0.1852 -0.3263
31801SOL    HW198934   4.050   5.081   6.548  0.6712 -1.2167 -0.4710
31801SOL    HW298935   4.033   5.152   6.680 -0.7973 -0.2684 -1.1445
31802SOL     OW98936   6.182   9.932   8.519  0.2092  0.3698  0.4582
31802SOL    HW198937   6.240   9.919   8.444 -0.6082  1.7838 -0.4516
31802SOL    HW298938   6.207  10.017   8.555 -1.9672  1.5739 -0.6560
31803SOL     OW98939   6.612   1.490   6.104  0.0012 -0.1721 -0.4388
31803SOL    HW198940   6.697   1.532   6.115 -0.9415  1.9775 -0.8559
31803SOL    HW298941   6.571   1.496   6.190 -0.8802  1.5852 -0.9386
31804SOL     OW98942   1.592   0.865   6.051 -0.2916  0.3132 -0.5483
31804SOL    HW198943   1.614   0.910   5.969 -1.1233 -0.2600 -1.1050
31804SOL    HW298944   1.643   0.910   6.118 -1.5100  2.4642 -0.9857
31805SOL     OW98945  10.763   0.248   0.671  0.1782  0.1246  0.3730
31805SOL    HW198946  10.822   0.193   0.722  0.8750 -1.0361 -1.5924
31805SOL    HW298947  10.820   0.302   0.617 -0.3755 -2.0753 -2.6846
31806SOL     OW98948  10.771   7.751   0.290 -0.6796 -0.2761 -0.6856
31806SOL    HW198949  10.702   7.746   0.356 -0.1382 -0.8594 -0.1511
31806SOL    HW298950  10.852   7.762   0.340 -0.2100 -1.1442 -1.2206
31807SOL     OW98951   3.872  10.105   1.503 -0.2324  0.6540  0.4484
31807SOL    HW198952   3.805  10.056   1.550  0.4658 -0.8547 -0.0433
31807SOL    HW298953   3.824  10.169   1.451 -1.0627  2.0176  2.7195
31808SOL     OW98954   4.710   2.104   0.573 -0.7350 -0.2461 -0.3279
31808SOL    HW198955   4.767   2.180   0.565 -0.9303 -0.0267  0.3433
31808SOL    HW298956   4.754   2.036   0.523 -0.0150 -0.0025 -0.0342
31809SOL     OW98957   5.026   8.731  10.503 -0.0763  0.3670 -0.1694
31809SOL    HW198958   5.052   8.650  10.547  0.2852  0.7307  0.3054
31809SOL    HW298959   4.932   8.738  10.519  0.1268  0.7467  1.0075
31810SOL     OW98960   1.199  10.106   3.375 -0.3557 -0.0948 -0.4054
31810SOL    HW198961   1.163  10.074   3.292 -0.2220 -0.3062 -0.3832
31810SOL    HW298962   1.200  10.029   3.432  0.6423 -0.2285 -0.5791
31811SOL     OW98963   3.770   8.963   3.281 -0.1017  0.0149  0.1508
31811SOL    HW198964   3.707   8.891   3.282 -0.0387 -0.1128 -1.6521
31811SOL    HW298965   3.855   8.921   3.267 -0.0898  0.4207 -1.1458
31812SOL     OW98966   3.140   1.705   8.034 -0.5557 -0.2277  0.3985
31812SOL    HW198967   3.182   1.739   8.113 -0.2893 -0.1803  0.2382
31812SOL    HW298968   3.211   1.701   7.970 -0.4509 -1.6506  0.5790
31813SOL     OW98969   6.485  11.013   1.931  0.4901  0.3445  0.2364
31813SOL    HW198970   6.536  11.093   1.944  1.1602  0.1862 -1.2358
31813SOL    HW298971   6.542  10.957   1.878  0.5144 -1.5974  2.1501
31814SOL     OW98972   6.629   8.097   7.471  0.0783 -0.2653  0.1875
31814SOL    HW198973   6.639   8.054   7.386  0.1086 -2.0604  1.0423
31814SOL    HW298974   6.717   8.126   7.494 -0.0333  0.7975 -0.6455
31815SOL     OW98975  11.005  10.705   6.672  0.3253  0.2697 -0.6213
31815SOL    HW198976  10.918  10.744   6.667  1.0660  2.0702 -0.2893
31815SOL    HW298977  11.011  10.671   6.762  0.4741  1.5178 -0.1293
31816SOL     OW98978   9.557  10.838   2.280 -0.0066  0.4483 -0.1357
31816SOL    HW198979   9.625  10.771   2.286  0.6469  1.1278  0.1638
31816SOL    HW298980   9.530  10.854   2.371  0.9057  1.6465 -0.0460
31817SOL     OW98981   5.704   2.026   7.135 -0.0657 -0.3530  0.6324
31817SOL    HW198982   5.619   2.023   7.180  0.7864  0.3412  2.3687
31817SOL    HW298983   5.754   2.091   7.183  1.3927 -0.5906 -0.5149
31818SOL     OW98984   3.668   6.916  10.409  0.7486  0.0954 -1.2598
31818SOL    HW198985   3.753   6.958  10.411  0.1383  1.4452 -2.1612
31818SOL    HW298986   3.685   6.826  10.436  2.1764  0.7628  0.2450
31819SOL     OW98987   9.734   5.956   3.510 -0.1620  0.2233  0.0121
31819SOL    HW198988   9.818   5.972   3.466 -0.9209  1.6026 -1.0430
31819SOL    HW298989   9.676   5.928   3.439 -0.8869  0.4416  0.5149
31820SOL     OW98990   3.440   1.023   9.920  0.3655  0.0520 -0.1308
31820SOL    HW198991   3.374   0.976   9.971  0.2140 -1.9131 -2.0002
31820SOL    HW298992   3.467   0.961   9.853  1.1721  2.2263 -1.9390
31821SOL     OW98993   7.322   5.866   1.947 -0.1305  0.6204  0.7311
31821SOL    HW198994   7.321   5.776   1.914  2.1745  0.6565  0.4040
31821SOL    HW298995   7.398   5.869   2.006 -0.7674  2.1005  1.5282
31822SOL     OW98996   0.237   9.883   2.083 -0.0230 -0.1960 -0.0953
31822SOL    HW198997   0.309   9.926   2.128 -0.5521  0.1847  0.4072
31822SOL    HW298998   0.247   9.790   2.104  0.9714 -0.3009 -0.9686
31823SOL     OW98999   6.013   6.881  10.047  0.7154 -0.4562 -0.0154
31823SOL    HW199000   6.108   6.868  10.046  0.7763 -0.6499 -3.4481
31823SOL    HW299001   5.977   6.792  10.048  0.6754 -0.4735 -1.2098
31824SOL     OW99002   9.691  10.592   1.418  0.7050  0.2933  0.8157
31824SOL    HW199003   9.607  10.612   1.459 -0.4248 -1.9423 -0.1975
31824SOL    HW299004   9.678  10.614   1.326  0.5242 -1.7383  0.3015
31825SOL     OW99005   8.709   6.180   7.364 -0.4700 -0.5720 -0.0075
31825SOL    HW199006   8.626   6.132   7.371 -0.1466 -1.1085  0.1119
31825SOL    HW299007   8.777   6.115   7.381 -0.0683  0.2043  1.6077
31826SOL     OW99008   3.296   1.091   0.685  0.2347  0.0463 -0.0110
31826SOL    HW199009   3.313   0.998   0.697 -2.4952 -0.4097  1.1193
31826SOL    HW299010   3.314   1.108   0.593 -1.4557 -2.1922 -0.8429
31827SOL     OW99011  11.128   1.401   5.751 -0.1596  0.2844  0.0822
31827SOL    HW199012  11.127   1.313   5.715 -1.8288 -0.0028  0.7479
31827SOL    HW299013  11.110   1.390   5.844 -1.0459  1.3475  0.0684
31828SOL     OW99014   7.802   4.070   6.709  0.2430  0.0344  0.4123
31828SOL    HW199015   7.778   4.065   6.617 -1.3621 -2.3086  0.8557
31828SOL    HW299016   7.746   4.139   6.745 -0.1886 -0.0529 -0.0809
31829SOL     OW99017   5.612   8.165   3.261 -0.0754  0.2431 -0.1356
31829SOL    HW199018   5.567   8.201   3.337  0.3368  0.6854 -0.0936
31829SOL    HW299019   5.595   8.228   3.190  0.1792  0.2317 -0.2083
31830SOL     OW99020   6.951   7.995   3.688 -0.0423  0.1957  0.3197
31830SOL    HW199021   6.875   8.021   3.739  0.3081  2.1202 -0.0262
31830SOL    HW299022   6.915   7.962   3.606 -0.5355  1.0101  0.1929
31831SOL     OW99023   0.714   5.128  10.190  0.5990 -0.0556 -0.0169
31831SOL    HW199024   0.680   5.041  10.169 -0.3342  0.6396 -1.5423
31831SOL    HW299025   0.636   5.184  10.194  1.0752  0.5470  1.9757
31832SOL     OW99026   6.180   8.106   0.705 -0.6442  0.0042 -0.3553
31832SOL    HW199027   6.212   8.068   0.623 -0.4564  0.8084 -0.6688
31832SOL    HW299028   6.143   8.191   0.679 -0.0602  0.5297  0.4685
31833SOL     OW99029   9.392  10.282   7.607 -0.0953 -0.1368 -0.4448
31833SOL    HW199030   9.465  10.221   7.595 -0.4700 -0.7457  0.2960
31833SOL    HW299031   9.318  10.227   7.630  0.0988  0.7170  2.6489
31834SOL     OW99032   4.268   4.575  10.883  0.2392  0.5976 -0.3142
31834SOL    HW199033   4.260   4.529  10.800  0.0752  1.3548 -0.7275
31834SOL    HW299034   4.199   4.642  10.880 -1.0404 -0.5563  1.2370
31835SOL     OW99035   2.268   7.073   7.251 -0.4092 -0.0654 -0.2483
31835SOL    HW199036   2.182   7.102   7.281  0.0261  1.4504 -0.3842
31835SOL    HW299037   2.327   7.094   7.323 -0.2347 -1.8003  0.1574
31836SOL     OW99038   9.081   3.197  10.302  0.1887 -1.0604  0.2009
31836SOL    HW199039   9.044   3.264  10.359  0.3720  0.1554 -1.0715
31836SOL    HW299040   9.027   3.119  10.320 -0.6339 -0.3332  1.0158
31837SOL     OW99041   2.602   7.450   8.911 -0.6825  0.8997 -0.2282
31837SOL    HW199042   2.589   7.382   8.977  2.6623 -0.8698 -1.1467
31837SOL    HW299043   2.611   7.531   8.961 -1.6462  0.1829  1.1766
31838SOL     OW99044   6.765   0.624   0.584 -0.0671 -0.4710 -0.5177
31838SOL    HW199045   6.715   0.706   0.582  2.3093  1.2323  2.2380
31838SOL    HW299046   6.738   0.582   0.666  1.2711 -0.6584 -0.1580
31839SOL     OW99047   4.550   9.142   0.417  0.0071 -0.3473  0.4408
31839SOL    HW199048   4.564   9.229   0.380 -0.7380 -0.3051  0.2471
31839SOL    HW299049   4.629   9.125   0.469 -0.2039  0.7779  1.1572
31840SOL     OW99050   0.872   2.971   9.082  0.8825 -0.0995 -0.6013
31840SOL    HW199051   0.789   2.942   9.119  0.5494 -0.6579 -1.7292
31840SOL    HW299052   0.922   2.890   9.071  1.6017  0.2411  0.1187
31841SOL     OW99053   4.315   2.891   4.931 -0.4056  0.2561 -0.4454
31841SOL    HW199054   4.385   2.829   4.912 -0.8222 -0.6096  0.7340
31841SOL    HW299055   4.300   2.936   4.847  1.2390  0.1680 -0.8190
31842SOL     OW99056   5.884   4.734   9.238  0.2969 -0.2457  0.3320
31842SOL    HW199057   5.934   4.814   9.250 -1.1351  0.7313  0.0445
31842SOL    HW299058   5.871   4.727   9.144 -0.3330 -0.3378  0.4202
31843SOL     OW99059   9.833   5.693   6.027  0.5766  0.2356 -0.5726
31843SOL    HW199060   9.809   5.655   5.942 -1.8080 -0.8695  0.4982
31843SOL    HW299061   9.845   5.786   6.009 -1.1653  0.2583 -1.9284
31844SOL     OW99062  10.865   0.954   8.739 -0.2405 -0.7431 -0.0985
31844SOL    HW199063  10.786   1.004   8.722 -0.8515 -1.1158  1.5144
31844SOL    HW299064  10.872   0.895   8.663 -0.2075  0.8368 -1.3770
31845SOL     OW99065   6.181  10.708   0.280 -0.4372  0.1870  0.2640
31845SOL    HW199066   6.153  10.626   0.240  1.0722 -0.5267  0.6070
31845SOL    HW299067   6.251  10.740   0.223  1.5711 -0.7193  2.0995
31846SOL     OW99068  10.947   4.737  10.536  0.5235 -0.3401  0.2152
31846SOL    HW199069  10.891   4.802  10.495  0.6237 -0.6198 -0.3841
31846SOL    HW299070  10.939   4.753  10.630 -0.3540 -0.2134  0.1215
31847SOL     OW99071   8.844   2.674   2.542  0.0009  0.3196  0.4256
31847SOL    HW199072   8.862   2.759   2.501  1.1083 -0.2509 -0.3439
31847SOL    HW299073   8.793   2.627   2.477 -1.2716  0.6421  1.1601
31848SOL     OW99074   5.222   6.199   3.720 -0.2200  0.0484  0.3264
31848SOL    HW199075   5.312   6.170   3.706 -0.3160 -0.0737 -0.0757
31848SOL    HW299076   5.203   6.256   3.645 -0.1989  0.7606  0.8565
31849SOL     OW99077   4.260   3.222   4.216 -0.0635 -0.5246  0.3974
31849SOL    HW199078   4.285   3.305   4.256 -1.8557  0.7037 -0.8905
31849SOL    HW299079   4.319   3.213   4.141 -1.5821  1.0489 -1.0917
31850SOL     OW99080   6.560   3.913   8.426  0.2491  0.5464  0.4208
31850SOL    HW199081   6.604   3.994   8.448 -0.1772  0.5044  1.4841
31850SOL    HW299082   6.540   3.872   8.510 -1.6250  0.4752 -0.0072
31851SOL     OW99083  10.130   7.576  11.030  0.4206  0.4433  0.2502
31851SOL    HW199084  10.167   7.662  11.010  1.4764 -0.1446 -0.3898
31851SOL    HW299085  10.087   7.548  10.949  1.0262 -0.0995  0.1121
31852SOL     OW99086  10.616   7.046   0.419  0.0361  0.0301 -0.2751
31852SOL    HW199087  10.547   7.003   0.470 -0.0157  0.0187 -0.3532
31852SOL    HW299088  10.647   6.979   0.358 -1.2551  0.5787 -1.6074
31853SOL     OW99089   5.734  10.579   2.744  0.4739 -0.0070 -0.9233
31853SOL    HW199090   5.653  10.564   2.793  0.1762 -0.1612 -1.4529
31853SOL    HW299091   5.803  10.569   2.809  0.4901 -5.1325 -1.3030
31854SOL     OW99092   9.309   5.824   3.936 -0.0339 -0.5118 -0.3365
31854SOL    HW199093   9.398   5.857   3.950 -0.2621  1.4201 -2.6880
31854SOL    HW299094   9.321   5.751   3.875 -0.0050 -0.6108 -0.2117
31855SOL     OW99095  11.112   2.337   1.340 -0.3066  0.9171  1.1006
31855SOL    HW199096  11.083   2.366   1.427  0.7916  2.5407  0.9824
31855SOL    HW299097  11.205   2.361   1.337  0.3440 -1.4180  0.3894
31856SOL     OW99098   7.603   9.726   2.746  0.6110 -0.3409 -0.2861
31856SOL    HW199099   7.652   9.651   2.777  0.4640 -0.3927 -0.1767
31856SOL    HW299100   7.663   9.773   2.688  0.4644 -0.9525 -0.9534
31857SOL     OW99101   0.293   4.205   3.351 -0.2403 -0.0311 -0.1990
31857SOL    HW199102   0.214   4.152   3.362 -0.8070  0.8151 -0.0797
31857SOL    HW299103   0.282   4.247   3.266 -1.3066  2.2831  0.9834
31858SOL     OW99104   1.404   4.179   3.218  0.3538 -0.5443  0.2291
31858SOL    HW199105   1.463   4.103   3.223 -0.5101 -1.2472 -0.1350
31858SOL    HW299106   1.323   4.149   3.258 -0.2047  0.0006 -0.4815
31859SOL     OW99107   1.204   2.840   2.382 -0.4252 -0.1041 -0.0625
31859SOL    HW199108   1.229   2.813   2.470 -1.5860 -1.5094 -0.1373
31859SOL    HW299109   1.168   2.761   2.341  0.1294  0.5027 -1.8234
31860SOL     OW99110   6.162   0.135   7.905 -0.5646  0.3348  0.1066
31860SOL    HW199111   6.211   0.092   7.835  0.4297 -1.5306  1.8548
31860SOL    HW299112   6.196   0.097   7.986 -3.3775  0.5875  1.5409
31861SOL     OW99113   4.987   0.494   8.202 -0.3964  0.4306  0.2048
31861SOL    HW199114   4.937   0.476   8.282  0.4085  1.0530  0.8689
31861SOL    HW299115   4.943   0.443   8.134  0.1263 -1.8194  1.4320
31862SOL     OW99116   2.538   7.672   8.690 -0.3856  0.3400  0.1843
31862SOL    HW199117   2.611   7.725   8.658 -0.6940  0.6931  0.0694
31862SOL    HW299118   2.462   7.704   8.642 -0.9729  1.2955  1.6921
31863SOL     OW99119  11.044   2.392   1.602  0.2418 -0.3902  0.0724
31863SOL    HW199120  11.060   2.471   1.654 -2.0844 -0.8000  1.5622
31863SOL    HW299121  11.103   2.327   1.640  1.6596  0.3896 -0.6959
31864SOL     OW99122  10.451   5.286  10.261 -0.2631  0.3004  0.3565
31864SOL    HW199123  10.396   5.211  10.237 -0.8568  1.7783 -3.6032
31864SOL    HW299124  10.510   5.252  10.328 -1.6076 -3.2086 -0.0411
31865SOL     OW99125   9.055  10.988  10.408  0.6819  0.1012 -0.3308
31865SOL    HW199126   9.021  10.942  10.485 -1.3781 -0.0279 -1.2585
31865SOL    HW299127   8.979  11.030  10.369  1.8376  0.9274 -1.8082
31866SOL     OW99128  10.171   4.396   0.171 -0.6303  0.0209 -0.2720
31866SOL    HW199129  10.156   4.462   0.104 -2.2849 -1.3486 -1.3410
31866SOL    HW299130  10.108   4.417   0.240 -0.0644  0.4576  0.1244
31867SOL     OW99131   1.056   9.009   4.317 -0.5964  0.3794  0.7292
31867SOL    HW199132   1.138   9.012   4.367  0.0700 -1.0516 -0.1865
31867SOL    HW299133   0.996   8.959   4.372 -0.7422  1.1176  1.2458
31868SOL     OW99134  10.620   1.584   4.259 -0.2777  0.0572 -0.1032
31868SOL    HW199135  10.684   1.537   4.313 -1.2260 -0.4073  0.6474
31868SOL    HW299136  10.645   1.563   4.169  0.8236  0.1667  0.1609
31869SOL     OW99137   1.899   0.243   7.212 -0.5580 -0.4329  0.2026
31869SOL    HW199138   1.885   0.335   7.192 -0.6435 -0.4890  0.0066
31869SOL    HW299139   1.860   0.196   7.139 -0.2624 -0.6188  0.1629
31870SOL     OW99140   6.047   7.800   9.217 -0.4173  0.4294  0.1440
31870SOL    HW199141   6.101   7.725   9.191 -0.3739  0.8378 -0.9912
31870SOL    HW299142   6.088   7.832   9.298  0.8422  0.5253 -0.5044
31871SOL     OW99143   0.551   6.816   6.928  0.7016 -0.5179 -0.1756
31871SOL    HW199144   0.617   6.747   6.939  0.0668 -0.8405  1.9351
31871SOL    HW299145   0.528   6.812   6.835  1.6081 -2.3015 -0.3661
31872SOL     OW99146   6.756   0.964   3.039  0.1824  0.1707 -0.2156
31872SOL    HW199147   6.691   1.000   3.100  0.2701  0.7748 -0.4675
31872SOL    HW299148   6.782   1.039   2.986  1.5937  0.0934  0.3274
31873SOL     OW99149   2.194  11.108   8.768 -0.3155  0.3023 -1.0024
31873SOL    HW199150   2.148  11.184   8.732  0.1396  1.4077  0.6566
31873SOL    HW299151   2.161  11.100   8.858 -0.7193 -1.7951 -1.2816
31874SOL     OW99152   8.443   2.911   5.826 -0.2753 -0.1418 -0.3630
31874SOL    HW199153   8.459   2.821   5.855 -0.5878  0.2714  1.2203
31874SOL    HW299154   8.355   2.931   5.859 -0.1672  0.7767 -0.6010
31875SOL     OW99155   2.431   6.845  10.820  0.9503  0.4605  0.0253
31875SOL    HW199156   2.386   6.924  10.850  0.0080  1.0378 -2.6218
31875SOL    HW299157   2.367   6.775  10.830  1.1616  0.3567  0.6996
31876SOL     OW99158   0.982  10.884   6.932  0.2242  0.5532 -0.2740
31876SOL    HW199159   1.054  10.946   6.925  0.6184  0.5614  2.5075
31876SOL    HW299160   0.909  10.927   6.886  0.9012  2.4106  0.2665
31877SOL     OW99161   3.680   6.130   9.952  0.2142  0.3870  0.3763
31877SOL    HW199162   3.627   6.155  10.028  0.2241  0.1556  0.4617
31877SOL    HW299163   3.664   6.199   9.887 -0.4819  0.1253  0.2659
31878SOL     OW99164   1.481   3.767   3.226 -0.3835 -0.2939 -0.3035
31878SOL    HW199165   1.464   3.853   3.187 -1.3728  0.2625  1.2591
31878SOL    HW299166   1.563   3.739   3.186 -0.2367  1.1956 -1.1440
31879SOL     OW99167   7.389   1.272  10.277  0.2875  0.1375 -0.0575
31879SOL    HW199168   7.435   1.189  10.290 -0.6720 -0.3900  0.0767
31879SOL    HW299169   7.329   1.255  10.204 -2.7499 -0.5867  2.3888
31880SOL     OW99170   0.002   3.372   4.718 -0.1730  0.3902  0.1033
31880SOL    HW199171  -0.011   3.285   4.681  0.6979 -0.1446  1.0096
31880SOL    HW299172   0.097   3.380   4.727 -0.3203  0.7584  1.5794
31881SOL     OW99173   0.180   5.540   1.946 -0.6298  0.1452  0.0244
31881SOL    HW199174   0.150   5.626   1.973  0.5532  0.8911 -0.9250
31881SOL    HW299175   0.186   5.545   1.851 -0.5563 -1.0019 -0.0526
31882SOL     OW99176   5.180   5.967   7.267  0.0048  0.2984  0.1469
31882SOL    HW199177   5.171   5.998   7.357  1.3668 -1.7536  1.0719
31882SOL    HW299178   5.235   6.032   7.224 -0.3990  1.1440  0.8747
31883SOL     OW99179   3.231   1.815   8.280 -0.6522 -0.5479  0.0667
31883SOL    HW199180   3.277   1.836   8.361 -0.1608 -1.8550  0.1559
31883SOL    HW299181   3.254   1.887   8.221  1.9613 -1.3531 -0.0378
31884SOL     OW99182   6.591   4.424   1.082 -0.0482 -0.6147  0.1261
31884SOL    HW199183   6.630   4.509   1.103  1.9341 -1.7590  1.4922
31884SOL    HW299184   6.618   4.408   0.992 -3.2317  1.5466 -1.3873
31885SOL     OW99185   6.721   8.678   9.974  0.5772 -0.3838 -0.7265
31885SOL    HW199186   6.812   8.652   9.963  0.8179  0.0422  0.1409
31885SOL    HW299187   6.703   8.664  10.067  0.0935  0.5391 -0.6631
31886SOL     OW99188   0.107   8.859   5.474  0.4648 -0.0052 -0.3292
31886SOL    HW199189   0.150   8.919   5.535  2.0883 -0.7686 -0.6686
31886SOL    HW299190   0.070   8.916   5.406  0.0133  0.7381  0.5158
31887SOL     OW99191  10.359   1.685  11.064  0.1166  0.1888 -0.4734
31887SOL    HW199192  10.407   1.729  10.993 -0.8824  2.0351 -0.0910
31887SOL    HW299193  10.343   1.755  11.128 -0.6127 -1.0182  0.7071
31888SOL     OW99194   3.268   7.519   6.582  0.1924 -0.0860 -0.5140
31888SOL    HW199195   3.308   7.597   6.542  0.7922 -0.5051 -0.7463
31888SOL    HW299196   3.324   7.447   6.555 -0.7553 -0.7000 -0.8750
31889SOL     OW99197   6.914   6.887   7.865 -0.4171 -0.0818 -0.2650
31889SOL    HW199198   6.893   6.871   7.958  1.0457  3.3016  0.8072
31889SOL    HW299199   6.882   6.976   7.849  1.1987  0.1737 -2.4408
31890SOL     OW99200   4.291   7.301   1.484 -0.5892 -0.3315  0.0821
31890SOL    HW199201   4.340   7.222   1.508  0.0894  0.2762  0.7536
31890SOL    HW299202   4.243   7.276   1.405 -0.5993 -1.4949  0.4415
31891SOL     OW99203   8.406   7.026   8.324  0.2634 -0.3933  0.1353
31891SOL    HW199204   8.469   6.962   8.289  0.2241 -0.0200 -0.6398
31891SOL    HW299205   8.323   7.002   8.285 -0.2602 -1.3510  1.7514
31892SOL     OW99206   0.607  10.863   1.401  0.3752 -0.3415 -0.0809
31892SOL    HW199207   0.628  10.906   1.483 -1.0799  1.7624 -0.7258
31892SOL    HW299208   0.541  10.798   1.424  1.9909 -1.7821  0.7731
31893SOL     OW99209  10.156   8.759   4.292 -0.2475  0.3049  0.6699
31893SOL    HW199210  10.063   8.772   4.272 -0.0578  1.0104  0.1706
31893SOL    HW299211  10.187   8.700   4.223  0.2170  2.0782 -0.7388
31894SOL     OW99212   3.593   9.727   9.689 -0.0134 -0.5212  0.2653
31894SOL    HW199213   3.622   9.740   9.598  1.0937 -1.9644  0.3727
31894SOL    HW299214   3.523   9.663   9.682 -0.0824 -0.4589  0.4067
31895SOL     OW99215   2.759   6.285   6.950  0.0567 -0.7513  0.4917
31895SOL    HW199216   2.823   6.356   6.938 -0.2828 -0.5905 -0.5207
31895SOL    HW299217   2.674   6.329   6.949 -0.2286 -1.2581 -1.3456
31896SOL     OW99218   8.320   0.493   1.080  0.8602 -0.1321 -0.6566
31896SOL    HW199219   8.241   0.471   1.129  1.5656 -0.3316  0.4278
31896SOL    HW299220   8.288   0.544   1.005 -0.1785  0.9491  0.4756
31897SOL     OW99221   1.198   7.663  10.803 -0.0298  0.0177 -0.5038
31897SOL    HW199222   1.261   7.642  10.734 -0.2472 -1.3383 -0.3101
31897SOL    HW299223   1.123   7.606  10.786  0.2132 -0.9106  1.2675
31898SOL     OW99224   4.344   1.712   0.291  0.2824  0.2164 -0.1412
31898SOL    HW199225   4.360   1.692   0.384  0.1674 -1.5320 -0.4632
31898SOL    HW299226   4.392   1.644   0.244 -2.3781 -1.0036 -1.2786
31899SOL     OW99227   8.536   3.290  10.535  0.6366  0.4214  0.2647
31899SOL    HW199228   8.581   3.218  10.493  0.3170 -0.3521  1.2232
31899SOL    HW299229   8.593   3.317  10.607  1.1043  1.6270 -0.5328
31900SOL     OW99230   5.134   7.841   3.168 -0.4242  0.0987 -0.2082
31900SOL    HW199231   5.201   7.892   3.122 -0.6591  0.6746  0.0728
31900SOL    HW299232   5.051   7.883   3.144 -0.7424 -0.9716 -1.0216
31901SOL     OW99233   9.254   4.005   1.056  0.5841  0.4043 -0.3147
31901SOL    HW199234   9.350   4.004   1.058  0.5731 -0.7046  1.2850
31901SOL    HW299235   9.231   4.097   1.069  1.4390  0.4919  0.7451
31902SOL     OW99236   8.069   9.122  11.078 -0.4658 -0.3067 -0.1541
31902SOL    HW199237   8.056   9.118  10.983 -1.2608 -0.0499 -0.0684
31902SOL    HW299238   8.141   9.062  11.095  2.8124  2.8911 -1.4266
31903SOL     OW99239   8.468   5.858   5.326  0.0830  0.4274  0.7920
31903SOL    HW199240   8.552   5.847   5.371  0.3327  2.5940  0.9554
31903SOL    HW299241   8.480   5.935   5.271 -1.3872 -0.0360 -0.2424
31904SOL     OW99242   8.728   6.441   3.551  0.1256  0.8135  0.0828
31904SOL    HW199243   8.684   6.372   3.601  1.5192  0.3413  0.7224
31904SOL    HW299244   8.666   6.513   3.549 -1.6957 -0.6955 -1.2452
31905SOL     OW99245   3.173   2.012   7.491 -0.4274 -0.2065  0.3319
31905SOL    HW199246   3.257   1.987   7.530  0.0074  0.9982  0.2073
31905SOL    HW299247   3.188   2.006   7.396 -0.0210  1.3448  0.2702
31906SOL     OW99248   5.897  10.201   4.780  0.0447  0.0928 -0.3258
31906SOL    HW199249   5.817  10.170   4.823  0.0486  1.0451  0.4381
31906SOL    HW299250   5.870  10.223   4.691 -0.8619  1.5587  0.2745
31907SOL     OW99251   8.829   4.877   6.145 -0.4272  0.0604  0.1752
31907SOL    HW199252   8.885   4.822   6.091 -0.0351 -0.1170  0.7607
31907SOL    HW299253   8.816   4.956   6.093 -0.9796 -0.5618 -0.6612
31908SOL     OW99254   2.182   1.437  10.549  0.1053 -0.1508 -0.5870
31908SOL    HW199255   2.157   1.435  10.641  1.4408 -0.1615 -0.2005
31908SOL    HW299256   2.114   1.489  10.506 -0.4568 -0.0366  0.4172
31909SOL     OW99257   1.457   4.277  10.763 -0.2596 -0.2294 -0.6086
31909SOL    HW199258   1.501   4.255  10.681  0.0252  1.9836 -1.0972
31909SOL    HW299259   1.367   4.299  10.737  0.4604  2.9324 -0.7814
31910SOL     OW99260   1.988   2.526   9.478 -0.0694  0.1307  0.2919
31910SOL    HW199261   1.975   2.517   9.384 -0.1746 -1.2318  0.4110
31910SOL    HW299262   2.068   2.476   9.496  0.5215  1.2170  0.8024
31911SOL     OW99263   7.965  10.107   3.878  0.0152  0.0499  0.0843
31911SOL    HW199264   8.020  10.148   3.945  0.1271  0.2303 -0.1192
31911SOL    HW299265   8.026  10.075   3.812 -0.1774  1.3436 -0.7545
31912SOL     OW99266   1.271   8.315   8.002 -0.3209 -0.7942 -0.0487
31912SOL    HW199267   1.194   8.361   8.035  0.0498 -0.1290 -0.0879
31912SOL    HW299268   1.317   8.285   8.080  0.2348  0.2422  0.0307
31913SOL     OW99269   0.439   5.090   4.500  0.1140 -0.2815 -0.8109
31913SOL    HW199270   0.509   5.113   4.439  0.4280 -2.2021 -1.2377
31913SOL    HW299271   0.369   5.055   4.444  0.3333 -1.8985 -0.1204
31914SOL     OW99272   2.927   0.111   6.031  0.0689  0.0251 -0.6084
31914SOL    HW199273   2.938   0.060   5.951  0.3047 -0.3690 -0.3276
31914SOL    HW299274   2.944   0.049   6.102  0.5501  0.5395 -0.2640
31915SOL     OW99275   9.003   3.847   6.866  0.1751 -0.2842 -0.2904
31915SOL    HW199276   8.996   3.756   6.839 -1.1357 -0.8898  1.8554
31915SOL    HW299277   8.930   3.891   6.822 -2.0763 -1.3048  2.1325
31916SOL     OW99278   2.291   6.548   1.682  0.2321  0.2968  0.3228
31916SOL    HW199279   2.354   6.571   1.613  1.0811  1.0557  1.3081
31916SOL    HW299280   2.340   6.491   1.741 -0.4574 -0.2653  0.3631
31917SOL     OW99281   8.843   2.586   9.913  0.0252  0.4142  0.1286
31917SOL    HW199282   8.818   2.505   9.957 -1.1714  1.1674  0.9148
31917SOL    HW299283   8.913   2.623   9.967 -0.9650  0.9918  1.0444
31918SOL     OW99284   0.795   5.915   7.899 -0.5711  0.2492  0.0132
31918SOL    HW199285   0.770   5.938   7.809  1.5162  1.8414 -0.2334
31918SOL    HW299286   0.810   5.999   7.942  0.1184 -0.5235  1.3526
31919SOL     OW99287   9.334   7.591   9.289 -0.1289  0.1523  0.0889
31919SOL    HW199288   9.361   7.535   9.361  0.9895 -0.0166 -0.4456
31919SOL    HW299289   9.238   7.591   9.293 -0.0854  0.0963  1.5204
31920SOL     OW99290   3.680   3.217   6.952 -0.1235 -0.0950 -0.6500
31920SOL    HW199291   3.753   3.225   7.013 -0.1675 -0.1729 -0.5865
31920SOL    HW299292   3.655   3.125   6.958  1.3641 -0.6778 -2.4769
31921SOL     OW99293   6.773  11.066   4.292 -0.5399 -0.4627 -0.0269
31921SOL    HW199294   6.769  10.985   4.241 -1.1554 -1.3340  1.3640
31921SOL    HW299295   6.784  11.037   4.382  1.1225  1.0709  0.3220
31922SOL     OW99296   3.304   7.978   5.220 -0.0518 -0.1862 -0.0927
31922SOL    HW199297   3.312   8.041   5.148  0.4918 -0.5601 -0.3708
31922SOL    HW299298   3.355   8.017   5.291  1.0607 -0.7437 -0.5747
31923SOL     OW99299   2.840   0.707   7.974  0.6668 -0.2445  0.0653
31923SOL    HW199300   2.748   0.706   7.945  0.0425 -0.7162  1.9256
31923SOL    HW299301   2.855   0.621   8.012  1.5807  0.1489  0.6478
31924SOL     OW99302   5.141   6.103   6.276 -0.1373 -0.3235 -0.2012
31924SOL    HW199303   5.163   6.133   6.365  1.1619 -0.2736 -0.5222
31924SOL    HW299304   5.225   6.091   6.233 -0.6893  2.0624 -2.2418
31925SOL     OW99305   1.976   5.879   1.770 -0.2098  0.1024 -0.1644
31925SOL    HW199306   1.975   5.860   1.677 -2.2969  4.9046 -1.4476
31925SOL    HW299307   1.892   5.848   1.803  0.9293 -2.5189  0.5375
31926SOL     OW99308   4.421   2.172   6.579 -0.1719  0.1943  0.0519
31926SOL    HW199309   4.470   2.103   6.535  2.1929  2.0247 -0.4062
31926SOL    HW299310   4.428   2.247   6.520 -0.0371  1.6754  1.8506
31927SOL     OW99311   6.734   1.309  10.065  0.0319  0.2439  0.5436
31927SOL    HW199312   6.791   1.273   9.997 -0.5405 -0.1886  0.2913
31927SOL    HW299313   6.735   1.243  10.134 -0.6709 -0.0672  0.2645
31928SOL     OW99314   9.053   3.617   1.035 -0.4721 -1.2510  0.0789
31928SOL    HW199315   9.091   3.671   0.966 -1.6256  0.5034  0.7435
31928SOL    HW299316   9.098   3.533   1.028  1.8947 -0.0073 -0.5900
31929SOL     OW99317   6.465  10.109  11.023 -0.7648  0.2455  0.1469
31929SOL    HW199318   6.421  10.177  10.973 -0.1321  0.1408 -0.5728
31929SOL    HW299319   6.515  10.060  10.958 -0.5373 -0.3722  0.7765
31930SOL     OW99320   0.291  10.617   9.202 -0.1954 -0.0926 -0.1966
31930SOL    HW199321   0.262  10.559   9.272 -1.0227 -0.4903 -0.8380
31930SOL    HW299322   0.302  10.559   9.126 -0.2908  0.4619 -0.6478
31931SOL     OW99323   5.094   9.854   9.037  0.8949 -0.5181  0.5953
31931SOL    HW199324   5.016   9.885   8.991  0.2024 -0.0328  2.0450
31931SOL    HW299325   5.167   9.901   8.997  0.3773 -0.5272 -0.3673
31932SOL     OW99326  10.281   1.792   7.099 -0.4720  0.5845 -0.1656
31932SOL    HW199327  10.341   1.719   7.115  0.5552  1.7476  1.6759
31932SOL    HW299328  10.242   1.810   7.185 -2.2350  0.9406 -0.9966
31933SOL     OW99329   9.705   7.335   2.554 -0.1642 -0.0612 -0.6097
31933SOL    HW199330   9.768   7.358   2.621  0.2340 -2.9065  0.1375
31933SOL    HW299331   9.754   7.341   2.472  0.9822 -1.7069 -0.0908
31934SOL     OW99332   0.628   2.632   6.032  0.0811 -0.5221 -0.1622
31934SOL    HW199333   0.689   2.563   6.057  1.3339  1.0913  1.5574
31934SOL    HW299334   0.602   2.672   6.115  1.1259  2.4449 -1.1134
31935SOL     OW99335   4.819   9.063   1.290  0.2471 -0.2562 -0.0445
31935SOL    HW199336   4.874   8.986   1.310  0.5666  0.2594  1.1577
31935SOL    HW299337   4.818   9.067   1.195  0.3670 -1.6542 -0.1372
31936SOL     OW99338  10.581   4.263   7.001 -0.0400 -0.0596  0.0083
31936SOL    HW199339  10.609   4.171   7.003 -0.3519 -0.1698  2.0031
31936SOL    HW299340  10.512   4.265   6.934 -0.2193 -1.3598  0.1158
31937SOL     OW99341   0.006   7.422   1.478  0.1587 -0.4089  0.1323
31937SOL    HW199342  -0.009   7.507   1.437  0.4269 -0.0440  0.7691
31937SOL    HW299343  -0.078   7.377   1.470 -0.3067  0.3251  0.7115
31938SOL     OW99344   5.139   4.150   7.853 -0.2179  0.4774  0.4613
31938SOL    HW199345   5.174   4.154   7.764  0.4496  1.8508  0.7669
31938SOL    HW299346   5.046   4.129   7.841 -0.0204  0.0859 -0.5227
31939SOL     OW99347   6.504   0.624   0.419  0.3303 -0.3759 -0.3146
31939SOL    HW199348   6.476   0.700   0.369 -0.9960 -1.6604 -1.6412
31939SOL    HW299349   6.598   0.616   0.401  0.0259 -0.3646 -2.0387
31940SOL     OW99350   5.167   3.109   2.940 -0.1174  0.1856 -0.3894
31940SOL    HW199351   5.164   3.167   2.864  0.7167 -0.1501 -0.7000
31940SOL    HW299352   5.084   3.061   2.938 -0.6024  1.0177 -0.4070
31941SOL     OW99353   1.864   6.421   8.794  0.5993 -0.4541  0.9668
31941SOL    HW199354   1.784   6.372   8.813  0.8797 -0.6528  1.6671
31941SOL    HW299355   1.834   6.509   8.772  0.0443 -1.0691 -0.8996
31942SOL     OW99356   4.592   8.805  10.913 -0.3694  0.4152  0.1237
31942SOL    HW199357   4.526   8.854  10.962  0.5747 -0.3335  2.2264
31942SOL    HW299358   4.588   8.716  10.948 -0.4552 -0.4990 -2.0241
31943SOL     OW99359   1.671   6.602   0.937 -0.3766  0.2888 -1.0700
31943SOL    HW199360   1.732   6.549   0.885 -0.1018 -0.7123  0.2413
31943SOL    HW299361   1.670   6.687   0.892  3.0107  0.7913 -0.4312
31944SOL     OW99362   3.090   8.355   4.135 -0.4418  0.3678 -0.5707
31944SOL    HW199363   3.114   8.378   4.046  0.0112 -2.6299 -1.3078
31944SOL    HW299364   3.018   8.293   4.126 -0.8408  0.5173  1.1869
31945SOL     OW99365   0.893   0.073   5.602 -0.2087  0.2343  0.2177
31945SOL    HW199366   0.960   0.069   5.669 -1.1162  0.0520  1.1359
31945SOL    HW299367   0.816   0.108   5.646 -0.9120 -0.1735 -0.6467
31946SOL     OW99368   4.594   5.400   0.309 -0.6452 -0.1561 -0.0367
31946SOL    HW199369   4.572   5.477   0.257 -0.1654  0.7544  1.0758
31946SOL    HW299370   4.690   5.393   0.303 -0.7736 -1.4863 -1.2276
31947SOL     OW99371  10.837   3.763   9.786  0.3383 -0.6746  0.6358
31947SOL    HW199372  10.775   3.771   9.713  0.2485  0.1386  0.7883
31947SOL    HW299373  10.811   3.832   9.847  2.6687  1.1324 -0.2507
31948SOL     OW99374   9.398   1.145   3.780  0.1850  0.3084 -0.1757
31948SOL    HW199375   9.329   1.087   3.810  0.4130  0.0003 -0.2426
31948SOL    HW299376   9.465   1.087   3.744 -0.3693  0.6816 -1.9002
31949SOL     OW99377   6.018   6.119   7.451  0.2616 -0.1730 -0.5700
31949SOL    HW199378   6.025   6.098   7.357  1.1353 -0.6910 -0.4008
31949SOL    HW299379   6.087   6.067   7.492  1.0477  1.3928  0.1517
31950SOL     OW99380   9.786   1.071   4.073  0.1193 -0.3416 -0.4493
31950SOL    HW199381   9.728   1.000   4.100  0.2642 -0.3300 -0.1121
31950SOL    HW299382   9.727   1.137   4.037 -0.3380  0.7575  2.1550
31951SOL     OW99383   9.186   6.098   8.118 -0.3102 -0.4604  0.1467
31951SOL    HW199384   9.100   6.054   8.114  0.1107 -1.2086 -1.5151
31951SOL    HW299385   9.246   6.029   8.146 -0.1045 -0.1616  0.4453
31952SOL     OW99386   4.803   9.732   3.770 -0.1068  0.0557  0.3012
31952SOL    HW199387   4.756   9.698   3.847  0.3246  1.0829  1.0396
31952SOL    HW299388   4.739   9.728   3.699  0.1584 -3.1171  0.0926
31953SOL     OW99389   6.156   2.129   6.599  0.0060 -0.0661 -0.2284
31953SOL    HW199390   6.171   2.145   6.692  0.3563 -0.3339 -0.2362
31953SOL    HW299391   6.244   2.123   6.562 -0.1004 -1.5808 -0.3039
31954SOL     OW99392   9.012   0.348   5.761 -0.0943 -0.0203 -0.3071
31954SOL    HW199393   9.091   0.374   5.713  0.9172 -1.8432  0.2856
31954SOL    HW299394   8.994   0.258   5.732 -2.4915  0.6128 -1.0732
31955SOL     OW99395   2.425   5.380   2.624  0.4566  0.1631 -0.1123
31955SOL    HW199396   2.466   5.464   2.605  0.5955  0.1474  0.1255
31955SOL    HW299397   2.337   5.388   2.586  1.2421 -0.4558 -2.2515
31956SOL     OW99398   3.722   8.068   2.653 -0.6965  0.3625  0.6723
31956SOL    HW199399   3.787   8.126   2.614  0.2050  0.0046  1.6164
31956SOL    HW299400   3.758   7.980   2.641 -1.4634  0.0781  0.3580
31957SOL     OW99401   9.707   6.349  10.172  0.5854 -0.0829 -0.0572
31957SOL    HW199402   9.765   6.416  10.208  0.0140  0.1677  0.4329
31957SOL    HW299403   9.620   6.389  10.177  0.2341 -0.8761  0.2844
31958SOL     OW99404   9.415   3.251   7.742  0.1706 -0.0315 -0.4577
31958SOL    HW199405   9.488   3.287   7.794 -1.0089  0.8538  0.6544
31958SOL    HW299406   9.345   3.239   7.805 -0.1022 -2.6320 -1.1688
31959SOL     OW99407   4.803   3.666   9.232  0.0621 -0.0822  0.1346
31959SOL    HW199408   4.762   3.753   9.233 -0.9687 -0.5374  1.2439
31959SOL    HW299409   4.824   3.650   9.140  0.3984  1.3898 -0.0707
31960SOL     OW99410  10.483   6.893   6.647  0.2225 -0.3982  0.6495
31960SOL    HW199411  10.504   6.982   6.617 -0.9450 -0.6619 -1.0570
31960SOL    HW299412  10.540   6.880   6.723  0.8347  1.5875  0.5952
31961SOL     OW99413   9.782   7.477   8.563  0.6245 -0.1203 -0.4336
31961SOL    HW199414   9.739   7.472   8.648  2.0771 -0.4548  0.3127
31961SOL    HW299415   9.740   7.409   8.510  0.0595 -0.2470  0.1779
31962SOL     OW99416   6.238   1.317   8.466 -0.1276  0.1169 -0.3715
31962SOL    HW199417   6.153   1.324   8.422 -0.4130  0.3940  0.2234
31962SOL    HW299418   6.283   1.246   8.419  0.6634  2.1383 -2.9505
31963SOL     OW99419   2.516   0.631   1.522 -0.1565  0.0974 -0.6459
31963SOL    HW199420   2.579   0.561   1.504 -0.3782  0.2664 -2.2124
31963SOL    HW299421   2.510   0.679   1.440 -1.2923  0.9225 -0.0970
31964SOL     OW99422   9.938   2.416   2.686  0.3532  0.7161 -0.1452
31964SOL    HW199423   9.950   2.341   2.744 -0.7821 -1.9165 -3.0546
31964SOL    HW299424   9.844   2.433   2.688  0.1590  0.0149 -1.7764
31965SOL     OW99425   0.016   5.118   8.952 -0.3926  0.4330  0.2468
31965SOL    HW199426   0.048   5.200   8.913 -0.3937  0.0263 -0.6433
31965SOL    HW299427  -0.055   5.091   8.894 -1.8020  0.8745  1.7147
31966SOL     OW99428   3.663   3.306   8.886 -0.7507  0.3330  0.0336
31966SOL    HW199429   3.642   3.324   8.794 -0.5713  0.1308 -0.0456
31966SOL    HW299430   3.653   3.211   8.895  0.1993  0.2179 -0.0212
31967SOL     OW99431  10.455   2.678   8.838  0.0066 -0.6829  0.0003
31967SOL    HW199432  10.448   2.733   8.760 -0.5676  0.8823  1.0952
31967SOL    HW299433  10.366   2.646   8.853 -0.2697  0.4712  0.9787
31968SOL     OW99434   4.500  10.216   9.628  0.6133  0.1774 -0.6595
31968SOL    HW199435   4.474  10.292   9.679  0.6290 -0.5440  0.4448
31968SOL    HW299436   4.425  10.157   9.631  1.0439 -0.3655 -0.5003
31969SOL     OW99437   5.129  10.696   0.437  0.3111  0.4723 -0.1129
31969SOL    HW199438   5.084  10.613   0.426  2.1580 -0.5131 -0.5791
31969SOL    HW299439   5.084  10.738   0.511  0.1822 -1.5305  1.0219
31970SOL     OW99440   1.585   5.912   2.556  0.3127  0.5636 -0.0475
31970SOL    HW199441   1.546   5.971   2.492  0.4434  0.6295 -0.0676
31970SOL    HW299442   1.519   5.902   2.624  0.1859  0.5183 -0.1778
31971SOL     OW99443   7.606   8.895   5.747  0.0304  0.0515 -0.0188
31971SOL    HW199444   7.607   8.974   5.693 -1.7707  0.6188  0.6753
31971SOL    HW299445   7.628   8.926   5.835 -1.9480  0.0975  0.5276
31972SOL     OW99446  10.349   6.266   0.134 -0.2521 -0.2380 -0.8488
31972SOL    HW199447  10.272   6.313   0.104 -2.1466 -2.3121  0.4770
31972SOL    HW299448  10.405   6.260   0.056 -1.8678  0.4481 -2.1200
31973SOL     OW99449   4.122   7.080   1.028  0.1456  0.1611 -0.0817
31973SOL    HW199450   4.147   7.119   0.944 -1.7993 -1.4264 -1.5075
31973SOL    HW299451   4.144   6.987   1.018  0.2232  0.0190  1.3085
31974SOL     OW99452  10.895   2.812   1.145 -0.1271  0.1359  0.1741
31974SOL    HW199453  10.973   2.828   1.199  0.7048 -0.3397 -0.8558
31974SOL    HW299454  10.866   2.899   1.119  0.7199  0.2796 -0.3276
31975SOL     OW99455   4.378   0.666   8.526  0.6712  0.2768 -0.2775
31975SOL    HW199456   4.289   0.701   8.529  0.1271 -1.0843  0.5997
31975SOL    HW299457   4.435   0.743   8.529 -0.4814  1.1261  0.2971
31976SOL     OW99458   5.139   1.464   7.815 -0.4192 -0.0130 -0.1390
31976SOL    HW199459   5.072   1.462   7.747 -0.5327 -0.5967 -0.0106
31976SOL    HW299460   5.177   1.376   7.815  0.1101  0.2104  0.0273
31977SOL     OW99461  10.087   9.689   0.363  0.5252 -0.4693 -0.0324
31977SOL    HW199462  10.174   9.702   0.325  1.5935 -1.7722  1.7764
31977SOL    HW299463  10.100   9.700   0.458 -1.1579 -1.1852  0.3256
31978SOL     OW99464  10.586   4.666  10.444 -0.5404 -0.0517 -0.1451
31978SOL    HW199465  10.516   4.635  10.387 -1.4462  0.1922  0.7926
31978SOL    HW299466  10.547   4.739  10.492  0.9814  1.3692 -0.9890
31979SOL     OW99467   8.528   8.898   0.477  0.0262 -0.2434  0.1558
31979SOL    HW199468   8.603   8.852   0.514 -0.1465 -1.1350 -0.5728
31979SOL    HW299469   8.459   8.832   0.474  0.0425 -0.2221 -1.7781
31980SOL     OW99470   1.388   3.724   3.743 -0.3218 -0.1753  0.4114
31980SOL    HW199471   1.301   3.763   3.734 -0.4503 -0.2447  1.2755
31980SOL    HW299472   1.424   3.725   3.655 -0.6919  1.0598  0.2527
31981SOL     OW99473   4.450   4.867   2.486  0.4008  0.1978 -0.0785
31981SOL    HW199474   4.507   4.816   2.428  0.6791  0.3948  0.0196
31981SOL    HW299475   4.496   4.868   2.570  1.0388  1.6608 -0.3960
31982SOL     OW99476   2.848   5.083   2.112 -0.1327 -0.1665  0.3136
31982SOL    HW199477   2.815   5.166   2.146  0.2598  0.3862 -0.5986
31982SOL    HW299478   2.770   5.033   2.090 -0.3723 -0.0604  0.9222
31983SOL     OW99479   6.101   7.584   6.446 -0.0303  0.5264 -0.2092
31983SOL    HW199480   6.108   7.674   6.414  0.0042 -0.0725 -1.9802
31983SOL    HW299481   6.019   7.552   6.409  0.4712 -0.4876 -0.4908
31984SOL     OW99482   4.170   7.055   4.454 -0.3186  0.0131  0.2304
31984SOL    HW199483   4.115   7.100   4.390 -0.8171  1.1785  1.4223
31984SOL    HW299484   4.258   7.091   4.440 -0.3968  0.1641  0.1251
31985SOL     OW99485   3.513   2.376   5.910 -0.6723  0.1604  0.0600
31985SOL    HW199486   3.520   2.413   5.822  1.7393  0.8220  0.4562
31985SOL    HW299487   3.434   2.415   5.947 -1.0343  0.8398 -1.3724
31986SOL     OW99488   4.305   5.061   5.347 -0.5360  0.8886  0.0696
31986SOL    HW199489   4.313   5.114   5.268 -1.6688  1.4008  0.2777
31986SOL    HW299490   4.241   5.108   5.401 -0.0627  0.3566  1.1331
31987SOL     OW99491   7.689   7.533   6.137  0.2084  0.1938 -0.4158
31987SOL    HW199492   7.612   7.499   6.090  0.8530 -0.2455 -1.1891
31987SOL    HW299493   7.667   7.523   6.229 -0.1418 -1.1648 -0.6209
31988SOL     OW99494   8.758   1.296   5.802 -0.4624  0.3848 -0.4380
31988SOL    HW199495   8.677   1.318   5.848 -1.2102  1.2276 -2.0586
31988SOL    HW299496   8.729   1.271   5.714  1.0768  1.6936 -1.3640
31989SOL     OW99497   8.974   6.161   5.741  0.6893 -0.7047  0.0431
31989SOL    HW199498   8.907   6.099   5.712  1.3804 -1.4055 -0.0705
31989SOL    HW299499   8.991   6.215   5.665  0.2320 -0.5018  0.0818
31990SOL     OW99500   8.045   7.782   8.735  0.0107 -0.0491 -0.4594
31990SOL    HW199501   8.025   7.724   8.662  1.7897 -1.2718 -0.0461
31990SOL    HW299502   8.127   7.747   8.772  1.9345  3.4213 -0.9744
31991SOL     OW99503  10.024   9.520  10.059 -0.2365 -0.4749  0.2000
31991SOL    HW199504  10.001   9.607  10.024 -0.2244 -1.0769 -1.3724
31991SOL    HW299505  10.082   9.483   9.994  1.2697 -0.9692  1.7491
31992SOL     OW99506   6.149   1.685   2.419  0.2894 -0.1114 -0.0314
31992SOL    HW199507   6.171   1.721   2.505  0.1278  0.1330 -0.0909
31992SOL    HW299508   6.068   1.729   2.395 -0.4495 -1.2437  0.3263
31993SOL     OW99509   5.106   4.815   1.313 -0.5117  0.0322  0.0133
31993SOL    HW199510   5.056   4.885   1.355  0.1825  0.7134 -0.2696
31993SOL    HW299511   5.080   4.819   1.221  0.6182  0.9081 -0.2884
31994SOL     OW99512   7.309   4.206   9.312 -0.0461  0.0952 -0.4201
31994SOL    HW199513   7.221   4.181   9.338  0.2826 -1.2017 -0.4893
31994SOL    HW299514   7.327   4.286   9.362 -1.4234  0.6554 -0.7852
31995SOL     OW99515   9.694   5.801   1.180 -0.2187  0.6422 -0.0863
31995SOL    HW199516   9.748   5.763   1.112 -0.0228  0.2975  0.2590
31995SOL    HW299517   9.628   5.853   1.133 -1.0778 -0.8702 -0.6106
31996SOL     OW99518   1.278   1.282   1.947  0.0126 -0.4513  0.2519
31996SOL    HW199519   1.314   1.369   1.965  1.1459 -0.8183 -0.1387
31996SOL    HW299520   1.355   1.224   1.946 -0.6113 -1.2943 -0.4621
31997SOL     OW99521   7.851   4.195   6.310  0.1799 -0.2174  0.0868
31997SOL    HW199522   7.925   4.137   6.290  0.5685 -0.2537  1.5338
31997SOL    HW299523   7.810   4.210   6.225  2.0234  0.0531 -0.8234
31998SOL     OW99524   3.878   6.157   6.287 -0.0643 -0.2652  0.5217
31998SOL    HW199525   3.890   6.210   6.366  0.5809  0.5270 -0.0891
31998SOL    HW299526   3.925   6.205   6.219 -0.9209 -0.7363 -0.4300
31999SOL     OW99527   8.748  10.416   1.663  0.5399 -0.0395  0.9761
31999SOL    HW199528   8.714  10.489   1.611 -1.7737 -0.0839  2.3124
31999SOL    HW299529   8.764  10.454   1.749  0.7700 -0.7888  1.2711
32000SOL     OW99530   3.668   8.586  10.952 -0.3984  0.3837 -0.6035
32000SOL    HW199531   3.722   8.539  10.888 -1.0859 -0.1242 -0.8234
32000SOL    HW299532   3.599   8.627  10.899 -0.3392  0.8688 -0.3046
32001SOL     OW99533   4.672   3.509   6.491  0.6592 -0.1574 -0.1035
32001SOL    HW199534   4.615   3.489   6.565  1.4192  0.9947  0.8288
32001SOL    HW299535   4.698   3.600   6.505  2.2895 -0.4791 -0.8011
32002SOL     OW99536   2.586   2.496   2.313 -0.3064 -0.1901 -0.0672
32002SOL    HW199537   2.648   2.476   2.243 -1.0389 -1.1320 -0.4823
32002SOL    HW299538   2.614   2.581   2.348  0.4155  0.0139 -1.1124
32003SOL     OW99539   3.858   0.429   3.144  0.0262 -0.6595  0.6895
32003SOL    HW199540   3.764   0.413   3.147 -0.2152  0.5369 -0.0494
32003SOL    HW299541   3.896   0.359   3.198 -1.2004 -1.7204  0.2134
32004SOL     OW99542   6.091   1.165   1.564 -0.2087  0.0824 -0.3616
32004SOL    HW199543   6.106   1.189   1.656  0.9579  0.6022 -0.6654
32004SOL    HW299544   6.118   1.243   1.514 -1.2918 -0.0172 -1.1296
32005SOL     OW99545   0.581   5.430   1.873 -0.2911  0.1428  0.2165
32005SOL    HW199546   0.569   5.481   1.953 -0.7066 -1.3824  1.1735
32005SOL    HW299547   0.518   5.358   1.881  0.9697 -1.0987 -0.5948
32006SOL     OW99548   6.529   4.355   9.684  0.2591  0.3266  0.5191
32006SOL    HW199549   6.536   4.360   9.589  0.8633  0.3799  0.5676
32006SOL    HW299550   6.614   4.323   9.714  0.2737  0.8641  1.0820
32007SOL     OW99551   2.108   4.923   3.064  0.0195 -0.5824 -0.1664
32007SOL    HW199552   2.129   4.830   3.057 -0.2077 -0.6227 -0.3383
32007SOL    HW299553   2.134   4.947   3.153 -0.8603 -1.0544  0.2287
32008SOL     OW99554   2.785   4.234   3.858  0.4179  0.6212 -0.0978
32008SOL    HW199555   2.787   4.230   3.763 -1.6210  0.6333 -0.1802
32008SOL    HW299556   2.770   4.143   3.885 -1.5874  0.9386  0.0426
32009SOL     OW99557   3.197   0.652   4.595 -0.4023  0.1375  0.0839
32009SOL    HW199558   3.194   0.570   4.546 -2.0044  0.4373 -0.3436
32009SOL    HW299559   3.170   0.719   4.533  1.6055  1.1485  0.2124
32010SOL     OW99560   1.448  10.318   9.463 -0.5314 -0.2262 -0.3698
32010SOL    HW199561   1.454  10.328   9.558 -1.0430  3.8375 -0.6045
32010SOL    HW299562   1.482  10.230   9.446  1.6498 -0.3056  3.3693
32011SOL     OW99563   6.891   2.879   1.906 -0.1757  0.1234 -0.2977
32011SOL    HW199564   6.873   2.797   1.860  0.0646  0.3885 -0.8746
32011SOL    HW299565   6.934   2.935   1.840  3.2116 -0.6373  1.0609
32012SOL     OW99566   8.259  11.047   7.836 -0.0826 -0.5798 -0.0972
32012SOL    HW199567   8.344  11.007   7.854  1.2532  1.2368 -1.8772
32012SOL    HW299568   8.237  11.018   7.747 -2.1670 -2.2743  0.8786
32013SOL     OW99569   6.892   6.898   3.609  0.0031 -0.2348  0.0297
32013SOL    HW199570   6.931   6.978   3.575  0.7976 -0.6757 -0.1285
32013SOL    HW299571   6.806   6.924   3.639  1.0577  1.1581  2.0398
32014SOL     OW99572  10.580   6.185   9.675 -0.1705 -0.5186 -0.8828
32014SOL    HW199573  10.648   6.253   9.669 -0.7185  0.3377  1.5442
32014SOL    HW299574  10.504   6.224   9.632  0.3340 -0.8116 -2.0987
32015SOL     OW99575   5.464   1.809   5.415 -0.0047  0.2629 -0.0318
32015SOL    HW199576   5.446   1.809   5.509  0.1397 -0.1696 -0.0043
32015SOL    HW299577   5.414   1.883   5.381  0.2157  0.6327  0.4368
32016SOL     OW99578   6.149   5.266   8.032 -0.2962 -0.3097 -0.0008
32016SOL    HW199579   6.222   5.284   8.092 -1.2327  0.7182  0.8577
32016SOL    HW299580   6.188   5.274   7.945  1.1640 -2.1180  0.4110
32017SOL     OW99581   3.724   5.513   0.276  0.4783 -1.2105 -0.5441
32017SOL    HW199582   3.818   5.499   0.287  0.4266 -0.9822  0.2314
32017SOL    HW299583   3.685   5.480   0.356  0.1117  0.7143  0.1270
32018SOL     OW99584   7.825   9.661  10.533  0.2475 -0.3790  0.1832
32018SOL    HW199585   7.742   9.697  10.502  0.2696 -0.1250  0.4190
32018SOL    HW299586   7.816   9.567  10.520 -0.0622 -0.3486  0.1711
32019SOL     OW99587   7.811   3.820   4.704 -0.1266 -0.3350  0.0467
32019SOL    HW199588   7.811   3.777   4.789  1.4002  2.2517  1.4956
32019SOL    HW299589   7.730   3.870   4.702  0.7642  1.2351  0.9807
32020SOL     OW99590   7.640   2.353  10.408 -1.1689 -0.0447  0.8376
32020SOL    HW199591   7.559   2.381  10.364 -1.1071 -0.2303  0.6096
32020SOL    HW299592   7.634   2.393  10.495  0.7413  4.0166 -0.6697
32021SOL     OW99593   2.672   1.247   7.173  0.4942  0.2386 -0.3320
32021SOL    HW199594   2.739   1.179   7.180  1.0303  0.7392 -0.5467
32021SOL    HW299595   2.667   1.284   7.261 -0.3536 -0.5826 -0.0136
32022SOL     OW99596   3.542   6.189   2.115 -0.1906  0.3915  0.8045
32022SOL    HW199597   3.506   6.213   2.030 -1.4002  1.0304  1.4751
32022SOL    HW299598   3.527   6.095   2.122  0.6667  0.1782 -0.0216
32023SOL     OW99599   3.307   4.260   8.221 -0.2022  0.1287  0.6174
32023SOL    HW199600   3.281   4.298   8.137 -0.4351 -1.1663  0.0816
32023SOL    HW299601   3.249   4.185   8.232 -0.3184  0.4039  2.0558
32024SOL     OW99602   9.820  10.894   7.526  0.3995  0.2511 -0.3394
32024SOL    HW199603   9.879  10.851   7.464  0.0219  1.1599 -1.3797
32024SOL    HW299604   9.732  10.868   7.498  0.2526 -0.2767  0.5682
32025SOL     OW99605   9.011   3.555   2.911 -0.4180  0.4005 -0.3329
32025SOL    HW199606   9.100   3.519   2.913 -1.1041 -1.6381 -2.5822
32025SOL    HW299607   8.956   3.485   2.943 -1.4931  0.5330 -1.7974
32026SOL     OW99608  10.067   3.581   5.579 -0.1016  0.4282 -0.3822
32026SOL    HW199609  10.070   3.626   5.663 -0.4773  1.3239 -0.8374
32026SOL    HW299610   9.996   3.623   5.531  0.6026  0.4602 -1.4445
32027SOL     OW99611   9.432   0.437   8.424  0.5466  0.0836 -0.2071
32027SOL    HW199612   9.499   0.504   8.438 -0.0527  1.2487 -2.4971
32027SOL    HW299613   9.481   0.356   8.408  1.4406  0.8380 -1.4587
32028SOL     OW99614   0.516   9.961   9.778  0.9669 -0.5351  0.0910
32028SOL    HW199615   0.602   9.940   9.742  0.6305 -1.0087 -0.4524
32028SOL    HW299616   0.464   9.882   9.761  1.0147 -1.1265  2.3230
32029SOL     OW99617   7.452   6.931   6.488 -0.2487 -0.3370 -0.5790
32029SOL    HW199618   7.517   6.919   6.557  0.8770 -1.3736 -1.7872
32029SOL    HW299619   7.476   7.014   6.447 -1.0827  0.4217  0.3926
32030SOL     OW99620   0.661   7.334   3.831 -0.1838  0.2746 -0.0883
32030SOL    HW199621   0.689   7.423   3.852 -1.9749  1.1673 -1.2072
32030SOL    HW299622   0.657   7.332   3.735 -1.3329 -0.6174 -0.0453
32031SOL     OW99623   8.211   5.116  10.604  0.2004  0.2182  0.1568
32031SOL    HW199624   8.232   5.206  10.632 -1.9237  0.5815  0.7138
32031SOL    HW299625   8.261   5.105  10.523  2.2066  1.1013  1.1889
32032SOL     OW99626   7.208   0.044   0.667 -0.0930  0.1996  0.6371
32032SOL    HW199627   7.165   0.094   0.736 -0.0889  0.4501  0.4612
32032SOL    HW299628   7.137  -0.002   0.623  0.1252 -1.9500  2.3504
32033SOL     OW99629  10.737   1.538   5.384 -0.1069 -0.6213  0.4867
32033SOL    HW199630  10.748   1.503   5.473 -1.1565 -1.6074  0.2502
32033SOL    HW299631  10.717   1.631   5.398  2.7385 -0.0052  1.1150
32034SOL     OW99632   6.631   9.215   4.353 -0.6462  0.0621  0.4849
32034SOL    HW199633   6.625   9.288   4.415  1.3282  0.2605  0.5145
32034SOL    HW299634   6.708   9.236   4.299 -0.0601 -1.9465  0.4530
32035SOL     OW99635  10.616   1.480   0.301  0.0520 -0.6115  0.6137
32035SOL    HW199636  10.692   1.431   0.268  0.3442  0.4239 -0.3171
32035SOL    HW299637  10.640   1.504   0.390  0.9908 -0.0020  0.2220
32036SOL     OW99638   8.088   1.980   0.346  0.5176  0.1820 -0.5108
32036SOL    HW199639   8.070   1.917   0.415 -0.1135  0.0795 -0.7627
32036SOL    HW299640   8.184   1.979   0.337  0.4668 -1.3556 -1.0996
32037SOL     OW99641   0.863   5.050   7.311 -0.6920  0.4908  0.0069
32037SOL    HW199642   0.886   5.045   7.404  1.4815  1.3676 -0.4245
32037SOL    HW299643   0.930   4.999   7.266 -3.0740 -2.0171 -0.9896
32038SOL     OW99644   7.806   9.459   8.227 -0.2460 -0.1666 -0.0883
32038SOL    HW199645   7.725   9.468   8.177 -1.7337 -2.4890  1.6742
32038SOL    HW299646   7.834   9.549   8.243 -4.0246  0.9209  1.5199
32039SOL     OW99647  10.800   9.230  10.041 -0.1384  0.1250 -0.8581
32039SOL    HW199648  10.855   9.296   9.998  0.9712  0.6556  1.2342
32039SOL    HW299649  10.724   9.279  10.072  0.3544  0.3078  0.0923
32040SOL     OW99650  10.126   7.237   1.505 -0.1052 -0.2693  0.3191
32040SOL    HW199651  10.220   7.227   1.522  0.0947  1.0411  0.1382
32040SOL    HW299652  10.119   7.236   1.409 -0.1427  0.4767  0.3028
32041SOL     OW99653   5.887   0.165   0.782 -0.2093  0.3022  0.2944
32041SOL    HW199654   5.855   0.186   0.694 -1.9793 -1.0174  0.5696
32041SOL    HW299655   5.917   0.249   0.816 -1.4197  1.2558 -0.8258
32042SOL     OW99656   8.346   2.074   3.203  0.1455 -0.3519 -0.0533
32042SOL    HW199657   8.388   2.087   3.288 -0.9270 -2.1693  0.8329
32042SOL    HW299658   8.252   2.084   3.222 -0.1672 -1.6729 -0.8098
32043SOL     OW99659   6.698   0.792   7.063 -0.1540  0.1656 -0.5051
32043SOL    HW199660   6.720   0.717   7.008 -0.5684  0.3700 -0.9645
32043SOL    HW299661   6.608   0.774   7.093  0.8617 -1.0888  2.0682
32044SOL     OW99662   1.810   2.707   9.600 -0.6070  0.6001 -0.0849
32044SOL    HW199663   1.853   2.644   9.542 -1.2891  0.2658 -0.2330
32044SOL    HW299664   1.813   2.667   9.686  0.7565  1.2693  0.2044
32045SOL     OW99665   5.091   3.719   5.103 -0.7342 -0.3560  0.5382
32045SOL    HW199666   5.181   3.742   5.129 -0.9072 -0.9169  1.6777
32045SOL    HW299667   5.036   3.772   5.161 -1.1489  0.0588 -0.2267
32046SOL     OW99668   5.836   1.109   1.460  0.3109  0.7051 -0.1739
32046SOL    HW199669   5.926   1.123   1.490  0.2024 -1.5531  1.4349
32046SOL    HW299670   5.783   1.163   1.519  0.4926  0.7036 -0.0085
32047SOL     OW99671  10.258   9.306   6.485 -0.0075 -0.2122 -0.2087
32047SOL    HW199672  10.265   9.329   6.392 -1.0434 -0.8838 -0.4647
32047SOL    HW299673  10.275   9.212   6.488  0.7564 -0.0632  0.3867
32048SOL     OW99674   2.878   5.673   3.167 -0.1315 -0.2517 -0.2331
32048SOL    HW199675   2.885   5.755   3.118 -3.6735  0.3203 -0.0875
32048SOL    HW299676   2.861   5.606   3.101  1.8384 -0.7797 -0.2670
32049SOL     OW99677   7.356   8.538   4.221 -0.5895  0.1348  0.1895
32049SOL    HW199678   7.281   8.514   4.166  1.4686 -1.4307 -2.1588
32049SOL    HW299679   7.398   8.610   4.173  1.8330 -1.9269 -1.0810
32050SOL     OW99680   9.613  10.284   0.242  0.4286 -1.0331 -0.2354
32050SOL    HW199681   9.647  10.302   0.155  1.2658 -0.1933  0.2443
32050SOL    HW299682   9.614  10.188   0.249 -1.8693 -1.2910 -1.9760
32051SOL     OW99683   0.908   1.073   3.293  0.3110 -0.0950 -0.1459
32051SOL    HW199684   0.874   1.023   3.368  0.6881 -0.2857 -0.0944
32051SOL    HW299685   0.895   1.164   3.317 -0.7824 -0.1635 -0.4247
32052SOL     OW99686   5.991   2.750   1.203  0.4761  0.0284 -0.0686
32052SOL    HW199687   5.939   2.809   1.257  1.8018  1.8097 -0.6342
32052SOL    HW299688   6.059   2.716   1.261  0.8936  0.6274 -0.1986
32053SOL     OW99689   1.442   0.409   2.083 -0.2704 -0.4780 -0.0447
32053SOL    HW199690   1.481   0.349   2.146  1.3038  0.0156 -0.4925
32053SOL    HW299691   1.500   0.485   2.084 -1.6236  0.5848 -0.2714
32054SOL     OW99692   6.363   1.514   8.612 -0.1936 -0.1318 -0.2221
32054SOL    HW199693   6.306   1.447   8.574 -0.4192 -1.1192  1.7525
32054SOL    HW299694   6.304   1.585   8.635 -0.6173 -0.9812  1.4367
32055SOL     OW99695   9.354   5.969   5.750  0.6338  0.0213  0.1294
32055SOL    HW199696   9.261   5.952   5.762  0.6435 -1.8650 -1.7521
32055SOL    HW299697   9.359   6.059   5.717 -0.5568  0.0198 -0.0792
32056SOL     OW99698   3.479   4.451   6.146 -0.2760 -0.1225  0.5421
32056SOL    HW199699   3.423   4.450   6.068 -1.2109  2.3606  1.1017
32056SOL    HW299700   3.419   4.437   6.219  0.0498  0.8726  1.0222
32057SOL     OW99701   0.211   8.292   0.104  0.2652  0.2000  0.3469
32057SOL    HW199702   0.118   8.313   0.111 -0.3292 -1.2629 -2.0295
32057SOL    HW299703   0.255   8.377   0.107 -1.2199  0.9947  0.6345
32058SOL     OW99704   9.079   5.811   8.135 -0.2858 -0.8963 -0.1167
32058SOL    HW199705   9.174   5.806   8.141 -0.0779  0.8703 -1.2052
32058SOL    HW299706   9.060   5.807   8.042 -1.0207  1.4102 -0.1493
32059SOL     OW99707   8.951   0.595   4.864  0.4495 -0.8475 -0.0077
32059SOL    HW199708   8.864   0.559   4.881  1.0239 -2.2171  0.1600
32059SOL    HW299709   8.969   0.572   4.773  0.3857 -0.0101 -0.2363
32060SOL     OW99710   3.979   8.226  11.082  0.1536 -0.4912  0.1134
32060SOL    HW199711   4.017   8.148  11.042 -1.6622 -1.7323  0.7376
32060SOL    HW299712   3.924   8.264  11.014  2.0045  1.0680 -0.6375
32061SOL     OW99713  10.545   9.443   5.094 -0.1409 -0.3585 -0.3580
32061SOL    HW199714  10.503   9.527   5.072 -0.5262 -0.7413 -1.1549
32061SOL    HW299715  10.520   9.385   5.022 -0.4343 -1.3468  0.5152
32062SOL     OW99716   0.004   1.997  10.880  0.3067  0.5875  0.0087
32062SOL    HW199717   0.027   1.904  10.869  0.9867  0.5593  1.3641
32062SOL    HW299718  -0.092   1.998  10.883  0.3010 -0.3327  1.6025
32063SOL     OW99719   7.461   6.480   2.968  0.2869  0.1366  0.0785
32063SOL    HW199720   7.490   6.509   2.882 -1.1826  1.0022 -0.1508
32063SOL    HW299721   7.366   6.481   2.963  0.1364 -2.4371  0.8490
32064SOL     OW99722   4.159   7.699   8.177  0.0086  0.5280 -0.6227
32064SOL    HW199723   4.178   7.679   8.269  1.9963  2.1320 -0.6239
32064SOL    HW299724   4.068   7.671   8.165  0.3398 -1.6586  1.2337
32065SOL     OW99725   3.176   3.290   0.219 -0.2985 -0.1504 -0.4628
32065SOL    HW199726   3.164   3.354   0.288 -1.1290  0.1424 -0.8658
32065SOL    HW299727   3.130   3.212   0.250 -0.2791 -0.1704 -0.4839
32066SOL     OW99728   9.605   3.936   0.359  0.2676  0.1389  0.2640
32066SOL    HW199729   9.686   3.890   0.337 -0.1933 -0.6482  0.2000
32066SOL    HW299730   9.573   3.893   0.438 -0.1809  0.3357  0.1930
32067SOL     OW99731   2.132   0.661  10.178  0.0952 -0.2538 -0.5313
32067SOL    HW199732   2.090   0.698  10.100  0.9150  1.7990 -0.0742
32067SOL    HW299733   2.149   0.737  10.234 -2.8085 -1.8688  2.9180
32068SOL     OW99734   2.776   7.968   7.976  0.4262 -0.0315 -0.3314
32068SOL    HW199735   2.731   7.885   7.963 -0.1970  0.3780 -0.8593
32068SOL    HW299736   2.844   7.969   7.908 -1.2567  1.0219 -2.1134
32069SOL     OW99737   1.464   3.390   6.403 -0.0768  0.2193 -0.1146
32069SOL    HW199738   1.467   3.459   6.336 -1.1071 -0.1009 -0.5124
32069SOL    HW299739   1.400   3.422   6.467 -0.2221 -0.1687 -0.0671
32070SOL     OW99740   6.035   9.602  10.262 -0.5018 -0.0802  0.0489
32070SOL    HW199741   6.123   9.628  10.235 -0.2034 -0.9164  0.1907
32070SOL    HW299742   6.046   9.515  10.300 -1.4608 -0.3935 -0.3476
32071SOL     OW99743   3.551  10.363   0.749  0.2905  0.3567 -0.0275
32071SOL    HW199744   3.572  10.422   0.677 -1.5098 -0.8323 -1.5959
32071SOL    HW299745   3.625  10.302   0.752  0.5915  0.6862 -0.5544
32072SOL     OW99746   0.063   2.706   9.786  0.5749 -0.8698  0.2576
32072SOL    HW199747   0.085   2.756   9.865  0.3716  2.0459 -1.3795
32072SOL    HW299748   0.148   2.690   9.744  0.5226 -0.3977 -0.0359
32073SOL     OW99749   5.235   3.289   2.168 -0.3390 -0.0766  0.4059
32073SOL    HW199750   5.162   3.345   2.195 -0.6424  1.1845 -2.6437
32073SOL    HW299751   5.312   3.326   2.211 -0.7899  1.7640 -0.2802
32074SOL     OW99752   9.641   7.339   9.072  0.1408  0.1917 -0.8637
32074SOL    HW199753   9.551   7.328   9.103  0.6630 -3.1913 -0.1457
32074SOL    HW299754   9.673   7.417   9.117 -2.4889  1.7201 -1.4457
32075SOL     OW99755   4.834   2.850   3.942  0.4328  0.0476 -0.1614
32075SOL    HW199756   4.797   2.766   3.916 -0.4057  0.4159 -0.1898
32075SOL    HW299757   4.759   2.902   3.968  0.8309  1.1459 -1.1351
32076SOL     OW99758   3.589   5.642   9.695  0.5080 -0.1945 -0.0235
32076SOL    HW199759   3.528   5.705   9.734  1.9101  0.7833  0.6874
32076SOL    HW299760   3.588   5.567   9.754  2.0421  0.9687  1.6040
32077SOL     OW99761  11.039   9.095   6.563 -0.3808  0.4015 -0.4233
32077SOL    HW199762  11.060   9.117   6.654 -1.5913  1.1186 -0.3044
32077SOL    HW299763  11.029   9.000   6.563 -0.5939  0.4199  0.2410
32078SOL     OW99764   8.274   9.840   4.102  0.2680 -0.2259  0.0281
32078SOL    HW199765   8.365   9.811   4.104  0.9650  1.8204  0.9443
32078SOL    HW299766   8.250   9.836   4.009  1.8031  0.6060 -0.4473
32079SOL     OW99767  10.711   8.896   4.261 -0.2971  0.7947 -0.9832
32079SOL    HW199768  10.741   8.968   4.206 -2.0551  3.0284  0.8396
32079SOL    HW299769  10.616   8.897   4.253 -0.4533 -0.2896  0.3705
32080SOL     OW99770   8.306   1.042  10.515  0.0059 -0.2853  0.1943
32080SOL    HW199771   8.243   1.059  10.585  0.3500  0.0468  0.4282
32080SOL    HW299772   8.326   0.949  10.522 -0.9077 -0.5307 -0.2624
32081SOL     OW99773   5.357   7.016   2.310  0.9106 -0.6181  0.2956
32081SOL    HW199774   5.359   6.988   2.402  0.9516  1.0701  0.8273
32081SOL    HW299775   5.331   6.937   2.263  1.2644 -1.6290  1.7029
32082SOL     OW99776   3.621   2.824   7.610 -0.1707 -0.0099 -0.4320
32082SOL    HW199777   3.579   2.886   7.550  0.8591 -0.1449 -1.3199
32082SOL    HW299778   3.569   2.744   7.601 -1.5861  0.7077  0.8128
32083SOL     OW99779   9.872   0.005   3.496 -0.0271 -0.0169  0.1684
32083SOL    HW199780   9.922  -0.076   3.495 -1.0258 -0.6567 -1.4538
32083SOL    HW299781   9.782  -0.022   3.516 -1.0146  0.1686 -3.3421
32084SOL     OW99782   7.858   8.191   4.394 -0.4171  0.1187  0.0099
32084SOL    HW199783   7.797   8.166   4.463 -0.1213 -1.4279 -0.2412
32084SOL    HW299784   7.944   8.176   4.432 -0.2561 -1.0540 -0.7842
32085SOL     OW99785   1.241   8.575  10.469 -0.4613 -0.7616 -0.2807
32085SOL    HW199786   1.317   8.575  10.412  0.7382 -0.9195  1.2693
32085SOL    HW299787   1.169   8.603  10.412  1.0129  0.9287 -1.4373
32086SOL     OW99788   4.437   7.573   3.747 -0.7653  0.3279  0.5910
32086SOL    HW199789   4.454   7.667   3.745  0.8976  0.0389 -0.2944
32086SOL    HW299790   4.488   7.538   3.675 -1.2146 -1.2868  1.0239
32087SOL     OW99791   2.273   4.576   4.050  0.0952  0.7595 -0.2224
32087SOL    HW199792   2.195   4.562   3.996 -1.1830 -0.0670  1.7227
32087SOL    HW299793   2.283   4.495   4.099  2.5565  0.6375 -0.7957
32088SOL     OW99794   6.868   0.692  11.089 -0.2896 -0.4087  0.3587
32088SOL    HW199795   6.839   0.665  11.003  1.1387 -1.7738  0.2561
32088SOL    HW299796   6.940   0.754  11.072  0.4658 -1.2172  0.5344
32089SOL     OW99797   4.642  11.127   0.941  0.1342 -0.0527  0.2643
32089SOL    HW199798   4.623  11.182   1.017 -1.0899  0.6338 -0.5004
32089SOL    HW299799   4.610  11.178   0.866  1.1841 -0.7724 -0.7041
32090SOL     OW99800   5.693   0.651   3.583 -0.1330 -0.3269 -0.5474
32090SOL    HW199801   5.761   0.691   3.637  1.1547 -1.7445 -1.0658
32090SOL    HW299802   5.620   0.713   3.587  1.2274  1.3231 -0.1045
32091SOL     OW99803   5.393   6.145   3.108  0.2676 -0.1949 -0.0522
32091SOL    HW199804   5.429   6.163   3.020 -1.7468 -2.6319 -1.5183
32091SOL    HW299805   5.429   6.060   3.131 -1.7152 -1.0787 -0.0188
32092SOL     OW99806   9.033   5.195   6.539  0.5081 -0.0817  0.0904
32092SOL    HW199807   9.024   5.184   6.444 -0.8504 -1.0010  0.3001
32092SOL    HW299808   8.972   5.132   6.577  0.6857  0.5877  1.5792
32093SOL     OW99809   5.208   2.023   2.668  0.5434 -0.3346 -0.0035
32093SOL    HW199810   5.301   2.018   2.646  1.0738  0.2768  1.8425
32093SOL    HW299811   5.175   2.096   2.616  1.3905  0.2038  0.1975
32094SOL     OW99812   0.181   7.906   5.577  0.1780 -0.0209 -0.3685
32094SOL    HW199813   0.220   7.819   5.572  1.6693  0.5580  0.4984
32094SOL    HW299814   0.095   7.891   5.616  0.4451 -1.1082 -0.1511
32095SOL     OW99815   3.601   6.142   7.953  0.0367 -0.0552 -0.3614
32095SOL    HW199816   3.645   6.132   8.037 -0.6357 -2.1239 -0.1964
32095SOL    HW299817   3.644   6.217   7.912  0.7158  0.6868  1.5950
32096SOL     OW99818   6.861   9.904   0.499  0.2215  0.4863  0.0372
32096SOL    HW199819   6.868   9.814   0.468 -1.0006 -0.4362  2.2761
32096SOL    HW299820   6.936   9.948   0.459  1.6691 -1.8415  0.0098
32097SOL     OW99821   3.435   9.508   6.954  0.3414  0.7338  0.2579
32097SOL    HW199822   3.443   9.415   6.976 -1.3245  0.8620  1.6040
32097SOL    HW299823   3.474   9.554   7.029 -1.7960  1.1263  1.1952
32098SOL     OW99824   3.268  10.551   7.451 -0.3470 -0.5138 -0.3045
32098SOL    HW199825   3.177  10.543   7.481 -0.4394 -1.3155 -0.7775
32098SOL    HW299826   3.293  10.641   7.474 -1.1738 -0.3695  0.0608
32099SOL     OW99827   8.849   1.533   5.929  0.1304  0.2510 -1.2464
32099SOL    HW199828   8.940   1.534   5.958 -0.1494  2.0137 -0.2723
32099SOL    HW299829   8.823   1.441   5.936  0.9003  0.1477  1.6124
32100SOL     OW99830   0.192   8.074   7.347 -0.2194 -0.1968 -0.1352
32100SOL    HW199831   0.224   7.996   7.300  1.9286  0.3482  0.3362
32100SOL    HW299832   0.177   8.043   7.436  0.5292 -0.0941  0.0264
32101SOL     OW99833   8.986   1.995   6.693  0.7175 -0.0746  0.7559
32101SOL    HW199834   8.944   2.074   6.661 -0.6593 -1.2348 -0.3972
32101SOL    HW299835   8.932   1.923   6.661  2.4343 -1.5481  0.9839
32102SOL     OW99836   9.160   0.016   1.374  0.4383 -0.5173 -0.3574
32102SOL    HW199837   9.198   0.088   1.323  1.4636  0.3982  1.5900
32102SOL    HW299838   9.065   0.033   1.372  0.0637 -2.0837 -4.1589
32103SOL     OW99839   5.521   0.858   1.421 -0.4487  0.1928  0.0776
32103SOL    HW199840   5.523   0.946   1.383 -0.5501  0.3859  0.5023
32103SOL    HW299841   5.527   0.873   1.516  2.8202 -0.3679  0.1009
32104SOL     OW99842   8.804   3.801   5.738  0.5758  0.1589 -0.0615
32104SOL    HW199843   8.874   3.781   5.801  0.7642 -1.0496 -0.6413
32104SOL    HW299844   8.789   3.719   5.691 -0.6876  0.6168 -0.4983
32105SOL     OW99845   8.006   1.575  11.021 -0.9463  0.0373  0.0187
32105SOL    HW199846   8.026   1.668  11.029  0.5704 -0.1379 -1.1696
32105SOL    HW299847   8.035   1.552  10.933 -0.5812 -1.7111  0.5510
32106SOL     OW99848   7.951   9.080   3.412 -0.0473 -0.4455 -0.2573
32106SOL    HW199849   8.012   9.045   3.348  1.3107  1.6244 -0.1981
32106SOL    HW299850   7.870   9.095   3.362 -0.2653 -2.3321 -0.5525
32107SOL     OW99851   9.616   7.086   0.945  0.5448 -0.3070  0.6419
32107SOL    HW199852   9.639   7.020   1.011  0.2034  0.9846  2.1171
32107SOL    HW299853   9.646   7.168   0.982  0.8578  0.4075 -1.1131
32108SOL     OW99854   2.163  10.499   5.491 -0.5254 -0.8724  0.2146
32108SOL    HW199855   2.171  10.552   5.570  0.6121  0.7175 -0.8945
32108SOL    HW299856   2.253  10.481   5.466 -0.8153 -0.3282 -1.3344
32109SOL     OW99857   9.679   6.229   3.886 -0.8618 -0.3658 -0.3533
32109SOL    HW199858   9.745   6.203   3.949 -0.4833 -0.0925 -0.6350
32109SOL    HW299859   9.610   6.270   3.939  0.8509  2.7988 -0.3474
32110SOL     OW99860   9.450   4.406   2.294 -0.5843  0.1292 -0.6681
32110SOL    HW199861   9.356   4.394   2.309 -0.3807  0.0193  0.5510
32110SOL    HW299862   9.484   4.438   2.377  0.1197  2.1976 -1.7005
32111SOL     OW99863   1.514   9.278   4.664  0.0722  0.0079 -1.0207
32111SOL    HW199864   1.602   9.315   4.679  0.2520 -1.6129  2.9072
32111SOL    HW299865   1.469   9.287   4.748 -2.8873 -1.0032 -2.3605
32112SOL     OW99866   4.372   2.550  10.103 -0.2034  0.0030  0.1210
32112SOL    HW199867   4.335   2.462  10.097  0.2695 -0.1767 -0.2308
32112SOL    HW299868   4.349   2.591  10.019  1.4207 -0.5277 -0.6272
32113SOL     OW99869   5.200  10.355   2.003  0.4127 -0.1018 -0.1347
32113SOL    HW199870   5.128  10.359   1.939 -0.2550  1.1051  0.6488
32113SOL    HW299871   5.257  10.285   1.970  0.7338  1.2287 -2.7302
32114SOL     OW99872   4.951   4.582   2.996  0.3051 -0.1310 -0.5664
32114SOL    HW199873   4.977   4.551   2.909 -1.1312 -1.0597 -0.6988
32114SOL    HW299874   4.872   4.532   3.016  1.6203 -1.3339  2.0803
32115SOL     OW99875   0.744   9.953   0.329  0.2652  0.2329 -0.2138
32115SOL    HW199876   0.767   9.936   0.238 -0.2400  2.6967 -0.8585
32115SOL    HW299877   0.742  10.048   0.337 -2.2530  0.1539  1.6930
32116SOL     OW99878   9.848   8.638   3.412  0.6816 -0.0885 -0.1662
32116SOL    HW199879   9.848   8.554   3.367  0.6202  0.0234 -0.3774
32116SOL    HW299880   9.782   8.690   3.366  0.3501 -0.0975  0.2883
32117SOL     OW99881   8.017   1.428   6.002  0.1956  0.0656 -0.1001
32117SOL    HW199882   8.010   1.377   5.922  0.0924  1.3686 -0.9334
32117SOL    HW299883   8.106   1.411   6.034 -0.0149 -1.0382 -0.0667
32118SOL     OW99884   5.568  10.463   0.678  0.5849  0.2816 -0.3191
32118SOL    HW199885   5.574  10.371   0.705  0.9351  1.0212  2.5128
32118SOL    HW299886   5.481  10.490   0.708  1.3926  1.4328  1.1152
32119SOL     OW99887   8.993   6.248   8.596  0.0131  0.0975 -0.1726
32119SOL    HW199888   8.927   6.236   8.664  0.1952  1.8513  0.3499
32119SOL    HW299889   8.962   6.193   8.523 -0.6492 -1.0991  0.9788
32120SOL     OW99890   4.529   8.264   7.930 -0.2143  0.1423 -0.5150
32120SOL    HW199891   4.576   8.328   7.984 -0.1918 -0.2022 -0.1256
32120SOL    HW299892   4.446   8.249   7.977  0.2886 -1.0164  0.0290
32121SOL     OW99893   7.339   2.850   5.530  0.4063  0.0614 -0.1561
32121SOL    HW199894   7.271   2.905   5.570 -0.3896 -0.7219 -0.3854
32121SOL    HW299895   7.334   2.768   5.580 -2.1389 -1.8089 -3.1176
32122SOL     OW99896  10.225   1.113   9.860 -0.1893 -0.1217 -0.0484
32122SOL    HW199897  10.308   1.120   9.908 -0.0548 -1.1198 -0.1131
32122SOL    HW299898  10.159   1.103   9.928 -0.1716 -0.0806 -0.0248
32123SOL     OW99899   4.163   5.456   3.611 -0.3564 -0.6988 -0.2969
32123SOL    HW199900   4.245   5.493   3.644 -0.3894 -1.5278  0.7875
32123SOL    HW299901   4.183   5.428   3.522  0.1250  0.4031 -0.5486
32124SOL     OW99902   9.823   1.855   6.153 -0.8054 -0.2254 -0.7259
32124SOL    HW199903   9.864   1.941   6.143  1.2703 -0.8683  1.4281
32124SOL    HW299904   9.729   1.875   6.160 -0.3080  1.9816  0.5791
32125SOL     OW99905   6.819   8.273   1.118  0.1932  0.0355  0.1110
32125SOL    HW199906   6.807   8.357   1.074  1.2206 -0.8393 -1.9757
32125SOL    HW299907   6.760   8.213   1.072 -0.0869 -0.5255  1.1800
32126SOL     OW99908   1.447   8.712   5.568  0.2649 -0.5225 -0.3284
32126SOL    HW199909   1.417   8.657   5.640 -0.0511  0.6648  0.4788
32126SOL    HW299910   1.371   8.720   5.510  0.8758 -2.4974 -1.4994
32127SOL     OW99911   2.516   2.563   9.762 -0.3378  0.1458  0.1600
32127SOL    HW199912   2.454   2.490   9.759  1.1750 -1.1863 -0.4777
32127SOL    HW299913   2.567   2.548   9.841  0.0167  0.4786 -0.0027
32128SOL     OW99914  10.366  10.417   6.430  0.0666 -0.7431 -0.3247
32128SOL    HW199915  10.431  10.351   6.407 -0.8056 -1.9448  0.5136
32128SOL    HW299916  10.312  10.426   6.351  0.6820 -0.4254 -0.7103
32129SOL     OW99917   7.980   4.960   5.521  0.1021 -0.6356 -0.0408
32129SOL    HW199918   7.921   4.891   5.550  0.2139 -1.4333 -1.5780
32129SOL    HW299919   7.938   5.041   5.549 -0.9883 -1.2537  0.1738
32130SOL     OW99920   9.030   0.470   8.562 -0.1920  0.3771  0.1450
32130SOL    HW199921   9.062   0.466   8.472 -0.3244 -0.7163  0.1361
32130SOL    HW299922   9.078   0.401   8.608 -0.5185  0.5635  0.7823
32131SOL     OW99923   6.719   2.733   0.329  0.0346 -0.6469 -0.2351
32131SOL    HW199924   6.657   2.709   0.398 -0.1586 -0.1818 -0.2413
32131SOL    HW299925   6.709   2.828   0.319  1.0099 -0.5042  0.0121
32132SOL     OW99926   5.655   2.879   7.224 -0.7455  0.1444  0.3569
32132SOL    HW199927   5.703   2.953   7.261 -0.0793  0.4248 -1.0085
32132SOL    HW299928   5.689   2.802   7.270 -0.2096  0.5172  0.5927
32133SOL     OW99929   3.709  10.890   7.605  0.4338 -0.1937 -0.0898
32133SOL    HW199930   3.677  10.928   7.523 -0.6661  2.5321  1.4855
32133SOL    HW299931   3.665  10.805   7.610 -1.2926  0.5746 -1.2395
32134SOL     OW99932   2.400   9.683   7.663  0.0267 -0.7698 -0.1510
32134SOL    HW199933   2.351   9.607   7.631  0.0359 -0.6532 -0.4509
32134SOL    HW299934   2.476   9.687   7.605 -0.9403  0.6009 -1.4005
32135SOL     OW99935   1.539  10.815   5.845 -0.1159  0.1250 -0.3134
32135SOL    HW199936   1.479  10.881   5.812  0.1301  0.3957 -0.2257
32135SOL    HW299937   1.552  10.837   5.937 -1.0739 -0.8315  0.0709
32136SOL     OW99938   3.220   2.106   8.674 -0.1018 -0.1349  0.4216
32136SOL    HW199939   3.276   2.052   8.730 -1.1443 -1.3997  0.2910
32136SOL    HW299940   3.211   2.189   8.722 -0.0873 -0.7932  1.5963
32137SOL     OW99941   4.685   6.930   4.494  0.6828 -0.9309 -0.1288
32137SOL    HW199942   4.760   6.875   4.518 -0.0738 -2.6249 -1.4424
32137SOL    HW299943   4.723   7.002   4.444  1.7556  0.1411  2.0531
32138SOL     OW99944   0.983   7.014   8.082 -0.0406 -0.0632 -0.1983
32138SOL    HW199945   1.003   7.089   8.138  0.6693  1.8152 -2.7514
32138SOL    HW299946   1.063   6.963   8.080 -0.7245 -1.3175  2.0585
32139SOL     OW99947   0.754   8.859   1.623 -0.0981 -0.4075 -0.3152
32139SOL    HW199948   0.827   8.818   1.576 -1.1401 -0.0420 -2.3751
32139SOL    HW299949   0.745   8.807   1.703  1.3710 -1.4608 -0.7781
32140SOL     OW99950   7.577   3.220   2.860 -0.1109  0.4690  0.0555
32140SOL    HW199951   7.595   3.281   2.789 -2.4318  0.9382 -0.2230
32140SOL    HW299952   7.482   3.209   2.858 -0.2394  0.3596  2.9587
32141SOL     OW99953   3.984   4.057   6.186 -0.9662 -0.5981 -0.3847
32141SOL    HW199954   3.973   4.099   6.271  0.1999  0.9130 -0.9248
32141SOL    HW299955   3.915   4.095   6.132 -0.8219 -0.4550 -0.4735
32142SOL     OW99956   9.220   5.377  10.557 -0.4695 -0.1928  0.7484
32142SOL    HW199957   9.244   5.326  10.480  0.3402 -0.3786  1.1147
32142SOL    HW299958   9.233   5.318  10.631 -0.8778  0.1021  1.0626
32143SOL     OW99959  10.284   3.353  10.272  0.0565 -0.2582 -0.1505
32143SOL    HW199960  10.319   3.264  10.281  0.6497 -0.1221 -0.9881
32143SOL    HW299961  10.199   3.341  10.230  0.3489 -0.4159 -0.7205
32144SOL     OW99962   5.328   5.693   5.272 -0.2462  0.0052 -0.2650
32144SOL    HW199963   5.269   5.748   5.222  1.6261  1.2752 -1.1805
32144SOL    HW299964   5.380   5.647   5.207 -0.2999 -1.2141  0.5139
32145SOL     OW99965   4.494   4.692   6.302 -0.1450 -0.4672  0.6627
32145SOL    HW199966   4.510   4.598   6.315 -0.9969 -0.5668  1.0754
32145SOL    HW299967   4.432   4.696   6.229  1.4352 -0.1064 -0.7158
32146SOL     OW99968   0.514   4.522   9.530  0.5733  0.0020 -0.2895
32146SOL    HW199969   0.440   4.581   9.524 -0.1193 -0.8759 -0.6884
32146SOL    HW299970   0.475   4.434   9.530  1.5469 -0.4568  0.5708
32147SOL     OW99971   4.698   3.417   4.806  0.1596  0.1860  0.2869
32147SOL    HW199972   4.645   3.472   4.864 -0.4519  0.2979 -0.3686
32147SOL    HW299973   4.762   3.476   4.768 -0.4510  0.4361 -0.3624
32148SOL     OW99974   5.268   9.616   8.684  0.0183  0.0656  0.0107
32148SOL    HW199975   5.312   9.616   8.768 -0.6414  0.0307  0.3640
32148SOL    HW299976   5.338   9.627   8.620  0.2819  2.9911  0.6794
32149SOL     OW99977   5.103   8.556   5.665 -0.0436 -0.6556  0.0569
32149SOL    HW199978   5.098   8.637   5.715  0.8906 -0.5448 -0.0195
32149SOL    HW299979   5.190   8.557   5.625 -0.6354 -0.8839 -1.3161
32150SOL     OW99980   7.396   4.589   9.347 -0.3354  0.2448 -0.3814
32150SOL    HW199981   7.409   4.527   9.419 -0.4092  1.8292  1.0661
32150SOL    HW299982   7.484   4.613   9.320 -0.3070 -0.3306 -0.8123
32151SOL     OW99983  10.845   3.776   3.696 -0.0240 -0.6843 -0.4276
32151SOL    HW199984  10.937   3.798   3.715 -0.8193  0.6140  2.4747
32151SOL    HW299985  10.847   3.740   3.607  3.4126 -1.5622 -0.1467
32152SOL     OW99986   9.514  10.477   7.483  0.5857  0.0734  0.3995
32152SOL    HW199987   9.486  10.422   7.556  1.0410 -0.8970 -0.1286
32152SOL    HW299988   9.488  10.427   7.405  2.5297 -0.2307 -0.0938
32153SOL     OW99989   5.612   8.966   9.320 -0.2416  0.3728  0.1993
32153SOL    HW199990   5.678   9.016   9.368 -0.3182  0.8281 -0.1669
32153SOL    HW299991   5.647   8.959   9.231 -0.6340  0.5109  0.0346
32154SOL     OW99992  11.080   4.944   7.555 -0.0663 -0.6860  0.1848
32154SOL    HW199993  11.031   5.025   7.541  0.7640 -0.1123  0.5262
32154SOL    HW299994  11.043   4.882   7.492  0.5396  0.4974 -1.3890
32155SOL     OW99995   5.275   7.448   0.404 -0.0793 -0.0716  0.0803
32155SOL    HW199996   5.292   7.397   0.324  0.4885  0.6198 -0.2447
32155SOL    HW299997   5.338   7.520   0.401 -0.4148  0.2680  0.8859
32156SOL     OW99998   3.357  10.170   7.163 -0.1086  0.0812 -0.0230
32156SOL    HW199999   3.359  10.238   7.230 -0.1856  0.4329 -0.3725
32156SOL    HW2    0   3.274  10.184   7.117  0.7625  1.0319 -1.3920
32157SOL     OW    1   9.238   9.252   5.516  0.2235 -0.5434  0.1188
32157SOL    HW1    2   9.324   9.212   5.498 -0.4584 -1.5962 -0.9090
32157SOL    HW2    3   9.196   9.191   5.576 -0.5991 -1.1084 -1.0046
32158SOL     OW    4   2.935   9.259   8.656 -0.1260 -0.0694  0.8899
32158SOL    HW1    5   2.857   9.208   8.679  0.1022  0.2173  2.3996
32158SOL    HW2    6   3.006   9.218   8.705  0.9289 -0.9633 -1.2260
32159SOL     OW    7   3.547   9.198   6.879 -0.2290 -0.4198  0.5772
32159SOL    HW1    8   3.543   9.104   6.864 -1.4920 -0.5440  1.5711
32159SOL    HW2    9   3.608   9.209   6.952 -0.0112 -0.4432  0.4024
32160SOL     OW   10   1.094   3.638   1.501  0.0720  0.0312  0.4681
32160SOL    HW1   11   1.093   3.557   1.450  1.4514  0.2658  0.0362
32160SOL    HW2   12   1.177   3.680   1.478 -1.0529  2.0738 -0.1113
32161SOL     OW   13   2.727   8.721   0.238  0.8639 -0.1608 -0.0368
32161SOL    HW1   14   2.801   8.661   0.234  2.3740  1.2920  2.9620
32161SOL    HW2   15   2.766   8.808   0.243 -1.0851  0.7367  0.6296
32162SOL     OW   16   0.734   1.226   1.535  0.0363  0.4094  1.1535
32162SOL    HW1   17   0.740   1.184   1.621 -2.2254  0.3455  1.3506
32162SOL    HW2   18   0.644   1.258   1.531 -0.3192 -0.6725 -1.6875
32163SOL     OW   19   0.269   6.278   9.424 -0.1217  0.0247  0.3658
32163SOL    HW1   20   0.313   6.361   9.404 -0.8913  0.1645 -0.8708
32163SOL    HW2   21   0.304   6.216   9.360 -0.1612 -0.3973  0.7529
32164SOL     OW   22   9.472   3.725   2.157  0.1689  0.1476 -0.1627
32164SOL    HW1   23   9.405   3.666   2.122  0.4230 -0.1227 -0.1994
32164SOL    HW2   24   9.449   3.734   2.250  0.8061 -0.9693  0.1220
32165SOL     OW   25   8.275   6.808   1.227  0.1076  0.3390  0.0492
32165SOL    HW1   26   8.197   6.851   1.193  0.3296 -0.2515 -1.2919
32165SOL    HW2   27   8.264   6.810   1.322 -0.7679  1.6553 -0.0512
32166SOL     OW   28  10.784   8.052   3.102 -0.0039 -0.5054 -0.1061
32166SOL    HW1   29  10.787   8.038   3.196 -1.0676 -0.2251 -0.0176
32166SOL    HW2   30  10.865   8.014   3.069  1.4603  1.3427  1.1676
32167SOL     OW   31  10.757   2.825   8.161  0.3300 -0.0743 -0.0731
32167SOL    HW1   32  10.751   2.840   8.067  0.8072 -0.3281 -0.1495
32167SOL    HW2   33  10.667   2.822   8.191  0.1778  1.2279 -0.3301
32168SOL     OW   34   2.670   1.096   2.633 -0.3421 -0.0097  0.3796
32168SOL    HW1   35   2.634   1.031   2.693 -1.3355 -0.1846 -0.3826
32168SOL    HW2   36   2.657   1.058   2.546 -1.2773  1.3555 -0.1048
32169SOL     OW   37   5.757   9.090   6.210 -0.0958  0.1430 -0.0614
32169SOL    HW1   38   5.708   9.104   6.129  0.7805  0.2073 -0.5963
32169SOL    HW2   39   5.849   9.097   6.184  0.2544 -1.3295  0.6496
32170SOL     OW   40   7.516   8.564   8.905  0.0003  0.4287 -0.2099
32170SOL    HW1   41   7.474   8.573   8.991  2.1188  0.1887  0.9311
32170SOL    HW2   42   7.560   8.479   8.909  2.3135  1.5428 -0.4737
32171SOL     OW   43   4.125   3.800   4.743 -0.8022  0.0514 -0.2962
32171SOL    HW1   44   4.170   3.735   4.798 -0.7554 -0.3225 -0.7674
32171SOL    HW2   45   4.032   3.790   4.767 -0.7008  0.4080  0.2471
32172SOL     OW   46  10.140   6.833   6.683  0.3636  0.1991  0.1747
32172SOL    HW1   47  10.191   6.908   6.714  0.6214  0.0179  0.1968
32172SOL    HW2   48  10.183   6.807   6.602 -0.3581  0.7187 -0.3835
32173SOL     OW   49   7.568   7.380   7.555  0.3873 -0.3643 -0.0449
32173SOL    HW1   50   7.525   7.454   7.512  0.7897  1.2198  2.1165
32173SOL    HW2   51   7.511   7.356   7.627  1.6105 -0.2642  0.9954
32174SOL     OW   52   4.570   5.705   7.664 -0.2305 -0.5999  0.4785
32174SOL    HW1   53   4.576   5.781   7.722  0.8374 -1.3004  1.3232
32174SOL    HW2   54   4.543   5.742   7.580 -0.6687  0.5891  1.1074
32175SOL     OW   55   1.407   5.851   3.514  0.4217  0.0905 -0.0990
32175SOL    HW1   56   1.348   5.923   3.492 -2.0997 -1.6056  0.6151
32175SOL    HW2   57   1.434   5.815   3.430 -0.7172  0.0685 -0.4694
32176SOL     OW   58   4.736   2.616   3.861 -0.1194  0.4666 -0.2910
32176SOL    HW1   59   4.686   2.539   3.889  1.2987 -0.6365 -0.6947
32176SOL    HW2   60   4.738   2.610   3.766  0.3941  0.7543 -0.3018
32177SOL     OW   61   3.118   1.677   9.486 -0.2101 -0.0223  0.3178
32177SOL    HW1   62   3.034   1.716   9.512 -0.9421 -2.7135  2.4447
32177SOL    HW2   63   3.180   1.706   9.553 -0.0538 -0.0926  0.2045
32178SOL     OW   64   4.737   9.483   3.360  0.5478  0.0881 -0.0974
32178SOL    HW1   65   4.697   9.438   3.435 -1.0573  1.0073 -0.3372
32178SOL    HW2   66   4.828   9.496   3.385  0.6865 -1.9431  0.5792
32179SOL     OW   67   7.096   4.569   3.708 -0.7772 -0.3644 -0.1948
32179SOL    HW1   68   7.148   4.490   3.719  0.0821 -0.0933 -2.0038
32179SOL    HW2   69   7.160   4.639   3.696 -1.4961  0.8180  2.2924
32180SOL     OW   70   4.728   4.702   7.603  0.4537  0.2722  0.4980
32180SOL    HW1   71   4.636   4.728   7.598  0.0695 -0.7437  1.6907
32180SOL    HW2   72   4.766   4.763   7.666  0.5512  0.5694  0.1517
32181SOL     OW   73   8.518  10.249   5.524  0.2340  0.0477 -0.1608
32181SOL    HW1   74   8.456  10.282   5.459  0.4949 -0.8578 -0.8993
32181SOL    HW2   75   8.486  10.160   5.544  1.3748 -0.4955 -0.6825
32182SOL     OW   76   0.320   8.046  10.824  0.1348  0.0329 -0.1668
32182SOL    HW1   77   0.375   7.984  10.775  1.2795  0.8899 -0.0236
32182SOL    HW2   78   0.311   8.121  10.764 -1.9318 -0.5753 -0.6718
32183SOL     OW   79   8.389   2.946   6.603  0.3002 -0.4309  0.0409
32183SOL    HW1   80   8.415   2.948   6.695  1.2904 -0.0930 -0.2368
32183SOL    HW2   81   8.454   2.890   6.560 -0.6130 -1.2417 -0.3277
32184SOL     OW   82   7.982   6.828   8.608  0.1215  0.0734 -0.4628
32184SOL    HW1   83   7.895   6.787   8.611  0.0548 -0.0562 -2.5157
32184SOL    HW2   84   7.968   6.915   8.647 -0.7605 -0.2262 -0.0825
32185SOL     OW   85   1.026   3.203   3.267  0.0073  0.0971 -0.2826
32185SOL    HW1   86   0.985   3.141   3.327 -1.5935  1.2922 -0.0482
32185SOL    HW2   87   1.009   3.289   3.307 -0.9283  0.9263 -2.3179
32186SOL     OW   88   6.619   8.809   6.662 -0.0197  0.0873  0.2783
32186SOL    HW1   89   6.534   8.765   6.663  0.4142 -0.7591  1.2512
32186SOL    HW2   90   6.638   8.821   6.569 -1.3868  0.6685  0.0514
32187SOL     OW   91   2.455   4.834   3.137 -0.3792 -0.0359  0.0176
32187SOL    HW1   92   2.385   4.773   3.113  1.1185 -1.9304  0.2144
32187SOL    HW2   93   2.517   4.781   3.187  1.3877  1.4657 -0.4630
32188SOL     OW   94   6.293   1.345   9.754 -0.0055  0.2746 -0.0666
32188SOL    HW1   95   6.272   1.438   9.767  1.3168  0.7551 -1.1259
32188SOL    HW2   96   6.343   1.321   9.832 -0.2781  0.4698  0.1729
32189SOL     OW   97  10.940   8.222   3.705  0.0696  0.6343 -0.4905
32189SOL    HW1   98  11.019   8.190   3.749 -0.4353  1.3011  0.9766
32189SOL    HW2   99  10.937   8.173   3.623  1.1374 -0.5814  0.1505
32190SOL     OW  100   8.029  10.749   6.294 -0.3402 -0.0664 -0.5178
32190SOL    HW1  101   7.974  10.725   6.369 -1.3321  0.4327 -1.0622
32190SOL    HW2  102   8.089  10.814   6.329  1.4018 -2.1248  0.6176
32191SOL     OW  103   8.973   1.788   7.578  0.3810  0.3838  0.0426
32191SOL    HW1  104   9.001   1.722   7.514 -1.3627  0.0011 -0.3626
32191SOL    HW2  105   8.947   1.863   7.525  0.5080  0.6778  0.3985
32192SOL     OW  106   4.423   0.560   4.519  0.0414  0.0466  1.1472
32192SOL    HW1  107   4.451   0.613   4.593 -2.0863  2.3192  0.4502
32192SOL    HW2  108   4.421   0.621   4.445 -0.2336 -1.5920 -0.2521
32193SOL     OW  109   9.816   0.889   2.210  0.1499 -0.0079 -0.0652
32193SOL    HW1  110   9.890   0.936   2.171 -0.0534  1.0032  0.7315
32193SOL    HW2  111   9.741   0.947   2.198 -0.3787 -0.6933 -0.1979
32194SOL     OW  112   8.452   5.944   0.027 -0.4616 -0.7748  0.2678
32194SOL    HW1  113   8.498   6.024   0.001  1.3515 -1.3628  1.5061
32194SOL    HW2  114   8.364   5.955  -0.009  0.0208  1.3231 -0.4387
32195SOL     OW  115   8.536   1.021   3.617 -0.1506 -0.5694 -0.7812
32195SOL    HW1  116   8.529   0.987   3.707  1.3992 -0.8921 -0.7482
32195SOL    HW2  117   8.498   0.952   3.563  0.8273 -1.3554 -0.5119
32196SOL     OW  118   7.273   2.075   6.482  0.1225 -0.1937  0.1408
32196SOL    HW1  119   7.292   2.037   6.397 -0.1508 -0.3110  0.1312
32196SOL    HW2  120   7.332   2.150   6.489  1.2293 -1.0798  0.4870
32197SOL     OW  121   4.173   8.744  10.361  1.0242  0.5723  0.7938
32197SOL    HW1  122   4.121   8.761  10.440 -0.1088  1.1122 -0.0297
32197SOL    HW2  123   4.183   8.649  10.359  0.5272  0.5034  1.2656
32198SOL     OW  124   5.435   3.022   5.812  0.5084 -0.4104  0.7242
32198SOL    HW1  125   5.512   2.967   5.828  0.9703  0.3452  1.1575
32198SOL    HW2  126   5.459   3.077   5.738  0.2010 -0.5066  0.5510
32199SOL     OW  127   6.578   2.658   3.156  0.0885  0.0124 -0.6768
32199SOL    HW1  128   6.539   2.711   3.087 -0.1304  0.6487 -0.0799
32199SOL    HW2  129   6.550   2.569   3.137 -1.2844  0.3853 -0.5321
32200SOL     OW  130   4.482   2.651   5.077  0.1909 -0.1820 -0.4274
32200SOL    HW1  131   4.464   2.637   4.984  0.6812  2.3497 -0.9795
32200SOL    HW2  132   4.576   2.636   5.086  0.0186 -1.1424 -0.1726
32201SOL     OW  133   0.231   1.536   6.545 -0.3167  0.0727  0.5628
32201SOL    HW1  134   0.323   1.517   6.562 -0.6322 -0.7768  1.4168
32201SOL    HW2  135   0.194   1.557   6.631 -1.3080 -1.3684  0.5227
32202SOL     OW  136   8.095   1.374   9.638 -1.0382 -0.1719  0.1119
32202SOL    HW1  137   8.187   1.349   9.643 -1.2682 -0.8434  2.8900
32202SOL    HW2  138   8.058   1.315   9.572  0.2944 -0.6029 -0.2938
32203SOL     OW  139   8.567   8.768   2.735  0.1360 -0.8002  0.2381
32203SOL    HW1  140   8.544   8.692   2.682 -1.9670 -0.2394  0.2532
32203SOL    HW2  141   8.561   8.737   2.826 -1.6271 -0.4330  0.2765
32204SOL     OW  142   8.615  10.753  10.523 -0.0522 -0.4366 -0.3270
32204SOL    HW1  143   8.559  10.822  10.486  0.3389  0.2082  0.2735
32204SOL    HW2  144   8.562  10.674  10.516  0.2170 -0.4667 -2.8046
32205SOL     OW  145   2.147   3.439   6.161  0.5035 -0.2373 -0.4361
32205SOL    HW1  146   2.170   3.409   6.073 -4.2429 -2.1707 -1.3294
32205SOL    HW2  147   2.081   3.507   6.146  2.1554  2.0189  1.7580
32206SOL     OW  148   7.869   5.231   5.277  0.4445 -0.4923  0.1050
32206SOL    HW1  149   7.946   5.187   5.242  0.6953  0.0615 -0.0550
32206SOL    HW2  150   7.891   5.324   5.274  0.4732 -0.4121  1.7349
32207SOL     OW  151   1.312   6.447   8.950 -0.8338 -0.5420 -0.4392
32207SOL    HW1  152   1.258   6.422   8.875 -1.4837  0.0180 -0.1703
32207SOL    HW2  153   1.260   6.513   8.996  0.4695  0.7089 -0.6914
32208SOL     OW  154  10.697   3.047   7.674  0.2311 -0.5113  0.2647
32208SOL    HW1  155  10.669   3.058   7.583  1.9288  1.3941 -0.1160
32208SOL    HW2  156  10.742   2.963   7.676  3.1353  0.8073 -1.6187
32209SOL     OW  157   1.787   4.696   8.088  0.1533 -0.3010 -0.0719
32209SOL    HW1  158   1.712   4.753   8.069  0.9877  0.9941  0.4267
32209SOL    HW2  159   1.825   4.677   8.003  0.7690  1.1580 -0.1471
32210SOL     OW  160   4.320   7.452   1.771  0.0442  0.4391  0.6973
32210SOL    HW1  161   4.296   7.528   1.717  0.0653  0.4613  0.7198
32210SOL    HW2  162   4.273   7.465   1.853 -0.7136 -0.0537  0.3594
32211SOL     OW  163   9.406   1.034   4.307 -0.3356  0.2601 -0.3257
32211SOL    HW1  164   9.438   0.986   4.383  0.8530  0.7424 -0.5057
32211SOL    HW2  165   9.314   1.007   4.299 -0.7957  0.9221  1.8513
32212SOL     OW  166   1.259   1.452  10.540  0.0853  0.3067 -0.1176
32212SOL    HW1  167   1.198   1.418  10.605 -1.1801  0.0342 -1.4051
32212SOL    HW2  168   1.337   1.396  10.549 -0.7000 -0.7958  0.0477
32213SOL     OW  169   9.701   9.475   2.966 -0.1299 -0.9183 -1.3554
32213SOL    HW1  170   9.686   9.548   2.905 -0.6621  0.3994  0.2863
32213SOL    HW2  171   9.785   9.496   3.008 -1.5524  0.3057  1.1161
32214SOL     OW  172   3.213   3.939   9.487 -0.3231 -0.1895 -0.2590
32214SOL    HW1  173   3.160   3.874   9.442  0.5811 -1.0992 -0.0405
32214SOL    HW2  174   3.299   3.933   9.446 -0.3669  1.2486 -0.5945
32215SOL     OW  175   9.082   2.204   1.024  0.0799 -0.2753 -0.6161
32215SOL    HW1  176   9.165   2.220   1.069 -0.3760  0.1544  0.1075
32215SOL    HW2  177   9.062   2.112   1.041 -0.8462  0.2544  1.4230
32216SOL     OW  178   3.316   4.401   5.938  0.1863 -0.2773 -0.2054
32216SOL    HW1  179   3.295   4.448   5.857 -1.5430  1.0366  0.9546
32216SOL    HW2  180   3.236   4.354   5.960 -0.0049  0.8657  1.7140
32217SOL     OW  181   5.740   9.203   7.366  0.9827 -0.6407 -0.3033
32217SOL    HW1  182   5.675   9.134   7.349 -1.5438  1.8822 -1.8428
32217SOL    HW2  183   5.697   9.260   7.429  1.1209  1.6905 -2.1803
32218SOL     OW  184   9.285  10.844   2.189  0.4204 -0.0428  0.2576
32218SOL    HW1  185   9.296  10.791   2.110  1.0775  0.4943 -0.0182
32218SOL    HW2  186   9.373  10.857   2.222  0.5783  2.7582 -0.9498
32219SOL     OW  187   8.243   3.874   4.962  0.2170 -0.1790  0.2779
32219SOL    HW1  188   8.201   3.805   4.911 -1.0669  1.2421 -0.7175
32219SOL    HW2  189   8.175   3.942   4.968  0.4146 -0.1299  3.6476
32220SOL     OW  190   7.518   6.199   2.261  0.2174  0.2898  0.5220
32220SOL    HW1  191   7.569   6.169   2.187  0.4437  0.6339  0.5387
32220SOL    HW2  192   7.489   6.119   2.304 -4.3333 -0.2806 -2.8275
32221SOL     OW  193   7.355   1.485   1.291  0.3203 -0.1219 -0.0660
32221SOL    HW1  194   7.288   1.551   1.273  1.9523  1.8105  0.6304
32221SOL    HW2  195   7.422   1.499   1.225  0.8781 -0.8603  0.3253
32222SOL     OW  196   5.014   7.839   4.273  0.3899 -0.5114  0.2694
32222SOL    HW1  197   4.939   7.874   4.323 -0.0987  1.0798 -1.4714
32222SOL    HW2  198   5.001   7.744   4.274 -1.5638 -0.2846  0.1903
32223SOL     OW  199   4.082   4.772  10.815 -0.1069 -0.3777  0.1070
32223SOL    HW1  200   3.988   4.766  10.799 -0.3588 -1.1586  1.6125
32223SOL    HW2  201   4.118   4.814  10.737 -2.0322  2.4404  0.6042
32224SOL     OW  202   3.580   6.309   6.008 -0.3634 -0.3101  0.4901
32224SOL    HW1  203   3.651   6.333   5.947 -1.1032  1.1742  0.1676
32224SOL    HW2  204   3.503   6.302   5.952 -0.7125 -0.6961  1.0199
32225SOL     OW  205   7.007   6.266   4.543 -0.1301  0.1397 -0.0602
32225SOL    HW1  206   6.988   6.321   4.619 -0.2303  1.8335 -1.2458
32225SOL    HW2  207   6.941   6.292   4.478  0.2548 -0.9081 -0.8948
32226SOL     OW  208   8.133   6.919   9.255 -0.3345  0.5086 -0.4679
32226SOL    HW1  209   8.162   6.897   9.167  1.0083  0.4015 -0.0205
32226SOL    HW2  210   8.191   6.991   9.282  0.4251 -0.5765  0.9384
32227SOL     OW  211   5.739   5.529   4.828  0.0162  0.4245 -0.0851
32227SOL    HW1  212   5.770   5.531   4.918  0.7475 -1.1340 -0.2735
32227SOL    HW2  213   5.813   5.498   4.777 -0.9600 -0.5758 -0.9561
32228SOL     OW  214   2.967   8.011   1.518 -0.4629 -0.4118  0.0340
32228SOL    HW1  215   2.934   8.060   1.444  0.0692 -1.0678 -0.6565
32228SOL    HW2  216   2.955   8.069   1.593 -1.4955  0.0526 -0.4761
32229SOL     OW  217   8.838   2.942   1.956  0.0133  0.0357  0.2057
32229SOL    HW1  218   8.745   2.947   1.980 -0.2733 -0.5273 -0.7652
32229SOL    HW2  219   8.877   2.887   2.024  0.1549  2.2324  2.0414
32230SOL     OW  220   8.290   3.266   1.720 -0.4950  0.7979 -0.3846
32230SOL    HW1  221   8.368   3.318   1.699 -0.6119  0.9299 -0.5001
32230SOL    HW2  222   8.283   3.271   1.815 -1.7198  2.8061 -0.5257
32231SOL     OW  223   2.691   4.417   5.380  0.1144  0.2797 -0.4078
32231SOL    HW1  224   2.698   4.503   5.340  0.3017  0.3831 -0.1563
32231SOL    HW2  225   2.757   4.418   5.450  1.4329 -0.7143 -1.5717
32232SOL     OW  226   7.745   8.563   5.369 -0.7353 -0.3301 -0.2103
32232SOL    HW1  227   7.822   8.582   5.316 -0.7421  0.3180 -0.0042
32232SOL    HW2  228   7.772   8.584   5.458 -0.7201 -1.4251  0.0441
32233SOL     OW  229   0.160   8.421   5.825 -0.8735  0.4848  0.3916
32233SOL    HW1  230   0.112   8.363   5.766  1.5114 -1.9971  0.7068
32233SOL    HW2  231   0.208   8.480   5.767  1.3874 -1.8846 -0.3436
32234SOL     OW  232   1.637   6.654   3.968 -0.6830  0.2739  0.0261
32234SOL    HW1  233   1.674   6.653   4.056 -0.9841  2.6230  0.2401
32234SOL    HW2  234   1.542   6.645   3.981 -0.5897 -1.6763 -0.2664
32235SOL     OW  235   6.552  10.862   4.823  0.5528  0.1585  0.5476
32235SOL    HW1  236   6.517  10.821   4.744 -0.4316  1.2457  0.3890
32235SOL    HW2  237   6.549  10.793   4.889 -0.3990 -0.2392  0.1071
32236SOL     OW  238   1.852   7.620   7.781  0.1728 -0.0563 -0.2019
32236SOL    HW1  239   1.895   7.540   7.751  1.4214  1.1314 -1.7665
32236SOL    HW2  240   1.924   7.678   7.807 -0.7137  0.4905  1.1927
32237SOL     OW  241   7.824  10.793   6.114 -0.1626  0.2095 -0.2339
32237SOL    HW1  242   7.889  10.793   6.185 -0.2874  0.0080 -0.1195
32237SOL    HW2  243   7.870  10.830   6.039 -0.1014  0.6532  0.0210
32238SOL     OW  244   1.394  10.618   3.099  0.0032  0.0754 -0.6223
32238SOL    HW1  245   1.301  10.632   3.117  0.0425 -0.5358  0.1534
32238SOL    HW2  246   1.409  10.526   3.121  0.6279 -0.0461 -1.5001
32239SOL     OW  247   5.558   6.916   7.381 -0.0747 -0.1287 -0.1666
32239SOL    HW1  248   5.615   6.840   7.366 -0.3944 -1.0709  2.7128
32239SOL    HW2  249   5.615   6.983   7.417  0.1553  0.9965 -2.4699
32240SOL     OW  250   9.657   1.582   3.728 -0.0648  0.2993  0.3827
32240SOL    HW1  251   9.607   1.543   3.657  2.3352 -1.2589 -0.5763
32240SOL    HW2  252   9.693   1.663   3.692 -0.2068  0.3624  0.3834
32241SOL     OW  253   2.619   9.547   4.536  0.4293 -0.1845  0.2759
32241SOL    HW1  254   2.687   9.614   4.542 -2.8850  3.4121  1.7975
32241SOL    HW2  255   2.606   9.534   4.442  1.7089  0.6947 -0.0496
32242SOL     OW  256  10.456   6.609   5.662 -0.5284  0.3680 -0.0477
32242SOL    HW1  257  10.448   6.677   5.729 -1.6828  0.5686 -0.3552
32242SOL    HW2  258  10.503   6.651   5.590  0.7976  0.1248  0.6391
32243SOL     OW  259   9.768  11.059   9.125 -0.3177 -0.3258 -0.6950
32243SOL    HW1  260   9.824  11.076   9.200  0.3038 -1.6703 -0.8168
32243SOL    HW2  261   9.750  11.146   9.088  0.2827  0.2587  0.3338
32244SOL     OW  262   4.977   9.482   1.626 -0.5105 -0.6713  0.2595
32244SOL    HW1  263   5.046   9.455   1.565  0.9524 -0.2031  1.6384
32244SOL    HW2  264   4.972   9.577   1.616 -0.3365 -0.6036  0.7746
32245SOL     OW  265   0.580   8.557   3.815 -0.6986  0.1909  0.2346
32245SOL    HW1  266   0.674   8.553   3.830 -1.0035 -0.0701  2.4530
32245SOL    HW2  267   0.549   8.467   3.826 -1.2891  0.3673  0.1024
32246SOL     OW  268   6.838   4.017   9.056 -0.0224  0.2210 -0.2801
32246SOL    HW1  269   6.746   4.032   9.079 -0.7785 -1.2326 -2.1079
32246SOL    HW2  270   6.870   4.102   9.027 -0.5581  0.8986  1.0112
32247SOL     OW  271  10.018   7.417   1.046  0.0605  0.1860  0.6682
32247SOL    HW1  272  10.044   7.493   1.099  1.5524 -0.0015  0.2483
32247SOL    HW2  273   9.934   7.442   1.009  1.4385  2.5703 -1.1327
32248SOL     OW  274   1.180   2.101  10.656 -0.2983 -0.4799  0.2967
32248SOL    HW1  275   1.237   2.083  10.731  0.3649 -0.9681 -0.3200
32248SOL    HW2  276   1.215   2.182  10.618 -0.2228 -0.5953  0.1191
32249SOL     OW  277   3.265   2.023   7.230  0.0745 -0.3862  0.4184
32249SOL    HW1  278   3.334   2.060   7.175  0.2734 -1.3049  0.0286
32249SOL    HW2  279   3.280   1.928   7.226 -0.9604 -0.5693  0.6551
32250SOL     OW  280   4.424  10.453   6.680  0.1069  0.2558 -0.3405
32250SOL    HW1  281   4.473  10.484   6.756  1.8122 -0.0457 -1.2467
32250SOL    HW2  282   4.379  10.375   6.710  0.7420  0.1522  0.3684
32251SOL     OW  283   4.928   1.826   6.231  0.1203  0.5076  0.3408
32251SOL    HW1  284   4.936   1.766   6.305  1.4470 -0.3248 -0.4518
32251SOL    HW2  285   4.944   1.772   6.154 -0.8261  1.4461 -0.5486
32252SOL     OW  286   1.211   2.758   9.895  0.1758 -0.0048  0.2490
32252SOL    HW1  287   1.211   2.852   9.877  0.3947 -0.1108 -0.3370
32252SOL    HW2  288   1.134   2.725   9.850 -0.3112 -0.0065  1.0604
32253SOL     OW  289   5.528   1.085   5.932  0.1875  0.3098  0.0309
32253SOL    HW1  290   5.507   1.146   6.004 -0.3441 -0.9246  0.9579
32253SOL    HW2  291   5.624   1.080   5.933  0.1633 -1.1675  1.9990
32254SOL     OW  292   9.980   7.389   5.591  0.4773  0.0696 -0.5493
32254SOL    HW1  293   9.985   7.367   5.684  0.2264 -0.3761 -0.6408
32254SOL    HW2  294  10.000   7.307   5.546  2.0218  0.5954 -0.8988
32255SOL     OW  295   5.383   9.608   8.927 -0.6882  0.1481 -0.3998
32255SOL    HW1  296   5.476   9.588   8.912 -0.6842  0.8396 -1.4191
32255SOL    HW2  297   5.384   9.689   8.977 -0.7143 -1.8574  3.1310
32256SOL     OW  298   8.171   8.939   2.113  0.2106  0.2708  0.5608
32256SOL    HW1  299   8.127   8.873   2.167  0.5870  0.8237  1.5732
32256SOL    HW2  300   8.143   8.919   2.024 -0.4595 -0.6490  0.9557
32257SOL     OW  301   1.715  10.359   0.351 -0.6227  0.1443 -0.0329
32257SOL    HW1  302   1.678  10.328   0.433 -0.3602 -0.3740 -0.1078
32257SOL    HW2  303   1.785  10.298   0.331  1.4807  2.0737  1.0033
32258SOL     OW  304   9.026   7.951   4.185  0.1531  0.4758 -0.0905
32258SOL    HW1  305   8.940   7.948   4.142  0.2572  1.3975 -0.3839
32258SOL    HW2  306   9.082   7.996   4.122  0.9592 -0.4777 -0.0678
32259SOL     OW  307   8.658   3.412   6.447 -0.4388  0.1845  0.2580
32259SOL    HW1  308   8.726   3.371   6.394 -0.4862 -0.0397  0.3667
32259SOL    HW2  309   8.584   3.351   6.442 -0.5345  0.2899  0.3681
32260SOL     OW  310   2.982  10.996   5.471  0.3803  0.8322  0.6993
32260SOL    HW1  311   3.008  10.906   5.450 -1.9102  0.3903 -0.5823
32260SOL    HW2  312   3.054  11.050   5.436  1.1243 -0.4169  0.2205
32261SOL     OW  313   9.703   8.767   1.395  0.1649 -0.7202 -0.3014
32261SOL    HW1  314   9.616   8.758   1.435  0.2494 -2.7647 -0.4723
32261SOL    HW2  315   9.726   8.679   1.366  2.9116 -0.5688  1.0283
32262SOL     OW  316   7.444   6.512   1.232  0.0724 -0.1144  0.2629
32262SOL    HW1  317   7.393   6.441   1.193 -0.0519  0.1151  0.0037
32262SOL    HW2  318   7.530   6.507   1.190  0.1735 -0.3237  0.4931
32263SOL     OW  319  10.557   4.470   9.626 -0.0154  0.4128  0.2584
32263SOL    HW1  320  10.533   4.379   9.610 -0.0205  0.5214 -0.3440
32263SOL    HW2  321  10.473   4.514   9.644 -0.2715  0.7352 -1.5791
32264SOL     OW  322   3.950   2.266   3.190  0.8604 -0.4497  0.1739
32264SOL    HW1  323   4.031   2.267   3.139  2.4737 -0.8833  2.5199
32264SOL    HW2  324   3.976   2.301   3.276 -1.5187 -0.3662  0.9380
32265SOL     OW  325   7.032   6.671   9.916  0.1169 -0.4814  0.0291
32265SOL    HW1  326   7.055   6.579   9.924  0.1828 -0.5907 -1.2360
32265SOL    HW2  327   7.096   6.707   9.855  1.6350  0.9938  2.3087
32266SOL     OW  328   0.993   2.134   3.930 -0.5215  0.3928  0.2110
32266SOL    HW1  329   0.998   2.229   3.938  1.8314  0.3614 -0.2410
32266SOL    HW2  330   1.076   2.102   3.965 -0.7716 -1.4151 -0.7216
32267SOL     OW  331  10.522   9.708  10.807  0.5383 -0.2196  0.2393
32267SOL    HW1  332  10.437   9.737  10.773  1.3107 -1.5671 -3.2225
32267SOL    HW2  333  10.577   9.786  10.803  0.0978  0.0922  0.1717
32268SOL     OW  334   0.275  10.861   8.990  0.2767  0.2678  0.6636
32268SOL    HW1  335   0.314  10.836   8.906  3.0755 -0.0619  1.9582
32268SOL    HW2  336   0.226  10.783   9.017  0.1865  0.0157 -0.1816
32269SOL     OW  337   9.188   5.444   6.155 -0.7967  0.7515  0.2154
32269SOL    HW1  338   9.280   5.453   6.181 -0.8158 -1.3306  1.2235
32269SOL    HW2  339   9.149   5.528   6.176  0.9150  1.7982 -0.5255
32270SOL     OW  340   9.028   6.272   5.071 -0.8877 -0.0869  0.0192
32270SOL    HW1  341   9.060   6.204   5.012 -0.1392  0.1481  0.1471
32270SOL    HW2  342   8.965   6.227   5.127 -0.2859 -0.7241  0.2058
32271SOL     OW  343   5.467   5.650   4.819  0.5752 -0.1464  0.4995
32271SOL    HW1  344   5.510   5.735   4.824 -0.1996  0.2797  0.1160
32271SOL    HW2  345   5.536   5.589   4.794  1.0493  0.4386  0.3602
32272SOL     OW  346   8.954   8.101   1.362 -1.1381  0.4672 -0.7832
32272SOL    HW1  347   8.890   8.071   1.298  0.0412 -0.5741 -1.5002
32272SOL    HW2  348   9.026   8.137   1.310 -1.1950  1.8261  0.0109
32273SOL     OW  349   0.137   2.474   5.715 -0.1666  0.0972 -0.1816
32273SOL    HW1  350   0.169   2.550   5.764 -0.9372  0.4239 -0.1744
32273SOL    HW2  351   0.042   2.478   5.723 -0.3235  0.1940 -1.7563
32274SOL     OW  352   4.895   6.821   8.334 -0.4474  0.6689  0.3378
32274SOL    HW1  353   4.986   6.796   8.325 -0.4861  1.0732 -1.7824
32274SOL    HW2  354   4.896   6.896   8.393  0.6502  0.9310  0.0068
32275SOL     OW  355   8.295   9.952   0.041  0.2385 -0.0789  0.5129
32275SOL    HW1  356   8.347  10.003   0.104 -0.5121 -1.1757  2.0644
32275SOL    HW2  357   8.266  10.017  -0.023  0.5112  1.1877  1.6276
32276SOL     OW  358   7.295   4.154   4.247  0.5981  0.2013  0.0375
32276SOL    HW1  359   7.305   4.230   4.190 -0.4786 -0.0880 -0.5832
32276SOL    HW2  360   7.233   4.098   4.200 -1.7044  0.7150  2.2555
32277SOL     OW  361   7.403  10.254   8.431 -0.0890  0.0693 -0.1008
32277SOL    HW1  362   7.320  10.292   8.458  0.2413  0.9088 -0.2332
32277SOL    HW2  363   7.403  10.262   8.335  1.1060  2.2028  0.0182
32278SOL     OW  364   0.639   0.346   6.180 -0.1179  0.2094  0.8683
32278SOL    HW1  365   0.573   0.313   6.120 -1.3717  3.9702 -0.1144
32278SOL    HW2  366   0.598   0.342   6.267  0.3826 -2.0508  1.0519
32279SOL     OW  367   3.054   1.249   6.415  0.4166  0.2318  0.0800
32279SOL    HW1  368   3.044   1.312   6.486  2.1702  0.7154 -0.0537
32279SOL    HW2  369   3.043   1.301   6.335  1.3722  0.2984 -0.0213
32280SOL     OW  370   9.404   7.072   2.205 -0.4222 -0.8129  0.0293
32280SOL    HW1  371   9.400   7.162   2.175 -0.0679 -0.4571  1.0071
32280SOL    HW2  372   9.314   7.042   2.203 -0.9520  0.4396  2.2116
32281SOL     OW  373   3.118   2.848   3.325  0.6895  0.0154  0.1933
32281SOL    HW1  374   3.139   2.760   3.292 -0.4805 -0.9968  1.9572
32281SOL    HW2  375   3.185   2.865   3.391  1.4503  0.8723 -0.7762
32282SOL     OW  376   4.241   4.840   8.708  0.1345  0.1513  0.1158
32282SOL    HW1  377   4.207   4.878   8.628  0.7087  0.5697  0.0615
32282SOL    HW2  378   4.309   4.901   8.737  1.7414 -1.2588 -0.4737
32283SOL     OW  379   7.546   3.371   9.500 -0.4004  0.4830 -0.5790
32283SOL    HW1  380   7.595   3.432   9.446  0.1528  0.0968 -0.5244
32283SOL    HW2  381   7.471   3.345   9.446 -1.5814  2.4468 -0.0052
32284SOL     OW  382   7.228  10.201   3.503  0.1030 -0.2589 -0.2393
32284SOL    HW1  383   7.235  10.192   3.598  0.6500  0.7530 -0.1637
32284SOL    HW2  384   7.137  10.179   3.483 -0.4051  0.8789  0.7034
32285SOL     OW  385   3.275   2.880   8.686 -0.3591 -0.0879 -0.2535
32285SOL    HW1  386   3.223   2.960   8.679 -1.4699 -0.8406 -0.9422
32285SOL    HW2  387   3.256   2.847   8.774 -1.7875 -0.8190 -0.8046
32286SOL     OW  388   0.380   8.165   4.559  0.3201  0.8252  0.1220
32286SOL    HW1  389   0.464   8.206   4.541 -0.5358  2.1562 -1.0773
32286SOL    HW2  390   0.382   8.144   4.652  2.2696  0.0746 -0.0445
32287SOL     OW  391   4.785   3.099   6.710 -0.3312 -0.0590  0.2385
32287SOL    HW1  392   4.857   3.152   6.743  0.6895 -0.4623 -1.2714
32287SOL    HW2  393   4.776   3.125   6.618 -1.8270 -0.3455  0.2745
32288SOL     OW  394   4.950   1.082   8.913  0.2855  0.4237 -0.1342
32288SOL    HW1  395   4.999   1.080   8.831 -1.8944 -3.5075 -1.6159
32288SOL    HW2  396   4.870   1.131   8.892  0.2351  0.4064  0.0182
32289SOL     OW  397   8.676   3.880   6.325  0.2069 -0.5228 -0.1193
32289SOL    HW1  398   8.636   3.902   6.241  2.0088 -1.4630 -1.2945
32289SOL    HW2  399   8.749   3.940   6.333  1.0960 -1.5701 -0.1024
32290SOL     OW  400   2.377   2.332   1.140  0.1615 -0.0186 -0.4210
32290SOL    HW1  401   2.322   2.336   1.061 -0.2460 -0.3897 -0.1587
32290SOL    HW2  402   2.342   2.259   1.190  1.0100 -0.3755 -0.3274
32291SOL     OW  403   0.164   1.709   1.762  0.0376  0.2958 -0.0365
32291SOL    HW1  404   0.214   1.790   1.775 -0.4674  1.3099 -3.3260
32291SOL    HW2  405   0.075   1.730   1.791  0.0091  0.8094 -0.4821
32292SOL     OW  406   8.011  10.334   5.294  0.3609  0.2884 -0.0612
32292SOL    HW1  407   7.989  10.273   5.222  0.5506  0.8369 -0.5898
32292SOL    HW2  408   8.075  10.394   5.256  2.3353 -0.8661  1.2532
32293SOL     OW  409   1.163   3.610   9.559  0.1093  0.0170 -0.2237
32293SOL    HW1  410   1.164   3.524   9.602  0.6154 -0.0348 -0.3324
32293SOL    HW2  411   1.209   3.667   9.621  1.5544 -0.2269 -1.0245
32294SOL     OW  412   0.287   6.369   7.368  0.0585 -0.0145 -0.4248
32294SOL    HW1  413   0.349   6.427   7.412  2.4027 -1.9728 -0.9463
32294SOL    HW2  414   0.208   6.373   7.421  0.9856  1.7289  0.9125
32295SOL     OW  415   6.671   5.773  11.051  0.3868  0.7249 -0.4773
32295SOL    HW1  416   6.692   5.866  11.040 -1.1791  1.1709  0.1232
32295SOL    HW2  417   6.577   5.768  11.033  0.0739 -0.4290  1.3011
32296SOL     OW  418   7.954   1.414   8.205  0.0588 -0.3429  0.5521
32296SOL    HW1  419   7.860   1.434   8.207 -0.0538 -0.6439 -0.7977
32296SOL    HW2  420   7.958   1.318   8.201  0.4031 -0.3134  0.1005
32297SOL     OW  421   5.001   3.744   2.056 -0.1860  0.1970 -0.2383
32297SOL    HW1  422   4.987   3.839   2.062  0.2357  0.1796  2.9906
32297SOL    HW2  423   5.056   3.733   1.979 -1.7094  2.3321 -1.7697
32298SOL     OW  424   8.589   2.849   0.608  0.4935  0.5908 -0.1843
32298SOL    HW1  425   8.660   2.823   0.666 -0.2850 -1.4853 -0.0605
32298SOL    HW2  426   8.512   2.856   0.666  0.1854  0.7785 -0.6096
32299SOL     OW  427   6.047   5.527   3.074 -0.0755  0.3740  0.1417
32299SOL    HW1  428   5.985   5.502   3.142 -0.3356  2.0241  0.5648
32299SOL    HW2  429   6.108   5.586   3.118 -0.4463  1.7496 -1.1114
32300SOL     OW  430   1.565   7.831   3.652 -0.1725  0.1019  0.3294
32300SOL    HW1  431   1.623   7.893   3.696  0.2313 -0.7200  0.9851
32300SOL    HW2  432   1.607   7.746   3.664 -0.3512 -0.2278 -1.1575
32301SOL     OW  433   4.971   3.792   4.310 -0.3437 -0.1645  0.0482
32301SOL    HW1  434   4.964   3.780   4.215 -0.1309  0.1594 -0.0105
32301SOL    HW2  435   4.888   3.833   4.335  0.3535  1.5480 -0.2985
32302SOL     OW  436   3.920   5.672   6.684  0.0290 -0.7041  0.1772
32302SOL    HW1  437   3.863   5.747   6.667 -0.4019 -1.0405  0.1366
32302SOL    HW2  438   3.862   5.604   6.717  0.3218 -1.2218 -0.3516
32303SOL     OW  439   9.507   1.342   8.652  0.3157  0.2492  0.3145
32303SOL    HW1  440   9.561   1.388   8.587  0.1582 -1.2855 -0.9607
32303SOL    HW2  441   9.559   1.265   8.676 -0.2635  0.0406  0.9151
32304SOL     OW  442   6.476   3.186   5.404 -0.0964  0.1132  0.0535
32304SOL    HW1  443   6.391   3.184   5.448  0.5778  0.7186  1.4429
32304SOL    HW2  444   6.516   3.102   5.424 -0.2064 -0.0222 -0.2849
32305SOL     OW  445   5.209   0.275   3.276 -0.0200  0.2429  0.0661
32305SOL    HW1  446   5.293   0.288   3.232  1.1197  0.7233  2.2381
32305SOL    HW2  447   5.199   0.180   3.281 -0.4179  0.1610 -1.5658
32306SOL     OW  448   3.582   0.269   5.145 -0.3187 -0.1619 -0.4040
32306SOL    HW1  449   3.614   0.351   5.106 -1.1910  0.3314 -0.1069
32306SOL    HW2  450   3.577   0.287   5.239  1.4794 -1.2449 -0.0492
32307SOL     OW  451   3.074   7.293   2.996  0.2731  0.2494 -0.0859
32307SOL    HW1  452   3.129   7.298   3.074 -2.1070  2.1266  1.6332
32307SOL    HW2  453   3.006   7.359   3.010 -1.1846 -0.4333 -3.0489
32308SOL     OW  454   3.820   0.345   7.072 -0.3596 -0.5936  0.2032
32308SOL    HW1  455   3.759   0.408   7.034  2.3619  1.5175 -1.0149
32308SOL    HW2  456   3.770   0.301   7.140 -3.0297  1.4110 -0.3175
32309SOL     OW  457   4.054   8.561   9.877 -0.2107 -0.1381  0.0829
32309SOL    HW1  458   3.962   8.546   9.901 -0.2215 -1.4101 -0.6692
32309SOL    HW2  459   4.067   8.509   9.798  2.0422 -2.7514  1.9719
32310SOL     OW  460  10.626   2.480   9.600 -0.2864 -0.1668  0.1237
32310SOL    HW1  461  10.538   2.475   9.637 -0.6651  0.3679 -0.6771
32310SOL    HW2  462  10.684   2.482   9.676 -1.0732  1.9252  0.7335
32311SOL     OW  463   9.862   6.184   5.570 -0.1122 -0.5947 -0.4335
32311SOL    HW1  464   9.943   6.182   5.519 -0.6424 -1.6637 -1.2740
32311SOL    HW2  465   9.812   6.109   5.539  0.7738 -3.2388  3.7855
32312SOL     OW  466   4.223   9.892   4.453  0.2746  0.2206 -0.0469
32312SOL    HW1  467   4.280   9.961   4.420  0.6583 -0.4149 -0.7139
32312SOL    HW2  468   4.281   9.831   4.498 -0.0257  0.1666  0.2770
32313SOL     OW  469   6.961   0.067   1.845 -0.0449  0.1079  0.1565
32313SOL    HW1  470   7.056   0.077   1.860  0.0538  1.3152 -1.0726
32313SOL    HW2  471   6.944  -0.026   1.862  1.6972 -0.5453 -1.3112
32314SOL     OW  472   8.846   7.497   6.285  0.0107  0.2382 -0.0816
32314SOL    HW1  473   8.816   7.512   6.375  0.8682 -0.4541  0.3393
32314SOL    HW2  474   8.878   7.582   6.255 -1.2319  0.7195 -0.1231
32315SOL     OW  475  10.923   2.866   3.667 -0.0122 -0.1439 -0.8488
32315SOL    HW1  476  10.901   2.955   3.637 -2.7466 -0.9168 -1.3979
32315SOL    HW2  477  10.947   2.819   3.587 -1.2992 -0.6059 -0.9747
32316SOL     OW  478   0.010   9.424   3.714  0.4465  0.4693  0.2773
32316SOL    HW1  479  -0.021   9.352   3.659  0.2416  0.1550  0.7924
32316SOL    HW2  480  -0.070   9.466   3.746  0.4923 -0.7294  2.1183
32317SOL     OW  481   7.551   4.865   8.701 -0.0823 -0.3247 -0.2949
32317SOL    HW1  482   7.601   4.889   8.779  0.3217 -0.7355 -0.4260
32317SOL    HW2  483   7.519   4.777   8.719 -2.2004  0.5459  0.5006
32318SOL     OW  484   6.332   5.869   1.515 -0.5682  0.4766  0.1006
32318SOL    HW1  485   6.354   5.933   1.582 -0.7441 -2.5872  3.4313
32318SOL    HW2  486   6.415   5.824   1.498 -0.9319 -0.1260 -0.1061
32319SOL     OW  487   8.312   0.150   0.949 -0.0512  0.1854 -0.0143
32319SOL    HW1  488   8.248   0.139   0.878 -0.7757  1.5499  0.3914
32319SOL    HW2  489   8.395   0.161   0.904 -0.3528  0.0684 -0.6130
32320SOL     OW  490   1.816   1.890   2.880 -0.3670  0.1990  0.8008
32320SOL    HW1  491   1.833   1.823   2.946  1.1897  1.0028  1.2984
32320SOL    HW2  492   1.778   1.963   2.930 -1.2604  0.0128  0.4097
32321SOL     OW  493   5.196   2.112  10.878  0.4355 -0.6159  0.7680
32321SOL    HW1  494   5.141   2.073  10.946  2.3983 -1.3359  2.0250
32321SOL    HW2  495   5.215   2.040  10.818  0.7478 -0.6163  0.8616
32322SOL     OW  496   7.438   9.113   8.972  0.1168 -0.5288 -0.4691
32322SOL    HW1  497   7.347   9.097   8.945 -0.1684  2.2324 -1.5030
32322SOL    HW2  498   7.490   9.055   8.916 -0.9232 -0.7200 -1.2775
32323SOL     OW  499   0.824  10.165   1.348 -0.0720  0.5370 -0.0574
32323SOL    HW1  500   0.774  10.219   1.286  1.9368  0.5392 -1.7712
32323SOL    HW2  501   0.767  10.158   1.424 -1.9458  1.9698 -1.2298
32324SOL     OW  502   0.947   4.286   3.148 -0.3786  0.1182 -0.3078
32324SOL    HW1  503   0.910   4.219   3.207 -0.5225 -0.5366 -1.1212
32324SOL    HW2  504   1.000   4.342   3.205 -0.7241 -0.3473  0.4860
32325SOL     OW  505   5.688   9.416   6.790  0.2163 -0.1717 -1.0021
32325SOL    HW1  506   5.673   9.506   6.819 -0.1076  0.0472 -1.8201
32325SOL    HW2  507   5.624   9.403   6.720  0.1459 -1.0961 -0.7786
32326SOL     OW  508   8.924  10.289   4.516  0.2243  0.0944  0.2571
32326SOL    HW1  509   8.840  10.289   4.563  1.4284 -1.5403  2.6574
32326SOL    HW2  510   8.951  10.197   4.517  1.4920  0.3917 -1.6063
32327SOL     OW  511   3.722   1.555   0.274  0.5639 -0.2563  0.6751
32327SOL    HW1  512   3.801   1.505   0.294  0.8352 -1.1872 -2.3218
32327SOL    HW2  513   3.720   1.560   0.179 -2.2300  1.0276  0.7121
32328SOL     OW  514   6.035   2.343   3.212  0.0257 -0.2038 -0.0708
32328SOL    HW1  515   6.126   2.312   3.210 -0.0121 -0.4959  1.4397
32328SOL    HW2  516   6.031   2.401   3.288 -0.4610  1.8659 -1.5973
32329SOL     OW  517   5.334   2.452   8.502  0.1021 -0.2066  0.2786
32329SOL    HW1  518   5.412   2.410   8.465 -1.2770 -1.1970 -1.6980
32329SOL    HW2  519   5.274   2.380   8.520 -1.4149  0.6757 -0.9415
32330SOL     OW  520   1.956   7.908   6.036  0.4780  0.2171 -0.1456
32330SOL    HW1  521   1.967   7.816   6.058 -0.4458  0.1678  0.1888
32330SOL    HW2  522   1.980   7.955   6.116  2.1927  0.3623 -0.7104
32331SOL     OW  523   4.873   5.869   1.065  0.1169 -0.7381  0.2684
32331SOL    HW1  524   4.905   5.930   1.132 -1.1168 -2.2079  2.3137
32331SOL    HW2  525   4.941   5.868   0.998  0.5835  2.1556  0.5924
32332SOL     OW  526   9.742  11.084   5.025  0.2587  0.2825  0.5755
32332SOL    HW1  527   9.712  11.055   4.938  0.7080 -0.4028  0.6368
32332SOL    HW2  528   9.687  11.036   5.086  0.9347 -0.3993  0.6769
32333SOL     OW  529   7.563   1.592   9.701 -0.5429 -0.3084  0.4534
32333SOL    HW1  530   7.564   1.601   9.605 -1.5018 -0.2686  0.4365
32333SOL    HW2  531   7.647   1.552   9.722 -0.1893 -0.0324 -0.3800
32334SOL     OW  532   3.953   0.346   6.838  0.6607 -0.1798  0.2999
32334SOL    HW1  533   3.880   0.342   6.898 -0.2289 -0.9293 -0.7958
32334SOL    HW2  534   4.000   0.426   6.862 -1.3140  1.0787  0.1259
32335SOL     OW  535   1.374   1.840   3.978  0.0929 -0.6463 -0.4501
32335SOL    HW1  536   1.453   1.893   3.971 -0.3405  0.2969  1.2080
32335SOL    HW2  537   1.337   1.841   3.890  2.3678 -1.8952 -1.5054
32336SOL     OW  538   7.832   3.825   3.990  0.2541 -0.5130  0.3263
32336SOL    HW1  539   7.903   3.887   3.973 -0.2490  0.4981  1.7166
32336SOL    HW2  540   7.876   3.744   4.016  0.9509  0.4479  2.3548
32337SOL     OW  541   6.827   2.565   6.737 -0.2071  0.2058  0.1396
32337SOL    HW1  542   6.835   2.642   6.681 -0.8769  0.6918  0.7031
32337SOL    HW2  543   6.775   2.503   6.686  2.0563 -0.7308 -1.1843
32338SOL     OW  544   4.619   4.836   8.915  0.3926  0.0528  0.0638
32338SOL    HW1  545   4.580   4.922   8.901 -1.9160 -1.0762 -0.8296
32338SOL    HW2  546   4.692   4.832   8.853  1.7076  1.9839  1.3596
32339SOL     OW  547   6.479   5.255   1.641 -0.3514  0.2750 -0.2561
32339SOL    HW1  548   6.443   5.326   1.588  0.0622  1.2808  0.7514
32339SOL    HW2  549   6.495   5.184   1.579 -3.0327  0.1509 -0.9042
32340SOL     OW  550   8.187   4.266   7.872  0.2204 -0.1110  0.3396
32340SOL    HW1  551   8.152   4.328   7.808  1.1886  0.9176  0.7784
32340SOL    HW2  552   8.127   4.191   7.868  0.4046 -0.2091 -1.9578
32341SOL     OW  553   5.079   8.604   9.871 -0.6241 -0.2707 -0.2347
32341SOL    HW1  554   4.990   8.570   9.884 -0.1641 -2.1350 -1.4991
32341SOL    HW2  555   5.112   8.619   9.960 -1.1916 -2.4400  0.4116
32342SOL     OW  556   1.192   5.467   0.007 -0.3297  0.6185  0.3547
32342SOL    HW1  557   1.221   5.401  -0.055  1.5313  0.5457  1.2384
32342SOL    HW2  558   1.124   5.516  -0.040  0.5115  0.1157 -1.4582
32343SOL     OW  559   6.667   7.616   5.175  0.3082 -0.0079 -0.3877
32343SOL    HW1  560   6.719   7.693   5.196  0.8702  0.5670 -3.4801
32343SOL    HW2  561   6.628   7.591   5.259  0.3744  3.3854  0.8291
32344SOL     OW  562   2.932   4.383   9.385 -0.3355 -0.0973 -0.2645
32344SOL    HW1  563   2.935   4.453   9.450 -1.8395 -0.2789  0.0296
32344SOL    HW2  564   2.844   4.346   9.393  0.6331 -2.5069  0.0837
32345SOL     OW  565   6.241  10.921   9.835 -0.5596  0.3728 -0.1166
32345SOL    HW1  566   6.233  10.899   9.742 -0.4458 -1.5861  0.2966
32345SOL    HW2  567   6.333  10.946   9.846 -0.1021 -1.2089 -0.1964
32346SOL     OW  568   2.580   4.796   5.700  0.1691  0.4105  0.4003
32346SOL    HW1  569   2.569   4.705   5.729  2.6960 -0.1505 -0.2007
32346SOL    HW2  570   2.521   4.805   5.625 -0.0028 -0.7730  0.3818
32347SOL     OW  571   3.965   7.282  10.812 -0.1828 -0.1769 -0.2645
32347SOL    HW1  572   4.034   7.216  10.824 -1.3491 -1.2492  0.7575
32347SOL    HW2  573   3.927   7.261  10.726 -2.8892 -3.2195  1.4616
32348SOL     OW  574   7.746   8.040   9.540  0.1742 -0.2470 -0.3373
32348SOL    HW1  575   7.779   8.095   9.469 -1.9300  1.5239 -0.0584
32348SOL    HW2  576   7.789   8.072   9.619 -1.5383  1.6098 -0.0711
32349SOL     OW  577   8.020   0.207   1.562  0.0715  0.5230  0.0450
32349SOL    HW1  578   8.110   0.235   1.548 -0.1141  1.6098  0.8494
32349SOL    HW2  579   7.969   0.289   1.559 -0.8561 -0.0528 -0.2407
32350SOL     OW  580   7.350   6.703   1.491  0.1208  0.4780  0.5687
32350SOL    HW1  581   7.285   6.650   1.444  0.1266  1.2529 -0.3381
32350SOL    HW2  582   7.434   6.659   1.473  0.1794  1.0148 -0.5328
32351SOL     OW  583   1.511   2.288   7.390 -0.0440  0.7032 -0.6735
32351SOL    HW1  584   1.480   2.317   7.476  0.3743 -0.8869  0.0505
32351SOL    HW2  585   1.603   2.266   7.404  0.9122  3.1813 -2.2577
32352SOL     OW  586   6.833   3.018   9.265 -0.0413  0.1546 -0.0578
32352SOL    HW1  587   6.760   3.023   9.203  0.9779 -0.2216 -1.3047
32352SOL    HW2  588   6.842   3.107   9.298 -0.8802  0.2661 -0.0946
32353SOL     OW  589   4.145   9.660   5.217 -0.1246  0.1665  1.1960
32353SOL    HW1  590   4.147   9.567   5.240  0.5396  0.0252  0.5977
32353SOL    HW2  591   4.217   9.700   5.266  0.0188  0.2342  0.9363
32354SOL     OW  592   5.735   5.956   1.525  0.1480  0.2659  0.1389
32354SOL    HW1  593   5.690   5.956   1.440  0.3693  0.8885  0.0166
32354SOL    HW2  594   5.719   6.043   1.561  0.0130 -0.0111  0.7658
32355SOL     OW  595   6.708   0.443   9.565 -0.2461 -0.1103 -0.4390
32355SOL    HW1  596   6.689   0.353   9.539 -0.0768 -0.0273 -0.8474
32355SOL    HW2  597   6.803   0.445   9.578 -0.4765 -0.5713  1.7839
32356SOL     OW  598   0.945   3.707   3.901 -0.1210 -0.8484 -0.0745
32356SOL    HW1  599   0.983   3.733   3.985  0.6153 -2.6566  0.1935
32356SOL    HW2  600   0.975   3.617   3.887 -0.4702 -0.6974 -2.1475
32357SOL     OW  601   3.066   7.876   6.992  0.2335  0.1649  0.1250
32357SOL    HW1  602   3.024   7.833   7.066  0.2652 -1.1466 -0.5936
32357SOL    HW2  603   3.085   7.965   7.023  2.0782 -0.9053  2.4143
32358SOL     OW  604   5.134   1.222   5.685 -0.6596  0.0448  0.6498
32358SOL    HW1  605   5.087   1.147   5.649 -0.4808  0.2272  0.0246
32358SOL    HW2  606   5.143   1.203   5.779 -2.5586  0.3118  0.9142
32359SOL     OW  607   4.140   5.041   9.593 -0.7871 -0.8406 -0.3558
32359SOL    HW1  608   4.106   5.092   9.667 -0.6456 -2.1026  0.6092
32359SOL    HW2  609   4.134   5.100   9.518  1.2870  1.3828  1.0714
32360SOL     OW  610   1.240  10.805   7.127  0.1070  0.5444  0.3053
32360SOL    HW1  611   1.197  10.762   7.202  1.3351 -1.8174 -0.2357
32360SOL    HW2  612   1.182  10.786   7.054 -1.3119  3.2128  0.6122
32361SOL     OW  613   9.661   7.421  10.708  0.1133  0.2125 -0.5446
32361SOL    HW1  614   9.750   7.443  10.737 -0.2219  1.1439 -0.1858
32361SOL    HW2  615   9.640   7.340  10.754  0.8796 -0.1611 -0.8429
32362SOL     OW  616   9.856   9.105   5.006 -0.4315 -0.6981  0.7095
32362SOL    HW1  617   9.857   9.084   5.100  0.4633  1.8412  1.3514
32362SOL    HW2  618   9.808   9.187   5.001  2.7774  1.2781 -0.4994
32363SOL     OW  619  10.848   9.263   3.122 -0.3223 -0.0890 -0.3601
32363SOL    HW1  620  10.761   9.233   3.093 -0.3048  0.3558 -0.8966
32363SOL    HW2  621  10.850   9.243   3.215 -1.3499  0.6877 -0.1442
32364SOL     OW  622   9.974   6.347   9.927 -0.0632  0.7738 -0.8746
32364SOL    HW1  623   9.920   6.421   9.901  2.3082  2.9939  0.0934
32364SOL    HW2  624   9.984   6.355  10.022  0.7646 -0.4103 -0.8259
32365SOL     OW  625   5.991  11.020   8.717 -0.2604 -0.1002  0.0059
32365SOL    HW1  626   6.018  11.047   8.629  1.7389 -1.6514  0.0839
32365SOL    HW2  627   5.914  10.966   8.702 -0.5004  0.4065 -0.6893
32366SOL     OW  628   9.423   2.779   7.271  0.5126  0.0788 -0.2880
32366SOL    HW1  629   9.361   2.717   7.231 -0.0619  0.6955 -0.3698
32366SOL    HW2  630   9.495   2.785   7.209  0.5311 -0.4329 -0.3234
32367SOL     OW  631   7.480   4.487   6.163  0.4981  0.5782  0.1696
32367SOL    HW1  632   7.565   4.525   6.188  0.3560  0.6397  0.5660
32367SOL    HW2  633   7.503   4.408   6.113  0.7961 -0.3940  1.7720
32368SOL     OW  634  10.612   0.115   4.506  0.1593 -0.0452  0.1918
32368SOL    HW1  635  10.592   0.029   4.544  0.9674 -0.0707  0.5717
32368SOL    HW2  636  10.544   0.173   4.540  1.3616  0.1410  2.4360
32369SOL     OW  637   1.743   9.773   3.360  0.1186  0.0250  0.1340
32369SOL    HW1  638   1.690   9.720   3.420 -0.4446 -0.5270 -0.8318
32369SOL    HW2  639   1.755   9.856   3.406 -0.5636 -0.2770  0.8800
32370SOL     OW  640  10.113   0.438   1.415 -0.1540  0.5448  0.6533
32370SOL    HW1  641  10.159   0.462   1.335 -0.4853 -0.1110  0.2654
32370SOL    HW2  642  10.113   0.343   1.416  1.0446  0.5150  2.1332
32371SOL     OW  643   5.129   6.277   1.341 -0.4647 -0.3555 -0.1061
32371SOL    HW1  644   5.206   6.321   1.376  0.0141 -0.8117 -0.5814
32371SOL    HW2  645   5.055   6.330   1.373  0.1266  1.3282 -1.4013
32372SOL     OW  646  10.362   9.553   2.897 -0.2780 -0.6107 -0.2273
32372SOL    HW1  647  10.273   9.520   2.910 -0.0352 -0.9473  0.7168
32372SOL    HW2  648  10.412   9.512   2.968  0.6295 -0.4433 -0.7659
32373SOL     OW  649   5.891   7.017   2.628 -0.1628 -0.1999  0.2809
32373SOL    HW1  650   5.799   7.043   2.622  0.4278  2.5535  1.5494
32373SOL    HW2  651   5.905   7.000   2.721  0.7627  0.1333  0.2124
32374SOL     OW  652   0.666   3.627   8.016 -0.0480  0.0509  0.2659
32374SOL    HW1  653   0.721   3.563   8.062  0.0159 -0.6283 -0.7207
32374SOL    HW2  654   0.711   3.711   8.028 -0.0305 -0.1034  1.4143
32375SOL     OW  655  10.747   0.961   0.403  0.0453 -0.4071 -0.4897
32375SOL    HW1  656  10.697   1.001   0.332 -2.4665 -0.9927  0.8269
32375SOL    HW2  657  10.814   0.908   0.359  0.3290  1.3366 -2.3052
32376SOL     OW  658  10.077   0.055   6.819  0.5008 -0.0690 -0.0081
32376SOL    HW1  659  10.146   0.002   6.780  2.6716  1.9573  0.8046
32376SOL    HW2  660   9.998   0.003   6.809  1.7956 -1.7665 -2.5862
32377SOL     OW  661  10.202   5.668   3.797  0.4431 -0.0648 -0.3621
32377SOL    HW1  662  10.121   5.697   3.756  0.6277  0.9091 -0.0711
32377SOL    HW2  663  10.269   5.726   3.760  0.7157  0.3474  0.7479
32378SOL     OW  664   2.541   3.154   2.683 -0.4509 -0.1786 -0.0521
32378SOL    HW1  665   2.483   3.182   2.612  0.0446  0.0647 -0.3646
32378SOL    HW2  666   2.564   3.235   2.728  0.2462 -0.1742 -0.3953
32379SOL     OW  667   6.108   1.852   2.070 -0.2190 -0.1191  0.0896
32379SOL    HW1  668   6.053   1.808   2.005 -1.4338  0.1516  0.9063
32379SOL    HW2  669   6.113   1.943   2.041  0.1434 -0.2291 -0.2006
32380SOL     OW  670   2.011   8.846   9.541 -0.2725 -0.8249  0.0900
32380SOL    HW1  671   2.098   8.810   9.525  0.7364  1.3573  0.2943
32380SOL    HW2  672   2.024   8.941   9.544 -2.9890 -0.2841 -1.8024
32381SOL     OW  673   6.677   5.767   0.636  0.1438  0.1027 -0.4499
32381SOL    HW1  674   6.768   5.776   0.608  0.6672  3.0295  1.6963
32381SOL    HW2  675   6.631   5.836   0.587 -1.0010 -1.3388 -1.4997
32382SOL     OW  676   0.053  10.675   3.917  0.5509  0.3760 -0.5912
32382SOL    HW1  677   0.091  10.669   4.005 -1.9929 -1.3883  0.5320
32382SOL    HW2  678  -0.025  10.730   3.928  1.4134  2.0469 -2.3014
32383SOL     OW  679   2.923   8.787   9.072 -0.8609 -0.4214 -0.4930
32383SOL    HW1  680   2.940   8.876   9.040  2.5106  0.7838  3.6665
32383SOL    HW2  681   2.840   8.794   9.118 -0.9061  0.4816 -0.6864
32384SOL     OW  682   9.007   2.974   5.201  0.2019  0.7056  0.6521
32384SOL    HW1  683   9.023   3.068   5.204 -0.1800  0.7981 -0.0199
32384SOL    HW2  684   8.912   2.966   5.209  0.2222  0.3871  0.5892
32385SOL     OW  685   3.935  10.553   8.197  0.0542  0.0116  0.1293
32385SOL    HW1  686   3.997  10.484   8.171  0.1486  0.5973 -1.2929
32385SOL    HW2  687   3.969  10.633   8.157 -1.2668  0.4761 -0.1232
32386SOL     OW  688   6.325  10.779   6.752 -0.2649 -0.4929  0.4914
32386SOL    HW1  689   6.385  10.798   6.680  0.0542  1.0898  1.1439
32386SOL    HW2  690   6.380  10.743   6.821 -0.5586 -1.9261  0.0159
32387SOL     OW  691   0.677   1.982   6.444  0.0287  0.5997 -0.0588
32387SOL    HW1  692   0.758   1.934   6.429 -0.6105 -0.3779 -0.4356
32387SOL    HW2  693   0.610   1.932   6.398 -0.9023  1.0264  0.7944
32388SOL     OW  694   3.083   3.832   0.525 -0.4820 -0.5103 -0.2069
32388SOL    HW1  695   3.014   3.881   0.482 -2.1592 -1.1572  1.6187
32388SOL    HW2  696   3.113   3.890   0.596  0.0406 -0.7202 -0.2470
32389SOL     OW  697   5.373   2.384   4.054 -0.1622  0.2297  0.2621
32389SOL    HW1  698   5.365   2.289   4.049  2.2130  0.0089 -1.0801
32389SOL    HW2  699   5.382   2.402   4.148  0.4163 -0.9950  0.4670
32390SOL     OW  700   3.844   5.639   7.820  0.1068 -0.3422 -0.1450
32390SOL    HW1  701   3.841   5.674   7.908  1.3455  1.3648 -0.7357
32390SOL    HW2  702   3.761   5.593   7.809 -0.1606 -0.3687  1.8017
32391SOL     OW  703  10.521   4.597   0.524 -0.2324 -0.2461  0.0055
32391SOL    HW1  704  10.613   4.571   0.520  0.0897  0.8740 -0.1541
32391SOL    HW2  705  10.472   4.518   0.500  0.5598 -1.6085  2.4629
32392SOL     OW  706   6.613   5.471  10.536 -0.0351 -0.2699 -0.1667
32392SOL    HW1  707   6.576   5.494  10.621 -0.2120  0.8922 -0.5284
32392SOL    HW2  708   6.538   5.441  10.485 -0.8767  3.1590 -1.2699
32393SOL     OW  709   4.267   9.340   0.594  0.5307 -0.0234 -0.4093
32393SOL    HW1  710   4.268   9.245   0.601  1.4395 -0.0663 -1.0160
32393SOL    HW2  711   4.204   9.368   0.661 -0.8538 -1.1204 -1.2093
32394SOL     OW  712   1.151  10.236   6.968 -0.0247  0.2138 -0.1004
32394SOL    HW1  713   1.182  10.147   6.982  1.2111  0.7244  0.4506
32394SOL    HW2  714   1.193  10.288   7.036 -0.5215  1.2691 -0.5796
32395SOL     OW  715   5.394   9.255   3.001 -0.4982  0.1092  0.3564
32395SOL    HW1  716   5.316   9.207   3.031  0.3599 -0.3692  1.9189
32395SOL    HW2  717   5.465   9.223   3.057  0.7360  0.9082 -0.6995
32396SOL     OW  718   9.593   9.867   2.738 -0.0715 -0.1151  0.6475
32396SOL    HW1  719   9.636   9.851   2.822  0.9183 -0.5340  0.0823
32396SOL    HW2  720   9.586   9.962   2.732  0.1046 -0.0741  1.0884
32397SOL     OW  721   5.311   1.039   6.906  0.1485  0.3895  0.4653
32397SOL    HW1  722   5.321   1.112   6.844 -1.7847 -0.6821 -1.2495
32397SOL    HW2  723   5.357   1.068   6.984  2.1955  2.0987 -1.2333
32398SOL     OW  724   4.020   9.073   8.707  0.5570  0.1439  0.0640
32398SOL    HW1  725   4.096   9.119   8.671  2.2235  0.1730  3.1884
32398SOL    HW2  726   4.037   8.981   8.689  1.4902  0.1367  0.8620
32399SOL     OW  727   4.971   0.168   4.287  0.4179 -0.3801  0.1899
32399SOL    HW1  728   5.006   0.127   4.208 -0.3362  0.9000 -0.8598
32399SOL    HW2  729   4.885   0.126   4.300 -0.4577  0.9397 -1.0189
32400SOL     OW  730   1.608   7.224   0.327  0.0990  0.0582  0.0681
32400SOL    HW1  731   1.563   7.145   0.359 -0.5308 -0.2140 -1.4021
32400SOL    HW2  732   1.650   7.197   0.246 -0.9066  1.4371 -0.9691
32401SOL     OW  733   8.278   0.999   6.941  0.0864 -0.1743  0.3854
32401SOL    HW1  734   8.305   0.972   7.029 -0.2282 -0.5491  0.3690
32401SOL    HW2  735   8.201   1.054   6.956 -0.7095 -1.2217  0.2848
32402SOL     OW  736   4.544   4.316   2.690  0.1558  0.0600  0.3648
32402SOL    HW1  737   4.592   4.363   2.622  0.6386 -0.2402  0.4955
32402SOL    HW2  738   4.456   4.353   2.686 -0.4167 -1.3409 -1.8086
32403SOL     OW  739   5.253   8.999   4.465 -0.2759  0.0841  0.4940
32403SOL    HW1  740   5.215   9.080   4.499  0.4101  0.1761  1.0552
32403SOL    HW2  741   5.346   9.018   4.456 -0.2843 -0.2767 -0.4696
32404SOL     OW  742   3.990   6.290   6.078  0.3121  0.3890 -0.0654
32404SOL    HW1  743   3.914   6.269   6.024  0.8489 -1.6462 -0.1557
32404SOL    HW2  744   4.065   6.268   6.022  0.8953 -0.5797  1.0305
32405SOL     OW  745   9.413   0.457   0.467  0.2111  0.3201 -0.4081
32405SOL    HW1  746   9.458   0.519   0.410  0.4210  0.2200 -0.3493
32405SOL    HW2  747   9.420   0.496   0.554 -1.0092  0.9994 -0.5907
32406SOL     OW  748   2.472  10.876   7.050 -0.4469  0.6234 -0.0034
32406SOL    HW1  749   2.453  10.967   7.072 -1.8103  0.7616 -1.5665
32406SOL    HW2  750   2.401  10.826   7.090 -0.2032  0.3295  0.0713
32407SOL     OW  751   8.892   4.949   8.650 -0.0068 -0.1563 -0.7556
32407SOL    HW1  752   8.925   4.862   8.626 -1.5826 -0.6210 -1.4516
32407SOL    HW2  753   8.833   4.933   8.724 -0.0741  0.3605 -0.6921
32408SOL     OW  754   5.263   8.335   2.082 -0.1935  0.3318 -0.6483
32408SOL    HW1  755   5.355   8.354   2.102 -0.9456  2.6789  1.0706
32408SOL    HW2  756   5.245   8.252   2.127 -0.1311  2.3715  3.6939
32409SOL     OW  757   7.326   7.710   0.951 -0.1906 -0.5943  0.2376
32409SOL    HW1  758   7.257   7.692   1.015  1.9957 -2.3912  2.2857
32409SOL    HW2  759   7.394   7.756   1.001  0.4667  0.4119 -1.5075
32410SOL     OW  760  10.651   1.801   6.242  0.1895  0.2847  0.9526
32410SOL    HW1  761  10.724   1.763   6.291  0.4235 -0.6536 -0.0903
32410SOL    HW2  762  10.586   1.732   6.238  1.0572 -0.4839 -1.9088
32411SOL     OW  763   4.888   3.095   5.388  0.0292 -0.4313  0.7349
32411SOL    HW1  764   4.923   3.009   5.412  0.7715 -0.1353  0.7164
32411SOL    HW2  765   4.922   3.112   5.300 -0.1842 -0.1548  0.7031
32412SOL     OW  766   7.583   8.329   6.824  0.0217 -0.0500  0.1502
32412SOL    HW1  767   7.509   8.355   6.879 -0.6733  0.2153 -0.8771
32412SOL    HW2  768   7.564   8.238   6.799  0.0788 -0.0078 -0.0530
32413SOL     OW  769   5.340   1.883   9.952  0.1298  0.0616  0.0204
32413SOL    HW1  770   5.413   1.927   9.997 -0.1528 -0.8935  1.4429
32413SOL    HW2  771   5.333   1.798   9.994 -0.8116 -0.4789 -1.1710
32414SOL     OW  772   8.824   5.659   1.774 -0.2379  0.0939  0.0443
32414SOL    HW1  773   8.748   5.654   1.833  0.5017 -1.3889  0.9405
32414SOL    HW2  774   8.855   5.568   1.769  0.9151  0.5290 -1.0690
32415SOL     OW  775   7.428   8.571   1.697  0.1495  0.3485 -0.6236
32415SOL    HW1  776   7.378   8.627   1.756  0.3401  0.8285 -0.9165
32415SOL    HW2  777   7.423   8.614   1.612 -0.5171 -0.5772 -1.0799
32416SOL     OW  778   2.991   1.836   7.620  0.0748  0.1213 -0.1602
32416SOL    HW1  779   3.034   1.910   7.578  0.3705  0.5775  0.9170
32416SOL    HW2  780   3.014   1.844   7.713 -1.4793 -0.2163  0.2790
32417SOL     OW  781   3.220   9.882   4.133 -0.7600 -0.4781  0.2199
32417SOL    HW1  782   3.295   9.926   4.172 -0.8351 -1.7154  1.8900
32417SOL    HW2  783   3.259   9.816   4.074 -0.6497  1.6496 -2.2756
32418SOL     OW  784   8.290   4.751   6.938 -0.4576 -0.3162  0.4640
32418SOL    HW1  785   8.269   4.699   6.860 -0.5106 -1.1152  0.9973
32418SOL    HW2  786   8.363   4.806   6.911  0.9274 -2.0734  0.4159
32419SOL     OW  787  10.728   9.842   8.926  0.2427  0.2088 -0.0714
32419SOL    HW1  788  10.768   9.776   8.982 -0.2005 -0.6771 -0.7770
32419SOL    HW2  789  10.772   9.923   8.950  1.1813 -0.4313  0.4271
32420SOL     OW  790   6.478   7.922   8.071 -0.3224  0.0689  0.1008
32420SOL    HW1  791   6.509   7.834   8.048  1.3278  0.5027  0.5292
32420SOL    HW2  792   6.429   7.951   7.994  0.2055 -0.7237 -0.5512
32421SOL     OW  793   9.569   1.420   0.388  0.3279  0.4170 -0.0903
32421SOL    HW1  794   9.597   1.499   0.435 -1.6443  1.4681 -0.5894
32421SOL    HW2  795   9.561   1.448   0.297  0.7422 -0.6832 -0.4735
32422SOL     OW  796   8.900   1.428   3.592  0.6049 -0.4370  0.8588
32422SOL    HW1  797   8.884   1.410   3.500  1.3703  0.1779  0.5980
32422SOL    HW2  798   8.979   1.378   3.613  0.1581 -0.9677  1.3182
32423SOL     OW  799   9.271   7.629   4.353 -0.4062 -0.5026  0.3498
32423SOL    HW1  800   9.282   7.724   4.340  1.0177 -0.5706  0.8358
32423SOL    HW2  801   9.282   7.616   4.447  1.0231 -1.3155  0.0943
32424SOL     OW  802  10.953   2.839   9.539 -0.2190  0.6808 -0.1336
32424SOL    HW1  803  11.001   2.914   9.572 -0.1551  1.4675 -1.9059
32424SOL    HW2  804  10.928   2.863   9.450 -2.1454 -0.5102  0.0214
32425SOL     OW  805   7.011   9.236   1.423 -0.0868  0.0697 -0.4941
32425SOL    HW1  806   7.091   9.277   1.456 -1.0934 -0.2732  2.7390
32425SOL    HW2  807   6.960   9.307   1.385  0.3635  0.9188  0.4501
32426SOL     OW  808   6.816   8.611   1.353  0.5452 -0.0303 -0.4688
32426SOL    HW1  809   6.905   8.600   1.387  0.2687 -0.8160  0.0317
32426SOL    HW2  810   6.777   8.524   1.361 -0.3429  0.3647 -0.4618
32427SOL     OW  811  11.088  10.011   9.135  0.1167  0.3791 -0.0081
32427SOL    HW1  812  11.120   9.936   9.085 -0.8078  0.5194 -0.8550
32427SOL    HW2  813  11.166  10.062   9.155  0.5823 -0.0167 -0.7608
32428SOL     OW  814   7.833   3.236   2.163 -0.0890  0.1535  0.2317
32428SOL    HW1  815   7.769   3.264   2.098  0.6262 -0.8645 -0.9806
32428SOL    HW2  816   7.783   3.182   2.225 -0.8326  1.3586  0.7137
32429SOL     OW  817  10.467   2.121   1.614  0.2654 -0.4269  0.2870
32429SOL    HW1  818  10.486   2.207   1.650 -0.2762 -0.2930  0.2687
32429SOL    HW2  819  10.382   2.098   1.652  0.8681 -1.3975  1.0921
32430SOL     OW  820   2.695   6.252   7.433  0.1756  0.0357 -0.2639
32430SOL    HW1  821   2.676   6.333   7.385 -2.9248 -0.1553  0.4099
32430SOL    HW2  822   2.719   6.189   7.365  1.7556  1.2244 -0.8791
32431SOL     OW  823   2.304   3.015   9.744 -0.5118  0.3259  0.3766
32431SOL    HW1  824   2.229   2.959   9.765 -0.8865  0.2400 -1.0296
32431SOL    HW2  825   2.375   2.953   9.726  0.1551  0.4235  2.4721
32432SOL     OW  826   0.628   4.761   1.584 -0.0201 -0.6223  0.0935
32432SOL    HW1  827   0.712   4.764   1.629 -1.0016  1.5294  2.0170
32432SOL    HW2  828   0.567   4.728   1.650 -1.1441  0.5604 -0.3052
32433SOL     OW  829   2.969  10.369  10.568  0.3022  0.2692 -0.1257
32433SOL    HW1  830   2.921  10.404  10.494 -0.3555  0.7468  0.5090
32433SOL    HW2  831   2.988  10.278  10.545 -0.5922  0.1775 -0.5426
32434SOL     OW  832   6.297   3.306   0.602  0.1894  0.1285 -0.5379
32434SOL    HW1  833   6.314   3.330   0.511  3.0851  1.5559  0.2663
32434SOL    HW2  834   6.235   3.372   0.633  0.1327  0.3642 -1.1348
32435SOL     OW  835   5.413   2.694   8.146 -0.2220 -0.4990 -0.3455
32435SOL    HW1  836   5.465   2.618   8.173 -0.8776 -0.7010  0.3750
32435SOL    HW2  837   5.430   2.702   8.052 -1.4124 -2.5711 -0.8115
32436SOL     OW  838   5.430   3.517   2.588  0.6020  0.4761 -0.1687
32436SOL    HW1  839   5.349   3.551   2.551  1.0000  1.0183 -0.5602
32436SOL    HW2  840   5.499   3.554   2.533  1.1996  1.1485  0.9981
32437SOL     OW  841   3.434   5.873   6.263  0.1898 -0.2678  0.3442
32437SOL    HW1  842   3.499   5.922   6.313  1.1731 -0.2979 -0.8483
32437SOL    HW2  843   3.366   5.850   6.327 -0.5443  2.9525  0.9226
32438SOL     OW  844   9.439   3.233   3.111  0.0044 -0.3311 -0.1112
32438SOL    HW1  845   9.481   3.313   3.079 -1.3249  0.7465  0.7425
32438SOL    HW2  846   9.465   3.228   3.203  0.2320 -1.0077 -0.2066
32439SOL     OW  847  11.046   8.661   7.819 -0.0433 -0.0431  0.1065
32439SOL    HW1  848  11.025   8.692   7.907  1.3582  0.6432  0.2334
32439SOL    HW2  849  11.118   8.600   7.832  0.5442  0.4813 -0.6010
32440SOL     OW  850   3.170   0.700   5.494 -0.2846  0.1821  0.0992
32440SOL    HW1  851   3.224   0.688   5.416  0.5327  0.8044  0.5610
32440SOL    HW2  852   3.232   0.717   5.565 -1.1069  1.8414  0.4709
32441SOL     OW  853   2.588   9.424   7.025  0.6018  0.0311 -0.4627
32441SOL    HW1  854   2.629   9.347   7.064  1.7214  0.7889 -0.1008
32441SOL    HW2  855   2.580   9.487   7.097  1.9701  1.1549 -1.2465
32442SOL     OW  856  10.421   1.606   1.097  0.5571  1.1213  0.2209
32442SOL    HW1  857  10.334   1.575   1.121 -0.0716  0.5228 -2.5174
32442SOL    HW2  858  10.474   1.592   1.175 -0.6878 -2.9132  0.5773
32443SOL     OW  859   7.394   5.949   2.350  0.3284  0.3565 -0.8726
32443SOL    HW1  860   7.428   5.900   2.425 -1.2034  1.7289  0.8304
32443SOL    HW2  861   7.327   5.892   2.312 -1.1148  0.8470  0.8020
32444SOL     OW  862   5.701   0.381  10.385 -0.2480 -0.2432  0.3948
32444SOL    HW1  863   5.611   0.356  10.363 -0.8306  0.6728  1.6462
32444SOL    HW2  864   5.753   0.343  10.314 -1.5055 -1.5738  0.1149
32445SOL     OW  865   2.201   8.886   5.102  0.1825 -0.0151  0.0409
32445SOL    HW1  866   2.201   8.887   5.006 -1.3215 -0.8007  0.0069
32445SOL    HW2  867   2.147   8.962   5.126  0.7430  0.3142  0.2915
32446SOL     OW  868   2.777   3.846   5.013  0.3711 -0.1567  0.3370
32446SOL    HW1  869   2.776   3.751   5.026 -1.5472 -0.2253  0.0517
32446SOL    HW2  870   2.717   3.861   4.940  2.7921  1.0915 -1.5681
32447SOL     OW  871   7.771  10.228   2.138  0.0904 -0.1780 -0.0361
32447SOL    HW1  872   7.825  10.280   2.078 -0.9372 -0.1155 -0.9291
32447SOL    HW2  873   7.736  10.291   2.201 -2.4661  0.5915 -2.0647
32448SOL     OW  874   8.490   4.903   6.847 -0.7697  0.1452 -0.2568
32448SOL    HW1  875   8.497   4.998   6.847  0.0136  0.1048 -1.1006
32448SOL    HW2  876   8.556   4.874   6.911 -0.1910  0.1414 -0.8395
32449SOL     OW  877   7.983   4.055   3.582 -0.0073 -0.5188 -0.8832
32449SOL    HW1  878   7.933   4.052   3.501  0.3333 -0.3824 -1.0984
32449SOL    HW2  879   8.000   4.148   3.598 -1.2060 -0.4347  0.0488
32450SOL     OW  880   4.432   6.139   6.650 -0.1489 -0.1445  0.3078
32450SOL    HW1  881   4.443   6.175   6.738 -0.7371 -2.5339  1.4568
32450SOL    HW2  882   4.458   6.047   6.658  1.8379  0.0110 -2.5505
32451SOL     OW  883   6.772   8.283   2.594  0.0171 -0.1554 -0.2625
32451SOL    HW1  884   6.854   8.324   2.567  1.5742 -2.1707  1.0923
32451SOL    HW2  885   6.748   8.226   2.521 -0.5051  0.8645 -0.8964
32452SOL     OW  886   6.672   4.249   7.573  0.0925  0.0387 -0.0657
32452SOL    HW1  887   6.580   4.265   7.597  0.3103  1.0173  0.1392
32452SOL    HW2  888   6.667   4.196   7.494 -0.6551  0.2212 -0.1476
32453SOL     OW  889   9.579   0.327   7.214  0.3331  0.0028 -0.3093
32453SOL    HW1  890   9.567   0.356   7.124 -1.6160 -0.3099 -0.1882
32453SOL    HW2  891   9.607   0.236   7.206 -1.2989 -0.5072 -0.6278
32454SOL     OW  892   6.059   8.188  10.909 -0.0299  0.0809  0.4450
32454SOL    HW1  893   6.031   8.107  10.867  0.2027 -0.5368  1.4373
32454SOL    HW2  894   6.051   8.170  11.002  0.8333  0.9072  0.6921
32455SOL     OW  895   4.566   1.632  10.743  0.4270  0.0007 -0.0978
32455SOL    HW1  896   4.555   1.715  10.695 -0.9302 -2.1348 -3.9092
32455SOL    HW2  897   4.504   1.638  10.816 -0.7421  1.7821 -1.1581
32456SOL     OW  898   7.623  10.220   9.390 -0.4824 -0.0597  0.1277
32456SOL    HW1  899   7.609  10.295   9.447 -0.2555  2.4336 -2.8358
32456SOL    HW2  900   7.552  10.159   9.412 -0.6570  0.9606  2.6470
32457SOL     OW  901   6.420   4.688  10.061  0.1375 -0.2234 -0.7892
32457SOL    HW1  902   6.417   4.617   9.997 -0.2783 -0.5374 -0.4223
32457SOL    HW2  903   6.427   4.768  10.008 -0.8473 -0.4353 -1.2567
32458SOL     OW  904   2.370   3.121   7.637 -0.1169  0.2117  0.0474
32458SOL    HW1  905   2.353   3.100   7.546 -0.0185  1.9213 -0.4078
32458SOL    HW2  906   2.355   3.215   7.643  1.2678  0.3960  1.4685
32459SOL     OW  907   4.800   1.378   6.565  0.2912  0.1538 -0.2890
32459SOL    HW1  908   4.720   1.396   6.515  0.6604  0.0337 -0.9277
32459SOL    HW2  909   4.860   1.340   6.501 -0.2569 -2.8921  0.8035
32460SOL     OW  910   2.755   9.925   9.374 -0.0775  0.1209  0.1903
32460SOL    HW1  911   2.827   9.881   9.420  0.1348  0.2733  0.0019
32460SOL    HW2  912   2.678   9.904   9.426  0.0971 -0.0726  0.3746
32461SOL     OW  913   0.759   4.551   9.676  0.0421 -0.0102  0.4974
32461SOL    HW1  914   0.803   4.478   9.632  1.1457 -0.0552  1.6075
32461SOL    HW2  915   0.670   4.550   9.642  0.4873 -0.8840 -0.6827
32462SOL     OW  916   9.958   0.702   1.560 -0.0035 -0.4786  0.0276
32462SOL    HW1  917   9.902   0.757   1.615 -0.0246 -0.5211  0.0486
32462SOL    HW2  918   9.971   0.623   1.611  1.2960  0.1184  0.6817
32463SOL     OW  919   8.162   5.669   3.769  0.4307 -0.1536 -0.1930
32463SOL    HW1  920   8.136   5.603   3.834  0.7500 -0.1627 -0.0760
32463SOL    HW2  921   8.255   5.682   3.783  0.4483  0.0399 -0.4766
32464SOL     OW  922   1.605   7.127   7.295 -0.0617  0.3882 -0.3898
32464SOL    HW1  923   1.626   7.074   7.372 -0.2756  2.4964  1.2361
32464SOL    HW2  924   1.529   7.085   7.256 -0.0506 -0.6471  0.6483
32465SOL     OW  925   5.822   3.067   8.033 -0.6293 -0.1209  0.4293
32465SOL    HW1  926   5.854   3.153   8.061 -0.5544 -0.2593  0.7661
32465SOL    HW2  927   5.756   3.043   8.098  1.6233 -1.7828  2.2711
32466SOL     OW  928   1.543   8.300   1.102  0.2864  0.0028 -0.3600
32466SOL    HW1  929   1.609   8.369   1.092  0.7407 -0.5384 -1.2141
32466SOL    HW2  930   1.477   8.320   1.036  0.0090  0.0727 -0.0631
32467SOL     OW  931   2.426   3.760  11.028  0.3911 -0.3413 -0.1496
32467SOL    HW1  932   2.455   3.701  11.098  0.3659  1.5658  1.5873
32467SOL    HW2  933   2.455   3.718  10.947  2.4617 -1.5704  1.1288
32468SOL     OW  934   9.246   1.139   8.896 -0.1000  0.2308  0.4989
32468SOL    HW1  935   9.215   1.224   8.928 -3.1610 -1.0958  1.4851
32468SOL    HW2  936   9.236   1.081   8.972  1.3847 -1.1485 -0.3151
32469SOL     OW  937   2.830   4.283   4.116 -0.2968 -0.3132  0.2771
32469SOL    HW1  938   2.843   4.190   4.132  2.3850  0.0288  0.5336
32469SOL    HW2  939   2.810   4.289   4.023 -1.7112 -1.1884  0.4882
32470SOL     OW  940   2.368   4.050   1.604 -0.1187  0.0831  0.1543
32470SOL    HW1  941   2.430   4.020   1.537  0.7607 -0.8076  1.3171
32470SOL    HW2  942   2.385   4.144   1.611 -1.3834  0.5431 -1.9947
32471SOL     OW  943   4.124   8.460   8.457  0.2109 -0.3904  0.3425
32471SOL    HW1  944   4.190   8.392   8.442  0.7656  0.1796  0.1388
32471SOL    HW2  945   4.145   8.496   8.543  0.4054  0.0450  0.1183
32472SOL     OW  946   8.707  10.528   8.701  0.7619  0.3158 -0.3955
32472SOL    HW1  947   8.614  10.552   8.704  0.5140 -0.6924  0.3239
32472SOL    HW2  948   8.748  10.585   8.765  0.0326 -1.6479  1.9765
32473SOL     OW  949  10.389   4.050   7.771  0.4935  0.0155  0.2767
32473SOL    HW1  950  10.388   4.072   7.678  1.0488 -1.8559 -0.2173
32473SOL    HW2  951  10.398   3.955   7.773 -2.7186 -0.3955  2.2278
32474SOL     OW  952   8.062   0.561   5.006 -0.2918 -0.0436  0.3346
32474SOL    HW1  953   8.086   0.644   4.966 -2.0110  0.7456  0.8230
32474SOL    HW2  954   8.072   0.576   5.100  3.4438 -1.7836  0.3950
32475SOL     OW  955  10.867   5.786  10.708  0.2255  0.4730 -0.2975
32475SOL    HW1  956  10.932   5.851  10.681  0.2667  0.0971 -1.1493
32475SOL    HW2  957  10.911   5.702  10.696 -0.3172  0.2282 -0.5899
32476SOL     OW  958   0.382   8.290   1.379  0.0897  0.0927 -0.4318
32476SOL    HW1  959   0.453   8.241   1.421  1.0137  1.7837  0.1212
32476SOL    HW2  960   0.414   8.305   1.289 -1.2909 -2.3622 -1.4213
32477SOL     OW  961   9.334   2.170  10.601 -0.3777  0.0038  0.2125
32477SOL    HW1  962   9.343   2.082  10.564 -0.3722  0.4947 -1.0052
32477SOL    HW2  963   9.242   2.193  10.587 -0.7808 -0.4141  1.9819
32478SOL     OW  964   9.060   8.456   9.659 -0.5230  0.3691  0.0027
32478SOL    HW1  965   9.020   8.370   9.666 -1.1164  0.7857  3.4778
32478SOL    HW2  966   9.143   8.440   9.615 -1.4969 -1.5937 -1.2803
32479SOL     OW  967   9.876   1.311   2.258  0.8057 -0.1554  0.1045
32479SOL    HW1  968   9.811   1.245   2.284  1.3080 -0.6326  0.1583
32479SOL    HW2  969   9.851   1.389   2.308  0.5532 -0.4762  0.4898
32480SOL     OW  970   7.507   2.044   8.117 -0.2486 -0.4221 -0.7479
32480SOL    HW1  971   7.577   2.098   8.080  0.3649  1.3929  2.6822
32480SOL    HW2  972   7.517   1.959   8.074  1.7495  0.7880 -2.9496
32481SOL     OW  973   0.525   5.751  10.861  0.5923 -0.2073 -0.2323
32481SOL    HW1  974   0.592   5.761  10.793 -1.2153  1.3107 -1.8773
32481SOL    HW2  975   0.538   5.661  10.893  2.5593 -0.4018 -1.3697
32482SOL     OW  976   6.387   7.758   4.627  0.5396  0.3297 -0.0127
32482SOL    HW1  977   6.457   7.803   4.674  0.2997  0.2127  0.4606
32482SOL    HW2  978   6.310   7.813   4.639  0.8938  1.3772 -1.9768
32483SOL     OW  979  10.856   7.179   4.141 -0.4947 -0.6254  0.7049
32483SOL    HW1  980  10.788   7.194   4.075 -0.1103 -0.1559  0.3976
32483SOL    HW2  981  10.813   7.131   4.211 -0.5746 -2.4061 -0.5156
32484SOL     OW  982  10.438   6.430   2.519  0.1283 -0.0968 -0.6712
32484SOL    HW1  983  10.355   6.442   2.473  0.0905 -1.0246 -0.8630
32484SOL    HW2  984  10.504   6.457   2.456 -0.0234  1.0916 -0.3602
32485SOL     OW  985   8.396   8.876   8.656  0.8238  0.1868 -0.0056
32485SOL    HW1  986   8.305   8.846   8.651  0.5512  0.8534  0.7371
32485SOL    HW2  987   8.414   8.912   8.569  0.1358  0.7037  0.0542
32486SOL     OW  988   5.147   1.762   0.727 -0.0941  0.3022  0.0967
32486SOL    HW1  989   5.105   1.810   0.656  0.0898  0.5068  0.1243
32486SOL    HW2  990   5.212   1.823   0.762  0.3733 -0.0829 -0.0863
32487SOL     OW  991   7.367   9.064   2.105  0.2236  0.3135  0.1666
32487SOL    HW1  992   7.307   9.100   2.170  1.3384 -0.6882  1.8334
32487SOL    HW2  993   7.411   9.140   2.068 -0.7395  0.9346  0.2728
32488SOL     OW  994   6.078  11.062   3.985 -0.6542  0.2510  0.3771
32488SOL    HW1  995   6.089  11.010   4.064 -0.2366  0.4048  0.4250
32488SOL    HW2  996   6.015  11.013   3.932 -0.4624 -0.1730  0.5356
32489SOL     OW  997   1.439   4.027   3.525  0.3022  0.4671  0.1390
32489SOL    HW1  998   1.439   3.933   3.512  0.9597  0.5509 -0.5340
32489SOL    HW2  999   1.518   4.058   3.479 -0.3138  1.4249 -0.3087
32490SOL     OW 1000   8.554  10.971   5.361 -0.2604 -0.2537  0.2577
32490SOL    HW1 1001   8.584  11.010   5.443  2.4970  0.8096 -1.1247
32490SOL    HW2 1002   8.459  10.977   5.364 -0.1449  1.7040  2.4545
32491SOL     OW 1003  10.119  10.177   1.051  0.6431  0.1639 -0.5939
32491SOL    HW1 1004  10.026  10.163   1.034  1.1461 -0.7703 -2.9923
32491SOL    HW2 1005  10.145  10.245   0.989  1.2596  1.7162  1.2502
32492SOL     OW 1006   1.924  10.760  10.215  0.0833  0.0031  0.3448
32492SOL    HW1 1007   1.912  10.679  10.166 -0.8099  0.1816  0.2588
32492SOL    HW2 1008   1.928  10.828  10.149 -4.5492  0.7041  0.4746
32493SOL     OW 1009   2.465   6.087   1.794  0.2926  0.0057  0.0995
32493SOL    HW1 1010   2.404   6.045   1.734 -1.2660  1.5082  0.5473
32493SOL    HW2 1011   2.489   6.018   1.857  0.4881 -1.0678 -1.1104
32494SOL     OW 1012   0.858   0.486   8.608 -0.2749 -0.4262 -0.4023
32494SOL    HW1 1013   0.767   0.499   8.581 -0.2018 -1.5955 -1.2620
32494SOL    HW2 1014   0.906   0.472   8.527  0.6158 -0.1946  0.0700
32495SOL     OW 1015   4.096   8.845   7.153  0.0408  0.3005 -0.4338
32495SOL    HW1 1016   4.179   8.887   7.133  0.2087  0.5264  0.6702
32495SOL    HW2 1017   4.062   8.893   7.228  0.0158 -1.2095  0.5754
32496SOL     OW 1018   8.495   6.158  10.409 -0.0054 -0.4129 -0.6041
32496SOL    HW1 1019   8.511   6.161  10.314 -1.2036 -0.4398 -0.8144
32496SOL    HW2 1020   8.401   6.141  10.418 -0.2901  1.5292  0.5908
32497SOL     OW 1021   7.550   7.848  10.886  0.4282  0.2686 -0.1978
32497SOL    HW1 1022   7.594   7.821  10.967 -0.2760 -0.1442  0.0554
32497SOL    HW2 1023   7.478   7.785  10.876 -0.1062  0.9373 -0.6072
32498SOL     OW 1024   7.392   1.024   4.110  0.6744  0.1115  0.2356
32498SOL    HW1 1025   7.334   1.016   4.186  0.1546  4.5114  0.5673
32498SOL    HW2 1026   7.480   1.012   4.146  0.5467  3.3847  2.0370
32499SOL     OW 1027   5.406   1.506   3.060 -0.0039 -0.0778  0.7143
32499SOL    HW1 1028   5.458   1.467   3.130  1.8444 -1.7335 -1.3944
32499SOL    HW2 1029   5.363   1.432   3.018 -2.2112  1.0317  0.9052
32500SOL     OW 1030   1.572   4.794   8.419 -0.1124  0.0473 -0.1391
32500SOL    HW1 1031   1.624   4.714   8.418  0.5762  0.4228 -3.4149
32500SOL    HW2 1032   1.564   4.816   8.512  1.5129 -2.6112  0.7250
32501SOL     OW 1033   3.325   8.269   1.439 -0.0007 -0.1154 -0.3222
32501SOL    HW1 1034   3.316   8.233   1.527  0.7317 -2.6705 -1.1992
32501SOL    HW2 1035   3.261   8.340   1.436  0.9766  1.0838  2.7096
32502SOL     OW 1036   2.794   7.437   8.084  0.2923  0.0672 -0.2751
32502SOL    HW1 1037   2.718   7.380   8.077  1.1909 -1.1031 -1.0293
32502SOL    HW2 1038   2.765   7.511   8.137 -1.3938 -0.2700 -0.6853
32503SOL     OW 1039   0.260   3.378   4.729 -0.6677  0.0181 -0.5893
32503SOL    HW1 1040   0.325   3.448   4.733 -1.0754  0.5258 -2.0338
32503SOL    HW2 1041   0.307   3.304   4.691 -0.6281  0.0131 -0.5298
32504SOL     OW 1042   0.546   5.845   0.024  0.1676 -0.2737 -0.2114
32504SOL    HW1 1043   0.537   5.838  -0.071  1.5970 -1.7996 -0.2769
32504SOL    HW2 1044   0.457   5.830   0.058  0.1467 -3.2241 -1.2222
32505SOL     OW 1045   2.310  10.429   5.059 -0.4900 -0.1198 -0.0478
32505SOL    HW1 1046   2.392  10.435   5.009 -1.3270  0.8921 -1.3902
32505SOL    HW2 1047   2.296  10.335   5.072  1.4836 -0.2834  1.3080
32506SOL     OW 1048   6.313   4.312   3.234  0.5333 -0.1489  0.6143
32506SOL    HW1 1049   6.339   4.381   3.294  0.7437  0.0514  0.2908
32506SOL    HW2 1050   6.323   4.349   3.146 -0.5835 -0.1483  0.4650
32507SOL     OW 1051  10.236   6.080   6.218  0.1632 -0.0413 -0.4003
32507SOL    HW1 1052  10.191   6.164   6.213  0.6836  0.1779 -2.1103
32507SOL    HW2 1053  10.329   6.102   6.215  0.3475 -0.6199  0.5715
32508SOL     OW 1054   1.205   1.190   8.597 -0.2316 -0.3309  0.0453
32508SOL    HW1 1055   1.289   1.209   8.637 -0.0459 -0.1915 -0.4059
32508SOL    HW2 1056   1.181   1.271   8.551  0.0055 -0.7816 -0.9060
32509SOL     OW 1057   1.931   3.202   7.666  0.2667 -0.0446  0.6222
32509SOL    HW1 1058   1.929   3.165   7.754  0.9289 -0.3597  0.5133
32509SOL    HW2 1059   1.929   3.297   7.680 -0.5144 -0.1039  0.9377
32510SOL     OW 1060   0.567   6.580   7.793  0.6325  0.1066 -0.1449
32510SOL    HW1 1061   0.578   6.650   7.857  0.5706  1.3304 -1.4144
32510SOL    HW2 1062   0.624   6.604   7.720  0.4873 -1.0950 -0.6873
32511SOL     OW 1063   1.072   0.947   9.430 -0.0621  0.3307 -0.4122
32511SOL    HW1 1064   0.997   0.986   9.474 -0.7320 -0.7369 -0.5928
32511SOL    HW2 1065   1.040   0.864   9.395  0.7371  0.6364 -1.9667
32512SOL     OW 1066   3.829   7.604   9.229 -0.2848  0.4892  0.2334
32512SOL    HW1 1067   3.820   7.624   9.136 -0.1947  0.7358  0.2773
32512SOL    HW2 1068   3.912   7.645   9.254 -0.4430  0.6549  0.4859
32513SOL     OW 1069   5.776   9.665   6.591 -0.3502 -0.3456 -0.4504
32513SOL    HW1 1070   5.786   9.576   6.559  0.7180 -0.5843  0.5023
32513SOL    HW2 1071   5.832   9.670   6.668 -1.3414  0.7883  0.2373
32514SOL     OW 1072   7.584   1.960   1.114  0.3311  0.0146  0.4194
32514SOL    HW1 1073   7.516   2.001   1.168  0.8810  1.1614  0.2682
32514SOL    HW2 1074   7.587   2.013   1.035  1.1852 -0.2073  0.2898
32515SOL     OW 1075   8.265   1.951   8.551 -0.4517  0.0230 -0.3374
32515SOL    HW1 1076   8.260   1.949   8.455  1.0402 -2.1477 -0.4221
32515SOL    HW2 1077   8.175   1.970   8.579 -0.5152  2.9665 -2.1349
32516SOL     OW 1078   6.810   1.997   7.352  0.1797 -0.2427 -0.1764
32516SOL    HW1 1079   6.790   1.938   7.424 -1.0340  1.1196  0.6691
32516SOL    HW2 1080   6.901   2.021   7.364  0.5757 -1.5999 -0.3094
32517SOL     OW 1081   2.192   9.842   0.380 -0.6929  0.0316 -0.4377
32517SOL    HW1 1082   2.266   9.801   0.336  0.3127  1.7847 -0.4837
32517SOL    HW2 1083   2.141   9.769   0.416  1.0615 -1.2117 -0.3704
32518SOL     OW 1084   5.782   2.784   8.547 -0.3993 -0.0044  0.0617
32518SOL    HW1 1085   5.871   2.817   8.533 -0.7916  0.2062 -2.3212
32518SOL    HW2 1086   5.735   2.858   8.585 -0.0240  0.5241 -0.4845
32519SOL     OW 1087   8.053   3.601  10.091 -0.0814 -0.1006 -0.6193
32519SOL    HW1 1088   8.099   3.521  10.067  0.3278  0.4737 -1.8260
32519SOL    HW2 1089   8.054   3.601  10.187  3.5851  0.5109 -0.5012
32520SOL     OW 1090   4.599   1.724   9.458  0.4204  0.3766  0.0101
32520SOL    HW1 1091   4.532   1.792   9.458  0.5865  0.5451 -0.6583
32520SOL    HW2 1092   4.570   1.662   9.526 -0.0428  0.8002  0.2058
32521SOL     OW 1093   0.258   9.461   1.309  0.4964 -0.0542 -0.2187
32521SOL    HW1 1094   0.338   9.409   1.321  0.4225 -0.5428 -1.6899
32521SOL    HW2 1095   0.280   9.524   1.241  1.2815  3.4366  2.9441
32522SOL     OW 1096   8.610   8.251  10.040  0.2853  0.0728  0.0406
32522SOL    HW1 1097   8.694   8.287  10.067 -0.1087 -0.0845  1.6001
32522SOL    HW2 1098   8.625   8.157  10.030  0.1074 -0.1172  1.3085
32523SOL     OW 1099   1.794   4.587   2.118  0.2902 -0.0293 -0.3590
32523SOL    HW1 1100   1.755   4.641   2.049 -1.7837 -1.0095 -0.0173
32523SOL    HW2 1101   1.840   4.517   2.070  1.7743  1.1573 -0.7606
32524SOL     OW 1102   1.695   8.972   6.240 -0.5351  0.4614  0.5127
32524SOL    HW1 1103   1.671   9.014   6.323 -2.2046 -1.0522  0.8494
32524SOL    HW2 1104   1.621   8.916   6.219  1.6096 -2.5097  0.2009
32525SOL     OW 1105   2.466   7.182   9.906  0.7000 -0.2752  0.7358
32525SOL    HW1 1106   2.405   7.109   9.898  0.5389 -0.3010  1.9781
32525SOL    HW2 1107   2.541   7.146   9.953  0.8587  0.2246  0.8777
32526SOL     OW 1108   1.855   1.166   6.503  0.6573 -0.3423 -0.6331
32526SOL    HW1 1109   1.912   1.143   6.576 -1.4274 -0.1059  1.1727
32526SOL    HW2 1110   1.900   1.237   6.458  1.2636  0.6229  1.4180
32527SOL     OW 1111   5.733   5.785   5.101  0.4438 -0.6356  0.0287
32527SOL    HW1 1112   5.776   5.699   5.107  2.3610  0.2588  0.0118
32527SOL    HW2 1113   5.776   5.828   5.027  0.2572  0.7045  0.6706
32528SOL     OW 1114   0.431   3.073   5.910 -0.0111 -0.1429  0.3307
32528SOL    HW1 1115   0.489   3.001   5.931 -0.9151 -0.1013  3.4106
32528SOL    HW2 1116   0.459   3.145   5.966 -0.7646  1.0927 -0.7955
32529SOL     OW 1117   8.072   3.004   9.679  0.0602  0.1900  0.1034
32529SOL    HW1 1118   8.106   2.931   9.628  1.3704 -0.3294  1.6361
32529SOL    HW2 1119   7.983   3.018   9.645  0.4647 -0.8472 -1.4936
32530SOL     OW 1120   3.078   7.707   7.270 -0.7040 -0.1132 -0.1962
32530SOL    HW1 1121   3.171   7.718   7.251 -0.3541  0.5624  1.7647
32530SOL    HW2 1122   3.048   7.645   7.203  0.9580  0.2325 -1.3328
32531SOL     OW 1123   4.455   1.985   4.287 -0.7080 -0.7202  0.1392
32531SOL    HW1 1124   4.465   1.911   4.347  1.1227 -0.7033 -0.0848
32531SOL    HW2 1125   4.525   2.045   4.311  0.3603 -0.8851 -2.2333
32532SOL     OW 1126   5.610   9.501   4.273  0.2344  0.6564 -0.5380
32532SOL    HW1 1127   5.608   9.584   4.226 -0.7510 -0.8460 -3.3516
32532SOL    HW2 1128   5.684   9.453   4.235 -1.2804 -1.0503 -1.5081
32533SOL     OW 1129   5.837   8.409   7.690 -0.2279 -0.0690  0.2744
32533SOL    HW1 1130   5.786   8.489   7.686 -0.4091 -0.2144 -0.4781
32533SOL    HW2 1131   5.772   8.339   7.687 -0.1185 -0.2603  1.6171
32534SOL     OW 1132   4.876   6.002   2.405 -0.4961  0.1385 -0.5450
32534SOL    HW1 1133   4.970   5.989   2.416 -0.7431 -0.7813  0.5706
32534SOL    HW2 1134   4.869   6.069   2.336  0.9790  0.7769 -0.1025
32535SOL     OW 1135  10.451   6.135   5.158 -0.3550  0.2561 -0.1977
32535SOL    HW1 1136  10.416   6.049   5.136 -1.3826  0.7125 -0.3993
32535SOL    HW2 1137  10.501   6.121   5.239 -0.7517 -0.4724 -0.0740
32536SOL     OW 1138   8.814   9.321   6.677 -0.4873  0.4973  0.0041
32536SOL    HW1 1139   8.730   9.358   6.707 -1.7248 -0.8628 -1.5661
32536SOL    HW2 1140   8.821   9.238   6.724 -0.6497  0.0354 -0.7795
32537SOL     OW 1141   0.619  10.193   1.173  0.2483 -0.2302 -1.2397
32537SOL    HW1 1142   0.674  10.119   1.146  1.0804 -0.0732 -0.0697
32537SOL    HW2 1143   0.550  10.152   1.226  0.1082 -0.2747 -1.4565
32538SOL     OW 1144   6.768   7.916   1.967  0.0566  0.4788  0.3725
32538SOL    HW1 1145   6.787   7.919   2.061 -0.7596 -0.5289  0.5853
32538SOL    HW2 1146   6.853   7.900   1.926  0.2572 -0.1709  1.0254
32539SOL     OW 1147   5.884  10.488   8.881 -0.0902  0.0816 -0.0227
32539SOL    HW1 1148   5.964  10.437   8.894 -2.2567 -2.9506  3.2950
32539SOL    HW2 1149   5.895  10.565   8.937  1.4126  1.0233 -1.5469
32540SOL     OW 1150   1.645   7.413   8.837 -0.3135 -0.2718 -0.2386
32540SOL    HW1 1151   1.573   7.476   8.843 -0.4047 -0.5083  2.4253
32540SOL    HW2 1152   1.713   7.450   8.893 -0.4053 -2.5308  1.4543
32541SOL     OW 1153   9.126   8.247   7.402  0.1973  0.7774 -0.3396
32541SOL    HW1 1154   9.194   8.264   7.338  1.1822  0.2494  0.5252
32541SOL    HW2 1155   9.097   8.333   7.432  0.6392  0.9995 -0.5582
32542SOL     OW 1156   3.962   2.212   0.224  0.3831 -0.2987  0.6814
32542SOL    HW1 1157   3.968   2.307   0.231 -0.7857 -0.1171 -0.4927
32542SOL    HW2 1158   4.047   2.181   0.255  0.4278  1.0589  2.0581
32543SOL     OW 1159   5.756  10.586   6.537  0.6303  0.0971  0.0284
32543SOL    HW1 1160   5.722  10.565   6.624  1.8856  1.0225  0.7778
32543SOL    HW2 1161   5.836  10.535   6.529  1.2164  1.0022 -0.0313
32544SOL     OW 1162   1.537   7.920   1.349 -0.9958  0.2715 -0.2687
32544SOL    HW1 1163   1.512   7.894   1.437  1.1451 -0.8417  0.0645
32544SOL    HW2 1164   1.574   7.841   1.309 -1.9158  0.7412 -2.1967
32545SOL     OW 1165   9.924   0.745   4.869  0.3977 -0.1533 -0.4009
32545SOL    HW1 1166   9.875   0.749   4.952  1.2148  1.5465  0.0414
32545SOL    HW2 1167   9.953   0.654   4.864 -0.0692 -0.4124  0.9545
32546SOL     OW 1168   4.983  10.642   6.870  0.2840 -0.3720 -0.3673
32546SOL    HW1 1169   4.991  10.547   6.876 -1.6272 -0.6701 -1.5237
32546SOL    HW2 1170   4.993  10.661   6.776 -0.5779  0.3959 -0.3211
32547SOL     OW 1171   2.837   8.527   4.661 -0.3802 -0.5893 -0.4976
32547SOL    HW1 1172   2.916   8.504   4.709  0.6314  1.1275 -1.2369
32547SOL    HW2 1173   2.818   8.450   4.607  0.8229 -0.9992 -0.3628
32548SOL     OW 1174   4.908   0.390   7.174 -0.1026  0.1966 -0.1870
32548SOL    HW1 1175   4.999   0.371   7.151 -0.0688  1.5648 -1.4112
32548SOL    HW2 1176   4.860   0.377   7.092 -0.6945  1.2236 -0.0242
32549SOL     OW 1177  10.453  10.378   2.129 -0.0885  0.5417 -0.0931
32549SOL    HW1 1178  10.374  10.392   2.078  0.8036  1.4229 -1.2829
32549SOL    HW2 1179  10.515  10.444   2.097  1.4502 -0.7277  0.1236
32550SOL     OW 1180   6.415   0.908   7.215 -0.3989 -0.5828  0.4417
32550SOL    HW1 1181   6.405   0.939   7.125 -1.7027 -2.4384 -0.1225
32550SOL    HW2 1182   6.428   0.813   7.206  0.7477 -0.6315  2.1715
32551SOL     OW 1183   2.480   0.468   0.050 -0.2351  0.1838  0.2583
32551SOL    HW1 1184   2.386   0.457   0.066  0.1713 -2.0447  1.5607
32551SOL    HW2 1185   2.509   0.528   0.119 -0.9085  2.1294 -1.0808
32552SOL     OW 1186   5.142   2.677   6.620 -0.2985  1.0307  0.5041
32552SOL    HW1 1187   5.185   2.738   6.560  3.4588  0.2003  2.0853
32552SOL    HW2 1188   5.106   2.733   6.688 -1.9372  1.7548 -0.8673
32553SOL     OW 1189  11.106   8.116   0.959 -0.1530  0.1166 -0.4513
32553SOL    HW1 1190  11.017   8.112   0.994 -0.4063 -0.1031 -1.0944
32553SOL    HW2 1191  11.161   8.132   1.035 -0.4957 -2.1154  0.3285
32554SOL     OW 1192   2.666   7.716   4.616 -0.0630  0.0294  0.4904
32554SOL    HW1 1193   2.582   7.756   4.593  1.1341  3.1141  1.0430
32554SOL    HW2 1194   2.671   7.723   4.711  0.4961 -0.9196  0.5450
32555SOL     OW 1195   4.976  10.713   9.390 -0.3137 -0.4295  0.3302
32555SOL    HW1 1196   4.961  10.749   9.478 -1.0178  1.1552 -0.3980
32555SOL    HW2 1197   4.905  10.750   9.337  0.4948 -0.8053 -1.0583
32556SOL     OW 1198   5.170   1.780   2.065  0.2544 -0.3146  0.0753
32556SOL    HW1 1199   5.250   1.749   2.107 -0.9048 -0.6299  2.2213
32556SOL    HW2 1200   5.151   1.864   2.107 -0.9206 -0.6136  0.1996
32557SOL     OW 1201   5.365   9.862   4.844  0.0492  0.3839 -0.1842
32557SOL    HW1 1202   5.294   9.833   4.902  0.2855  0.2565  0.0443
32557SOL    HW2 1203   5.380   9.953   4.869  0.8797  0.0174  0.7075
32558SOL     OW 1204   3.098   7.147   9.123  0.8013 -0.3269  0.2032
32558SOL    HW1 1205   3.121   7.179   9.210  1.8380 -0.4806  0.0035
32558SOL    HW2 1206   3.018   7.095   9.136  0.7090 -0.0026  0.9840
32559SOL     OW 1207   0.646   4.705   8.078  0.3282  0.2820  0.4177
32559SOL    HW1 1208   0.696   4.625   8.063  0.6668  0.5695 -0.0335
32559SOL    HW2 1209   0.706   4.775   8.052 -0.8117  0.5919 -1.6324
32560SOL     OW 1210   4.781   8.738   1.442  0.2981  0.2642 -0.2205
32560SOL    HW1 1211   4.810   8.759   1.530 -1.8321  0.7553  0.4143
32560SOL    HW2 1212   4.859   8.749   1.388  1.5394  0.3864  1.5165
32561SOL     OW 1213   4.635   3.287   6.219  0.0102 -0.6627 -0.0871
32561SOL    HW1 1214   4.656   3.241   6.137  0.3874  0.4878 -0.6515
32561SOL    HW2 1215   4.658   3.378   6.202 -1.9909  0.0031  0.5361
32562SOL     OW 1216   1.936   9.484   6.682  0.4137 -0.4713 -0.3231
32562SOL    HW1 1217   1.980   9.534   6.750  1.0313 -0.7901 -0.4818
32562SOL    HW2 1218   1.989   9.499   6.603 -1.0595  1.0370 -1.0983
32563SOL     OW 1219   9.184   9.178   6.724 -0.3924 -0.0783  0.3930
32563SOL    HW1 1220   9.159   9.101   6.774 -1.0953  0.0379  0.2288
32563SOL    HW2 1221   9.201   9.245   6.790 -0.3315 -0.2086  0.5113
32564SOL     OW 1222   5.766   2.078  10.860 -0.2981  0.2451 -0.1883
32564SOL    HW1 1223   5.813   2.149  10.818  1.4054  0.4452  1.8863
32564SOL    HW2 1224   5.746   2.016  10.790  2.2470  0.6176 -1.3227
32565SOL     OW 1225   9.027   8.513   8.728 -0.6930  0.3781  0.3692
32565SOL    HW1 1226   9.091   8.443   8.720 -1.2860 -0.1145 -0.1980
32565SOL    HW2 1227   8.944   8.473   8.703 -1.1932  1.0606  0.8593
32566SOL     OW 1228   7.268   9.535   3.579 -0.4013 -0.7854 -0.0254
32566SOL    HW1 1229   7.278   9.441   3.595  0.7661 -0.6588  0.0612
32566SOL    HW2 1230   7.205   9.540   3.507  0.7627 -1.7232 -1.1657
32567SOL     OW 1231   0.322  10.050   3.424  0.2595  0.5235  0.4091
32567SOL    HW1 1232   0.417  10.063   3.419  0.0293  2.1950 -0.3236
32567SOL    HW2 1233   0.310   9.990   3.498  1.8786  0.2399  0.4781
32568SOL     OW 1234   2.631   8.226   4.861  0.6479  0.0118 -0.5173
32568SOL    HW1 1235   2.574   8.215   4.937 -0.3958 -2.5009 -1.5639
32568SOL    HW2 1236   2.573   8.257   4.791  1.0485 -0.2690 -0.9835
32569SOL     OW 1237   5.099  10.109   4.876  0.3458 -0.6328 -0.4715
32569SOL    HW1 1238   5.095  10.083   4.969  0.8375 -0.3236 -0.3616
32569SOL    HW2 1239   5.174  10.168   4.871 -0.2721  0.1243 -0.8841
32570SOL     OW 1240   9.456  10.924   8.631 -0.3035  0.5674  0.7239
32570SOL    HW1 1241   9.399  10.884   8.565 -0.2903  0.7275  0.6132
32570SOL    HW2 1242   9.536  10.947   8.584 -0.1044  0.2468  0.9030
32571SOL     OW 1243   6.141   1.206  10.591 -0.2244 -0.3594 -0.3769
32571SOL    HW1 1244   6.140   1.278  10.528  0.2680 -0.2771 -0.2935
32571SOL    HW2 1245   6.163   1.247  10.674 -1.2271 -0.4118 -0.0688
32572SOL     OW 1246   2.797   8.596   1.911  0.1779  0.1048  0.0476
32572SOL    HW1 1247   2.855   8.650   1.858  0.7203  0.7419  1.2447
32572SOL    HW2 1248   2.710   8.610   1.874  0.5427  0.5272 -0.6612
32573SOL     OW 1249   9.256   1.365   0.458 -0.1081  0.0002 -0.0864
32573SOL    HW1 1250   9.202   1.397   0.530 -0.1405  0.0417 -0.1291
32573SOL    HW2 1251   9.320   1.434   0.443  0.6836 -0.5158  0.7188
32574SOL     OW 1252   8.462   9.484   4.092 -0.2544  0.1240  0.0352
32574SOL    HW1 1253   8.373   9.507   4.064 -0.2437  0.5278  0.3134
32574SOL    HW2 1254   8.481   9.402   4.046 -0.9837 -0.2734  0.4117
32575SOL     OW 1255   9.929   2.775   0.464  0.2621  0.0993 -0.2042
32575SOL    HW1 1256   9.992   2.704   0.479 -1.7123 -2.0598 -1.3331
32575SOL    HW2 1257   9.955   2.844   0.524  2.5474 -1.4347  0.6927
32576SOL     OW 1258  10.057   9.376   8.178  1.1304  0.0578 -0.4587
32576SOL    HW1 1259  10.113   9.390   8.254  0.8175 -1.1080  0.0153
32576SOL    HW2 1260   9.975   9.342   8.214  0.5631  0.5671 -1.2354
32577SOL     OW 1261   7.118   1.125   8.989  0.8668 -0.1961 -0.0962
32577SOL    HW1 1262   7.105   1.075   9.070  0.8155 -1.8270 -1.0714
32577SOL    HW2 1263   7.035   1.117   8.943  1.8709 -1.9881 -1.7197
32578SOL     OW 1264   0.420   3.366   8.677  0.2742 -0.5438 -0.7324
32578SOL    HW1 1265   0.490   3.313   8.640  0.6105  0.5848 -1.7755
32578SOL    HW2 1266   0.464   3.444   8.712  0.0640 -1.7841  2.7108
32579SOL     OW 1267   5.062  11.036   9.712 -0.6191 -0.6016 -0.0263
32579SOL    HW1 1268   5.016  10.984   9.778 -0.6696 -0.2110  0.2545
32579SOL    HW2 1269   5.108  10.972   9.657 -0.4327 -0.9226  0.4989
32580SOL     OW 1270   1.913   6.784   9.894  0.4244  0.0284  0.3283
32580SOL    HW1 1271   1.946   6.724   9.827  2.4107 -0.6583  1.8097
32580SOL    HW2 1272   1.844   6.735   9.938  0.1786 -0.1144 -0.2088
32581SOL     OW 1273   9.334   3.916   1.965  0.2433 -0.7656  0.0772
32581SOL    HW1 1274   9.358   3.999   2.006 -0.1705 -0.8597  0.5309
32581SOL    HW2 1275   9.400   3.854   1.996  0.0851 -0.7780  0.4025
32582SOL     OW 1276   0.610   4.588   4.440 -0.1019 -0.0045 -0.4109
32582SOL    HW1 1277   0.600   4.544   4.525 -0.1883  1.2224  0.2286
32582SOL    HW2 1278   0.587   4.521   4.376 -0.5314 -0.8043  0.5529
32583SOL     OW 1279   1.445   2.195   5.241  0.6281  0.0286  0.0820
32583SOL    HW1 1280   1.352   2.176   5.252  0.4022 -0.1485 -1.8729
32583SOL    HW2 1281   1.482   2.114   5.205  1.8544 -0.3940  2.1097
32584SOL     OW 1282   5.523   0.016  10.289  0.1511 -0.3583 -0.3212
32584SOL    HW1 1283   5.509   0.109  10.274  0.3962 -0.2638  0.0274
32584SOL    HW2 1284   5.434  -0.021  10.288  0.0495 -0.1162 -0.4227
32585SOL     OW 1285   6.688   4.826   5.940  0.4359 -0.0126  0.2618
32585SOL    HW1 1286   6.777   4.840   5.973 -0.0347 -0.9408  2.0596
32585SOL    HW2 1287   6.632   4.870   6.003 -0.3788  1.2490 -1.2993
32586SOL     OW 1288   8.763   9.441   6.421 -0.2859 -0.0478 -0.6384
32586SOL    HW1 1289   8.800   9.377   6.482 -0.3296  0.2741 -0.2732
32586SOL    HW2 1290   8.729   9.511   6.477 -0.6575  0.0763 -1.0153
32587SOL     OW 1291   3.411   9.495   5.827 -0.6872 -0.0177 -0.2187
32587SOL    HW1 1292   3.372   9.542   5.900  0.6531  0.5149  0.1763
32587SOL    HW2 1293   3.458   9.422   5.868  1.1078  0.9938 -0.4130
32588SOL     OW 1294   1.809   0.558   4.840  0.0519 -0.0716 -0.1164
32588SOL    HW1 1295   1.827   0.642   4.882 -0.9388  0.3766 -0.5464
32588SOL    HW2 1296   1.760   0.508   4.905  1.5204 -0.7321  0.5193
32589SOL     OW 1297   7.002   1.672   3.925  0.8600 -0.3267  0.2497
32589SOL    HW1 1298   6.975   1.697   4.014  0.9158 -1.3380  0.5608
32589SOL    HW2 1299   6.937   1.713   3.868  1.6669  1.6087  0.6231
32590SOL     OW 1300   4.865   9.297   5.531 -0.0028  0.4204  0.2820
32590SOL    HW1 1301   4.843   9.377   5.483 -0.4860 -1.0927 -2.2014
32590SOL    HW2 1302   4.959   9.288   5.521  0.3336  1.4932  2.0322
32591SOL     OW 1303   8.663   9.001   3.579  0.2953 -0.0866  0.0222
32591SOL    HW1 1304   8.715   8.973   3.655 -0.3882  0.5316  0.7368
32591SOL    HW2 1305   8.649   9.095   3.594 -0.5452 -0.1291 -0.4507
32592SOL     OW 1306   5.181   3.156   1.947  0.3430  0.0606 -0.1187
32592SOL    HW1 1307   5.115   3.218   1.916 -1.6730 -1.5353  0.7936
32592SOL    HW2 1308   5.208   3.191   2.032 -1.0708 -0.4321  0.5744
32593SOL     OW 1309   4.542   8.942   1.605  0.3800  0.1463  0.7698
32593SOL    HW1 1310   4.498   9.024   1.579  2.9186  1.6037  0.7370
32593SOL    HW2 1311   4.612   8.970   1.663  3.6201 -1.5338 -2.0087
32594SOL     OW 1312  10.887   2.889   2.886  0.6382 -0.3300 -0.1187
32594SOL    HW1 1313  10.975   2.878   2.922  0.5935 -0.9848 -0.2034
32594SOL    HW2 1314  10.893   2.857   2.796  0.6428  0.9092 -0.5918
32595SOL     OW 1315  10.197   1.996   7.686  0.1492  0.1387  0.2752
32595SOL    HW1 1316  10.260   1.964   7.621 -0.5102  1.7301 -1.2456
32595SOL    HW2 1317  10.111   1.978   7.648 -0.2478  2.7209 -0.2634
32596SOL     OW 1318   6.290   9.956   2.440  0.2933  0.0777  0.1305
32596SOL    HW1 1319   6.207   9.987   2.475 -0.0053  0.7710 -1.1085
32596SOL    HW2 1320   6.285   9.861   2.447 -0.6284  0.1055  0.0572
32597SOL     OW 1321   5.683  10.436   9.712  0.1163  0.0805 -0.0636
32597SOL    HW1 1322   5.617  10.489   9.666  0.4629  0.2717 -0.3442
32597SOL    HW2 1323   5.633  10.363   9.749 -0.1065 -0.3169 -1.1056
32598SOL     OW 1324   3.404   4.001   4.720 -0.9034  0.3713 -0.4738
32598SOL    HW1 1325   3.456   3.955   4.655  0.0078  0.0808  0.4287
32598SOL    HW2 1326   3.440   4.090   4.721  1.3855 -0.4371  1.8918
32599SOL     OW 1327   3.899   4.869   5.864 -0.5306  0.5657 -0.3010
32599SOL    HW1 1328   3.975   4.812   5.852 -1.7459 -1.4114  0.8760
32599SOL    HW2 1329   3.935   4.958   5.858  1.7626 -0.2897 -0.3150
32600SOL     OW 1330  10.446   0.441   4.192 -0.1367 -0.1909 -0.4792
32600SOL    HW1 1331  10.502   0.363   4.200  1.4864  0.9825  0.0588
32600SOL    HW2 1332  10.432   0.469   4.283  1.2465  1.4312 -0.7077
32601SOL     OW 1333   7.403  10.411   1.774 -0.6790 -0.5018  0.2840
32601SOL    HW1 1334   7.472  10.370   1.827 -0.4322  1.4642  1.5982
32601SOL    HW2 1335   7.448  10.483   1.730 -1.0557 -1.6425 -2.0894
32602SOL     OW 1336   1.460   1.870   3.411 -0.2948  0.0250  0.5830
32602SOL    HW1 1337   1.407   1.847   3.334  0.4503 -0.9008  0.3313
32602SOL    HW2 1338   1.430   1.958   3.434 -0.4142  0.4112 -0.8926
32603SOL     OW 1339   9.786   5.270  10.968 -0.5893  0.0761  0.4642
32603SOL    HW1 1340   9.731   5.219  10.908  0.1616 -0.9973  0.6619
32603SOL    HW2 1341   9.800   5.353  10.923 -0.0380 -0.7086 -0.8830
32604SOL     OW 1342   8.517  10.979   3.431  0.0203  0.1532 -0.0134
32604SOL    HW1 1343   8.436  11.004   3.476 -0.7326 -0.4287 -0.9993
32604SOL    HW2 1344   8.582  10.972   3.501 -1.0598 -0.4867  0.9631
32605SOL     OW 1345   1.196   1.510  10.273 -0.6461 -0.1030 -0.5603
32605SOL    HW1 1346   1.242   1.490  10.354 -0.7243 -1.3655 -0.8011
32605SOL    HW2 1347   1.127   1.444  10.267 -0.7313  0.0514 -1.5782
32606SOL     OW 1348   0.611   9.548   9.877 -0.2118  0.0502 -0.1061
32606SOL    HW1 1349   0.525   9.556   9.919 -0.2994 -1.2401  0.0069
32606SOL    HW2 1350   0.674   9.562   9.947 -0.3152  0.7654 -0.1421
32607SOL     OW 1351   8.397   0.590   7.971 -0.6086 -0.8129  0.3192
32607SOL    HW1 1352   8.326   0.590   7.907  1.3303  1.8181 -2.1065
32607SOL    HW2 1353   8.369   0.651   8.039 -1.4074 -1.2024  0.3506
32608SOL     OW 1354   3.825   5.995   2.608 -0.1495 -0.0155 -0.7434
32608SOL    HW1 1355   3.750   5.965   2.659 -0.3975  1.0525 -0.4661
32608SOL    HW2 1356   3.864   6.065   2.660  0.3728  0.2073 -1.4085
32609SOL     OW 1357  11.005   1.697   7.942 -0.4844  0.6896  0.1996
32609SOL    HW1 1358  10.969   1.783   7.920 -0.4796  0.6061 -0.1404
32609SOL    HW2 1359  10.943   1.659   8.003  0.9746  2.1557  2.7507
32610SOL     OW 1360   5.211   7.484  10.457  0.4754  0.5426  0.5390
32610SOL    HW1 1361   5.180   7.571  10.432 -0.8040  0.1004  0.5125
32610SOL    HW2 1362   5.184   7.475  10.548 -0.0205 -0.0938  0.3309
32611SOL     OW 1363   6.448   2.387   1.454 -0.2482  0.2754  0.1444
32611SOL    HW1 1364   6.445   2.292   1.439 -0.1767  0.3008 -0.0340
32611SOL    HW2 1365   6.357   2.415   1.454 -0.3295  0.0611  1.1489
32612SOL     OW 1366  10.099   9.704   2.831 -0.3799  0.4280  0.2947
32612SOL    HW1 1367  10.172   9.726   2.889 -1.3812  1.7245  1.1066
32612SOL    HW2 1368  10.054   9.632   2.876  1.5696 -1.9376 -1.2583
32613SOL     OW 1369   3.704   1.386   4.369 -0.0796 -0.0386  0.7927
32613SOL    HW1 1370   3.796   1.402   4.348 -0.4455  0.7591 -0.3134
32613SOL    HW2 1371   3.686   1.442   4.444 -0.1498  1.3410 -0.2120
32614SOL     OW 1372   9.518   5.570   0.981  0.9597 -0.2163 -0.0641
32614SOL    HW1 1373   9.423   5.569   0.993  0.8171  0.5266 -0.9627
32614SOL    HW2 1374   9.534   5.647   0.927  2.1557  0.0680  0.6510
32615SOL     OW 1375   9.227   5.657   0.650  0.0253  0.4606  0.0884
32615SOL    HW1 1376   9.185   5.743   0.637 -1.0575  0.0366  0.6430
32615SOL    HW2 1377   9.165   5.595   0.613  0.1482 -0.1948  0.9682
32616SOL     OW 1378   3.210   6.419  11.014  0.1184 -0.3868  0.4112
32616SOL    HW1 1379   3.167   6.490  11.061  0.8850  0.0066  0.5401
32616SOL    HW2 1380   3.147   6.347  11.014 -1.0941  0.6405 -0.6601
32617SOL     OW 1381   5.799   6.889   6.569  0.4841 -0.6367  0.1305
32617SOL    HW1 1382   5.889   6.913   6.546 -0.1711  1.2254 -0.7261
32617SOL    HW2 1383   5.746   6.919   6.495 -0.9972 -0.3167  1.2589
32618SOL     OW 1384   6.659   9.780   7.689  0.1150 -0.4725  0.0290
32618SOL    HW1 1385   6.702   9.827   7.760  1.6553  0.6186 -1.5402
32618SOL    HW2 1386   6.725   9.773   7.621 -1.3826 -1.1786 -1.4319
32619SOL     OW 1387   7.693   8.999   6.421 -0.8674  0.2367  0.2758
32619SOL    HW1 1388   7.658   8.922   6.377 -0.2588  0.1879 -0.1291
32619SOL    HW2 1389   7.785   8.978   6.438 -1.0392  0.3185  1.4205
32620SOL     OW 1390   2.439   3.295   3.070  0.5482 -0.2511 -0.2787
32620SOL    HW1 1391   2.346   3.289   3.047  0.2960  0.3076  0.5479
32620SOL    HW2 1392   2.444   3.261   3.160  1.0162  0.4522 -0.0284
32621SOL     OW 1393   1.510   9.442  11.079 -0.3295 -0.5735 -0.3786
32621SOL    HW1 1394   1.592   9.394  11.065 -0.8969 -1.7427  0.1546
32621SOL    HW2 1395   1.481   9.415  11.166 -1.1367  0.0455 -0.4479
32622SOL     OW 1396   2.320   6.816   8.917  0.0756 -0.0730  0.3681
32622SOL    HW1 1397   2.374   6.820   8.839 -0.4922  0.5644 -0.0049
32622SOL    HW2 1398   2.246   6.875   8.899 -0.3885 -0.3961  1.1304
32623SOL     OW 1399   1.416   2.324   1.998  0.6204  0.2340 -0.0835
32623SOL    HW1 1400   1.510   2.337   2.006  0.5726 -0.5134  2.1458
32623SOL    HW2 1401   1.390   2.278   2.077 -1.7595  1.0736 -0.2750
32624SOL     OW 1402   7.786   4.107   7.627  0.6664 -0.2982  0.3898
32624SOL    HW1 1403   7.755   4.191   7.593 -1.5556 -1.4711 -0.7330
32624SOL    HW2 1404   7.706   4.061   7.653  1.8949 -1.7183  1.8654
32625SOL     OW 1405   1.528   5.506   6.994 -0.3662 -0.1018 -0.2227
32625SOL    HW1 1406   1.443   5.534   7.028 -1.5927 -1.5397 -1.9233
32625SOL    HW2 1407   1.507   5.462   6.911  1.9810 -1.1055 -0.3465
32626SOL     OW 1408   2.447   8.890   0.261  0.3378 -0.3333  0.1963
32626SOL    HW1 1409   2.406   8.917   0.179 -1.3480  0.2076  1.1678
32626SOL    HW2 1410   2.539   8.873   0.238  0.2899  1.3421 -1.4751
32627SOL     OW 1411   5.183   6.823   1.402 -0.1411 -0.4653 -0.7092
32627SOL    HW1 1412   5.234   6.753   1.444 -0.9510 -0.2187  0.7779
32627SOL    HW2 1413   5.246   6.892   1.386  0.1443 -0.4023  0.5458
32628SOL     OW 1414   9.104  10.387   8.558 -0.2214  0.3307 -0.6503
32628SOL    HW1 1415   9.147  10.318   8.608 -0.4335  0.5424 -0.1707
32628SOL    HW2 1416   9.063  10.342   8.484 -1.0118 -0.1604  0.0822
32629SOL     OW 1417   2.823   0.686   0.486  0.3540 -0.1220 -0.2348
32629SOL    HW1 1418   2.847   0.608   0.437 -1.1182 -1.2736  0.8021
32629SOL    HW2 1419   2.900   0.742   0.481  1.8667 -2.0962 -0.0582
32630SOL     OW 1420   0.062   1.887   9.845 -0.3629  0.2789  0.1371
32630SOL    HW1 1421   0.029   1.977   9.835 -0.9652  0.1817  1.0821
32630SOL    HW2 1422   0.052   1.849   9.759 -0.3498  1.0487 -0.2165
32631SOL     OW 1423   0.005   6.259   7.173 -0.2565  0.0324 -0.4833
32631SOL    HW1 1424   0.033   6.350   7.158 -1.5707  0.6856  0.7317
32631SOL    HW2 1425   0.086   6.212   7.191  0.4264  1.0337 -0.8174
32632SOL     OW 1426   0.552   6.200   9.668 -0.3833 -0.1287 -0.2397
32632SOL    HW1 1427   0.540   6.154   9.751 -1.4902  0.9891  0.2479
32632SOL    HW2 1428   0.571   6.130   9.605 -0.2677 -1.0661  0.7930
32633SOL     OW 1429   4.007   1.901   3.362  0.5495 -0.1919 -0.0580
32633SOL    HW1 1430   4.068   1.945   3.302  0.7738 -0.5909 -0.1289
32633SOL    HW2 1431   4.038   1.923   3.449 -0.7136  1.7148 -0.0344
32634SOL     OW 1432   7.940   6.690   2.423  0.1235 -0.1573 -0.1543
32634SOL    HW1 1433   8.026   6.648   2.422  0.7774  1.1011 -1.6123
32634SOL    HW2 1434   7.878   6.619   2.405  0.7947 -1.1272  1.1667
32635SOL     OW 1435   8.279   3.636   7.248 -0.3776  0.5601  0.1329
32635SOL    HW1 1436   8.328   3.555   7.239 -2.1035 -0.3039 -2.3606
32635SOL    HW2 1437   8.304   3.689   7.172 -1.4854  1.0961  0.1204
32636SOL     OW 1438   5.080   6.630   4.564 -0.2276 -0.1068  0.3293
32636SOL    HW1 1439   5.160   6.582   4.542 -0.8360 -1.9104  1.7573
32636SOL    HW2 1440   5.010   6.578   4.525 -0.8526  0.0608  1.1872
32637SOL     OW 1441  10.674   6.058   9.330  0.5755  0.3184 -0.1531
32637SOL    HW1 1442  10.686   5.984   9.389  1.1057  1.1104  0.7460
32637SOL    HW2 1443  10.715   6.031   9.248 -0.5304 -0.9513 -0.3208
32638SOL     OW 1444   5.738   5.448   9.297 -0.1070 -0.3633 -0.2853
32638SOL    HW1 1445   5.645   5.454   9.317 -0.1223 -0.0236 -0.4448
32638SOL    HW2 1446   5.780   5.509   9.358  0.3224 -2.4566  1.6648
32639SOL     OW 1447   4.103   0.829   2.988 -0.6898  0.4328  0.1820
32639SOL    HW1 1448   4.117   0.828   3.083  3.5326 -1.1026 -0.2623
32639SOL    HW2 1449   4.038   0.761   2.973 -0.8957  0.1974  1.8978
32640SOL     OW 1450   7.403   7.532   9.690  0.1515  0.1859  0.3592
32640SOL    HW1 1451   7.420   7.506   9.781  1.1918  0.6851  0.3245
32640SOL    HW2 1452   7.416   7.452   9.639 -2.6809 -0.6687  0.8461
32641SOL     OW 1453   7.593   6.621   0.207  0.1220 -0.3441 -0.0391
32641SOL    HW1 1454   7.521   6.575   0.165  0.1511  0.6253 -1.2320
32641SOL    HW2 1455   7.671   6.592   0.159  0.1257  0.9834 -0.8773
32642SOL     OW 1456   7.910   0.157   0.558 -0.1987 -0.1426  0.1432
32642SOL    HW1 1457   7.978   0.131   0.495 -0.4999 -1.9772  0.5419
32642SOL    HW2 1458   7.837   0.098   0.540 -1.3852  1.2284  0.3186
32643SOL     OW 1459   9.249   3.605   8.632 -0.7298 -0.1316  0.0510
32643SOL    HW1 1460   9.232   3.563   8.716 -2.7052  0.3921 -0.0212
32643SOL    HW2 1461   9.266   3.697   8.653 -1.1699 -0.0111 -0.0943
32644SOL     OW 1462   4.571   7.307   1.135  0.0202  0.0367  0.5108
32644SOL    HW1 1463   4.576   7.313   1.040  0.5663 -0.0085  0.5284
32644SOL    HW2 1464   4.484   7.271   1.154 -0.1836  0.2877  0.0420
32645SOL     OW 1465   1.718  10.469  10.500 -0.2484  0.5607 -0.2230
32645SOL    HW1 1466   1.667  10.465  10.419 -2.9486  1.6292  1.3121
32645SOL    HW2 1467   1.736  10.563  10.512 -2.1676  0.7363  1.6844
32646SOL     OW 1468   5.273   8.788   9.528 -0.6187  0.1009  0.2807
32646SOL    HW1 1469   5.218   8.714   9.503 -0.5598  0.1726 -0.0716
32646SOL    HW2 1470   5.280   8.782   9.623  0.0353 -0.8144  0.1934
32647SOL     OW 1471   5.658   7.625   7.932 -0.2831 -0.2385  0.0828
32647SOL    HW1 1472   5.716   7.550   7.922 -1.0533 -0.9032  0.5168
32647SOL    HW2 1473   5.571   7.592   7.910 -0.3150  1.1315 -2.1199
32648SOL     OW 1474   7.297   8.908  10.099  0.2324 -0.4533 -0.3235
32648SOL    HW1 1475   7.227   8.962  10.064  0.1877  0.5644  1.2246
32648SOL    HW2 1476   7.260   8.869  10.179  0.1616 -3.0520 -1.5206
32649SOL     OW 1477   5.566   4.956   3.457  0.0451 -0.0202  0.1193
32649SOL    HW1 1478   5.515   4.889   3.504  0.3200 -0.0368  0.3981
32649SOL    HW2 1479   5.657   4.933   3.475  0.1427  1.2501  1.4079
32650SOL     OW 1480   6.141   4.069   6.155  0.0474  0.4718  0.2464
32650SOL    HW1 1481   6.136   4.156   6.195 -3.2057 -0.1567  1.4836
32650SOL    HW2 1482   6.072   4.069   6.089 -1.2717 -1.6842  1.5285
32651SOL     OW 1483   3.630   1.765   9.709  0.3777  0.0286  0.1268
32651SOL    HW1 1484   3.709   1.786   9.658  0.6409 -0.7102  0.2216
32651SOL    HW2 1485   3.625   1.670   9.708  0.0465  0.0228  0.9709
32652SOL     OW 1486  11.037   8.689   5.175  0.1150  0.0478 -0.0893
32652SOL    HW1 1487  11.072   8.601   5.167  0.3671  0.0531  0.8100
32652SOL    HW2 1488  10.942   8.678   5.173 -0.0729 -0.7879  4.0564
32653SOL     OW 1489   7.150   5.657   6.653 -0.3718 -0.0668  0.3082
32653SOL    HW1 1490   7.089   5.583   6.654 -0.1429 -0.2736 -0.5542
32653SOL    HW2 1491   7.190   5.656   6.740 -2.1127  0.5202  1.1625
32654SOL     OW 1492   6.241   8.009   0.469  0.3272 -0.2552  0.2184
32654SOL    HW1 1493   6.262   7.918   0.490  0.4563 -0.4169 -0.5809
32654SOL    HW2 1494   6.183   8.004   0.393  2.1699  0.3590 -1.3252
32655SOL     OW 1495  10.621   5.640   0.779  0.1909  0.0431 -0.0606
32655SOL    HW1 1496  10.660   5.578   0.841 -0.7468 -0.8717 -0.3463
32655SOL    HW2 1497  10.599   5.587   0.702 -2.0266  0.3760  0.2672
32656SOL     OW 1498   2.670  11.113   6.811  0.1941  0.2551 -0.3478
32656SOL    HW1 1499   2.703  11.185   6.758  0.2144  1.5390  1.3128
32656SOL    HW2 1500   2.577  11.131   6.820  0.0576 -0.3512 -0.5631
32657SOL     OW 1501   8.326   5.451   9.509 -0.3064 -0.4708 -0.2169
32657SOL    HW1 1502   8.404   5.395   9.518  0.3744  0.4494 -0.1839
32657SOL    HW2 1503   8.274   5.432   9.587  0.5277 -0.1528  0.4377
32658SOL     OW 1504   3.290   8.048   7.749 -0.5964  0.1737  0.2257
32658SOL    HW1 1505   3.267   7.974   7.806  0.3686  0.1804  0.6516
32658SOL    HW2 1506   3.299   8.122   7.809 -1.3664  0.6042 -0.1754
32659SOL     OW 1507   9.131   8.013   6.580 -0.0656 -0.0132  0.3869
32659SOL    HW1 1508   9.123   8.077   6.509  0.4029  1.1896  1.3847
32659SOL    HW2 1509   9.178   8.059   6.649 -0.5250 -1.1502  1.5021
32660SOL     OW 1510   0.393   3.340   4.327  0.4875 -0.3985  0.2000
32660SOL    HW1 1511   0.466   3.348   4.388  1.7647 -0.2392 -1.2874
32660SOL    HW2 1512   0.398   3.249   4.296 -0.0671 -0.4413  0.2264
32661SOL     OW 1513  11.066   1.804   7.362  0.0216 -0.4910 -0.3912
32661SOL    HW1 1514  11.094   1.862   7.291 -0.1361 -0.4212 -0.3985
32661SOL    HW2 1515  11.051   1.720   7.320  1.3706 -0.8469 -0.1759
32662SOL     OW 1516   8.711  10.898   2.167  0.1941 -0.1730 -0.4330
32662SOL    HW1 1517   8.665  10.920   2.248 -1.0095 -0.6434 -0.9657
32662SOL    HW2 1518   8.802  10.925   2.182 -0.2625  0.8009  0.6348
32663SOL     OW 1519   0.438   3.823   8.948  0.1937  0.4172 -0.2892
32663SOL    HW1 1520   0.482   3.794   9.028 -0.8863 -1.1184 -0.2101
32663SOL    HW2 1521   0.509   3.836   8.886  1.1114  2.2150  1.0521
32664SOL     OW 1522   4.544   7.252   5.354  0.0827 -0.0068 -0.0086
32664SOL    HW1 1523   4.528   7.340   5.321 -0.8420  0.7085  2.1632
32664SOL    HW2 1524   4.635   7.254   5.384 -0.2061  0.5145  0.8597
32665SOL     OW 1525   5.150   2.201   5.112 -1.0639  0.1050 -0.5348
32665SOL    HW1 1526   5.197   2.118   5.114 -0.9890  0.1511  1.5945
32665SOL    HW2 1527   5.173   2.240   5.027 -0.1685 -1.5012 -1.0583
32666SOL     OW 1528   0.880  10.694   6.061 -0.3384 -0.1854  0.1281
32666SOL    HW1 1529   0.917  10.629   6.003 -0.7860 -1.4518  1.2178
32666SOL    HW2 1530   0.794  10.660   6.085 -0.9014  1.1602  0.1605
32667SOL     OW 1531   6.831   4.198   5.733  0.0665 -0.8640 -0.7813
32667SOL    HW1 1532   6.790   4.248   5.803  1.7941 -0.2748 -0.1177
32667SOL    HW2 1533   6.759   4.161   5.683 -1.2301 -1.3501  1.3443
32668SOL     OW 1534   2.454   5.130   4.507 -0.1422 -0.2118  0.0302
32668SOL    HW1 1535   2.519   5.151   4.574 -0.7595 -1.2474  0.9939
32668SOL    HW2 1536   2.464   5.036   4.493 -2.4031 -0.7312  1.3345
32669SOL     OW 1537   5.642  10.797   7.323  0.3212  0.1138  0.3085
32669SOL    HW1 1538   5.556  10.837   7.338  0.2328 -0.5488  1.6505
32669SOL    HW2 1539   5.683  10.794   7.409  2.7076  2.5930 -0.5737
32670SOL     OW 1540   3.606  11.043   2.844 -0.4063  0.2735  0.2373
32670SOL    HW1 1541   3.579  11.119   2.792 -0.5783 -0.4748 -0.7910
32670SOL    HW2 1542   3.529  10.987   2.847 -0.1317 -0.0932  0.5606
32671SOL     OW 1543   7.348   2.371   2.008  0.0909  0.0984  0.3436
32671SOL    HW1 1544   7.393   2.288   2.022  1.0361  0.6858  0.9562
32671SOL    HW2 1545   7.398   2.413   1.937 -0.0138  0.3866  0.4377
32672SOL     OW 1546   7.714   0.747   0.069 -0.5486 -0.1401 -0.3797
32672SOL    HW1 1547   7.744   0.833   0.039 -0.0330  1.1309  3.3372
32672SOL    HW2 1548   7.795   0.697   0.082 -0.7097 -0.4040 -0.3913
32673SOL     OW 1549   0.973   3.340   9.356 -0.4156 -0.3050 -0.2393
32673SOL    HW1 1550   0.996   3.277   9.288 -0.2830 -0.0316 -0.4486
32673SOL    HW2 1551   1.049   3.342   9.414  0.0522  0.4919 -0.8515
32674SOL     OW 1552   0.247   7.927   8.886 -0.5377 -0.2195 -0.2234
32674SOL    HW1 1553   0.189   7.955   8.957 -0.8692  1.2978 -1.0527
32674SOL    HW2 1554   0.217   7.976   8.810  0.4937 -1.0111 -1.1733
32675SOL     OW 1555   0.497   1.187  10.159  0.0816  0.1899 -0.0933
32675SOL    HW1 1556   0.462   1.210  10.073  0.5520  0.3771 -0.2404
32675SOL    HW2 1557   0.478   1.263  10.214 -0.6875 -0.1439  0.1100
32676SOL     OW 1558   7.386   8.846   9.843 -0.0415  0.5095 -0.2463
32676SOL    HW1 1559   7.375   8.859   9.937  1.0861 -2.1871  0.3515
32676SOL    HW2 1560   7.477   8.871   9.826  0.0865 -0.0373 -0.3800
32677SOL     OW 1561   7.925   6.357   1.128  0.2578 -0.5181 -0.6941
32677SOL    HW1 1562   8.016   6.336   1.150  0.0719  0.3099  1.0802
32677SOL    HW2 1563   7.873   6.314   1.196 -0.5256  0.4947 -0.6137
32678SOL     OW 1564   0.700   3.466   9.578  0.2427  0.2852 -0.0947
32678SOL    HW1 1565   0.696   3.485   9.485 -0.9126 -0.8923 -0.3136
32678SOL    HW2 1566   0.640   3.528   9.619 -0.5201 -0.2730 -0.3446
32679SOL     OW 1567   1.699   8.357   1.687 -0.4462 -0.3402  0.3364
32679SOL    HW1 1568   1.718   8.263   1.693 -1.1189 -0.4233  1.4737
32679SOL    HW2 1569   1.614   8.362   1.643 -0.5574 -0.2827  0.5561
32680SOL     OW 1570   8.384   6.888   5.914 -0.3584  0.7038 -0.3789
32680SOL    HW1 1571   8.406   6.794   5.912  1.5615  0.9806  2.0450
32680SOL    HW2 1572   8.291   6.890   5.935 -0.4209 -0.6641 -0.4056
32681SOL     OW 1573   2.884   4.380   5.137 -0.3159 -1.0258 -0.0544
32681SOL    HW1 1574   2.914   4.290   5.129 -1.0171 -1.3451  0.7374
32681SOL    HW2 1575   2.829   4.381   5.215 -0.3288  0.0883 -0.0492
32682SOL     OW 1576   5.253   3.366   7.791 -0.2072 -0.2676  0.9281
32682SOL    HW1 1577   5.187   3.333   7.852 -1.2593 -0.2396 -0.1658
32682SOL    HW2 1578   5.226   3.456   7.773 -0.7649 -0.7224 -0.6834
32683SOL     OW 1579   2.922   3.787   1.200  0.1299  0.5486  0.1818
32683SOL    HW1 1580   2.975   3.867   1.208  1.6915 -0.3705 -0.3959
32683SOL    HW2 1581   2.984   3.721   1.170 -1.1904 -0.8247  0.3686
32684SOL     OW 1582   6.745   9.596   1.711  0.3555 -0.1212 -0.0181
32684SOL    HW1 1583   6.763   9.519   1.657  0.2207 -0.4020  0.3409
32684SOL    HW2 1584   6.661   9.629   1.679  0.6503  0.1749 -0.5112
32685SOL     OW 1585   7.777  10.081   3.679  0.2102  0.3936  0.1350
32685SOL    HW1 1586   7.724  10.145   3.726  3.9201  1.9060  2.6572
32685SOL    HW2 1587   7.850  10.061   3.737  1.1965 -3.5088 -2.0270
32686SOL     OW 1588   9.932   2.003   3.988 -0.1407  0.9186  0.1990
32686SOL    HW1 1589  10.001   1.991   4.053 -0.9685  1.2696  1.1707
32686SOL    HW2 1590   9.956   2.082   3.941 -0.2120  1.4018  0.9659
32687SOL     OW 1591  10.510   6.469   8.843  0.6075  0.2599  0.6625
32687SOL    HW1 1592  10.580   6.415   8.881 -1.2029 -1.3184  1.9498
32687SOL    HW2 1593  10.436   6.457   8.903 -0.9385  1.4544 -0.9268
32688SOL     OW 1594   8.865   9.492   3.859  0.1300  0.4337 -0.3646
32688SOL    HW1 1595   8.815   9.572   3.844 -0.4738 -0.0500 -0.9906
32688SOL    HW2 1596   8.876   9.489   3.954  0.8703  1.6731 -0.3934
32689SOL     OW 1597  11.003   1.564   5.298  0.0532 -0.3544 -0.1816
32689SOL    HW1 1598  11.059   1.622   5.351 -0.8514  1.3573 -1.0060
32689SOL    HW2 1599  10.921   1.558   5.347 -0.0154 -0.5511 -0.3190
32690SOL     OW 1600   2.390   3.398   9.106 -0.4561  0.1842 -0.3075
32690SOL    HW1 1601   2.484   3.378   9.098 -0.4335 -0.5997  1.4376
32690SOL    HW2 1602   2.372   3.456   9.033  1.1898 -0.3860 -1.2193
32691SOL     OW 1603   1.747   4.331   5.261  0.4069 -0.1612 -0.3032
32691SOL    HW1 1604   1.764   4.353   5.170  0.5066 -1.2731 -0.5612
32691SOL    HW2 1605   1.766   4.238   5.268  0.7536 -0.0204  0.9427
32692SOL     OW 1606  11.024   1.552   7.142 -0.1392  0.1262 -0.3344
32692SOL    HW1 1607  10.992   1.465   7.167 -0.3295  0.6016  1.1528
32692SOL    HW2 1608  10.959   1.584   7.079 -0.2337 -0.6726 -0.6623
32693SOL     OW 1609   4.852   8.667   5.623  0.3214  0.2893 -0.5575
32693SOL    HW1 1610   4.930   8.623   5.589  0.9902  0.9751  0.0445
32693SOL    HW2 1611   4.805   8.696   5.545  1.1756  0.7116 -0.9311
32694SOL     OW 1612   1.610   0.026   2.093  0.1605  0.6409 -0.2871
32694SOL    HW1 1613   1.610   0.110   2.139  2.3524  1.2599 -1.2941
32694SOL    HW2 1614   1.523   0.020   2.054  0.3155  3.0004 -1.1439
32695SOL     OW 1615   3.309   3.663   1.119  0.4702  0.0604  0.0261
32695SOL    HW1 1616   3.307   3.684   1.212  1.6225 -0.3031  0.1548
32695SOL    HW2 1617   3.366   3.729   1.081  0.0990  0.1367 -0.3994
32696SOL     OW 1618   7.282   9.882   0.037 -0.1417  0.1829 -0.0390
32696SOL    HW1 1619   7.308   9.974   0.029  0.3406  0.2690  1.8624
32696SOL    HW2 1620   7.190   9.885   0.062  0.0177  0.1960  0.5728
32697SOL     OW 1621   3.124   8.836   7.804  0.6908  0.1001  0.1947
32697SOL    HW1 1622   3.163   8.917   7.771  1.4728 -0.2210  0.2991
32697SOL    HW2 1623   3.047   8.864   7.853  0.7122  0.7437 -0.1330
32698SOL     OW 1624   0.085   5.691   2.335 -0.4225 -0.9654 -0.2082
32698SOL    HW1 1625   0.159   5.748   2.317  0.1705 -0.8280  2.3061
32698SOL    HW2 1626   0.009   5.739   2.304 -0.1267  2.0351  3.0966
32699SOL     OW 1627   1.702   4.873   4.521 -0.6212  0.1388 -0.1883
32699SOL    HW1 1628   1.607   4.861   4.523 -0.4730 -1.2011  1.5056
32699SOL    HW2 1629   1.737   4.788   4.546  1.0060  0.7947 -0.1361
32700SOL     OW 1630   9.228   7.166   3.531 -0.2305 -1.2868  0.1250
32700SOL    HW1 1631   9.142   7.136   3.504 -1.1039  2.5803 -2.0928
32700SOL    HW2 1632   9.212   7.222   3.607  0.4210 -1.2273  0.2290
32701SOL     OW 1633   1.086   7.015   1.921 -0.0618  0.1135  0.1190
32701SOL    HW1 1634   1.027   7.035   1.994 -0.5096  0.2917 -0.2857
32701SOL    HW2 1635   1.029   6.977   1.854  0.2768  0.3249 -0.2924
32702SOL     OW 1636   7.286   1.966   5.153  0.3247  0.5649  0.1072
32702SOL    HW1 1637   7.198   1.927   5.151  0.2634  0.4956  2.4043
32702SOL    HW2 1638   7.335   1.916   5.087 -1.2455  0.3996 -1.0044
32703SOL     OW 1639   0.721   5.194   4.887  0.0010  0.8453  0.2745
32703SOL    HW1 1640   0.693   5.103   4.876 -1.3663  1.0643  1.6440
32703SOL    HW2 1641   0.710   5.232   4.800 -2.8742  0.5760  0.4228
32704SOL     OW 1642   4.068   8.711   9.417 -0.0041 -0.0994  0.5891
32704SOL    HW1 1643   4.069   8.758   9.500 -0.8720  1.7679 -0.3934
32704SOL    HW2 1644   3.984   8.665   9.416  0.0958 -0.2880  0.8260
32705SOL     OW 1645   6.373   1.315   5.298 -0.4221 -0.8680 -0.4282
32705SOL    HW1 1646   6.440   1.336   5.232 -0.3903 -0.3534 -0.2376
32705SOL    HW2 1647   6.417   1.256   5.359 -0.0852 -0.4080 -0.2167
32706SOL     OW 1648   0.789   9.879   3.737  0.1450  0.1683 -0.7808
32706SOL    HW1 1649   0.752   9.927   3.663  1.4877  1.0424 -0.9051
32706SOL    HW2 1650   0.866   9.929   3.762  0.0902 -0.4844  0.7945
32707SOL     OW 1651   9.238   1.165   7.640  0.8864  0.1317  0.4250
32707SOL    HW1 1652   9.222   1.126   7.726  2.9570  0.9787  1.2429
32707SOL    HW2 1653   9.328   1.197   7.644  1.5502 -1.0167 -2.5418
32708SOL     OW 1654   0.107   2.320   2.156 -0.1326 -0.3314 -0.3440
32708SOL    HW1 1655   0.058   2.274   2.088 -1.2851 -0.3948  0.5043
32708SOL    HW2 1656   0.064   2.295   2.238  1.8132 -0.9927  0.5109
32709SOL     OW 1657   5.850   4.948   6.321 -0.0589 -0.0425  0.4856
32709SOL    HW1 1658   5.897   4.881   6.372  1.0726  0.4223  0.0874
32709SOL    HW2 1659   5.770   4.964   6.371  1.2442  0.7905  2.4596
32710SOL     OW 1660   9.443   2.386   7.671  0.3284  0.1365  0.3666
32710SOL    HW1 1661   9.359   2.372   7.627  0.4108  0.5597  0.0687
32710SOL    HW2 1662   9.420   2.416   7.759  0.1462 -1.6068  0.9573
32711SOL     OW 1663   0.841   4.447   0.835  0.0081  0.0538 -0.1594
32711SOL    HW1 1664   0.875   4.462   0.747 -0.2969  0.1164 -0.2666
32711SOL    HW2 1665   0.803   4.359   0.832  1.0276 -0.4209  0.2316
32712SOL     OW 1666   2.823   3.245   0.528  0.0031 -0.4025 -0.1911
32712SOL    HW1 1667   2.830   3.190   0.606  2.8327 -1.7486 -1.2259
32712SOL    HW2 1668   2.841   3.333   0.559  0.9448 -0.8995  0.7445
32713SOL     OW 1669   1.989   8.126   1.353  0.1425  0.2078  0.2317
32713SOL    HW1 1670   2.081   8.123   1.380  0.2736 -0.7511 -0.2634
32713SOL    HW2 1671   1.941   8.104   1.433  0.4540 -1.1229  0.0882
32714SOL     OW 1672   4.649   7.030   3.163 -0.0512  0.5253  0.3983
32714SOL    HW1 1673   4.669   6.939   3.185  1.9674  0.7373 -0.3065
32714SOL    HW2 1674   4.576   7.024   3.102  0.6368 -0.7299 -0.3523
32715SOL     OW 1675   0.136   7.478   3.999 -0.0822  0.1094 -0.0831
32715SOL    HW1 1676   0.067   7.544   4.004 -1.9411 -1.6334 -1.3378
32715SOL    HW2 1677   0.165   7.466   4.089 -0.1318  2.1262  0.2454
32716SOL     OW 1678   9.951  10.095   4.795 -0.4778  0.4939 -0.3700
32716SOL    HW1 1679   9.947  10.013   4.747 -1.2666 -0.8275  1.7823
32716SOL    HW2 1680   9.983  10.159   4.732  1.5629 -1.7251 -1.7770
32717SOL     OW 1681   7.025   6.644   7.818  0.3675  0.5636 -0.3658
32717SOL    HW1 1682   6.973   6.722   7.837  0.6411  0.4993  0.7183
32717SOL    HW2 1683   7.095   6.645   7.884  0.5057 -0.4775 -0.4813
32718SOL     OW 1684   5.621   7.908  10.459 -0.1473  0.1300  0.5361
32718SOL    HW1 1685   5.608   8.003  10.468  0.6430  0.2242  0.7747
32718SOL    HW2 1686   5.535   7.875  10.432 -0.6204  0.8178  1.1593
32719SOL     OW 1687   9.867  10.813   9.994 -0.3368  0.0796 -0.0565
32719SOL    HW1 1688   9.801  10.812  10.063 -0.3475  1.1863 -0.0314
32719SOL    HW2 1689   9.821  10.844   9.916 -0.1236 -0.3308 -0.3495
32720SOL     OW 1690   0.158  10.613   9.908  0.1946 -0.4592 -0.7811
32720SOL    HW1 1691   0.193  10.539   9.858  1.1745  0.9734 -2.3101
32720SOL    HW2 1692   0.126  10.674   9.842  0.6298  1.0750  0.3671
32721SOL     OW 1693   9.837   1.216   8.078 -0.1174 -0.8964 -0.0096
32721SOL    HW1 1694   9.786   1.153   8.028  0.5674 -0.4482 -1.3323
32721SOL    HW2 1695   9.781   1.241   8.151 -1.2223 -1.4489 -0.6522
32722SOL     OW 1696   7.060   8.078   8.978 -0.0898 -0.0812  0.2113
32722SOL    HW1 1697   7.095   8.010   8.920 -1.5296  0.4827 -1.4329
32722SOL    HW2 1698   7.107   8.158   8.952 -0.3801  0.0771  0.1658
32723SOL     OW 1699   5.647   8.344   8.007  0.4324 -0.3342  0.5388
32723SOL    HW1 1700   5.729   8.307   8.041 -0.3368 -0.5020  2.3222
32723SOL    HW2 1701   5.626   8.290   7.931  1.2308 -1.2224  0.9233
32724SOL     OW 1702   1.202   4.172   9.101 -0.4620  0.1402 -0.3673
32724SOL    HW1 1703   1.242   4.202   9.183  0.9853 -0.8070 -0.6939
32724SOL    HW2 1704   1.175   4.253   9.057  0.8428  0.8111  0.0211
32725SOL     OW 1705   0.169   1.861  10.113 -0.2424 -0.6585  0.0009
32725SOL    HW1 1706   0.162   1.896  10.025 -0.3324 -0.6738  0.0032
32725SOL    HW2 1707   0.244   1.801  10.109  0.6728  0.4251  0.2899
32726SOL     OW 1708   4.140   4.913   9.244 -0.1041  0.5296  0.1026
32726SOL    HW1 1709   4.187   4.910   9.160 -0.2684 -0.4708  0.0402
32726SOL    HW2 1710   4.066   4.972   9.228  0.0163  0.5571 -0.3764
32727SOL     OW 1711   8.620   7.990   2.069 -0.5369  0.7288  0.1316
32727SOL    HW1 1712   8.636   7.895   2.072  3.0777  1.1167 -1.3141
32727SOL    HW2 1713   8.591   8.012   2.157 -2.4535 -1.8020  0.2534
32728SOL     OW 1714   3.015   1.306   1.109 -0.3086  0.0650 -0.2020
32728SOL    HW1 1715   3.095   1.328   1.061  0.2185 -3.1333 -1.0139
32728SOL    HW2 1716   3.037   1.318   1.201  1.4760 -1.6093 -0.3594
32729SOL     OW 1717   7.842   7.106   9.312  0.4516 -0.3580 -0.7739
32729SOL    HW1 1718   7.756   7.130   9.345  1.4828  2.4436  0.2623
32729SOL    HW2 1719   7.828   7.084   9.220 -1.2188  1.3727 -0.9999
32730SOL     OW 1720   4.436   3.439   5.609  0.2302 -0.5271  0.2753
32730SOL    HW1 1721   4.436   3.379   5.683 -1.5162  0.7188  1.3604
32730SOL    HW2 1722   4.345   3.443   5.580  0.3029  1.4147  0.1410
32731SOL     OW 1723   7.652   5.779   6.217  0.1383 -0.1814 -0.2791
32731SOL    HW1 1724   7.673   5.808   6.128  1.1109  1.3746  0.4146
32731SOL    HW2 1725   7.693   5.844   6.274 -1.7335 -0.2888  1.3071
32732SOL     OW 1726   2.131   7.581   9.735  0.1920  0.0497  0.1130
32732SOL    HW1 1727   2.163   7.582   9.644 -1.0786 -2.8601 -0.4579
32732SOL    HW2 1728   2.206   7.550   9.786  0.6064  0.7699 -0.0284
32733SOL     OW 1729   1.332   3.615   1.905 -0.0403 -0.4954 -0.4462
32733SOL    HW1 1730   1.398   3.634   1.972  1.0492 -1.6318 -1.1630
32733SOL    HW2 1731   1.262   3.572   1.953 -0.7815  1.6406  0.5069
32734SOL     OW 1732   7.731   7.896   4.387 -0.0988 -0.3849 -0.4594
32734SOL    HW1 1733   7.767   7.809   4.403 -1.7353 -1.1634 -0.8266
32734SOL    HW2 1734   7.703   7.927   4.473  0.8471 -0.0219 -0.2648
32735SOL     OW 1735   2.226   2.634   1.849  0.9381  0.4142 -0.0810
32735SOL    HW1 1736   2.277   2.635   1.930  0.5915  0.4202  0.1367
32735SOL    HW2 1737   2.284   2.675   1.785  1.3577  0.0712  0.0731
32736SOL     OW 1738   9.591   2.205   6.095 -0.1979  0.1204 -0.1893
32736SOL    HW1 1739   9.590   2.113   6.123  0.2752 -1.2344 -4.0227
32736SOL    HW2 1740   9.509   2.218   6.049  0.6073  0.9399 -1.4755
32737SOL     OW 1741   6.636  10.190   9.176 -0.5084  0.1486  0.7196
32737SOL    HW1 1742   6.563  10.170   9.117  0.8619 -2.6469 -0.1984
32737SOL    HW2 1743   6.663  10.105   9.210  3.6399  0.7387 -0.5613
32738SOL     OW 1744   8.933   7.500   7.591  0.3268  0.5402 -0.0356
32738SOL    HW1 1745   8.865   7.525   7.654 -0.1392 -0.3212 -0.1889
32738SOL    HW2 1746   8.997   7.572   7.595 -0.1922  0.9710  0.6890
32739SOL     OW 1747   9.950   8.199  10.410  0.9324  0.5430 -0.2357
32739SOL    HW1 1748   9.870   8.248  10.390 -0.5711 -1.7205 -0.1494
32739SOL    HW2 1749   9.972   8.156  10.327  2.2365  1.3278 -0.3175
32740SOL     OW 1750   9.552   3.663   0.486  0.1039 -0.1672  0.4249
32740SOL    HW1 1751   9.499   3.586   0.465 -0.4362  0.8266 -2.3165
32740SOL    HW2 1752   9.632   3.652   0.435 -0.0721  1.1213 -0.1895
32741SOL     OW 1753   2.475   3.939   5.725 -0.2592  0.6365 -0.3942
32741SOL    HW1 1754   2.533   3.884   5.778 -0.0472  0.0673 -1.2013
32741SOL    HW2 1755   2.388   3.927   5.764  0.0175  0.8725  0.3244
32742SOL     OW 1756   1.327   2.715   1.812 -0.5591 -0.2959 -0.1355
32742SOL    HW1 1757   1.393   2.784   1.803  1.2986 -1.8794  0.6013
32742SOL    HW2 1758   1.287   2.709   1.726  1.6337 -0.5549 -1.2062
32743SOL     OW 1759   6.666   6.606   4.085  0.0493  0.0526  0.0743
32743SOL    HW1 1760   6.703   6.586   4.171 -0.1863 -2.8906 -0.4182
32743SOL    HW2 1761   6.580   6.564   4.085  0.7657 -1.6237 -2.1834
32744SOL     OW 1762   7.633   0.479   3.056 -0.0027  0.2473 -0.0053
32744SOL    HW1 1763   7.632   0.566   3.017  1.1919  0.5684  0.6192
32744SOL    HW2 1764   7.603   0.492   3.146 -3.4798 -0.6064 -0.8939
32745SOL     OW 1765   2.884   0.118   7.411  0.3022 -0.0390  0.4628
32745SOL    HW1 1766   2.801   0.099   7.455  0.4612 -2.3951 -0.1666
32745SOL    HW2 1767   2.863   0.114   7.318  1.4214 -2.5997  0.2365
32746SOL     OW 1768   3.285   5.722  10.705  0.7232 -0.2274 -0.2247
32746SOL    HW1 1769   3.337   5.781  10.652  0.8705 -0.5300 -0.4146
32746SOL    HW2 1770   3.347   5.683  10.766  0.2978  1.4258  1.3772
32747SOL     OW 1771   8.636   1.730   7.046 -0.0297 -0.7075  0.0236
32747SOL    HW1 1772   8.609   1.640   7.025  1.9823 -1.0110 -1.6227
32747SOL    HW2 1773   8.609   1.781   6.970  0.2982 -0.2388  0.2181
32748SOL     OW 1774   3.502   2.098   2.204  0.4219 -0.1301 -0.5854
32748SOL    HW1 1775   3.559   2.029   2.238 -0.6861 -1.3919 -1.1891
32748SOL    HW2 1776   3.441   2.052   2.147 -3.1814  0.5763  2.2965
32749SOL     OW 1777   8.729   0.632   1.470 -0.4796 -0.3244  0.1443
32749SOL    HW1 1778   8.803   0.646   1.529 -0.7364  0.7417  0.2388
32749SOL    HW2 1779   8.661   0.692   1.501 -0.4408  0.6489 -1.4971
32750SOL     OW 1780   3.480   6.209  10.460 -0.2173  0.2965  0.6549
32750SOL    HW1 1781   3.390   6.237  10.447 -0.2151  0.1925  0.4230
32750SOL    HW2 1782   3.518   6.275  10.518 -0.8213 -0.3470  1.8220
32751SOL     OW 1783   8.292   8.817  10.133 -0.3542 -0.5075 -0.3130
32751SOL    HW1 1784   8.303   8.890  10.072 -0.7277 -0.4875 -0.3579
32751SOL    HW2 1785   8.247   8.750  10.081 -0.1407 -0.7142 -0.2302
32752SOL     OW 1786   7.422   4.543  10.162  0.8782  0.6196 -0.0293
32752SOL    HW1 1787   7.423   4.463  10.108 -0.3880 -0.3971  1.3606
32752SOL    HW2 1788   7.377   4.608  10.107  2.0272  0.4451 -1.2261
32753SOL     OW 1789   1.516   1.958   1.381  0.2841 -0.1638  0.0979
32753SOL    HW1 1790   1.610   1.946   1.370  0.3693  1.2432 -0.9941
32753SOL    HW2 1791   1.505   1.983   1.472  0.7853 -1.7569  0.6226
32754SOL     OW 1792   9.578   2.333   4.588 -0.3595 -0.2328 -0.0721
32754SOL    HW1 1793   9.489   2.330   4.624 -0.0418  2.6440  1.2492
32754SOL    HW2 1794   9.604   2.241   4.580 -3.1341 -1.1366  0.2518
32755SOL     OW 1795   7.954   8.487   1.495 -0.3977 -0.6233  0.1629
32755SOL    HW1 1796   7.963   8.548   1.568  1.9010 -1.2465  0.4838
32755SOL    HW2 1797   7.874   8.438   1.515 -2.1834  2.0119  0.0110
32756SOL     OW 1798   8.917   0.649   2.207  0.0259  0.0505  0.1979
32756SOL    HW1 1799   8.953   0.578   2.261 -3.5146 -0.2109  2.5223
32756SOL    HW2 1800   8.871   0.605   2.136  0.3499  0.1680 -0.0866
32757SOL     OW 1801   7.593   4.126   8.125  0.0281 -0.0426 -0.0750
32757SOL    HW1 1802   7.550   4.043   8.148 -0.3360  0.7931  2.6446
32757SOL    HW2 1803   7.544   4.158   8.049  0.0700 -2.1869 -1.1003
32758SOL     OW 1804   8.936  10.084   0.474  0.1950 -0.1176 -0.2895
32758SOL    HW1 1805   9.021  10.120   0.448 -0.2615  0.5935 -0.8235
32758SOL    HW2 1806   8.888  10.072   0.392  0.0521 -1.2479 -0.0585
32759SOL     OW 1807   5.340   7.621   1.208 -0.1862 -0.0145 -0.5270
32759SOL    HW1 1808   5.409   7.653   1.150 -0.1892 -0.0146 -0.5311
32759SOL    HW2 1809   5.378   7.623   1.295 -0.5072  0.9172 -0.3997
32760SOL     OW 1810  10.323   1.098   3.237  0.3267 -0.2922  0.2870
32760SOL    HW1 1811  10.287   1.183   3.213  2.3403  0.2351 -1.1253
32760SOL    HW2 1812  10.335   1.103   3.332  0.9318  1.2521  0.1666
32761SOL     OW 1813   7.626   2.596   5.829 -0.1512  0.1861  0.3661
32761SOL    HW1 1814   7.644   2.657   5.900  0.8215  1.4679 -0.9061
32761SOL    HW2 1815   7.708   2.549   5.816  0.3333  1.3661 -1.1489
32762SOL     OW 1816   5.171   7.412   7.427  0.4017  0.3733  0.1020
32762SOL    HW1 1817   5.127   7.334   7.393  0.1427  0.1961  0.8061
32762SOL    HW2 1818   5.168   7.476   7.356  0.5503 -0.2335 -0.4569
32763SOL     OW 1819   9.549   5.330   6.429 -0.0177 -0.4502 -0.5352
32763SOL    HW1 1820   9.615   5.267   6.400 -2.1808 -1.2731 -4.3986
32763SOL    HW2 1821   9.472   5.276   6.446 -0.9983  0.8628 -0.7286
32764SOL     OW 1822  10.477   5.379   8.828 -0.1962  0.2215  0.1226
32764SOL    HW1 1823  10.511   5.327   8.756  0.5249  0.6237  0.1629
32764SOL    HW2 1824  10.552   5.392   8.887 -0.8820 -0.5021  1.2014
32765SOL     OW 1825   8.686   9.481   0.458 -0.3721 -0.6269  0.0630
32765SOL    HW1 1826   8.599   9.454   0.486 -0.1400 -1.5334 -0.0371
32765SOL    HW2 1827   8.730   9.399   0.434  0.2969 -0.1225 -0.4860
32766SOL     OW 1828  10.300   1.416   7.745  0.3865 -0.3835  0.6458
32766SOL    HW1 1829  10.325   1.493   7.796  0.8497  0.9158 -1.3767
32766SOL    HW2 1830  10.324   1.341   7.799  0.0038  0.8755  2.6599
32767SOL     OW 1831  10.402   6.054   8.765  0.1230 -0.1755  0.4573
32767SOL    HW1 1832  10.321   6.051   8.815 -0.4471 -0.2468 -0.4389
32767SOL    HW2 1833  10.407   5.969   8.722  1.3250 -0.6410  1.4692
32768SOL     OW 1834  10.004   0.948   7.928  0.0695  0.1150  0.0203
32768SOL    HW1 1835  10.092   0.930   7.896  0.1137 -1.8278  1.0978
32768SOL    HW2 1836  10.008   0.930   8.022 -1.3237  0.6018  0.1971
32769SOL     OW 1837   5.458   1.430   1.587 -0.6186 -0.0205 -0.0884
32769SOL    HW1 1838   5.384   1.456   1.531 -0.4008 -0.3734 -0.5479
32769SOL    HW2 1839   5.475   1.506   1.642 -0.7423  0.3826 -0.6086
32770SOL     OW 1840  11.111   2.746   5.851  0.2786  0.6157 -0.0451
32770SOL    HW1 1841  11.089   2.839   5.844 -0.3153  0.6574  1.7932
32770SOL    HW2 1842  11.063   2.705   5.780 -2.5165  1.2707  1.3316
32771SOL     OW 1843   5.480   9.048   0.390  0.1466 -0.1893  0.8342
32771SOL    HW1 1844   5.514   9.009   0.471  2.1851 -0.4850 -0.0982
32771SOL    HW2 1845   5.404   8.995   0.367  2.2218 -3.0892  0.1418
32772SOL     OW 1846  10.548   0.516   4.866  0.7965  0.2920 -0.4541
32772SOL    HW1 1847  10.579   0.429   4.839 -0.0713 -0.3198  0.4698
32772SOL    HW2 1848  10.606   0.541   4.938  1.9188  1.1014 -1.6073
32773SOL     OW 1849   2.148   1.254   6.265 -0.0601  0.1588 -0.4785
32773SOL    HW1 1850   2.056   1.282   6.266 -0.2343 -0.4087  0.8890
32773SOL    HW2 1851   2.189   1.304   6.336  0.6579  0.2751 -0.9622
32774SOL     OW 1852  10.189   0.244   5.509  0.3050  0.4327 -0.4654
32774SOL    HW1 1853  10.230   0.175   5.561 -1.4956  1.3356  2.3689
32774SOL    HW2 1854  10.262   0.289   5.468  1.7626 -1.0370  0.3833
32775SOL     OW 1855   4.737   7.729   5.028  0.4043 -0.1074 -0.3517
32775SOL    HW1 1856   4.756   7.782   5.106  2.0368 -0.3267 -0.5726
32775SOL    HW2 1857   4.676   7.783   4.978  0.7023  0.8174  0.2410
32776SOL     OW 1858   5.928   5.884   3.570 -0.2959 -0.4371  0.1321
32776SOL    HW1 1859   5.861   5.843   3.515  0.1239  0.3264 -0.9725
32776SOL    HW2 1860   6.008   5.835   3.551  0.0371  0.3768 -0.6079
32777SOL     OW 1861   7.963   5.633   5.867 -0.3063 -0.0168 -0.1779
32777SOL    HW1 1862   8.009   5.674   5.794  1.5569 -0.8111  0.4947
32777SOL    HW2 1863   7.955   5.541   5.842 -1.6055  0.1029 -0.2881
32778SOL     OW 1864   1.490   7.127   7.701 -0.3965 -0.2332 -0.1297
32778SOL    HW1 1865   1.536   7.154   7.781  0.0193 -0.3574 -0.3270
32778SOL    HW2 1866   1.502   7.201   7.641 -0.6238 -0.1830 -0.1155
32779SOL     OW 1867   4.852   1.193   7.431  0.2596  0.0970  0.4848
32779SOL    HW1 1868   4.816   1.277   7.406  0.4571 -0.1699 -0.7605
32779SOL    HW2 1869   4.803   1.168   7.509 -1.0201  0.5487 -0.1431
32780SOL     OW 1870   3.845   5.018  10.752 -0.0459 -0.4856 -0.0851
32780SOL    HW1 1871   3.762   4.980  10.724 -0.5253 -0.8529  1.7334
32780SOL    HW2 1872   3.825   5.111  10.765 -0.8030 -0.9241  2.4056
32781SOL     OW 1873   5.620   6.304   7.941 -0.8511  0.4634 -0.1585
32781SOL    HW1 1874   5.601   6.366   7.871  2.6195  0.4997 -1.2540
32781SOL    HW2 1875   5.551   6.237   7.933 -0.5480  0.3830 -3.7470
32782SOL     OW 1876   0.430  11.092   1.418 -0.0286  0.1238  0.2300
32782SOL    HW1 1877   0.346  11.051   1.440  0.4260  0.2658  2.4526
32782SOL    HW2 1878   0.492  11.019   1.416  0.2702  0.3279  1.3738
32783SOL     OW 1879   2.164   3.230   8.912 -0.0802 -0.8007 -0.4018
32783SOL    HW1 1880   2.199   3.319   8.904 -1.3530 -0.2943 -0.6045
32783SOL    HW2 1881   2.175   3.207   9.004 -0.4619 -0.1137 -0.1782
32784SOL     OW 1882  10.947  10.430   9.533 -0.9175  0.4357  0.5188
32784SOL    HW1 1883  10.960  10.347   9.579  1.7486  0.7414  0.4856
32784SOL    HW2 1884  10.865  10.417   9.484 -1.7945 -1.2868  2.3039
32785SOL     OW 1885   5.029   5.081   1.032  0.3083  0.0671  0.7544
32785SOL    HW1 1886   5.012   5.112   0.943  0.2872  0.3018  0.8408
32785SOL    HW2 1887   4.942   5.064   1.069  0.1785  2.2249  1.5427
32786SOL     OW 1888   8.594   3.911   2.239  0.3106 -0.0941 -0.2509
32786SOL    HW1 1889   8.621   3.928   2.329 -0.4529 -3.1407  0.6747
32786SOL    HW2 1890   8.500   3.892   2.246  0.3729 -0.9766 -1.5780
32787SOL     OW 1891   7.251   3.295   1.724  0.3983  0.2294  0.1852
32787SOL    HW1 1892   7.215   3.382   1.703 -0.2368 -0.5031 -2.0835
32787SOL    HW2 1893   7.346   3.307   1.724  0.3930  0.6602 -1.7833
32788SOL     OW 1894   9.884  10.106   9.046 -0.3682  0.5909 -0.3468
32788SOL    HW1 1895   9.923  10.105   9.133  0.2384 -1.5573 -0.5819
32788SOL    HW2 1896   9.926  10.180   9.001  2.6486 -0.9007 -0.2066
32789SOL     OW 1897   2.284  10.418   8.592  0.2107 -0.3636  0.1244
32789SOL    HW1 1898   2.229  10.349   8.628 -0.5167 -0.5616 -1.2794
32789SOL    HW2 1899   2.373  10.383   8.596  0.0669 -0.6649  0.9965
32790SOL     OW 1900   5.939   4.153  10.412 -0.4345 -0.1237 -0.2267
32790SOL    HW1 1901   5.957   4.223  10.349  0.3686 -0.6552 -0.6063
32790SOL    HW2 1902   5.892   4.196  10.483 -2.6178  0.2708 -1.7921
32791SOL     OW 1903   1.076   3.119   4.862  0.0519 -0.4618  0.0332
32791SOL    HW1 1904   1.029   3.052   4.812  1.7277 -2.1725  0.6039
32791SOL    HW2 1905   1.117   3.070   4.934 -0.0544  1.4896  1.4996
32792SOL     OW 1906   3.646   1.176   8.433 -0.0564 -0.0855  0.3384
32792SOL    HW1 1907   3.576   1.203   8.492 -2.0428 -0.6898 -1.6263
32792SOL    HW2 1908   3.612   1.098   8.389  3.1142 -2.3531  1.5228
32793SOL     OW 1909   9.664   2.125   5.800 -0.7600  0.2753 -0.2514
32793SOL    HW1 1910   9.751   2.156   5.773 -0.1162 -0.7951  0.5252
32793SOL    HW2 1911   9.653   2.159   5.889 -0.7932 -0.2545 -0.0502
32794SOL     OW 1912   1.289   7.072   8.998  0.4554 -0.0592  0.2905
32794SOL    HW1 1913   1.331   7.102   9.078  1.2389  0.2722 -0.2344
32794SOL    HW2 1914   1.358   7.075   8.932  0.0311 -1.1145 -0.2198
32795SOL     OW 1915   9.426   5.790   0.265  0.3390 -0.4497  0.3688
32795SOL    HW1 1916   9.494   5.797   0.332  1.2597 -0.8142 -0.5089
32795SOL    HW2 1917   9.473   5.768   0.185 -0.9464 -1.9100 -0.0213
32796SOL     OW 1918  10.456   3.723   4.587  0.8657 -0.3328 -0.1044
32796SOL    HW1 1919  10.426   3.661   4.653  2.4028 -0.4494  0.5445
32796SOL    HW2 1920  10.552   3.720   4.594  1.0082  0.9850 -1.1133
32797SOL     OW 1921   0.717   2.053  10.405  0.3514 -0.2999  0.0451
32797SOL    HW1 1922   0.789   2.056  10.467  0.9167  1.0709 -0.6345
32797SOL    HW2 1923   0.655   2.118  10.438  0.5287  0.2339 -0.6672
32798SOL     OW 1924   2.883   3.396   3.382 -0.3486  0.0163 -0.0315
32798SOL    HW1 1925   2.835   3.462   3.333  0.1369  0.9138  0.6717
32798SOL    HW2 1926   2.947   3.446   3.433 -0.7928 -0.8811  1.4657
32799SOL     OW 1927  10.656   9.156   2.230 -0.2732  0.3019  0.1255
32799SOL    HW1 1928  10.701   9.079   2.195  1.1507  1.9484 -1.9559
32799SOL    HW2 1929  10.583   9.121   2.282 -0.2010 -2.4052 -1.4477
32800SOL     OW 1930   7.672   0.305   4.057  0.5170 -0.2817 -0.2090
32800SOL    HW1 1931   7.626   0.306   4.141 -0.2347  2.0606 -0.5731
32800SOL    HW2 1932   7.627   0.238   4.006 -0.0029 -0.6835  0.7455
32801SOL     OW 1933   0.327   7.484   7.821  0.3206 -0.3482 -0.5483
32801SOL    HW1 1934   0.405   7.492   7.767  1.0065 -0.9635  0.3195
32801SOL    HW2 1935   0.299   7.393   7.810 -0.1303 -0.1923 -0.6760
32802SOL     OW 1936   8.840   4.784   5.732 -0.0084  0.0071  0.2584
32802SOL    HW1 1937   8.890   4.767   5.812  0.1145  0.9517  0.4004
32802SOL    HW2 1938   8.905   4.781   5.662 -0.4426 -3.0396 -0.1531
32803SOL     OW 1939   4.729   9.632   4.732 -0.5983  0.1983  0.2960
32803SOL    HW1 1940   4.715   9.646   4.826 -0.1382  2.7241  0.0616
32803SOL    HW2 1941   4.821   9.605   4.726 -0.0129  2.0152  0.4790
32804SOL     OW 1942   9.812   9.537   4.904 -0.4774  0.4459 -0.0209
32804SOL    HW1 1943   9.736   9.594   4.919 -1.1863  0.5258 -3.1429
32804SOL    HW2 1944   9.781   9.472   4.841  2.2034  0.9989 -2.1071
32805SOL     OW 1945   2.435   0.469   9.644  0.4433  0.1663 -0.2580
32805SOL    HW1 1946   2.429   0.411   9.568  0.4804  1.6510 -1.4470
32805SOL    HW2 1947   2.402   0.417   9.717 -0.1796 -1.1128 -1.4095
32806SOL     OW 1948   9.279   1.229   2.279  0.2290 -0.7059 -0.5438
32806SOL    HW1 1949   9.361   1.268   2.249  1.1597 -1.9760  0.2485
32806SOL    HW2 1950   9.250   1.286   2.350  0.2885 -0.1186 -0.9843
32807SOL     OW 1951   4.876   6.032   1.617  0.1676 -0.0445 -0.3656
32807SOL    HW1 1952   4.817   6.093   1.573  0.7578  0.0355 -1.0646
32807SOL    HW2 1953   4.851   6.038   1.710 -2.3091 -1.5544 -0.8378
32808SOL     OW 1954   3.037  10.884   3.984  0.1193 -0.7155  0.4021
32808SOL    HW1 1955   2.997  10.884   4.071  0.4658  0.3215  0.5735
32808SOL    HW2 1956   2.993  10.955   3.938 -0.3856 -1.5514 -0.4371
32809SOL     OW 1957   0.456   4.489   0.649  0.1504  0.5367 -0.2687
32809SOL    HW1 1958   0.360   4.491   0.653  0.1819  0.1481  1.7051
32809SOL    HW2 1959   0.483   4.579   0.671  0.2373  0.4976 -0.2142
32810SOL     OW 1960   1.016   6.201   2.652  0.0153 -0.5758  0.0619
32810SOL    HW1 1961   0.995   6.143   2.725  2.4795 -1.3178  0.2493
32810SOL    HW2 1962   1.033   6.142   2.579  1.9553 -0.1162  0.0888
32811SOL     OW 1963   9.527   7.547   5.222 -0.0719 -0.7030 -1.0802
32811SOL    HW1 1964   9.531   7.545   5.318 -1.2679 -0.1694 -1.0032
32811SOL    HW2 1965   9.461   7.481   5.200 -0.4220 -0.2258 -1.4827
32812SOL     OW 1966   0.896   5.548   5.118 -0.1121  0.9236  0.2314
32812SOL    HW1 1967   0.830   5.558   5.187  0.4222  1.2574  0.6972
32812SOL    HW2 1968   0.979   5.568   5.160  0.3981 -0.2792 -0.1475
32813SOL     OW 1969   2.699   4.250   7.450  0.0425  0.3488 -0.4870
32813SOL    HW1 1970   2.659   4.189   7.512  1.2925 -1.9452 -1.7948
32813SOL    HW2 1971   2.675   4.337   7.483 -1.4742 -0.8026  1.7140
32814SOL     OW 1972   9.473   6.917   2.667 -0.0975 -0.3485  0.0997
32814SOL    HW1 1973   9.462   6.959   2.753  0.2815 -0.7321  0.3372
32814SOL    HW2 1974   9.386   6.922   2.628 -0.4243 -0.6948  0.7534
32815SOL     OW 1975   6.557  10.277   2.350  0.3346 -0.0316 -0.2277
32815SOL    HW1 1976   6.550  10.192   2.394  1.3879 -0.9424 -1.7193
32815SOL    HW2 1977   6.544  10.257   2.258  0.4699  1.4651 -0.5908
32816SOL     OW 1978   3.237   8.225   1.758 -0.1303 -0.0472 -0.4729
32816SOL    HW1 1979   3.252   8.160   1.827  0.0487  1.4989  0.9991
32816SOL    HW2 1980   3.255   8.309   1.800 -1.2868  1.0394 -2.0541
32817SOL     OW 1981   3.705   1.933   0.930 -0.4916 -0.0123 -0.3804
32817SOL    HW1 1982   3.646   1.886   0.989 -0.2390 -2.3936 -1.9094
32817SOL    HW2 1983   3.785   1.881   0.930  0.6902  1.7494 -0.3430
32818SOL     OW 1984   0.394   2.348  10.863  0.1614  0.0386  0.5357
32818SOL    HW1 1985   0.414   2.270  10.811 -1.1488 -0.6919  1.0550
32818SOL    HW2 1986   0.457   2.414  10.835  1.7922 -1.4349  0.6224
32819SOL     OW 1987  10.506   4.661  11.102  0.2553  0.1258  0.2084
32819SOL    HW1 1988  10.470   4.663  11.191 -0.2917  0.9552 -0.0255
32819SOL    HW2 1989  10.537   4.750  11.086 -0.8517  0.3372 -0.9156
32820SOL     OW 1990   0.968  10.918   8.590  0.4563 -0.0375 -0.0187
32820SOL    HW1 1991   1.036  10.930   8.524  1.9030  0.3434  1.4704
32820SOL    HW2 1992   0.952  11.007   8.624 -0.5125 -0.1796 -0.0728
32821SOL     OW 1993   2.644   8.806   3.997 -0.1262  0.3433  0.2841
32821SOL    HW1 1994   2.696   8.850   3.930  1.8290 -1.5213  0.4898
32821SOL    HW2 1995   2.594   8.877   4.039  0.6254  1.9027 -1.3399
32822SOL     OW 1996   0.704   8.021   9.583  0.1643  0.3505  0.1402
32822SOL    HW1 1997   0.772   7.983   9.638 -1.9273  0.6477  3.1252
32822SOL    HW2 1998   0.627   7.967   9.598 -1.2199  2.0682 -0.3623
32823SOL     OW 1999   3.434   6.373   8.469  0.1232  0.0141  0.1769
32823SOL    HW1 2000   3.455   6.462   8.498 -0.6783  0.1061  0.5330
32823SOL    HW2 2001   3.514   6.323   8.484  1.5993  1.2561 -2.7559
32824SOL     OW 2002   1.869   4.250   3.784  0.0500 -0.1708 -0.0517
32824SOL    HW1 2003   1.919   4.171   3.806  0.2835 -0.8455 -2.6401
32824SOL    HW2 2004   1.778   4.224   3.796  0.1987  0.1526  1.9679
32825SOL     OW 2005   6.019  10.095   4.471 -0.0613 -0.3280 -0.5432
32825SOL    HW1 2006   6.068  10.071   4.392  0.4295  0.5546 -0.5209
32825SOL    HW2 2007   6.027  10.019   4.528  0.4865 -0.5642 -0.9228
32826SOL     OW 2008  10.057   6.252  10.661  0.1174  0.6819 -1.4953
32826SOL    HW1 2009  10.101   6.324  10.706  0.1855  0.2581 -0.8694
32826SOL    HW2 2010  10.016   6.201  10.731  3.0836 -1.9808 -1.4397
32827SOL     OW 2011   0.879   6.188   9.352  0.6337 -0.3286  0.3076
32827SOL    HW1 2012   0.933   6.240   9.412 -0.3461  0.2367  0.7328
32827SOL    HW2 2013   0.884   6.099   9.387  1.1570 -0.2470  0.4417
32828SOL     OW 2014   8.534   2.121   8.865  0.4249  0.2575 -0.0429
32828SOL    HW1 2015   8.508   2.104   8.774 -0.5874 -1.0141  0.4562
32828SOL    HW2 2016   8.566   2.037   8.897 -1.4315  0.0727  1.4778
32829SOL     OW 2017   7.068   1.944   5.478  0.2729  0.4381 -0.5773
32829SOL    HW1 2018   7.008   1.975   5.411 -2.5532 -0.3976  1.3604
32829SOL    HW2 2019   7.084   1.853   5.456 -0.2995  0.2874 -0.4006
32830SOL     OW 2020   2.763   6.204   9.126 -0.1795  0.3456  0.2634
32830SOL    HW1 2021   2.859   6.206   9.131 -0.1299 -1.4137  0.4725
32830SOL    HW2 2022   2.734   6.255   9.201  0.6016  0.2989  0.6050
32831SOL     OW 2023   2.754   8.639   1.380  0.1246  0.3531  0.1762
32831SOL    HW1 2024   2.694   8.695   1.430 -0.0694 -0.9950  1.5322
32831SOL    HW2 2025   2.841   8.669   1.404  0.0708 -1.1072  2.4293
32832SOL     OW 2026   3.708  10.549   0.562  0.4290 -0.0101  0.4513
32832SOL    HW1 2027   3.750  10.630   0.590  1.5516  0.0168 -1.1446
32832SOL    HW2 2028   3.773  10.507   0.505 -0.6672 -1.3526  0.1406
32833SOL     OW 2029   5.270   6.834   3.722  0.0529  0.1855  0.0981
32833SOL    HW1 2030   5.188   6.883   3.733 -0.6828 -0.8968 -0.3218
32833SOL    HW2 2031   5.279   6.784   3.803  0.1324  0.0658  0.0149
32834SOL     OW 2032   0.013   2.840   0.956 -0.5149  0.2081 -0.4261
32834SOL    HW1 2033  -0.058   2.871   0.899 -1.8000 -0.0570  0.9507
32834SOL    HW2 2034  -0.024   2.845   1.045  0.1954 -2.5188  0.1125
32835SOL     OW 2035   3.887   1.238   2.567  0.1109  0.3130  0.0290
32835SOL    HW1 2036   3.823   1.168   2.554 -2.3674  2.5577 -0.8060
32835SOL    HW2 2037   3.925   1.220   2.653 -0.7471 -1.7849  0.0311
32836SOL     OW 2038   3.052   0.403   2.210 -0.6096  0.3456 -0.4583
32836SOL    HW1 2039   3.120   0.335   2.212 -0.6015  0.3608 -0.1312
32836SOL    HW2 2040   3.100   0.484   2.190 -0.5008  0.3912 -0.0132
32837SOL     OW 2041   4.064   1.591   3.462 -0.2759 -0.1804 -0.1599
32837SOL    HW1 2042   4.053   1.639   3.544  1.0475  0.4880 -0.3503
32837SOL    HW2 2043   4.084   1.501   3.489 -0.0457 -0.0082  0.2506
32838SOL     OW 2044   9.792   5.357   8.174 -0.0813  0.1755  0.6102
32838SOL    HW1 2045   9.850   5.432   8.186 -0.8129  0.8535 -0.0520
32838SOL    HW2 2046   9.726   5.367   8.242 -0.3851  0.3197  0.2915
32839SOL     OW 2047   1.926  10.586  10.748 -0.8431 -0.1949  0.1061
32839SOL    HW1 2048   1.868  10.533  10.694 -1.4301  0.6922 -0.1608
32839SOL    HW2 2049   1.885  10.585  10.835 -1.0033  0.0273  0.0359
32840SOL     OW 2050   7.602   0.481   9.375  0.3902 -0.2001 -0.4813
32840SOL    HW1 2051   7.626   0.461   9.465  0.0359 -2.1098 -0.7680
32840SOL    HW2 2052   7.506   0.475   9.373  0.4165 -0.5372 -1.0582
32841SOL     OW 2053   9.270   2.999   1.533  0.5109 -0.0130 -0.2972
32841SOL    HW1 2054   9.314   2.990   1.448  0.8591 -1.8458  0.0387
32841SOL    HW2 2055   9.191   2.945   1.525  1.9726 -2.6161  1.4186
32842SOL     OW 2056   4.582   4.704   2.307 -0.2311 -0.3178  0.1821
32842SOL    HW1 2057   4.544   4.642   2.245  0.8897 -2.1870  1.2511
32842SOL    HW2 2058   4.634   4.649   2.366  1.6665  1.7889  0.5738
32843SOL     OW 2059   8.157   4.493   5.743 -0.1929  0.7124  0.8511
32843SOL    HW1 2060   8.096   4.448   5.800  1.7557 -2.4252  0.7199
32843SOL    HW2 2061   8.131   4.466   5.654  0.6156  0.3396  0.7201
32844SOL     OW 2062   8.753   0.251   1.309 -1.2822 -0.1247  0.3232
32844SOL    HW1 2063   8.709   0.188   1.252  1.6476 -1.2126 -1.0012
32844SOL    HW2 2064   8.805   0.196   1.369 -1.9152  1.0582  2.0161
32845SOL     OW 2065   4.584   2.802   2.132 -0.4022 -0.1857  0.0121
32845SOL    HW1 2066   4.552   2.739   2.069  1.8709 -0.1316 -1.3248
32845SOL    HW2 2067   4.543   2.885   2.106 -2.6171 -0.8478  1.1690
32846SOL     OW 2068   5.265   4.951   6.046 -0.0013  0.4887  0.2426
32846SOL    HW1 2069   5.289   5.018   6.109 -1.0273  0.8367  0.2939
32846SOL    HW2 2070   5.344   4.936   5.994  0.3474  1.4537  0.4817
32847SOL     OW 2071   9.128   5.167   3.894  0.6338 -0.0022  0.1289
32847SOL    HW1 2072   9.169   5.137   3.975 -0.1737  0.5858  0.7700
32847SOL    HW2 2073   9.201   5.182   3.834  1.2388 -0.4341  0.7456
32848SOL     OW 2074   1.024   9.719   3.622 -0.7483  0.0555  0.0974
32848SOL    HW1 2075   0.936   9.723   3.660 -1.0183  0.0779 -0.5244
32848SOL    HW2 2076   1.041   9.625   3.610 -1.8308  0.1276 -2.3839
32849SOL     OW 2077   4.724   7.442   4.479 -0.4455 -0.7899  0.6456
32849SOL    HW1 2078   4.639   7.449   4.436 -0.2669  0.9540  0.4937
32849SOL    HW2 2079   4.712   7.376   4.547 -1.5459 -1.5014 -0.2123
32850SOL     OW 2080   7.591  11.018   2.862  0.2566 -0.2564  0.2005
32850SOL    HW1 2081   7.624  11.101   2.894  0.7150  1.1398 -3.4592
32850SOL    HW2 2082   7.528  11.042   2.793 -0.0967 -2.9384 -0.5264
32851SOL     OW 2083   8.169   9.525   4.292 -0.3582 -0.0003 -0.3700
32851SOL    HW1 2084   8.239   9.531   4.357  0.1452  3.6872 -1.0177
32851SOL    HW2 2085   8.109   9.460   4.327  1.3072 -0.2265  2.3280
32852SOL     OW 2086   9.069  10.964   4.898 -0.0573 -0.2153  0.0679
32852SOL    HW1 2087   9.147  11.014   4.871  0.3432 -2.0106 -2.4493
32852SOL    HW2 2088   8.995  11.016   4.867  0.3329 -0.7177 -1.8290
32853SOL     OW 2089  10.498   1.865   0.987  0.1583 -0.2418  0.0592
32853SOL    HW1 2090  10.495   1.774   1.018  4.4233 -1.1165 -1.4197
32853SOL    HW2 2091  10.479   1.859   0.893  1.5692  0.1459 -0.2792
32854SOL     OW 2092   6.809   5.223   9.146  0.1251 -0.3011 -0.1420
32854SOL    HW1 2093   6.822   5.230   9.052  0.2180 -0.3857 -0.1361
32854SOL    HW2 2094   6.860   5.295   9.184  0.6321 -0.6685 -0.1152
32855SOL     OW 2095   3.313  10.809   3.276  0.0630  0.1829  0.1109
32855SOL    HW1 2096   3.327  10.718   3.301 -1.5372  0.0793  0.7045
32855SOL    HW2 2097   3.309  10.808   3.181  0.9329 -0.2233  0.0699
32856SOL     OW 2098   5.674   8.621   7.668  0.1904  0.5815  0.1275
32856SOL    HW1 2099   5.673   8.615   7.572  0.8892  1.4604  0.0568
32856SOL    HW2 2100   5.601   8.679   7.688 -0.1446  0.1601  0.1602
32857SOL     OW 2101   3.967   1.152  11.101 -0.1576  0.2279  0.0857
32857SOL    HW1 2102   4.020   1.166  11.023  0.3842  1.1609  0.5995
32857SOL    HW2 2103   3.980   1.059  11.122  0.4497  0.1973 -0.3934
32858SOL     OW 2104   7.345   5.597   1.871  0.2216  0.2451 -0.3899
32858SOL    HW1 2105   7.438   5.583   1.852  0.1691  0.5502 -0.8972
32858SOL    HW2 2106   7.300   5.551   1.800 -0.1828 -3.7459  2.1401
32859SOL     OW 2107   7.141   1.982   7.744 -0.2892 -0.3208 -0.5482
32859SOL    HW1 2108   7.096   2.059   7.711  0.3474  0.3957  0.2050
32859SOL    HW2 2109   7.127   1.985   7.839 -0.3156 -1.1691 -0.5174
32860SOL     OW 2110   1.149   9.342   8.442  0.2173 -0.3870  0.2182
32860SOL    HW1 2111   1.123   9.282   8.373  2.2924 -0.2060 -0.7696
32860SOL    HW2 2112   1.080   9.333   8.509 -0.3059 -2.7035 -0.5648
32861SOL     OW 2113   1.139   4.145   7.149 -0.2365  0.5818  0.2280
32861SOL    HW1 2114   1.120   4.061   7.107  1.3551 -0.1182  0.8144
32861SOL    HW2 2115   1.235   4.149   7.152 -0.2466  2.8389 -0.5676
32862SOL     OW 2116   2.290  11.127  10.116  0.0357  0.1265 -0.5310
32862SOL    HW1 2117   2.297  11.154  10.208  0.5463  0.4715 -0.6656
32862SOL    HW2 2118   2.330  11.041  10.113 -0.4118 -0.0902 -0.3429
32863SOL     OW 2119   0.320   7.693   6.526 -0.0883 -0.1041  0.1125
32863SOL    HW1 2120   0.237   7.738   6.509  0.4773  1.8968  2.1768
32863SOL    HW2 2121   0.343   7.719   6.615  1.0525 -3.4121  0.9180
32864SOL     OW 2122   5.841   5.986   9.819 -0.2994  0.2443  0.3287
32864SOL    HW1 2123   5.934   5.992   9.796  0.5736  4.3068  3.7434
32864SOL    HW2 2124   5.836   5.912   9.880  1.5233  1.8689  2.6226
32865SOL     OW 2125   0.147   5.209   1.464  0.0321  0.4474 -0.1892
32865SOL    HW1 2126   0.109   5.134   1.417  3.1258 -1.0760 -0.5788
32865SOL    HW2 2127   0.217   5.239   1.407  0.7745  1.7214  1.3292
32866SOL     OW 2128   0.687   4.679   8.524  0.0512  0.0191  0.3052
32866SOL    HW1 2129   0.756   4.743   8.541  0.1691 -0.4631  1.7693
32866SOL    HW2 2130   0.613   4.732   8.493  0.4756  0.7486  0.5099
32867SOL     OW 2131   5.705   4.567   0.521  0.3649 -0.1325  0.5319
32867SOL    HW1 2132   5.669   4.551   0.434 -1.7982  2.3643  0.8209
32867SOL    HW2 2133   5.797   4.585   0.505  0.7267 -2.7307 -0.7969
32868SOL     OW 2134   7.485  10.375   3.255 -0.4964 -0.2489 -0.0926
32868SOL    HW1 2135   7.522  10.445   3.200  1.1474 -1.9453 -1.2727
32868SOL    HW2 2136   7.391  10.379   3.238 -0.1777  0.1590 -2.0218
32869SOL     OW 2137   3.440   0.087   1.926  0.1417 -0.5054 -0.4619
32869SOL    HW1 2138   3.351   0.119   1.939  0.4613  0.0450  0.4419
32869SOL    HW2 2139   3.475   0.139   1.854  0.3160  0.5302  0.3392
32870SOL     OW 2140   8.450  10.131   2.196 -0.1192 -0.0917  0.0285
32870SOL    HW1 2141   8.525  10.087   2.235  0.0560 -1.3785 -1.6308
32870SOL    HW2 2142   8.441  10.091   2.109 -1.3031  1.6590 -0.7202
32871SOL     OW 2143   8.516   2.403   5.796 -0.2793  0.0489  0.0239
32871SOL    HW1 2144   8.600   2.359   5.784 -0.2805 -0.5742  2.0191
32871SOL    HW2 2145   8.450   2.335   5.781 -0.3633  0.0731  0.2723
32872SOL     OW 2146   4.188   4.675   7.413 -0.1276 -0.1990 -0.3020
32872SOL    HW1 2147   4.149   4.759   7.436  0.1893  0.3787 -1.7594
32872SOL    HW2 2148   4.232   4.646   7.494  0.7947  1.6241 -0.0847
32873SOL     OW 2149   4.129   8.387   1.530 -0.4172 -0.0613  0.4062
32873SOL    HW1 2150   4.056   8.337   1.568 -1.0617  1.4840  1.2945
32873SOL    HW2 2151   4.169   8.431   1.605 -1.2041  2.4155 -0.5129
32874SOL     OW 2152  11.055   7.720  10.641  0.0667 -0.1601 -0.0344
32874SOL    HW1 2153  11.070   7.683  10.554 -1.0471 -1.3530  0.2477
32874SOL    HW2 2154  11.016   7.648  10.691  0.4412  0.5847  1.3757
32875SOL     OW 2155  11.080   6.985   2.283  0.7427 -0.3479  0.2119
32875SOL    HW1 2156  11.135   6.910   2.303  0.6183 -0.9263 -1.4218
32875SOL    HW2 2157  11.087   6.994   2.188  0.2125  1.2939  0.3006
32876SOL     OW 2158   4.512   4.066   6.029 -0.3536 -0.0881 -0.0340
32876SOL    HW1 2159   4.439   4.058   5.967 -2.7151 -1.9640  2.6916
32876SOL    HW2 2160   4.542   3.976   6.041  0.7279  0.3692  0.8085
32877SOL     OW 2161   4.695   9.663   9.200 -0.0887  0.3671 -0.5481
32877SOL    HW1 2162   4.767   9.653   9.138  0.2311  0.3508 -0.1793
32877SOL    HW2 2163   4.662   9.752   9.184 -0.0465  0.3398 -0.7846
32878SOL     OW 2164   8.475   1.039   1.132 -0.3196  0.1061  0.0682
32878SOL    HW1 2165   8.416   1.060   1.204 -0.1873  0.9645 -0.0575
32878SOL    HW2 2166   8.472   0.944   1.124  0.4921 -0.1135  1.9066
32879SOL     OW 2167   8.684   8.867   6.327  0.2657 -0.9059 -0.0075
32879SOL    HW1 2168   8.719   8.920   6.399  1.8979 -1.4666 -0.3574
32879SOL    HW2 2169   8.617   8.923   6.287 -0.4564 -0.4618  1.7221
32880SOL     OW 2170   6.078   8.806   2.453  0.1643 -0.4766  0.1377
32880SOL    HW1 2171   6.138   8.832   2.523  0.9031 -1.0371 -0.2633
32880SOL    HW2 2172   6.034   8.887   2.427  0.3089 -0.1643  0.8523
32881SOL     OW 2173   6.158   8.954   9.706 -0.3753  0.0512  0.4738
32881SOL    HW1 2174   6.179   8.920   9.619 -0.6982  1.2080 -0.0780
32881SOL    HW2 2175   6.152   8.876   9.761 -1.0692 -0.7837 -0.7351
32882SOL     OW 2176   0.911   9.244   2.627  0.2714  0.2908  0.2005
32882SOL    HW1 2177   0.881   9.286   2.547 -0.9489 -0.1571  0.3993
32882SOL    HW2 2178   0.978   9.182   2.598  0.6378  0.9244 -0.3283
32883SOL     OW 2179   2.791   8.868   4.444 -0.3780  0.1177  0.3770
32883SOL    HW1 2180   2.789   8.903   4.533 -2.3061 -2.6236  1.5251
32883SOL    HW2 2181   2.850   8.792   4.449  1.5078  1.3426 -1.3754
32884SOL     OW 2182   8.131   4.658   4.196 -0.6227  0.0570 -0.4317
32884SOL    HW1 2183   8.138   4.690   4.286  0.5575  0.3445 -0.6101
32884SOL    HW2 2184   8.037   4.647   4.182 -0.8022 -0.5378  1.0182
32885SOL     OW 2185   6.346   5.388   8.696  0.9684 -0.6195 -0.3407
32885SOL    HW1 2186   6.365   5.444   8.621  0.5042 -1.3081 -0.9774
32885SOL    HW2 2187   6.299   5.444   8.757 -0.3618 -0.5639 -1.3883
32886SOL     OW 2188   2.060   5.590   4.413  0.1834  0.4658 -0.4766
32886SOL    HW1 2189   2.049   5.531   4.487 -1.8465  3.0586  1.5145
32886SOL    HW2 2190   1.987   5.569   4.354  1.2153 -0.9187 -1.3238
32887SOL     OW 2191   5.063   8.398  10.310  0.3622  0.4332  0.0645
32887SOL    HW1 2192   4.967   8.395  10.315  0.4417 -0.7973  1.8468
32887SOL    HW2 2193   5.090   8.441  10.391  1.3573 -0.6577  0.3333
32888SOL     OW 2194   9.263   4.225   7.276 -0.1763 -0.2691 -0.0829
32888SOL    HW1 2195   9.263   4.291   7.206 -0.5460 -0.3890 -0.1958
32888SOL    HW2 2196   9.180   4.180   7.267 -1.6351  1.6865  2.2933
32889SOL     OW 2197   0.133   2.584   3.082  0.0852 -0.1366  0.2379
32889SOL    HW1 2198   0.137   2.636   3.163  2.4958  0.1674 -0.0068
32889SOL    HW2 2199   0.224   2.562   3.063 -0.5572 -1.4368 -1.6378
32890SOL     OW 2200   7.158   2.706   9.676  0.1092 -0.1220  0.1433
32890SOL    HW1 2201   7.250   2.717   9.698 -0.1880  2.0443  0.5254
32890SOL    HW2 2202   7.158   2.683   9.583  1.0354 -1.1680  0.3759
32891SOL     OW 2203   7.180   5.880   4.227 -0.1078  0.1223  0.5662
32891SOL    HW1 2204   7.087   5.866   4.208 -0.1353  1.4265 -0.3674
32891SOL    HW2 2205   7.208   5.799   4.270 -1.5039 -0.5671  0.2350
32892SOL     OW 2206   4.450   8.763   6.356 -0.1326 -0.7497 -0.3486
32892SOL    HW1 2207   4.516   8.733   6.420  0.7781 -1.3136 -1.5081
32892SOL    HW2 2208   4.496   8.760   6.272 -0.6913  1.8744 -0.8186
32893SOL     OW 2209   3.818   9.164   8.555 -0.2741  0.4486  0.1359
32893SOL    HW1 2210   3.736   9.117   8.573  0.6452 -2.7252 -2.8519
32893SOL    HW2 2211   3.885   9.110   8.597  0.5309  1.6642  0.4501
32894SOL     OW 2212   0.366   4.182   4.370  0.1808 -0.6891 -0.0670
32894SOL    HW1 2213   0.292   4.219   4.321 -0.6174 -1.1704  0.7413
32894SOL    HW2 2214   0.375   4.093   4.336 -0.3919 -1.0331  0.6460
32895SOL     OW 2215   9.907   4.460   6.746  0.2607 -0.1379  0.0263
32895SOL    HW1 2216   9.866   4.462   6.659 -1.2872 -0.8164  0.6948
32895SOL    HW2 2217   9.992   4.417   6.732 -0.4684 -1.3228 -0.9852
32896SOL     OW 2218   2.447   0.060  10.773 -0.1764 -0.4186 -0.1927
32896SOL    HW1 2219   2.537   0.087  10.792  0.4252 -3.4940  2.1980
32896SOL    HW2 2220   2.394   0.104  10.840 -0.1488 -0.2298 -0.2943
32897SOL     OW 2221  10.275   3.499   6.796  0.4624  0.1686  0.2460
32897SOL    HW1 2222  10.316   3.413   6.809 -0.0715 -0.4983 -2.0617
32897SOL    HW2 2223  10.346   3.555   6.765  0.4738  0.0981  0.1418
32898SOL     OW 2224   4.289   8.961   7.462  0.3407  0.0693  0.4749
32898SOL    HW1 2225   4.312   8.902   7.535 -0.9876 -2.9103 -1.2982
32898SOL    HW2 2226   4.334   8.924   7.386 -0.7932  1.1681 -0.7822
32899SOL     OW 2227   3.790  10.507   9.957 -0.1144  0.1796 -0.3666
32899SOL    HW1 2228   3.783  10.502  10.052 -1.6097  0.6773 -0.4369
32899SOL    HW2 2229   3.834  10.425   9.932 -1.3030 -0.7802  0.5940
32900SOL     OW 2230   6.486   8.680   9.836  0.2273 -0.3046  0.2121
32900SOL    HW1 2231   6.408   8.708   9.884  0.2948  0.9945 -0.3797
32900SOL    HW2 2232   6.559   8.701   9.895  0.2465  0.3946 -0.0460
32901SOL     OW 2233   3.242   1.401   0.988 -0.3928 -0.6847 -0.2373
32901SOL    HW1 2234   3.315   1.357   1.031 -0.8537  0.7656  2.2044
32901SOL    HW2 2235   3.265   1.494   0.991 -1.6289 -0.3416 -0.8224
32902SOL     OW 2236   9.196   6.836   8.215 -0.0053 -0.1650  0.5612
32902SOL    HW1 2237   9.111   6.802   8.243 -1.1346  1.4127 -0.7565
32902SOL    HW2 2238   9.230   6.880   8.293 -1.1141  0.4817  0.7054
32903SOL     OW 2239   2.331   8.644   4.497 -0.2251 -0.3039  0.3321
32903SOL    HW1 2240   2.380   8.658   4.578  0.3612 -0.6161  0.0398
32903SOL    HW2 2241   2.362   8.712   4.437 -0.2380 -0.4220  0.1898
32904SOL     OW 2242   6.383   9.402   5.308 -0.0372  0.2503  0.0636
32904SOL    HW1 2243   6.421   9.333   5.253  0.9300  0.3498  0.5758
32904SOL    HW2 2244   6.325   9.451   5.250  0.7269  0.1684 -0.7880
32905SOL     OW 2245  10.606  10.649   9.840 -0.2429  0.2125 -0.1280
32905SOL    HW1 2246  10.627  10.655   9.747  0.8873  0.3473  0.1159
32905SOL    HW2 2247  10.688  10.669   9.884 -0.7753  0.1978  0.9055
32906SOL     OW 2248   1.611  11.096  10.126 -0.3608  0.2215 -0.5079
32906SOL    HW1 2249   1.520  11.119  10.106 -0.6208 -0.8393 -0.6143
32906SOL    HW2 2250   1.627  11.016  10.076  1.1284  1.2086 -1.6880
32907SOL     OW 2251   5.597   9.287   0.281  0.2620  0.3711  0.6471
32907SOL    HW1 2252   5.685   9.318   0.301  0.2726  0.1187  1.0281
32907SOL    HW2 2253   5.576   9.229   0.355  0.3579 -0.7361 -0.1661
32908SOL     OW 2254   6.855  10.087   8.382  0.0243 -0.1633  0.3633
32908SOL    HW1 2255   6.767  10.052   8.369 -0.1895  0.6473 -0.4879
32908SOL    HW2 2256   6.909  10.010   8.403 -0.8705 -0.6674  0.8445
32909SOL     OW 2257   0.416   3.422  10.841 -0.1052  0.2418  0.7296
32909SOL    HW1 2258   0.355   3.397  10.772 -1.0615 -1.2384  2.0365
32909SOL    HW2 2259   0.500   3.388  10.812 -0.3739  0.1681  0.0185
32910SOL     OW 2260   7.924   3.827   2.954 -0.5050 -0.0704  0.8612
32910SOL    HW1 2261   7.887   3.776   2.883  0.6967 -1.3405  1.1030
32910SOL    HW2 2262   7.979   3.765   3.002  1.8652  1.6343  0.5564
32911SOL     OW 2263   3.315   8.822   2.657  0.2885  0.0481  0.2474
32911SOL    HW1 2264   3.297   8.916   2.649  1.6597  0.5074  1.8984
32911SOL    HW2 2265   3.335   8.794   2.567  0.4747  1.4617 -0.1810
32912SOL     OW 2266   6.111   4.469   9.740 -0.4227 -0.8691 -0.5484
32912SOL    HW1 2267   6.199   4.478   9.775 -0.1450 -0.1987 -1.3684
32912SOL    HW2 2268   6.053   4.489   9.814  0.1043 -1.4907  0.0383
32913SOL     OW 2269   9.807   7.776   0.213  0.2481 -0.3503 -0.0085
32913SOL    HW1 2270   9.757   7.710   0.260  2.9856 -0.2961  3.4116
32913SOL    HW2 2271   9.886   7.730   0.184  2.3863  1.2312  2.7483
32914SOL     OW 2272   9.607  11.039   5.689  0.0131  0.5074  0.1425
32914SOL    HW1 2273   9.563  11.121   5.666 -0.6659  0.8411  2.4098
32914SOL    HW2 2274   9.692  11.066   5.723 -0.0055  0.2307  0.4108
32915SOL     OW 2275   1.608  10.789   7.373  0.3378  0.2242 -0.4578
32915SOL    HW1 2276   1.600  10.801   7.467 -0.2302  1.4166 -0.6409
32915SOL    HW2 2277   1.689  10.836   7.350  0.2208  0.3493 -0.6211
32916SOL     OW 2278  10.427  10.300   1.369  0.6913 -0.5952 -0.2764
32916SOL    HW1 2279  10.397  10.231   1.430 -0.1686 -2.7602 -2.9386
32916SOL    HW2 2280  10.352  10.315   1.311  1.3348  1.6958 -0.6103
32917SOL     OW 2281  10.277  10.212   6.070 -0.9751 -0.0608 -0.8372
32917SOL    HW1 2282  10.281  10.154   5.995  0.2787 -0.0881 -0.7605
32917SOL    HW2 2283  10.301  10.298   6.035  0.7679 -0.2876 -0.2768
32918SOL     OW 2284   0.517   1.935  11.039  0.7465 -0.2324  0.0272
32918SOL    HW1 2285   0.515   1.991  11.117  1.4505 -0.7755  0.4437
32918SOL    HW2 2286   0.610   1.930  11.016  0.3838  1.8271 -2.2460
32919SOL     OW 2287   8.018   0.592   1.327  0.5430  0.6203  0.4791
32919SOL    HW1 2288   7.948   0.624   1.270  0.0420 -0.1853  0.6302
32919SOL    HW2 2289   8.051   0.513   1.283 -0.1156 -0.2326  1.4817
32920SOL     OW 2290   8.759   2.274   2.294  0.2770 -0.5713  0.3969
32920SOL    HW1 2291   8.841   2.225   2.296  0.7454  0.0150 -1.9594
32920SOL    HW2 2292   8.695   2.210   2.263  0.5590 -0.1671 -1.0778
32921SOL     OW 2293   9.855   8.395  10.007 -0.2870  0.0166 -0.3512
32921SOL    HW1 2294   9.875   8.455   9.935  2.4941 -0.0460  0.2436
32921SOL    HW2 2295   9.876   8.308   9.972 -2.0548 -0.4107 -0.4492
32922SOL     OW 2296   1.126   4.274   6.386 -0.6619 -0.7814 -0.0107
32922SOL    HW1 2297   1.122   4.179   6.402 -0.2702 -0.4540  2.3612
32922SOL    HW2 2298   1.081   4.313   6.461 -0.3660  0.9400 -0.6821
32923SOL     OW 2299   4.750   3.785   2.194  0.1663 -0.9820  0.4093
32923SOL    HW1 2300   4.800   3.735   2.130  3.3068 -0.2861  2.1087
32923SOL    HW2 2301   4.791   3.766   2.278  1.0346  3.5848  1.2973
32924SOL     OW 2302   5.924  10.837   3.834  0.1317  0.4110  0.2787
32924SOL    HW1 2303   5.839  10.854   3.795  0.6325 -1.2205 -1.6757
32924SOL    HW2 2304   5.987  10.859   3.766  1.1711 -0.1813  1.0187
32925SOL     OW 2305   5.949   7.353   4.142  0.2036  0.5397 -0.6891
32925SOL    HW1 2306   5.941   7.446   4.118 -0.7667  0.6325 -0.0662
32925SOL    HW2 2307   5.915   7.349   4.232  0.6337 -0.3532 -0.5600
32926SOL     OW 2308   3.793   8.207   6.491 -0.5828 -0.5673 -0.7596
32926SOL    HW1 2309   3.712   8.180   6.448  0.1753 -1.6403 -1.5466
32926SOL    HW2 2310   3.821   8.130   6.540 -0.3268 -0.0113 -0.0010
32927SOL     OW 2311  11.068   0.610   3.287  0.3908  0.9337  0.0331
32927SOL    HW1 2312  11.100   0.696   3.258  1.2719  0.6068 -0.0014
32927SOL    HW2 2313  11.125   0.587   3.361 -1.5240  1.5401  1.7889
32928SOL     OW 2314   8.962   2.311   1.262 -0.4790 -0.3075  0.1084
32928SOL    HW1 2315   8.972   2.276   1.174 -0.8690  0.5884 -0.3086
32928SOL    HW2 2316   9.049   2.306   1.301 -0.0311  0.3854 -0.7630
32929SOL     OW 2317   3.869   2.146   6.654  0.6413 -0.0034  0.0050
32929SOL    HW1 2318   3.921   2.216   6.694  2.6918 -1.3370 -0.1663
32929SOL    HW2 2319   3.823   2.105   6.728  1.2073  0.1106  0.4288
32930SOL     OW 2320   6.029   3.648   4.799 -0.1628 -0.9745 -0.1937
32930SOL    HW1 2321   5.950   3.698   4.778  0.6297 -0.5867 -2.5749
32930SOL    HW2 2322   6.069   3.697   4.871 -1.1273 -0.0884 -0.2289
32931SOL     OW 2323   1.533  10.250   8.370 -0.1300 -0.4031 -0.2724
32931SOL    HW1 2324   1.497  10.217   8.287 -0.7603 -1.4174  0.3827
32931SOL    HW2 2325   1.470  10.316   8.399  0.0923 -0.0453 -0.5956
32932SOL     OW 2326   1.780   8.829   0.287 -0.3486 -0.2384 -0.6232
32932SOL    HW1 2327   1.770   8.762   0.219  0.4751 -0.5294 -0.4618
32932SOL    HW2 2328   1.701   8.883   0.279 -0.3432 -0.3722 -1.6944
32933SOL     OW 2329   6.976   3.386   4.085  0.3038 -0.6550  1.0892
32933SOL    HW1 2330   6.981   3.446   4.159  0.1305 -2.5910  2.7519
32933SOL    HW2 2331   7.064   3.387   4.047  0.2390  0.8018  0.8993
32934SOL     OW 2332  10.821   4.936   5.321  0.2104  0.0502  0.3505
32934SOL    HW1 2333  10.733   4.923   5.285  1.2553 -0.1392 -2.3124
32934SOL    HW2 2334  10.875   4.869   5.279  2.0479  1.5190  0.2265
32935SOL     OW 2335   1.740   7.684   5.761  0.3268  0.3536  0.3905
32935SOL    HW1 2336   1.731   7.770   5.801  0.3854  1.5645 -2.0554
32935SOL    HW2 2337   1.814   7.693   5.701 -0.4447 -1.0345 -0.8192
32936SOL     OW 2338   9.989   2.263   4.830  0.4984 -0.2233 -0.2695
32936SOL    HW1 2339   9.926   2.245   4.899  1.1316  0.9604  0.6453
32936SOL    HW2 2340  10.074   2.258   4.872  0.9534 -0.3608 -1.1669
32937SOL     OW 2341   0.676   2.328   1.808  0.4907 -0.2057  0.1423
32937SOL    HW1 2342   0.666   2.423   1.799 -2.2257 -0.4144  0.2449
32937SOL    HW2 2343   0.759   2.309   1.762  0.7939  2.1096 -0.4169
32938SOL     OW 2344   5.419   8.887   8.021  0.5724 -0.0204 -0.1759
32938SOL    HW1 2345   5.472   8.946   7.968  0.8615 -0.0223  0.1068
32938SOL    HW2 2346   5.338   8.936   8.036  0.8354  0.3371  0.1083
32939SOL     OW 2347   7.776   2.276   0.514 -0.0031 -0.3209 -0.6236
32939SOL    HW1 2348   7.708   2.291   0.578 -0.7557 -0.1866 -1.4394
32939SOL    HW2 2349   7.742   2.206   0.458  0.6801 -0.5084 -0.8236
32940SOL     OW 2350   5.550   1.720   5.722  0.1773  0.4880 -0.0019
32940SOL    HW1 2351   5.618   1.784   5.698 -0.3614  0.7682 -0.8413
32940SOL    HW2 2352   5.468   1.770   5.717 -0.0324  0.4246  2.0057
32941SOL     OW 2353   7.207   1.310   3.727  0.1898  0.0405 -0.0192
32941SOL    HW1 2354   7.232   1.244   3.792  1.1841  1.3008  0.9532
32941SOL    HW2 2355   7.129   1.352   3.764 -0.0044 -0.0985 -0.2710
32942SOL     OW 2356   4.049  10.634  10.347 -0.2788 -0.8967  0.1000
32942SOL    HW1 2357   4.117  10.577  10.383 -0.7813 -1.1550  0.6555
32942SOL    HW2 2358   4.014  10.586  10.273 -0.7410 -1.3430  0.6019
32943SOL     OW 2359  10.102   7.264   1.879 -0.1299  0.2853 -0.2618
32943SOL    HW1 2360  10.012   7.233   1.869  0.1964 -0.6540 -0.4638
32943SOL    HW2 2361  10.097   7.359   1.868 -1.0691  0.2228 -0.4318
32944SOL     OW 2362   9.830  10.550   8.038 -0.0831 -0.5961  0.0150
32944SOL    HW1 2363   9.741  10.567   8.070  0.5417  1.2777  0.8512
32944SOL    HW2 2364   9.864  10.635   8.013  1.7608 -1.1687  0.4243
32945SOL     OW 2365   9.031  10.020   6.648  0.0729 -0.2740  0.6922
32945SOL    HW1 2366   9.044  10.110   6.619 -1.4722 -0.3469 -0.3054
32945SOL    HW2 2367   9.115   9.977   6.630  0.9920  1.0446  1.6258
32946SOL     OW 2368   2.548   9.689   8.256  0.3926  0.2142 -0.2459
32946SOL    HW1 2369   2.468   9.641   8.276  0.0586  0.7804 -0.2001
32946SOL    HW2 2370   2.587   9.643   8.182  0.5802 -0.6978  0.4134
32947SOL     OW 2371   8.565   0.936   3.867 -0.4862 -0.2749 -0.3798
32947SOL    HW1 2372   8.619   0.980   3.933  0.6757 -2.8478  0.5317
32947SOL    HW2 2373   8.611   0.853   3.850 -2.4503 -1.1114 -2.0632
32948SOL     OW 2374   7.219   1.093   3.218  0.2007  0.5476 -0.1685
32948SOL    HW1 2375   7.245   1.138   3.299 -1.5049  2.8005 -0.7767
32948SOL    HW2 2376   7.151   1.032   3.247  0.6327  0.2717  0.2916
32949SOL     OW 2377   9.239   5.466   4.597 -0.2530  0.0377 -0.0673
32949SOL    HW1 2378   9.175   5.523   4.555  0.5857  1.0018 -0.0681
32949SOL    HW2 2379   9.323   5.491   4.557  0.3988  0.1748  1.3527
32950SOL     OW 2380   4.949   2.152   2.429 -0.6643  0.0363 -0.1855
32950SOL    HW1 2381   5.040   2.177   2.445 -0.1905 -0.5450 -1.7436
32950SOL    HW2 2382   4.904   2.168   2.512  0.7443  0.8264  0.4528
32951SOL     OW 2383   2.376   7.404   8.663 -0.2930  0.1127  0.0237
32951SOL    HW1 2384   2.339   7.439   8.582  1.8322  0.7373 -0.7372
32951SOL    HW2 2385   2.347   7.313   8.665  1.1899 -0.5262 -2.5154
32952SOL     OW 2386   7.105   2.623  10.979 -0.0831  0.0794 -0.3401
32952SOL    HW1 2387   7.082   2.650  11.068  0.7981 -1.2618  0.3273
32952SOL    HW2 2388   7.180   2.678  10.957 -1.7351  2.1102 -1.2363
32953SOL     OW 2389   9.531  10.346   5.998 -0.1736  0.1683 -0.4417
32953SOL    HW1 2390   9.580  10.382   6.072  0.1266  0.1712 -0.6374
32953SOL    HW2 2391   9.457  10.405   5.986  0.6195  1.0633 -1.1199
32954SOL     OW 2392   0.754   4.988   3.507  0.2670  0.1181  0.2993
32954SOL    HW1 2393   0.777   4.909   3.556  2.7473 -0.2361 -1.2078
32954SOL    HW2 2394   0.837   5.035   3.497 -0.7400  1.7957 -0.7496
32955SOL     OW 2395   4.753   2.798   6.668  1.0848  0.3265  0.1475
32955SOL    HW1 2396   4.802   2.750   6.734  1.4428  0.3242 -0.1169
32955SOL    HW2 2397   4.778   2.889   6.680  0.0476  0.5236  0.9559
32956SOL     OW 2398   9.743   1.956   9.263 -0.7182  0.0400  0.3652
32956SOL    HW1 2399   9.675   1.912   9.314 -1.0482 -0.1163 -0.2068
32956SOL    HW2 2400   9.808   1.982   9.328 -1.1115 -0.2000  0.8625
32957SOL     OW 2401   6.739   1.724   8.898 -0.1011 -0.2781 -0.2698
32957SOL    HW1 2402   6.682   1.649   8.915 -0.8612 -0.2103 -2.2249
32957SOL    HW2 2403   6.686   1.783   8.845  1.1639  0.6801 -0.5224
32958SOL     OW 2404   0.536  10.879   6.823 -0.7322 -0.2427  0.2174
32958SOL    HW1 2405   0.535  10.923   6.908 -0.2984  1.2334 -0.5137
32958SOL    HW2 2406   0.451  10.900   6.784 -0.3129  0.4500 -0.3601
32959SOL     OW 2407   5.299   7.128   7.938 -0.1130 -0.3676  0.1189
32959SOL    HW1 2408   5.292   7.172   7.853 -0.1869 -0.7367 -0.0692
32959SOL    HW2 2409   5.382   7.158   7.974 -0.8895  1.1986  0.7212
32960SOL     OW 2410   2.024   0.471   3.248  0.4039 -0.0734  0.7164
32960SOL    HW1 2411   1.939   0.470   3.293 -0.6859  0.5815 -1.2053
32960SOL    HW2 2412   2.061   0.557   3.267 -1.0579  1.0821 -1.2875
32961SOL     OW 2413  11.005   0.181   0.348 -0.1665 -0.0885  0.0014
32961SOL    HW1 2414  10.955   0.100   0.357  0.8623 -0.7682 -0.2828
32961SOL    HW2 2415  10.939   0.247   0.327 -0.9023 -1.0272 -0.7301
32962SOL     OW 2416   4.291   9.134   3.592 -0.4470  0.0034  0.4957
32962SOL    HW1 2417   4.326   9.171   3.511 -2.5962  2.4242  0.5531
32962SOL    HW2 2418   4.351   9.164   3.660  0.8983 -1.3471 -0.0251
32963SOL     OW 2419   4.182   9.825   9.370  0.3055 -0.3879  0.2493
32963SOL    HW1 2420   4.139   9.777   9.300 -1.9226  1.3571  0.2973
32963SOL    HW2 2421   4.126   9.812   9.447  0.4096  1.0286  0.6109
32964SOL     OW 2422  11.034   5.681   7.373 -0.1327  0.2572 -0.2023
32964SOL    HW1 2423  11.093   5.640   7.310 -0.2880  0.7765 -0.6948
32964SOL    HW2 2424  10.947   5.648   7.350 -0.3215  1.1836 -0.8921
32965SOL     OW 2425   1.895   2.616   7.894  0.1006 -0.2716 -0.3636
32965SOL    HW1 2426   1.949   2.604   7.971  2.4726 -2.4039 -2.2067
32965SOL    HW2 2427   1.911   2.707   7.867  0.4287  0.0177  0.7520
32966SOL     OW 2428   1.640   3.640   6.543 -0.2031  0.2975 -0.0119
32966SOL    HW1 2429   1.624   3.697   6.468  0.4697  0.9243  0.3062
32966SOL    HW2 2430   1.553   3.621   6.578 -0.3855  1.8889  0.4324
32967SOL     OW 2431   0.396   1.532   3.614 -0.0444  0.3227  0.6737
32967SOL    HW1 2432   0.388   1.438   3.630  1.2789  0.5227  2.7604
32967SOL    HW2 2433   0.323   1.571   3.661 -0.1600  0.4073  0.4278
32968SOL     OW 2434   1.335   8.092   5.171  0.2299 -0.2566  0.0332
32968SOL    HW1 2435   1.364   8.006   5.138 -0.8247 -0.5990 -0.0264
32968SOL    HW2 2436   1.355   8.089   5.265 -0.3547 -0.8086  0.1472
32969SOL     OW 2437   6.393   1.959   7.689 -0.5408 -0.3151  0.3880
32969SOL    HW1 2438   6.382   2.043   7.734  0.9679  2.0495 -3.2174
32969SOL    HW2 2439   6.305   1.926   7.677 -1.2502  1.2198  1.1079
32970SOL     OW 2440  11.103   4.717   9.475  0.2245 -0.2721 -0.5923
32970SOL    HW1 2441  11.172   4.745   9.535  0.2466  2.8699 -1.9036
32970SOL    HW2 2442  11.117   4.623   9.466  2.8073 -0.1628  1.0570
32971SOL     OW 2443   1.119   6.912   3.101 -0.2358 -0.0688 -0.4624
32971SOL    HW1 2444   1.100   6.997   3.141 -1.3236 -0.3011 -0.4522
32971SOL    HW2 2445   1.041   6.859   3.120 -0.6246 -0.3137 -2.5767
32972SOL     OW 2446   1.670   0.459   3.990 -0.5488 -0.0917  0.2001
32972SOL    HW1 2447   1.671   0.369   3.960  0.4677  0.0157 -0.1147
32972SOL    HW2 2448   1.591   0.497   3.951  0.8265  0.1221 -2.6127
32973SOL     OW 2449   1.083   1.146  10.995 -0.1854  0.1483 -0.2442
32973SOL    HW1 2450   1.036   1.205  11.055 -0.2197  0.3220 -0.4378
32973SOL    HW2 2451   1.108   1.071  11.049 -0.9696 -0.0964 -0.2140
32974SOL     OW 2452   5.016   0.688   4.297 -0.3740 -0.4665  0.7268
32974SOL    HW1 2453   5.042   0.608   4.252  2.7614  0.1548  1.2357
32974SOL    HW2 2454   5.079   0.698   4.367 -0.0120  2.9380  0.0877
32975SOL     OW 2455   8.159   2.285  10.822 -0.0428 -0.1311 -0.7007
32975SOL    HW1 2456   8.115   2.368  10.840  1.4369  0.0038  3.1692
32975SOL    HW2 2457   8.247   2.310  10.795 -0.0502 -0.4592 -1.0401
32976SOL     OW 2458   4.404   8.626   5.757 -0.1217  0.0701 -0.6056
32976SOL    HW1 2459   4.322   8.615   5.709  0.6754 -0.0910 -1.9510
32976SOL    HW2 2460   4.459   8.553   5.729  0.5263  0.2245  0.2194
32977SOL     OW 2461   8.954   7.772   6.219 -0.0362  0.0684 -0.1732
32977SOL    HW1 2462   8.974   7.758   6.127  1.9065  1.5945 -0.0745
32977SOL    HW2 2463   8.899   7.850   6.220 -0.1475 -0.0113 -0.0437
32978SOL     OW 2464   5.705  10.567   9.222  0.6017  0.2421 -0.2646
32978SOL    HW1 2465   5.698  10.483   9.267 -0.6175 -0.9978 -2.5653
32978SOL    HW2 2466   5.674  10.631   9.285  0.2826 -1.2066  1.1081
32979SOL     OW 2467   4.729   7.004   6.340 -0.3207  0.6567  0.3767
32979SOL    HW1 2468   4.670   7.077   6.323 -1.1416  0.0528  0.5731
32979SOL    HW2 2469   4.814   7.045   6.359 -0.2911  1.4803 -1.3683
32980SOL     OW 2470  10.317   4.993   6.723 -0.2280 -0.0498 -0.0819
32980SOL    HW1 2471  10.376   4.932   6.678  1.2639  0.9852  0.4144
32980SOL    HW2 2472  10.239   4.941   6.741 -0.7574 -0.6832 -3.4053
32981SOL     OW 2473   7.630   2.126   5.894  0.3197  0.3296 -0.3815
32981SOL    HW1 2474   7.568   2.086   5.833  0.2781  1.5304 -1.1522
32981SOL    HW2 2475   7.594   2.107   5.980  0.2302 -1.1520 -0.7184
32982SOL     OW 2476   9.617   0.112   3.299  0.0776 -0.0019  0.2385
32982SOL    HW1 2477   9.539   0.168   3.300  0.6962  0.8799  0.3454
32982SOL    HW2 2478   9.619   0.072   3.386  0.1066  0.5114  0.4816
32983SOL     OW 2479   3.818   5.948   6.684  0.1389  0.3933  0.5158
32983SOL    HW1 2480   3.779   6.035   6.687 -1.6410 -0.3661  0.6471
32983SOL    HW2 2481   3.903   5.959   6.726  0.0199  2.0931  0.3828
32984SOL     OW 2482   6.631   1.542   5.326  0.1762  0.2705  0.6579
32984SOL    HW1 2483   6.591   1.507   5.406 -0.0755  2.0428  1.3508
32984SOL    HW2 2484   6.679   1.619   5.355  2.9575 -0.9450 -0.3878
32985SOL     OW 2485   6.748  10.628   6.537 -0.1619  0.2612 -0.1457
32985SOL    HW1 2486   6.774  10.620   6.446  1.0516 -1.2652  0.2966
32985SOL    HW2 2487   6.771  10.718   6.561  0.1218  0.4678 -1.1420
32986SOL     OW 2488   5.581   3.579   2.370  0.1062 -0.0580 -0.4694
32986SOL    HW1 2489   5.507   3.618   2.325 -1.9266 -1.2773  1.6287
32986SOL    HW2 2490   5.608   3.505   2.315 -0.5065  0.1342 -1.0310
32987SOL     OW 2491  10.287  10.045   1.893  0.3332 -0.0722 -0.5295
32987SOL    HW1 2492  10.373  10.075   1.863  0.5605  1.2675  1.2975
32987SOL    HW2 2493  10.277   9.959   1.853  2.1670  0.0626 -1.4229
32988SOL     OW 2494  11.023   9.584   6.643 -0.3560 -0.6140  0.3202
32988SOL    HW1 2495  11.109   9.543   6.656  0.0626  0.5724  1.5007
32988SOL    HW2 2496  11.028   9.624   6.556  0.9902  0.9934  1.0733
32989SOL     OW 2497   6.477   9.260   7.607  0.3736 -0.2930 -0.5677
32989SOL    HW1 2498   6.519   9.343   7.634  0.7505 -1.0307  1.2936
32989SOL    HW2 2499   6.548   9.197   7.607 -0.3426 -1.1396  0.6072
32990SOL     OW 2500   0.153  10.735   5.501  0.2286  0.6380 -0.2820
32990SOL    HW1 2501   0.192  10.648   5.508 -1.0018 -0.0235 -1.4084
32990SOL    HW2 2502   0.159  10.771   5.590 -2.1893 -1.8755  1.0473
32991SOL     OW 2503   5.536   3.972   1.943 -0.4907  0.0523  0.3375
32991SOL    HW1 2504   5.606   3.929   1.992 -1.9106 -2.0731  0.6387
32991SOL    HW2 2505   5.547   3.942   1.853  0.3271  1.5910 -0.1204
32992SOL     OW 2506   6.687   2.507   8.062  0.0661  0.4481 -0.0192
32992SOL    HW1 2507   6.700   2.600   8.080  0.3583  0.0867  1.7407
32992SOL    HW2 2508   6.753   2.462   8.113  1.3673 -0.6811 -2.5088
32993SOL     OW 2509   0.668  10.950   5.106 -0.5448 -0.3032  0.1085
32993SOL    HW1 2510   0.731  10.971   5.175 -0.0632 -0.2786 -0.3337
32993SOL    HW2 2511   0.634  11.035   5.078  0.9187 -0.1177 -1.2260
32994SOL     OW 2512  10.275   5.864   5.633  0.7035  0.0176 -0.1370
32994SOL    HW1 2513  10.245   5.830   5.548 -0.1059 -0.7262  0.4348
32994SOL    HW2 2514  10.224   5.944   5.646  0.4738 -0.1299 -0.1252
32995SOL     OW 2515   1.079   6.335   4.625 -0.1125 -0.0975  0.9034
32995SOL    HW1 2516   1.110   6.421   4.600  1.5706 -1.0661 -0.5669
32995SOL    HW2 2517   0.983   6.342   4.621  0.0039  1.3721 -0.4060
32996SOL     OW 2518   7.659   2.488   7.503 -0.4789 -0.0085  0.1035
32996SOL    HW1 2519   7.697   2.463   7.419 -0.4546  0.6038 -0.0695
32996SOL    HW2 2520   7.729   2.536   7.548 -0.1341 -1.1950  0.9068
32997SOL     OW 2521   7.458   4.928   7.575  1.0024  0.2905 -0.5096
32997SOL    HW1 2522   7.383   4.982   7.550 -0.6369 -0.3392  2.5811
32997SOL    HW2 2523   7.534   4.983   7.553 -0.4184  1.9475 -1.5932
32998SOL     OW 2524   2.852   9.390   6.840  0.2402 -0.4479 -0.0996
32998SOL    HW1 2525   2.838   9.300   6.868  3.4479 -1.7325 -2.0854
32998SOL    HW2 2526   2.947   9.399   6.835  0.0225  3.0383 -0.1299
32999SOL     OW 2527  10.501   5.455   7.104  0.5164  0.0942  0.1135
32999SOL    HW1 2528  10.535   5.368   7.127 -1.1351 -1.0239 -1.3913
32999SOL    HW2 2529  10.407   5.442   7.095  0.3351  1.8618 -0.9413
33000SOL     OW 2530   9.551   2.021   0.372  0.1548 -0.4038 -0.4917
33000SOL    HW1 2531   9.640   2.033   0.337  0.6204 -0.7127  0.5266
33000SOL    HW2 2532   9.518   1.943   0.328  0.3775 -0.2666 -0.9086
33001SOL     OW 2533   8.695   8.278  10.610 -0.0502  0.2951 -0.6401
33001SOL    HW1 2534   8.673   8.330  10.532  0.9742  0.1665 -1.0277
33001SOL    HW2 2535   8.629   8.209  10.612 -1.1689  1.3207 -0.3717
33002SOL     OW 2536   4.732   5.145   3.358 -0.7299  0.4289  0.3856
33002SOL    HW1 2537   4.778   5.082   3.414  0.5712 -0.0764 -1.1821
33002SOL    HW2 2538   4.714   5.219   3.416  0.5932 -0.0540  1.4784
33003SOL     OW 2539   1.197   2.171   3.263 -0.6031 -0.6987  0.4651
33003SOL    HW1 2540   1.259   2.178   3.189  0.0692 -2.9591  0.7524
33003SOL    HW2 2541   1.144   2.251   3.256  1.3913  0.6414 -0.6558
33004SOL     OW 2542  10.221   3.200   2.207 -0.1293 -0.3953 -0.0188
33004SOL    HW1 2543  10.236   3.237   2.294 -0.8738 -0.1671  0.0193
33004SOL    HW2 2544  10.248   3.109   2.216  0.4045 -0.2127  0.2736
33005SOL     OW 2545   0.684   2.909   4.819  0.1094  0.0068  0.0878
33005SOL    HW1 2546   0.608   2.880   4.868  0.1387  0.6773  0.5401
33005SOL    HW2 2547   0.727   2.973   4.876 -0.3772  1.5212 -1.1682
33006SOL     OW 2548   1.924   0.512   1.223 -0.4344  0.1917 -0.3149
33006SOL    HW1 2549   1.993   0.456   1.186 -0.8932 -0.0976 -0.7588
33006SOL    HW2 2550   1.942   0.514   1.317 -0.7902 -1.2591 -0.1928
33007SOL     OW 2551   8.587   4.798   0.737 -0.1060 -0.4753 -0.0597
33007SOL    HW1 2552   8.513   4.749   0.702 -0.3424 -1.3325  1.5217
33007SOL    HW2 2553   8.663   4.744   0.716 -0.0416 -0.1265 -0.7434
33008SOL     OW 2554   4.194   3.407   7.409 -0.6792  0.0076  0.8196
33008SOL    HW1 2555   4.261   3.475   7.400  1.1549 -1.7081  0.7532
33008SOL    HW2 2556   4.181   3.397   7.503  0.9553 -1.2325  0.9615
33009SOL     OW 2557   1.358   0.034   2.046  0.1540 -0.7521  0.2795
33009SOL    HW1 2558   1.309   0.062   2.122 -2.7771  0.9633 -2.0214
33009SOL    HW2 2559   1.302   0.055   1.971  4.1298  0.8942 -2.6592
33010SOL     OW 2560   0.306   8.737   7.184  0.5917 -0.3110  0.1826
33010SOL    HW1 2561   0.282   8.808   7.244  0.1189 -0.3198  0.0084
33010SOL    HW2 2562   0.286   8.771   7.097  1.9880 -0.0073 -0.0531
33011SOL     OW 2563  11.009   6.456   7.954 -0.4636  0.4234 -0.2649
33011SOL    HW1 2564  11.079   6.437   7.893 -1.2972 -1.6418 -0.6475
33011SOL    HW2 2565  11.038   6.419   8.038 -1.3923 -1.2097 -0.6214
33012SOL     OW 2566   1.761  10.360   9.757  0.2401  0.2032  0.3489
33012SOL    HW1 2567   1.798  10.398   9.677  0.4913  0.5191  0.6086
33012SOL    HW2 2568   1.668  10.384   9.754  0.2643  0.2822  0.1914
33013SOL     OW 2569   4.602   0.275   6.004  0.1645  0.1523  0.1176
33013SOL    HW1 2570   4.676   0.331   5.983 -0.8785  1.5145 -0.1320
33013SOL    HW2 2571   4.537   0.335   6.041 -2.0724 -0.3269 -2.6762
33014SOL     OW 2572   5.548   0.822   6.301  0.0682 -0.3821 -0.3994
33014SOL    HW1 2573   5.464   0.781   6.319 -0.1575  0.1338 -0.2458
33014SOL    HW2 2574   5.546   0.841   6.207 -0.5543  0.8356 -0.1670
33015SOL     OW 2575   6.360   5.089   8.429 -0.4456 -0.2359  0.7132
33015SOL    HW1 2576   6.270   5.063   8.449 -0.5376 -1.1834 -0.7148
33015SOL    HW2 2577   6.384   5.033   8.355  0.3305  1.9519 -0.7965
33016SOL     OW 2578   8.608  10.696   8.470 -0.4911  0.0100  0.4214
33016SOL    HW1 2579   8.692  10.721   8.510 -1.6043  2.5765  1.3747
33016SOL    HW2 2580   8.632  10.645   8.393  1.9841  1.3426  0.2237
33017SOL     OW 2581   0.451   0.107  10.233  0.1879 -0.2237  0.4905
33017SOL    HW1 2582   0.538   0.108  10.275  0.4161 -3.2926  0.2736
33017SOL    HW2 2583   0.467   0.072  10.146 -1.1366  0.4721 -0.0564
33018SOL     OW 2584   9.220   2.503   8.705 -0.2837  0.4435  0.0597
33018SOL    HW1 2585   9.259   2.416   8.702 -0.0591  0.5393  0.2660
33018SOL    HW2 2586   9.282   2.556   8.754 -1.3732  0.2404  1.7130
33019SOL     OW 2587   9.414   2.693   8.841  0.0897  0.0739  0.1167
33019SOL    HW1 2588   9.454   2.722   8.923  2.3350  0.0201 -0.8911
33019SOL    HW2 2589   9.372   2.772   8.806 -0.4028  0.2274  1.0390
33020SOL     OW 2590   2.111   4.485   7.538 -0.2174  0.6213 -0.0284
33020SOL    HW1 2591   2.149   4.554   7.592  1.0162 -0.8164  1.0424
33020SOL    HW2 2592   2.186   4.448   7.490 -0.8460  0.0167 -0.5686
33021SOL     OW 2593   5.516   5.635   4.025  0.1265  0.0284  0.0756
33021SOL    HW1 2594   5.482   5.720   3.998  0.4929 -0.1105 -0.8894
33021SOL    HW2 2595   5.611   5.646   4.027  0.1861 -0.3801 -0.1928
33022SOL     OW 2596   3.547   6.734  10.862 -0.6756  0.0879  0.0706
33022SOL    HW1 2597   3.572   6.659  10.808 -1.1747 -0.3446  0.4255
33022SOL    HW2 2598   3.513   6.798  10.800  1.2525  0.6861 -0.4188
33023SOL     OW 2599   3.833  10.528   5.437 -0.0770 -0.4117  0.2347
33023SOL    HW1 2600   3.824  10.617   5.471 -1.9790  0.6134 -2.5857
33023SOL    HW2 2601   3.919  10.527   5.394 -0.2500  0.2562 -0.1425
33024SOL     OW 2602   9.546   2.914   3.673 -0.1682 -0.6963  0.5532
33024SOL    HW1 2603   9.619   2.895   3.732  0.8742  0.3431 -0.3624
33024SOL    HW2 2604   9.483   2.844   3.690  1.2043 -1.8540  1.0960
33025SOL     OW 2605  10.196   6.568   2.475 -0.2023 -0.1162  0.7102
33025SOL    HW1 2606  10.102   6.552   2.472 -0.2857  0.4428 -0.0473
33025SOL    HW2 2607  10.216   6.582   2.567 -1.0823  0.9612  0.7581
33026SOL     OW 2608   5.714   4.427   3.058 -0.8037 -0.1022 -0.0618
33026SOL    HW1 2609   5.725   4.334   3.076 -1.7689 -0.5315 -1.5203
33026SOL    HW2 2610   5.711   4.433   2.963 -0.4324  1.4706 -0.0077
33027SOL     OW 2611   6.530   6.758   5.942  0.3132  0.0051  0.3812
33027SOL    HW1 2612   6.523   6.853   5.940 -1.1418 -0.0834  0.0839
33027SOL    HW2 2613   6.512   6.735   6.034  2.9512  0.1186  1.0017
33028SOL     OW 2614  10.175   6.446   0.033 -0.2775 -0.1605  0.2091
33028SOL    HW1 2615  10.129   6.487   0.105  4.5293  1.5618  2.7657
33028SOL    HW2 2616  10.204   6.519  -0.022  0.4578 -1.0082 -0.5588
33029SOL     OW 2617   9.606  10.105   5.877  0.2322  0.5106  0.7705
33029SOL    HW1 2618   9.569  10.126   5.791  0.5056 -0.3246  0.4323
33029SOL    HW2 2619   9.576  10.176   5.934  1.6337  2.1374 -0.4175
33030SOL     OW 2620   5.625   0.855   0.646  0.0762 -0.6067 -0.2328
33030SOL    HW1 2621   5.581   0.906   0.714 -0.7153 -1.8743  0.2315
33030SOL    HW2 2622   5.710   0.833   0.683  0.7780  1.0298 -0.7585
33031SOL     OW 2623   9.846   3.981   3.243  0.3343  0.4691 -0.3846
33031SOL    HW1 2624   9.875   4.000   3.333  0.5288  0.7780 -0.5098
33031SOL    HW2 2625   9.875   4.057   3.192 -2.0810  1.5778 -0.2326
33032SOL     OW 2626   8.670   7.999  10.869 -0.1026  0.1744  0.1734
33032SOL    HW1 2627   8.609   8.011  10.795 -0.2139  0.0458  0.2443
33032SOL    HW2 2628   8.752   7.974  10.828 -0.6973 -1.9796  0.1878
33033SOL     OW 2629   5.920   8.856   9.131  0.5877 -0.6409 -0.2678
33033SOL    HW1 2630   6.008   8.892   9.143  1.0838 -2.0106  0.3318
33033SOL    HW2 2631   5.901   8.811   9.213 -0.6110 -0.5138 -0.4568
33034SOL     OW 2632   6.231   8.814   5.580 -0.3922 -0.1409  0.1116
33034SOL    HW1 2633   6.146   8.774   5.599 -0.8786  0.8722  0.1511
33034SOL    HW2 2634   6.230   8.897   5.629  0.8679 -0.3919  0.6076
33035SOL     OW 2635   1.505   4.746   1.883  0.6554  0.2149 -0.2352
33035SOL    HW1 2636   1.549   4.699   1.812 -0.4293  0.0094 -0.7918
33035SOL    HW2 2637   1.507   4.837   1.856 -0.5860  0.0278 -1.0012
33036SOL     OW 2638  10.147   2.246   0.885 -0.0254  0.3237 -0.2148
33036SOL    HW1 2639  10.222   2.217   0.937 -0.9659  2.9855  2.9967
33036SOL    HW2 2640  10.185   2.305   0.819  0.8809 -0.2546 -0.2271
33037SOL     OW 2641  10.725   5.983   1.555 -0.2006 -0.5990 -0.6667
33037SOL    HW1 2642  10.758   6.010   1.641 -1.0935  0.2558 -0.5827
33037SOL    HW2 2643  10.666   5.910   1.574 -0.1013 -0.6624 -0.5983
33038SOL     OW 2644   5.853   3.121   6.485 -0.4566  0.9088  0.1032
33038SOL    HW1 2645   5.909   3.136   6.409 -0.9642 -0.6876 -0.6241
33038SOL    HW2 2646   5.770   3.092   6.449 -0.4501 -0.6984  1.2478
33039SOL     OW 2647   7.006   0.752   5.945  0.0581 -0.2240  0.5923
33039SOL    HW1 2648   6.975   0.746   6.036 -1.2148  0.9814  0.2610
33039SOL    HW2 2649   6.996   0.844   5.922 -1.1252 -0.7789 -1.2831
33040SOL     OW 2650  10.806   4.806   6.090 -1.0488  0.6866 -0.0765
33040SOL    HW1 2651  10.712   4.788   6.091 -1.0644  0.3544 -2.0747
33040SOL    HW2 2652  10.818   4.863   6.014  0.4121  0.3925 -0.0905
33041SOL     OW 2653   6.573   4.306   3.028 -0.2332 -0.0363  0.2146
33041SOL    HW1 2654   6.567   4.261   3.112  1.5160 -0.8678 -0.0678
33041SOL    HW2 2655   6.496   4.276   2.979 -0.0200 -1.4124  0.6697
33042SOL     OW 2656   0.066  11.017   9.880  0.3280  0.1051  0.4162
33042SOL    HW1 2657   0.049  11.061   9.797 -2.7079  2.0359  1.8517
33042SOL    HW2 2658  -0.003  10.950   9.886  0.5694 -0.0743  1.3033
33043SOL     OW 2659   3.924   6.465   4.114  0.5154  0.1471  0.3333
33043SOL    HW1 2660   3.964   6.546   4.148  2.3836 -0.1078 -1.0807
33043SOL    HW2 2661   3.959   6.396   4.170 -1.0878  0.2624  1.5456
33044SOL     OW 2662   8.997  10.559   5.134 -0.1057 -0.2471  0.1775
33044SOL    HW1 2663   8.984  10.650   5.160  1.4090 -0.2801  1.1970
33044SOL    HW2 2664   8.911  10.529   5.104 -0.3044  1.9592 -1.6987
33045SOL     OW 2665   8.725   8.013   3.441 -0.7978  0.2825 -0.2470
33045SOL    HW1 2666   8.804   8.018   3.387 -0.3368  1.4493  0.4877
33045SOL    HW2 2667   8.756   7.978   3.525 -0.9290  1.2334  0.2224
33046SOL     OW 2668  10.731   6.153  10.680  0.5094 -0.2277 -0.1130
33046SOL    HW1 2669  10.712   6.068  10.721 -3.0615 -0.1864 -1.3646
33046SOL    HW2 2670  10.762   6.208  10.753 -0.3508 -1.6680  1.4132
33047SOL     OW 2671   4.178   7.786   0.287  0.8724 -0.1435  0.5862
33047SOL    HW1 2672   4.103   7.845   0.297 -0.2148 -1.2857 -0.3101
33047SOL    HW2 2673   4.189   7.746   0.373  0.2905 -0.1357  0.6673
33048SOL     OW 2674   7.584   7.023   9.388 -0.1679 -0.0554  0.0801
33048SOL    HW1 2675   7.612   7.061   9.470 -0.1625 -0.4311  0.2555
33048SOL    HW2 2676   7.491   7.046   9.381  0.0003  0.5742 -0.1534
33049SOL     OW 2677   0.430   4.725   0.800 -0.1191 -0.2635 -0.0190
33049SOL    HW1 2678   0.485   4.721   0.878 -1.2304  0.1839  0.8178
33049SOL    HW2 2679   0.349   4.682   0.825 -0.2662 -0.6861 -1.1428
33050SOL     OW 2680   2.772   9.338   0.280 -0.2267 -0.3836 -0.2780
33050SOL    HW1 2681   2.736   9.422   0.308 -1.3179 -0.5508 -1.0836
33050SOL    HW2 2682   2.791   9.291   0.361  3.5540  1.8139  0.3719
33051SOL     OW 2683   9.901   6.025   5.049  0.1126 -0.0690  0.7717
33051SOL    HW1 2684   9.922   5.972   4.971  0.4029  0.9666  0.1292
33051SOL    HW2 2685   9.805   6.021   5.054  0.1946 -2.0491  1.7510
33052SOL     OW 2686  10.644  10.689   2.817 -0.1599  0.4777  0.1838
33052SOL    HW1 2687  10.586  10.745   2.766 -1.1741 -0.7762 -0.1051
33052SOL    HW2 2688  10.644  10.605   2.770  0.4112 -0.1188  1.1978
33053SOL     OW 2689   3.248   9.514  10.222 -0.3687  0.3163  0.2263
33053SOL    HW1 2690   3.196   9.507  10.302 -0.1346 -1.3936  0.2721
33053SOL    HW2 2691   3.186   9.540  10.155 -1.2123 -1.1344  0.3946
33054SOL     OW 2692  10.590   2.743   9.565  0.0514  0.3855 -0.0945
33054SOL    HW1 2693  10.602   2.654   9.598 -0.4123  0.1866 -0.4417
33054SOL    HW2 2694  10.590   2.733   9.470  1.5465  0.9775 -0.1706
33055SOL     OW 2695   3.584   1.632   6.213 -0.7737 -0.4425  0.0392
33055SOL    HW1 2696   3.666   1.678   6.197  0.4277 -2.0321  1.2856
33055SOL    HW2 2697   3.519   1.701   6.226  0.8864  0.9149  1.5112
33056SOL     OW 2698   6.580   9.981   7.477  0.0420 -0.8157 -0.7074
33056SOL    HW1 2699   6.606   9.912   7.538  0.1528 -0.2981 -0.1630
33056SOL    HW2 2700   6.509   9.942   7.426 -1.3987 -0.6399  1.0567
33057SOL     OW 2701   3.988   2.696   0.771  0.1995  1.0458 -0.0062
33057SOL    HW1 2702   3.982   2.726   0.861  0.8875  1.9159 -0.2384
33057SOL    HW2 2703   4.072   2.650   0.766 -0.1310  0.4318 -0.0494
33058SOL     OW 2704   5.966   7.412   5.951 -0.4359 -0.1411  0.1934
33058SOL    HW1 2705   5.890   7.468   5.939  0.0114  0.3126 -0.6879
33058SOL    HW2 2706   6.032   7.469   5.992 -0.0516 -0.0686 -0.5064
33059SOL     OW 2707   7.801   9.782   9.371  0.3330 -0.2187 -0.0835
33059SOL    HW1 2708   7.786   9.722   9.444  0.1201  2.2790  2.0961
33059SOL    HW2 2709   7.729   9.765   9.310  0.8296 -2.7637 -0.0399
33060SOL     OW 2710   1.213   5.706   2.177  0.1516 -0.0032  0.3224
33060SOL    HW1 2711   1.222   5.698   2.082 -1.0388  0.0782  0.1789
33060SOL    HW2 2712   1.287   5.657   2.213  0.6375 -0.0029 -0.6478
33061SOL     OW 2713   1.066   5.153   9.275  0.6811 -0.0151  0.1562
33061SOL    HW1 2714   1.040   5.074   9.322  2.2561  0.1676  1.4178
33061SOL    HW2 2715   1.162   5.152   9.275  0.7638  0.5669 -2.1479
33062SOL     OW 2716  10.221   1.302   3.816 -0.1204 -0.3638  0.7392
33062SOL    HW1 2717  10.177   1.286   3.732 -1.0523  1.2841  0.8784
33062SOL    HW2 2718  10.293   1.239   3.817 -0.9458 -1.3821 -0.6557
33063SOL     OW 2719   0.286   3.032   4.893 -0.2651  0.0083 -0.4377
33063SOL    HW1 2720   0.336   2.950   4.905 -1.1464 -0.6737 -1.3278
33063SOL    HW2 2721   0.282   3.044   4.799 -0.7426  0.7156 -0.3297
33064SOL     OW 2722   4.728   9.871   3.007 -0.2138 -0.2245  0.5774
33064SOL    HW1 2723   4.798   9.808   3.023  0.3625  0.1365 -0.4770
33064SOL    HW2 2724   4.732   9.930   3.083 -0.3422 -1.0642  1.2499
33065SOL     OW 2725   1.018   7.206   8.357 -0.3279  0.1982 -0.1786
33065SOL    HW1 2726   1.109   7.177   8.364  0.2096  0.3736 -4.0018
33065SOL    HW2 2727   1.023   7.301   8.359 -0.6398  0.2043  0.9262
33066SOL     OW 2728   9.599   6.338   5.877 -0.1570 -0.0630  0.1742
33066SOL    HW1 2729   9.669   6.277   5.901  1.7008  2.3094  1.1230
33066SOL    HW2 2730   9.564   6.368   5.960 -2.0946 -0.8702 -0.2910
33067SOL     OW 2731   3.863   0.532   9.881  1.1994 -0.7584  0.2926
33067SOL    HW1 2732   3.907   0.506   9.962  0.3807  2.1094  1.7878
33067SOL    HW2 2733   3.934   0.553   9.821  1.9068  0.5446  1.5239
33068SOL     OW 2734   7.165   0.417   1.849  0.0915  0.3094  0.9366
33068SOL    HW1 2735   7.077   0.381   1.834 -0.0148  1.2654 -1.0299
33068SOL    HW2 2736   7.154   0.476   1.924 -1.2939  1.4718 -0.1222
33069SOL     OW 2737  10.071   8.462   5.443 -0.3330 -0.1556  0.1628
33069SOL    HW1 2738  10.077   8.369   5.424 -0.8936 -0.2549  0.4196
33069SOL    HW2 2739   9.977   8.482   5.434 -0.2065  0.3969  0.0288
33070SOL     OW 2740   4.619   3.066   3.507  0.2237  0.0546  0.4172
33070SOL    HW1 2741   4.626   3.151   3.551 -1.7738  0.8522 -0.6430
33070SOL    HW2 2742   4.538   3.028   3.539  0.5392 -0.9638  0.0566
33071SOL     OW 2743   6.887   1.304   4.851  0.2854  0.2070  0.0459
33071SOL    HW1 2744   6.904   1.397   4.860 -0.1700  0.1618  1.7091
33071SOL    HW2 2745   6.802   1.299   4.807  0.9810  0.5225 -1.3952
33072SOL     OW 2746   3.152  10.243   3.183 -0.5555  0.2014  0.7277
33072SOL    HW1 2747   3.204  10.166   3.204 -0.4371  0.1703  0.3417
33072SOL    HW2 2748   3.063  10.219   3.209 -0.6053 -0.2606  0.1588
33073SOL     OW 2749   4.181   1.523  10.899  0.2246  0.1011  0.4427
33073SOL    HW1 2750   4.214   1.452  10.843  1.3478  1.0610 -0.1600
33073SOL    HW2 2751   4.255   1.584  10.905 -0.8434  1.4129  0.6234
33074SOL     OW 2752   2.352   2.712   0.696 -1.0875  0.2807  0.2302
33074SOL    HW1 2753   2.349   2.617   0.690  1.5752  0.0896  0.6235
33074SOL    HW2 2754   2.423   2.738   0.638 -0.1860  1.7716  1.8707
33075SOL     OW 2755   9.079   7.341   6.195 -0.4052 -0.2593  0.3114
33075SOL    HW1 2756   9.097   7.339   6.289 -2.7400 -1.0221  0.8078
33075SOL    HW2 2757   8.991   7.376   6.188 -0.4153 -0.5655 -1.5914
33076SOL     OW 2758   6.488   8.506   0.152  0.2164 -0.4281 -0.1758
33076SOL    HW1 2759   6.422   8.464   0.207 -0.5919  0.4740 -0.4254
33076SOL    HW2 2760   6.564   8.516   0.209 -0.5761  0.4156  0.7603
33077SOL     OW 2761   3.766   1.506   2.120  0.2570 -0.4921  0.4418
33077SOL    HW1 2762   3.691   1.557   2.152  1.1890  0.5252  1.0918
33077SOL    HW2 2763   3.771   1.431   2.179 -0.6343 -0.9220 -0.0118
33078SOL     OW 2764   6.220   1.849   9.683 -0.0602 -0.0728 -0.1919
33078SOL    HW1 2765   6.141   1.815   9.641 -0.4874  0.2816  0.3161
33078SOL    HW2 2766   6.289   1.836   9.618 -0.6113 -0.0077 -0.8041
33079SOL     OW 2767   5.008   2.510   2.992 -0.0601 -0.2199  0.0950
33079SOL    HW1 2768   4.956   2.510   2.911  0.4157 -1.4161 -0.2417
33079SOL    HW2 2769   5.079   2.572   2.974  0.1733 -0.6452 -0.5145
33080SOL     OW 2770  10.021   0.933   1.857  0.1432 -0.3272 -0.0390
33080SOL    HW1 2771  10.069   0.850   1.854 -0.8364 -0.9615  1.0513
33080SOL    HW2 2772  10.010   0.958   1.765  0.0059 -1.6674 -0.4117
33081SOL     OW 2773   5.966  11.060   6.730 -0.3630  0.3614 -0.7834
33081SOL    HW1 2774   5.936  10.969   6.721 -0.1338  0.2918 -0.8614
33081SOL    HW2 2775   5.939  11.102   6.648 -1.2454  0.5912 -0.3857
33082SOL     OW 2776  10.957   4.711   3.030  0.3363  0.2112 -0.2298
33082SOL    HW1 2777  10.999   4.669   2.955 -0.6998  0.5724 -1.0355
33082SOL    HW2 2778  11.003   4.794   3.039  2.1735 -0.8595  1.1651
33083SOL     OW 2779   2.417   1.916   4.336 -0.1870  0.2003  0.2451
33083SOL    HW1 2780   2.407   1.894   4.428  0.0312  1.3328  0.5584
33083SOL    HW2 2781   2.450   1.836   4.295  1.2121  0.1319  1.4388
33084SOL     OW 2782   6.811   4.292   9.694 -0.0542 -0.0727 -0.1054
33084SOL    HW1 2783   6.804   4.218   9.633  0.1844  0.0867 -0.3302
33084SOL    HW2 2784   6.820   4.369   9.638 -0.6698  0.1683  0.1289
33085SOL     OW 2785   8.210   2.540  10.238 -0.0676  0.3803 -0.0508
33085SOL    HW1 2786   8.135   2.553  10.297  0.0564  0.5367  0.0709
33085SOL    HW2 2787   8.190   2.595  10.163  0.6040  1.5368  0.5979
33086SOL     OW 2788   6.022   0.896   1.578 -0.1630  0.5082 -0.8945
33086SOL    HW1 2789   5.934   0.929   1.596 -0.7389 -0.9945 -0.8513
33086SOL    HW2 2790   6.077   0.975   1.575 -1.2063  1.3544  0.7496
33087SOL     OW 2791   0.744   9.784  10.223 -0.3853 -0.5712  0.2793
33087SOL    HW1 2792   0.771   9.700  10.185 -0.2895 -0.1327 -0.6556
33087SOL    HW2 2793   0.762   9.848  10.154 -2.1025 -0.0176  0.2992
33088SOL     OW 2794   3.619   0.841   8.903  0.0650 -0.2409  0.8277
33088SOL    HW1 2795   3.647   0.831   8.811  0.3683 -0.3889  0.9343
33088SOL    HW2 2796   3.533   0.800   8.906  0.4420 -1.0612  0.8046
33089SOL     OW 2797   2.906   4.809   3.439  0.2413 -0.0401 -0.2207
33089SOL    HW1 2798   2.921   4.848   3.525 -2.2083 -1.5701  1.0149
33089SOL    HW2 2799   2.951   4.725   3.443  0.7838  0.2155 -0.7696
33090SOL     OW 2800   5.545  10.423   3.115  0.3777 -0.2162 -0.0160
33090SOL    HW1 2801   5.469  10.426   3.174  0.2223  0.3423 -0.2318
33090SOL    HW2 2802   5.619  10.410   3.174  0.1153 -0.7884  0.1961
33091SOL     OW 2803   5.595   3.899   3.767  0.0069  0.5301 -0.3023
33091SOL    HW1 2804   5.570   3.991   3.774  0.8638  0.7923 -0.5678
33091SOL    HW2 2805   5.514   3.854   3.742 -0.4441  1.1872 -0.0643
33092SOL     OW 2806   0.061   5.232   3.509 -0.3978  0.2963 -0.2533
33092SOL    HW1 2807   0.128   5.182   3.464  0.8921 -0.7876  2.5968
33092SOL    HW2 2808   0.017   5.169   3.566 -0.5459  1.8392  1.4811
33093SOL     OW 2809   1.846   6.581   3.541 -0.0505 -0.3233 -0.5056
33093SOL    HW1 2810   1.825   6.543   3.627  1.6661  1.9017  0.9837
33093SOL    HW2 2811   1.762   6.613   3.508 -0.6730 -0.8319  0.5329
33094SOL     OW 2812   3.299   7.115   5.816  0.0957  0.1892  0.7839
33094SOL    HW1 2813   3.204   7.107   5.809  0.1490 -0.9857  1.1661
33094SOL    HW2 2814   3.317   7.205   5.792 -1.0371  0.2000 -0.1211
33095SOL     OW 2815   7.651   8.832   9.894 -0.4315 -0.5111 -0.2795
33095SOL    HW1 2816   7.670   8.843   9.987 -0.4679  0.4031 -0.3778
33095SOL    HW2 2817   7.700   8.753   9.869 -0.3821 -0.7348  0.4955
33096SOL     OW 2818   2.002   0.978   4.024 -0.2238 -0.1257  0.1795
33096SOL    HW1 2819   2.004   0.943   4.113  0.9756 -0.4585  0.0426
33096SOL    HW2 2820   2.093   1.004   4.007 -0.7144  1.2555 -0.4304
33097SOL     OW 2821  10.612   3.952   0.396  0.6194 -0.6277  0.0572
33097SOL    HW1 2822  10.553   3.947   0.471 -0.3691 -1.1080 -0.7323
33097SOL    HW2 2823  10.561   3.993   0.327  1.4247 -0.4406 -0.4487
33098SOL     OW 2824   1.483   3.334  10.170  0.0297 -0.3293 -0.2118
33098SOL    HW1 2825   1.525   3.249  10.186  0.6882 -0.2415 -1.3926
33098SOL    HW2 2826   1.548   3.384  10.121 -1.1837  0.0722 -1.4617
33099SOL     OW 2827   3.496   7.199   5.451  0.0283  0.7676 -0.3553
33099SOL    HW1 2828   3.408   7.233   5.460 -0.5418 -0.7365  0.0873
33099SOL    HW2 2829   3.544   7.236   5.525 -0.5733  0.6114  0.1218
33100SOL     OW 2830   6.207   0.103   2.251 -0.0133 -0.0278 -0.0760
33100SOL    HW1 2831   6.264   0.027   2.239 -1.4523 -1.6116  2.1905
33100SOL    HW2 2832   6.145   0.075   2.318 -2.5561  2.1043 -1.3681
33101SOL     OW 2833  10.617   3.091   4.345  0.4795 -0.0915  0.0721
33101SOL    HW1 2834  10.586   3.031   4.412 -2.5953  1.1054 -0.1384
33101SOL    HW2 2835  10.652   3.034   4.276  0.6095 -1.4590  1.2147
33102SOL     OW 2836   6.147  10.254   9.095 -0.0070  0.1153  0.3568
33102SOL    HW1 2837   6.174  10.258   9.187  2.3427  1.0307 -0.3236
33102SOL    HW2 2838   6.177  10.336   9.057  1.5492 -1.3698 -1.8446
33103SOL     OW 2839   4.473   6.566   9.370  0.1149 -0.3882  0.4569
33103SOL    HW1 2840   4.498   6.643   9.421 -0.9339 -0.2973  0.8628
33103SOL    HW2 2841   4.556   6.523   9.348  0.7090  0.8493  0.2201
33104SOL     OW 2842   8.946   2.586   2.768 -0.2612 -0.0735 -0.2714
33104SOL    HW1 2843   8.926   2.588   2.675  0.3197 -1.0882 -0.4373
33104SOL    HW2 2844   8.939   2.677   2.796 -0.0365  0.3058 -1.3970
33105SOL     OW 2845   6.784   5.056   6.610 -0.4039  0.7815  0.3333
33105SOL    HW1 2846   6.833   4.981   6.577 -0.4231 -0.3101  2.6054
33105SOL    HW2 2847   6.851   5.115   6.644 -0.4809  0.9348  0.2165
33106SOL     OW 2848   5.897  10.097   7.413  0.2801 -0.0623 -0.0688
33106SOL    HW1 2849   5.849  10.044   7.476  0.1110 -0.4269 -0.4959
33106SOL    HW2 2850   5.919  10.177   7.460 -3.9752  1.8613 -0.8540
33107SOL     OW 2851   5.936   1.189   9.411 -0.4480  0.4361  0.4119
33107SOL    HW1 2852   5.841   1.199   9.412 -0.3703  1.5673  2.4496
33107SOL    HW2 2853   5.952   1.114   9.469 -0.0821  0.5183  0.4164
33108SOL     OW 2854   7.872   7.699   8.941  0.6030  0.1506  0.0435
33108SOL    HW1 2855   7.849   7.743   9.023  0.1824 -0.9248  0.5288
33108SOL    HW2 2856   7.913   7.767   8.888 -1.4678  1.5426  0.1162
33109SOL     OW 2857   2.552   7.441   4.404 -0.5651  0.2478 -0.5217
33109SOL    HW1 2858   2.636   7.474   4.436 -0.8384 -1.7863  2.7957
33109SOL    HW2 2859   2.488   7.502   4.438 -0.7185 -0.9725  1.5485
33110SOL     OW 2860   0.938   0.548   7.929 -0.3930 -0.3481  0.2568
33110SOL    HW1 2861   0.858   0.509   7.965  0.7738 -0.9642  2.3470
33110SOL    HW2 2862   1.006   0.483   7.944  0.7617  0.6910 -0.2843
33111SOL     OW 2863   5.155   3.308  11.025  0.3100 -0.0364  0.1877
33111SOL    HW1 2864   5.096   3.259  10.968  1.4828 -0.6454 -0.5397
33111SOL    HW2 2865   5.188   3.379  10.970 -0.1521  0.6308  0.7555
33112SOL     OW 2866   0.297   1.015   1.225 -0.2622  0.3597 -0.2992
33112SOL    HW1 2867   0.272   0.954   1.156 -1.8346  0.8608 -0.2132
33112SOL    HW2 2868   0.240   1.091   1.212 -0.7497  0.3914  1.6390
33113SOL     OW 2869   5.986   0.338   1.430 -0.3540  0.4971  0.2583
33113SOL    HW1 2870   5.993   0.250   1.467 -1.9059  0.1548 -0.1724
33113SOL    HW2 2871   5.898   0.341   1.392  0.3635  1.5914 -1.4240
33114SOL     OW 2872   9.012   6.991   2.056  0.2865 -0.1440  0.3482
33114SOL    HW1 2873   9.007   6.966   1.963  1.0637 -0.2025  0.3143
33114SOL    HW2 2874   9.014   7.087   2.054  0.6752 -0.1502  0.2758
33115SOL     OW 2875   9.485   2.182   4.942 -0.4566 -0.0056  0.2167
33115SOL    HW1 2876   9.489   2.259   4.998  1.5768  0.0677  0.0395
33115SOL    HW2 2877   9.548   2.200   4.872  1.2495 -2.4408  1.0091
33116SOL     OW 2878   1.454   8.048   3.532 -0.6938 -0.2017 -0.1420
33116SOL    HW1 2879   1.477   8.041   3.440 -2.7599 -2.1322 -0.6089
33116SOL    HW2 2880   1.494   7.970   3.572 -0.6105  0.1169  0.4007
33117SOL     OW 2881   4.659   9.556   6.553  0.3725  0.0756 -0.7093
33117SOL    HW1 2882   4.596   9.541   6.624 -1.1185  2.7957 -1.3251
33117SOL    HW2 2883   4.733   9.600   6.595  0.6116 -0.5391 -0.4696
33118SOL     OW 2884   4.678   9.851  10.638  0.0587  0.3156  0.1491
33118SOL    HW1 2885   4.624   9.908  10.582  0.2046  0.2191 -0.0907
33118SOL    HW2 2886   4.616   9.788  10.674 -0.0861  0.5608  0.3304
33119SOL     OW 2887  10.006   1.011   6.752  0.1535  0.1523  0.0666
33119SOL    HW1 2888   9.926   1.026   6.803 -0.5430  1.5081 -1.3176
33119SOL    HW2 2889  10.074   0.997   6.817 -0.9938  0.0983  1.3106
33120SOL     OW 2890   2.437   9.232   0.416 -0.5261  0.0569  0.3290
33120SOL    HW1 2891   2.444   9.137   0.416 -1.5043 -0.0218  0.0834
33120SOL    HW2 2892   2.441   9.257   0.324  1.7394  0.4484  0.4565
33121SOL     OW 2893   2.494   9.616   3.691  0.3445 -0.3617  0.1179
33121SOL    HW1 2894   2.555   9.674   3.645 -1.8396  0.8105 -1.4327
33121SOL    HW2 2895   2.455   9.672   3.759  0.9596 -1.1289  1.1445
33122SOL     OW 2896   4.145   8.972  10.774 -0.1373  0.1590  0.3620
33122SOL    HW1 2897   4.185   8.966  10.861 -0.8358  0.3768  0.7092
33122SOL    HW2 2898   4.210   8.935  10.715  0.2982 -0.1083  0.9941
33123SOL     OW 2899   0.933   0.546   0.032  0.1964  0.1070  0.2468
33123SOL    HW1 2900   0.885   0.547   0.115  1.3127 -0.5583  0.9173
33123SOL    HW2 2901   0.932   0.637   0.002 -0.8596  0.2270  0.5984
33124SOL     OW 2902   7.174   7.597   9.261  0.6201  0.4387 -0.0532
33124SOL    HW1 2903   7.122   7.597   9.342  0.0520 -0.8804 -0.3952
33124SOL    HW2 2904   7.208   7.686   9.255  0.1595  0.7375  1.3112
33125SOL     OW 2905   6.680   9.137   4.870  0.1302  0.1758  0.2296
33125SOL    HW1 2906   6.696   9.163   4.960  1.6728  1.1945 -0.2987
33125SOL    HW2 2907   6.599   9.182   4.845  0.0485  0.3983  0.8935
33126SOL     OW 2908   1.634   7.350   2.955  0.3369  0.8663  0.0389
33126SOL    HW1 2909   1.718   7.396   2.955 -0.4714  2.6456  3.0742
33126SOL    HW2 2910   1.569   7.420   2.954 -1.3748 -0.4354 -4.2291
33127SOL     OW 2911  10.166   8.727   8.573 -0.1343  0.2412  0.3502
33127SOL    HW1 2912  10.257   8.700   8.580 -0.6667 -1.5133  1.2274
33127SOL    HW2 2913  10.117   8.655   8.611 -1.8855  1.2673  0.1561
33128SOL     OW 2914   7.523   8.330   1.448 -0.0834 -0.1690 -0.2418
33128SOL    HW1 2915   7.548   8.399   1.386 -0.5664  0.5248  0.3184
33128SOL    HW2 2916   7.596   8.325   1.509  0.5645 -1.1162 -1.0573
33129SOL     OW 2917  10.921   2.584   6.032 -0.1662 -0.0681  0.0357
33129SOL    HW1 2918  10.895   2.658   6.087 -0.1349 -0.2863  0.3469
33129SOL    HW2 2919  10.979   2.622   5.966 -1.2855  0.4298 -0.6880
33130SOL     OW 2920   9.204  10.085   4.893 -0.3028 -0.1433 -0.0793
33130SOL    HW1 2921   9.197  10.111   4.985 -2.5439 -2.1269  0.4063
33130SOL    HW2 2922   9.185  10.165   4.844  0.3760  0.8174  1.1610
33131SOL     OW 2923   6.438   7.404   7.056 -0.9093 -0.3885 -0.0480
33131SOL    HW1 2924   6.530   7.413   7.032 -0.1454 -0.6113  2.5009
33131SOL    HW2 2925   6.396   7.368   6.977  1.4144 -1.5096 -0.8722
33132SOL     OW 2926   9.710   9.045   3.072 -0.4799  0.8647 -0.4484
33132SOL    HW1 2927   9.803   9.024   3.071 -0.5785  0.4230 -1.7582
33132SOL    HW2 2928   9.693   9.074   3.162  0.2174 -2.0833  0.7283
33133SOL     OW 2929   1.502   7.232  10.251  0.1592  0.0070 -0.5593
33133SOL    HW1 2930   1.448   7.174  10.197 -0.4872 -0.6005  0.7009
33133SOL    HW2 2931   1.477   7.320  10.224 -1.0918 -0.2742 -0.3724
33134SOL     OW 2932   3.174   8.685   6.269 -0.0275  0.0818 -0.0565
33134SOL    HW1 2933   3.198   8.686   6.361  0.4097 -0.1023 -0.1699
33134SOL    HW2 2934   3.126   8.603   6.257 -0.6066  0.3842  0.1360
33135SOL     OW 2935   8.868   6.740   3.246 -0.7573  0.2343  0.3360
33135SOL    HW1 2936   8.829   6.764   3.163  0.8883 -0.2764 -0.6384
33135SOL    HW2 2937   8.794   6.712   3.300 -1.8378  0.3782 -1.0060
33136SOL     OW 2938   5.163   3.112   4.722  0.1406  0.7761  0.2453
33136SOL    HW1 2939   5.106   3.161   4.781 -1.7780 -1.2673  0.2303
33136SOL    HW2 2940   5.191   3.176   4.657  0.6936  2.6257  2.1688
33137SOL     OW 2941   1.633   1.654   2.335 -0.1691 -0.0246 -0.1384
33137SOL    HW1 2942   1.721   1.633   2.365  0.1397  0.8932 -0.3699
33137SOL    HW2 2943   1.637   1.646   2.240 -0.2201  0.4043 -0.1809
33138SOL     OW 2944   2.565   7.262  10.225 -0.4026 -0.0258  0.3180
33138SOL    HW1 2945   2.583   7.225  10.138  0.6487  0.2671  0.4068
33138SOL    HW2 2946   2.567   7.357  10.211 -3.3581  0.1004  0.0351
33139SOL     OW 2947   7.880   8.295   1.044 -0.0188 -0.9690  0.5236
33139SOL    HW1 2948   7.908   8.336   1.125  0.7037  0.9300 -0.6383
33139SOL    HW2 2949   7.895   8.201   1.058  3.7222 -0.4184  1.2439
33140SOL     OW 2950   4.106   1.639   5.732  0.3197  0.3205  0.5832
33140SOL    HW1 2951   4.060   1.557   5.716  2.4024 -1.4302  2.7397
33140SOL    HW2 2952   4.104   1.685   5.648 -1.9223 -1.3547 -0.3858
33141SOL     OW 2953   7.874   1.032   5.485 -0.0627 -0.4359  0.4001
33141SOL    HW1 2954   7.965   1.005   5.475 -0.4085 -1.5562  0.1467
33141SOL    HW2 2955   7.862   1.043   5.579  0.0636 -1.2862  0.5198
33142SOL     OW 2956   6.506   0.149   8.143  0.1804 -0.3417  0.5939
33142SOL    HW1 2957   6.451   0.137   8.220  0.6888  0.7199  1.1322
33142SOL    HW2 2958   6.485   0.237   8.112  0.5779 -0.4524 -0.0120
33143SOL     OW 2959   8.217   7.753   1.820  0.0070  0.1760 -0.1414
33143SOL    HW1 2960   8.226   7.661   1.796  2.0890  0.3417 -0.2371
33143SOL    HW2 2961   8.125   7.773   1.807 -0.4370 -1.8305 -0.3357
33144SOL     OW 2962  10.473   5.539   1.801  0.1371 -0.0545  0.1020
33144SOL    HW1 2963  10.435   5.502   1.881  1.2405  0.4263  0.8744
33144SOL    HW2 2964  10.547   5.592   1.832 -0.3859  1.4457 -1.1039
33145SOL     OW 2965   1.640   2.904   6.493 -0.3815  0.5860  0.5340
33145SOL    HW1 2966   1.656   2.998   6.486 -0.2529  0.4429 -1.7093
33145SOL    HW2 2967   1.724   2.864   6.471 -0.9146 -0.0455 -0.4118
33146SOL     OW 2968   8.076   5.508   6.828  0.0199 -0.0867  0.0777
33146SOL    HW1 2969   8.013   5.522   6.757 -0.2934  0.8772  0.5200
33146SOL    HW2 2970   8.051   5.572   6.895 -1.1490 -2.4480  2.0825
33147SOL     OW 2971   1.769   5.707   9.867 -0.1166  0.0118 -0.2428
33147SOL    HW1 2972   1.712   5.698   9.791 -0.3723  0.8142 -0.1522
33147SOL    HW2 2973   1.742   5.788   9.908  0.9785  0.3311 -0.1048
33148SOL     OW 2974   0.409   1.572   8.092 -0.2183 -0.0120  0.0229
33148SOL    HW1 2975   0.374   1.660   8.102 -0.5522 -0.2802  1.3995
33148SOL    HW2 2976   0.477   1.565   8.158  1.2528 -0.1187 -1.4264
33149SOL     OW 2977   5.042   3.060   7.370  0.5017  0.2194 -0.0559
33149SOL    HW1 2978   5.108   3.108   7.420  0.8658 -1.3869  1.1239
33149SOL    HW2 2979   4.974   3.039   7.435 -0.5945  0.7982 -0.9820
33150SOL     OW 2980   3.819   6.230   4.298 -0.3256 -0.8012 -0.0637
33150SOL    HW1 2981   3.790   6.150   4.343  0.4710 -0.5362  0.9733
33150SOL    HW2 2982   3.883   6.268   4.358 -0.7651  0.6763 -0.5018
33151SOL     OW 2983   0.030   2.223   9.065 -0.7402  0.4727 -0.0666
33151SOL    HW1 2984   0.070   2.271   8.993  0.2896 -0.3262 -0.0621
33151SOL    HW2 2985  -0.052   2.190   9.029  0.0319 -0.4097 -1.0918
33152SOL     OW 2986   9.271   1.941   8.746  0.2952 -0.7640  0.7665
33152SOL    HW1 2987   9.256   1.856   8.703  1.8716 -0.4102 -0.5668
33152SOL    HW2 2988   9.185   1.966   8.780 -0.1857 -2.9422  1.3110
33153SOL     OW 2989   6.622   4.988   5.688 -0.5961  0.0894  0.5349
33153SOL    HW1 2990   6.641   4.921   5.754  0.3505 -0.1435  0.0524
33153SOL    HW2 2991   6.596   5.065   5.738 -0.5482 -0.2895  1.1524
33154SOL     OW 2992   0.460   6.677  10.383  0.7050  0.5816  0.3910
33154SOL    HW1 2993   0.471   6.645  10.293 -0.9913 -2.6679  1.1856
33154SOL    HW2 2994   0.391   6.743  10.376 -0.7171 -0.9216 -0.5412
33155SOL     OW 2995   2.378   5.375   8.812  0.1694 -0.7439  0.9031
33155SOL    HW1 2996   2.338   5.439   8.871  0.4201 -1.8301  2.2897
33155SOL    HW2 2997   2.333   5.293   8.831  1.6040 -1.5370  0.9958
33156SOL     OW 2998   6.043   1.184   5.513  0.2489  0.0975  0.3215
33156SOL    HW1 2999   6.020   1.096   5.483  1.8435  0.1851 -1.2532
33156SOL    HW2 3000   6.073   1.229   5.435  0.0286  1.8818  1.2245
33157SOL     OW 3001   9.044   5.995   2.583  0.1592  0.5049  0.5730
33157SOL    HW1 3002   9.112   6.043   2.631  1.9809  0.7887 -2.0448
33157SOL    HW2 3003   9.034   6.043   2.501  1.2458 -2.8095 -1.7252
33158SOL     OW 3004   3.552   5.028  11.070 -0.1918  0.3943 -0.2251
33158SOL    HW1 3005   3.515   4.947  11.106  2.7375 -1.5872 -1.3052
33158SOL    HW2 3006   3.596   5.070  11.144  0.2109 -0.2298 -0.1007
33159SOL     OW 3007   0.125   9.183   6.382  0.2141  1.0218  0.2434
33159SOL    HW1 3008   0.110   9.128   6.304  2.3336  1.5461 -0.6303
33159SOL    HW2 3009   0.084   9.135   6.453 -3.3879  1.3619 -1.3741
33160SOL     OW 3010   5.621   1.476  10.731 -0.4413 -0.0573 -0.1287
33160SOL    HW1 3011   5.650   1.505  10.817 -1.6384 -0.1230  0.3278
33160SOL    HW2 3012   5.701   1.450  10.685  0.0212 -2.4942  1.8842
33161SOL     OW 3013   9.151   6.425   8.487 -0.1667  0.0760  0.0349
33161SOL    HW1 3014   9.123   6.347   8.534 -0.1583 -0.0912 -0.2332
33161SOL    HW2 3015   9.198   6.478   8.552  0.1491 -0.3134  0.1230
33162SOL     OW 3016   0.563   1.449   9.182  0.1939  0.3091  0.5061
33162SOL    HW1 3017   0.648   1.427   9.219  1.0607  0.4231 -1.3026
33162SOL    HW2 3018   0.510   1.370   9.193  0.8390 -0.0829  0.8310
33163SOL     OW 3019   3.021   0.114   4.993 -0.0254 -0.6006 -0.1656
33163SOL    HW1 3020   2.957   0.088   4.927 -0.5571 -0.8427  0.4331
33163SOL    HW2 3021   2.994   0.202   5.019  0.3767 -0.3751 -0.4982
33164SOL     OW 3022  10.682   3.399   0.003  0.4417  0.3249 -0.1293
33164SOL    HW1 3023  10.637   3.326  -0.040  1.0781  0.2982 -0.7760
33164SOL    HW2 3024  10.648   3.399   0.093 -2.7103  1.8131 -1.1538
33165SOL     OW 3025   0.579   2.796   7.155 -0.6216 -0.1074 -0.8388
33165SOL    HW1 3026   0.594   2.890   7.167  0.9665 -0.1808 -1.8053
33165SOL    HW2 3027   0.658   2.766   7.110 -2.2989 -1.3805 -3.1378
33166SOL     OW 3028   8.983   0.993   5.641 -0.2386 -0.4128 -1.1432
33166SOL    HW1 3029   8.968   0.924   5.706 -0.3006 -1.1113 -1.8748
33166SOL    HW2 3030   9.013   1.068   5.692  0.8718 -1.3070 -0.4153
33167SOL     OW 3031   9.424   3.462   7.447  0.2283  0.1567 -0.5659
33167SOL    HW1 3032   9.351   3.427   7.498 -0.1842  1.1856 -0.4286
33167SOL    HW2 3033   9.493   3.478   7.511 -0.3802  1.6932 -0.2468
33168SOL     OW 3034   0.779   8.062   0.745 -0.3975  0.0592  0.5103
33168SOL    HW1 3035   0.780   8.002   0.670 -0.0790 -2.0129  2.0705
33168SOL    HW2 3036   0.699   8.114   0.733  0.4196  0.8537 -2.0086
33169SOL     OW 3037   6.263   8.367  10.239  0.1469 -0.1665 -0.0635
33169SOL    HW1 3038   6.297   8.456  10.242 -1.5066  0.5466 -1.1583
33169SOL    HW2 3039   6.295   8.332  10.155  0.0648 -0.2970 -0.0408
33170SOL     OW 3040   6.773   7.474   4.490  0.2961  0.2018 -0.1777
33170SOL    HW1 3041   6.810   7.389   4.511 -2.8305 -0.9788  1.0252
33170SOL    HW2 3042   6.760   7.472   4.395  0.1538 -0.6877 -0.1429
33171SOL     OW 3043   5.577   5.908   3.968  0.1394 -0.6119 -0.2732
33171SOL    HW1 3044   5.510   5.960   4.011  1.0782  1.5488 -1.2314
33171SOL    HW2 3045   5.657   5.928   4.017  1.0545  1.2053 -2.3255
33172SOL     OW 3046   7.806   8.018   6.791  0.3078  0.0666 -0.4921
33172SOL    HW1 3047   7.795   8.088   6.727 -0.8690  0.6287  0.2738
33172SOL    HW2 3048   7.899   8.017   6.811  0.1250  2.7723  0.9277
33173SOL     OW 3049  10.943   5.125   6.444 -0.0666 -0.1412 -0.9485
33173SOL    HW1 3050  10.928   5.035   6.414 -1.1610  0.1240 -1.2380
33173SOL    HW2 3051  10.963   5.116   6.537  1.3759 -0.8061 -1.3020
33174SOL     OW 3052   6.807   8.794   2.826 -0.5744  0.1281  0.1059
33174SOL    HW1 3053   6.787   8.836   2.910 -1.2988 -2.0033  1.0600
33174SOL    HW2 3054   6.722   8.775   2.788 -0.2487  0.0981 -0.6238
33175SOL     OW 3055   7.329   1.095   5.554 -0.0325 -0.5224 -0.0881
33175SOL    HW1 3056   7.393   1.029   5.525  0.1526 -0.7040  0.7200
33175SOL    HW2 3057   7.261   1.093   5.487  1.5427  0.8022 -1.8733
33176SOL     OW 3058   8.176   0.238   7.059 -0.2069 -0.0568  0.8491
33176SOL    HW1 3059   8.178   0.290   6.979 -0.2428  0.1922  1.0078
33176SOL    HW2 3060   8.090   0.256   7.097 -1.0010 -1.7049 -0.0567
33177SOL     OW 3061   2.529   2.313  10.142 -0.3976  0.3806 -0.6529
33177SOL    HW1 3062   2.547   2.242  10.080  0.9044  0.8779 -0.8815
33177SOL    HW2 3063   2.437   2.334  10.130 -0.5652 -0.6608 -1.2254
33178SOL     OW 3064  10.124   7.926   9.503 -0.4199  0.5444 -0.0118
33178SOL    HW1 3065  10.152   7.985   9.573 -1.3399 -0.9496  1.7116
33178SOL    HW2 3066  10.153   7.968   9.423  2.6406  1.2913  1.3486
33179SOL     OW 3067   7.261   7.433   2.647  0.1518 -0.0938 -0.5330
33179SOL    HW1 3068   7.356   7.444   2.650  0.2260 -0.3439 -1.6500
33179SOL    HW2 3069   7.227   7.511   2.689  0.8562 -0.3759  0.6199
33180SOL     OW 3070   5.762   6.676   9.876  0.5007 -0.0735 -0.0839
33180SOL    HW1 3071   5.726   6.747   9.822  0.1730 -0.0310  0.1882
33180SOL    HW2 3072   5.856   6.678   9.858  0.8759  1.9976  1.7182
33181SOL     OW 3073   2.726   4.289   7.892 -0.0182 -0.2413 -0.5204
33181SOL    HW1 3074   2.679   4.284   7.809 -1.4340  1.2258  0.1340
33181SOL    HW2 3075   2.818   4.296   7.867 -0.3771 -0.2910 -1.9481
33182SOL     OW 3076   4.804   3.337  10.922  0.0834  0.1856 -0.2330
33182SOL    HW1 3077   4.872   3.268  10.915 -0.9658 -0.7803 -1.5855
33182SOL    HW2 3078   4.759   3.318  11.004 -0.3008 -0.8885 -0.6664
33183SOL     OW 3079   1.775  10.642   4.949  0.3974 -0.7397 -0.3937
33183SOL    HW1 3080   1.829  10.708   4.994  2.7500 -2.3720 -0.6380
33183SOL    HW2 3081   1.728  10.692   4.882  1.3265  0.8478  0.0762
33184SOL     OW 3082   1.594   0.342   4.523  0.9434  0.3874 -0.3992
33184SOL    HW1 3083   1.530   0.305   4.462  0.1124  1.0967  0.0216
33184SOL    HW2 3084   1.662   0.379   4.468 -0.3466  2.0187 -0.9629
33185SOL     OW 3085   1.997   5.082   0.027  0.0570 -0.4601  0.3441
33185SOL    HW1 3086   2.060   5.068  -0.043  0.3273  0.0358  0.4777
33185SOL    HW2 3087   2.050   5.105   0.103 -0.3260  2.6480 -0.1736
33186SOL     OW 3088  10.669   7.188   1.979  0.1229  0.0839  0.1383
33186SOL    HW1 3089  10.604   7.137   2.028  1.0376  0.0512  1.3550
33186SOL    HW2 3090  10.716   7.124   1.926  0.0535 -0.0838  0.2785
33187SOL     OW 3091   1.921  10.674   2.218 -0.0311 -0.3064 -0.1895
33187SOL    HW1 3092   1.889  10.749   2.168  0.5117 -0.5705 -0.9469
33187SOL    HW2 3093   1.894  10.692   2.308 -0.0955  0.6929 -0.3985
33188SOL     OW 3094   8.544   4.816   9.905  0.1777 -0.0305 -0.0460
33188SOL    HW1 3095   8.627   4.812   9.952  0.1855 -2.1053 -0.1616
33188SOL    HW2 3096   8.479   4.832   9.974  0.3521 -1.5099  0.4900
33189SOL     OW 3097   9.878  10.196  10.682  0.2665 -0.2558 -0.4196
33189SOL    HW1 3098   9.803  10.235  10.727  1.0113  1.1694 -0.3624
33189SOL    HW2 3099   9.839  10.136  10.618 -0.8521 -2.3336  1.9952
33190SOL     OW 3100   6.559   4.896   2.184  0.0336 -0.0962  0.5300
33190SOL    HW1 3101   6.524   4.979   2.218 -1.7508 -0.3752 -0.5051
33190SOL    HW2 3102   6.543   4.833   2.254  1.4182  0.3947  1.3328
33191SOL     OW 3103   6.426   9.416   7.336 -0.2173  0.3789  0.0744
33191SOL    HW1 3104   6.520   9.401   7.349 -0.0691  0.9266 -0.3236
33191SOL    HW2 3105   6.396   9.449   7.421  0.3989  2.2813 -0.3952
33192SOL     OW 3106   7.747   8.777   6.036 -0.6869 -0.6422  0.5924
33192SOL    HW1 3107   7.760   8.742   5.948  0.1159  0.3289  0.3106
33192SOL    HW2 3108   7.673   8.726   6.071 -0.8039 -1.2646 -0.5070
33193SOL     OW 3109   8.393   4.865   2.041  0.3319 -0.0548  0.0110
33193SOL    HW1 3110   8.332   4.813   2.094  0.7436 -0.6307 -0.0713
33193SOL    HW2 3111   8.338   4.930   1.998 -0.2144 -0.5025  0.0224
33194SOL     OW 3112   3.265   6.018   9.637 -0.2331 -0.2337 -0.6263
33194SOL    HW1 3113   3.247   6.108   9.610 -0.2513 -0.8896 -3.0091
33194SOL    HW2 3114   3.183   5.971   9.622  0.5014 -1.1632 -1.9508
33195SOL     OW 3115   4.151   3.186   7.237 -0.2740  0.1390 -0.2162
33195SOL    HW1 3116   4.169   3.264   7.290 -1.2879  0.9494 -1.0173
33195SOL    HW2 3117   4.117   3.122   7.300  0.1887  0.4740  0.3830
33196SOL     OW 3118   8.914   4.075   1.857 -0.2898  0.7261  0.3737
33196SOL    HW1 3119   8.876   3.987   1.856  3.5838 -1.1701 -1.4643
33196SOL    HW2 3120   8.880   4.116   1.778  1.0017 -0.7646 -1.0248
33197SOL     OW 3121   9.462   5.596   8.643 -0.3941 -0.0246 -0.0121
33197SOL    HW1 3122   9.412   5.645   8.708  1.1556  2.0559 -0.2851
33197SOL    HW2 3123   9.449   5.644   8.561  3.1913  1.6117  0.2061
33198SOL     OW 3124  10.538  10.471  10.806  0.1143  0.3085 -0.6627
33198SOL    HW1 3125  10.520  10.401  10.869 -1.3646  1.7692  0.6334
33198SOL    HW2 3126  10.633  10.476  10.803  0.2530 -1.4360 -0.4605
33199SOL     OW 3127   6.793  11.041  11.038  0.1896  0.3068 -0.2069
33199SOL    HW1 3128   6.791  11.039  10.943  0.3710 -0.1277 -0.2044
33199SOL    HW2 3129   6.879  11.075  11.060 -0.0808  0.9868 -0.2004
33200SOL     OW 3130   3.020   3.045   9.049  0.1083 -0.2824  0.1689
33200SOL    HW1 3131   3.115   3.048   9.036 -0.0324 -0.4234 -1.0323
33200SOL    HW2 3132   2.985   3.103   8.981 -0.6010  1.1005  1.6621
33201SOL     OW 3133  10.368  10.193   0.581  0.9123 -0.3955 -0.1341
33201SOL    HW1 3134  10.343  10.263   0.642  0.4254 -0.1102 -0.6472
33201SOL    HW2 3135  10.429  10.139   0.631 -1.4262 -1.6643  1.5407
33202SOL     OW 3136   8.702   7.402  10.150 -0.3470 -0.0294  0.1337
33202SOL    HW1 3137   8.763   7.329  10.152  0.2801  0.4295  3.0246
33202SOL    HW2 3138   8.624   7.369  10.194 -0.3704  0.7386  0.6977
33203SOL     OW 3139  10.690   2.649  10.958  0.7409 -0.2669  0.0532
33203SOL    HW1 3140  10.707   2.590  10.885  0.2377 -1.2346  0.6896
33203SOL    HW2 3141  10.624   2.604  11.010 -0.1638  1.1874  0.2085
33204SOL     OW 3142   8.780   1.952   4.642 -0.3513 -0.3981  0.2430
33204SOL    HW1 3143   8.763   2.045   4.630 -1.3938 -0.5294  0.5972
33204SOL    HW2 3144   8.723   1.908   4.578 -0.1138 -0.8039  0.3025
33205SOL     OW 3145   5.723   1.220   5.105  0.3568 -0.0495 -0.2710
33205SOL    HW1 3146   5.712   1.156   5.176  1.1176  1.0978  0.9435
33205SOL    HW2 3147   5.774   1.175   5.039  3.0048 -0.0607  1.6007
33206SOL     OW 3148   5.763   0.871   9.318 -0.2834 -0.1394 -0.2414
33206SOL    HW1 3149   5.816   0.886   9.396  1.3619 -0.5170 -1.2573
33206SOL    HW2 3150   5.752   0.776   9.315 -0.7149 -0.0922 -0.2494
33207SOL     OW 3151   1.144   5.611   3.665  0.0212  0.1729  0.5848
33207SOL    HW1 3152   1.237   5.622   3.681 -0.1565  0.2654  1.6282
33207SOL    HW2 3153   1.139   5.571   3.578  1.0138  0.4290  0.4012
33208SOL     OW 3154   1.281   4.514   7.511  0.4854 -0.0546 -0.6963
33208SOL    HW1 3155   1.223   4.448   7.549 -0.9151  0.7691 -1.3211
33208SOL    HW2 3156   1.282   4.495   7.417 -0.0687  0.8806 -0.9105
33209SOL     OW 3157   4.182  10.979   5.876  0.0588  0.0192 -0.4325
33209SOL    HW1 3158   4.091  10.956   5.893  0.4090 -1.8877 -0.8512
33209SOL    HW2 3159   4.230  10.949   5.953  0.5146 -0.3899 -0.8688
33210SOL     OW 3160   4.766   7.864   4.444  0.2807  0.2961  0.1907
33210SOL    HW1 3161   4.675   7.835   4.449  0.2643  0.4909  2.1312
33210SOL    HW2 3162   4.814   7.801   4.499  1.1024  0.9019  0.1882
33211SOL     OW 3163   9.796   4.410   2.933  0.1333 -0.0177  0.2385
33211SOL    HW1 3164   9.884   4.445   2.918  0.0939 -0.2392 -0.5294
33211SOL    HW2 3165   9.770   4.448   3.017  0.8892  0.1921  0.3911
33212SOL     OW 3166   4.326   5.691   6.915  0.6275 -0.1253  0.7173
33212SOL    HW1 3167   4.387   5.688   6.842 -1.1264 -1.3619 -0.7889
33212SOL    HW2 3168   4.256   5.749   6.885 -0.5531 -1.3461  1.0210
33213SOL     OW 3169   6.437   1.496   2.177 -0.1538  0.0229 -0.1019
33213SOL    HW1 3170   6.371   1.477   2.244 -1.5035  1.6802 -0.8836
33213SOL    HW2 3171   6.492   1.417   2.174 -0.6447 -0.4840  2.2298
33214SOL     OW 3172   0.837   8.744   2.060 -0.1419 -0.5290 -0.0556
33214SOL    HW1 3173   0.760   8.793   2.090  0.6212 -0.1307  1.3529
33214SOL    HW2 3174   0.836   8.664   2.111 -0.5603 -1.3523 -1.3011
33215SOL     OW 3175   6.571   8.350   8.091 -0.1635 -0.1096 -0.0135
33215SOL    HW1 3176   6.553   8.315   8.178 -1.0575 -0.7409 -0.4358
33215SOL    HW2 3177   6.659   8.319   8.070 -0.7437 -1.7424 -0.1802
33216SOL     OW 3178   2.259  10.278   2.113 -0.4011  0.2762  0.6991
33216SOL    HW1 3179   2.189  10.343   2.122  0.1338  0.9112  0.3640
33216SOL    HW2 3180   2.340  10.327   2.127  0.1025  0.0118 -0.9894
33217SOL     OW 3181   2.531   3.174   3.320  0.1439  0.6729 -0.3198
33217SOL    HW1 3182   2.495   3.259   3.345 -0.5824  0.8174 -1.7563
33217SOL    HW2 3183   2.605   3.161   3.378  0.8159  2.7127 -0.6641
33218SOL     OW 3184   8.359   5.988   0.798 -0.0558 -0.3888  0.0817
33218SOL    HW1 3185   8.422   5.921   0.826  3.1602  1.2231 -2.6620
33218SOL    HW2 3186   8.339   5.966   0.708 -0.8269  1.0222 -0.1114
33219SOL     OW 3187   7.564  10.851   4.380  0.2509 -0.5044  0.1782
33219SOL    HW1 3188   7.649  10.816   4.352  0.5587  1.1828 -1.1661
33219SOL    HW2 3189   7.551  10.929   4.327 -2.6462 -1.2575 -0.4273
33220SOL     OW 3190  10.245   1.991   6.200 -0.1366  0.2068  0.4296
33220SOL    HW1 3191  10.229   1.932   6.274  0.3079 -0.6088 -0.1108
33220SOL    HW2 3192  10.311   1.945   6.147  0.1906  1.1792 -0.0179
33221SOL     OW 3193   1.818   1.821   1.950 -0.4207  0.1434  0.4088
33221SOL    HW1 3194   1.732   1.781   1.963  0.0729 -1.1471 -0.0810
33221SOL    HW2 3195   1.824   1.889   2.016 -1.5109 -0.2776  0.9588
33222SOL     OW 3196   2.918   6.306   7.820 -0.0914  0.1819 -0.1602
33222SOL    HW1 3197   2.928   6.314   7.725 -0.5090  2.1490 -0.0712
33222SOL    HW2 3198   3.007   6.309   7.853  0.1095 -1.1687 -0.4869
33223SOL     OW 3199   0.609   7.016   1.789  0.6672  0.4778  0.0273
33223SOL    HW1 3200   0.615   6.971   1.873  1.2618  1.6335  0.6173
33223SOL    HW2 3201   0.518   7.004   1.762  0.6235 -0.4162  0.5220
33224SOL     OW 3202   8.032   4.149   2.319  0.1149 -0.0722 -0.2361
33224SOL    HW1 3203   8.120   4.165   2.287  0.5907 -0.1346  0.9650
33224SOL    HW2 3204   8.032   4.185   2.408 -0.7502 -0.9708  0.1505
33225SOL     OW 3205   0.347   8.954   9.511 -0.1776 -0.9533  0.3487
33225SOL    HW1 3206   0.429   8.962   9.463 -0.3071 -1.5147  0.0272
33225SOL    HW2 3207   0.350   9.025   9.576  0.5119 -0.9081  0.2733
33226SOL     OW 3208   4.822   7.987   2.211  0.0579 -0.2748  0.3431
33226SOL    HW1 3209   4.869   7.923   2.263 -0.2594 -0.6762  0.1394
33226SOL    HW2 3210   4.785   8.048   2.275  0.1020 -0.4662  0.5514
33227SOL     OW 3211   8.531   6.360   5.034  0.2642  0.4717 -0.1192
33227SOL    HW1 3212   8.475   6.355   5.111  1.0132  0.9447  0.4733
33227SOL    HW2 3213   8.609   6.408   5.064  0.4958  0.8058 -1.2094
33228SOL     OW 3214   0.463   1.369   6.279  0.8490  0.6403 -0.0184
33228SOL    HW1 3215   0.396   1.410   6.225  0.5906 -0.7683 -0.8218
33228SOL    HW2 3216   0.503   1.441   6.327 -0.7647  1.5977 -0.0484
33229SOL     OW 3217   7.499   9.412   7.079 -0.3553 -0.0568  0.7500
33229SOL    HW1 3218   7.480   9.321   7.054  1.9790 -0.5791  0.7015
33229SOL    HW2 3219   7.574   9.436   7.025  0.3374  1.2063  2.2285
33230SOL     OW 3220   4.387   1.050   2.325 -0.6439  0.5515 -0.0796
33230SOL    HW1 3221   4.293   1.071   2.331 -0.3110  1.7182  1.5512
33230SOL    HW2 3222   4.389   0.965   2.281 -2.6318 -0.5236  1.7132
33231SOL     OW 3223   5.080   0.037   1.243  0.3359  0.6099 -0.8918
33231SOL    HW1 3224   5.165   0.053   1.283  0.1231  1.0429 -0.6061
33231SOL    HW2 3225   5.100   0.003   1.156  0.8177 -0.8502 -0.2442
33232SOL     OW 3226   8.305   2.051   1.290  0.2936 -0.3240  0.5118
33232SOL    HW1 3227   8.229   2.099   1.323  0.8373  0.5941  0.4419
33232SOL    HW2 3228   8.335   2.102   1.215  0.5875 -1.0392  0.1384
33233SOL     OW 3229  11.088   0.908   4.118 -0.3613  0.7133  0.1151
33233SOL    HW1 3230  11.036   0.969   4.067 -0.4014 -0.8799 -1.8840
33233SOL    HW2 3231  11.177   0.918   4.085 -0.2341  0.2224  0.2995
33234SOL     OW 3232   3.155   4.430   2.301  0.3191  0.6156  0.0249
33234SOL    HW1 3233   3.229   4.490   2.304  0.0988  0.9242 -0.5937
33234SOL    HW2 3234   3.108   4.454   2.222  0.0396 -0.1564 -0.0488
33235SOL     OW 3235  11.042   8.101   1.349  0.6246 -0.3893 -0.0411
33235SOL    HW1 3236  11.107   8.156   1.305 -1.0802 -0.6686 -3.1621
33235SOL    HW2 3237  11.076   8.012   1.342  0.6188 -0.3745 -0.2432
33236SOL     OW 3238   3.782   8.840   6.523  0.1419 -0.1258 -0.6471
33236SOL    HW1 3239   3.837   8.782   6.470 -0.1255  0.6669 -1.8184
33236SOL    HW2 3240   3.728   8.780   6.575  0.5103 -0.9265 -1.1571
33237SOL     OW 3241   1.349  10.350   1.852  0.1222 -0.2400 -0.1233
33237SOL    HW1 3242   1.273  10.361   1.909  0.9295 -2.1312  1.4237
33237SOL    HW2 3243   1.316  10.303   1.776 -0.5136  0.2374 -0.1528
33238SOL     OW 3244   5.880   0.106   7.897 -0.0216  0.5083 -0.5294
33238SOL    HW1 3245   5.894   0.015   7.923 -0.6718  0.4592 -0.3443
33238SOL    HW2 3246   5.968   0.144   7.896  0.0838  0.4343  1.5028
33239SOL     OW 3247   1.832  10.511   3.626  0.0750 -0.4620 -0.1380
33239SOL    HW1 3248   1.832  10.457   3.705  1.2798 -0.6280 -0.2409
33239SOL    HW2 3249   1.920  10.502   3.590  0.2702  1.4463 -0.2434
33240SOL     OW 3250   8.296   0.420   4.842  0.3769  0.0516  0.3293
33240SOL    HW1 3251   8.302   0.477   4.919  0.4232  0.8400 -0.2427
33240SOL    HW2 3252   8.283   0.480   4.769 -1.9237 -0.8065 -0.0303
33241SOL     OW 3253   9.643  10.757   1.763 -1.2082  0.1188 -0.2159
33241SOL    HW1 3254   9.618  10.780   1.852 -0.2971  0.0541  0.0652
33241SOL    HW2 3255   9.687  10.835   1.729  0.0554 -0.4730  0.0283
33242SOL     OW 3256   5.345   7.557   9.508 -0.0376 -0.9268  0.5025
33242SOL    HW1 3257   5.293   7.503   9.449  0.6238 -2.1506  1.0078
33242SOL    HW2 3258   5.294   7.638   9.518  0.6225  0.0964 -3.0531
33243SOL     OW 3259   7.101   6.415   9.900  0.0237  0.2986 -0.9296
33243SOL    HW1 3260   7.184   6.378   9.869  0.0577 -0.9776  0.5551
33243SOL    HW2 3261   7.054   6.341   9.938 -2.4091  0.7239 -2.8160
33244SOL     OW 3262   5.463   0.366   2.675 -0.9550 -0.2881  0.2045
33244SOL    HW1 3263   5.411   0.377   2.755 -1.2052  0.5739 -0.0675
33244SOL    HW2 3264   5.400   0.335   2.610 -1.3678  1.6240 -0.3683
33245SOL     OW 3265   2.700   8.348  10.752  0.1080  0.3041  0.0180
33245SOL    HW1 3266   2.648   8.344  10.671  0.5091 -0.6608 -0.2165
33245SOL    HW2 3267   2.789   8.368  10.722  0.1544  0.4891  0.2763
33246SOL     OW 3268   6.094  10.962  11.025 -0.4441  0.3891 -0.2215
33246SOL    HW1 3269   6.118  11.054  11.010 -0.3441  0.1538 -1.5682
33246SOL    HW2 3270   6.165  10.928  11.079 -0.7024  1.2070  0.6775
33247SOL     OW 3271   7.969   8.040   7.722 -0.4159  0.2859  0.4130
33247SOL    HW1 3272   7.947   8.068   7.633 -0.6188  0.0411  0.3872
33247SOL    HW2 3273   8.003   7.951   7.711  2.1994  1.2022  0.2159
33248SOL     OW 3274   6.426  10.608   7.087 -0.6020 -0.9377  0.4408
33248SOL    HW1 3275   6.335  10.580   7.089 -0.3442 -1.9332 -0.5302
33248SOL    HW2 3276   6.475  10.531   7.119 -0.1684  0.0354  2.2748
33249SOL     OW 3277   1.474   1.161   5.674  0.2377  0.7201  0.0010
33249SOL    HW1 3278   1.524   1.139   5.595  0.6836 -0.0150  0.4766
33249SOL    HW2 3279   1.418   1.234   5.647  1.3197  1.3333 -0.6381
33250SOL     OW 3280   5.927   0.271   2.247 -0.2524  0.0600  0.1268
33250SOL    HW1 3281   5.992   0.321   2.197 -1.4858  1.7958  0.1487
33250SOL    HW2 3282   5.893   0.207   2.184 -0.5265  1.0420 -0.7541
33251SOL     OW 3283   2.341  10.247  10.370  0.2413  0.4462  0.1418
33251SOL    HW1 3284   2.367  10.285  10.454  0.7707 -0.2900  0.3258
33251SOL    HW2 3285   2.419  10.256  10.315  0.4977 -0.6577  0.2996
33252SOL     OW 3286   5.218   8.604   5.220 -0.9534  0.1378  0.3977
33252SOL    HW1 3287   5.255   8.662   5.154 -0.9158  0.4582  0.6980
33252SOL    HW2 3288   5.278   8.609   5.294 -0.8100 -0.4873  0.3354
33253SOL     OW 3289   3.069   7.565   9.904 -0.2394  0.0925 -0.3066
33253SOL    HW1 3290   3.004   7.560   9.975 -0.3508  1.3169 -0.2976
33253SOL    HW2 3291   3.016   7.575   9.825 -0.0905 -0.1193 -0.4301
33254SOL     OW 3292   8.601   5.347   9.626 -0.2839  0.0774  0.6219
33254SOL    HW1 3293   8.672   5.390   9.675  1.0037 -0.2216 -0.8982
33254SOL    HW2 3294   8.642   5.270   9.587 -0.5752  1.4420 -2.7263
33255SOL     OW 3295   3.246   6.458   6.586  0.3581 -0.4437 -0.2978
33255SOL    HW1 3296   3.256   6.433   6.678  0.3610  1.6983  0.3302
33255SOL    HW2 3297   3.320   6.415   6.542  0.9046 -0.7239  0.8523
33256SOL     OW 3298   6.199  10.984   6.900  0.1624 -0.1224 -0.4323
33256SOL    HW1 3299   6.239  10.914   6.848 -2.5469 -1.5274 -0.8241
33256SOL    HW2 3300   6.124  11.012   6.848 -0.4725  1.0906  1.0573
33257SOL     OW 3301   3.427   5.580   2.949 -0.3831  0.1642  0.0269
33257SOL    HW1 3302   3.384   5.499   2.975 -0.9898  0.9069  1.4741
33257SOL    HW2 3303   3.508   5.552   2.906 -0.6219 -1.2050  0.4214
33258SOL     OW 3304   0.080   2.483   0.065 -0.4025 -0.4459  0.0697
33258SOL    HW1 3305   0.064   2.494  -0.029 -1.2074 -0.6613  0.1775
33258SOL    HW2 3306  -0.007   2.476   0.104 -0.1441  1.1965  1.0342
33259SOL     OW 3307   5.203   8.840   7.160  0.0703 -0.3262 -0.0862
33259SOL    HW1 3308   5.219   8.753   7.124  3.5002 -0.5168  1.4502
33259SOL    HW2 3309   5.203   8.898   7.084  3.1916 -1.1403 -0.8613
33260SOL     OW 3310   4.805  10.692   1.981  0.1582  0.5435  0.2600
33260SOL    HW1 3311   4.786  10.768   1.926 -0.2309  0.5938  0.4607
33260SOL    HW2 3312   4.901  10.686   1.982  0.1776  0.7866 -0.0885
33261SOL     OW 3313   1.686   0.803   8.389 -0.1073 -0.0710  0.1680
33261SOL    HW1 3314   1.599   0.799   8.351  0.1548  1.4585 -0.6321
33261SOL    HW2 3315   1.745   0.787   8.315  0.3416  0.8955  0.3071
33262SOL     OW 3316   3.586   7.103   0.295  0.5186  0.3885 -0.0220
33262SOL    HW1 3317   3.605   7.010   0.278  0.3704  0.3999 -0.2496
33262SOL    HW2 3318   3.540   7.133   0.217  0.7860  0.7200 -0.0543
33263SOL     OW 3319  10.348   3.545   4.748 -0.3057  0.6060 -0.0200
33263SOL    HW1 3320  10.261   3.539   4.707 -0.1241  1.5992 -0.5661
33263SOL    HW2 3321  10.331   3.530   4.841 -0.7680 -1.4041 -0.3797
33264SOL     OW 3322   6.659   2.241   6.765 -0.0583  0.1794  0.6160
33264SOL    HW1 3323   6.751   2.226   6.787  0.7093  2.3830 -0.7952
33264SOL    HW2 3324   6.618   2.260   6.849  0.8792 -0.3733  1.2181
33265SOL     OW 3325   0.082  10.408   4.977  0.2594 -0.4551  0.2643
33265SOL    HW1 3326   0.070  10.431   4.885 -1.8632  2.3436  1.1076
33265SOL    HW2 3327   0.150  10.467   5.008 -0.4161 -0.0098  0.9267
33266SOL     OW 3328   1.655   7.889   1.989  0.1989  0.1570  0.0831
33266SOL    HW1 3329   1.705   7.960   1.949  0.6447 -0.0986  0.1781
33266SOL    HW2 3330   1.717   7.847   2.048  0.5557 -1.5324 -1.4133
33267SOL     OW 3331   6.696   1.980   8.414 -0.3123 -0.1293 -0.3637
33267SOL    HW1 3332   6.697   1.936   8.499  0.8887  0.4845 -0.0287
33267SOL    HW2 3333   6.608   2.015   8.405 -0.6093 -0.6698  0.3786
33268SOL     OW 3334   0.855   8.695   0.087  0.3594  0.6742 -0.0013
33268SOL    HW1 3335   0.917   8.623   0.078  1.4019  1.3426  1.5186
33268SOL    HW2 3336   0.770   8.653   0.090  0.9099 -0.4526  0.3488
33269SOL     OW 3337   3.947   8.271   1.204 -0.2173  0.2140 -0.2202
33269SOL    HW1 3338   3.934   8.278   1.299  1.8298  0.2193  0.1040
33269SOL    HW2 3339   4.020   8.330   1.185  0.3144 -0.8161 -1.5684
33270SOL     OW 3340   4.281   4.489   9.588 -0.4205 -0.0817 -0.0444
33270SOL    HW1 3341   4.351   4.522   9.531 -1.7455  0.9631 -1.1265
33270SOL    HW2 3342   4.200   4.519   9.547 -1.4707 -0.1160  1.8920
33271SOL     OW 3343   0.902   1.848   2.779  0.3756  0.2397  0.4808
33271SOL    HW1 3344   0.994   1.855   2.753  1.0111  1.0767  2.7679
33271SOL    HW2 3345   0.894   1.903   2.857 -1.7222 -0.9851  1.2185
33272SOL     OW 3346   5.092   8.770   6.519 -0.1449 -0.0061 -0.3470
33272SOL    HW1 3347   5.129   8.787   6.433 -1.6044  0.1080 -0.9707
33272SOL    HW2 3348   5.030   8.699   6.506 -1.4231  0.9370  0.3113
33273SOL     OW 3349   8.217   7.507   7.742  0.0158 -0.0180 -0.4631
33273SOL    HW1 3350   8.143   7.480   7.689 -0.5850 -1.1046  0.8759
33273SOL    HW2 3351   8.184   7.509   7.832  1.1384  1.2428 -0.0310
33274SOL     OW 3352  10.547   3.163   3.696 -0.3941  0.0616  0.0446
33274SOL    HW1 3353  10.507   3.150   3.610 -1.4212 -0.7556  0.6081
33274SOL    HW2 3354  10.618   3.225   3.681 -0.1158 -0.5759 -1.5112
33275SOL     OW 3355   5.060   5.405   9.034 -0.2921  0.2763 -0.3526
33275SOL    HW1 3356   4.964   5.402   9.030 -0.6553 -3.1885  3.6285
33275SOL    HW2 3357   5.079   5.472   9.100 -0.3343 -1.3196  1.3668
33276SOL     OW 3358   9.988   8.801   1.361  0.5014  0.2888 -0.2155
33276SOL    HW1 3359   9.900   8.781   1.393  0.6038  1.3523  0.7601
33276SOL    HW2 3360  10.043   8.804   1.439  1.5447 -0.8897 -0.8511
33277SOL     OW 3361   3.140   2.854  10.618 -0.2638 -0.3095 -0.5946
33277SOL    HW1 3362   3.234   2.857  10.602 -0.1367 -3.4601 -1.1773
33277SOL    HW2 3363   3.108   2.941  10.595  2.4785  0.8617 -0.3418
33278SOL     OW 3364   2.625   4.265   4.583  0.2850 -0.6538 -0.3342
33278SOL    HW1 3365   2.662   4.281   4.496  0.2763  0.8401 -0.0863
33278SOL    HW2 3366   2.543   4.219   4.565  1.0805 -1.8703 -1.0055
33279SOL     OW 3367   3.548   8.226  10.187 -0.1261  0.1243 -0.3147
33279SOL    HW1 3368   3.453   8.231  10.182 -0.0449  1.9848 -0.8291
33279SOL    HW2 3369   3.571   8.271  10.268  0.3149 -0.3257 -0.1860
33280SOL     OW 3370   5.485   2.878   2.377 -0.2082  0.2103 -0.1357
33280SOL    HW1 3371   5.473   2.973   2.380 -0.3240  0.1882  2.2850
33280SOL    HW2 3372   5.567   2.866   2.330  0.1112  1.5632  0.0329
33281SOL     OW 3373   8.686   9.030   2.785 -0.1240  0.2089 -0.1092
33281SOL    HW1 3374   8.758   9.054   2.726 -0.1605 -1.6914 -0.9766
33281SOL    HW2 3375   8.665   8.940   2.763 -0.9885 -0.1679  2.0012
33282SOL     OW 3376   2.763   5.318   2.263 -0.0401 -0.1909  0.6451
33282SOL    HW1 3377   2.693   5.382   2.254 -0.6264 -0.6429  1.8352
33282SOL    HW2 3378   2.755   5.285   2.353  1.4671 -0.5179  0.6951
33283SOL     OW 3379  10.515   8.568  10.330 -0.3094 -0.2046  0.1439
33283SOL    HW1 3380  10.510   8.585  10.424 -1.7196  0.3306 -0.0127
33283SOL    HW2 3381  10.537   8.475  10.324  2.1971  0.2482  0.9794
33284SOL     OW 3382   6.236   0.541   3.570  0.9199  0.2440  0.0280
33284SOL    HW1 3383   6.238   0.531   3.665  0.3572  0.4303  0.0636
33284SOL    HW2 3384   6.318   0.502   3.540  0.6799 -0.6799  0.5085
33285SOL     OW 3385   0.099   5.831   8.073 -0.1897  0.0759 -0.5564
33285SOL    HW1 3386   0.022   5.888   8.070  0.1730  0.5684 -0.7146
33285SOL    HW2 3387   0.064   5.743   8.063 -1.0094  0.0311  2.0503
33286SOL     OW 3388   5.075   8.885  10.254 -0.0745 -0.4598  0.8156
33286SOL    HW1 3389   5.147   8.948  10.262  0.5838 -1.1701  0.5030
33286SOL    HW2 3390   5.049   8.867  10.345  0.9355 -1.1014  0.9841
33287SOL     OW 3391   9.624   2.760   7.107  0.3987 -0.1484  0.1230
33287SOL    HW1 3392   9.695   2.751   7.171  1.6277 -1.0511 -1.2941
33287SOL    HW2 3393   9.670   2.775   7.024 -1.1535  1.5133 -0.5028
33288SOL     OW 3394   6.877   4.658   2.321  0.2065  0.5966 -0.2529
33288SOL    HW1 3395   6.965   4.681   2.350  0.8954  0.3593 -2.0418
33288SOL    HW2 3396   6.826   4.653   2.402  2.1598 -0.7540  0.9761
33289SOL     OW 3397   5.464   3.409   1.629  0.0653  0.2457  0.1910
33289SOL    HW1 3398   5.507   3.349   1.690  1.0544  2.0909  1.4027
33289SOL    HW2 3399   5.381   3.430   1.670  1.1048  2.1811  1.4502
33290SOL     OW 3400   5.219   3.422   5.190 -0.4324  0.1979  0.5095
33290SOL    HW1 3401   5.126   3.441   5.176 -0.3581  0.4310  0.3297
33290SOL    HW2 3402   5.232   3.335   5.153 -0.4511  0.4091 -0.0002
33291SOL     OW 3403   5.390   4.477  10.359 -0.4573  0.4453  0.2445
33291SOL    HW1 3404   5.440   4.556  10.380  0.4241 -0.8460  3.5831
33291SOL    HW2 3405   5.457   4.409  10.346 -1.2480 -0.3855  0.4167
33292SOL     OW 3406   3.917   0.096   4.535  0.3830 -0.1194 -0.5316
33292SOL    HW1 3407   3.844   0.158   4.543 -0.0645 -0.6465 -0.4271
33292SOL    HW2 3408   3.875   0.009   4.539  1.0031 -0.4288 -0.6054
33293SOL     OW 3409  10.207   8.119   1.353  0.0691  0.0975  0.4750
33293SOL    HW1 3410  10.197   8.158   1.440 -0.0146 -0.7530  0.8654
33293SOL    HW2 3411  10.170   8.031   1.362  0.9523 -0.3634 -0.1428
33294SOL     OW 3412   9.957   9.286   3.861  0.0845 -0.4123 -0.6595
33294SOL    HW1 3413  10.002   9.307   3.779  0.0268 -1.1579 -0.8932
33294SOL    HW2 3414   9.939   9.192   3.854 -0.1367 -0.4268  0.1044
33295SOL     OW 3415   6.154  10.275   7.017 -0.0482  0.3327 -0.0738
33295SOL    HW1 3416   6.173  10.256   7.109  1.9908 -0.6456 -0.6361
33295SOL    HW2 3417   6.114  10.194   6.984  0.5472  0.1628 -0.3823
33296SOL     OW 3418   8.880   9.965   5.994  0.3285 -0.3768  0.9753
33296SOL    HW1 3419   8.793   9.931   5.974  1.0218 -1.8161  0.2066
33296SOL    HW2 3420   8.865  10.031   6.062 -1.7404  2.1106 -1.6494
33297SOL     OW 3421   4.576   7.158   9.736  0.1953  0.1720 -0.6361
33297SOL    HW1 3422   4.604   7.153   9.828 -0.8741 -0.2082 -0.3147
33297SOL    HW2 3423   4.644   7.209   9.693  1.1862 -0.4331  0.1776
33298SOL     OW 3424   3.997   9.574   2.302 -0.1794  0.6476  0.8118
33298SOL    HW1 3425   3.979   9.514   2.375  1.2628 -0.9528 -0.0574
33298SOL    HW2 3426   4.090   9.562   2.284 -0.0418  2.5677  0.0305
33299SOL     OW 3427   1.326   3.176   7.273  0.1486 -0.3634 -0.2579
33299SOL    HW1 3428   1.301   3.267   7.288  1.7971 -0.0489  0.8335
33299SOL    HW2 3429   1.405   3.182   7.220  0.9288 -1.0964  0.7899
33300SOL     OW 3430   3.529   8.633   9.285  0.0929 -0.0539  0.2708
33300SOL    HW1 3431   3.449   8.588   9.312 -0.0442 -0.2571 -0.4521
33300SOL    HW2 3432   3.586   8.629   9.362 -0.9229  0.8967  1.0981
33301SOL     OW 3433   0.841   0.026   6.315  0.1233 -0.7320  0.1612
33301SOL    HW1 3434   0.916   0.033   6.256 -0.0814  1.3146  0.0881
33301SOL    HW2 3435   0.836  -0.068   6.336  1.7802 -1.1221 -0.9910
33302SOL     OW 3436   7.649   4.713   5.318 -0.6320 -0.5325  0.3083
33302SOL    HW1 3437   7.706   4.787   5.298 -3.4155  2.0856  1.3959
33302SOL    HW2 3438   7.694   4.665   5.387  0.8290  0.6960  0.2457
33303SOL     OW 3439   1.984  10.809   4.180 -0.3279  0.0119  0.2188
33303SOL    HW1 3440   1.960  10.810   4.272  1.7474  1.5000  0.8115
33303SOL    HW2 3441   2.067  10.760   4.177 -0.1822  0.2831 -0.7966
33304SOL     OW 3442  10.355  11.084  10.313 -0.1338 -0.3271  0.3185
33304SOL    HW1 3443  10.342  11.048  10.225  1.1497  0.8353 -0.3938
33304SOL    HW2 3444  10.433  11.040  10.346  0.2412  0.2938  0.2731
33305SOL     OW 3445   3.692   5.348   8.421 -0.2743  0.7233 -0.2528
33305SOL    HW1 3446   3.721   5.437   8.439 -0.6163  1.2508 -2.0800
33305SOL    HW2 3447   3.771   5.303   8.391  0.0254  0.2016  1.2111
33306SOL     OW 3448   6.611   9.557   4.702  0.0376  0.0317 -0.0276
33306SOL    HW1 3449   6.556   9.495   4.750 -0.1291  1.3553  1.6014
33306SOL    HW2 3450   6.605   9.530   4.611 -1.2756 -1.3856  0.4451
33307SOL     OW 3451   5.851  10.122   5.462  0.3045  0.0139 -0.1425
33307SOL    HW1 3452   5.926  10.177   5.442  2.3168 -1.9446  1.4323
33307SOL    HW2 3453   5.841  10.129   5.557 -0.1351 -1.3253 -0.0618
33308SOL     OW 3454   7.839   0.676   2.825  0.0401 -0.4419  0.1886
33308SOL    HW1 3455   7.863   0.754   2.776 -0.0748 -0.1499  0.5977
33308SOL    HW2 3456   7.771   0.705   2.887  1.0758 -0.5082  1.4058
33309SOL     OW 3457   9.144  10.491  10.920  0.1919 -0.1395 -0.2805
33309SOL    HW1 3458   9.228  10.531  10.899 -0.6085  0.6568 -2.2463
33309SOL    HW2 3459   9.085  10.521  10.850 -2.2100  0.8816  1.9737
33310SOL     OW 3460  10.925   1.163   1.822  0.0774 -0.0360  0.0044
33310SOL    HW1 3461  11.012   1.127   1.805 -0.4521 -1.5478  0.3961
33310SOL    HW2 3462  10.867   1.116   1.761 -0.3795  1.5047 -0.8134
33311SOL     OW 3463   4.487   1.293   6.761 -0.5870 -0.3374 -0.3090
33311SOL    HW1 3464   4.506   1.304   6.668 -0.1550  0.1817 -0.1625
33311SOL    HW2 3465   4.550   1.349   6.806 -0.8958 -0.4588  0.2931
33312SOL     OW 3466  10.953   4.886   1.992  0.7359  0.2292 -0.2536
33312SOL    HW1 3467  10.897   4.836   2.052 -0.4628  1.6068 -0.1648
33312SOL    HW2 3468  10.911   4.972   1.986  0.1849 -0.1299 -3.8846
33313SOL     OW 3469   6.635   2.631   6.249  0.1011  0.1114  0.1497
33313SOL    HW1 3470   6.627   2.626   6.345 -0.7441  1.2793  0.1659
33313SOL    HW2 3471   6.594   2.714   6.226  0.8384  0.1380 -1.1846
33314SOL     OW 3472   0.221   7.741   9.950  0.1803 -0.4157 -0.0215
33314SOL    HW1 3473   0.257   7.724  10.037  1.0080 -1.2789 -0.5071
33314SOL    HW2 3474   0.147   7.680   9.942  0.0489 -0.2726  0.1167
33315SOL     OW 3475   9.662   5.970   5.427 -0.0801 -0.0521 -0.3716
33315SOL    HW1 3476   9.724   5.932   5.365 -0.6156 -1.3819 -0.1328
33315SOL    HW2 3477   9.582   5.919   5.416 -0.3138 -0.0703  1.1340
33316SOL     OW 3478   0.436   6.040   5.654  0.1669 -0.0087 -0.4217
33316SOL    HW1 3479   0.435   5.962   5.598  3.2472 -1.6938  1.5777
33316SOL    HW2 3480   0.509   6.093   5.621  0.3657  0.2497  0.3947
33317SOL     OW 3481   0.873   2.533   4.539  0.0657  0.0914 -0.0949
33317SOL    HW1 3482   0.945   2.576   4.495  1.3997 -1.2398  0.6896
33317SOL    HW2 3483   0.856   2.587   4.616  0.0194  0.5717 -0.4412
33318SOL     OW 3484   2.474   7.198   6.969 -0.2392  0.0940  0.2461
33318SOL    HW1 3485   2.412   7.137   6.929 -0.0792  0.1578 -0.1045
33318SOL    HW2 3486   2.517   7.241   6.895  1.0711 -0.7926  0.4668
33319SOL     OW 3487   7.634  11.078   5.668 -0.4115 -0.2543 -0.4833
33319SOL    HW1 3488   7.619  11.166   5.702 -0.3588  0.3267 -1.9140
33319SOL    HW2 3489   7.596  11.020   5.734  0.4224  0.7792  0.9467
33320SOL     OW 3490   7.471   5.305   0.116 -0.0272  0.0665  0.1243
33320SOL    HW1 3491   7.513   5.293   0.031  0.6731  0.0888  0.4662
33320SOL    HW2 3492   7.543   5.318   0.178 -0.5530  0.9214  0.5878
33321SOL     OW 3493   2.610   6.422   9.246 -0.1011 -0.0571 -0.2484
33321SOL    HW1 3494   2.514   6.430   9.253 -0.3156  0.3172 -2.8303
33321SOL    HW2 3495   2.638   6.505   9.209  1.3588  0.0599  1.0091
33322SOL     OW 3496  10.214   8.002   3.860  0.0249 -0.2164 -0.1447
33322SOL    HW1 3497  10.298   8.037   3.831 -0.2208 -0.3289 -1.0260
33322SOL    HW2 3498  10.164   7.989   3.779  0.4298 -3.5186 -0.0005
33323SOL     OW 3499  10.085   8.785   0.692 -0.0538  0.1589  0.3663
33323SOL    HW1 3500  10.180   8.780   0.693  0.1675  0.9231 -3.0616
33323SOL    HW2 3501  10.065   8.872   0.725  0.6552  0.8111 -0.8417
33324SOL     OW 3502   1.210   6.091   4.348 -0.1538  0.2222 -0.0841
33324SOL    HW1 3503   1.207   6.168   4.291 -0.6008 -0.0473 -0.4342
33324SOL    HW2 3504   1.275   6.113   4.414 -1.3112  1.5184  0.6854
33325SOL     OW 3505   6.698   0.853  10.093  0.4652  0.1691 -1.0939
33325SOL    HW1 3506   6.663   0.904  10.166  0.1642  0.7640 -1.6483
33325SOL    HW2 3507   6.661   0.765  10.106  1.7475 -0.2103  0.4029
33326SOL     OW 3508   6.982   8.267   5.490  0.1640  0.4149 -0.0832
33326SOL    HW1 3509   7.023   8.220   5.562  0.4859 -0.7874 -1.0052
33326SOL    HW2 3510   7.054   8.297   5.436  0.0124  2.9475  1.0139
33327SOL     OW 3511   5.545   3.098   0.985 -0.1766  0.0045  0.2761
33327SOL    HW1 3512   5.561   3.028   0.922 -0.5758  0.7967 -0.7231
33327SOL    HW2 3513   5.555   3.179   0.935 -1.5971  0.6326  0.9537
33328SOL     OW 3514   7.171   7.368   6.475  0.3176 -0.2288  0.3076
33328SOL    HW1 3515   7.254   7.353   6.521  0.5145 -0.4201 -0.1067
33328SOL    HW2 3516   7.129   7.438   6.525  0.5801 -0.3572  0.7125
33329SOL     OW 3517   0.123   6.392   0.589 -0.1301  0.1474  0.1789
33329SOL    HW1 3518   0.201   6.387   0.644 -0.4406  2.1736  0.8814
33329SOL    HW2 3519   0.137   6.325   0.521  1.5745 -0.4422  1.0558
33330SOL     OW 3520   5.739   4.515  10.753  0.0311 -0.4336  0.0241
33330SOL    HW1 3521   5.721   4.533  10.661  1.6555  2.1569  0.0850
33330SOL    HW2 3522   5.834   4.509  10.758 -0.1366 -3.4924  1.1511
33331SOL     OW 3523  10.617   3.043   2.719  0.2313 -0.2980  0.5589
33331SOL    HW1 3524  10.697   3.088   2.747 -0.6517  1.5311  0.2511
33331SOL    HW2 3525  10.561   3.044   2.797  0.0266 -0.4593  0.4145
33332SOL     OW 3526   4.305   5.829   4.828  0.3767 -0.3942 -0.9620
33332SOL    HW1 3527   4.268   5.763   4.769  2.0785 -1.5802 -0.8034
33332SOL    HW2 3528   4.382   5.786   4.865  0.7496  1.2207  0.2316
33333SOL     OW 3529   2.586   1.355   6.398  0.1983  0.9768  0.6260
33333SOL    HW1 3530   2.494   1.379   6.411 -0.3695 -1.3858  1.3082
33333SOL    HW2 3531   2.589   1.317   6.311  0.2721 -0.0086  1.0491
33334SOL     OW 3532  11.064   0.997   1.100  0.2701  0.0910 -0.0196
33334SOL    HW1 3533  11.033   1.029   1.184  0.7610 -1.2132  0.6860
33334SOL    HW2 3534  11.030   0.908   1.095 -2.5519  1.1209 -2.6840
33335SOL     OW 3535   1.887   8.522   9.910  0.2365 -0.1801  0.1727
33335SOL    HW1 3536   1.845   8.480   9.835  0.9509 -0.1120 -0.2770
33335SOL    HW2 3537   1.940   8.592   9.871 -2.2299  2.3448  0.9713
33336SOL     OW 3538   3.791   3.118   3.364  0.2666 -0.0478 -0.5673
33336SOL    HW1 3539   3.850   3.154   3.298  0.0083  0.8716 -0.3129
33336SOL    HW2 3540   3.848   3.072   3.425  0.8060  1.3721  0.0272
33337SOL     OW 3541   8.265   6.520   1.045  0.3749  0.3940 -0.4150
33337SOL    HW1 3542   8.266   6.603   1.094 -0.7872 -0.4115  1.0584
33337SOL    HW2 3543   8.190   6.528   0.986  0.3500  0.4641 -0.3744
33338SOL     OW 3544   3.410   1.970   8.793 -0.8260 -0.5314 -0.0060
33338SOL    HW1 3545   3.478   2.019   8.838 -0.3637  0.2229 -1.4468
33338SOL    HW2 3546   3.421   1.880   8.823 -0.7164 -0.0366  1.5447
33339SOL     OW 3547   2.806   1.357   4.763  0.3007  0.6859 -0.3511
33339SOL    HW1 3548   2.794   1.361   4.668  2.0397  0.0030 -0.6463
33339SOL    HW2 3549   2.869   1.427   4.781 -0.1223  0.8972  0.3370
33340SOL     OW 3550   2.204  10.916   7.791 -0.0759 -1.0929 -0.3902
33340SOL    HW1 3551   2.209  10.838   7.735  1.5017 -1.9942  0.9119
33340SOL    HW2 3552   2.112  10.923   7.815 -0.1898 -2.8298 -0.1999
33341SOL     OW 3553   8.745   2.692   5.502 -0.1122  0.3120 -0.3532
33341SOL    HW1 3554   8.788   2.778   5.498  0.3176  0.1220  0.0492
33341SOL    HW2 3555   8.745   2.660   5.412 -0.3992  0.7960 -0.5269
33342SOL     OW 3556  10.472   6.800   4.086  0.4467  0.2266  0.6045
33342SOL    HW1 3557  10.512   6.838   4.164 -0.4525 -2.0984  2.3200
33342SOL    HW2 3558  10.482   6.706   4.098  0.5970 -0.2055 -2.3224
33343SOL     OW 3559   9.875   0.666   2.348  0.3245  0.2464 -0.1172
33343SOL    HW1 3560   9.853   0.754   2.317  0.7454 -0.0996 -1.4607
33343SOL    HW2 3561   9.875   0.612   2.269 -0.2567 -1.0445  0.7298
33344SOL     OW 3562   9.164  10.185   3.969 -0.5056  0.1021  0.6307
33344SOL    HW1 3563   9.246  10.137   3.971 -0.4083  0.2822  1.5631
33344SOL    HW2 3564   9.096  10.117   3.965 -0.3197 -0.0561  0.2072
33345SOL     OW 3565   1.936   7.261   8.592  0.6254 -0.1898 -0.3221
33345SOL    HW1 3566   2.020   7.252   8.546  1.6890 -0.2289  1.5228
33345SOL    HW2 3567   1.956   7.318   8.666 -0.9063 -0.4720  0.3348
33346SOL     OW 3568   7.270   5.784   7.168 -0.2181 -0.1196 -0.1430
33346SOL    HW1 3569   7.294   5.733   7.245  0.1136  0.6691  0.2758
33346SOL    HW2 3570   7.201   5.732   7.126  0.4740 -1.1711 -0.0042
33347SOL     OW 3571   0.523   5.641   2.318 -0.2425  0.1255  0.1829
33347SOL    HW1 3572   0.490   5.590   2.245  1.3991  1.0020 -1.2616
33347SOL    HW2 3573   0.565   5.578   2.376 -0.4253 -0.4348 -0.2952
33348SOL     OW 3574   4.865   9.075   6.442 -0.4717  0.1424 -0.3577
33348SOL    HW1 3575   4.771   9.092   6.441 -0.7924 -1.5614 -0.7171
33348SOL    HW2 3576   4.880   9.024   6.521 -0.1071 -0.9113 -1.0888
33349SOL     OW 3577   6.871   6.783   6.840  0.5764 -0.1996 -0.1303
33349SOL    HW1 3578   6.950   6.819   6.800  0.4528  0.7933  0.4874
33349SOL    HW2 3579   6.824   6.860   6.874 -0.0059 -0.8881  0.6617
33350SOL     OW 3580  10.138   0.750   4.536  0.5442  0.6515 -0.3941
33350SOL    HW1 3581  10.215   0.721   4.586  1.8764 -0.1219 -2.7591
33350SOL    HW2 3582  10.169   0.759   4.446 -2.1924  0.1144 -1.5028
33351SOL     OW 3583   7.931   6.278   1.969 -0.0555  0.3011  0.0024
33351SOL    HW1 3584   7.956   6.344   2.032 -0.4782  0.8616 -0.4019
33351SOL    HW2 3585   8.006   6.220   1.963  0.0636  0.3572  0.8613
33352SOL     OW 3586  11.088   0.289   0.057 -0.1981  0.0166 -0.1899
33352SOL    HW1 3587  11.114   0.378   0.077 -0.1579 -0.6711  3.6734
33352SOL    HW2 3588  11.144   0.234   0.113 -0.6736 -2.4128 -1.9059
33353SOL     OW 3589  10.886   8.436   7.841 -0.1655 -0.2084  0.1805
33353SOL    HW1 3590  10.803   8.464   7.878 -1.3962 -0.8588 -1.9209
33353SOL    HW2 3591  10.927   8.518   7.811  0.0141  0.1192  1.2794
33354SOL     OW 3592   9.834   3.754  10.236 -0.2946  0.4452  0.0337
33354SOL    HW1 3593   9.916   3.718  10.204 -0.7706 -0.5773 -0.0642
33354SOL    HW2 3594   9.824   3.837  10.189  0.0072 -0.0833 -0.9799
33355SOL     OW 3595   3.129   7.098   7.649 -0.3323  0.4690 -0.2133
33355SOL    HW1 3596   3.114   7.189   7.675  1.8821  0.3922  1.7537
33355SOL    HW2 3597   3.174   7.105   7.565 -1.9859  1.0446 -1.0969
33356SOL     OW 3598   1.639   0.056  11.028 -0.1522  0.2415  0.1104
33356SOL    HW1 3599   1.545   0.074  11.040 -0.3117 -1.6015  2.2987
33356SOL    HW2 3600   1.682   0.113  11.091  0.1761  0.6388 -0.4647
33357SOL     OW 3601   9.225   8.989   5.992 -0.8773  0.1603  0.0219
33357SOL    HW1 3602   9.269   8.968   5.910  2.0300 -0.1281  1.5306
33357SOL    HW2 3603   9.198   9.080   5.982 -0.2527  0.2388 -1.0998
33358SOL     OW 3604   0.229   2.170   9.249 -0.0897 -0.3442  0.1491
33358SOL    HW1 3605   0.170   2.182   9.174 -0.3287  1.5032  0.5842
33358SOL    HW2 3606   0.285   2.097   9.224 -0.7452 -0.3414 -1.4619
33359SOL     OW 3607   1.509   4.269   4.941  0.4196  0.3435  0.6570
33359SOL    HW1 3608   1.590   4.255   4.991  1.3448  0.6674 -0.7077
33359SOL    HW2 3609   1.517   4.358   4.907 -0.7136  0.5273  0.8517
33360SOL     OW 3610   1.946   3.416   4.203  0.0117  0.3442 -0.1298
33360SOL    HW1 3611   1.945   3.323   4.226 -0.7519  0.3970  0.0645
33360SOL    HW2 3612   2.009   3.455   4.264  1.1820 -0.2091 -0.9284
33361SOL     OW 3613   9.164   0.662   0.895  0.2669  0.2467 -0.8347
33361SOL    HW1 3614   9.256   0.672   0.921 -0.2532  1.0892  0.8124
33361SOL    HW2 3615   9.130   0.593   0.952 -0.1133 -0.1504 -1.5189
33362SOL     OW 3616   3.737   0.860   8.603  0.1366 -0.3188 -0.4098
33362SOL    HW1 3617   3.713   0.952   8.615 -2.4960 -0.9522 -0.3014
33362SOL    HW2 3618   3.672   0.826   8.542  0.4317 -2.3641  0.3426
33363SOL     OW 3619   7.063   2.424   9.598  0.9788  0.0766  0.1836
33363SOL    HW1 3620   7.042   2.332   9.613 -0.1109  0.3368  0.3582
33363SOL    HW2 3621   7.111   2.450   9.677 -0.9474  0.2967  1.3592
33364SOL     OW 3622   3.754   6.874   6.065 -0.0342 -0.3324  0.1684
33364SOL    HW1 3623   3.749   6.799   6.006  1.0431 -0.6328  0.4433
33364SOL    HW2 3624   3.702   6.848   6.141  1.0759 -1.1875  0.6596
33365SOL     OW 3625   8.492   2.864   5.451  0.0733  0.0496 -0.0832
33365SOL    HW1 3626   8.493   2.769   5.461 -1.2516 -0.2398 -2.1623
33365SOL    HW2 3627   8.583   2.890   5.465  0.2439 -1.3425  1.7477
33366SOL     OW 3628   5.320   2.622   4.508 -0.3329 -0.2128  0.4255
33366SOL    HW1 3629   5.342   2.572   4.586 -0.5298  0.7946  1.1467
33366SOL    HW2 3630   5.353   2.569   4.435  0.7306 -0.7133  1.2384
33367SOL     OW 3631   4.715   6.588   6.218 -0.0090 -0.2390  0.0188
33367SOL    HW1 3632   4.669   6.567   6.137 -0.6857  0.2817  0.2612
33367SOL    HW2 3633   4.715   6.506   6.267 -2.7139  0.2491  0.9961
33368SOL     OW 3634   3.308   0.780   1.567  0.3725 -0.0327  0.4512
33368SOL    HW1 3635   3.355   0.827   1.498 -1.3962  2.0285  0.5386
33368SOL    HW2 3636   3.265   0.849   1.618 -1.2507 -1.6800  1.4460
33369SOL     OW 3637  10.845   1.580   5.854  0.2235 -0.6771 -0.2795
33369SOL    HW1 3638  10.800   1.627   5.924  1.3707 -0.2088  0.1715
33369SOL    HW2 3639  10.938   1.593   5.873  0.6264 -3.4333  0.0967
33370SOL     OW 3640   7.734   4.551   8.689 -0.1597 -0.2385 -0.2965
33370SOL    HW1 3641   7.666   4.555   8.622  0.1577  0.9639 -0.5650
33370SOL    HW2 3642   7.692   4.505   8.762 -0.9313 -0.4001 -0.8266
33371SOL     OW 3643  10.987   7.775   0.472  0.1702  0.7639 -0.4249
33371SOL    HW1 3644  11.079   7.754   0.459  0.1367  0.7916 -0.7069
33371SOL    HW2 3645  10.971   7.754   0.564  0.2376 -0.0730 -0.5959
33372SOL     OW 3646   1.795   0.709   2.788 -0.9128  0.3503 -0.2653
33372SOL    HW1 3647   1.737   0.683   2.860 -0.8635  3.9600  1.3166
33372SOL    HW2 3648   1.882   0.714   2.828 -0.9319  2.7155 -0.3386
33373SOL     OW 3649   5.174   6.492   8.473 -0.4052  0.0112 -0.1312
33373SOL    HW1 3650   5.243   6.559   8.478  0.0712 -0.5783  2.2335
33373SOL    HW2 3651   5.101   6.536   8.428  0.9343  1.1325 -1.3040
33374SOL     OW 3652   9.617   5.476   8.363  0.2113  0.0904  0.3798
33374SOL    HW1 3653   9.637   5.532   8.437  0.8816 -0.5865  0.7279
33374SOL    HW2 3654   9.538   5.430   8.388 -0.4186  0.9639  0.0374
33375SOL     OW 3655   5.965   9.614   7.562  0.1897 -0.1923 -0.5421
33375SOL    HW1 3656   5.935   9.529   7.593  0.8723 -0.6367 -1.0794
33375SOL    HW2 3657   5.965   9.669   7.640 -1.4451 -0.3321 -0.4213
33376SOL     OW 3658   4.663   5.146   4.684 -0.7089  0.2606  0.1851
33376SOL    HW1 3659   4.656   5.052   4.698  0.1946 -0.0196 -1.0328
33376SOL    HW2 3660   4.754   5.160   4.657 -0.2332  1.7751  2.2650
33377SOL     OW 3661   8.581   5.347   7.469  0.1725  0.2686 -0.1083
33377SOL    HW1 3662   8.522   5.319   7.539 -0.3765 -1.5062 -1.2243
33377SOL    HW2 3663   8.630   5.269   7.445  0.3350  0.8157 -1.7124
33378SOL     OW 3664   9.693   7.521   4.995 -0.2128  0.2553  0.5309
33378SOL    HW1 3665   9.623   7.539   5.057  0.3413  3.1310  0.4650
33378SOL    HW2 3666   9.773   7.530   5.047  0.2118 -2.3032  0.4472
33379SOL     OW 3667   8.127  10.008   3.669  0.4221 -0.4610  0.3770
33379SOL    HW1 3668   8.202  10.064   3.650  0.9343 -1.2624 -0.0044
33379SOL    HW2 3669   8.166   9.926   3.701 -0.2839 -0.9064  0.1122
33380SOL     OW 3670   4.314   0.004   9.456  0.7508  0.1002  0.0432
33380SOL    HW1 3671   4.306  -0.088   9.480  0.0140 -0.2737 -1.4929
33380SOL    HW2 3672   4.390   0.008   9.398 -0.1848  0.1389 -1.2184
33381SOL     OW 3673   2.122   4.487   1.788 -0.1582 -0.0088  0.8467
33381SOL    HW1 3674   2.045   4.525   1.746 -0.3404  1.6548  2.5839
33381SOL    HW2 3675   2.097   4.474   1.879  1.4615  0.1402  1.3508
33382SOL     OW 3676   4.025   9.176   3.684 -0.3968  0.5694 -0.1906
33382SOL    HW1 3677   4.110   9.155   3.647 -0.5905 -0.2307 -0.2148
33382SOL    HW2 3678   4.022   9.271   3.688  1.0649  0.5924  1.1577
33383SOL     OW 3679   6.091   0.369   8.054 -0.1581 -0.0318 -0.7109
33383SOL    HW1 3680   6.130   0.361   8.141 -0.1685  1.6287 -0.5156
33383SOL    HW2 3681   6.128   0.296   8.004  0.8415 -0.2541  0.3166
33384SOL     OW 3682   3.497   1.292   5.970 -0.4942  0.3026  0.0741
33384SOL    HW1 3683   3.414   1.316   5.928 -1.0901 -1.8219 -0.1086
33384SOL    HW2 3684   3.476   1.290   6.064 -1.0628 -1.4257 -0.0444
33385SOL     OW 3685   1.864   5.668  10.713  0.2199  0.4077 -0.3245
33385SOL    HW1 3686   1.777   5.708  10.709 -0.2151 -0.3518  0.9869
33385SOL    HW2 3687   1.916   5.731  10.764 -0.1518 -0.0997  0.7209
33386SOL     OW 3688   1.465   0.099   5.022  0.2642  0.1081 -0.2858
33386SOL    HW1 3689   1.439   0.190   5.010  1.3802  1.1045  3.3470
33386SOL    HW2 3690   1.408   0.049   4.964 -1.0445  3.0190 -1.7037
33387SOL     OW 3691   1.821   8.042   0.408 -0.8362 -0.0056 -0.8968
33387SOL    HW1 3692   1.891   8.108   0.417  0.1483 -1.1342  0.0772
33387SOL    HW2 3693   1.824   8.017   0.316 -1.9982  2.0941 -1.5632
33388SOL     OW 3694   6.177   4.353   7.910  0.5223 -0.0711 -0.8534
33388SOL    HW1 3695   6.219   4.321   7.990 -1.6966 -0.4622  0.2493
33388SOL    HW2 3696   6.248   4.393   7.859  2.0774 -0.1921  1.1074
33389SOL     OW 3697   2.845  10.146   0.856 -0.2321  0.1961 -0.7490
33389SOL    HW1 3698   2.926  10.131   0.809 -0.4996 -1.1027 -0.8101
33389SOL    HW2 3699   2.854  10.096   0.937 -0.5472  0.9046 -0.2601
33390SOL     OW 3700   9.560   1.021   7.562  0.4882 -0.2999 -0.0714
33390SOL    HW1 3701   9.567   1.034   7.657 -0.7967  0.3287 -0.0476
33390SOL    HW2 3702   9.640   0.973   7.539  0.9612 -0.2072  1.2773
33391SOL     OW 3703   5.551  11.009   2.103  0.0376 -0.7321 -0.8196
33391SOL    HW1 3704   5.560  10.961   2.185  0.5036  1.7217  0.6524
33391SOL    HW2 3705   5.624  10.978   2.049  0.4929 -1.4602  0.1865
33392SOL     OW 3706   6.969   1.591  10.955 -0.0591  0.9550 -0.3095
33392SOL    HW1 3707   7.045   1.539  10.928 -1.4118 -0.0917 -2.4079
33392SOL    HW2 3708   6.937   1.630  10.874 -0.6250  3.0428  0.8377
33393SOL     OW 3709   1.162   6.811   6.246  0.0405  0.0295 -0.5166
33393SOL    HW1 3710   1.124   6.863   6.317  1.4991  1.2988 -0.6067
33393SOL    HW2 3711   1.108   6.733   6.241 -1.0787  0.6798  0.9018
33394SOL     OW 3712   6.654   4.037   2.075 -0.3768  0.2619 -0.6205
33394SOL    HW1 3713   6.685   4.029   2.165 -1.5896 -0.5931 -0.2406
33394SOL    HW2 3714   6.642   4.131   2.062 -0.4253  0.3820  0.1977
33395SOL     OW 3715   5.466   5.589   6.748 -0.3248  0.3529  0.4302
33395SOL    HW1 3716   5.492   5.518   6.689  0.1724  0.3367  0.6659
33395SOL    HW2 3717   5.452   5.664   6.690  1.4387  0.7010  0.3967
33396SOL     OW 3718   9.755   5.677   5.725 -0.1703 -0.3679 -0.2981
33396SOL    HW1 3719   9.788   5.670   5.635  0.4152 -0.8982 -0.0552
33396SOL    HW2 3720   9.792   5.759   5.757  0.2605 -0.5551 -0.2983
33397SOL     OW 3721   8.618   4.094   5.462  0.1921 -0.4523  0.6748
33397SOL    HW1 3722   8.532   4.126   5.490  0.3881 -1.2082  2.2838
33397SOL    HW2 3723   8.642   4.150   5.389 -0.7958  1.0898  1.4757
33398SOL     OW 3724  10.872   6.878  10.286 -0.0021 -0.0173 -0.0024
33398SOL    HW1 3725  10.915   6.964  10.289 -0.2777  0.1704 -0.9585
33398SOL    HW2 3726  10.794   6.893  10.232  1.4892 -1.4931 -2.8170
33399SOL     OW 3727   3.525   9.152   5.694 -0.8512 -0.0990 -0.0671
33399SOL    HW1 3728   3.615   9.139   5.665 -0.7685  1.0784 -0.3895
33399SOL    HW2 3729   3.494   9.064   5.715 -0.6189 -0.9565 -2.8593
33400SOL     OW 3730   5.583   4.381   5.584 -0.2561 -0.2781  0.1007
33400SOL    HW1 3731   5.678   4.381   5.600  0.1749 -1.5787 -2.0502
33400SOL    HW2 3732   5.546   4.344   5.664  1.0124  0.4244  1.0556
33401SOL     OW 3733   9.722  10.597   2.686 -0.0378 -0.1167 -0.1106
33401SOL    HW1 3734   9.667  10.673   2.667  0.1023  0.4592  1.6291
33401SOL    HW2 3735   9.809  10.633   2.699 -0.0146 -0.5108  0.9558
33402SOL     OW 3736   2.134   7.076   1.754  0.4556  0.6740 -0.0002
33402SOL    HW1 3737   2.086   7.031   1.684  1.6768  1.2605 -1.2659
33402SOL    HW2 3738   2.211   7.021   1.769  0.5817  0.9470  0.3693
33403SOL     OW 3739   2.141   6.292   5.287  0.1614  0.6346  0.2367
33403SOL    HW1 3740   2.236   6.300   5.288  0.1262  1.1388 -0.0187
33403SOL    HW2 3741   2.110   6.381   5.271 -0.3327  0.3516 -0.4144
33404SOL     OW 3742  10.924   3.039   9.989  0.2620 -0.0590 -0.2773
33404SOL    HW1 3743  10.935   2.964  10.048 -0.0194  1.6934  2.1570
33404SOL    HW2 3744  10.837   3.073  10.010  0.7315  1.4724 -0.7034
33405SOL     OW 3745   3.511   4.303   7.161 -0.5666 -0.0681  0.5578
33405SOL    HW1 3746   3.571   4.278   7.232 -0.5562 -0.7493  0.3202
33405SOL    HW2 3747   3.497   4.222   7.112 -2.5290 -0.1716  1.2129
33406SOL     OW 3748   0.915   2.900   2.671  1.0381 -1.0469  0.4043
33406SOL    HW1 3749   0.943   2.985   2.703  0.1130 -1.2413  1.8381
33406SOL    HW2 3750   0.892   2.914   2.579  2.3328 -0.1103  0.2035
33407SOL     OW 3751   3.601   9.409   4.633  0.6871  0.5091  0.1361
33407SOL    HW1 3752   3.527   9.354   4.607  1.9599 -0.1431 -2.3333
33407SOL    HW2 3753   3.676   9.350   4.636  1.4537  1.4820  0.8474
33408SOL     OW 3754   8.132   8.049   8.439  0.1099  0.2024 -0.1238
33408SOL    HW1 3755   8.141   8.119   8.504  0.4466  1.1425 -1.1606
33408SOL    HW2 3756   8.211   8.054   8.386 -1.3225  1.2837 -2.3438
33409SOL     OW 3757   1.947  10.000  10.549  0.4137 -0.2558  0.9287
33409SOL    HW1 3758   1.997  10.068  10.594  0.2360  0.6349 -0.1686
33409SOL    HW2 3759   1.995   9.919  10.566  2.9322  0.6867 -0.9808
33410SOL     OW 3760   0.801   6.090   4.537  0.3320  0.1710 -0.3476
33410SOL    HW1 3761   0.747   6.145   4.594 -0.3865 -0.6550 -0.2283
33410SOL    HW2 3762   0.739   6.035   4.490  1.0532 -0.6069 -0.4114
33411SOL     OW 3763   1.649   3.380   3.872 -0.2208 -0.0232 -0.5133
33411SOL    HW1 3764   1.699   3.461   3.884  0.1294 -0.4295  0.8819
33411SOL    HW2 3765   1.713   3.310   3.886 -1.0495 -0.5500  0.7597
33412SOL     OW 3766   2.798   0.338   4.149  0.3975  0.4357  0.5878
33412SOL    HW1 3767   2.857   0.278   4.195  2.3972  2.2984  0.6357
33412SOL    HW2 3768   2.836   0.424   4.164 -0.4848  1.4135 -2.2016
33413SOL     OW 3769   5.584   4.182   3.978  0.0514  0.2919 -0.3780
33413SOL    HW1 3770   5.574   4.194   3.884  1.7831  1.6220 -0.4446
33413SOL    HW2 3771   5.529   4.249   4.017 -0.2475  0.0831 -0.4303
33414SOL     OW 3772   8.106   2.142   3.266  0.2048  0.0772 -0.4059
33414SOL    HW1 3773   8.063   2.210   3.215 -2.0839  0.3045  1.6551
33414SOL    HW2 3774   8.040   2.073   3.274  2.1558 -2.0640 -1.6670
33415SOL     OW 3775   0.311   8.832   6.360  0.2843 -0.0288 -0.0396
33415SOL    HW1 3776   0.357   8.756   6.325 -0.5434 -0.8554  0.5924
33415SOL    HW2 3777   0.313   8.820   6.455  0.1248  0.7285  0.0701
33416SOL     OW 3778   5.887   3.899   2.844  0.2988 -0.2739 -0.0200
33416SOL    HW1 3779   5.825   3.943   2.901  0.7716 -1.4550  1.4740
33416SOL    HW2 3780   5.931   3.835   2.900  1.8981 -0.4252 -1.3431
33417SOL     OW 3781   6.936   5.557   4.871 -0.6168  0.0348  0.7175
33417SOL    HW1 3782   7.022   5.599   4.868  0.9878 -2.8311  2.3060
33417SOL    HW2 3783   6.923   5.521   4.784 -0.0441  0.1498  0.5856
33418SOL     OW 3784  10.667  10.460   2.661  0.4460 -0.1859 -0.2157
33418SOL    HW1 3785  10.624  10.375   2.651 -1.0320  0.4030  0.7760
33418SOL    HW2 3786  10.760  10.443   2.642 -0.2359 -1.4300 -2.7777
33419SOL     OW 3787   6.577   0.155   1.915  0.5784  0.5191 -0.0044
33419SOL    HW1 3788   6.629   0.157   1.834 -0.6598 -2.6134 -1.0156
33419SOL    HW2 3789   6.487   0.174   1.885  0.4650  1.9190  1.1107
33420SOL     OW 3790   9.000   5.327   0.796 -0.2038 -0.3485 -0.4172
33420SOL    HW1 3791   9.052   5.330   0.715  1.2769  0.9383  0.5067
33420SOL    HW2 3792   8.974   5.236   0.804  1.4827 -0.9507 -1.2399
33421SOL     OW 3793   7.748   5.374   9.608 -0.3220  0.2253  0.0675
33421SOL    HW1 3794   7.662   5.413   9.594 -1.0623 -1.3244  0.0315
33421SOL    HW2 3795   7.795   5.435   9.665 -1.4161  1.1251  0.0152
33422SOL     OW 3796   7.944   2.148   7.398  1.0509 -0.5734 -0.3227
33422SOL    HW1 3797   7.888   2.221   7.375  2.9471  1.1122  0.1070
33422SOL    HW2 3798   7.904   2.111   7.477 -0.2554 -0.4023 -0.8787
33423SOL     OW 3799   3.744   2.480   1.136 -0.7313 -0.7410 -0.1749
33423SOL    HW1 3800   3.741   2.386   1.121  0.1333 -1.0797  1.6058
33423SOL    HW2 3801   3.752   2.490   1.231 -1.9808  1.1633 -0.2082
33424SOL     OW 3802   7.886   1.656   7.334 -0.3861 -0.2873 -0.1585
33424SOL    HW1 3803   7.896   1.572   7.378 -1.9142 -0.0109  0.8037
33424SOL    HW2 3804   7.962   1.662   7.276 -0.0570 -2.1499  0.0145
33425SOL     OW 3805   7.957   2.941   4.321 -0.5158 -0.1123  0.5473
33425SOL    HW1 3806   7.888   3.008   4.320 -0.7626 -0.3649  0.6224
33425SOL    HW2 3807   7.934   2.881   4.250  1.3572  1.5220 -1.6129
33426SOL     OW 3808   4.989   7.684   8.476 -0.0042 -0.0264  0.0657
33426SOL    HW1 3809   5.037   7.611   8.437  1.0197  0.7375 -0.1627
33426SOL    HW2 3810   4.912   7.644   8.516  0.0950 -1.1159 -0.7877
33427SOL     OW 3811   9.985  10.303   9.911  0.2516  0.3253 -0.3735
33427SOL    HW1 3812   9.967  10.366   9.981 -0.2591  0.6673 -0.8089
33427SOL    HW2 3813  10.066  10.259   9.939 -1.0438 -1.0694  1.5108
33428SOL     OW 3814   6.149   7.917   3.040 -0.6670 -0.0179 -0.1326
33428SOL    HW1 3815   6.163   7.830   3.002 -0.6769  0.0326 -0.2507
33428SOL    HW2 3816   6.147   7.902   3.134  1.3350  0.1024 -0.0272
33429SOL     OW 3817   5.651   2.361   7.658  0.2117  0.1568 -0.0609
33429SOL    HW1 3818   5.680   2.424   7.724  1.3896 -0.5153  0.0943
33429SOL    HW2 3819   5.727   2.303   7.645  0.0831  0.3478 -2.1011
33430SOL     OW 3820   5.495   9.572   6.442 -0.0356 -0.4493  0.6979
33430SOL    HW1 3821   5.482   9.506   6.374  0.3978 -0.3913  0.5580
33430SOL    HW2 3822   5.587   9.564   6.466 -0.6256 -2.0018  2.8444
33431SOL     OW 3823   1.656   2.249   2.788  0.2693 -0.5795  0.0131
33431SOL    HW1 3824   1.721   2.252   2.718  1.1144 -0.8124  0.7786
33431SOL    HW2 3825   1.577   2.287   2.748  0.8738 -0.2561 -0.9124
33432SOL     OW 3826   1.988   5.396   2.324 -0.1910  0.0690  0.7079
33432SOL    HW1 3827   2.069   5.422   2.367  0.2760  0.6509 -0.5108
33432SOL    HW2 3828   2.016   5.343   2.249 -0.7870  2.0176 -0.9819
33433SOL     OW 3829   4.232   6.166   5.310  0.7558  0.5363 -0.3835
33433SOL    HW1 3830   4.234   6.255   5.346  0.6498  0.7824 -0.9794
33433SOL    HW2 3831   4.160   6.167   5.247  2.2921  0.7569 -2.2236
33434SOL     OW 3832   5.254   6.272   4.021  0.2767  0.1810 -0.8435
33434SOL    HW1 3833   5.215   6.296   3.937 -1.1368 -1.0495 -0.5899
33434SOL    HW2 3834   5.207   6.325   4.086 -0.4230 -0.6826 -0.6189
33435SOL     OW 3835   4.529  10.551  10.130  0.5765 -0.2844 -0.3747
33435SOL    HW1 3836   4.485  10.547  10.045  0.9970  0.8152 -0.6670
33435SOL    HW2 3837   4.619  10.577  10.110  0.6495  0.1019  0.3985
33436SOL     OW 3838  10.301  10.462   2.607  0.4322 -0.1822 -0.3606
33436SOL    HW1 3839  10.321  10.388   2.549 -1.1880 -0.4777 -0.5721
33436SOL    HW2 3840  10.345  10.536   2.565  0.4815 -0.6615 -1.1939
33437SOL     OW 3841   4.768   8.516   5.005  0.1639  0.5892 -0.0590
33437SOL    HW1 3842   4.793   8.425   5.021  0.7279  0.8548  0.6129
33437SOL    HW2 3843   4.709   8.538   5.077 -0.0831  0.7154 -0.2979
33438SOL     OW 3844   3.751   9.327   4.210  0.5556 -0.1603 -0.2080
33438SOL    HW1 3845   3.720   9.413   4.183  0.4269  0.0231  0.5307
33438SOL    HW2 3846   3.747   9.274   4.130 -1.6465 -0.1590 -0.1515
33439SOL     OW 3847   0.767   4.506   8.908 -0.0050  0.1042 -0.5168
33439SOL    HW1 3848   0.782   4.429   8.962  1.8894  0.8522  0.1355
33439SOL    HW2 3849   0.703   4.558   8.957 -0.6813 -0.6815 -0.5643
33440SOL     OW 3850   3.285   2.619   6.040  0.0208  0.4624  0.1304
33440SOL    HW1 3851   3.236   2.583   5.966  1.3952 -1.1248 -0.0625
33440SOL    HW2 3852   3.353   2.673   5.999 -0.2015  0.8738  0.3026
33441SOL     OW 3853  10.069   5.785   4.853 -0.2887  0.1970  0.3293
33441SOL    HW1 3854  10.149   5.823   4.817  0.8758  0.3660  2.8930
33441SOL    HW2 3855   9.998   5.834   4.811  0.9213  0.4619 -1.5388
33442SOL     OW 3856   5.632   7.917   0.002  0.3937  0.1505 -0.1009
33442SOL    HW1 3857   5.714   7.868  -0.003  0.7233  0.7475 -0.6717
33442SOL    HW2 3858   5.654   8.004  -0.030 -0.6981  0.0199 -1.2646
33443SOL     OW 3859   6.707   0.087   0.121  0.0227  0.2376 -0.0859
33443SOL    HW1 3860   6.739   0.035   0.047 -0.4162 -1.8725  1.1214
33443SOL    HW2 3861   6.615   0.103   0.100  0.2064  0.7200 -0.5522
33444SOL     OW 3862   9.109   8.205   9.209  0.7353 -0.4387 -0.0424
33444SOL    HW1 3863   9.071   8.118   9.218 -0.0393 -0.0014  1.2392
33444SOL    HW2 3864   9.108   8.241   9.298  0.4146  1.1296 -0.6366
33445SOL     OW 3865   6.332   0.326   7.440  0.3521  0.6800  0.0836
33445SOL    HW1 3866   6.251   0.290   7.476 -0.1076  1.8457  0.2729
33445SOL    HW2 3867   6.376   0.366   7.516  1.3705 -0.3632  0.0833
33446SOL     OW 3868   3.000   0.726   6.304  0.1937  0.1779 -0.4129
33446SOL    HW1 3869   2.992   0.813   6.342  0.4070  0.2353 -0.4946
33446SOL    HW2 3870   3.003   0.666   6.379 -3.0576 -0.0642 -0.3660
33447SOL     OW 3871   1.149   2.419   8.966  0.5504 -0.2590 -0.4218
33447SOL    HW1 3872   1.126   2.512   8.971 -0.0364 -0.4325  0.2246
33447SOL    HW2 3873   1.075   2.374   9.007 -0.0499 -1.1373 -2.3333
33448SOL     OW 3874   9.219   3.504   5.818  0.3906 -0.2325  0.5824
33448SOL    HW1 3875   9.185   3.424   5.859  1.3823 -0.9944 -0.0312
33448SOL    HW2 3876   9.163   3.573   5.851  0.2598 -1.0144  2.0890
33449SOL     OW 3877  10.714   2.734   0.966  0.2007  0.0473  0.2616
33449SOL    HW1 3878  10.779   2.760   1.032 -1.2050  0.3402  1.5953
33449SOL    HW2 3879  10.634   2.719   1.016 -0.3204 -2.1594 -1.0830
33450SOL     OW 3880   2.694   0.147   3.715  0.0933 -0.1570 -0.3402
33450SOL    HW1 3881   2.673   0.064   3.672 -0.4964  0.1012 -0.5564
33450SOL    HW2 3882   2.770   0.179   3.666 -0.7097  0.2434 -1.3737
33451SOL     OW 3883   6.475   7.609   1.827 -0.0878 -0.1047 -0.3063
33451SOL    HW1 3884   6.412   7.579   1.893  1.2432 -0.1440  0.9826
33451SOL    HW2 3885   6.497   7.529   1.778 -0.5135 -0.2133 -0.3283
33452SOL     OW 3886   9.153   5.196   6.272  0.2882  0.1235  0.4301
33452SOL    HW1 3887   9.156   5.288   6.247 -0.2016  0.3385  1.1321
33452SOL    HW2 3888   9.234   5.182   6.321 -0.6897  0.8092  2.3481
33453SOL     OW 3889   0.136   6.128  10.735 -0.2618 -0.5384 -0.3564
33453SOL    HW1 3890   0.226   6.138  10.765 -0.9237  2.9464  0.9713
33453SOL    HW2 3891   0.139   6.150  10.642  0.2498 -0.6244 -0.3647
33454SOL     OW 3892   5.525   9.223   9.912  0.2897  0.4525  0.1134
33454SOL    HW1 3893   5.511   9.315   9.931  0.6483  0.2677  1.3919
33454SOL    HW2 3894   5.561   9.221   9.823 -2.6990  1.2859 -1.2189
33455SOL     OW 3895   0.010   2.815   6.209  0.4690  0.1621  0.1360
33455SOL    HW1 3896  -0.085   2.802   6.203  0.6012 -0.2431 -2.0794
33455SOL    HW2 3897   0.044   2.730   6.234  0.3447 -0.1681 -0.7738
33456SOL     OW 3898   8.382   6.965   3.651 -0.0568  0.0347  0.3335
33456SOL    HW1 3899   8.342   6.909   3.585 -0.6959 -1.3974  1.8821
33456SOL    HW2 3900   8.424   6.905   3.712  2.1014  1.3830  0.3134
33457SOL     OW 3901   8.272  10.166   2.812 -0.0074 -0.6288 -0.0314
33457SOL    HW1 3902   8.306  10.091   2.860  0.8362  0.4080  1.0377
33457SOL    HW2 3903   8.320  10.242   2.847 -0.1195  0.3084 -1.7469
33458SOL     OW 3904   1.613   2.366  10.335  0.4708 -0.1719 -0.4525
33458SOL    HW1 3905   1.550   2.383  10.266  1.2003  2.4756 -0.6153
33458SOL    HW2 3906   1.563   2.322  10.404 -1.0876  0.2008 -1.3011
33459SOL     OW 3907   8.866   4.718   8.926  0.3973  0.1473 -0.0514
33459SOL    HW1 3908   8.920   4.667   8.865  1.0111 -0.6816  1.1524
33459SOL    HW2 3909   8.924   4.789   8.955  0.2012  0.3736 -0.2108
33460SOL     OW 3910   8.024   9.355   8.387  0.3054  0.2593  0.2065
33460SOL    HW1 3911   8.029   9.413   8.463  1.9011  0.7114 -0.1994
33460SOL    HW2 3912   7.951   9.388   8.335  0.1538  0.8666  0.7955
33461SOL     OW 3913   5.144   6.040  10.578 -0.4151  0.2355  0.3208
33461SOL    HW1 3914   5.111   6.027  10.489 -1.2945  2.2440  0.2826
33461SOL    HW2 3915   5.223   6.092  10.566 -0.5900  0.5971  0.6907
33462SOL     OW 3916   7.210   2.752   0.116 -0.1689  0.1001  0.3522
33462SOL    HW1 3917   7.304   2.733   0.109  0.0453  1.2793 -0.1807
33462SOL    HW2 3918   7.205   2.847   0.123 -1.3286  0.0416  0.4807
33463SOL     OW 3919   6.124   1.134   9.181 -0.2429 -0.0217  0.5195
33463SOL    HW1 3920   6.102   1.099   9.267 -1.2708  0.5427  0.5026
33463SOL    HW2 3921   6.042   1.128   9.132  0.1154  0.4692 -0.1400
33464SOL     OW 3922   6.680  10.255   1.633  0.3151  0.0737 -0.7353
33464SOL    HW1 3923   6.716  10.318   1.572  0.5020  1.0819  0.3695
33464SOL    HW2 3924   6.589  10.245   1.607  0.7302 -0.5583 -1.9941
33465SOL     OW 3925   3.581   9.095   0.615 -0.1314 -0.1317 -0.2527
33465SOL    HW1 3926   3.538   9.154   0.678  1.1257 -0.2686  0.7744
33465SOL    HW2 3927   3.534   9.012   0.624 -0.6119  0.1385 -0.2339
33466SOL     OW 3928   9.165  10.992   4.279 -0.5781 -0.1657  0.1893
33466SOL    HW1 3929   9.083  11.042   4.285 -1.2657 -1.0307 -1.2522
33466SOL    HW2 3930   9.144  10.906   4.316  0.0292 -0.0196  0.8847
33467SOL     OW 3931   1.460   0.829   1.980 -0.4924  0.2221  0.0231
33467SOL    HW1 3932   1.404   0.794   1.911  0.1038  0.2330 -0.4715
33467SOL    HW2 3933   1.502   0.752   2.018  1.1690  0.3979 -1.3686
33468SOL     OW 3934   2.111  10.978   0.201 -0.0284 -0.0332 -0.0300
33468SOL    HW1 3935   2.140  11.066   0.176  0.8799 -1.0950 -3.2351
33468SOL    HW2 3936   2.179  10.920   0.166 -0.3407 -2.0274  2.4350
33469SOL     OW 3937   6.268   6.066   6.849  0.0638  0.4383 -0.3892
33469SOL    HW1 3938   6.355   6.103   6.834 -0.1601  0.8037 -0.8238
33469SOL    HW2 3939   6.276   6.018   6.931  1.3391 -1.5973 -1.6202
33470SOL     OW 3940  10.880   9.975   1.830 -0.7181 -0.1141 -0.0923
33470SOL    HW1 3941  10.856  10.060   1.867 -0.2987 -0.1636  0.3031
33470SOL    HW2 3942  10.928   9.931   1.901 -0.4690 -0.4660 -0.4791
33471SOL     OW 3943   7.411   9.984   1.227 -0.1270  0.6040  0.7965
33471SOL    HW1 3944   7.457   9.977   1.310  0.5574 -1.1415  0.3234
33471SOL    HW2 3945   7.359   9.904   1.221 -0.6938  1.0192 -0.1478
33472SOL     OW 3946  10.686   2.933   1.432 -0.0618 -0.1942 -0.0511
33472SOL    HW1 3947  10.613   2.935   1.370  1.1297 -0.6443 -1.5415
33472SOL    HW2 3948  10.745   3.003   1.402  0.9003 -0.9162  0.0885
33473SOL     OW 3949   4.972   6.955   1.340  0.0476  0.2492 -0.4061
33473SOL    HW1 3950   5.038   6.910   1.392 -0.8094 -0.8529 -0.2498
33473SOL    HW2 3951   5.017   6.980   1.260  1.3696  1.8824  0.7642
33474SOL     OW 3952   0.248   3.842   9.535  0.2620  0.3900 -0.4356
33474SOL    HW1 3953   0.251   3.763   9.589 -1.7752 -0.5727 -1.6174
33474SOL    HW2 3954   0.338   3.855   9.506  1.1174  0.0163  1.8103
33475SOL     OW 3955   3.175   4.828   1.135 -0.0093 -0.6325 -0.3242
33475SOL    HW1 3956   3.148   4.741   1.103 -1.7977 -0.8798  1.6924
33475SOL    HW2 3957   3.265   4.815   1.165 -0.2655 -1.8199 -0.0137
33476SOL     OW 3958  10.727  10.285   8.387 -0.1898 -0.2557  0.3886
33476SOL    HW1 3959  10.652  10.274   8.329  1.3694 -1.7276 -1.4802
33476SOL    HW2 3960  10.714  10.219   8.456 -0.9690  0.0313  0.5251
33477SOL     OW 3961   8.003   6.103   6.277 -0.1474  0.0323  0.2748
33477SOL    HW1 3962   8.032   6.191   6.300 -0.5020  0.0313  0.7529
33477SOL    HW2 3963   8.077   6.046   6.301  0.4826  0.2946 -0.9836
33478SOL     OW 3964   2.136   0.618   7.043  0.0186 -0.5107 -0.0233
33478SOL    HW1 3965   2.137   0.608   7.139  1.1682  1.2580  0.1997
33478SOL    HW2 3966   2.161   0.709   7.029  0.7424 -0.9863 -2.0556
33479SOL     OW 3967  10.604   6.901   3.051  0.2376 -0.4527 -0.0151
33479SOL    HW1 3968  10.513   6.872   3.059  0.3010 -0.7503 -0.3535
33479SOL    HW2 3969  10.640   6.890   3.139 -0.1739  0.0793  0.2213
33480SOL     OW 3970   7.006   0.775   9.428 -0.2492 -0.0864  0.6873
33480SOL    HW1 3971   6.912   0.761   9.422  0.0063 -2.3152  1.1715
33480SOL    HW2 3972   7.045   0.701   9.382  1.2810 -0.3716  2.3147
33481SOL     OW 3973  10.051   8.007   5.294 -0.1099 -0.4032 -0.1420
33481SOL    HW1 3974  10.052   8.003   5.390  1.6105  2.0424  0.0197
33481SOL    HW2 3975  10.128   7.957   5.267  0.4586  0.4550 -0.1294
33482SOL     OW 3976   4.091   2.491   8.912 -0.1399  0.0852  0.3437
33482SOL    HW1 3977   4.099   2.458   8.822  0.0396  1.7040 -0.2662
33482SOL    HW2 3978   4.181   2.497   8.943 -0.2188 -0.7580  0.7519
33483SOL     OW 3979   4.413   2.032   5.777  0.5952  0.2672 -0.3697
33483SOL    HW1 3980   4.416   2.125   5.755  2.7682  0.4522  0.4086
33483SOL    HW2 3981   4.421   2.030   5.872  0.4434 -0.7092 -0.3736
33484SOL     OW 3982   3.173  10.627   3.861  0.3177  1.5504  0.1812
33484SOL    HW1 3983   3.224  10.589   3.790  0.5774  1.1878  0.5567
33484SOL    HW2 3984   3.197  10.720   3.861  0.8910  1.4075  0.2728
33485SOL     OW 3985   7.205   6.422   1.462 -0.6202  0.2241 -0.0227
33485SOL    HW1 3986   7.223   6.415   1.368 -0.0588 -0.4558  0.1261
33485SOL    HW2 3987   7.285   6.390   1.504 -0.5832  1.2177  0.6983
33486SOL     OW 3988   0.334   2.589   8.281 -0.0604  0.8336  0.6538
33486SOL    HW1 3989   0.238   2.590   8.288 -0.1544  1.2628 -0.4952
33486SOL    HW2 3990   0.364   2.587   8.372 -1.1694 -2.8263  1.1249
33487SOL     OW 3991   6.723   0.194   3.936 -0.4794  0.4099 -0.2313
33487SOL    HW1 3992   6.637   0.228   3.964 -1.2033 -0.8539 -0.8196
33487SOL    HW2 3993   6.770   0.180   4.018 -1.4417 -0.3857  0.2038
33488SOL     OW 3994   8.242   0.590   3.353  0.3867 -0.0968 -0.2115
33488SOL    HW1 3995   8.232   0.549   3.439 -1.0186 -0.8298 -0.6846
33488SOL    HW2 3996   8.285   0.523   3.300 -3.5121 -1.8844 -1.4861
33489SOL     OW 3997   1.350   6.496   9.464 -0.2219  0.1198  0.3214
33489SOL    HW1 3998   1.369   6.462   9.551 -1.6096 -0.4754  0.4185
33489SOL    HW2 3999   1.400   6.578   9.458  0.1516 -0.0073  1.5338
33490SOL     OW 4000   5.919  10.917   5.820 -0.4186 -0.2666 -0.0061
33490SOL    HW1 4001   5.939  10.848   5.756  0.8746  1.0196 -1.0380
33490SOL    HW2 4002   5.879  10.870   5.893 -0.4772 -1.9871 -1.0826
33491SOL     OW 4003   2.582   5.867   1.963 -0.4401  0.0505 -0.3476
33491SOL    HW1 4004   2.575   5.855   2.057  0.5023  2.6639  0.1150
33491SOL    HW2 4005   2.674   5.884   1.947 -0.9893  2.5165 -1.3015
33492SOL     OW 4006   8.865   5.503   9.311  0.0771 -0.1143 -0.1122
33492SOL    HW1 4007   8.910   5.424   9.341 -0.0846 -1.1284 -2.2779
33492SOL    HW2 4008   8.910   5.575   9.354 -0.1828 -1.3790  2.4460
33493SOL     OW 4009  10.820   2.127   3.635  0.0019 -0.1841  0.1138
33493SOL    HW1 4010  10.786   2.117   3.724  0.4062  1.0031  0.4129
33493SOL    HW2 4011  10.783   2.209   3.604  0.4838 -0.2030 -0.5347
33494SOL     OW 4012   0.507   4.204   9.172  0.6089  0.6643  0.3478
33494SOL    HW1 4013   0.427   4.173   9.213  0.5301 -0.4999 -0.6133
33494SOL    HW2 4014   0.480   4.277   9.116 -0.1099 -0.7056 -1.1927
33495SOL     OW 4015   9.875   0.972   9.196  0.4957 -0.1496 -0.0586
33495SOL    HW1 4016   9.908   1.025   9.268  1.1073  1.0152 -1.1513
33495SOL    HW2 4017   9.791   1.013   9.172  0.3397 -0.4732 -0.0764
33496SOL     OW 4018   9.608   4.240   9.802 -0.7954 -0.1265  0.5898
33496SOL    HW1 4019   9.655   4.211   9.724  0.5239  1.9640  0.5082
33496SOL    HW2 4020   9.524   4.195   9.798 -1.1661  0.6064 -2.5656
33497SOL     OW 4021   7.326   1.712   8.547 -0.2809 -0.3211  0.4331
33497SOL    HW1 4022   7.286   1.795   8.521 -0.0827  0.1561  1.6140
33497SOL    HW2 4023   7.354   1.673   8.464  0.5186  1.2333 -0.0719
33498SOL     OW 4024   6.463   0.686   2.999 -0.1255 -0.9049  0.3933
33498SOL    HW1 4025   6.558   0.674   2.994 -0.0460 -0.2134  0.1526
33498SOL    HW2 4026   6.436   0.696   2.907 -0.6269 -2.4519  0.3405
33499SOL     OW 4027   5.154   2.331   4.855 -0.3375 -0.6762  0.4026
33499SOL    HW1 4028   5.101   2.325   4.776 -0.5265  0.6184  0.3972
33499SOL    HW2 4029   5.231   2.382   4.829 -0.4709 -0.1075  1.0633
33500SOL     OW 4030  10.941   5.169   5.895  0.2711 -0.1599 -0.3076
33500SOL    HW1 4031  11.006   5.119   5.846  1.3282  0.6467  0.2283
33500SOL    HW2 4032  10.973   5.167   5.985 -1.0599 -0.7010  0.1856
33501SOL     OW 4033   8.771   2.805   5.886  0.3948 -0.1356  0.0406
33501SOL    HW1 4034   8.829   2.760   5.824  1.2769 -0.0727  0.7921
33501SOL    HW2 4035   8.694   2.749   5.890  0.5845 -0.4669 -0.6395
33502SOL     OW 4036   3.759   6.790   8.709  0.1857  0.0584 -0.1898
33502SOL    HW1 4037   3.823   6.770   8.777  2.3253  2.8000 -1.2274
33502SOL    HW2 4038   3.675   6.788   8.753  1.1936 -1.1618  1.8099
33503SOL     OW 4039   1.602   5.117   0.414 -0.6887 -0.2384  0.0749
33503SOL    HW1 4040   1.629   5.184   0.352 -2.6595  0.1700 -0.4217
33503SOL    HW2 4041   1.632   5.149   0.499 -2.3425  1.7558 -0.0400
33504SOL     OW 4042   2.021   6.664   0.177  0.7590  0.0332  0.1919
33504SOL    HW1 4043   2.060   6.674   0.264 -1.0280 -1.7981  1.2845
33504SOL    HW2 4044   2.068   6.590   0.138 -0.9330 -1.6464  1.1892
33505SOL     OW 4045   9.210  10.921   5.899 -0.0324  0.0477  0.0881
33505SOL    HW1 4046   9.221  10.950   5.808 -1.3153 -0.3224 -0.1974
33505SOL    HW2 4047   9.122  10.951   5.923  0.3487  0.2583  1.2549
33506SOL     OW 4048   2.185   9.453   3.545  0.3269 -0.3444 -0.0742
33506SOL    HW1 4049   2.199   9.457   3.640  2.7154  0.6550 -0.3914
33506SOL    HW2 4050   2.249   9.388   3.515 -0.7441 -1.0056 -0.9753
33507SOL     OW 4051   0.972   3.674  10.271 -0.3255 -0.4496 -0.2180
33507SOL    HW1 4052   0.891   3.717  10.245 -0.4499 -0.2477  0.4968
33507SOL    HW2 4053   1.022   3.741  10.317  0.2719 -0.5610 -0.6859
33508SOL     OW 4054   1.902   6.179   4.147  0.0761 -1.0751  0.1580
33508SOL    HW1 4055   1.882   6.257   4.199 -1.6442 -1.5176  0.2241
33508SOL    HW2 4056   1.838   6.114   4.176 -0.9756 -1.3475 -2.4899
33509SOL     OW 4057   7.167   4.483   8.436  0.0937 -0.2588  0.2993
33509SOL    HW1 4058   7.113   4.440   8.370  1.9013 -1.4017 -0.5136
33509SOL    HW2 4059   7.209   4.411   8.483  0.8122  0.5827  0.9733
33510SOL     OW 4060   4.523   2.791   8.386 -0.3098  0.6233  0.2019
33510SOL    HW1 4061   4.533   2.885   8.371  0.1574  0.9154  2.0990
33510SOL    HW2 4062   4.590   2.751   8.331 -0.7122  1.3542 -0.8689
33511SOL     OW 4063   7.730  10.394   3.443  0.4535  0.1708 -0.1291
33511SOL    HW1 4064   7.747  10.395   3.537  2.0933  0.6047 -0.4005
33511SOL    HW2 4065   7.765  10.477   3.412 -2.9283  1.5296 -0.7061
33512SOL     OW 4066   8.423   8.963   4.647  0.4745  0.2267 -0.2913
33512SOL    HW1 4067   8.370   8.959   4.727 -0.7690  1.6580 -1.0038
33512SOL    HW2 4068   8.368   8.921   4.580  1.1653 -0.2310 -0.5775
33513SOL     OW 4069   0.593   5.931   9.251  0.0832  0.4223 -0.8165
33513SOL    HW1 4070   0.607   5.924   9.345 -1.3199 -0.0462 -0.6141
33513SOL    HW2 4071   0.679   5.955   9.215  0.4782  1.3020  0.6389
33514SOL     OW 4072   7.639   1.694   1.141 -0.2094  0.1628  0.1191
33514SOL    HW1 4073   7.733   1.707   1.133  0.3387 -1.6223  2.6793
33514SOL    HW2 4074   7.604   1.783   1.151  1.2126  0.8328 -0.5081
33515SOL     OW 4075   7.842   1.033   4.671 -0.0175  0.1998  0.4019
33515SOL    HW1 4076   7.870   0.944   4.692  1.2357  0.4048 -0.3298
33515SOL    HW2 4077   7.924   1.083   4.662 -0.6870  1.3474  0.4600
33516SOL     OW 4078   7.804   4.869   3.592 -0.2706 -0.6207  0.1688
33516SOL    HW1 4079   7.882   4.869   3.536 -0.1937  3.2934 -0.0020
33516SOL    HW2 4080   7.731   4.881   3.531 -0.4536  0.8138  0.6320
33517SOL     OW 4081   2.661   0.645  10.671  0.3412  0.1468 -0.2422
33517SOL    HW1 4082   2.580   0.594  10.663 -0.0478  0.6313  0.4984
33517SOL    HW2 4083   2.724   0.585  10.711 -0.3710  0.4979  1.4562
33518SOL     OW 4084  10.881   9.015   7.695  0.1625 -0.0947  0.3610
33518SOL    HW1 4085  10.834   8.982   7.771  1.8864 -0.5132  1.3086
33518SOL    HW2 4086  10.972   9.023   7.725  0.5760  1.4596 -1.1171
33519SOL     OW 4087   8.907   6.450   2.975  0.3818 -0.2415 -0.0872
33519SOL    HW1 4088   8.973   6.381   2.982 -0.2489 -1.1002 -2.0113
33519SOL    HW2 4089   8.825   6.407   2.997  0.1977  0.3931  0.5306
33520SOL     OW 4090   5.719   5.728   6.559  0.3739  0.3089 -0.3967
33520SOL    HW1 4091   5.678   5.814   6.571  0.2877  0.3869 -1.1870
33520SOL    HW2 4092   5.748   5.703   6.646  1.2021  1.5392 -0.2856
33521SOL     OW 4093  10.115  10.329   7.363  0.1728  0.0896 -0.3119
33521SOL    HW1 4094  10.049  10.331   7.294 -0.0506  0.3353 -0.0950
33521SOL    HW2 4095  10.073  10.279   7.434 -0.2862  1.3250  0.3213
33522SOL     OW 4096   7.560   2.254   9.892 -0.2840  0.3446 -0.4309
33522SOL    HW1 4097   7.622   2.306   9.839 -0.2836 -0.2481 -1.0266
33522SOL    HW2 4098   7.489   2.234   9.831 -1.5801  1.8513  0.4971
33523SOL     OW 4099   2.368   5.575   6.166 -0.3431 -0.0918 -0.4002
33523SOL    HW1 4100   2.354   5.577   6.261 -1.7381 -0.5250 -0.5837
33523SOL    HW2 4101   2.288   5.538   6.130  1.2338 -2.6331 -1.5619
33524SOL     OW 4102  10.831   3.674   0.395  0.1124  0.1792 -0.2028
33524SOL    HW1 4103  10.805   3.600   0.450  0.2620  0.6819  0.5597
33524SOL    HW2 4104  10.797   3.653   0.308 -0.8099 -0.2693  0.2552
33525SOL     OW 4105   9.309   9.919   3.729 -0.3928  0.5441  0.2405
33525SOL    HW1 4106   9.328  10.001   3.682  1.1658  0.6686  1.0042
33525SOL    HW2 4107   9.363   9.924   3.808 -2.5500  0.1132  1.8312
33526SOL     OW 4108   2.123   3.847  10.430  0.4217 -0.0753  0.2430
33526SOL    HW1 4109   2.058   3.781  10.455  1.3648 -1.3633 -0.5861
33526SOL    HW2 4110   2.104   3.865  10.338  1.0345 -0.2105  0.0898
33527SOL     OW 4111   6.531   5.029  10.312 -0.0597  0.1862  0.3034
33527SOL    HW1 4112   6.597   4.986  10.367 -0.6318  0.2080  1.0150
33527SOL    HW2 4113   6.579   5.051  10.232  0.9037  0.5657  0.9613
33528SOL     OW 4114   0.988  10.453  10.978  0.3644  0.3100  0.2178
33528SOL    HW1 4115   0.900  10.480  11.003  0.4259  2.0512 -1.2225
33528SOL    HW2 4116   0.978  10.361  10.952 -1.1046  0.5521 -0.1789
33529SOL     OW 4117   9.099  10.478   0.420 -0.1651  0.6462 -0.1293
33529SOL    HW1 4118   9.066  10.458   0.508  0.2178  0.3146 -0.0574
33529SOL    HW2 4119   9.024  10.514   0.374 -0.1591  1.6648  0.6057
33530SOL     OW 4120   2.909   8.360   2.650  0.2418  0.3156  0.7759
33530SOL    HW1 4121   2.849   8.425   2.687 -0.5363 -0.6466  1.2479
33530SOL    HW2 4122   2.852   8.289   2.620  1.0915 -0.2618  0.4922
33531SOL     OW 4123   4.869   9.347   0.597  0.7231  0.2016  0.1498
33531SOL    HW1 4124   4.938   9.323   0.659 -0.6167 -0.1076  1.5689
33531SOL    HW2 4125   4.795   9.374   0.652 -1.3365 -2.2878 -1.2076
33532SOL     OW 4126   4.748   9.872   0.363 -0.0222 -0.3061 -0.4513
33532SOL    HW1 4127   4.827   9.866   0.308 -0.3807 -2.0557 -0.8273
33532SOL    HW2 4128   4.757   9.800   0.425 -0.6794  0.3259  0.3990
33533SOL     OW 4129   1.560   2.033   0.867  0.1056  0.2155 -0.3046
33533SOL    HW1 4130   1.490   2.029   0.802  1.9438 -0.8827 -2.3274
33533SOL    HW2 4131   1.578   2.127   0.877 -0.7546  0.4378 -0.7043
33534SOL     OW 4132   7.012   1.913  10.481 -0.1583 -0.3154 -0.1670
33534SOL    HW1 4133   6.970   1.911  10.396  0.2463  0.8502 -0.4067
33534SOL    HW2 4134   6.940   1.930  10.543 -0.7486 -2.8851 -0.0267
33535SOL     OW 4135   1.327   4.074   9.703  0.8460  0.6627  0.1062
33535SOL    HW1 4136   1.377   4.124   9.768 -0.0182  1.0448  0.4895
33535SOL    HW2 4137   1.394   4.031   9.649  1.6443 -0.9040  2.1792
33536SOL     OW 4138   8.711   2.997   8.621  0.0009 -0.0487  0.4950
33536SOL    HW1 4139   8.675   2.999   8.709  2.7937 -1.8552  1.8433
33536SOL    HW2 4140   8.714   2.903   8.599  2.0000  0.1516 -0.2741
33537SOL     OW 4141   3.179   0.599   6.966  0.2129  0.0760 -0.4203
33537SOL    HW1 4142   3.088   0.621   6.948 -0.2978 -1.5910 -0.0742
33537SOL    HW2 4143   3.175   0.511   7.004  1.8242  0.6606  1.2479
33538SOL     OW 4144  10.730   1.154   0.608  0.0373  0.1062  0.1485
33538SOL    HW1 4145  10.749   1.244   0.583  0.5146  0.3198  1.2137
33538SOL    HW2 4146  10.708   1.110   0.526 -2.5348  1.7341 -0.1290
33539SOL     OW 4147   8.179   7.955   9.036  0.1568  0.1888  0.0247
33539SOL    HW1 4148   8.263   8.000   9.026 -0.1512  0.4122 -1.9687
33539SOL    HW2 4149   8.200   7.862   9.023  0.0253  0.2970 -0.9785
33540SOL     OW 4150   4.408   0.270   9.494  0.2678 -0.9565 -0.3300
33540SOL    HW1 4151   4.349   0.195   9.504 -0.2232 -0.3755  1.5036
33540SOL    HW2 4152   4.490   0.243   9.536 -0.3585 -0.0487  1.6143
33541SOL     OW 4153   8.567   3.206   1.979 -0.7807  0.0095  0.0341
33541SOL    HW1 4154   8.479   3.243   1.989 -1.3222 -0.7597 -1.5161
33541SOL    HW2 4155   8.554   3.112   1.982 -0.2637 -0.1599 -1.8046
33542SOL     OW 4156   9.733  10.664   5.728  0.3377 -0.2465 -0.2456
33542SOL    HW1 4157   9.686  10.581   5.730  0.2518 -0.2045 -0.5633
33542SOL    HW2 4158   9.765  10.675   5.818 -0.6619 -0.0485  0.1032
33543SOL     OW 4159   1.066   0.624   7.302  0.2580 -0.5769 -0.2683
33543SOL    HW1 4160   1.084   0.664   7.217 -0.7757  0.8609  0.1503
33543SOL    HW2 4161   1.030   0.538   7.282  1.8351 -1.0613 -1.2153
33544SOL     OW 4162   7.368   5.972  10.001 -0.8867 -0.0198 -0.2566
33544SOL    HW1 4163   7.281   5.942  10.027 -0.6118  0.1930  0.9702
33544SOL    HW2 4164   7.381   6.053  10.050  0.2137 -0.3441  0.0228
33545SOL     OW 4165  11.127   1.284  11.046 -0.2250  0.4897  0.3321
33545SOL    HW1 4166  11.152   1.191  11.040  0.9779  0.8919 -2.0406
33545SOL    HW2 4167  11.203   1.326  11.086 -0.0007  0.6924 -0.2934
33546SOL     OW 4168   1.261   5.792   2.498  0.3034  0.5392 -0.0923
33546SOL    HW1 4169   1.310   5.724   2.451 -1.3325 -1.7484  1.3202
33546SOL    HW2 4170   1.174   5.791   2.458  0.3533  2.1471 -0.3128
33547SOL     OW 4171   3.645   1.946   5.655  0.3388  0.2073 -0.6525
33547SOL    HW1 4172   3.599   2.021   5.692  0.7770  0.1512  0.0341
33547SOL    HW2 4173   3.596   1.923   5.576  0.3147  1.3290 -0.9768
33548SOL     OW 4174   3.687   8.907   8.739 -0.1065 -0.5108 -0.5752
33548SOL    HW1 4175   3.746   8.843   8.779  0.6385  0.4354 -0.0796
33548SOL    HW2 4176   3.648   8.953   8.813  0.6564  0.7133 -0.8998
33549SOL     OW 4177   6.181   7.675   5.207 -0.1403  0.1281  0.5110
33549SOL    HW1 4178   6.154   7.762   5.239 -4.1199 -0.1065 -1.5537
33549SOL    HW2 4179   6.233   7.694   5.129  0.8052  0.5876  1.2190
33550SOL     OW 4180   1.548   2.325   9.477 -0.2495 -0.8305  0.1236
33550SOL    HW1 4181   1.556   2.403   9.422 -2.1466 -1.3360 -0.9737
33550SOL    HW2 4182   1.638   2.298   9.494  0.4925  2.1105  1.3470
33551SOL     OW 4183  10.123   6.230   6.539 -0.3348 -0.1537  0.0508
33551SOL    HW1 4184  10.130   6.289   6.464  0.0224  1.2274  1.1300
33551SOL    HW2 4185  10.037   6.248   6.576 -1.9276 -3.1605 -1.8415
33552SOL     OW 4186  10.729   9.575   9.343  0.5686  0.4582  0.4154
33552SOL    HW1 4187  10.679   9.506   9.386 -0.1875  0.3225 -0.6474
33552SOL    HW2 4188  10.663   9.633   9.304  1.2130  1.1803  0.3657
33553SOL     OW 4189   2.441   6.846   0.247 -0.5379 -0.0387 -0.3318
33553SOL    HW1 4190   2.406   6.829   0.334 -1.0146 -0.1484 -0.5377
33553SOL    HW2 4191   2.445   6.760   0.205  1.5754 -0.2598  0.2535
33554SOL     OW 4192   4.140   6.687   9.247 -0.4117 -0.3774  0.4824
33554SOL    HW1 4193   4.074   6.708   9.181 -2.1331 -2.0337  1.5785
33554SOL    HW2 4194   4.224   6.698   9.201 -1.4123  1.3816 -1.0735
33555SOL     OW 4195   2.147   7.394   5.176  0.2525 -0.8052  0.0562
33555SOL    HW1 4196   2.163   7.477   5.132 -2.1032  0.1282  0.7833
33555SOL    HW2 4197   2.134   7.331   5.106  1.4745 -0.4557 -0.5066
33556SOL     OW 4198   4.485  10.618   2.999 -0.3175  0.2289 -0.1556
33556SOL    HW1 4199   4.484  10.525   2.977  0.5743  0.2621 -0.3940
33556SOL    HW2 4200   4.488  10.662   2.914 -0.7706  0.4778 -0.0435
33557SOL     OW 4201   9.965   4.638   4.537  0.2320  0.2700 -0.1687
33557SOL    HW1 4202  10.029   4.702   4.506  1.3603 -1.3731 -1.3725
33557SOL    HW2 4203   9.978   4.562   4.481 -2.2085 -0.4418  0.1284
33558SOL     OW 4204   0.978   9.464   8.857  0.2211  0.0159  0.2310
33558SOL    HW1 4205   0.973   9.374   8.826 -0.9620 -0.5672  1.9879
33558SOL    HW2 4206   1.054   9.501   8.811  0.6807 -1.8214 -0.5807
33559SOL     OW 4207   8.688   3.289   9.783 -0.3466 -0.1434  0.2094
33559SOL    HW1 4208   8.734   3.257   9.705  0.7839  1.2180  0.2836
33559SOL    HW2 4209   8.692   3.215   9.844  1.8755 -0.0747  0.2362
33560SOL     OW 4210   9.906   0.169   0.263 -0.5451 -0.0167  0.1112
33560SOL    HW1 4211   9.894   0.175   0.168 -1.3110 -0.1321  0.1952
33560SOL    HW2 4212   9.909   0.260   0.292  1.2845  0.0487 -0.2009
33561SOL     OW 4213  10.032   8.600   2.485 -0.0552  0.9440 -0.3443
33561SOL    HW1 4214  10.083   8.670   2.526 -0.2918  0.9127  0.0107
33561SOL    HW2 4215  10.093   8.560   2.423  0.6553  0.3285  0.7084
33562SOL     OW 4216   3.036   5.936   1.721  0.1459 -0.1934 -0.3517
33562SOL    HW1 4217   3.117   5.976   1.753  0.9040 -0.1906 -2.1272
33562SOL    HW2 4218   3.003   5.998   1.655 -2.0782  0.4709  1.2781
33563SOL     OW 4219   5.762   6.408   3.901  0.0491 -0.5225  0.4837
33563SOL    HW1 4220   5.784   6.498   3.880  0.0023 -0.4716  0.6534
33563SOL    HW2 4221   5.686   6.388   3.848 -0.7645 -0.0309  1.4295
33564SOL     OW 4222   8.595   7.854   3.731 -0.3417  0.2045  0.3641
33564SOL    HW1 4223   8.687   7.880   3.726 -0.6366  1.0201 -2.2141
33564SOL    HW2 4224   8.597   7.758   3.724  0.2965  0.2736 -0.6852
33565SOL     OW 4225   1.030   8.299   2.154 -0.2793  0.5906  0.2508
33565SOL    HW1 4226   1.073   8.343   2.227 -0.4470  0.0255  0.6871
33565SOL    HW2 4227   1.092   8.232   2.126 -1.6644 -1.6099  2.1928
33566SOL     OW 4228   7.448   7.910   4.558 -0.3578  0.0621  0.1863
33566SOL    HW1 4229   7.485   7.939   4.475 -0.4827 -0.1668  0.0474
33566SOL    HW2 4230   7.503   7.837   4.585 -1.8928 -1.6538 -1.0603
33567SOL     OW 4231   4.627   0.363  10.179 -0.1522  0.1571  0.1449
33567SOL    HW1 4232   4.652   0.279  10.140  0.5462  1.0122 -1.3686
33567SOL    HW2 4233   4.532   0.359  10.186 -0.2229 -0.3979 -0.8780
33568SOL     OW 4234   1.072   8.897   4.794  0.1296  0.3041 -0.1324
33568SOL    HW1 4235   1.108   8.810   4.775 -0.9604  0.0806 -1.2650
33568SOL    HW2 4236   0.993   8.879   4.845 -0.3617  0.5941 -0.7819
33569SOL     OW 4237   7.164   1.623   8.195  0.2956  0.1313 -0.2772
33569SOL    HW1 4238   7.172   1.576   8.112 -0.1321  0.2881 -0.4109
33569SOL    HW2 4239   7.136   1.711   8.170  1.0021  0.4386 -0.0192
33570SOL     OW 4240   5.532   7.485   0.111  0.3162  0.0857 -0.2183
33570SOL    HW1 4241   5.540   7.503   0.017  1.0585 -0.1634 -0.2053
33570SOL    HW2 4242   5.482   7.559   0.145  0.3310  0.3481 -0.7555
33571SOL     OW 4243   5.359   3.981   1.127  0.0973 -0.2384 -0.1575
33571SOL    HW1 4244   5.363   4.054   1.188 -0.2857  1.0901 -1.6463
33571SOL    HW2 4245   5.276   3.994   1.081 -0.1497 -1.8352 -0.2014
33572SOL     OW 4246   5.467   3.166   6.578 -0.5361  0.9443 -0.3093
33572SOL    HW1 4247   5.473   3.164   6.674  1.5775 -1.2720 -0.4039
33572SOL    HW2 4248   5.427   3.083   6.554  0.4913  0.7265 -1.3841
33573SOL     OW 4249   8.087   5.961   0.150  0.9583 -0.0215  0.3448
33573SOL    HW1 4250   8.110   6.015   0.074  0.8808 -0.1135  0.2564
33573SOL    HW2 4251   8.109   6.016   0.225  0.4736  0.3052  0.2505
33574SOL     OW 4252  10.025   6.607  10.537 -0.1264  0.0692  0.6053
33574SOL    HW1 4253   9.943   6.604  10.586 -0.9132  0.8095 -0.6068
33574SOL    HW2 4254  10.090   6.570  10.597 -1.1301  0.4699  2.0058
33575SOL     OW 4255   7.209   1.387   4.663 -0.3616 -0.4809  0.0557
33575SOL    HW1 4256   7.192   1.377   4.757 -2.0820  0.1983 -0.1532
33575SOL    HW2 4257   7.151   1.323   4.622  0.8509 -1.2295 -0.5462
33576SOL     OW 4258   4.489   3.623   0.320 -0.1672 -0.3681  0.0183
33576SOL    HW1 4259   4.394   3.632   0.314 -0.1322  2.0778  1.4725
33576SOL    HW2 4260   4.520   3.628   0.230 -1.3634  0.3578 -0.3697
33577SOL     OW 4261   6.120   0.260  10.765  0.2288  0.4836 -0.0709
33577SOL    HW1 4262   6.095   0.236  10.676  1.6826 -0.8995 -0.1416
33577SOL    HW2 4263   6.205   0.304  10.755  0.1403  0.8167  0.5911
33578SOL     OW 4264   4.709  10.191   5.483  0.1542  0.3150  0.2599
33578SOL    HW1 4265   4.667  10.130   5.544  0.2147 -0.8512 -0.8206
33578SOL    HW2 4266   4.803  10.174   5.492  0.1171 -1.3960 -1.5702
33579SOL     OW 4267   3.939   8.085   5.888  0.1189  0.4097  0.3266
33579SOL    HW1 4268   3.929   7.991   5.901 -2.2602  0.6194  0.3661
33579SOL    HW2 4269   4.013   8.093   5.827  1.6800 -1.3267  1.8705
33580SOL     OW 4270   0.187   2.963   6.089 -0.5412 -0.2234 -0.1104
33580SOL    HW1 4271   0.134   2.889   6.120 -0.3811 -0.6345 -0.8006
33580SOL    HW2 4272   0.172   2.965   5.995  0.3380 -0.0737 -0.2534
33581SOL     OW 4273   3.752   7.892   1.188  0.3249 -0.4624 -0.3096
33581SOL    HW1 4274   3.738   7.867   1.097  1.3913  1.6770 -1.1231
33581SOL    HW2 4275   3.663   7.895   1.225 -0.5866  2.4505 -2.3990
33582SOL     OW 4276   7.643   2.288   5.613  0.1944 -0.6497  0.3051
33582SOL    HW1 4277   7.550   2.300   5.633  0.2777  1.3233 -0.2783
33582SOL    HW2 4278   7.683   2.263   5.696 -0.8722 -1.6608  0.5309
33583SOL     OW 4279   9.652   9.019   8.042 -0.2822  0.5345 -0.5297
33583SOL    HW1 4280   9.593   8.981   7.977 -1.3308 -0.5938  1.0052
33583SOL    HW2 4281   9.724   8.956   8.048 -1.0798 -0.3159  0.6429
33584SOL     OW 4282   3.036  10.622   4.092  0.5293  0.1799 -0.2312
33584SOL    HW1 4283   2.987  10.705   4.093  1.2948  0.6324  0.4621
33584SOL    HW2 4284   3.082  10.623   4.008  0.7868  0.6141 -0.0903
33585SOL     OW 4285  10.798   0.844  10.031  0.2762 -0.1500  0.0316
33585SOL    HW1 4286  10.730   0.888   9.979 -0.1714  0.8425  1.3845
33585SOL    HW2 4287  10.792   0.885  10.117  1.1558 -1.5645  0.8086
33586SOL     OW 4288   5.846   4.827   2.201  0.1578 -0.0388 -0.2344
33586SOL    HW1 4289   5.819   4.822   2.293 -0.3547  0.5543 -0.3471
33586SOL    HW2 4290   5.937   4.798   2.202  0.6799  1.5195  0.6967
33587SOL     OW 4291   1.910   4.286   1.072  0.4365 -0.2123  0.5991
33587SOL    HW1 4292   1.953   4.204   1.095  0.0685 -0.0702  1.9077
33587SOL    HW2 4293   1.846   4.300   1.142 -1.0822  0.0622 -0.7687
33588SOL     OW 4294   3.436   8.442  10.746 -0.3043  0.0446  0.0346
33588SOL    HW1 4295   3.394   8.430  10.661  1.9280 -1.2125 -0.9620
33588SOL    HW2 4296   3.522   8.479  10.725  1.3840 -2.7734  1.4378
33589SOL     OW 4297   6.463   5.574   1.306  0.1048 -0.0317  0.5851
33589SOL    HW1 4298   6.558   5.563   1.310  0.0624 -1.3179 -0.8040
33589SOL    HW2 4299   6.440   5.541   1.219 -1.5835  0.5488  0.7883
33590SOL     OW 4300   0.492   0.895   0.843  0.3664  0.1561  0.6421
33590SOL    HW1 4301   0.541   0.919   0.765  0.6342 -1.4522  0.2722
33590SOL    HW2 4302   0.556   0.853   0.900  0.3110  1.8255  2.0244
33591SOL     OW 4303  11.079   0.513   4.375  0.1170  0.3163 -0.0159
33591SOL    HW1 4304  11.145   0.571   4.336 -0.7838  1.1676 -0.3158
33591SOL    HW2 4305  11.001   0.526   4.321 -1.0055  1.1108  1.7114
33592SOL     OW 4306   9.428   4.181   3.339  0.3264  0.0148 -0.4592
33592SOL    HW1 4307   9.385   4.260   3.372  2.8375  0.1442  3.1843
33592SOL    HW2 4308   9.430   4.122   3.414  0.8655 -2.4641 -2.3140
33593SOL     OW 4309   9.898   6.767  10.116  0.1614  0.1786 -0.0296
33593SOL    HW1 4310   9.878   6.803  10.030 -0.3035  0.4159  0.1731
33593SOL    HW2 4311   9.974   6.816  10.147 -0.3918  0.9088  0.1939
33594SOL     OW 4312   6.580   8.607   4.886  0.0091 -0.5580 -0.4169
33594SOL    HW1 4313   6.577   8.701   4.870 -0.7422 -0.4216  0.4181
33594SOL    HW2 4314   6.563   8.567   4.801 -0.3075  0.0735 -0.6527
33595SOL     OW 4315   5.013   6.215   8.405  0.1258  0.1352 -0.2919
33595SOL    HW1 4316   5.087   6.192   8.461 -0.0172 -0.2525 -0.2636
33595SOL    HW2 4317   4.966   6.133   8.392 -0.2238  0.3542 -0.4204
33596SOL     OW 4318   0.322   0.244   9.258 -0.2332  0.0533  0.2008
33596SOL    HW1 4319   0.305   0.150   9.245 -0.3057  0.0904  0.0262
33596SOL    HW2 4320   0.235   0.283   9.265 -0.1997  0.0294  0.8519
33597SOL     OW 4321   7.578   2.151   0.928  0.0412 -0.7368  0.0237
33597SOL    HW1 4322   7.583   2.144   0.833  0.0767 -1.1599  0.0543
33597SOL    HW2 4323   7.531   2.233   0.944 -2.2828 -1.8934 -0.4057
33598SOL     OW 4324   4.964   7.574   4.372 -0.0356  0.5767 -0.2317
33598SOL    HW1 4325   5.032   7.574   4.439  0.1987  2.4822 -0.4125
33598SOL    HW2 4326   4.884   7.551   4.419  0.3530  0.5386  0.4278
33599SOL     OW 4327   7.900   1.835   0.167  0.1399 -0.2860 -1.0977
33599SOL    HW1 4328   7.901   1.745   0.198  1.4690 -0.2361 -0.9603
33599SOL    HW2 4329   7.968   1.879   0.217  1.0701  0.2430 -2.7427
33600SOL     OW 4330   3.863   1.391   7.097  0.4664  0.5074  0.6301
33600SOL    HW1 4331   3.806   1.338   7.041  0.4866  2.4524 -1.3550
33600SOL    HW2 4332   3.802   1.436   7.156  0.3582 -0.7157  1.4928
33601SOL     OW 4333   7.224   0.863   5.192 -0.0377  0.0454  0.1011
33601SOL    HW1 4334   7.291   0.813   5.145  0.0133  0.5311 -0.3453
33601SOL    HW2 4335   7.142   0.839   5.149  0.0715  0.9027 -0.5897
33602SOL     OW 4336   5.470   7.798   2.958  0.9831 -0.1536  0.3282
33602SOL    HW1 4337   5.479   7.884   2.999 -0.3826  0.1339  0.0627
33602SOL    HW2 4338   5.411   7.812   2.884  0.0819 -1.4407  0.7522
33603SOL     OW 4339  10.303   5.198  10.747 -0.0240 -0.1988  0.0416
33603SOL    HW1 4340  10.384   5.167  10.788  1.1672  1.9406 -0.5523
33603SOL    HW2 4341  10.295   5.146  10.667  2.1481  1.1474 -1.1594
33604SOL     OW 4342  10.345   8.533   6.211  0.3305  0.2808 -0.1814
33604SOL    HW1 4343  10.280   8.598   6.184 -0.0192  0.2944  0.6496
33604SOL    HW2 4344  10.356   8.548   6.305  2.0099  0.6921 -0.4035
33605SOL     OW 4345  10.434   2.906   1.926 -0.0283 -0.2340 -0.6312
33605SOL    HW1 4346  10.482   2.989   1.933  0.2867 -0.4131 -0.6638
33605SOL    HW2 4347  10.388   2.913   1.842 -0.8986  0.3745 -0.1101
33606SOL     OW 4348   2.253   3.112   1.950 -0.1352  0.0352  0.4053
33606SOL    HW1 4349   2.225   3.152   2.032  0.2740  3.4844 -0.9663
33606SOL    HW2 4350   2.193   3.148   1.884  0.3754 -1.5884 -1.0275
33607SOL     OW 4351   8.482   4.401   0.715  0.3687 -0.1002  0.0753
33607SOL    HW1 4352   8.432   4.471   0.672 -1.1045 -0.3535  1.3105
33607SOL    HW2 4353   8.449   4.399   0.805  1.4382 -1.4086  0.4736
33608SOL     OW 4354   0.905   1.391  10.310  0.3316  0.1685  0.7122
33608SOL    HW1 4355   0.945   1.307  10.287  0.4250  0.2641  0.5235
33608SOL    HW2 4356   0.812   1.371  10.320  0.1045  0.3124 -0.7862
33609SOL     OW 4357   9.529   8.037   1.786  0.0271  0.3125 -0.2266
33609SOL    HW1 4358   9.576   8.037   1.703  0.4878 -1.6279 -0.0203
33609SOL    HW2 4359   9.584   8.089   1.845  1.2317 -0.7340 -0.3783
33610SOL     OW 4360   5.811   2.833   2.515  0.0692 -0.0572  0.2214
33610SOL    HW1 4361   5.907   2.836   2.519  0.1707 -0.2608 -1.5013
33610SOL    HW2 4362   5.792   2.779   2.438 -1.4214  1.1750 -0.3144
33611SOL     OW 4363   8.829   5.708   0.391  0.1836 -0.0206 -0.1376
33611SOL    HW1 4364   8.873   5.779   0.343 -1.5999  1.5427  0.3851
33611SOL    HW2 4365   8.816   5.639   0.326  2.3612 -0.0896 -0.5526
33612SOL     OW 4366   0.592   2.842   7.428  0.0937  0.4543 -0.9269
33612SOL    HW1 4367   0.685   2.823   7.438 -0.0332 -0.2032 -0.9369
33612SOL    HW2 4368   0.570   2.813   7.340  0.0664  1.4246 -1.2451
33613SOL     OW 4369  11.081   2.035   7.212 -0.0597 -0.4028 -0.6517
33613SOL    HW1 4370  11.171   2.066   7.205 -0.0262 -0.5653 -0.9643
33613SOL    HW2 4371  11.033   2.109   7.250  0.4971 -0.8547  1.0517
33614SOL     OW 4372   8.705   8.413   3.963  0.0397  0.0890 -0.2504
33614SOL    HW1 4373   8.706   8.353   4.037  0.0883 -1.0998 -1.1826
33614SOL    HW2 4374   8.736   8.361   3.889  2.8220  1.9800 -0.5717
33615SOL     OW 4375  11.037   9.063  10.025 -0.3073  0.0382 -0.4362
33615SOL    HW1 4376  10.977   9.126   9.985 -2.7674 -2.0241 -0.2738
33615SOL    HW2 4377  11.020   9.070  10.119 -0.7238 -0.9065 -0.4258
33616SOL     OW 4378   7.529   0.830   9.134 -0.0257 -0.1297 -0.4371
33616SOL    HW1 4379   7.455   0.798   9.186  0.4204 -0.3851  0.0492
33616SOL    HW2 4380   7.491   0.898   9.078  0.0365  2.3476  2.3530
33617SOL     OW 4381   8.552   1.192   9.762 -0.3726 -0.2081  0.5789
33617SOL    HW1 4382   8.607   1.213   9.838  0.5117 -0.2960 -0.0274
33617SOL    HW2 4383   8.544   1.097   9.763  0.1990 -0.2615  0.1794
33618SOL     OW 4384   9.764   2.117   9.732  0.6443  0.0807 -0.9045
33618SOL    HW1 4385   9.671   2.107   9.714  0.3725 -1.6938  1.0901
33618SOL    HW2 4386   9.769   2.184   9.801  1.0631  1.5721 -2.3138
33619SOL     OW 4387   0.565   8.992   6.964  0.1620  0.1113  0.2097
33619SOL    HW1 4388   0.575   9.038   6.881  0.6213 -1.8284 -0.8675
33619SOL    HW2 4389   0.523   9.056   7.022 -1.3752  1.1171 -1.8907
33620SOL     OW 4390  10.532   4.167   5.661 -0.2028  0.0501  0.3059
33620SOL    HW1 4391  10.509   4.131   5.747 -0.5993 -0.8241 -0.1483
33620SOL    HW2 4392  10.614   4.124   5.638 -0.5228 -0.3602 -0.1066
33621SOL     OW 4393   1.233  10.009   8.984  0.1604 -0.2854 -0.0094
33621SOL    HW1 4394   1.207   9.927   9.024  0.7594 -0.6992 -0.4479
33621SOL    HW2 4395   1.265  10.063   9.057 -0.5007 -0.3262  0.3158
33622SOL     OW 4396   5.916   9.257   9.718  0.6665  0.2869 -0.1726
33622SOL    HW1 4397   5.954   9.262   9.805 -0.0151  1.8089  0.0730
33622SOL    HW2 4398   5.901   9.348   9.693 -0.7467 -0.1871 -1.1693
33623SOL     OW 4399   5.681   5.620   3.130  0.1962  0.0842 -0.1709
33623SOL    HW1 4400   5.638   5.535   3.139  0.4099 -0.0311 -0.2452
33623SOL    HW2 4401   5.757   5.615   3.188 -0.6510  0.7893  1.0424
33624SOL     OW 4402   6.279   1.726   3.659 -0.1610 -0.4661 -0.7062
33624SOL    HW1 4403   6.346   1.794   3.658  0.1240 -0.6340  1.4957
33624SOL    HW2 4404   6.326   1.647   3.687 -1.5405 -0.1207  3.1354
33625SOL     OW 4405   0.160   2.859   4.142 -0.3203 -0.4910  0.6834
33625SOL    HW1 4406   0.199   2.852   4.055  1.7953  0.3834  1.5044
33625SOL    HW2 4407   0.153   2.768   4.173 -0.2068 -0.7430 -0.0203
33626SOL     OW 4408   4.158  10.863  10.781 -0.0322  0.3406 -0.2195
33626SOL    HW1 4409   4.155  10.896  10.691  0.9077  0.6090 -0.1685
33626SOL    HW2 4410   4.119  10.932  10.834 -1.8501 -0.3822 -0.5442
33627SOL     OW 4411   8.922   9.124   2.663 -0.2877  0.7725  0.2717
33627SOL    HW1 4412   8.981   9.177   2.717 -1.6376  0.7837  1.8303
33627SOL    HW2 4413   8.973   9.047   2.639  0.3967  0.8150  1.5119
33628SOL     OW 4414   2.757   3.441   1.435 -0.0656  0.0241 -0.2942
33628SOL    HW1 4415   2.703   3.373   1.396  2.3662 -0.8609 -2.4168
33628SOL    HW2 4416   2.847   3.415   1.414  1.1353  2.2106  1.6645
33629SOL     OW 4417   7.801   5.155   8.801  0.0374 -0.2299  0.3295
33629SOL    HW1 4418   7.740   5.195   8.862  0.8586  1.4733  0.1038
33629SOL    HW2 4419   7.796   5.210   8.723  1.1775 -0.5838 -0.0144
33630SOL     OW 4420   7.715   0.245   4.749  0.4011 -0.3035  0.2229
33630SOL    HW1 4421   7.798   0.224   4.790  0.7753  1.8338  0.6423
33630SOL    HW2 4422   7.693   0.167   4.697  1.8752 -1.4851  1.3170
33631SOL     OW 4423   9.158   5.228   3.215  0.6041 -0.2883 -0.0718
33631SOL    HW1 4424   9.122   5.273   3.292 -0.3510 -1.2935  0.0935
33631SOL    HW2 4425   9.253   5.239   3.223  0.4510  0.7346  0.5431
33632SOL     OW 4426   2.898  10.986   2.941 -0.4411 -0.0145  0.3881
33632SOL    HW1 4427   2.803  10.993   2.935 -0.3819  0.0361 -0.6652
33632SOL    HW2 4428   2.913  10.910   2.997 -1.1348 -1.2631 -1.0431
33633SOL     OW 4429   3.420   4.849   8.187  0.3222  0.1374  0.0378
33633SOL    HW1 4430   3.366   4.778   8.220 -0.0446  1.3050  2.0773
33633SOL    HW2 4431   3.372   4.882   8.111  0.3646 -1.5552 -0.7727
33634SOL     OW 4432   6.939   6.792   5.390  0.0920  0.5699 -0.2249
33634SOL    HW1 4433   6.933   6.848   5.312 -0.9942 -1.0311 -1.3522
33634SOL    HW2 4434   6.911   6.706   5.360  0.2981 -0.2623  1.8033
33635SOL     OW 4435   9.509   1.605   1.655 -0.4496 -0.2733  0.4905
33635SOL    HW1 4436   9.461   1.567   1.729 -0.5986  1.2644  1.2364
33635SOL    HW2 4437   9.493   1.699   1.663  1.6667  0.1769  0.0263
33636SOL     OW 4438   0.763  10.085   2.996  0.2654 -0.3027 -0.4736
33636SOL    HW1 4439   0.709  10.139   2.938 -1.0900  1.5342  2.2834
33636SOL    HW2 4440   0.706  10.066   3.070  2.0855 -2.0704  0.5554
33637SOL     OW 4441   5.228   4.353  10.527 -0.1457 -0.0466  0.3411
33637SOL    HW1 4442   5.305   4.386  10.480  0.4632 -1.8344  0.0101
33637SOL    HW2 4443   5.239   4.258  10.527 -3.2004 -0.5463 -1.2578
33638SOL     OW 4444   6.997   7.073   0.359 -0.0169 -0.1461  0.6098
33638SOL    HW1 4445   7.074   7.074   0.302 -0.5035 -1.5557 -0.1242
33638SOL    HW2 4446   6.975   7.165   0.372 -0.4207  0.2461 -2.2556
33639SOL     OW 4447  10.716   5.297   7.651 -0.0729 -0.1437  0.3527
33639SOL    HW1 4448  10.756   5.320   7.735 -0.8331  0.1695  0.6410
33639SOL    HW2 4449  10.632   5.343   7.651 -0.6487 -1.1707 -0.0279
33640SOL     OW 4450   7.378   4.670   8.780  0.0845  0.4932  0.6649
33640SOL    HW1 4451   7.301   4.632   8.737  0.9112 -1.7398  1.0231
33640SOL    HW2 4452   7.357   4.669   8.873 -0.2571  1.8828  0.6211
33641SOL     OW 4453   0.747   5.270   4.577  0.6554 -0.1499 -0.5292
33641SOL    HW1 4454   0.828   5.318   4.556 -1.4296  2.6761 -2.9467
33641SOL    HW2 4455   0.723   5.227   4.495 -0.2670 -1.0512  0.1916
33642SOL     OW 4456  10.468   1.758   2.064 -1.0184  0.2611 -0.2972
33642SOL    HW1 4457  10.534   1.720   2.122 -0.0659  0.6649 -1.0855
33642SOL    HW2 4458  10.457   1.848   2.095 -0.3165  0.5573 -0.8905
33643SOL     OW 4459   3.814  11.074   7.999  0.0044 -0.3061  0.7293
33643SOL    HW1 4460   3.722  11.053   8.017 -0.5623  0.7174 -0.8496
33643SOL    HW2 4461   3.841  11.011   7.932 -0.2707  0.8485 -0.5059
33644SOL     OW 4462   9.846   0.416   8.606 -0.2389 -0.2691 -0.4358
33644SOL    HW1 4463   9.833   0.398   8.699 -1.8129  0.7058 -0.4289
33644SOL    HW2 4464   9.767   0.464   8.580  1.1515  1.4430 -1.7488
33645SOL     OW 4465   2.973   6.584   2.033 -0.4433 -0.0186  0.6851
33645SOL    HW1 4466   2.905   6.521   2.009  0.5154 -0.9634  0.3968
33645SOL    HW2 4467   3.039   6.576   1.965  1.1504 -0.9496  2.2622
33646SOL     OW 4468  10.003   1.722   0.117 -0.1648 -0.0108  0.3891
33646SOL    HW1 4469   9.988   1.779   0.041 -0.0157 -0.5656 -0.0600
33646SOL    HW2 4470  10.047   1.645   0.081  0.2255 -0.1217  1.0989
33647SOL     OW 4471   2.909   6.188   2.347 -0.9182 -0.3230  0.0641
33647SOL    HW1 4472   2.859   6.121   2.394  0.3573 -1.0517  0.4219
33647SOL    HW2 4473   2.974   6.139   2.297  0.0517  0.6433  0.3429
33648SOL     OW 4474   2.843   5.787   2.129 -0.6540  0.1864  0.0887
33648SOL    HW1 4475   2.861   5.732   2.205 -2.0421 -1.3549 -0.6229
33648SOL    HW2 4476   2.887   5.744   2.057 -0.7134  0.7131 -0.2673
33649SOL     OW 4477   6.071   3.286   9.864  0.1767  0.1890  0.5582
33649SOL    HW1 4478   6.057   3.235   9.785  1.6774  1.2921 -0.4909
33649SOL    HW2 4479   6.160   3.263   9.892  0.8864  2.1494  0.0624
33650SOL     OW 4480   2.366   9.495   7.274 -0.3393 -0.0016  0.3875
33650SOL    HW1 4481   2.413   9.417   7.305  0.1093 -0.6366 -1.6996
33650SOL    HW2 4482   2.275   9.467   7.268 -0.2147 -0.3060 -0.1351
33651SOL     OW 4483   8.444   2.114   4.660 -0.5233 -0.2158 -0.5221
33651SOL    HW1 4484   8.369   2.163   4.625  0.2151 -0.8818 -3.3372
33651SOL    HW2 4485   8.517   2.175   4.652 -0.4666 -0.0946  0.7603
33652SOL     OW 4486   3.010   4.700   1.435 -0.1716  0.0222  0.3141
33652SOL    HW1 4487   2.969   4.616   1.457  1.8250 -1.8042 -2.2338
33652SOL    HW2 4488   2.962   4.731   1.359 -1.8385  2.0672  2.0913
33653SOL     OW 4489   7.668   9.995   2.836 -0.3639  0.0887  0.3021
33653SOL    HW1 4490   7.664   9.904   2.806 -0.1985  0.4004 -0.7387
33653SOL    HW2 4491   7.760  10.008   2.862  0.1501  0.5038 -1.5136
33654SOL     OW 4492   6.999   3.802   9.512  0.3849  0.2459 -0.0158
33654SOL    HW1 4493   7.030   3.800   9.421  0.6495 -0.7394  0.0766
33654SOL    HW2 4494   7.039   3.724   9.552  0.4045  0.7564  0.9863
33655SOL     OW 4495   3.612   7.570   9.769  0.5676  0.1105 -0.2524
33655SOL    HW1 4496   3.688   7.594   9.718 -0.1102  0.3940 -1.1589
33655SOL    HW2 4497   3.551   7.533   9.705  0.4966 -1.4577  0.6638
33656SOL     OW 4498   1.955  10.817   6.709 -0.1027  0.0648  0.5452
33656SOL    HW1 4499   1.969  10.761   6.633 -1.9163  0.3081 -0.0325
33656SOL    HW2 4500   1.872  10.785   6.746  0.2297  0.6259  1.8070
33657SOL     OW 4501   1.827   6.494   2.232 -0.0481 -0.2930 -0.0533
33657SOL    HW1 4502   1.759   6.526   2.172 -1.1061 -0.4325  1.0349
33657SOL    HW2 4503   1.786   6.421   2.278  0.6620 -0.0331  1.0205
33658SOL     OW 4504   6.044   9.933   2.616 -0.1346 -0.4300  0.0789
33658SOL    HW1 4505   5.989  10.002   2.577  0.8315  0.2223 -0.1617
33658SOL    HW2 4506   6.021   9.854   2.567  0.6822  0.2743 -1.4904
33659SOL     OW 4507   3.756  10.373   9.023 -0.3317 -0.0783 -0.0224
33659SOL    HW1 4508   3.737  10.298   9.080 -0.2329 -0.0212  0.0862
33659SOL    HW2 4509   3.812  10.430   9.076  2.3398 -1.4378 -1.1431
33660SOL     OW 4510   2.872   4.985   6.353 -0.0509 -0.5823 -0.2869
33660SOL    HW1 4511   2.936   4.920   6.382 -0.0556 -0.5846 -0.2815
33660SOL    HW2 4512   2.881   5.057   6.415 -0.2727 -0.7159 -0.0966
33661SOL     OW 4513   3.929   5.249   5.284 -0.0798 -0.2900 -0.0145
33661SOL    HW1 4514   3.870   5.269   5.357  1.1842 -0.3305  1.0608
33661SOL    HW2 4515   3.896   5.167   5.248  0.4446 -1.3774  1.8560
33662SOL     OW 4516   1.963   8.477   6.941 -0.2231  0.6153 -0.3861
33662SOL    HW1 4517   1.916   8.449   7.020  1.5862  1.8181  1.2019
33662SOL    HW2 4518   1.913   8.437   6.869 -0.7115 -2.4046  1.4101
33663SOL     OW 4519   7.032   9.612   0.910 -0.4934 -0.4114 -0.2359
33663SOL    HW1 4520   7.107   9.598   0.854  0.7294  0.8390  0.9985
33663SOL    HW2 4521   7.009   9.525   0.943  2.3914 -0.5571  1.7456
33664SOL     OW 4522   3.331   6.127   5.185 -0.1937 -0.2660  0.1608
33664SOL    HW1 4523   3.285   6.211   5.193 -0.9113 -0.3495 -2.3112
33664SOL    HW2 4524   3.265   6.061   5.206 -1.1485 -0.3496 -2.6507
33665SOL     OW 4525   8.639  10.288   7.715 -0.1148 -0.1703 -0.4287
33665SOL    HW1 4526   8.559  10.260   7.759 -1.4312  1.5584 -1.6077
33665SOL    HW2 4527   8.641  10.239   7.633 -1.1523  1.2925 -1.3818
33666SOL     OW 4528   2.979   1.561   4.833  0.1004  0.2964 -0.4586
33666SOL    HW1 4529   3.042   1.537   4.901 -0.6263  0.0845  0.1536
33666SOL    HW2 4530   3.021   1.632   4.785  0.5266  0.6169  0.3732
33667SOL     OW 4531   6.860   5.884   5.725  0.0827  0.5636  0.1794
33667SOL    HW1 4532   6.876   5.887   5.630 -1.5489 -0.2251 -0.1576
33667SOL    HW2 4533   6.766   5.867   5.732  0.5511 -1.6249  1.9258
33668SOL     OW 4534   6.984   7.879   6.794  0.5100 -0.3004 -0.0764
33668SOL    HW1 4535   6.974   7.974   6.783  1.5244 -0.0603  0.9329
33668SOL    HW2 4536   7.033   7.851   6.717 -0.5810 -0.1784 -0.8496
33669SOL     OW 4537   2.766   7.020   7.660 -0.4947  0.0399  0.1952
33669SOL    HW1 4538   2.709   7.096   7.671 -0.0458  0.3688  0.2447
33669SOL    HW2 4539   2.738   6.959   7.728 -2.3800 -0.7882 -1.2257
33670SOL     OW 4540   1.367  11.046   8.749 -0.6611 -0.0377 -0.2675
33670SOL    HW1 4541   1.346  11.123   8.802 -1.7496 -0.9646  0.6981
33670SOL    HW2 4542   1.333  10.972   8.799 -0.4812 -1.0728 -1.6136
33671SOL     OW 4543   7.181   0.519   7.304 -0.2477  0.3196 -0.3692
33671SOL    HW1 4544   7.143   0.605   7.289 -0.4825 -0.0506 -2.0167
33671SOL    HW2 4545   7.276   0.533   7.297 -0.2892  0.4329 -0.6929
33672SOL     OW 4546   5.905   5.795   2.088 -0.1939 -0.9416  0.0351
33672SOL    HW1 4547   5.825   5.825   2.129  0.4562 -0.3133  0.8689
33672SOL    HW2 4548   5.970   5.795   2.158  1.3352  1.6422 -1.2114
33673SOL     OW 4549   1.841   2.441   1.084 -0.3176  0.1065  0.2309
33673SOL    HW1 4550   1.899   2.400   1.150  1.6782 -0.5555 -1.8000
33673SOL    HW2 4551   1.828   2.372   1.019 -1.0742  1.1671 -0.7629
33674SOL     OW 4552   0.917   5.118   9.712 -0.8553  0.7709  0.0254
33674SOL    HW1 4553   0.974   5.190   9.741 -1.2190  1.5469 -1.1341
33674SOL    HW2 4554   0.830   5.143   9.742 -0.5558 -0.8486  2.6041
33675SOL     OW 4555   5.147   4.186   5.388  0.0868  0.6518 -0.1044
33675SOL    HW1 4556   5.240   4.209   5.386 -0.0231  1.0924 -0.9569
33675SOL    HW2 4557   5.104   4.259   5.342 -0.7763  0.8771  1.0317
33676SOL     OW 4558   1.950   0.162   5.853  0.0376  0.0033 -0.0146
33676SOL    HW1 4559   1.867   0.209   5.861 -0.0171  0.2569 -1.6233
33676SOL    HW2 4560   2.015   0.232   5.842  0.1659 -0.2286 -0.8318
33677SOL     OW 4561   3.335   2.440   2.138 -0.1479 -0.0594 -0.3335
33677SOL    HW1 4562   3.282   2.366   2.110 -0.6315  0.8120 -1.8163
33677SOL    HW2 4563   3.425   2.411   2.126 -0.3338 -0.3773 -0.9948
33678SOL     OW 4564   5.734   6.761   1.062 -0.4612 -0.0118  0.0064
33678SOL    HW1 4565   5.698   6.690   1.116 -0.8384 -0.5981 -0.9890
33678SOL    HW2 4566   5.796   6.806   1.120  0.6451 -1.8426  0.3295
33679SOL     OW 4567  10.473   4.918   7.798 -0.0201  0.0835  0.3824
33679SOL    HW1 4568  10.384   4.935   7.830 -0.7671 -0.7848 -1.1150
33679SOL    HW2 4569  10.481   4.823   7.799  0.2466  0.0597 -1.0662
33680SOL     OW 4570   0.809   7.774   3.074  0.1968 -0.5563  0.5331
33680SOL    HW1 4571   0.876   7.735   3.017 -1.0004 -0.6852 -0.8334
33680SOL    HW2 4572   0.727   7.739   3.041 -0.7858  1.6547  0.4557
33681SOL     OW 4573   3.330   3.220   8.748 -0.7356 -0.3597  0.2031
33681SOL    HW1 4574   3.306   3.311   8.734 -0.8416 -0.3137  0.6646
33681SOL    HW2 4575   3.267   3.169   8.698  0.4330 -0.1366 -1.5829
33682SOL     OW 4576   9.638   6.662   1.306 -0.2332 -0.2278  0.9593
33682SOL    HW1 4577   9.631   6.567   1.306  0.7466 -0.3183  1.3437
33682SOL    HW2 4578   9.714   6.680   1.362  1.4721  0.6187 -1.4416
33683SOL     OW 4579   5.252   9.512   4.755 -0.1848  0.3627  0.7833
33683SOL    HW1 4580   5.177   9.557   4.795 -0.0559  0.0863  1.3511
33683SOL    HW2 4581   5.215   9.468   4.679 -0.5399  0.4782  0.8845
33684SOL     OW 4582   8.410   7.298   4.344  0.2756 -0.1870 -0.1562
33684SOL    HW1 4583   8.453   7.381   4.323  0.4802 -0.2007  0.2028
33684SOL    HW2 4584   8.462   7.261   4.414 -0.6902  0.0996  0.7365
33685SOL     OW 4585   9.444   2.423   8.441 -0.0427 -0.0100 -0.1687
33685SOL    HW1 4586   9.357   2.405   8.404  0.1080  0.1115 -0.5943
33685SOL    HW2 4587   9.471   2.506   8.400  1.0752 -0.9959 -1.5111
33686SOL     OW 4588   8.901   5.947   7.955 -0.2776 -0.0104  0.3939
33686SOL    HW1 4589   8.807   5.942   7.974 -0.1525 -0.1282  0.9820
33686SOL    HW2 4590   8.923   5.861   7.920 -0.3875  0.0197  0.2474
33687SOL     OW 4591   3.454   5.676   5.534  0.5691 -0.0481  0.3850
33687SOL    HW1 4592   3.406   5.753   5.565  0.6091  1.0220 -1.9499
33687SOL    HW2 4593   3.405   5.601   5.567  0.0064  0.9805  1.9763
33688SOL     OW 4594   1.943   0.513   6.139  0.3926 -0.5677 -0.1288
33688SOL    HW1 4595   1.875   0.458   6.178  0.1120  0.7503  1.3314
33688SOL    HW2 4596   1.906   0.540   6.055  0.5438 -2.5536 -0.9004
33689SOL     OW 4597   1.483   4.441   6.912 -0.5988  0.5041 -0.1838
33689SOL    HW1 4598   1.429   4.367   6.941  0.1201  0.8251  2.2750
33689SOL    HW2 4599   1.421   4.505   6.879 -1.3768 -0.5637 -0.8446
33690SOL     OW 4600   0.325  11.053   4.146 -0.2040 -0.0956 -0.4487
33690SOL    HW1 4601   0.362  11.127   4.195 -1.0178  1.1122 -1.6075
33690SOL    HW2 4602   0.285  10.997   4.214  0.9026  0.2086  0.4965
33691SOL     OW 4603   1.254  10.715   5.833 -0.2084 -0.0239  0.3563
33691SOL    HW1 4604   1.317  10.645   5.816 -0.0831  0.4517 -1.4149
33691SOL    HW2 4605   1.281  10.786   5.775 -2.5783  0.0493 -0.8229
33692SOL     OW 4606   5.867   4.314   4.038  0.1992 -0.3452 -0.4667
33692SOL    HW1 4607   5.877   4.292   3.945 -1.6088  1.4409 -1.1430
33692SOL    HW2 4608   5.789   4.369   4.041  0.5236  0.0608  2.0640
33693SOL     OW 4609   3.389   7.820   3.453 -0.5547 -0.1439  0.3552
33693SOL    HW1 4610   3.362   7.911   3.437 -1.2026 -0.2087  1.0300
33693SOL    HW2 4611   3.484   7.822   3.447 -0.6316  0.3020 -1.0061
33694SOL     OW 4612   9.729   2.306   0.268  0.4605  0.1953  0.3374
33694SOL    HW1 4613   9.726   2.340   0.357 -0.0115  0.5794  0.1817
33694SOL    HW2 4614   9.746   2.383   0.213 -0.0427  0.0949  0.0296
33695SOL     OW 4615   4.529   5.462   5.553 -0.2329 -0.1230 -0.2162
33695SOL    HW1 4616   4.465   5.392   5.569  0.5018 -1.0358 -1.1291
33695SOL    HW2 4617   4.539   5.464   5.458  1.0026  0.1012 -0.0993
33696SOL     OW 4618   3.856   8.082   6.930 -0.1016 -0.2890 -0.1970
33696SOL    HW1 4619   3.874   8.164   6.976 -1.6876  0.6297 -1.1699
33696SOL    HW2 4620   3.870   8.014   6.997  2.6214  0.5874  0.2631
33697SOL     OW 4621   8.634   4.999   5.778 -0.7255 -0.4568 -0.4254
33697SOL    HW1 4622   8.708   4.939   5.770 -1.3588 -1.5082  1.1398
33697SOL    HW2 4623   8.656   5.053   5.854 -0.9829  0.0997 -0.7412
33698SOL     OW 4624   2.206  10.021   5.126  0.4180 -0.0086  0.4186
33698SOL    HW1 4625   2.142  10.012   5.055  1.5457 -0.2741 -0.6092
33698SOL    HW2 4626   2.255   9.939   5.125  0.7794  0.1851  1.1789
33699SOL     OW 4627   4.204   1.249   5.190  0.0304  0.3955 -0.1436
33699SOL    HW1 4628   4.269   1.307   5.150  2.4497 -1.4142  0.8505
33699SOL    HW2 4629   4.133   1.244   5.127  0.8718  2.4495 -1.3335
33700SOL     OW 4630   1.691   8.391   1.394 -0.5830 -0.5144 -0.2639
33700SOL    HW1 4631   1.606   8.348   1.389 -1.7893  1.5795  0.6593
33700SOL    HW2 4632   1.682   8.454   1.466  1.3460  0.6200 -0.9195
33701SOL     OW 4633   8.967   7.709   3.640  0.0577 -0.6847 -0.5342
33701SOL    HW1 4634   8.933   7.792   3.674  1.0411 -0.4898 -0.0002
33701SOL    HW2 4635   8.892   7.649   3.645 -0.4925  0.0028 -0.3551
33702SOL     OW 4636   6.058   5.187   4.511  0.0642 -0.2494  0.0441
33702SOL    HW1 4637   5.971   5.149   4.499  0.7790 -1.8465 -0.3693
33702SOL    HW2 4638   6.063   5.257   4.446 -0.9126 -0.1272  0.0924
33703SOL     OW 4639  10.380   9.816   4.121  0.3263  0.0481 -0.2067
33703SOL    HW1 4640  10.385   9.723   4.096 -0.6699 -0.2571  0.7008
33703SOL    HW2 4641  10.451   9.857   4.071 -0.5568 -0.8160 -2.2958
33704SOL     OW 4642  10.542   2.664   2.036 -0.2946 -0.5149 -0.6694
33704SOL    HW1 4643  10.504   2.734   1.983  1.2076  0.4871 -0.5036
33704SOL    HW2 4644  10.518   2.687   2.126 -0.7650 -0.8546 -0.7059
33705SOL     OW 4645   5.691   9.884  10.832 -0.2271 -0.6378 -0.7986
33705SOL    HW1 4646   5.638   9.934  10.894 -0.0099 -0.7594 -0.5094
33705SOL    HW2 4647   5.639   9.882  10.752 -1.5613 -2.4023  0.0397
33706SOL     OW 4648   2.993   0.380   7.420 -0.4253 -0.6770  0.0410
33706SOL    HW1 4649   3.017   0.398   7.511 -1.3798 -0.5697  0.2793
33706SOL    HW2 4650   2.963   0.289   7.421 -0.1171 -0.7833 -0.2386
33707SOL     OW 4651   0.298   9.112  10.794 -0.2225 -0.1502 -0.1942
33707SOL    HW1 4652   0.377   9.125  10.847 -1.2484  0.6232  1.2230
33707SOL    HW2 4653   0.327   9.122  10.704  1.7059 -2.0433  0.1293
33708SOL     OW 4654   9.988  10.307  11.107 -0.1491  0.3478  0.4774
33708SOL    HW1 4655   9.975  10.374  11.040  0.9418 -1.0756 -1.2460
33708SOL    HW2 4656  10.067  10.260  11.079  0.3760 -0.2812  2.8068
33709SOL     OW 4657   1.756  10.559   6.762 -0.4425 -0.1375  0.2796
33709SOL    HW1 4658   1.703  10.573   6.840 -0.9732 -0.6771  0.0289
33709SOL    HW2 4659   1.801  10.476   6.778  3.0509  1.8688  1.9700
33710SOL     OW 4660   2.146   2.821   0.265 -0.3294 -0.0667  0.1784
33710SOL    HW1 4661   2.186   2.870   0.336  1.6116 -0.8254 -0.2892
33710SOL    HW2 4662   2.115   2.740   0.305 -0.2674 -0.0023  0.3540
33711SOL     OW 4663  10.395   3.624   9.425 -0.3136 -0.7520  0.0892
33711SOL    HW1 4664  10.421   3.625   9.517 -0.2180  0.1149  0.0553
33711SOL    HW2 4665  10.444   3.695   9.385  0.5098 -1.8172 -0.8804
33712SOL     OW 4666   8.509   7.376   0.343 -0.0978  0.1824  0.6600
33712SOL    HW1 4667   8.442   7.339   0.286 -0.2892  0.0238  0.9868
33712SOL    HW2 4668   8.533   7.305   0.402 -0.1324  0.4407  0.9885
33713SOL     OW 4669  10.679   7.245  10.906  0.3606  0.1285 -0.2337
33713SOL    HW1 4670  10.650   7.239  10.815  1.3276 -0.3263 -0.5264
33713SOL    HW2 4671  10.760   7.193  10.909  0.4459  0.2992  0.8371
33714SOL     OW 4672   5.027   8.769   9.331 -0.0357  0.4961  0.4351
33714SOL    HW1 4673   4.973   8.813   9.396 -1.2157 -0.9557  0.5159
33714SOL    HW2 4674   5.046   8.684   9.370 -0.4024 -0.2383 -0.9017
33715SOL     OW 4675   8.344   3.584   8.765  0.0411 -0.2623 -0.3669
33715SOL    HW1 4676   8.277   3.650   8.782  2.2621  2.3793 -1.1581
33715SOL    HW2 4677   8.407   3.595   8.836  1.3448 -0.2711 -1.4839
33716SOL     OW 4678   6.763   6.357   8.564 -0.2050  0.0356 -0.1599
33716SOL    HW1 4679   6.768   6.321   8.652  1.4297  2.5043  0.8802
33716SOL    HW2 4680   6.848   6.335   8.525  0.4081  1.7338  0.1332
33717SOL     OW 4681   3.590   2.030   9.702 -0.1193  0.3374 -0.0289
33717SOL    HW1 4682   3.591   1.934   9.711 -1.2780  0.1746 -1.2226
33717SOL    HW2 4683   3.680   2.053   9.680  0.2266 -0.4561  0.5037
33718SOL     OW 4684   3.178   5.555  10.547 -0.1406  0.4230 -0.5791
33718SOL    HW1 4685   3.248   5.538  10.484  0.2133 -2.2344  0.3791
33718SOL    HW2 4686   3.218   5.607  10.616  0.9906 -1.1199 -0.0112
33719SOL     OW 4687   3.125   8.492   1.579 -0.0683  0.2842 -0.3516
33719SOL    HW1 4688   3.194   8.555   1.598 -0.0302  0.5909 -1.4210
33719SOL    HW2 4689   3.091   8.466   1.665 -0.2564  1.9560  0.1207
33720SOL     OW 4690   1.664   3.818   7.726  0.2904 -0.1833 -0.1296
33720SOL    HW1 4691   1.682   3.827   7.820  1.3116 -0.6817 -0.2619
33720SOL    HW2 4692   1.722   3.747   7.697 -0.7567 -0.7342 -0.9406
33721SOL     OW 4693   9.309   1.133   5.399  0.1346  0.1862 -0.1987
33721SOL    HW1 4694   9.305   1.229   5.407  0.6161  0.0533  3.0112
33721SOL    HW2 4695   9.225   1.110   5.358 -0.0251  1.9526 -0.9802
33722SOL     OW 4696   8.467   5.262   1.960 -0.0748 -0.5279 -0.6558
33722SOL    HW1 4697   8.392   5.291   1.908  0.6075  1.1269 -0.7822
33722SOL    HW2 4698   8.504   5.189   1.911 -1.6854 -1.4856 -0.5000
33723SOL     OW 4699  10.757   5.641   7.551 -0.0356  0.1123  0.0310
33723SOL    HW1 4700  10.797   5.652   7.637  2.0965  0.5311 -0.9289
33723SOL    HW2 4701  10.757   5.730   7.514  0.0778 -0.2314 -0.8005
33724SOL     OW 4702   5.719  11.092   8.152  0.5088  0.4096  0.2839
33724SOL    HW1 4703   5.678  11.122   8.233  3.2532  0.4012  1.7812
33724SOL    HW2 4704   5.751  11.004   8.173  1.1446  0.3542 -0.8545
33725SOL     OW 4705   4.883   4.991   7.540  0.1423 -0.7322 -0.0519
33725SOL    HW1 4706   4.964   4.977   7.491 -0.3951  0.4773 -1.3556
33725SOL    HW2 4707   4.818   5.011   7.473 -0.5470  1.3297  1.1566
33726SOL     OW 4708   8.559   0.133  10.287 -0.1174  0.5161 -0.1898
33726SOL    HW1 4709   8.554   0.226  10.306 -4.3071  0.2873  0.7720
33726SOL    HW2 4710   8.474   0.112  10.248  0.8673 -2.8167 -0.8457
33727SOL     OW 4711   9.817   5.122   7.291 -0.5084  0.3379  0.4783
33727SOL    HW1 4712   9.722   5.126   7.301 -0.5370  2.2895 -0.1469
33727SOL    HW2 4713   9.831   5.110   7.197 -0.1164 -0.9045  0.6762
33728SOL     OW 4714   0.437   9.089   9.949  0.5242  0.3673  0.1779
33728SOL    HW1 4715   0.523   9.110   9.984  0.1336  0.1852  1.2672
33728SOL    HW2 4716   0.381   9.161   9.977 -0.1862 -0.6470  1.4892
33729SOL     OW 4717  10.452   2.368   0.471  0.0458 -0.0115 -0.1851
33729SOL    HW1 4718  10.459   2.460   0.445  0.6226  0.9325  2.8822
33729SOL    HW2 4719  10.541   2.334   0.463 -0.0275 -0.0887 -0.6591
33730SOL     OW 4720   7.946   7.410   7.400  0.0935 -0.1841 -0.5401
33730SOL    HW1 4721   7.901   7.460   7.332 -1.9367 -0.9698  0.1468
33730SOL    HW2 4722   7.884   7.341   7.425  1.1103 -0.4624  1.4882
33731SOL     OW 4723   7.119   4.084   4.947  0.3501 -0.1116 -0.2141
33731SOL    HW1 4724   7.079   4.080   5.034 -0.1706 -0.1575 -0.4491
33731SOL    HW2 4725   7.159   3.998   4.934 -3.0777 -1.7100 -1.6343
33732SOL     OW 4726   2.373   9.337   8.923  0.3619  0.3824 -0.1214
33732SOL    HW1 4727   2.302   9.363   8.865  1.6439  0.0699 -1.9256
33732SOL    HW2 4728   2.422   9.417   8.940 -0.0942  0.5018  0.6934
33733SOL     OW 4729   6.656   0.568   1.380  0.2862  0.0799 -0.1054
33733SOL    HW1 4730   6.687   0.487   1.340  0.1360  0.1945 -0.4592
33733SOL    HW2 4731   6.595   0.604   1.316 -0.1751  0.1207  0.3524
33734SOL     OW 4732   8.353   4.901  10.922 -0.0737  0.3077 -0.6383
33734SOL    HW1 4733   8.422   4.835  10.925  0.4919  0.9020 -0.5301
33734SOL    HW2 4734   8.372   4.961  10.994 -2.8836 -1.6212  1.9905
33735SOL     OW 4735   5.973   8.997   1.710 -0.2372  0.4896 -0.6536
33735SOL    HW1 4736   6.053   8.953   1.741 -0.6768 -0.1844 -0.4309
33735SOL    HW2 4737   5.905   8.929   1.717 -0.8670  1.1115 -0.6495
33736SOL     OW 4738   0.057  10.842   6.302 -0.2836  0.7173 -0.1184
33736SOL    HW1 4739  -0.016  10.873   6.356 -0.1035  0.5889  0.2042
33736SOL    HW2 4740   0.081  10.758   6.340 -0.3557  0.4782 -0.5998
33737SOL     OW 4741   7.979   1.729  10.530 -0.0558 -0.3384 -0.4952
33737SOL    HW1 4742   8.010   1.683  10.453  0.0698  0.4744 -0.9364
33737SOL    HW2 4743   7.962   1.818  10.500  2.3864  0.7141  0.9499
33738SOL     OW 4744   0.061   9.440  10.296  0.3957 -0.1321  0.1315
33738SOL    HW1 4745   0.126   9.370  10.302  0.1591 -0.4218 -0.6144
33738SOL    HW2 4746   0.081   9.497  10.371  0.7088 -0.8870  0.6382
33739SOL     OW 4747   7.459   3.318   4.459 -0.9014 -0.0320  0.0379
33739SOL    HW1 4748   7.504   3.289   4.379  1.9468 -0.3416  1.6110
33739SOL    HW2 4749   7.470   3.413   4.460 -1.9294  0.1012 -0.4647
33740SOL     OW 4750   3.700   0.160   8.811 -0.5096 -0.5964 -0.9260
33740SOL    HW1 4751   3.617   0.163   8.859  0.5036 -1.2790  0.9821
33740SOL    HW2 4752   3.711   0.067   8.790 -0.9307 -0.3078 -2.5379
33741SOL     OW 4753   4.611   1.670   3.889 -0.4353  0.5596  0.0523
33741SOL    HW1 4754   4.694   1.624   3.903 -0.2743 -0.1842 -2.6267
33741SOL    HW2 4755   4.602   1.728   3.964  1.9317 -0.1897  1.0091
33742SOL     OW 4756   9.362   6.706   5.734 -0.2843 -0.4414  0.2136
33742SOL    HW1 4757   9.328   6.791   5.706 -1.4175 -0.4335  1.4799
33742SOL    HW2 4758   9.291   6.668   5.787  0.7544 -1.5358  0.8817
33743SOL     OW 4759   6.138   9.328   4.169  0.3564 -0.3729 -0.1455
33743SOL    HW1 4760   6.125   9.374   4.252  0.8474 -0.3436 -0.0824
33743SOL    HW2 4761   6.233   9.326   4.157  0.2619  0.4453 -1.1745
33744SOL     OW 4762   4.875   3.002   7.565  0.2673 -0.2745 -0.7836
33744SOL    HW1 4763   4.860   2.993   7.658 -2.0756  0.8062 -0.9919
33744SOL    HW2 4764   4.790   2.988   7.524  1.4601 -2.0065 -2.9051
33745SOL     OW 4765   7.035   5.978   9.133 -0.0781 -0.0074  0.9580
33745SOL    HW1 4766   7.103   5.927   9.090 -1.0758  0.1450 -0.9112
33745SOL    HW2 4767   7.011   5.927   9.210  0.1058 -1.5078  0.0406
33746SOL     OW 4768   8.592   7.758   0.187 -0.4070  0.1778  0.3768
33746SOL    HW1 4769   8.588   7.766   0.092  4.2063 -0.3077 -0.0967
33746SOL    HW2 4770   8.602   7.848   0.219  1.2870  0.1766 -0.0268
33747SOL     OW 4771   2.471   5.735   9.360  0.3959  0.5679  0.0242
33747SOL    HW1 4772   2.520   5.717   9.440 -0.3770 -0.6866  0.2332
33747SOL    HW2 4773   2.408   5.803   9.385 -0.9661 -0.9814  0.9512
33748SOL     OW 4774   8.758   5.782   9.681 -0.1523 -0.0747 -0.2208
33748SOL    HW1 4775   8.690   5.751   9.621  0.6477  0.4470 -1.4281
33748SOL    HW2 4776   8.788   5.702   9.726 -0.7322 -0.4780 -0.5342
33749SOL     OW 4777   1.064   4.243   9.520  0.3676  0.5224  0.5135
33749SOL    HW1 4778   1.068   4.170   9.582 -0.6245  0.5248  0.5918
33749SOL    HW2 4779   1.054   4.321   9.575  2.2857  0.8295  0.4765
33750SOL     OW 4780   0.431   8.305   7.076  0.2006 -0.3741  0.3655
33750SOL    HW1 4781   0.399   8.321   7.165  0.4719  0.9869  0.2415
33750SOL    HW2 4782   0.408   8.384   7.028  2.4621  0.0856 -0.0812
33751SOL     OW 4783   4.446   7.883   5.663 -0.4747  0.3247  0.6094
33751SOL    HW1 4784   4.489   7.821   5.605 -0.7489  1.7311 -1.1941
33751SOL    HW2 4785   4.355   7.887   5.631 -0.4750  1.5955  0.6882
33752SOL     OW 4786   3.078   1.894   8.827  0.4018 -0.3087  0.4077
33752SOL    HW1 4787   3.112   1.890   8.737 -0.7607 -2.6872  0.0052
33752SOL    HW2 4788   2.995   1.940   8.819  0.2698 -0.5730  0.2406
33753SOL     OW 4789   3.759   3.234   6.412 -0.4758 -0.1260 -0.2749
33753SOL    HW1 4790   3.745   3.167   6.479  2.0352  0.7816  1.2866
33753SOL    HW2 4791   3.756   3.317   6.461  0.5778  0.6140 -1.4267
33754SOL     OW 4792   0.788   0.882   6.792 -0.1416 -0.1984  0.2576
33754SOL    HW1 4793   0.702   0.857   6.757  0.3719 -0.2631 -1.0385
33754SOL    HW2 4794   0.851   0.847   6.728  0.7382  1.7985 -0.0472
33755SOL     OW 4795   1.320   0.599   2.723 -0.8546 -0.0990 -0.0980
33755SOL    HW1 4796   1.306   0.650   2.803 -0.5590 -0.3870  0.1451
33755SOL    HW2 4797   1.402   0.632   2.687 -0.7834 -0.2393 -0.0668
33756SOL     OW 4798   3.656   1.669   2.798  0.0614  0.5526  0.4426
33756SOL    HW1 4799   3.590   1.604   2.776  0.6497  0.1816 -0.2749
33756SOL    HW2 4800   3.642   1.740   2.735 -0.1789  0.8357  0.8171
33757SOL     OW 4801   7.452   2.464  11.026  0.9342 -0.3676 -0.1209
33757SOL    HW1 4802   7.435   2.551  10.991 -1.0717  0.9337  3.6023
33757SOL    HW2 4803   7.382   2.409  10.991  1.1775 -0.0976 -1.0605
33758SOL     OW 4804   4.196   8.885   3.962  0.4224  0.1953 -0.1140
33758SOL    HW1 4805   4.214   8.791   3.959  1.8081  0.4618 -1.1411
33758SOL    HW2 4806   4.278   8.926   3.936  0.2530  1.7706  1.6524
33759SOL     OW 4807   5.077   8.492  10.610 -0.4449  0.2964  0.0415
33759SOL    HW1 4808   5.140   8.500  10.681 -0.2097  0.5251 -0.1901
33759SOL    HW2 4809   5.010   8.433  10.644 -0.9982  1.4036  0.9316
33760SOL     OW 4810   2.479   8.532   5.730  0.1798 -0.0860  0.0015
33760SOL    HW1 4811   2.414   8.530   5.800  0.8941  0.9089  0.7261
33760SOL    HW2 4812   2.451   8.464   5.669 -1.3268  0.0786  0.4713
33761SOL     OW 4813   2.334   6.447   6.036  0.6925  0.2226 -0.4153
33761SOL    HW1 4814   2.331   6.448   6.131  1.2326  0.1029 -0.3915
33761SOL    HW2 4815   2.354   6.537   6.012 -1.1972  0.6648 -0.5050
33762SOL     OW 4816   4.139   0.889   2.743  0.5814  0.1982  0.3739
33762SOL    HW1 4817   4.111   0.802   2.715  0.1570  0.5243 -0.2401
33762SOL    HW2 4818   4.133   0.886   2.839  1.7158 -0.8140  0.4357
33763SOL     OW 4819   8.631   2.775   1.387 -0.0855  0.1028 -0.7672
33763SOL    HW1 4820   8.724   2.785   1.407  0.1675  0.0096 -1.8453
33763SOL    HW2 4821   8.613   2.682   1.400 -0.3542  0.3303  0.6947
33764SOL     OW 4822  10.571   7.934   2.487  0.1402  0.0508  0.2916
33764SOL    HW1 4823  10.477   7.924   2.477  0.2643 -2.5998  1.0162
33764SOL    HW2 4824  10.587   7.928   2.581  1.1837 -1.9668  0.0461
33765SOL     OW 4825   5.870   7.652   5.136 -0.1978  0.1054  0.0468
33765SOL    HW1 4826   5.948   7.625   5.185  0.0472 -0.8094 -0.8044
33765SOL    HW2 4827   5.902   7.715   5.072  0.0501 -1.0016 -0.9584
33766SOL     OW 4828  11.092  10.602   9.380  0.6909 -0.5077 -0.0453
33766SOL    HW1 4829  11.045  10.555   9.449 -4.1541  1.4988 -1.5287
33766SOL    HW2 4830  11.158  10.653   9.427 -1.1070 -0.6811  2.9669
33767SOL     OW 4831   5.994   1.876   4.079 -0.5650  0.6890 -0.3661
33767SOL    HW1 4832   5.999   1.782   4.064 -0.2325  0.4676  1.0055
33767SOL    HW2 4833   5.978   1.885   4.173  1.6441  2.0427 -0.0524
33768SOL     OW 4834   6.567   2.203   3.658  0.2949 -0.5610 -0.1288
33768SOL    HW1 4835   6.581   2.282   3.606 -0.5365  0.5682  1.2984
33768SOL    HW2 4836   6.499   2.227   3.721  1.5283 -1.7208  1.7474
33769SOL     OW 4837   6.332   0.894   5.719  0.0957 -0.4270 -0.0789
33769SOL    HW1 4838   6.292   0.969   5.762 -2.6971 -2.5489  1.3771
33769SOL    HW2 4839   6.317   0.909   5.625 -0.2711  0.8686  0.1704
33770SOL     OW 4840   1.256  10.357   8.966 -0.0178 -0.0418  0.4074
33770SOL    HW1 4841   1.326  10.338   9.028  0.2748  0.4099  0.2207
33770SOL    HW2 4842   1.181  10.383   9.020 -0.1521 -0.8396  0.6233
33771SOL     OW 4843   5.192   7.782   1.769 -0.6919  0.1191 -0.7541
33771SOL    HW1 4844   5.228   7.833   1.696  0.8984  0.3249  0.1432
33771SOL    HW2 4845   5.264   7.728   1.799 -1.6672 -0.8518 -0.0874
33772SOL     OW 4846   0.683   8.826   1.039 -0.2565 -0.0408  0.2330
33772SOL    HW1 4847   0.674   8.856   0.949 -0.4315 -0.0162  0.2564
33772SOL    HW2 4848   0.764   8.865   1.070  0.9095 -1.7465 -0.5683
33773SOL     OW 4849  10.038  10.659   6.451 -0.4752 -0.1252  0.2062
33773SOL    HW1 4850  10.061  10.616   6.533 -1.3076  0.2113  0.6285
33773SOL    HW2 4851  10.080  10.605   6.383  1.1261  0.1947  0.8886
33774SOL     OW 4852  10.666   3.075   1.705 -0.1407 -0.2933 -0.1808
33774SOL    HW1 4853  10.706   3.121   1.630  0.9140 -0.6379  0.1508
33774SOL    HW2 4854  10.634   2.993   1.668 -2.4644  0.8309 -0.8790
33775SOL     OW 4855  10.254   5.124   2.989  0.2677 -0.3361  0.2350
33775SOL    HW1 4856  10.283   5.033   2.985  1.0999 -0.1392  1.3278
33775SOL    HW2 4857  10.335   5.175   2.992 -0.1879  0.4255 -0.0616
33776SOL     OW 4858   0.337   4.900   1.288  0.5228 -0.2631 -0.4120
33776SOL    HW1 4859   0.373   4.984   1.319  0.9615 -0.3057 -0.7969
33776SOL    HW2 4860   0.350   4.902   1.193 -0.1397 -0.4513 -0.5123
33777SOL     OW 4861   7.175   4.771   0.772 -0.4555 -0.0469 -0.2303
33777SOL    HW1 4862   7.196   4.757   0.864  0.5612 -0.6866 -0.5381
33777SOL    HW2 4863   7.105   4.835   0.773 -2.3147 -1.9552  1.1035
33778SOL     OW 4864   9.990   9.649   6.020 -0.0177 -0.1938  0.1703
33778SOL    HW1 4865  10.080   9.615   6.016 -0.0914 -0.2380 -2.3652
33778SOL    HW2 4866   9.954   9.634   5.933 -1.7739  1.7959  0.4672
33779SOL     OW 4867   3.091  10.993   2.682 -0.5558  0.6906 -0.6819
33779SOL    HW1 4868   3.049  10.978   2.766 -2.7748  1.7260 -1.5383
33779SOL    HW2 4869   3.128  11.082   2.690  0.7320  0.1452 -0.2622
33780SOL     OW 4870   3.543   5.729   3.861 -0.0961 -0.1643 -0.1442
33780SOL    HW1 4871   3.463   5.741   3.810  1.1146  2.0205 -1.7211
33780SOL    HW2 4872   3.587   5.654   3.819 -1.3263 -1.4795  0.8337
33781SOL     OW 4873   0.520   8.692   9.819 -0.0238 -0.3541  0.3728
33781SOL    HW1 4874   0.489   8.704   9.729 -1.4267  0.0008  0.8776
33781SOL    HW2 4875   0.463   8.749   9.871  0.1429 -1.2805  1.5985
33782SOL     OW 4876   6.027   0.440   0.419 -0.4839  0.5717 -0.1537
33782SOL    HW1 4877   6.032   0.446   0.324 -0.8306  0.2329 -0.1974
33782SOL    HW2 4878   6.076   0.360   0.440 -1.4555 -0.0412 -0.1605
33783SOL     OW 4879  10.346   7.402   7.285 -0.6667  0.1922 -0.4649
33783SOL    HW1 4880  10.283   7.334   7.262 -0.6146 -0.1566  0.3657
33783SOL    HW2 4881  10.398   7.363   7.356  1.1127  0.0962 -1.7417
33784SOL     OW 4882   8.788   5.899   4.570  0.0082  0.7174 -0.5204
33784SOL    HW1 4883   8.783   5.987   4.608  0.5635  0.9839 -1.0588
33784SOL    HW2 4884   8.867   5.861   4.608 -0.1175  0.5240 -0.4493
33785SOL     OW 4885   1.338   5.815   5.930 -0.3405  0.0758 -0.4475
33785SOL    HW1 4886   1.331   5.877   6.002  1.5265 -1.2293  0.9789
33785SOL    HW2 4887   1.413   5.845   5.879  1.0898 -1.3194  0.7078
33786SOL     OW 4888   7.637   6.232   7.379 -0.0647 -0.5144  0.4148
33786SOL    HW1 4889   7.649   6.195   7.466  1.6164 -2.6757 -0.6242
33786SOL    HW2 4890   7.544   6.252   7.373 -0.8365 -3.3290  1.6236
33787SOL     OW 4891   8.601   7.677   2.714  0.0698 -0.8982 -0.8349
33787SOL    HW1 4892   8.576   7.754   2.765 -0.9802 -0.9273 -1.2898
33787SOL    HW2 4893   8.696   7.669   2.728  0.2538  0.6446 -1.0328
33788SOL     OW 4894   2.525  11.028   9.564 -0.0048  0.5757 -0.2407
33788SOL    HW1 4895   2.592  10.999   9.627  0.7486 -0.3387 -1.4140
33788SOL    HW2 4896   2.442  11.005   9.605  0.5150 -1.2789 -0.1463
33789SOL     OW 4897   6.581   0.150   7.600 -0.4032 -0.0178 -0.4047
33789SOL    HW1 4898   6.517   0.222   7.607  0.4996  0.6524  2.4885
33789SOL    HW2 4899   6.665   0.194   7.592  0.0281 -0.7633 -0.0557
33790SOL     OW 4900   7.034   4.496   6.645  0.4850  0.6037  0.1358
33790SOL    HW1 4901   6.966   4.439   6.608  1.4155  1.3724 -3.1264
33790SOL    HW2 4902   6.987   4.575   6.671 -0.0614  0.6784 -1.0025
33791SOL     OW 4903   4.581   2.171   8.574  0.2701 -0.0905 -0.2636
33791SOL    HW1 4904   4.608   2.191   8.485  0.3296  1.4797  0.0832
33791SOL    HW2 4905   4.655   2.200   8.628 -0.7695  1.2918  0.4642
33792SOL     OW 4906   4.828   9.730   6.666 -0.5255  0.3571  0.7159
33792SOL    HW1 4907   4.887   9.747   6.740  0.2802 -1.8579  0.6488
33792SOL    HW2 4908   4.870   9.772   6.591  0.1880  0.0908  0.9614
33793SOL     OW 4909   8.585   8.641   5.789 -0.0307 -0.0287 -0.4196
33793SOL    HW1 4910   8.546   8.697   5.857 -0.6889  0.3891 -1.1242
33793SOL    HW2 4911   8.550   8.553   5.808 -0.0206  0.0365 -0.0820
33794SOL     OW 4912  10.860   3.440   5.505  0.3512  0.1509 -0.5352
33794SOL    HW1 4913  10.931   3.443   5.441  0.7183 -0.6928 -0.1809
33794SOL    HW2 4914  10.791   3.391   5.462  0.9863 -1.3161  0.0712
33795SOL     OW 4915  10.593   3.555   8.586 -0.2137  0.9262  0.2961
33795SOL    HW1 4916  10.616   3.574   8.495  2.0174 -0.6147  0.4689
33795SOL    HW2 4917  10.562   3.465   8.585 -1.2476  1.2523  0.9346
33796SOL     OW 4918   3.963   5.794  10.874  0.5381 -0.1289 -0.1849
33796SOL    HW1 4919   3.950   5.740  10.796 -2.1661  0.2774 -0.1186
33796SOL    HW2 4920   4.022   5.863  10.846  1.3791 -1.2162 -1.2166
33797SOL     OW 4921   1.821   6.904  10.292  0.4810 -0.1240 -0.3037
33797SOL    HW1 4922   1.822   6.874  10.201  1.8426  0.8781 -0.6472
33797SOL    HW2 4923   1.912   6.925  10.311  0.2941 -0.7239  1.4522
33798SOL     OW 4924   2.675   0.973   0.582  0.4107  0.2307 -0.5968
33798SOL    HW1 4925   2.711   0.916   0.513  1.6785  0.9877 -0.5977
33798SOL    HW2 4926   2.631   0.912   0.642 -1.6426 -0.3567 -2.5631
33799SOL     OW 4927   7.187   4.793   1.039 -0.3008 -0.5846 -0.1259
33799SOL    HW1 4928   7.172   4.713   1.088  0.1657 -0.7122 -0.1903
33799SOL    HW2 4929   7.104   4.840   1.045 -0.1313 -0.4140  1.1077
33800SOL     OW 4930   2.898   9.483   1.147  0.6031 -0.0684  0.8607
33800SOL    HW1 4931   2.808   9.456   1.167  0.7708  0.0937  1.8776
33800SOL    HW2 4932   2.890   9.575   1.122  0.3406 -0.3770 -0.2502
33801SOL     OW 4933  10.687  11.037   6.497 -0.3689  0.4091 -0.2891
33801SOL    HW1 4934  10.617  11.033   6.562 -0.8779  0.2680 -0.8379
33801SOL    HW2 4935  10.672  11.119   6.451  0.2584  0.7282  0.0528
33802SOL     OW 4936   9.877   7.831   9.622  0.0858  0.0984 -0.0631
33802SOL    HW1 4937   9.960   7.878   9.610  0.0553  0.5667  1.3445
33802SOL    HW2 4938   9.860   7.837   9.716  0.3265 -3.1664  0.3000
33803SOL     OW 4939   4.141   0.941   8.172 -0.3305  0.0065  0.0421
33803SOL    HW1 4940   4.067   0.882   8.182 -1.4722  1.0433 -1.8092
33803SOL    HW2 4941   4.198   0.897   8.108 -1.2476  0.9055 -1.4418
33804SOL     OW 4942  10.571   5.360   8.521  0.2487  0.0720 -0.5900
33804SOL    HW1 4943  10.498   5.421   8.510  0.8631  1.2196  1.0670
33804SOL    HW2 4944  10.631   5.381   8.450 -0.6351 -0.3091 -1.4715
33805SOL     OW 4945   2.999   4.996   8.461 -0.0369  0.1392 -0.3153
33805SOL    HW1 4946   2.930   5.057   8.436  0.2103  0.2226 -0.8097
33805SOL    HW2 4947   3.036   5.032   8.541  0.9262  1.3187 -1.2463
33806SOL     OW 4948   8.453   1.814   0.742  0.7133  0.1780  0.3444
33806SOL    HW1 4949   8.545   1.786   0.752  0.9008 -0.1373 -1.7405
33806SOL    HW2 4950   8.408   1.736   0.708  0.0238  0.7922 -0.1739
33807SOL     OW 4951  10.240   8.718   2.627  0.1961 -0.8085 -0.0753
33807SOL    HW1 4952  10.248   8.650   2.695  0.4324  1.1519  1.9509
33807SOL    HW2 4953  10.305   8.784   2.652  0.1858  0.0441 -2.1631
33808SOL     OW 4954   8.697   2.426  10.689 -0.0150  0.0399  0.1506
33808SOL    HW1 4955   8.663   2.415  10.777 -0.5556 -0.2765 -0.0951
33808SOL    HW2 4956   8.718   2.338  10.659  1.6166  0.2767  0.5226
33809SOL     OW 4957   8.077   5.176   2.781  0.2133  0.1261 -0.2441
33809SOL    HW1 4958   8.002   5.232   2.765  1.1983  1.0342 -1.9623
33809SOL    HW2 4959   8.080   5.117   2.706  2.9148  2.1202 -1.8846
33810SOL     OW 4960   2.414   5.253   9.274 -0.8801 -0.0037  0.2307
33810SOL    HW1 4961   2.497   5.301   9.266  0.0597 -1.8752 -3.5679
33810SOL    HW2 4962   2.347   5.321   9.271  0.4604  1.3502 -0.5754
33811SOL     OW 4963   1.903   8.627  10.521 -0.0792 -0.5613  0.4274
33811SOL    HW1 4964   1.996   8.609  10.533  0.2407  1.5123  1.5239
33811SOL    HW2 4965   1.897   8.665  10.433  0.5469  1.4378  1.1820
33812SOL     OW 4966   4.667   7.891   4.097 -0.3448  0.7069  0.7500
33812SOL    HW1 4967   4.726   7.939   4.038 -0.6377  0.4347  0.2242
33812SOL    HW2 4968   4.707   7.805   4.107 -0.5349  0.5959  0.5704
33813SOL     OW 4969   0.040   8.239   4.798 -0.0666 -0.1325 -0.5498
33813SOL    HW1 4970  -0.009   8.309   4.754  0.1368  0.4123  0.0885
33813SOL    HW2 4971  -0.018   8.210   4.868 -0.1159 -0.5597 -0.7604
33814SOL     OW 4972   2.447   8.203   0.204  0.4371  0.2862 -0.2861
33814SOL    HW1 4973   2.479   8.282   0.248 -0.7037 -0.3783  1.8761
33814SOL    HW2 4974   2.460   8.133   0.267 -0.8548 -0.8168 -1.1824
33815SOL     OW 4975   9.917   7.883   3.799 -0.0909  0.4056  0.4266
33815SOL    HW1 4976   9.835   7.869   3.751  0.3474 -0.8587  0.0042
33815SOL    HW2 4977   9.947   7.795   3.820  0.6399  0.8927  1.4970
33816SOL     OW 4978   7.675   5.507   5.541 -0.2724  0.7939  0.3561
33816SOL    HW1 4979   7.716   5.469   5.463  0.1555  1.0643  0.4497
33816SOL    HW2 4980   7.581   5.506   5.521 -0.0940  1.9455 -0.6690
33817SOL     OW 4981   7.410   7.463   9.329  0.0461 -0.1873  0.0193
33817SOL    HW1 4982   7.339   7.525   9.316  0.4979  0.0080 -1.8786
33817SOL    HW2 4983   7.367   7.379   9.344 -0.5628  0.4545  2.2099
33818SOL     OW 4984   1.287   3.342   7.960  0.3940 -0.6302  0.0239
33818SOL    HW1 4985   1.254   3.415   7.908  0.0426 -0.2322  0.7977
33818SOL    HW2 4986   1.315   3.381   8.042 -0.3477 -1.4395  0.6878
33819SOL     OW 4987   1.532   9.131   4.112 -0.0311 -0.6938  0.0951
33819SOL    HW1 4988   1.532   9.226   4.120 -0.8296 -0.7324  0.6307
33819SOL    HW2 4989   1.440   9.107   4.101 -0.0039 -1.5193  1.4822
33820SOL     OW 4990   4.371  10.200   2.531  0.0804 -0.3494 -0.3253
33820SOL    HW1 4991   4.315  10.160   2.464 -0.7726  0.3870 -0.0648
33820SOL    HW2 4992   4.361  10.294   2.518  1.1845 -0.2008 -0.2022
33821SOL     OW 4993   3.418   4.504   6.944 -0.1172 -0.5154  0.1439
33821SOL    HW1 4994   3.394   4.538   6.858 -0.9910  0.7472  0.8590
33821SOL    HW2 4995   3.349   4.441   6.965  0.4287 -1.2867 -0.3246
33822SOL     OW 4996  10.319   3.354  11.088  0.2616  0.4665  0.5853
33822SOL    HW1 4997  10.258   3.280  11.089 -1.5582  1.9107  1.9654
33822SOL    HW2 4998  10.373   3.341  11.167  1.1191 -0.2574 -0.0914
33823SOL     OW 4999   6.415   2.028   2.796 -0.0535  0.1093 -0.1379
33823SOL    HW1 5000   6.386   2.077   2.718  0.1490 -1.4976 -1.2802
33823SOL    HW2 5001   6.508   2.013   2.781 -0.7348 -3.7277 -1.7429
33824SOL     OW 5002   6.228   8.971  11.062  0.1402 -0.6100  0.3302
33824SOL    HW1 5003   6.309   8.926  11.037 -0.0597 -2.0502  2.0636
33824SOL    HW2 5004   6.256   9.033  11.130 -0.2083 -1.1911  1.0128
33825SOL     OW 5005   6.404   5.168   3.999 -0.5524  0.1962  0.2149
33825SOL    HW1 5006   6.353   5.139   3.923 -0.0299 -0.8925  0.2533
33825SOL    HW2 5007   6.444   5.088   4.032 -0.6068  0.6908  1.5249
33826SOL     OW 5008   7.767   0.389   2.394  0.8791 -0.0706 -0.0981
33826SOL    HW1 5009   7.728   0.465   2.351  4.2889  1.5556 -0.6320
33826SOL    HW2 5010   7.791   0.421   2.482 -1.1975 -1.8037  1.2012
33827SOL     OW 5011   7.337   5.395   8.604 -0.0837 -0.5769 -0.1055
33827SOL    HW1 5012   7.400   5.327   8.580  1.2593  0.9138 -1.0081
33827SOL    HW2 5013   7.297   5.422   8.521 -1.1829 -0.7751  0.3327
33828SOL     OW 5014   9.424   3.584   7.933 -0.7089 -0.3005  0.2974
33828SOL    HW1 5015   9.387   3.633   7.860 -0.6311 -0.7079 -0.0193
33828SOL    HW2 5016   9.441   3.650   8.000  0.8534  0.3662 -0.6900
33829SOL     OW 5017  10.991   9.874   5.603 -0.1014 -0.5246  0.3076
33829SOL    HW1 5018  10.898   9.857   5.613  0.0847 -0.8313  1.7218
33829SOL    HW2 5019  11.027   9.790   5.572 -0.3158 -0.3505 -0.4186
33830SOL     OW 5020   3.219   5.370  10.088  0.0352  0.4013  0.2936
33830SOL    HW1 5021   3.309   5.373  10.056 -0.1276 -0.7444 -0.3257
33830SOL    HW2 5022   3.222   5.314  10.165 -0.4260 -1.1967 -0.8046
33831SOL     OW 5023   9.462   3.259   8.716  0.1570 -0.3228  0.2951
33831SOL    HW1 5024   9.483   3.343   8.758 -1.9025  0.4683 -0.1647
33831SOL    HW2 5025   9.451   3.198   8.789  2.5169 -0.4625  0.6120
33832SOL     OW 5026   5.088   5.112   0.034  0.1020 -0.3135  0.3097
33832SOL    HW1 5027   5.028   5.183   0.011 -0.1917  0.5006  3.2682
33832SOL    HW2 5028   5.037   5.056   0.092  0.8776 -2.0579 -0.6332
33833SOL     OW 5029  10.751  10.833   2.444  0.6721  0.2673  0.3355
33833SOL    HW1 5030  10.764  10.747   2.403  2.9084 -0.1417  1.6952
33833SOL    HW2 5031  10.751  10.895   2.371  0.6010 -0.7648 -0.5586
33834SOL     OW 5032   2.615   9.086   6.019 -0.0405 -0.2618 -0.2411
33834SOL    HW1 5033   2.648   9.034   5.945  1.0774  0.3103 -0.1546
33834SOL    HW2 5034   2.572   9.021   6.075 -0.0525 -0.8526 -0.9062
33835SOL     OW 5035   5.124  10.021   2.491  0.3578  0.1724  0.6606
33835SOL    HW1 5036   5.151   9.976   2.572 -0.4351 -1.5813 -0.0040
33835SOL    HW2 5037   5.170   9.974   2.421 -2.3308 -1.2717 -0.2654
33836SOL     OW 5038   9.908   5.596   0.999 -0.9077  0.2761 -0.1229
33836SOL    HW1 5039   9.861   5.535   0.941 -0.8985  1.2600 -1.2135
33836SOL    HW2 5040   9.962   5.540   1.054 -3.5341 -0.9454  1.4217
33837SOL     OW 5041   0.290   5.617   3.208  0.7903  0.1632  0.5015
33837SOL    HW1 5042   0.367   5.565   3.232  0.4095 -1.1440 -0.9434
33837SOL    HW2 5043   0.233   5.611   3.285  0.4723 -2.1991  0.1653
33838SOL     OW 5044   9.838   2.658   5.038  0.0739 -0.2391 -0.3689
33838SOL    HW1 5045   9.805   2.632   5.124  0.0183 -3.8548 -1.3273
33838SOL    HW2 5046   9.931   2.676   5.052  0.1409 -1.1434  0.4137
33839SOL     OW 5047   3.985   9.963   2.045 -0.6041 -0.3437 -0.4694
33839SOL    HW1 5048   4.001   9.919   2.128  0.7135  1.1915  0.1473
33839SOL    HW2 5049   3.936  10.042   2.069  2.0786  1.5293 -0.6976
33840SOL     OW 5050   7.983  10.676   3.753 -0.5102  0.7365 -0.5688
33840SOL    HW1 5051   7.978  10.757   3.702  0.5853 -0.2811 -2.3951
33840SOL    HW2 5052   8.023  10.612   3.694  1.9091 -0.2472  1.9123
33841SOL     OW 5053   0.747   8.654   0.731 -0.4337  0.4600  0.5522
33841SOL    HW1 5054   0.777   8.735   0.772 -0.9267  1.6182 -1.2555
33841SOL    HW2 5055   0.779   8.660   0.641 -1.6153 -0.7281  0.0245
33842SOL     OW 5056   1.634   7.014   2.472  0.3833 -0.2298  0.0486
33842SOL    HW1 5057   1.714   7.013   2.419 -0.9282  1.2548 -2.1362
33842SOL    HW2 5058   1.568   6.972   2.417 -0.2944 -1.8628  2.0040
33843SOL     OW 5059   3.944   1.295   7.831 -0.0926  0.3531  0.4439
33843SOL    HW1 5060   3.851   1.284   7.810 -0.0051  0.7858 -0.2037
33843SOL    HW2 5061   3.984   1.212   7.805 -0.2430  0.2862  0.4224
33844SOL     OW 5062   8.649   2.100   2.715 -0.0100  0.4820 -0.1427
33844SOL    HW1 5063   8.614   2.071   2.799  1.5562 -0.2997  0.2732
33844SOL    HW2 5064   8.741   2.122   2.733 -0.0605  1.8438 -1.3265
33845SOL     OW 5065   4.409   9.930   0.710  0.1403 -0.2023 -0.3574
33845SOL    HW1 5066   4.387  10.016   0.745  0.8566 -0.8483  1.8116
33845SOL    HW2 5067   4.375   9.931   0.621 -0.3159  2.1312 -0.2109
33846SOL     OW 5068   3.034   6.709   1.186  0.0340  0.0470 -0.8442
33846SOL    HW1 5069   3.076   6.788   1.152  1.1094 -0.0001  0.2965
33846SOL    HW2 5070   2.952   6.740   1.225  1.3662  0.9921  1.4178
33847SOL     OW 5071  11.021   3.677  10.099 -0.3598 -0.4439  0.5796
33847SOL    HW1 5072  11.092   3.656  10.159  0.4103  1.6496  0.4638
33847SOL    HW2 5073  11.052   3.648  10.013  1.2281  2.0544  0.2072
33848SOL     OW 5074   4.761  10.942   1.868  0.0024 -0.3152 -0.0368
33848SOL    HW1 5075   4.828  10.979   1.925 -1.1618  0.7529  0.7158
33848SOL    HW2 5076   4.743  11.012   1.805 -0.2733 -0.6605 -0.3458
33849SOL     OW 5077   5.883   0.939   6.711 -0.3693 -0.0263 -0.5871
33849SOL    HW1 5078   5.791   0.915   6.702 -0.4988  0.4172 -0.4435
33849SOL    HW2 5079   5.921   0.869   6.764 -0.9017  0.4472  0.4455
33850SOL     OW 5080   7.579   5.000   2.040 -0.4917 -0.0367 -0.3919
33850SOL    HW1 5081   7.496   5.000   2.087  0.4491 -0.0699  1.3473
33850SOL    HW2 5082   7.574   5.077   1.983 -1.3725  0.4723  0.3503
33851SOL     OW 5083   1.172   7.885   3.393 -0.2628 -0.2747 -0.1109
33851SOL    HW1 5084   1.120   7.899   3.473 -0.9118 -0.2078 -0.5371
33851SOL    HW2 5085   1.262   7.898   3.421 -0.5793  1.1826  0.3146
33852SOL     OW 5086   0.015   8.646   6.718  0.1186  0.2469  0.7919
33852SOL    HW1 5087   0.025   8.690   6.803  1.4555 -1.0815  1.3796
33852SOL    HW2 5088  -0.063   8.592   6.728  0.9291 -0.8226  1.6529
33853SOL     OW 5089   9.965   8.763   5.618 -0.0203  0.6024  0.4129
33853SOL    HW1 5090  10.036   8.740   5.558 -1.5788 -0.6723 -1.0440
33853SOL    HW2 5091   9.945   8.855   5.597  0.4273  0.6126  0.0088
33854SOL     OW 5092   9.400   4.794   2.267 -0.4435 -0.7366  0.2893
33854SOL    HW1 5093   9.480   4.807   2.317 -0.7263 -0.2711  0.6380
33854SOL    HW2 5094   9.340   4.862   2.301  0.2016  1.3758 -2.4626
33855SOL     OW 5095   4.484  10.240   7.270  0.4062 -0.7639 -0.1143
33855SOL    HW1 5096   4.435  10.177   7.323 -0.0149 -0.5399 -0.2338
33855SOL    HW2 5097   4.568  10.250   7.316 -0.7353  1.0713  1.7563
33856SOL     OW 5098   3.173   4.340   6.559 -0.4533 -0.6706 -0.8170
33856SOL    HW1 5099   3.108   4.395   6.602  1.0234 -0.4420  1.2939
33856SOL    HW2 5100   3.130   4.256   6.548 -1.6105 -0.0815 -0.9211
33857SOL     OW 5101   4.183   4.635   9.308  0.1582 -0.1929 -0.6809
33857SOL    HW1 5102   4.168   4.724   9.277  0.2372 -0.1472 -0.5879
33857SOL    HW2 5103   4.278   4.625   9.312  0.3335  1.1885  3.3672
33858SOL     OW 5104   1.193   2.898   0.685 -0.0795  0.1770  0.4774
33858SOL    HW1 5105   1.233   2.835   0.744 -2.5547 -1.1102  0.9287
33858SOL    HW2 5106   1.111   2.857   0.658 -0.4164  1.9793 -1.5727
33859SOL     OW 5107   3.072   3.649   1.636 -0.3738 -0.1360 -0.4455
33859SOL    HW1 5108   3.055   3.577   1.575  0.0916 -0.8612  0.2585
33859SOL    HW2 5109   3.063   3.728   1.582 -1.4237 -0.6804 -1.1086
33860SOL     OW 5110   9.831   0.160   8.019  0.0192 -0.3123  0.6266
33860SOL    HW1 5111   9.784   0.135   7.940 -0.7027  0.6328  0.7380
33860SOL    HW2 5112   9.894   0.226   7.990  0.0859 -0.3165  0.7595
33861SOL     OW 5113   7.175   3.668   7.028  0.0088  0.2284 -0.0346
33861SOL    HW1 5114   7.246   3.732   7.033  0.7623 -0.6623  1.3188
33861SOL    HW2 5115   7.096   3.721   7.015  0.7009  1.3576  0.1959
33862SOL     OW 5116   0.792   3.442   7.016 -0.1222 -0.4469 -0.4509
33862SOL    HW1 5117   0.841   3.359   7.021 -0.4781 -0.6537 -0.3589
33862SOL    HW2 5118   0.840   3.494   6.952  0.5241 -0.4415  0.0243
33863SOL     OW 5119  10.789   0.924  11.121  0.0217 -0.5615  0.8106
33863SOL    HW1 5120  10.778   1.006  11.072  0.0387 -1.2791 -0.4548
33863SOL    HW2 5121  10.749   0.941  11.206  0.3660  0.8766  0.7058
33864SOL     OW 5122   2.040   6.156   9.818 -0.2641  0.6659 -0.0826
33864SOL    HW1 5123   2.019   6.063   9.822 -0.3394  0.6910  0.1282
33864SOL    HW2 5124   1.996   6.188   9.739 -0.7137  0.6427  0.1553
33865SOL     OW 5125   1.276   3.374   7.032 -0.6072 -0.0118 -0.3916
33865SOL    HW1 5126   1.276   3.398   7.125  0.4991  0.7406 -0.5668
33865SOL    HW2 5127   1.215   3.437   6.992 -0.6197  0.0524 -0.2734
33866SOL     OW 5128   3.556   3.563  10.260  0.2232  0.4490  0.5238
33866SOL    HW1 5129   3.465   3.593  10.256  0.1264  0.0823 -0.1502
33866SOL    HW2 5130   3.553   3.475  10.222  0.8110  0.3187  0.7763
33867SOL     OW 5131   1.246   3.094   5.221 -0.4315  0.0718  0.2873
33867SOL    HW1 5132   1.153   3.106   5.242 -0.5017 -0.6090  0.3774
33867SOL    HW2 5133   1.247   3.020   5.161  0.2685 -1.6228  2.2747
33868SOL     OW 5134   9.016   1.048  10.969 -0.1201 -0.2274 -0.2110
33868SOL    HW1 5135   9.082   1.113  10.991 -0.6362  0.4826 -0.7275
33868SOL    HW2 5136   9.046   1.010  10.886 -1.3142  1.4726 -1.4881
33869SOL     OW 5137   8.197  10.492   5.521 -0.1721  0.1981 -0.3307
33869SOL    HW1 5138   8.222  10.511   5.612 -0.2918  0.1230 -0.2821
33869SOL    HW2 5139   8.266  10.533   5.469 -0.1094  0.2542 -0.2065
33870SOL     OW 5140   6.480   8.473   9.385  0.0805  0.2007  0.2429
33870SOL    HW1 5141   6.568   8.508   9.399 -0.5286  3.0551 -1.9906
33870SOL    HW2 5142   6.428   8.511   9.455  0.1721  0.6568  0.0698
33871SOL     OW 5143   4.275  10.222  10.647  0.1548 -0.4795  0.3100
33871SOL    HW1 5144   4.357  10.229  10.597 -0.7984  1.1057 -1.0907
33871SOL    HW2 5145   4.303  10.190  10.733  2.1775 -0.4868 -0.2979
33872SOL     OW 5146   9.531   2.082   6.905  0.4248 -0.4996 -0.2468
33872SOL    HW1 5147   9.563   2.086   6.815 -2.4587 -0.1793 -1.3789
33872SOL    HW2 5148   9.451   2.134   6.904 -1.7478 -3.4739  1.4993
33873SOL     OW 5149   3.818   0.009   2.963  0.0219 -0.4473 -0.6576
33873SOL    HW1 5150   3.833   0.098   2.931 -0.7489 -0.8431 -2.2059
33873SOL    HW2 5151   3.743  -0.022   2.912 -0.0227 -1.8188  0.2058
33874SOL     OW 5152   0.773   0.897   3.485  0.0038  0.3966 -0.1365
33874SOL    HW1 5153   0.720   0.841   3.428 -0.0278 -0.1645  0.4302
33874SOL    HW2 5154   0.855   0.848   3.496 -1.0097 -0.8962  2.5359
33875SOL     OW 5155   4.278   1.479  10.481 -0.4017 -0.0955 -0.4415
33875SOL    HW1 5156   4.367   1.500  10.453  0.0060 -0.4421  0.5479
33875SOL    HW2 5157   4.239   1.565  10.501  0.1354 -0.0210  0.3281
33876SOL     OW 5158   9.653   1.204   3.045 -0.1354  0.4330  0.3274
33876SOL    HW1 5159   9.646   1.167   3.133  1.3430  0.3685  0.4385
33876SOL    HW2 5160   9.662   1.128   2.988  2.5629  0.5247  0.5212
33877SOL     OW 5161   7.516  10.882   2.568 -0.0218  0.3419  0.1131
33877SOL    HW1 5162   7.528  10.867   2.475  2.2679  1.0304  0.2374
33877SOL    HW2 5163   7.495  10.975   2.576 -0.0368  0.3252  0.2914
33878SOL     OW 5164  11.097   7.224  11.014  0.0853 -0.0013 -0.2032
33878SOL    HW1 5165  11.184   7.186  11.021  0.2066 -0.0307 -1.6296
33878SOL    HW2 5166  11.052   7.172  10.947 -1.0420 -0.0032  0.5209
33879SOL     OW 5167   4.407   1.707   8.722  0.0348  0.0360 -0.6397
33879SOL    HW1 5168   4.343   1.748   8.781  1.1588 -1.0114  1.4239
33879SOL    HW2 5169   4.484   1.695   8.776  0.2685 -3.4115 -1.5374
33880SOL     OW 5170   1.232   7.185   1.213 -0.5733 -0.2853  0.4770
33880SOL    HW1 5171   1.201   7.112   1.266  0.1277 -1.4012 -0.5907
33880SOL    HW2 5172   1.295   7.231   1.270  0.3456 -1.5955  0.5589
33881SOL     OW 5173   7.691   1.892  11.098 -0.1998 -0.0378  0.1061
33881SOL    HW1 5174   7.756   1.885  11.168 -2.8517 -1.1552  2.6743
33881SOL    HW2 5175   7.689   1.806  11.058  1.8594  0.8013 -2.0730
33882SOL     OW 5176   4.754   5.533   4.588 -0.5297 -0.2660  0.0103
33882SOL    HW1 5177   4.825   5.591   4.616  1.8899 -2.1892 -1.6737
33882SOL    HW2 5178   4.719   5.497   4.669  0.3393  0.8219  0.9011
33883SOL     OW 5179   1.013   3.712   0.922 -0.2438  0.0544 -0.1678
33883SOL    HW1 5180   0.925   3.719   0.884 -0.7562 -2.4810  0.3749
33883SOL    HW2 5181   1.026   3.795   0.968 -0.5046  2.3603 -3.8132
33884SOL     OW 5182   7.093  10.255   3.966  0.1061  0.3252  0.4192
33884SOL    HW1 5183   7.041  10.293   4.037 -3.2392 -1.4877 -0.8129
33884SOL    HW2 5184   7.064  10.302   3.888 -0.1130 -1.1029 -0.3909
33885SOL     OW 5185   8.979   4.313   5.289  0.2129  0.6455  0.4233
33885SOL    HW1 5186   9.001   4.401   5.319  0.0217  0.4571  1.1368
33885SOL    HW2 5187   9.056   4.283   5.241  1.4723  0.0754  2.6654
33886SOL     OW 5188   5.321  10.369   8.229 -0.8167  0.2138 -0.5330
33886SOL    HW1 5189   5.331  10.284   8.187  1.9659  0.2424 -0.0658
33886SOL    HW2 5190   5.241  10.361   8.281  0.1456 -2.6282  0.6674
33887SOL     OW 5191   9.420  10.829   1.193 -0.1025  0.1637  0.0200
33887SOL    HW1 5192   9.392  10.920   1.204 -0.2611 -0.1268  2.7539
33887SOL    HW2 5193   9.431  10.796   1.283 -0.9746 -2.7958 -0.8305
33888SOL     OW 5194   5.974   5.706   8.602 -0.1001  0.2680 -0.3944
33888SOL    HW1 5195   6.062   5.678   8.576  0.4211  1.4365  0.0580
33888SOL    HW2 5196   5.953   5.653   8.679  0.7066  0.8186  0.2116
33889SOL     OW 5197   3.490   7.736   8.088  0.1025  0.2798 -0.6848
33889SOL    HW1 5198   3.479   7.696   8.001 -0.1629 -2.2228  0.4094
33889SOL    HW2 5199   3.563   7.688   8.127 -0.5782  0.4850  0.9293
33890SOL     OW 5200   1.479   0.537  10.261  0.0788 -0.4424 -0.1473
33890SOL    HW1 5201   1.440   0.605  10.317 -0.0363  0.3730 -1.1881
33890SOL    HW2 5202   1.422   0.461  10.271 -0.3446 -0.0715  0.2837
33891SOL     OW 5203   9.796  10.970   1.304 -0.0319  0.7931 -0.1120
33891SOL    HW1 5204   9.855  11.040   1.275 -1.4506  1.7244 -0.8828
33891SOL    HW2 5205   9.767  10.929   1.222 -0.7164  0.5898  0.2315
33892SOL     OW 5206   3.877   8.015   1.400  0.0745 -0.4367 -0.6186
33892SOL    HW1 5207   3.875   7.993   1.307 -0.3190  0.4265 -0.8215
33892SOL    HW2 5208   3.785   8.023   1.425  0.1760 -0.8921 -0.0996
33893SOL     OW 5209   6.342   6.787   3.300 -0.3395 -0.1449  0.6512
33893SOL    HW1 5210   6.433   6.795   3.270 -0.9676 -1.0230 -1.7815
33893SOL    HW2 5211   6.332   6.694   3.322 -0.6666 -0.0792  0.7856
33894SOL     OW 5212   3.739   2.004   3.439 -0.2106  1.0696 -0.1487
33894SOL    HW1 5213   3.829   1.980   3.415 -0.1854  1.1196 -0.1028
33894SOL    HW2 5214   3.697   1.920   3.458 -0.6717  0.8610 -1.8772
33895SOL     OW 5215   1.014   1.269   4.378  0.2681  0.0549 -0.4272
33895SOL    HW1 5216   1.060   1.213   4.315 -0.9019 -1.9014  0.3433
33895SOL    HW2 5217   0.929   1.286   4.338  0.4605  0.9751 -0.4681
33896SOL     OW 5218  10.913   2.772   0.696  0.0279  0.0102 -0.0089
33896SOL    HW1 5219  10.946   2.859   0.716 -0.1214  0.1745 -0.4636
33896SOL    HW2 5220  10.850   2.754   0.765  1.6017 -0.6311  1.3326
33897SOL     OW 5221   8.977   1.723   3.135  0.2455 -0.3456  0.0852
33897SOL    HW1 5222   8.905   1.687   3.083  0.5803  0.2939 -0.8454
33897SOL    HW2 5223   8.935   1.756   3.214 -0.7129  1.2358 -1.0340
33898SOL     OW 5224   3.244   5.638   2.153  0.2105  0.5266 -0.1492
33898SOL    HW1 5225   3.165   5.606   2.196 -0.2222  0.8049 -0.7334
33898SOL    HW2 5226   3.285   5.559   2.118 -1.4589  0.6400 -2.6119
33899SOL     OW 5227   1.449   9.747   1.383 -0.2338 -0.2018  0.2555
33899SOL    HW1 5228   1.497   9.830   1.389 -0.3211 -0.1281 -0.0096
33899SOL    HW2 5229   1.468   9.702   1.465 -1.8126  0.9645  1.3362
33900SOL     OW 5230   4.793   4.940   4.428 -0.1107 -0.5477  0.0660
33900SOL    HW1 5231   4.807   4.962   4.520 -2.3646  0.9326  0.1183
33900SOL    HW2 5232   4.866   4.982   4.382  0.2902 -0.1553  1.0221
33901SOL     OW 5233   6.890   7.455   8.744 -0.3597 -0.5354  0.2032
33901SOL    HW1 5234   6.959   7.516   8.718  0.1954 -1.0076  0.5667
33901SOL    HW2 5235   6.837   7.443   8.665 -0.6896  0.6904  0.2151
33902SOL     OW 5236   7.228   5.443   0.081  0.3010  0.3329  0.0825
33902SOL    HW1 5237   7.305   5.389   0.100  0.3516  0.7014  0.9753
33902SOL    HW2 5238   7.264   5.529   0.061  0.1852  0.1979 -0.7399
33903SOL     OW 5239   7.719  10.960  10.645 -0.8342  0.0736 -0.3928
33903SOL    HW1 5240   7.782  10.890  10.664 -1.2670 -0.2380 -0.1018
33903SOL    HW2 5241   7.772  11.040  10.643 -0.4550 -0.1647  0.0155
33904SOL     OW 5242  10.504   3.343   4.601  0.7727  0.5206 -0.1938
33904SOL    HW1 5243  10.427   3.302   4.563  1.4435 -0.9561 -0.0432
33904SOL    HW2 5244  10.474   3.428   4.632 -1.0110 -0.3570  0.6245
33905SOL     OW 5245   5.887   6.205   6.665 -0.4661 -0.2324  0.5400
33905SOL    HW1 5246   5.975   6.240   6.651 -0.1551 -0.7517  1.1443
33905SOL    HW2 5247   5.901   6.130   6.723 -1.3386 -0.1367  0.8777
33906SOL     OW 5248   4.071   6.590   5.296 -0.1101 -0.1352 -1.1895
33906SOL    HW1 5249   4.117   6.562   5.217 -0.2651  0.8604 -1.6500
33906SOL    HW2 5250   3.984   6.551   5.287 -0.0557 -0.2130 -1.4020
33907SOL     OW 5251   1.385   9.400   8.219  0.0909  0.3816  0.2992
33907SOL    HW1 5252   1.380   9.494   8.202  0.5037  0.2096 -0.8459
33907SOL    HW2 5253   1.459   9.390   8.278 -0.5625  0.8605  1.2352
33908SOL     OW 5254   0.063   8.812  10.047 -0.4738 -0.8530 -0.5393
33908SOL    HW1 5255   0.030   8.767  10.124  0.2357  0.3926  0.5371
33908SOL    HW2 5256   0.021   8.898  10.049  1.0859 -0.0561 -0.3605
33909SOL     OW 5257   9.554   1.941   1.906  0.0002 -0.5748 -0.0345
33909SOL    HW1 5258   9.482   2.000   1.927  0.7818  0.3938  0.0133
33909SOL    HW2 5259   9.552   1.933   1.811  0.5700  0.4623 -0.1551
33910SOL     OW 5260  10.876   3.465   4.411 -0.2012  0.2061 -0.2276
33910SOL    HW1 5261  10.915   3.380   4.431  0.2718 -0.1666 -2.4792
33910SOL    HW2 5262  10.892   3.518   4.488  1.1411 -1.1934  0.4963
33911SOL     OW 5263   9.497   9.195   9.491 -0.5040  0.1199 -0.2571
33911SOL    HW1 5264   9.494   9.163   9.400  2.5629  1.4956 -0.9651
33911SOL    HW2 5265   9.573   9.150   9.529 -0.8037  0.7457  1.1272
33912SOL     OW 5266   3.530   5.261   4.048 -0.5400 -0.8144 -0.1510
33912SOL    HW1 5267   3.580   5.239   3.969  1.5376  0.2388  0.7726
33912SOL    HW2 5268   3.557   5.195   4.112  1.1575  0.7771  0.8839
33913SOL     OW 5269  10.986   3.206   7.761 -0.3421  0.1243 -0.1615
33913SOL    HW1 5270  10.891   3.200   7.768 -0.3483  0.8386  0.4547
33913SOL    HW2 5271  11.019   3.136   7.817 -0.4969  0.8953  0.9271
33914SOL     OW 5272   0.126  10.733   8.641  0.0611  0.3435  0.1998
33914SOL    HW1 5273   0.095  10.699   8.726 -1.6744  1.4713  0.0694
33914SOL    HW2 5274   0.143  10.654   8.589 -1.2341 -0.3797  0.8002
33915SOL     OW 5275   8.232   3.425   0.206  0.4322  0.2803  0.1456
33915SOL    HW1 5276   8.166   3.361   0.179  0.3779  0.2636  0.3166
33915SOL    HW2 5277   8.275   3.384   0.282  2.4035 -0.8948 -1.5134
33916SOL     OW 5278   3.334   8.041   0.358  0.0092 -0.5359  0.1052
33916SOL    HW1 5279   3.295   8.123   0.390 -1.0028 -1.0498  0.2477
33916SOL    HW2 5280   3.426   8.062   0.345 -0.4164  0.9149 -0.8084
33917SOL     OW 5281   8.529   5.521   2.261  0.1189  0.1745  0.1813
33917SOL    HW1 5282   8.586   5.527   2.337 -0.1595 -1.7629  0.6063
33917SOL    HW2 5283   8.571   5.456   2.204 -1.9422 -1.8878  0.8457
33918SOL     OW 5284   5.589   9.054   8.792  0.4375 -0.0586 -0.1069
33918SOL    HW1 5285   5.669   9.022   8.833  0.4378 -0.4779 -0.4346
33918SOL    HW2 5286   5.536   8.976   8.779 -0.8822  0.4076  1.9311
33919SOL     OW 5287   7.201   9.472   1.184 -0.3926 -0.1229  0.3846
33919SOL    HW1 5288   7.112   9.490   1.214 -0.6744 -1.2000  0.2305
33919SOL    HW2 5289   7.247   9.439   1.261 -0.1478  0.3256  0.4367
33920SOL     OW 5290   2.478   9.371   9.543  0.1887  0.1886 -0.1886
33920SOL    HW1 5291   2.397   9.329   9.573  1.0800 -1.3581  0.1361
33920SOL    HW2 5292   2.543   9.301   9.542  1.4333  1.3036 -0.8778
33921SOL     OW 5293   2.056   8.649   4.101 -0.0043 -0.6152  0.0186
33921SOL    HW1 5294   2.067   8.696   4.019  1.9321 -1.7819 -0.4746
33921SOL    HW2 5295   2.010   8.710   4.159  0.3022  0.9423 -1.3221
33922SOL     OW 5296  10.391   8.730   4.925  0.2665  0.6229 -0.0734
33922SOL    HW1 5297  10.380   8.810   4.873  0.1622  0.9400  0.4259
33922SOL    HW2 5298  10.376   8.758   5.016  0.4476  0.0809  0.1289
33923SOL     OW 5299   3.657   8.755   5.652  0.0743 -0.2178 -0.7430
33923SOL    HW1 5300   3.696   8.750   5.739 -1.2071 -1.2207 -0.1883
33923SOL    HW2 5301   3.563   8.748   5.668 -0.1138 -1.7572 -2.2808
33924SOL     OW 5302   5.997   4.641  10.690  0.1570 -0.1450 -0.1559
33924SOL    HW1 5303   5.992   4.668  10.598 -1.5198 -1.7768 -0.6110
33924SOL    HW2 5304   6.085   4.605  10.700  0.7173  0.9862 -0.8134
33925SOL     OW 5305   1.326   6.775   4.392 -0.1097 -0.2683  0.1057
33925SOL    HW1 5306   1.273   6.844   4.350  0.3185  1.5250  2.3405
33925SOL    HW2 5307   1.415   6.809   4.391  0.0871 -0.6927  1.4164
33926SOL     OW 5308   6.201   8.545   2.960 -0.1656  0.0620 -0.1320
33926SOL    HW1 5309   6.185   8.464   3.009 -1.1373  0.2921 -0.0465
33926SOL    HW2 5310   6.140   8.609   2.998  1.9194  1.4122  1.1365
33927SOL     OW 5311   1.975   7.793   7.203  0.0950 -0.1588  0.2486
33927SOL    HW1 5312   1.959   7.762   7.292  0.1909  0.4272  0.4722
33927SOL    HW2 5313   1.900   7.850   7.184  0.3654  0.1695  0.1665
33928SOL     OW 5314   9.894  10.458   5.558  0.2422  0.1146  0.5838
33928SOL    HW1 5315   9.834  10.508   5.614  1.4299  0.1685  1.8434
33928SOL    HW2 5316   9.875  10.367   5.579 -1.5663 -0.0379 -1.3439
33929SOL     OW 5317   6.217   3.687   8.126 -0.1164 -0.3780 -0.8260
33929SOL    HW1 5318   6.156   3.631   8.175  2.8162 -2.9424  0.2086
33929SOL    HW2 5319   6.160   3.744   8.074 -3.3651 -1.3421  1.3456
33930SOL     OW 5320   9.024   6.876   4.779 -0.3053 -0.1025 -0.0377
33930SOL    HW1 5321   9.094   6.834   4.828 -1.7575 -2.1047  0.4943
33930SOL    HW2 5322   9.030   6.838   4.691  1.2215  2.1843 -1.0115
33931SOL     OW 5323   6.999   3.594  10.984  0.5240 -0.3102 -0.1500
33931SOL    HW1 5324   7.060   3.537  11.031 -2.2140 -1.5254  2.2183
33931SOL    HW2 5325   6.952   3.535  10.925 -0.3218  0.0315  0.1715
33932SOL     OW 5326  10.340   2.186   8.830  0.5844 -0.0484  0.0477
33932SOL    HW1 5327  10.398   2.119   8.868  0.0990  0.2856  1.4413
33932SOL    HW2 5328  10.366   2.267   8.874 -0.3200  0.2760 -0.0045
33933SOL     OW 5329   7.957   6.422   6.024  0.7283 -0.7430  0.4835
33933SOL    HW1 5330   7.939   6.410   5.930  2.5281  1.1107 -0.1866
33933SOL    HW2 5331   7.908   6.501   6.047 -0.2274 -1.5593  1.2977
33934SOL     OW 5332   2.570   2.839   1.051  0.3492 -0.5420 -0.1562
33934SOL    HW1 5333   2.500   2.779   1.025 -1.1752  0.7987  0.6774
33934SOL    HW2 5334   2.580   2.825   1.146  0.8672 -0.3784 -0.1828
33935SOL     OW 5335   0.746   8.971   2.665 -0.0465  0.7771 -0.0654
33935SOL    HW1 5336   0.801   8.943   2.591  0.0857 -0.2753  0.4104
33935SOL    HW2 5337   0.671   9.014   2.624 -1.2506 -1.9571 -0.9968
33936SOL     OW 5338   3.224   9.082   7.743 -0.1860 -0.5590 -0.1829
33936SOL    HW1 5339   3.304   9.131   7.762  0.3664 -1.8944  1.1089
33936SOL    HW2 5340   3.231   9.059   7.650  1.1141 -0.9420 -0.0101
33937SOL     OW 5341   1.892   8.903   5.180 -0.0277 -0.0530 -0.1375
33937SOL    HW1 5342   1.917   8.990   5.149 -0.3499 -0.3207 -1.1759
33937SOL    HW2 5343   1.942   8.892   5.262  1.1651  0.5114 -0.7577
33938SOL     OW 5344   3.448   9.441   8.929  0.5571 -0.4796  0.3609
33938SOL    HW1 5345   3.513   9.495   8.971  0.7998 -1.3829  1.1785
33938SOL    HW2 5346   3.438   9.365   8.986 -1.0869 -0.4535  0.1829
33939SOL     OW 5347   8.898   4.192   2.622 -0.0281  0.1683  0.1900
33939SOL    HW1 5348   8.869   4.131   2.689  1.1240 -1.3786 -0.6421
33939SOL    HW2 5349   8.958   4.251   2.668 -0.8635  0.4738  0.9249
33940SOL     OW 5350   0.475   3.910   5.334 -0.1154 -0.6538  0.0040
33940SOL    HW1 5351   0.531   3.880   5.262 -0.8322 -0.6980 -0.5532
33940SOL    HW2 5352   0.496   4.002   5.345 -0.6617 -0.4134 -0.8989
33941SOL     OW 5353   4.364   4.144   4.394 -0.4457 -0.1072 -0.2910
33941SOL    HW1 5354   4.346   4.088   4.319 -1.1065 -0.9252  0.4516
33941SOL    HW2 5355   4.316   4.104   4.466 -0.8778  1.3847  0.2938
33942SOL     OW 5356  11.083   2.611   8.589  0.0337 -0.3114  0.3615
33942SOL    HW1 5357  11.077   2.706   8.590  0.9741 -0.2480  0.3775
33942SOL    HW2 5358  11.135   2.589   8.666  0.4023 -0.7943 -0.0180
33943SOL     OW 5359  10.941   1.377   3.945 -0.0492 -0.2319  0.1302
33943SOL    HW1 5360  10.870   1.392   3.883  0.5157 -1.1917 -0.7921
33943SOL    HW2 5361  11.020   1.408   3.899  0.0527  1.6022  1.4636
33944SOL     OW 5362   7.756   5.490   8.953 -0.5819 -0.3357  0.4005
33944SOL    HW1 5363   7.688   5.500   8.887 -1.1272  0.1819  1.0300
33944SOL    HW2 5364   7.721   5.426   9.015 -0.8220  0.4869  1.1266
33945SOL     OW 5365   1.960   4.386   9.204 -0.1912 -0.5985 -0.0354
33945SOL    HW1 5366   1.933   4.475   9.185  0.9595  0.5375  3.0046
33945SOL    HW2 5367   2.055   4.388   9.199 -0.0054 -0.9792  2.2633
33946SOL     OW 5368   7.011   3.481   4.591  0.4109  0.0233  0.0694
33946SOL    HW1 5369   7.010   3.461   4.685 -0.2733 -1.6837 -0.2589
33946SOL    HW2 5370   7.103   3.501   4.572  1.0360 -1.9492  0.6960
33947SOL     OW 5371   9.852   3.720   4.874  0.3326 -0.1422  0.1560
33947SOL    HW1 5372   9.931   3.750   4.830 -0.0954  1.5191  0.4584
33947SOL    HW2 5373   9.783   3.778   4.842 -0.4410 -0.4630  1.1956
33948SOL     OW 5374   3.983   2.282   6.437 -0.1880 -0.3692 -0.7346
33948SOL    HW1 5375   3.930   2.237   6.503 -0.3958 -0.4878 -0.9843
33948SOL    HW2 5376   3.930   2.281   6.358  0.1904 -0.4980 -0.9903
33949SOL     OW 5377   0.519   4.858   6.247 -0.6366 -0.1139  0.0278
33949SOL    HW1 5378   0.530   4.781   6.192 -1.1383 -0.3136  0.1998
33949SOL    HW2 5379   0.460   4.829   6.317 -2.6507  1.0267 -1.1164
33950SOL     OW 5380   4.216   1.715   1.041 -0.2115  0.4812 -0.5248
33950SOL    HW1 5381   4.165   1.697   1.121 -2.5289 -0.2648 -2.0600
33950SOL    HW2 5382   4.229   1.810   1.042 -1.1318  0.6229  0.2360
33951SOL     OW 5383   5.429   8.866   5.396  0.0981  0.3636 -0.4233
33951SOL    HW1 5384   5.408   8.878   5.489 -0.3483 -2.1724 -0.1222
33951SOL    HW2 5385   5.362   8.916   5.349 -1.1785 -0.3156  0.6143
33952SOL     OW 5386   8.121   0.126   5.401  0.4915  0.3480  0.1435
33952SOL    HW1 5387   8.144   0.035   5.415 -3.9059 -0.9500  0.4237
33952SOL    HW2 5388   8.110   0.134   5.306 -1.4772 -0.2015  0.2841
33953SOL     OW 5389   0.525   8.902   1.256 -0.1717  1.2068  0.9672
33953SOL    HW1 5390   0.546   8.895   1.162  0.4502  1.0590  1.1061
33953SOL    HW2 5391   0.554   8.818   1.292  1.0161  1.8440  1.5441
33954SOL     OW 5392   9.577   9.043   2.349 -0.2444  0.0681 -0.1401
33954SOL    HW1 5393   9.494   9.044   2.302 -0.1914  1.5536 -0.2665
33954SOL    HW2 5394   9.644   9.038   2.280 -0.2002  0.6444 -0.1433
33955SOL     OW 5395   3.362   3.031   1.910 -0.0705 -0.3446 -0.5888
33955SOL    HW1 5396   3.278   2.997   1.880 -0.3003  1.1638 -1.7587
33955SOL    HW2 5397   3.410   3.051   1.830  0.2161  1.6219  0.0166
33956SOL     OW 5398   0.039   6.685   9.717  0.1440 -0.0734 -0.2932
33956SOL    HW1 5399   0.021   6.725   9.802 -0.9398  0.6965 -0.8527
33956SOL    HW2 5400   0.013   6.594   9.727 -0.6671  0.1834 -0.0036
33957SOL     OW 5401   5.975   8.788   8.748  0.0986 -0.0452 -0.0977
33957SOL    HW1 5402   5.948   8.862   8.802  0.9086 -1.2635  2.1347
33957SOL    HW2 5403   5.897   8.732   8.743 -0.0113  0.1257 -0.3167
33958SOL     OW 5404   0.978   1.999   2.343 -0.4050 -0.0875 -0.2132
33958SOL    HW1 5405   0.979   2.092   2.319 -1.1800  0.1139  0.4940
33958SOL    HW2 5406   1.056   1.988   2.397 -0.3442  0.1726 -0.2451
33959SOL     OW 5407   7.966   6.980   9.530  0.0465  0.6380  0.0253
33959SOL    HW1 5408   7.941   7.002   9.440  0.6331  0.4856 -0.1786
33959SOL    HW2 5409   7.998   6.890   9.524  0.9053  0.9261  0.2304
33960SOL     OW 5410   2.009   1.774   5.240  0.7088 -0.1334 -0.2145
33960SOL    HW1 5411   1.937   1.819   5.195 -1.0294 -2.9836 -0.5446
33960SOL    HW2 5412   1.966   1.726   5.311  2.8258  0.7179  1.7754
33961SOL     OW 5413   1.639   4.106   0.073 -1.0177  0.1903  0.2382
33961SOL    HW1 5414   1.686   4.152   0.143  1.1852 -1.2297 -0.2103
33961SOL    HW2 5415   1.664   4.153  -0.007  0.5556 -1.1524 -0.1200
33962SOL     OW 5416   4.884   7.395   7.016 -0.0623 -0.1386  0.8374
33962SOL    HW1 5417   4.876   7.302   7.037 -0.8222 -0.1858  0.3710
33962SOL    HW2 5418   4.797   7.421   6.987  0.5360  0.3227 -0.6461
33963SOL     OW 5419  10.787  10.619  10.574 -0.0526 -1.0898 -0.3375
33963SOL    HW1 5420  10.692  10.630  10.570 -0.0337 -0.1545  1.0638
33963SOL    HW2 5421  10.802  10.528  10.550 -1.3639 -1.4262  0.0451
33964SOL     OW 5422   4.032   7.835   1.880  0.4684  0.1082  0.0499
33964SOL    HW1 5423   4.090   7.777   1.930 -0.1708  0.8074  1.6836
33964SOL    HW2 5424   3.966   7.777   1.843 -0.0451 -0.2861  1.4946
33965SOL     OW 5425   0.365   0.248   4.168 -0.0283  0.0260  0.6270
33965SOL    HW1 5426   0.423   0.323   4.151 -0.6663  0.9098  2.1298
33965SOL    HW2 5427   0.299   0.282   4.228 -2.3054 -0.8887 -1.2023
33966SOL     OW 5428  10.617   6.287   1.090 -0.0964 -0.8023  0.5159
33966SOL    HW1 5429  10.675   6.252   1.023 -0.7884 -1.1262  0.0783
33966SOL    HW2 5430  10.637   6.235   1.168  0.9903 -0.1598  0.6890
33967SOL     OW 5431   1.364   8.300   7.740 -0.2460 -0.1735 -0.5223
33967SOL    HW1 5432   1.459   8.287   7.741 -0.4749 -2.5311  1.9261
33967SOL    HW2 5433   1.337   8.283   7.830 -3.0182  0.3022 -1.1871
33968SOL     OW 5434   5.071   0.457   0.779 -0.1578 -0.1847 -0.4003
33968SOL    HW1 5435   4.987   0.413   0.763 -0.2581 -0.2767  0.3312
33968SOL    HW2 5436   5.119   0.447   0.697 -0.7741 -0.3279 -0.7552
33969SOL     OW 5437  10.447   0.566   6.645 -0.6022  0.6235  0.3842
33969SOL    HW1 5438  10.454   0.660   6.663  0.1786  1.0230 -1.6881
33969SOL    HW2 5439  10.534   0.531   6.667 -1.2722  0.1161  2.3609
33970SOL     OW 5440   2.503  10.737   5.879 -0.2189  0.4301  0.2915
33970SOL    HW1 5441   2.479  10.827   5.900 -0.6663  0.2042  0.7563
33970SOL    HW2 5442   2.527  10.697   5.962 -0.3830  0.0123  0.1449
33971SOL     OW 5443   9.892   9.913   3.415 -0.3960  0.2286  0.1276
33971SOL    HW1 5444   9.815   9.927   3.470 -1.3570 -1.6103 -0.6322
33971SOL    HW2 5445   9.958   9.880   3.475 -0.9355 -0.2874  0.4535
33972SOL     OW 5446   3.967   4.569   5.526  0.9219  0.3529 -0.1261
33972SOL    HW1 5447   3.980   4.660   5.549  0.6424 -0.0901  1.9916
33972SOL    HW2 5448   3.871   4.559   5.521  0.8514 -0.2633  1.7975
33973SOL     OW 5449   0.154   3.006  10.736  0.2014  0.6716 -0.0074
33973SOL    HW1 5450   0.245   3.007  10.765 -0.3437  0.2895  1.8349
33973SOL    HW2 5451   0.130   2.913  10.738  0.2408  0.5597 -2.1854
33974SOL     OW 5452   9.014   9.103   2.217  0.0286  0.2758 -0.4818
33974SOL    HW1 5453   8.944   9.061   2.167  1.1806 -1.0762 -1.0451
33974SOL    HW2 5454   9.006   9.196   2.196 -1.6227  0.1740 -0.4595
33975SOL     OW 5455   9.597   9.546   1.610  0.0757  0.3495  0.0830
33975SOL    HW1 5456   9.671   9.596   1.645 -0.6087  1.8640 -0.5158
33975SOL    HW2 5457   9.535   9.542   1.683  0.9686 -1.4831  0.7915
33976SOL     OW 5458  10.804   1.702   6.451 -0.3901  0.1057  0.2186
33976SOL    HW1 5459  10.774   1.774   6.506  0.4191 -0.3845  1.3477
33976SOL    HW2 5460  10.898   1.719   6.439 -0.2275 -0.6564  0.3581
33977SOL     OW 5461   4.449   5.959  10.120  0.3983 -0.2819 -0.3759
33977SOL    HW1 5462   4.378   5.898  10.103  0.3243 -0.3940  0.3346
33977SOL    HW2 5463   4.406   6.042  10.141  0.4954 -0.0787 -0.9342
33978SOL     OW 5464   6.188   3.107   6.697  0.2920 -0.0997  0.2083
33978SOL    HW1 5465   6.235   3.069   6.771 -0.6612 -0.1453  0.8060
33978SOL    HW2 5466   6.100   3.124   6.730 -0.0051  0.3568 -0.7675
33979SOL     OW 5467   8.887   0.324   6.332  0.0371  0.2941  0.1059
33979SOL    HW1 5468   8.947   0.250   6.327  1.2431  1.0118  2.3146
33979SOL    HW2 5469   8.907   0.377   6.255  0.8019 -0.5147 -0.2650
33980SOL     OW 5470   0.432   7.751   8.829 -0.7236  0.0379 -0.0936
33980SOL    HW1 5471   0.450   7.702   8.909 -2.0083 -1.6513 -0.7908
33980SOL    HW2 5472   0.377   7.824   8.858  0.2644  0.4705  0.7874
33981SOL     OW 5473   6.409   2.669   2.478  0.9090  0.3663  0.4244
33981SOL    HW1 5474   6.448   2.725   2.545 -0.5483  2.4608 -0.3834
33981SOL    HW2 5475   6.477   2.661   2.411  0.9614  1.6865  0.2925
33982SOL     OW 5476   1.310  10.692   9.895 -0.1689  0.2724  0.1565
33982SOL    HW1 5477   1.242  10.690   9.963 -1.5148 -0.7110 -1.1689
33982SOL    HW2 5478   1.261  10.700   9.813  1.2124 -1.9061 -0.9581
33983SOL     OW 5479   5.715   2.202   0.476 -0.0170 -0.2252 -0.0186
33983SOL    HW1 5480   5.738   2.249   0.396 -0.6333  0.6651  0.3057
33983SOL    HW2 5481   5.644   2.144   0.450  0.4317 -0.6401 -0.3229
33984SOL     OW 5482   6.561   9.337   5.687  0.0549  0.1727  0.0484
33984SOL    HW1 5483   6.475   9.302   5.710  0.2393 -0.5155 -0.2747
33984SOL    HW2 5484   6.543   9.401   5.618 -0.2537  0.4713  0.4038
33985SOL     OW 5485   4.341   5.963   2.631  0.1043  0.0043  0.2110
33985SOL    HW1 5486   4.330   5.880   2.585 -0.1366 -0.8348  1.7218
33985SOL    HW2 5487   4.425   5.996   2.600  0.1923 -0.7879 -0.4396
33986SOL     OW 5488   9.143   5.220   4.644 -0.0044  0.6771 -0.4385
33986SOL    HW1 5489   9.076   5.249   4.706  0.4972 -1.2702  1.1376
33986SOL    HW2 5490   9.170   5.299   4.598 -3.3564  1.5699 -1.1784
33987SOL     OW 5491   7.006   2.492   7.434  0.0709  0.6334  0.0520
33987SOL    HW1 5492   6.942   2.545   7.386  0.4816  0.3083 -0.8710
33987SOL    HW2 5493   7.018   2.414   7.380  1.0739  0.5826  0.3260
33988SOL     OW 5494   0.345   4.449   8.749  0.3837 -0.0582 -0.5436
33988SOL    HW1 5495   0.401   4.374   8.771 -1.4138 -1.2102  0.2748
33988SOL    HW2 5496   0.303   4.472   8.831 -1.0294  0.2002 -1.3189
33989SOL     OW 5497   9.360  10.328   4.435 -0.0472 -0.1975  0.4596
33989SOL    HW1 5498   9.368  10.374   4.519  0.0095  0.9153 -0.1444
33989SOL    HW2 5499   9.278  10.359   4.398 -0.0371 -0.6327  0.0697
33990SOL     OW 5500   9.075   4.269   0.174 -0.5747  0.3243 -0.2053
33990SOL    HW1 5501   9.021   4.257   0.252 -0.0689  0.2909  0.1407
33990SOL    HW2 5502   9.086   4.181   0.138 -1.8954  0.4811 -1.0597
33991SOL     OW 5503   6.960   8.128  10.261  0.7077 -0.6190  0.4571
33991SOL    HW1 5504   7.002   8.212  10.246 -0.5605  0.3822  2.2126
33991SOL    HW2 5505   7.032   8.064  10.259  1.8744  0.6596  0.4044
33992SOL     OW 5506  10.565   6.764   1.481  0.0013  0.1904  0.5940
33992SOL    HW1 5507  10.551   6.777   1.387 -1.2789  0.6447  0.8332
33992SOL    HW2 5508  10.542   6.848   1.520 -1.0546 -0.4830  1.4585
33993SOL     OW 5509   1.065  10.301   1.468  0.2322  0.5309 -0.0284
33993SOL    HW1 5510   0.992  10.245   1.439  1.2262 -0.6572 -0.3095
33993SOL    HW2 5511   1.024  10.364   1.527 -0.8197 -0.9808  0.9356
33994SOL     OW 5512   8.338   9.884   9.784 -0.0650 -0.1222 -0.4018
33994SOL    HW1 5513   8.347   9.978   9.798 -0.7762 -0.2917  1.5191
33994SOL    HW2 5514   8.284   9.875   9.705  0.7422  1.0373 -1.1124
33995SOL     OW 5515   2.720   6.805   9.486  0.0013 -0.4050 -0.0056
33995SOL    HW1 5516   2.804   6.837   9.454 -0.0370  0.2548  0.5365
33995SOL    HW2 5517   2.668   6.790   9.407  0.4479 -0.3180 -0.3179
33996SOL     OW 5518   2.317   5.861   5.226 -0.4530  0.1065  0.2600
33996SOL    HW1 5519   2.403   5.883   5.260 -0.5610 -0.0398  0.6334
33996SOL    HW2 5520   2.256   5.914   5.277 -0.6203 -0.1783  0.3648
33997SOL     OW 5521   2.431   3.174   6.503  0.1773  0.0581 -0.1241
33997SOL    HW1 5522   2.497   3.206   6.440  0.7771 -1.8154 -0.5198
33997SOL    HW2 5523   2.348   3.204   6.467  0.7710  4.4453  1.5374
33998SOL     OW 5524   1.784   9.866   9.777  0.2939  0.1980  0.0839
33998SOL    HW1 5525   1.836   9.931   9.731 -1.6460  1.5775 -0.2973
33998SOL    HW2 5526   1.800   9.884   9.870  1.5541 -0.3405 -0.0071
33999SOL     OW 5527   9.603  10.033   9.686  0.1772 -0.4150  0.4477
33999SOL    HW1 5528   9.588  10.036   9.592 -0.7969  0.4734  0.6195
33999SOL    HW2 5529   9.553   9.957   9.716  1.0207 -1.0914  0.1678
34000SOL     OW 5530   9.753   9.108   7.230  0.2496 -0.3144  0.3254
34000SOL    HW1 5531   9.843   9.080   7.213  0.4790  0.1941  0.6722
34000SOL    HW2 5532   9.717   9.128   7.144  0.0932 -1.6124  0.0671
34001SOL     OW 5533   5.277   5.616  10.329  0.0570  0.0937 -0.1530
34001SOL    HW1 5534   5.367   5.647  10.343  0.6323 -1.4287 -0.3172
34001SOL    HW2 5535   5.271   5.604  10.234  0.1963 -1.2396 -0.0116
34002SOL     OW 5536   4.890   5.456   4.354  0.1769  0.1021  0.3598
34002SOL    HW1 5537   4.969   5.509   4.342  0.8117 -0.7011  0.8685
34002SOL    HW2 5538   4.840   5.503   4.420  0.6171  0.2019  0.6299
34003SOL     OW 5539   9.601   9.418   4.469 -0.1332 -0.1298  0.0453
34003SOL    HW1 5540   9.627   9.509   4.454 -0.7997 -0.1965 -1.9338
34003SOL    HW2 5541   9.640   9.370   4.395 -1.1145 -1.1557  0.1623
34004SOL     OW 5542   7.027   4.645   1.208  0.0861  0.1824 -0.0027
34004SOL    HW1 5543   7.020   4.624   1.301 -1.0972 -0.1426 -0.1578
34004SOL    HW2 5544   6.986   4.731   1.200 -0.9222 -0.3224 -0.4060
34005SOL     OW 5545  10.707   4.882   2.607  0.4562  0.0792  0.1796
34005SOL    HW1 5546  10.635   4.899   2.668  0.8291  1.4602  0.2771
34005SOL    HW2 5547  10.701   4.953   2.542  2.8393  1.4019  1.2600
34006SOL     OW 5548   1.446   8.981   1.521  0.1900  0.4756  0.0461
34006SOL    HW1 5549   1.445   8.886   1.509 -0.0588  0.3607  0.9148
34006SOL    HW2 5550   1.474   9.016   1.436 -0.0555 -0.3539 -0.3854
34007SOL     OW 5551   3.527   3.962   2.622 -0.4658  0.0886 -0.0520
34007SOL    HW1 5552   3.536   3.893   2.556  1.0437  0.0710  0.1268
34007SOL    HW2 5553   3.603   4.018   2.607  0.0735 -0.0737  1.8419
34008SOL     OW 5554   0.682  10.362   6.914 -0.2994  0.4063  0.4425
34008SOL    HW1 5555   0.662  10.434   6.854 -0.5221  0.3622  0.4630
34008SOL    HW2 5556   0.623  10.291   6.888  0.0688  0.1527  0.2804
34009SOL     OW 5557  10.271   3.065  10.205 -0.1507 -0.3534  0.5138
34009SOL    HW1 5558  10.280   2.971  10.223  0.8684 -0.2167  0.8025
34009SOL    HW2 5559  10.253   3.070  10.111 -0.4146 -0.8466  0.5350
34010SOL     OW 5560   8.311   5.896   6.698  0.2287  0.5086  0.4575
34010SOL    HW1 5561   8.278   5.926   6.613 -0.3204  0.0453  0.4917
34010SOL    HW2 5562   8.406   5.891   6.687  0.1639  0.4627 -0.1286
34011SOL     OW 5563   9.608   5.582   6.380 -0.1212  0.1062  0.5868
34011SOL    HW1 5564   9.584   5.493   6.405  0.4564 -0.4857 -0.8125
34011SOL    HW2 5565   9.573   5.638   6.449 -1.2181 -1.1357  1.0653
34012SOL     OW 5566   2.926   7.046   3.013  0.1527 -0.1566  0.1620
34012SOL    HW1 5567   2.839   7.075   2.985  0.8462 -1.1886 -3.5788
34012SOL    HW2 5568   2.987   7.102   2.965  1.5185 -1.5140  0.2252
34013SOL     OW 5569   0.565   4.481   4.686 -0.0142 -0.5223 -0.5545
34013SOL    HW1 5570   0.620   4.454   4.760  1.7181  1.9417 -0.8238
34013SOL    HW2 5571   0.511   4.404   4.667 -1.2152 -1.0045  3.7856
34014SOL     OW 5572   0.676   7.219   7.885 -0.5185  0.0356  0.5600
34014SOL    HW1 5573   0.632   7.236   7.969 -1.4829 -0.3079  0.1433
34014SOL    HW2 5574   0.717   7.303   7.863 -0.9399  0.3630  0.9843
34015SOL     OW 5575   8.880   2.287   9.316 -0.1477  0.3297  0.2091
34015SOL    HW1 5576   8.885   2.371   9.361  0.8334  0.1067  0.5531
34015SOL    HW2 5577   8.862   2.224   9.385 -1.9166  0.3488 -0.1860
34016SOL     OW 5578   4.667   4.871   8.452 -0.1451 -0.1391 -0.7561
34016SOL    HW1 5579   4.628   4.820   8.381 -1.1835 -0.5376  0.0847
34016SOL    HW2 5580   4.604   4.942   8.467  0.9064  0.9841 -1.3859
34017SOL     OW 5581   3.270   9.412   0.231 -0.1369  0.1867  0.3347
34017SOL    HW1 5582   3.242   9.487   0.178 -1.4449 -1.3137 -1.1934
34017SOL    HW2 5583   3.366   9.414   0.225 -0.1893  1.0864 -0.5907
34018SOL     OW 5584   4.129  10.909   0.024 -0.2692  0.1831  0.2049
34018SOL    HW1 5585   4.111  10.989  -0.025 -0.5299  0.1094  0.1814
34018SOL    HW2 5586   4.225  10.908   0.032  0.0870 -1.2985 -2.8727
34019SOL     OW 5587  10.035   2.449   4.045  0.7027  0.1079  0.1696
34019SOL    HW1 5588  10.067   2.538   4.058 -0.7512  0.6443  0.2919
34019SOL    HW2 5589   9.989   2.428   4.126 -1.3043  0.3196 -0.8364
34020SOL     OW 5590   6.813   5.877   3.698 -0.5226  0.8530 -0.2979
34020SOL    HW1 5591   6.895   5.925   3.704  0.9165 -1.2659 -1.6314
34020SOL    HW2 5592   6.811   5.843   3.609 -0.9554 -2.2343  0.7574
34021SOL     OW 5593   6.419   8.757   6.331 -0.1796  0.2743  0.3784
34021SOL    HW1 5594   6.495   8.816   6.333  1.0199 -1.2240  1.5101
34021SOL    HW2 5595   6.383   8.761   6.420 -0.9250  0.3316  0.0828
34022SOL     OW 5596   6.656   2.047   4.688  0.1989 -0.5697 -0.1852
34022SOL    HW1 5597   6.685   2.033   4.778  0.9493 -0.3777 -0.3852
34022SOL    HW2 5598   6.564   2.020   4.688 -0.1547  0.5536  0.9071
34023SOL     OW 5599   7.024   8.513   6.112 -0.2300 -0.4093 -0.2055
34023SOL    HW1 5600   6.938   8.494   6.150 -0.8576  0.3456 -1.1956
34023SOL    HW2 5601   7.057   8.427   6.085 -0.3316 -0.7999  0.8357
34024SOL     OW 5602   6.198   0.757   3.383 -0.2840  0.5435  0.0340
34024SOL    HW1 5603   6.255   0.712   3.445  0.6834 -0.2209 -1.3574
34024SOL    HW2 5604   6.213   0.850   3.400  1.0379  0.3499  0.0411
34025SOL     OW 5605   9.422   8.803   3.735  0.0120  0.0236 -1.2046
34025SOL    HW1 5606   9.470   8.781   3.815 -1.3012  1.0117 -0.0780
34025SOL    HW2 5607   9.350   8.740   3.732 -0.9569  1.0554 -0.6059
34026SOL     OW 5608   5.307   8.338   8.795  0.3847 -0.2655 -0.6753
34026SOL    HW1 5609   5.402   8.345   8.787  0.2330  2.5092 -1.0850
34026SOL    HW2 5610   5.291   8.313   8.886  1.4971 -2.0155 -0.9314
34027SOL     OW 5611   4.744   7.075   5.473 -0.3039 -0.1397  0.3642
34027SOL    HW1 5612   4.817   7.013   5.471  2.0496  2.4784 -1.3773
34027SOL    HW2 5613   4.677   7.032   5.420  1.1443 -1.3134 -0.6246
34028SOL     OW 5614   5.221   4.003   3.070  0.6608 -0.4077 -0.4437
34028SOL    HW1 5615   5.278   4.069   3.031  1.0291  0.1602  0.9944
34028SOL    HW2 5616   5.152   4.053   3.114  1.1658 -0.9256  1.0082
34029SOL     OW 5617   8.430   7.849   1.683 -0.0823  0.4999 -0.1418
34029SOL    HW1 5618   8.347   7.801   1.679  0.0507  0.3284 -1.2800
34029SOL    HW2 5619   8.440   7.886   1.595  0.7941  0.9507  0.1388
34030SOL     OW 5620   4.596   4.204   2.047  0.0922  0.1944  0.2344
34030SOL    HW1 5621   4.638   4.128   2.007  0.6608  0.6606 -0.0736
34030SOL    HW2 5622   4.664   4.243   2.102  0.1490  1.0813 -0.4346
34031SOL     OW 5623   3.998   5.303   6.772  0.0598 -0.4549  0.1927
34031SOL    HW1 5624   4.051   5.302   6.851 -0.2417 -1.8389  0.4053
34031SOL    HW2 5625   3.916   5.343   6.798  0.9280  1.6286 -0.1192
34032SOL     OW 5626   6.024   5.536   6.424  0.2428 -0.0229 -0.5007
34032SOL    HW1 5627   6.005   5.628   6.404  0.0938  0.8732  3.1139
34032SOL    HW2 5628   6.120   5.532   6.427  0.2382  0.1556 -0.1107
34033SOL     OW 5629   2.176   1.022   7.613  0.0627  0.1598 -0.5186
34033SOL    HW1 5630   2.178   1.010   7.518 -2.3018 -0.2904 -0.5629
34033SOL    HW2 5631   2.133   0.943   7.646 -0.8331  1.1354  0.7417
34034SOL     OW 5632   7.300   0.117  10.231  0.2790  0.1234 -0.1485
34034SOL    HW1 5633   7.205   0.114  10.244  0.3339  0.8045  0.5053
34034SOL    HW2 5634   7.334   0.153  10.313  1.0054  0.9261 -0.7796
34035SOL     OW 5635   7.129   7.353   8.024 -0.0178 -0.3672  0.7563
34035SOL    HW1 5636   7.081   7.433   8.003 -0.6769 -0.7954  0.6124
34035SOL    HW2 5637   7.162   7.368   8.113 -1.7330 -0.6599  1.4996
34036SOL     OW 5638   1.492   6.019   8.166 -0.2725  0.0426 -0.0997
34036SOL    HW1 5639   1.531   5.932   8.163  0.9443  0.5915 -1.7893
34036SOL    HW2 5640   1.425   6.017   8.098 -0.8060  0.1882  0.4148
34037SOL     OW 5641   4.721   6.813   2.221  0.3335  0.0417  0.2029
34037SOL    HW1 5642   4.814   6.831   2.209  0.3131 -0.3757 -0.7177
34037SOL    HW2 5643   4.715   6.775   2.309  0.8623  1.1186  0.7244
34038SOL     OW 5644   6.576   9.222  10.052 -0.3432 -0.1202 -0.1667
34038SOL    HW1 5645   6.485   9.197  10.069 -0.2414 -0.9096 -0.7606
34038SOL    HW2 5646   6.628   9.146  10.078  0.2013  0.5095  0.6557
34039SOL     OW 5647   1.065   7.063   9.948 -0.3404  0.3019 -0.5811
34039SOL    HW1 5648   0.984   7.017   9.926 -1.0334  1.9737 -1.6852
34039SOL    HW2 5649   1.103   7.087   9.863  0.5231  0.8890 -0.0478
34040SOL     OW 5650   1.258  10.176   1.654  0.0196 -0.3905  0.1339
34040SOL    HW1 5651   1.272  10.083   1.638 -1.1973 -0.1440 -3.1806
34040SOL    HW2 5652   1.191  10.202   1.590 -1.3703  2.3179  2.4394
34041SOL     OW 5653   5.156   8.807   6.242 -0.1477  0.1621 -0.1305
34041SOL    HW1 5654   5.131   8.717   6.224 -0.1808  0.1949 -0.2510
34041SOL    HW2 5655   5.073   8.853   6.255 -0.1738  0.3799 -1.0457
34042SOL     OW 5656  11.094   8.994   5.268  0.0698 -0.3855  0.3048
34042SOL    HW1 5657  11.006   8.959   5.254  0.4491 -0.9861 -0.6790
34042SOL    HW2 5658  11.092   9.081   5.228 -0.7076  0.5792  2.2663
34043SOL     OW 5659   1.774   3.863   0.461 -0.2459 -0.3393  0.0731
34043SOL    HW1 5660   1.749   3.775   0.491  3.2877 -1.0799  1.3996
34043SOL    HW2 5661   1.853   3.848   0.408  0.5642  2.0230  0.5153
34044SOL     OW 5662   6.842   8.867   1.262  0.6750  0.6778  0.5447
34044SOL    HW1 5663   6.850   8.776   1.290 -0.0194  0.7307  0.9492
34044SOL    HW2 5664   6.848   8.918   1.343  0.2405  0.9327  0.4227
34045SOL     OW 5665   3.129   3.884   3.354 -0.3989 -0.6239 -0.5113
34045SOL    HW1 5666   3.069   3.955   3.331  1.7866  1.4793 -0.1373
34045SOL    HW2 5667   3.164   3.909   3.440  2.7871 -0.3911 -1.7393
34046SOL     OW 5668   4.210  10.026   3.309 -0.7988 -0.0508 -0.1298
34046SOL    HW1 5669   4.194  10.117   3.335 -0.0222  0.3574 -1.0439
34046SOL    HW2 5670   4.271  10.032   3.235 -0.3845 -1.3358  0.0844
34047SOL     OW 5671   7.147   9.407   8.640 -0.2445 -0.7380 -0.2556
34047SOL    HW1 5672   7.189   9.463   8.706  0.8293  0.4667 -1.8755
34047SOL    HW2 5673   7.057   9.439   8.635 -0.7599 -1.7464  1.5340
34048SOL     OW 5674   1.127   8.597   5.778 -0.0038 -0.6440 -0.1733
34048SOL    HW1 5675   1.170   8.639   5.852  1.1247 -1.0959 -0.5391
34048SOL    HW2 5676   1.041   8.638   5.773  0.2115 -0.0269  0.8704
34049SOL     OW 5677   0.335   7.570   3.004  0.6351  0.0315  0.1980
34049SOL    HW1 5678   0.337   7.490   3.057 -0.4449  0.2795  0.6405
34049SOL    HW2 5679   0.399   7.627   3.046 -0.2533  0.2476  1.3113
34050SOL     OW 5680   9.678   8.198   6.715 -0.1078  0.3214  0.4393
34050SOL    HW1 5681   9.676   8.169   6.806 -0.0753 -0.9304  0.0637
34050SOL    HW2 5682   9.606   8.260   6.708 -1.7911 -1.5102  0.7215
34051SOL     OW 5683  10.083   6.342   2.720  0.2519  0.5014  0.5539
34051SOL    HW1 5684  10.030   6.292   2.782  0.5969  0.6506  0.9699
34051SOL    HW2 5685  10.066   6.433   2.742 -2.3095  0.7451 -1.7516
34052SOL     OW 5686  10.097   8.694  10.030 -0.3229 -0.3991 -0.0416
34052SOL    HW1 5687  10.108   8.764   9.965  0.8824 -2.4089 -2.1744
34052SOL    HW2 5688  10.169   8.706  10.091  1.6712 -1.3422 -2.0593
34053SOL     OW 5689   3.172   4.985   3.416  0.4349  0.0995  0.2292
34053SOL    HW1 5690   3.182   4.997   3.510 -0.4479  1.5463  0.1611
34053SOL    HW2 5691   3.082   5.011   3.398  1.3128  2.3595 -1.3749
34054SOL     OW 5692   1.258   7.256  10.417  0.3002 -0.3878 -0.0696
34054SOL    HW1 5693   1.248   7.273  10.510 -0.5068 -0.2470 -0.1735
34054SOL    HW2 5694   1.327   7.315  10.388 -0.0068  0.1429  0.2796
34055SOL     OW 5695   0.242   4.622   5.104 -0.7168 -0.6355 -0.5311
34055SOL    HW1 5696   0.219   4.533   5.077  0.1202 -0.8641 -0.5131
34055SOL    HW2 5697   0.310   4.610   5.170 -0.5588  0.0243 -0.5692
34056SOL     OW 5698   2.539   8.502   7.197 -0.2520 -0.3423 -0.6804
34056SOL    HW1 5699   2.608   8.560   7.163  0.0696 -1.1192 -1.3804
34056SOL    HW2 5700   2.457   8.542   7.168  0.0001 -0.7069 -1.9323
34057SOL     OW 5701   4.536   8.424   5.644 -0.1407  0.0411 -0.1209
34057SOL    HW1 5702   4.621   8.432   5.601 -0.4718 -1.8257 -1.2607
34057SOL    HW2 5703   4.515   8.331   5.637 -1.7905  0.2757  1.1146
34058SOL     OW 5704  10.285   2.074  11.093  0.0097 -0.4875 -0.1070
34058SOL    HW1 5705  10.309   2.149  11.148 -3.1258  0.7914 -0.2806
34058SOL    HW2 5706  10.231   2.019  11.150 -1.2122 -0.4025 -1.1375
34059SOL     OW 5707   2.651  10.374   7.770  0.2086  0.3508 -0.2409
34059SOL    HW1 5708   2.608  10.291   7.748 -1.6623  0.6624  1.8882
34059SOL    HW2 5709   2.722  10.349   7.829  0.9382  0.1201 -1.1939
34060SOL     OW 5710   9.117   9.375   3.813 -0.4417 -0.1069  0.3910
34060SOL    HW1 5711   9.026   9.396   3.834 -0.7312  0.2950 -1.1061
34060SOL    HW2 5712   9.116   9.358   3.719  1.2542  1.1655  0.1059
34061SOL     OW 5713   9.130   8.633   1.199  0.0672  0.1072  0.0561
34061SOL    HW1 5714   9.074   8.666   1.269  0.0011  0.6761 -0.2489
34061SOL    HW2 5715   9.132   8.705   1.135 -1.9221 -1.3273 -1.7357
34062SOL     OW 5716   8.331   4.175   2.261  0.1995 -0.5819  0.6887
34062SOL    HW1 5717   8.378   4.247   2.305  0.3784  0.0417 -0.4907
34062SOL    HW2 5718   8.323   4.108   2.329  1.7334 -0.2219  1.2882
34063SOL     OW 5719   5.938   2.184   4.302 -0.3604  0.3457 -0.5103
34063SOL    HW1 5720   5.865   2.223   4.351 -1.1162 -1.2763 -0.2590
34063SOL    HW2 5721   5.913   2.092   4.292  0.7254  0.1973 -2.2103
34064SOL     OW 5722   1.719   1.205   9.716 -0.6863 -0.1320 -0.1808
34064SOL    HW1 5723   1.633   1.205   9.758 -1.0806 -0.2814 -0.9794
34064SOL    HW2 5724   1.703   1.172   9.628  0.0981  0.3934 -0.5318
34065SOL     OW 5725   8.514   5.013   2.254 -0.1283 -0.1919 -0.7336
34065SOL    HW1 5726   8.595   4.971   2.283 -0.7523 -0.9709 -0.0775
34065SOL    HW2 5727   8.494   4.972   2.170 -0.8416 -1.3906 -0.0009
34066SOL     OW 5728   5.811   7.892   1.975 -0.3355  0.2358 -0.6296
34066SOL    HW1 5729   5.886   7.927   2.023  0.0220 -0.6917 -0.4918
34066SOL    HW2 5730   5.758   7.969   1.955  1.0190  1.0217 -1.3937
34067SOL     OW 5731   7.086   6.844   5.987 -0.0791  0.4842  0.4111
34067SOL    HW1 5732   7.097   6.778   6.055  2.3976  2.1489  1.7757
34067SOL    HW2 5733   7.147   6.818   5.918 -1.2487 -0.1930 -0.4028
34068SOL     OW 5734  10.733   4.379   0.503 -0.3479  0.6247  0.0485
34068SOL    HW1 5735  10.681   4.328   0.566 -2.1658  0.3187 -1.6033
34068SOL    HW2 5736  10.797   4.317   0.468  0.5661  0.7513  1.4000
34069SOL     OW 5737  10.002   4.733   3.588  0.3380  0.0820 -0.5468
34069SOL    HW1 5738   9.933   4.772   3.533  0.5014 -0.0030 -0.8141
34069SOL    HW2 5739  10.079   4.789   3.573  0.4714 -0.1297 -0.6500
34070SOL     OW 5740   3.906   7.031   4.943  0.2422  0.3087  0.5227
34070SOL    HW1 5741   3.957   7.111   4.928  1.3770 -0.0626  2.1133
34070SOL    HW2 5742   3.952   6.964   4.893 -0.0304  0.4273  0.1143
34071SOL     OW 5743   6.519   3.814   8.695 -0.1908 -0.2329 -0.3106
34071SOL    HW1 5744   6.583   3.756   8.736 -0.7630 -1.3611 -0.9887
34071SOL    HW2 5745   6.522   3.894   8.749  0.9959 -0.6628  0.3087
34072SOL     OW 5746   3.261  10.722   0.860 -0.0447  0.9334  0.1524
34072SOL    HW1 5747   3.259  10.795   0.922  0.1941  1.0530  0.0159
34072SOL    HW2 5748   3.236  10.646   0.913 -1.1231  1.2429  0.1143
34073SOL     OW 5749   3.264  10.596   4.789  0.0330 -0.1179 -0.3679
34073SOL    HW1 5750   3.223  10.681   4.772 -2.0483 -0.6295  1.5763
34073SOL    HW2 5751   3.306  10.573   4.707  2.8920  3.8716 -0.3226
34074SOL     OW 5752  10.039   1.742   0.565 -0.0407 -0.3405 -0.0180
34074SOL    HW1 5753   9.965   1.777   0.614 -0.6263 -1.3093 -0.1819
34074SOL    HW2 5754  10.055   1.656   0.603  3.5308  1.2580  2.6670
34075SOL     OW 5755   3.034   3.061   8.645  0.3175  0.1400  0.5310
34075SOL    HW1 5756   2.983   3.064   8.564  1.7348  1.1966 -0.3582
34075SOL    HW2 5757   2.976   3.098   8.711 -1.0786 -1.2809  0.1594
34076SOL     OW 5758   6.999   7.613   7.952  0.9023 -0.0234  0.7745
34076SOL    HW1 5759   6.982   7.706   7.966 -1.9334  0.3702 -3.4045
34076SOL    HW2 5760   6.914   7.571   7.964  1.0636 -1.2710 -1.7744
34077SOL     OW 5761   9.919   1.304   2.696 -0.1889 -0.5292  0.2915
34077SOL    HW1 5762   9.826   1.279   2.697 -0.6360  0.8651 -1.0733
34077SOL    HW2 5763   9.949   1.288   2.785 -1.5285 -1.7306  0.5792
34078SOL     OW 5764   0.041   6.426   7.494  0.2261  0.0229 -0.2570
34078SOL    HW1 5765  -0.043   6.411   7.450  0.4147 -1.2692 -0.2190
34078SOL    HW2 5766   0.049   6.521   7.498 -0.3839  0.1844 -1.8996
34079SOL     OW 5767   8.068  10.367   4.598  0.0189 -0.3797 -0.1451
34079SOL    HW1 5768   8.064  10.408   4.684  1.2704  1.2222 -0.7904
34079SOL    HW2 5769   7.977  10.367   4.567  0.0078  2.9938 -0.5161
34080SOL     OW 5770   0.137   1.159   9.336 -0.5310  0.5436  0.4110
34080SOL    HW1 5771   0.113   1.252   9.338  1.5474  1.1109  2.6412
34080SOL    HW2 5772   0.062   1.114   9.374 -0.4499  1.6357  1.9234
34081SOL     OW 5773   6.742   6.158   5.451 -0.1282  0.4536  0.4270
34081SOL    HW1 5774   6.780   6.072   5.471 -0.3756  0.0505 -0.7585
34081SOL    HW2 5775   6.815   6.208   5.415 -0.3242  0.2059 -0.3482
34082SOL     OW 5776   3.803   3.528   0.418  0.3640 -0.1782 -0.5117
34082SOL    HW1 5777   3.795   3.479   0.336 -0.3018 -0.1245 -0.4774
34082SOL    HW2 5778   3.719   3.572   0.429 -0.1349 -1.3734  0.9552
34083SOL     OW 5779  10.227   0.223   8.725  0.1349  0.1640  0.2443
34083SOL    HW1 5780  10.292   0.163   8.762 -0.7961 -0.3776  1.0443
34083SOL    HW2 5781  10.143   0.179   8.740 -0.3712  0.5312 -1.3966
34084SOL     OW 5782   7.343   8.267   9.262 -0.0402 -0.3867  0.6457
34084SOL    HW1 5783   7.426   8.221   9.252  0.2623  0.3305 -0.2484
34084SOL    HW2 5784   7.341   8.329   9.189 -0.8710  0.3471  1.2729
34085SOL     OW 5785   5.532   9.836   7.844 -0.0605 -0.1343 -0.1591
34085SOL    HW1 5786   5.569   9.768   7.900  0.5533  0.1147 -0.2494
34085SOL    HW2 5787   5.553   9.918   7.888 -2.4123 -0.0338  0.9069
34086SOL     OW 5788   8.219   3.811   9.892  0.0525 -0.2165 -0.3393
34086SOL    HW1 5789   8.278   3.766   9.953 -1.9998 -0.2630  1.7393
34086SOL    HW2 5790   8.135   3.767   9.904 -0.8906  1.1016 -1.7852
34087SOL     OW 5791   3.271   4.757   7.080 -0.0195 -0.2006  0.8356
34087SOL    HW1 5792   3.209   4.826   7.106  0.3913 -0.3329  2.2829
34087SOL    HW2 5793   3.320   4.795   7.008 -0.4078  0.6817  1.0171
34088SOL     OW 5794   5.257   9.950   1.630 -0.7665  0.3931  0.2292
34088SOL    HW1 5795   5.313   9.874   1.617  1.0717  1.9959 -1.9843
34088SOL    HW2 5796   5.261   9.997   1.546 -2.7627  2.3348  1.1320
34089SOL     OW 5797   8.328   1.628   6.121  0.3239 -0.7185 -0.5003
34089SOL    HW1 5798   8.365   1.715   6.133  0.4628 -0.4213 -2.6755
34089SOL    HW2 5799   8.264   1.619   6.191 -0.9846  1.8817 -1.2560
34090SOL     OW 5800   6.187   5.884   8.324  0.3102  0.2971  0.5784
34090SOL    HW1 5801   6.252   5.921   8.264  1.0475 -1.1561  0.4268
34090SOL    HW2 5802   6.119   5.848   8.267 -0.1077  0.8722  0.7035
34091SOL     OW 5803   0.858   1.352   9.575 -0.0497  0.3820  0.1866
34091SOL    HW1 5804   0.837   1.373   9.666  1.4693 -0.2403  0.7228
34091SOL    HW2 5805   0.900   1.266   9.579 -1.1231 -0.2689 -1.2795
34092SOL     OW 5806   6.031   8.763   2.995 -0.7076  0.7392  0.4330
34092SOL    HW1 5807   5.946   8.767   2.951  0.1878 -0.1156 -1.5106
34092SOL    HW2 5808   6.069   8.849   2.980 -1.1338  1.0504  1.1143
34093SOL     OW 5809   8.624   7.178   8.386  0.3285 -0.4873  0.0070
34093SOL    HW1 5810   8.624   7.196   8.480 -0.5543 -0.4519  0.0044
34093SOL    HW2 5811   8.540   7.135   8.369  0.8176 -1.2236 -0.6326
34094SOL     OW 5812   3.055   6.866   8.521  0.1192  0.1145 -0.1582
34094SOL    HW1 5813   2.982   6.835   8.466 -0.0088  0.1656 -0.0184
34094SOL    HW2 5814   3.123   6.800   8.510 -0.2066 -0.2934  0.2479
34095SOL     OW 5815   7.429   0.997   4.891 -0.4367 -0.1507 -0.6055
34095SOL    HW1 5816   7.472   0.953   4.818  0.3193 -1.2522  0.4556
34095SOL    HW2 5817   7.498   1.047   4.934 -0.0292 -2.1498  1.2725
34096SOL     OW 5818   6.606   6.448  10.672 -0.4462 -0.1531  0.5871
34096SOL    HW1 5819   6.517   6.464  10.702  0.3440  2.5594  1.7265
34096SOL    HW2 5820   6.651   6.411  10.749  0.3062  2.0405  1.2560
34097SOL     OW 5821   9.789  10.185   2.979 -0.2768  0.2113 -0.3418
34097SOL    HW1 5822   9.849  10.234   2.924  0.5987  0.2146  0.5756
34097SOL    HW2 5823   9.828  10.189   3.067 -1.0526 -0.7077  0.0701
34098SOL     OW 5824  10.706   5.156   2.202 -0.4994 -0.1058 -0.1596
34098SOL    HW1 5825  10.639   5.169   2.269 -1.7851 -0.2756 -1.3577
34098SOL    HW2 5826  10.658   5.125   2.126  0.9827 -0.3948 -1.0195
34099SOL     OW 5827   9.861  10.713   2.421 -0.7804 -0.2078 -0.2588
34099SOL    HW1 5828   9.783  10.659   2.419 -1.8047  1.1983 -0.3262
34099SOL    HW2 5829   9.864  10.747   2.511  0.4815 -1.2323  0.1120
34100SOL     OW 5830   2.731   8.196   0.769  0.2139 -1.1017  0.2741
34100SOL    HW1 5831   2.826   8.204   0.758 -0.0786  1.8771 -0.8886
34100SOL    HW2 5832   2.717   8.208   0.863  0.8895  0.5432  0.1978
34101SOL     OW 5833   1.422   3.207   4.646  0.1491 -0.1577  0.1876
34101SOL    HW1 5834   1.339   3.246   4.621 -0.1692 -1.6299 -1.2343
34101SOL    HW2 5835   1.466   3.188   4.563  1.8427  0.4152  0.9001
34102SOL     OW 5836  11.055   8.112   4.549 -0.0409 -0.7733 -0.2233
34102SOL    HW1 5837  11.078   8.190   4.599  0.2250 -2.1796  1.9835
34102SOL    HW2 5838  11.139   8.082   4.513  0.0649 -0.7450 -0.0035
34103SOL     OW 5839   5.449  10.641   3.851 -0.3256 -0.1341 -0.2055
34103SOL    HW1 5840   5.532  10.599   3.828 -0.0631 -0.7782  1.7225
34103SOL    HW2 5841   5.451  10.648   3.946 -3.1587 -1.7060  0.1070
34104SOL     OW 5842   9.421   3.580   5.162  0.1971 -0.2529  0.4170
34104SOL    HW1 5843   9.361   3.527   5.215  0.0704 -2.4728 -1.7948
34104SOL    HW2 5844   9.502   3.529   5.159  1.4658  1.5616  1.3428
34105SOL     OW 5845   2.772   4.612   1.925 -0.0791  0.6040  0.2269
34105SOL    HW1 5846   2.756   4.652   2.010 -1.4118  0.3142  0.1389
34105SOL    HW2 5847   2.732   4.525   1.932  1.4894 -0.1849 -0.0604
34106SOL     OW 5848   4.193   5.343   7.506 -0.4347  0.7472 -0.2747
34106SOL    HW1 5849   4.137   5.310   7.435  0.2284  0.4554 -0.6699
34106SOL    HW2 5850   4.134   5.397   7.559 -1.6681 -1.4195  0.6737
34107SOL     OW 5851  10.603   9.121  10.847  0.0141 -0.3876  0.0223
34107SOL    HW1 5852  10.597   9.070  10.766  2.0273 -0.3148 -0.2185
34107SOL    HW2 5853  10.577   9.210  10.821 -0.8330 -0.6909 -0.1853
34108SOL     OW 5854   7.271   1.988   0.881 -0.3924  0.2218 -0.3813
34108SOL    HW1 5855   7.344   1.926   0.885  0.1887  0.8559 -0.7459
34108SOL    HW2 5856   7.294   2.056   0.944 -0.4887  0.6068 -0.7562
34109SOL     OW 5857   4.156   1.536   6.678 -0.2014 -0.3678 -0.2775
34109SOL    HW1 5858   4.123   1.622   6.706 -1.4779 -0.9220  0.0361
34109SOL    HW2 5859   4.238   1.555   6.633 -0.5583  1.0343 -0.3962
34110SOL     OW 5860   6.160  11.073   1.393  0.3460 -0.4345  0.2884
34110SOL    HW1 5861   6.092  11.092   1.457 -2.3114 -1.3593 -2.0865
34110SOL    HW2 5862   6.189  10.984   1.413 -0.3109 -0.6393  0.3285
34111SOL     OW 5863   1.549   2.693  10.114  0.0732 -0.2294  0.2488
34111SOL    HW1 5864   1.486   2.645  10.167 -0.0997 -0.1001  0.1614
34111SOL    HW2 5865   1.536   2.659  10.025  0.9243 -1.0361  0.4126
34112SOL     OW 5866   8.830   6.410  10.703 -0.6126  0.1997  0.5392
34112SOL    HW1 5867   8.873   6.363  10.632  0.2456  2.5380 -0.5872
34112SOL    HW2 5868   8.743   6.371  10.709  0.0814 -1.5806 -0.2017
34113SOL     OW 5869   0.223   8.968   4.788 -0.2621  0.0781  0.3689
34113SOL    HW1 5870   0.137   9.010   4.787 -0.6044 -0.5959 -1.7716
34113SOL    HW2 5871   0.271   9.010   4.717  0.6565 -0.6160  0.5638
34114SOL     OW 5872   2.271   2.951   6.551  0.0895  0.2649 -0.2218
34114SOL    HW1 5873   2.183   2.990   6.543 -0.7296 -0.3801  3.7038
34114SOL    HW2 5874   2.331   3.024   6.541 -1.1653  1.5726  1.3112
34115SOL     OW 5875   1.038   4.965   5.303 -0.0745  0.0189  0.1159
34115SOL    HW1 5876   1.064   5.011   5.382 -0.6993  0.1393  0.2494
34115SOL    HW2 5877   1.104   4.990   5.238  0.1613  0.3007  0.4615
34116SOL     OW 5878   5.054   4.601   8.926 -0.6321 -0.0270  0.1054
34116SOL    HW1 5879   5.141   4.597   8.966 -1.0169  1.4484  1.1537
34116SOL    HW2 5880   4.994   4.609   8.999 -1.6057 -0.2537 -0.6515
34117SOL     OW 5881   8.171   5.292  10.120  0.2134  0.4643  0.0363
34117SOL    HW1 5882   8.087   5.249  10.138  0.0604  0.8185  0.1663
34117SOL    HW2 5883   8.229   5.220  10.097 -0.0820  0.1974  0.1114
34118SOL     OW 5884   5.910   7.699   5.663  0.3977  0.0497 -0.0648
34118SOL    HW1 5885   5.957   7.619   5.638  0.6378 -0.4803  1.8871
34118SOL    HW2 5886   5.852   7.671   5.734 -0.4257  1.3786 -0.1782
34119SOL     OW 5887   1.116   1.640  10.082  0.0348 -0.6116 -0.3989
34119SOL    HW1 5888   1.109   1.731  10.111  0.0426 -0.9413  0.6582
34119SOL    HW2 5889   1.158   1.594  10.154  0.5628 -1.3551 -1.1552
34120SOL     OW 5890   9.781   3.462   0.763  0.0228  0.0740 -0.2738
34120SOL    HW1 5891   9.733   3.542   0.784  0.8393  0.5343 -0.1327
34120SOL    HW2 5892   9.791   3.417   0.847  1.4146  0.8738  0.0243
34121SOL     OW 5893   2.265   5.788   9.814 -0.1172 -0.0555 -0.2529
34121SOL    HW1 5894   2.298   5.786   9.725  1.9039  0.1395  0.4452
34121SOL    HW2 5895   2.292   5.705   9.852 -0.3957  0.1270  0.3694
34122SOL     OW 5896  10.010   7.757   1.756  0.4083  0.7079  0.0250
34122SOL    HW1 5897   9.926   7.791   1.788 -0.6472 -1.9974  0.3477
34122SOL    HW2 5898  10.075   7.816   1.794 -1.2487  2.2916  0.5848
34123SOL     OW 5899   9.479   9.126   8.260  0.0428 -0.1102 -0.5413
34123SOL    HW1 5900   9.511   9.079   8.183  0.0938  1.7449 -1.7252
34123SOL    HW2 5901   9.384   9.129   8.248 -0.0384 -0.6125 -0.0422
34124SOL     OW 5902   8.932  10.281   6.096 -0.9046 -0.2324  0.3811
34124SOL    HW1 5903   8.840  10.293   6.074 -0.7103  1.0539  0.1640
34124SOL    HW2 5904   8.939  10.309   6.187 -0.6027  0.4427  0.1602
34125SOL     OW 5905   3.826   1.244   2.978 -0.0947 -0.3622  0.0025
34125SOL    HW1 5906   3.751   1.216   2.926  0.1099  1.9024 -1.6542
34125SOL    HW2 5907   3.895   1.261   2.914  1.2320 -0.5564  1.3261
34126SOL     OW 5908   9.200   3.164   3.033  0.0565 -0.5369 -0.0509
34126SOL    HW1 5909   9.178   3.253   3.060 -0.6046  0.3490 -3.1561
34126SOL    HW2 5910   9.292   3.154   3.058  0.0277  0.8443  0.7108
34127SOL     OW 5911   3.484   9.906   2.631 -0.0551  0.5178  0.1193
34127SOL    HW1 5912   3.465   9.968   2.560 -0.4981  1.3632  0.9542
34127SOL    HW2 5913   3.403   9.857   2.642 -0.2108  0.8516  0.4855
34128SOL     OW 5914   9.653  10.648   3.523  0.2130 -0.1388 -0.2245
34128SOL    HW1 5915   9.601  10.569   3.512  0.2282 -0.4009  1.3885
34128SOL    HW2 5916   9.727  10.622   3.578  0.1936  0.9858  0.3704
34129SOL     OW 5917   6.628   8.702   5.243  0.2597  0.2295  0.0800
34129SOL    HW1 5918   6.609   8.792   5.216 -1.0439  0.5373  1.8329
34129SOL    HW2 5919   6.687   8.711   5.317 -1.1773 -0.2403  1.3275
34130SOL     OW 5920  10.134   7.374   3.987  0.2088  0.2247 -0.4022
34130SOL    HW1 5921  10.087   7.291   3.995  1.8674 -0.8362 -0.9319
34130SOL    HW2 5922  10.140   7.407   4.077  0.2566 -0.6899 -0.0544
34131SOL     OW 5923   3.469   7.823   3.931  0.4057 -0.1865 -0.1884
34131SOL    HW1 5924   3.524   7.760   3.977  3.4791  0.2804 -2.8286
34131SOL    HW2 5925   3.458   7.895   3.993  2.1051 -0.6938  0.7642
34132SOL     OW 5926   3.293   9.143   8.369 -0.1175  0.2188  0.7027
34132SOL    HW1 5927   3.355   9.135   8.443  1.2045 -0.8502 -0.4737
34132SOL    HW2 5928   3.290   9.237   8.352 -0.0680  0.4377  1.8159
34133SOL     OW 5929   9.195   3.031  10.923 -0.0555  0.1747  0.6437
34133SOL    HW1 5930   9.255   3.103  10.905 -0.2725 -0.0740 -1.2350
34133SOL    HW2 5931   9.228   2.993  11.005  0.5291  1.8844  1.2511
34134SOL     OW 5932   8.606  10.523  10.819  0.5674 -0.0078 -0.3877
34134SOL    HW1 5933   8.628  10.430  10.816 -1.8293 -0.6408 -0.4044
34134SOL    HW2 5934   8.557  10.539  10.739 -0.9141  0.7048  0.6115
34135SOL     OW 5935  11.060   2.136   0.698  0.1866  0.5885  0.5221
34135SOL    HW1 5936  11.090   2.103   0.613  2.4504  0.1067  1.4373
34135SOL    HW2 5937  10.992   2.200   0.676 -0.4908 -0.7436 -1.5499
34136SOL     OW 5938   8.663   7.321   4.055  0.1953 -0.3711  0.1566
34136SOL    HW1 5939   8.655   7.346   4.147  0.1625 -0.1393  0.0924
34136SOL    HW2 5940   8.573   7.307   4.026  0.0936  0.8620 -0.1922
34137SOL     OW 5941   1.261   7.769   9.086  0.5903  0.1919  0.2581
34137SOL    HW1 5942   1.276   7.857   9.053  1.1887  0.3810  1.0135
34137SOL    HW2 5943   1.234   7.782   9.177 -0.6293 -0.3360 -0.0047
34138SOL     OW 5944  10.712   9.681   4.816  0.1342 -0.0090  0.2465
34138SOL    HW1 5945  10.746   9.672   4.726  0.7130 -1.4254  0.5711
34138SOL    HW2 5946  10.687   9.773   4.823  0.6562  0.2749 -1.1642
34139SOL     OW 5947   9.400   0.196   7.453 -0.3304 -0.3539 -0.0863
34139SOL    HW1 5948   9.491   0.170   7.441 -0.7636 -1.3338 -1.4727
34139SOL    HW2 5949   9.360   0.183   7.367 -1.7882  0.0064  0.5144
34140SOL     OW 5950   6.395   3.753   3.065 -0.3709  0.4238 -0.1200
34140SOL    HW1 5951   6.375   3.815   2.995 -1.6074  1.2786  0.9430
34140SOL    HW2 5952   6.356   3.791   3.143  1.6318 -0.1227  1.2192
34141SOL     OW 5953   6.559   3.062  10.422  0.2015 -0.1254 -0.0639
34141SOL    HW1 5954   6.601   2.995  10.368  1.6235 -0.4144  1.3201
34141SOL    HW2 5955   6.474   3.077  10.381  1.2348 -0.2734 -2.3841
34142SOL     OW 5956   3.935   4.369   5.294  0.4177 -0.3619  0.0268
34142SOL    HW1 5957   3.879   4.415   5.357 -0.4360 -1.6193  0.2250
34142SOL    HW2 5958   3.962   4.436   5.232 -0.2421  0.5336  0.6817
34143SOL     OW 5959   9.163   1.587   8.229 -0.0309 -0.5287  0.0474
34143SOL    HW1 5960   9.176   1.681   8.246 -1.4812  0.5020 -3.5261
34143SOL    HW2 5961   9.068   1.578   8.218  0.2558 -1.9503 -1.6857
34144SOL     OW 5962   0.920   9.225   4.168 -0.2176 -0.7901 -0.2873
34144SOL    HW1 5963   0.962   9.295   4.119 -2.0038  1.2154  0.8572
34144SOL    HW2 5964   0.992   9.172   4.202  1.1786  0.4123 -1.2995
34145SOL     OW 5965   3.746   6.294   5.515  0.0945 -0.4571  0.1726
34145SOL    HW1 5966   3.656   6.283   5.487  0.6688 -1.1125 -1.5075
34145SOL    HW2 5967   3.785   6.207   5.508  1.4863  0.2432 -1.5357
34146SOL     OW 5968   8.569   3.307   2.266  1.0575  0.2823 -0.8792
34146SOL    HW1 5969   8.477   3.331   2.262  0.9987  0.2467  0.0847
34146SOL    HW2 5970   8.600   3.313   2.175 -0.4766 -2.0505 -1.6379
34147SOL     OW 5971   8.405   7.165   5.831  0.2311  0.4577 -0.2179
34147SOL    HW1 5972   8.491   7.179   5.790  0.7288  2.1783  1.2579
34147SOL    HW2 5973   8.401   7.071   5.848  3.2706  0.6132  2.4428
34148SOL     OW 5974   2.028   9.027   5.451 -0.1122 -0.0452  0.2645
34148SOL    HW1 5975   2.033   9.013   5.545  0.8158  1.1534  0.4234
34148SOL    HW2 5976   2.115   9.060   5.427 -0.3830 -0.1768 -0.9883
34149SOL     OW 5977   0.902   3.327   2.402 -0.1074  0.1493  0.1729
34149SOL    HW1 5978   0.901   3.385   2.326 -3.0486 -1.0140 -0.7860
34149SOL    HW2 5979   0.987   3.281   2.396 -0.2662  0.0679 -2.4496
34150SOL     OW 5980   9.719   0.982   0.914  0.7373 -0.0425 -0.4794
34150SOL    HW1 5981   9.807   0.988   0.876  0.2680  0.4494 -1.5409
34150SOL    HW2 5982   9.710   0.890   0.938  2.2950  0.2662  1.5927
34151SOL     OW 5983   0.348   8.085   6.965  0.1327 -0.3303 -0.4163
34151SOL    HW1 5984   0.391   8.151   7.018 -1.0382  0.1289 -0.0075
34151SOL    HW2 5985   0.335   8.011   7.025 -0.2174 -0.2219 -0.3563
34152SOL     OW 5986   5.803   3.348   7.441 -0.2317  0.3337 -0.3895
34152SOL    HW1 5987   5.720   3.349   7.394 -0.1539 -1.4632 -0.6755
34152SOL    HW2 5988   5.781   3.366   7.532 -1.0301 -0.6111 -0.3799
34153SOL     OW 5989   5.108   4.259   9.545  0.0120 -0.4957 -0.0599
34153SOL    HW1 5990   5.113   4.193   9.476  0.6012 -1.5944  0.9872
34153SOL    HW2 5991   5.198   4.290   9.555 -0.5762  2.2941 -2.1600
34154SOL     OW 5992   5.024   9.942  10.497  0.4041  0.4796 -0.4315
34154SOL    HW1 5993   5.036   9.995  10.418 -1.1435  1.4420 -0.0550
34154SOL    HW2 5994   5.102   9.961  10.550 -0.5871  3.3224  0.1731
34155SOL     OW 5995   1.246   2.311  10.482  0.1517  0.4881 -0.4496
34155SOL    HW1 5996   1.240   2.407  10.479  1.4934  0.5948 -0.3210
34155SOL    HW2 5997   1.335   2.294  10.512 -0.2008 -0.8082 -0.1015
34156SOL     OW 5998   8.577   2.664   2.129 -0.5781 -0.2196  0.3259
34156SOL    HW1 5999   8.484   2.643   2.142 -0.9721  1.1605 -0.0793
34156SOL    HW2 6000   8.603   2.610   2.054 -1.3382  0.0930 -0.1879
34157SOL     OW 6001   9.263   3.476   5.343 -0.4454 -0.1299 -0.0569
34157SOL    HW1 6002   9.207   3.523   5.405 -0.2613  1.0944 -0.7832
34157SOL    HW2 6003   9.330   3.435   5.397 -1.3447 -0.6379  0.7149
34158SOL     OW 6004   4.033   2.063   2.590  0.0205  0.7948  0.7223
34158SOL    HW1 6005   4.063   1.984   2.635 -0.4296  1.4184  2.1664
34158SOL    HW2 6006   3.963   2.031   2.532 -0.0666  0.1013  1.1869
34159SOL     OW 6007   8.979   7.879   7.429 -0.4250  0.4161 -0.9582
34159SOL    HW1 6008   9.023   7.958   7.462  1.7825  0.3650 -3.4383
34159SOL    HW2 6009   9.013   7.869   7.340 -1.1154 -3.0021 -0.9484
34160SOL     OW 6010   1.485   3.439   5.213  0.6783 -0.5780 -0.8272
34160SOL    HW1 6011   1.438   3.423   5.131 -0.1376  0.9482 -0.7033
34160SOL    HW2 6012   1.416   3.444   5.279  1.1685  0.0680 -0.3556
34161SOL     OW 6013   8.901   9.163   1.116  0.3393  0.5909  0.5852
34161SOL    HW1 6014   8.853   9.209   1.185 -0.6369  2.5933 -1.3044
34161SOL    HW2 6015   8.842   9.163   1.041  1.0627 -2.2184 -0.0845
34162SOL     OW 6016   7.849   6.840   2.626 -0.1115  0.0709 -0.4027
34162SOL    HW1 6017   7.883   6.770   2.570 -0.2261  1.6745 -2.6463
34162SOL    HW2 6018   7.785   6.885   2.570 -1.6005  0.6980  1.6963
34163SOL     OW 6019   7.881   5.831   8.201  0.8999  0.8135 -0.0309
34163SOL    HW1 6020   7.974   5.809   8.202  1.2204  1.8743 -1.9917
34163SOL    HW2 6021   7.861   5.849   8.109 -1.2368  0.6876  0.3541
34164SOL     OW 6022   1.251   0.824  10.811 -0.1967  0.2476  0.0063
34164SOL    HW1 6023   1.260   0.745  10.865 -0.6415  1.0416  1.2917
34164SOL    HW2 6024   1.328   0.823  10.755 -0.0512 -0.9534  0.1888
34165SOL     OW 6025   9.978  10.857   1.776 -0.3714 -0.4341  0.2923
34165SOL    HW1 6026  10.035  10.780   1.774  0.6246  0.2194  1.6142
34165SOL    HW2 6027   9.989  10.898   1.690 -0.3685 -1.3754 -0.1631
34166SOL     OW 6028   0.526   6.982   8.989  0.1689 -0.7142 -0.3118
34166SOL    HW1 6029   0.515   7.010   9.080  0.2515 -2.2373  0.1889
34166SOL    HW2 6030   0.439   6.992   8.951  0.2648  0.5231 -0.2729
34167SOL     OW 6031   7.198   0.068   1.638 -0.9289  0.3762  0.2523
34167SOL    HW1 6032   7.214   0.104   1.725 -2.0449  0.4733  0.4394
34167SOL    HW2 6033   7.203  -0.027   1.650 -1.0726  0.3897  0.4295
34168SOL     OW 6034  10.904   7.772   2.415  0.1548 -0.2965 -0.4540
34168SOL    HW1 6035  10.835   7.709   2.394  0.5070 -1.3891  1.4256
34168SOL    HW2 6036  10.967   7.723   2.467  2.7163  0.5309 -2.5937
34169SOL     OW 6037   8.490   5.700   7.935 -0.1359 -0.6561 -0.1615
34169SOL    HW1 6038   8.471   5.748   8.016  1.5611 -1.8375  0.9951
34169SOL    HW2 6039   8.533   5.764   7.879 -1.1517  0.1200 -0.0917
34170SOL     OW 6040   1.197   6.889   1.053  0.2947  1.1103 -0.0427
34170SOL    HW1 6041   1.111   6.857   1.077  0.7885 -0.5411 -0.3670
34170SOL    HW2 6042   1.180   6.972   1.007 -1.1993  0.2989 -1.0263
34171SOL     OW 6043   3.237   0.881  10.014  0.3469 -0.0657 -0.0596
34171SOL    HW1 6044   3.164   0.885  10.075 -1.5753 -0.9951 -2.1601
34171SOL    HW2 6045   3.265   0.789  10.016  1.1523  0.1816  0.3709
34172SOL     OW 6046   8.145   2.813   5.365 -0.0443 -0.3794  0.1245
34172SOL    HW1 6047   8.135   2.753   5.439 -1.3593  0.3154  0.5344
34172SOL    HW2 6048   8.156   2.899   5.406  0.7769 -0.1884 -0.4737
34173SOL     OW 6049   2.899   2.662   9.257 -0.1000  0.4271 -0.5128
34173SOL    HW1 6050   2.845   2.616   9.321  1.0276 -0.8882 -0.4744
34173SOL    HW2 6051   2.841   2.730   9.222 -1.3304 -0.0417  0.5204
34174SOL     OW 6052   9.165   3.841   7.405 -0.0623  0.3858 -0.6551
34174SOL    HW1 6053   9.093   3.896   7.376  0.4114  0.7343 -1.1958
34174SOL    HW2 6054   9.176   3.776   7.336  0.5652  0.7457 -0.9054
34175SOL     OW 6055  11.001   4.572   0.986 -0.1659 -0.6306  0.3122
34175SOL    HW1 6056  11.022   4.481   0.965  1.1902 -0.5655  1.2408
34175SOL    HW2 6057  11.086   4.615   0.997 -0.7613  0.9832 -0.9862
34176SOL     OW 6058   7.926   2.026   5.538  0.1845 -0.0190 -0.1302
34176SOL    HW1 6059   8.021   2.021   5.527  0.0527 -0.7228 -1.1311
34176SOL    HW2 6060   7.913   2.034   5.633  1.2596  0.9925 -0.0505
34177SOL     OW 6061   9.681   1.266   0.599 -0.9006 -0.0631 -0.2264
34177SOL    HW1 6062   9.737   1.316   0.657 -1.5365 -0.7442  1.0106
34177SOL    HW2 6063   9.661   1.326   0.527 -3.0787  2.1354  2.0257
34178SOL     OW 6064   8.843   8.111   0.939 -0.1350 -0.0530 -0.2686
34178SOL    HW1 6065   8.859   8.050   1.011 -1.0562 -0.5704 -0.4912
34178SOL    HW2 6066   8.929   8.147   0.918  0.0096  0.9924  1.8542
34179SOL     OW 6067   3.076  10.491   4.943 -0.3932 -0.1745 -0.2542
34179SOL    HW1 6068   3.114  10.498   5.030 -0.2253 -0.5778 -0.2949
34179SOL    HW2 6069   3.149  10.505   4.883 -0.7886  1.7207 -0.3506
34180SOL     OW 6070   5.449   0.615   5.244  0.5509  0.2683 -0.2251
34180SOL    HW1 6071   5.425   0.691   5.190 -0.6863  0.1581  0.1403
34180SOL    HW2 6072   5.424   0.539   5.191 -0.9971  0.1593  0.6092
34181SOL     OW 6073   3.705   6.642  10.489 -0.1519  0.9059 -0.4758
34181SOL    HW1 6074   3.791   6.601  10.485 -0.7771 -0.5489  0.2193
34181SOL    HW2 6075   3.654   6.586  10.548 -1.5727  1.7295 -0.8639
34182SOL     OW 6076   2.248  11.038   8.371  0.3761  0.0683 -0.3237
34182SOL    HW1 6077   2.278  10.963   8.320  1.2438 -0.0941  0.3996
34182SOL    HW2 6078   2.174  11.004   8.422 -1.4853  0.5894 -2.4613
34183SOL     OW 6079   5.166   3.340   9.152 -0.3140  0.0827 -0.5066
34183SOL    HW1 6080   5.223   3.267   9.176 -0.2439 -0.3194 -1.7890
34183SOL    HW2 6081   5.221   3.397   9.098 -0.2461  1.3236  0.8146
34184SOL     OW 6082   5.669   8.082  10.799 -0.2361  0.1738  0.3951
34184SOL    HW1 6083   5.657   8.112  10.709 -0.0981 -1.9964 -0.4063
34184SOL    HW2 6084   5.607   8.011  10.809  2.7992 -2.7073  0.4211
34185SOL     OW 6085   9.610   0.052   3.601  0.4087 -0.8557 -0.1512
34185SOL    HW1 6086   9.608   0.126   3.661 -2.9490  0.4224 -1.6066
34185SOL    HW2 6087   9.599  -0.025   3.657 -0.5726  0.1374  1.0710
34186SOL     OW 6088   0.687  10.610   3.378 -0.0400 -0.8478  0.2018
34186SOL    HW1 6089   0.749  10.660   3.324 -0.7955  0.5199  0.5695
34186SOL    HW2 6090   0.734  10.594   3.460 -0.0382 -0.1490  0.3379
34187SOL     OW 6091   2.280   4.274   6.097  0.0786 -0.7171  0.3756
34187SOL    HW1 6092   2.260   4.234   6.012 -0.2601  0.8102 -0.3072
34187SOL    HW2 6093   2.198   4.269   6.146 -0.7803  1.4808 -0.7240
34188SOL     OW 6094   3.372   0.843  11.035  0.5290 -0.7685 -0.1658
34188SOL    HW1 6095   3.458   0.865  10.999 -0.4236  0.9590 -1.5397
34188SOL    HW2 6096   3.333   0.927  11.059 -0.4056 -1.5851  1.4202
34189SOL     OW 6097   3.455   2.863   7.093  0.6894  0.2899  0.5120
34189SOL    HW1 6098   3.377   2.913   7.119  0.9015  0.1247  1.4850
34189SOL    HW2 6099   3.475   2.808   7.168 -1.1256 -3.3188 -1.3922
34190SOL     OW 6100  10.966   4.046   5.188  0.3491  0.6608  0.1083
34190SOL    HW1 6101  10.990   4.079   5.102 -0.2595 -1.3837 -0.9117
34190SOL    HW2 6102  10.873   4.067   5.198 -0.1559 -1.0046 -0.7352
34191SOL     OW 6103  10.323   0.412   1.829 -0.0609  0.1886  0.1670
34191SOL    HW1 6104  10.362   0.497   1.811 -2.2987  1.2270 -0.1222
34191SOL    HW2 6105  10.250   0.405   1.767 -0.2289 -1.7370  0.5021
34192SOL     OW 6106   5.879   4.966   6.782 -0.1176 -0.2607 -0.1611
34192SOL    HW1 6107   5.867   5.056   6.750 -0.5166 -0.4915 -0.6788
34192SOL    HW2 6108   5.970   4.963   6.810 -0.3707  0.5951  0.8147
34193SOL     OW 6109   1.065   6.001   4.574 -0.4434  0.4200 -0.1028
34193SOL    HW1 6110   1.114   6.041   4.502 -1.0525  2.2653  0.4554
34193SOL    HW2 6111   0.979   6.043   4.570 -1.6452 -1.9041 -0.3461
34194SOL     OW 6112   6.895   7.181   8.521  0.0491 -0.2942 -0.6690
34194SOL    HW1 6113   6.860   7.256   8.475  1.2847  0.2786 -0.7196
34194SOL    HW2 6114   6.935   7.127   8.453  2.5522  0.9272 -0.2822
34195SOL     OW 6115   3.165   1.055   2.763  0.2910 -0.3195 -0.7557
34195SOL    HW1 6116   3.165   0.964   2.792  0.6755 -0.4891 -1.2699
34195SOL    HW2 6117   3.160   1.106   2.844  3.0494 -0.7496 -0.2191
34196SOL     OW 6118   4.657   6.241   1.722 -0.0515 -0.1943 -0.1320
34196SOL    HW1 6119   4.618   6.162   1.758 -0.2305 -0.0653 -0.0435
34196SOL    HW2 6120   4.731   6.260   1.781 -0.4501  0.1157  0.2750
34197SOL     OW 6121   8.218   6.674   3.193 -0.1397  0.3146  0.7339
34197SOL    HW1 6122   8.227   6.737   3.121 -1.7357  2.7527  2.4728
34197SOL    HW2 6123   8.224   6.589   3.151  1.4663  1.5830 -1.8941
34198SOL     OW 6124   3.238   8.730   7.243 -0.2438  0.4735  0.0669
34198SOL    HW1 6125   3.241   8.665   7.173 -1.0164  0.7033 -0.1900
34198SOL    HW2 6126   3.244   8.679   7.324  1.4472  0.2577 -0.1489
34199SOL     OW 6127   2.358   7.674   5.697  0.3973 -0.2183  0.5083
34199SOL    HW1 6128   2.370   7.599   5.756  1.5736 -0.4398  0.0163
34199SOL    HW2 6129   2.308   7.737   5.748  0.2624 -0.9378  1.2855
34200SOL     OW 6130   9.053  10.039   5.205  0.1295  0.0578  0.0976
34200SOL    HW1 6131   8.993  10.111   5.187  0.5297  0.0400 -1.4909
34200SOL    HW2 6132   9.140  10.073   5.181  0.3345 -0.9043 -0.6267
34201SOL     OW 6133   1.056   6.982   3.565  0.3780 -0.3183  0.1368
34201SOL    HW1 6134   1.057   6.902   3.512 -0.8762 -0.4383  0.2689
34201SOL    HW2 6135   0.984   7.033   3.529  1.8513  1.2922 -0.6822
34202SOL     OW 6136   7.752   7.579   3.216 -0.3444  0.1536 -0.0468
34202SOL    HW1 6137   7.823   7.584   3.280 -0.3650 -1.0925  0.1085
34202SOL    HW2 6138   7.743   7.668   3.182  1.4458  0.2901 -0.2457
34203SOL     OW 6139   2.204   7.548   7.827  0.2019 -0.0554  0.1036
34203SOL    HW1 6140   2.285   7.595   7.808  0.1040  1.0071  2.0685
34203SOL    HW2 6141   2.214   7.465   7.781  2.0994  0.3360 -0.2919
34204SOL     OW 6142   1.805   1.779   0.316 -0.0254 -0.3089  0.7646
34204SOL    HW1 6143   1.881   1.835   0.300 -0.1105 -0.3407  0.1998
34204SOL    HW2 6144   1.842   1.695   0.342  0.1075 -0.0409  1.4542
34205SOL     OW 6145   0.028   6.066   5.785 -0.7000 -0.2322  0.7871
34205SOL    HW1 6146   0.026   5.976   5.751 -0.4457 -0.1219  0.4796
34205SOL    HW2 6147   0.104   6.106   5.744 -1.3167  0.4007  0.2375
34206SOL     OW 6148   5.431   7.817   9.293 -0.4467 -0.0838 -0.1023
34206SOL    HW1 6149   5.421   7.815   9.198 -0.1757 -2.9167 -0.1575
34206SOL    HW2 6150   5.521   7.789   9.308 -1.0725 -1.6920  0.9794
34207SOL     OW 6151   9.447   4.295  10.166 -0.4540  0.1092 -0.2213
34207SOL    HW1 6152   9.411   4.319  10.081  1.4020 -0.8788 -1.3738
34207SOL    HW2 6153   9.526   4.349  10.175 -0.6259  0.2051  0.8861
34208SOL     OW 6154   8.654   1.900   8.388  0.3824  0.1086  0.4524
34208SOL    HW1 6155   8.708   1.969   8.349  2.1767 -0.8285  1.2014
34208SOL    HW2 6156   8.626   1.937   8.472  1.8623 -0.2684  1.1389
34209SOL     OW 6157  10.685   9.823   5.156  0.1349  0.2517  0.3096
34209SOL    HW1 6158  10.697   9.751   5.219  2.3947  1.3632  1.2785
34209SOL    HW2 6159  10.618   9.791   5.096  0.1507 -2.1497  1.4338
34210SOL     OW 6160   7.200   4.971   6.262 -0.2956  0.0519 -0.0886
34210SOL    HW1 6161   7.277   4.914   6.259  1.1341  1.8914 -1.2863
34210SOL    HW2 6162   7.184   4.985   6.355 -0.7239 -2.2643  0.2363
34211SOL     OW 6163   3.416   8.038   4.108  0.1213  0.0502  0.0549
34211SOL    HW1 6164   3.476   7.993   4.168  0.6795  1.8728  0.9093
34211SOL    HW2 6165   3.342   8.062   4.163 -1.6470 -2.4092 -1.0411
34212SOL     OW 6166   1.455   4.822   3.121 -0.7679  0.4082 -0.1831
34212SOL    HW1 6167   1.399   4.885   3.166  0.9104  1.8286 -0.0070
34212SOL    HW2 6168   1.543   4.859   3.126 -0.0331 -0.9443 -1.8830
34213SOL     OW 6169   5.961   7.951   5.800  0.0519 -0.0468  0.8296
34213SOL    HW1 6170   5.942   7.869   5.753 -1.2734  0.2364  0.8271
34213SOL    HW2 6171   5.883   7.966   5.853 -0.4979  2.1283 -0.4741
34214SOL     OW 6172   1.982   7.674   7.477  0.0547  0.0233 -0.5140
34214SOL    HW1 6173   1.971   7.621   7.556 -0.6438  0.3249 -0.4013
34214SOL    HW2 6174   2.066   7.717   7.489 -0.3844  0.6584  0.4347
34215SOL     OW 6175   7.953   9.876   1.216  0.7903 -0.3598 -0.3206
34215SOL    HW1 6176   7.908   9.878   1.132  0.4439 -4.1830 -0.3745
34215SOL    HW2 6177   8.043   9.902   1.195  0.1069  1.3938 -1.2990
34216SOL     OW 6178   1.470   9.093   1.279  0.4590  0.1785 -0.0832
34216SOL    HW1 6179   1.481   9.045   1.196  0.4474 -1.2744  0.7234
34216SOL    HW2 6180   1.526   9.170   1.269 -0.0379  0.3825 -1.6937
34217SOL     OW 6181   5.048   1.276   3.805  0.1041  0.3208  0.3632
34217SOL    HW1 6182   4.954   1.289   3.815 -0.1779 -0.8835 -0.5553
34217SOL    HW2 6183   5.068   1.201   3.862  0.5104  0.5706  0.5525
34218SOL     OW 6184   7.269   6.227   2.142  0.4793  0.0692  0.2221
34218SOL    HW1 6185   7.221   6.146   2.122  0.6799  0.2492 -1.0335
34218SOL    HW2 6186   7.345   6.198   2.193  0.3842 -0.5020  0.0453
34219SOL     OW 6187   7.110   8.192   1.172  0.0432  0.0079 -0.2767
34219SOL    HW1 6188   7.121   8.107   1.130  0.3259 -0.7476  1.2563
34219SOL    HW2 6189   7.019   8.217   1.154  0.5176  0.3820 -2.4538
34220SOL     OW 6190   7.267  10.538  10.154  0.2918 -0.0931 -0.2680
34220SOL    HW1 6191   7.350  10.528  10.107  0.2412 -1.9715 -0.0205
34220SOL    HW2 6192   7.277  10.484  10.232 -1.8667 -2.0758 -1.2170
34221SOL     OW 6193   1.357   7.211   0.881 -0.2043  0.4291 -0.4150
34221SOL    HW1 6194   1.310   7.154   0.941 -0.4191  1.8726  0.8689
34221SOL    HW2 6195   1.289   7.269   0.845  0.4740  2.8749  1.8434
34222SOL     OW 6196   8.937   8.714   0.858  0.1389 -0.2392  0.5242
34222SOL    HW1 6197   9.020   8.667   0.865  0.8691  1.1830  2.0965
34222SOL    HW2 6198   8.872   8.653   0.892  0.4320 -1.5257 -1.1031
34223SOL     OW 6199   2.911   8.954   9.704  0.2220  0.4302 -0.0421
34223SOL    HW1 6200   3.003   8.949   9.678  0.5792  0.2315  1.1520
34223SOL    HW2 6201   2.889   8.864   9.727 -0.0968  0.5693  0.2015
34224SOL     OW 6202   0.611   5.520   3.986  0.4293 -0.2080  0.6582
34224SOL    HW1 6203   0.665   5.485   3.915 -0.5734 -0.1701 -0.1571
34224SOL    HW2 6204   0.582   5.606   3.954  0.2620 -0.0263  1.2751
34225SOL     OW 6205   5.544   7.144   6.567  0.1082 -0.8561 -0.1345
34225SOL    HW1 6206   5.586   7.111   6.488 -1.2998 -0.0089 -1.2817
34225SOL    HW2 6207   5.479   7.207   6.536 -0.0327  0.0092  1.7358
34226SOL     OW 6208   4.778   7.833   8.666  0.3043  0.1806 -0.2580
34226SOL    HW1 6209   4.797   7.762   8.727 -0.0020 -0.0922 -0.4769
34226SOL    HW2 6210   4.814   7.911   8.708 -1.4179  0.3040  1.0813
34227SOL     OW 6211   8.183   2.946   7.504 -0.6937  0.4959 -0.0973
34227SOL    HW1 6212   8.245   3.018   7.504 -1.8675  1.5543 -0.6943
34227SOL    HW2 6213   8.173   2.923   7.411 -1.9815  1.0844 -0.1298
34228SOL     OW 6214   3.813   1.122   1.871 -0.3586 -0.0867  0.3037
34228SOL    HW1 6215   3.839   1.214   1.868 -0.2720 -0.1389 -0.8924
34228SOL    HW2 6216   3.726   1.122   1.910  0.5718  0.2767  2.4925
34229SOL     OW 6217   5.719   0.010   3.853 -0.1761  0.1796  0.0599
34229SOL    HW1 6218   5.667  -0.059   3.893  0.9657 -0.7014  0.0880
34229SOL    HW2 6219   5.691   0.090   3.897 -1.0243 -0.3541  0.5254
34230SOL     OW 6220   1.891   1.882   4.786  0.0717 -0.3173  0.0736
34230SOL    HW1 6221   1.935   1.808   4.829  2.7397  1.2016  0.1838
34230SOL    HW2 6222   1.935   1.959   4.821 -0.9845  1.2209 -1.8055
34231SOL     OW 6223   5.974   4.721   9.955 -0.0838  0.0594  0.1377
34231SOL    HW1 6224   5.928   4.641   9.931 -0.6821  0.3251  0.3779
34231SOL    HW2 6225   5.907   4.776   9.995  0.9359 -0.5732  2.9311
34232SOL     OW 6226   2.710   1.801   6.940 -0.5243  0.5281  0.1703
34232SOL    HW1 6227   2.747   1.888   6.955 -0.2154  0.2336  1.1972
34232SOL    HW2 6228   2.615   1.814   6.943 -0.4991  0.9758 -0.6270
34233SOL     OW 6229  11.060   5.144   8.144 -0.1212 -0.0117 -0.2574
34233SOL    HW1 6230  11.095   5.193   8.070  0.8753 -0.9195 -0.4174
34233SOL    HW2 6231  10.983   5.100   8.109 -0.7596  1.0462 -0.2296
34234SOL     OW 6232  10.545  10.278   5.067  0.3786  0.0356  0.4427
34234SOL    HW1 6233  10.620  10.323   5.106  0.2955 -0.0072  0.6561
34234SOL    HW2 6234  10.469  10.323   5.103  0.3019  0.0813  0.2245
34235SOL     OW 6235   9.473  10.076  10.739 -0.2822 -0.4828  0.0087
34235SOL    HW1 6236   9.444  10.019  10.667  1.6042  0.0249 -1.2335
34235SOL    HW2 6237   9.418  10.154  10.732  0.5068 -0.0145 -1.5757
34236SOL     OW 6238   9.842  10.975   6.042 -0.3274  0.4108  0.5136
34236SOL    HW1 6239   9.793  11.032   5.983 -0.7528 -1.2756 -0.8406
34236SOL    HW2 6240   9.776  10.917   6.080 -0.0357  1.3432  2.5829
34237SOL     OW 6241   0.757   9.074   4.736  0.8146  0.1743 -0.4367
34237SOL    HW1 6242   0.711   9.008   4.684 -1.2734  1.0083  0.2583
34237SOL    HW2 6243   0.810   9.024   4.797 -0.5648 -0.9093 -0.0642
34238SOL     OW 6244   2.855   5.533   4.796 -0.3419 -0.4346 -0.2697
34238SOL    HW1 6245   2.942   5.551   4.761 -0.6380 -0.2303 -0.9261
34238SOL    HW2 6246   2.796   5.585   4.742 -0.9354 -1.0655 -0.2556
34239SOL     OW 6247  10.468   7.642   9.633  0.4726  0.0001 -0.0991
34239SOL    HW1 6248  10.490   7.699   9.559 -1.4672 -0.6196 -1.2139
34239SOL    HW2 6249  10.377   7.616   9.618  0.6532 -1.7761  1.4561
34240SOL     OW 6250   5.908   8.262   2.166  0.0768 -0.0951 -0.3223
34240SOL    HW1 6251   5.846   8.332   2.182 -1.1428 -0.5994 -2.4994
34240SOL    HW2 6252   5.991   8.307   2.148 -0.3516  0.7122 -0.3213
34241SOL     OW 6253   2.829   8.210   6.703 -0.1972  0.1678  0.3994
34241SOL    HW1 6254   2.885   8.225   6.627  0.5357 -1.7425  0.5203
34241SOL    HW2 6255   2.870   8.261   6.773  1.7285 -1.5567  0.6095
34242SOL     OW 6256   7.251   8.929   5.381  0.2743 -0.1527  0.0272
34242SOL    HW1 6257   7.158   8.950   5.394 -0.1764 -2.4209  0.8528
34242SOL    HW2 6258   7.260   8.840   5.414  2.6404 -0.2022 -0.6199
34243SOL     OW 6259  11.125   6.937   9.032  0.3409 -0.2518 -0.1501
34243SOL    HW1 6260  11.117   6.926   8.937 -0.1788  2.3477 -0.4646
34243SOL    HW2 6261  11.035   6.937   9.063  0.4643 -0.0207  0.2070
34244SOL     OW 6262   2.262   8.396  10.026  0.0864  0.4683 -0.6153
34244SOL    HW1 6263   2.174   8.394   9.989 -0.3477 -1.2881  0.4086
34244SOL    HW2 6264   2.248   8.385  10.120  1.4742 -2.6299 -0.6605
34245SOL     OW 6265   3.973  10.829   8.907  0.6569  0.0308  0.0831
34245SOL    HW1 6266   3.944  10.891   8.840 -0.6461 -1.3553 -0.6881
34245SOL    HW2 6267   3.894  10.779   8.929  1.6684 -1.3376  0.7081
34246SOL     OW 6268  10.049   8.956   9.600 -0.1304 -0.1444 -0.7258
34246SOL    HW1 6269  10.031   9.027   9.661 -0.6499 -1.0723  0.2241
34246SOL    HW2 6270   9.982   8.966   9.532 -0.3796  0.1016 -0.4461
34247SOL     OW 6271   8.989   0.796   4.068  0.4934 -0.7435  0.2811
34247SOL    HW1 6272   8.937   0.757   4.138  0.4484  1.0242  1.2972
34247SOL    HW2 6273   8.925   0.830   4.006  0.4232  0.2862  0.8875
34248SOL     OW 6274   1.476   8.397   4.884  0.0987 -0.5250  0.4500
34248SOL    HW1 6275   1.440   8.416   4.970  0.4222  0.0681  0.4572
34248SOL    HW2 6276   1.561   8.441   4.883 -1.2414  2.3681 -1.3593
34249SOL     OW 6277  11.026   5.502  10.949 -0.1866  0.5026 -0.0069
34249SOL    HW1 6278  11.005   5.504  10.856 -0.1494  1.1016 -0.0047
34249SOL    HW2 6279  11.110   5.546  10.956  0.0550  0.0056  0.2486
34250SOL     OW 6280   1.996   5.555   3.670 -0.0156  0.6872  0.1985
34250SOL    HW1 6281   2.011   5.530   3.578  0.4809  2.0486 -0.1096
34250SOL    HW2 6282   1.933   5.627   3.665 -0.8546  0.0288  1.0195
34251SOL     OW 6283   8.503  10.198   8.731 -0.3994  0.2146  0.2086
34251SOL    HW1 6284   8.439  10.209   8.661  0.5378  0.6370 -0.6022
34251SOL    HW2 6285   8.504  10.104   8.748  0.2776 -0.0767 -1.2519
34252SOL     OW 6286   6.955   5.789   2.581 -0.0873 -0.0142 -0.2363
34252SOL    HW1 6287   6.933   5.747   2.663 -0.8875  0.2281 -0.3164
34252SOL    HW2 6288   6.936   5.723   2.514 -0.7340  0.2407 -0.3150
34253SOL     OW 6289   6.391   0.276   9.725 -0.2479 -0.0598  0.3564
34253SOL    HW1 6290   6.441   0.353   9.699 -0.4424 -0.7846 -2.5062
34253SOL    HW2 6291   6.305   0.289   9.685  0.0702 -2.2046 -1.2231
34254SOL     OW 6292   7.073   6.355  10.598  0.2923  0.0012 -0.0371
34254SOL    HW1 6293   7.003   6.316  10.546  0.5505  0.6686 -0.8972
34254SOL    HW2 6294   7.146   6.366  10.536  0.9405 -0.0945  0.6933
34255SOL     OW 6295   3.019   5.819   9.636 -0.8552 -0.7596  0.4568
34255SOL    HW1 6296   3.013   5.839   9.729  1.4793 -0.1666  0.5364
34255SOL    HW2 6297   3.093   5.758   9.629 -0.8284 -0.5992 -1.0254
34256SOL     OW 6298   2.910   6.704   6.080  0.1924  0.1884 -0.4029
34256SOL    HW1 6299   2.980   6.705   6.014  0.6566 -0.4294  0.0758
34256SOL    HW2 6300   2.876   6.794   6.079  0.7754  0.4130 -0.8694
34257SOL     OW 6301   5.695  10.202   2.307 -0.2002 -0.2522  0.2010
34257SOL    HW1 6302   5.603  10.192   2.281 -0.0273  0.1713 -0.6236
34257SOL    HW2 6303   5.696  10.182   2.400 -0.9612 -1.2191  0.0147
34258SOL     OW 6304   7.910   5.112   8.473 -0.7127  0.4510 -0.5366
34258SOL    HW1 6305   7.816   5.128   8.462 -0.8129  0.9262  0.7663
34258SOL    HW2 6306   7.953   5.172   8.412 -1.2482  0.0552 -1.3188
34259SOL     OW 6307   1.667   8.750   6.009  0.1913 -0.0491  0.7356
34259SOL    HW1 6308   1.753   8.727   6.046 -0.0962 -0.2308  1.2990
34259SOL    HW2 6309   1.657   8.691   5.935 -0.7106 -2.0914  2.3841
34260SOL     OW 6310  10.120   7.733   5.026  0.6901 -0.2201 -0.1227
34260SOL    HW1 6311  10.132   7.639   5.013  1.2905 -0.3440  1.1234
34260SOL    HW2 6312  10.035   7.740   5.070  0.5620 -0.1620 -0.3777
34261SOL     OW 6313   8.369  10.650   9.927  0.4867  0.4121  0.1451
34261SOL    HW1 6314   8.309  10.713   9.886 -0.3747 -0.3105  0.2556
34261SOL    HW2 6315   8.337  10.564   9.897  2.0237  0.0425 -0.5191
34262SOL     OW 6316   3.146   0.819   8.462  0.0194  0.2657 -0.3520
34262SOL    HW1 6317   3.170   0.769   8.384 -0.4133  1.1830 -1.0971
34262SOL    HW2 6318   3.167   0.910   8.440  0.7027  0.4429  0.9369
34263SOL     OW 6319   0.349   6.007   0.160  0.0153  0.8139  0.1970
34263SOL    HW1 6320   0.306   5.967   0.235 -0.7426  0.3398 -0.4814
34263SOL    HW2 6321   0.282   6.063   0.120 -0.2407 -0.5176 -1.3046
34264SOL     OW 6322   9.260   6.870   8.476 -0.8361  0.4437  0.4957
34264SOL    HW1 6323   9.318   6.935   8.515  1.1134 -1.1619  0.4131
34264SOL    HW2 6324   9.213   6.832   8.550 -0.1890  0.2772  0.8281
34265SOL     OW 6325   5.007   0.355  10.534 -0.4229  0.0288  0.2592
34265SOL    HW1 6326   4.992   0.280  10.477 -1.9019 -0.0765  0.7440
34265SOL    HW2 6327   4.929   0.361  10.588 -1.1099  2.8820 -0.8450
34266SOL     OW 6328  10.629   1.900   5.963  0.5149  0.1728  0.0800
34266SOL    HW1 6329  10.656   1.861   6.046  0.7019  0.7633  0.2993
34266SOL    HW2 6330  10.640   1.994   5.975 -2.0944  0.5243  0.3731
34267SOL     OW 6331   2.648   0.715   7.669  0.1881  0.2728  0.4019
34267SOL    HW1 6332   2.563   0.690   7.704  0.3413  1.6421  1.8568
34267SOL    HW2 6333   2.705   0.641   7.688 -0.4503 -0.2632  0.2563
34268SOL     OW 6334   2.989   6.556   6.531 -0.4459 -0.1829  0.1199
34268SOL    HW1 6335   2.936   6.502   6.472 -1.8958 -0.3589  1.4998
34268SOL    HW2 6336   3.074   6.511   6.536 -0.9539 -1.2117 -0.3418
34269SOL     OW 6337   8.023  10.408   2.061  0.6587  0.1887 -0.4543
34269SOL    HW1 6338   8.111  10.405   2.024  0.7098  0.5563 -0.3645
34269SOL    HW2 6339   8.017  10.495   2.101  0.1421  0.2820 -0.7366
34270SOL     OW 6340   7.227   8.485   2.644  0.0054 -0.4162 -0.3553
34270SOL    HW1 6341   7.311   8.504   2.686 -1.0448 -0.2694  1.7946
34270SOL    HW2 6342   7.161   8.523   2.702 -1.6451 -1.9516 -1.1118
34271SOL     OW 6343   8.929   3.184   2.636  0.0320  0.2735  0.1065
34271SOL    HW1 6344   8.868   3.243   2.591  0.1102  0.4414  0.2205
34271SOL    HW2 6345   8.966   3.130   2.566  1.7262  1.9312 -0.3562
34272SOL     OW 6346   7.685   3.654   9.034 -0.1391  0.4322  0.6219
34272SOL    HW1 6347   7.725   3.693   9.113 -0.2857  1.7644  0.0620
34272SOL    HW2 6348   7.663   3.565   9.061  3.6849 -0.6539  0.8351
34273SOL     OW 6349   6.032   1.583   2.171  0.3387 -0.3010 -0.4484
34273SOL    HW1 6350   6.011   1.664   2.126 -0.6601 -1.8120 -2.9196
34273SOL    HW2 6351   6.042   1.608   2.263 -4.2641  1.9788 -0.2999
34274SOL     OW 6352   9.663   9.050   4.741  0.2320 -0.9353 -0.1134
34274SOL    HW1 6353   9.667   9.144   4.759  0.4147 -0.6394 -1.5607
34274SOL    HW2 6354   9.676   9.008   4.826  0.2084  0.3465  0.5382
34275SOL     OW 6355   8.058   3.509   9.206 -0.4238 -0.0482  0.5271
34275SOL    HW1 6356   8.087   3.423   9.235 -1.4778 -0.3746  0.6369
34275SOL    HW2 6357   7.998   3.491   9.133  0.6935  0.6722 -0.6277
34276SOL     OW 6358   0.390   6.088   6.784  0.2684 -0.0875 -0.5316
34276SOL    HW1 6359   0.430   6.102   6.869 -0.7724  1.1650 -0.2193
34276SOL    HW2 6360   0.464   6.079   6.724  1.0409  1.4721  0.1291
34277SOL     OW 6361   6.750   5.766  10.435  0.2399  0.1275 -0.5483
34277SOL    HW1 6362   6.663   5.728  10.438  0.8309 -1.5827 -2.5763
34277SOL    HW2 6363   6.802   5.712  10.494  0.3511 -0.1582 -0.9013
34278SOL     OW 6364   9.040   4.434  10.499 -0.2583  0.0573  0.6611
34278SOL    HW1 6365   8.953   4.465  10.523 -0.0679  0.6136  0.6378
34278SOL    HW2 6366   9.094   4.450  10.576 -0.3079 -0.8330  0.8852
34279SOL     OW 6367   6.431  10.935   1.566  0.4230 -0.0173  0.3623
34279SOL    HW1 6368   6.428  11.019   1.611  0.0447 -0.8865  2.0170
34279SOL    HW2 6369   6.515  10.896   1.592  0.2265 -0.5108  0.2778
34280SOL     OW 6370   8.792   3.783   4.277  0.4208 -0.6066  0.0084
34280SOL    HW1 6371   8.707   3.739   4.281 -0.2775  0.2098 -2.8658
34280SOL    HW2 6372   8.784   3.856   4.337  0.0575 -1.9472  1.6695
34281SOL     OW 6373   6.993   3.141   2.641  0.2250  0.0200 -0.0973
34281SOL    HW1 6374   7.077   3.169   2.605 -0.5742  1.4050 -0.9881
34281SOL    HW2 6375   6.990   3.180   2.729  0.5427 -0.0979 -0.0347
34282SOL     OW 6376  10.158   3.689   7.995  0.2982 -0.2702 -0.1126
34282SOL    HW1 6377  10.145   3.780   8.022  0.5395 -0.3455  0.2561
34282SOL    HW2 6378  10.158   3.639   8.077 -1.4040 -0.7983 -0.3966
34283SOL     OW 6379   9.005   2.759   4.966  0.0599 -0.0825  0.7924
34283SOL    HW1 6380   9.033   2.740   5.055 -0.7272  0.1346  1.0947
34283SOL    HW2 6381   9.049   2.842   4.944 -0.2148  0.1728  1.1962
34284SOL     OW 6382   4.273   2.467   4.606  0.2966  0.0371 -0.0146
34284SOL    HW1 6383   4.291   2.374   4.590 -1.4636 -0.1439 -1.1307
34284SOL    HW2 6384   4.249   2.471   4.698  0.7599 -0.5304  0.1406
34285SOL     OW 6385   5.900   9.387   7.005 -0.3396  0.7507  0.1600
34285SOL    HW1 6386   5.989   9.398   6.969 -0.9514  1.4215 -1.2377
34285SOL    HW2 6387   5.847   9.361   6.929 -0.6457 -3.9923  1.6461
34286SOL     OW 6388   4.316   6.298   0.817 -0.2532  0.1741  0.0569
34286SOL    HW1 6389   4.309   6.217   0.868  0.4479 -0.0278 -0.1476
34286SOL    HW2 6390   4.367   6.357   0.873  0.8751 -0.1906 -0.5556
34287SOL     OW 6391   7.789   8.444   2.019 -0.4104 -0.1235  0.1568
34287SOL    HW1 6392   7.729   8.515   2.043 -0.6879 -0.0426 -0.7628
34287SOL    HW2 6393   7.735   8.366   2.019 -0.1623 -0.3048  0.8978
34288SOL     OW 6394   4.994   1.645   9.893  0.0517  0.2969  0.3117
34288SOL    HW1 6395   4.962   1.621   9.805  1.0878  0.4165 -0.1199
34288SOL    HW2 6396   4.957   1.578   9.950  0.4582 -0.6056 -0.4352
34289SOL     OW 6397   7.286  10.512   9.314 -0.3224  0.3230  0.5538
34289SOL    HW1 6398   7.207  10.557   9.283 -1.0164 -1.1152  0.1559
34289SOL    HW2 6399   7.254  10.449   9.378  0.4165 -0.7330 -0.0878
34290SOL     OW 6400   6.333   0.893   2.045  0.0269  0.4728  0.0745
34290SOL    HW1 6401   6.402   0.958   2.055 -1.1343  1.7252  0.1569
34290SOL    HW2 6402   6.379   0.809   2.044  1.5132  1.2584  0.4082
34291SOL     OW 6403   2.018   1.506   0.654 -0.3835 -0.1800 -0.2449
34291SOL    HW1 6404   1.950   1.448   0.687  1.6154 -1.8465  1.2724
34291SOL    HW2 6405   1.988   1.594   0.675 -1.8698 -0.8827  0.7067
34292SOL     OW 6406   0.332   4.370   7.487  0.2060 -0.5036  0.5339
34292SOL    HW1 6407   0.318   4.356   7.580  2.0928 -0.1594  0.8867
34292SOL    HW2 6408   0.421   4.339   7.470  0.7405  1.5034 -0.6852
34293SOL     OW 6409   6.603   6.800   6.513  0.0714 -0.5952 -0.5212
34293SOL    HW1 6410   6.602   6.710   6.547 -1.3151 -0.2003  0.5732
34293SOL    HW2 6411   6.622   6.854   6.589 -1.4546  0.1966 -0.6674
34294SOL     OW 6412   3.606   7.229  10.364  1.4483 -0.1913  0.1338
34294SOL    HW1 6413   3.624   7.139  10.392 -0.7962 -0.7697 -0.1210
34294SOL    HW2 6414   3.656   7.239  10.283  2.5002 -0.8591  0.6761
34295SOL     OW 6415   4.918   1.983   8.320 -0.4164  0.6575 -0.2893
34295SOL    HW1 6416   4.875   2.033   8.390  0.8231  0.5483  0.5771
34295SOL    HW2 6417   4.852   1.918   8.294  0.0227 -1.2560  2.8361
34296SOL     OW 6418   9.962   7.574   0.445 -0.0051 -0.0282  0.5222
34296SOL    HW1 6419   9.930   7.511   0.509  2.1597 -0.9375  0.8167
34296SOL    HW2 6420   9.924   7.545   0.362 -0.0405 -0.9772  0.8579
34297SOL     OW 6421   9.228   7.571   5.430 -0.4313 -0.9322 -0.0006
34297SOL    HW1 6422   9.278   7.491   5.411 -0.0032 -0.9986  1.2714
34297SOL    HW2 6423   9.191   7.555   5.517  0.1169  0.4605  0.5219
34298SOL     OW 6424   8.047   0.255   2.104 -0.0191  0.5857 -0.2494
34298SOL    HW1 6425   8.039   0.344   2.068 -0.6891  0.8515  0.5070
34298SOL    HW2 6426   7.960   0.237   2.139 -0.0653 -0.6245 -0.9348
34299SOL     OW 6427   9.384   5.925   2.703  0.3405  0.0221 -0.1305
34299SOL    HW1 6428   9.370   5.963   2.616  1.1438  0.3099 -0.1454
34299SOL    HW2 6429   9.460   5.972   2.737 -0.4228  0.4330  1.0450
34300SOL     OW 6430   1.203   5.542   2.648  0.1683  0.1733 -0.5691
34300SOL    HW1 6431   1.223   5.490   2.570 -2.6070  0.0883 -1.3115
34300SOL    HW2 6432   1.217   5.633   2.620 -0.2250  0.1120 -0.9626
34301SOL     OW 6433   2.144   4.157   0.838  0.4674 -0.0424  0.2209
34301SOL    HW1 6434   2.217   4.152   0.777  1.1265 -0.0417  0.9966
34301SOL    HW2 6435   2.170   4.223   0.902  1.1987 -2.1751  2.2784
34302SOL     OW 6436   4.567   5.627   9.195 -0.0954  0.4732  0.3697
34302SOL    HW1 6437   4.473   5.612   9.183  0.3104 -0.0985 -2.9248
34302SOL    HW2 6438   4.581   5.718   9.171  0.1392  0.7688  1.5543
34303SOL     OW 6439   6.558   0.502   9.162 -0.0973 -0.6824 -0.3156
34303SOL    HW1 6440   6.546   0.578   9.219 -0.2103 -1.5253  0.8092
34303SOL    HW2 6441   6.471   0.464   9.155  0.2774 -1.7873  0.6994
34304SOL     OW 6442   4.773  10.880   6.856 -0.0944 -0.0686 -0.1722
34304SOL    HW1 6443   4.829  10.946   6.896 -0.3296 -0.8454  1.4985
34304SOL    HW2 6444   4.816  10.796   6.875 -0.6675 -0.5200 -0.8056
34305SOL     OW 6445   2.828   7.509  10.840 -0.0737 -0.1835 -0.0355
34305SOL    HW1 6446   2.791   7.437  10.788  1.4407 -2.1300  1.3886
34305SOL    HW2 6447   2.753   7.549  10.883 -1.1276  0.1208 -2.0335
34306SOL     OW 6448   3.425   1.893   7.645  0.2304 -0.0216 -0.0292
34306SOL    HW1 6449   3.490   1.850   7.701  0.9604 -2.5469 -2.5516
34306SOL    HW2 6450   3.472   1.967   7.606  1.5498 -1.5058 -1.4176
34307SOL     OW 6451   8.723   7.165   1.861 -0.5063 -0.8324 -0.0443
34307SOL    HW1 6452   8.697   7.110   1.934 -0.7582 -0.0663  0.4516
34307SOL    HW2 6453   8.818   7.176   1.872 -0.9396  1.8024  1.9923
34308SOL     OW 6454   7.077   7.641   8.645 -0.2759 -0.0964  0.1613
34308SOL    HW1 6455   7.099   7.733   8.662 -1.7487  0.1191  1.1202
34308SOL    HW2 6456   7.138   7.591   8.700 -0.1554  0.3509  0.4376
34309SOL     OW 6457   1.917   3.334   8.236  0.3709  0.0010  0.1678
34309SOL    HW1 6458   1.839   3.282   8.218  1.3526 -1.3977 -0.1706
34309SOL    HW2 6459   1.969   3.280   8.295  1.5715  0.4374 -0.4619
34310SOL     OW 6460   8.461   1.182   5.946  0.4284  0.3957  0.7159
34310SOL    HW1 6461   8.465   1.158   5.853 -0.1062  0.6270  0.6246
34310SOL    HW2 6462   8.461   1.278   5.945  0.9048  0.4011  0.9842
34311SOL     OW 6463   9.719   6.973   6.298 -0.5321  0.0394  0.1885
34311SOL    HW1 6464   9.681   6.889   6.322 -0.0003  0.1366  1.4403
34311SOL    HW2 6465   9.808   6.951   6.267 -0.2142  0.1783  0.9875
34312SOL     OW 6466   1.227  10.304   0.495 -0.1535  0.2505  0.2637
34312SOL    HW1 6467   1.273  10.351   0.426  1.9950  0.7409  1.9268
34312SOL    HW2 6468   1.184  10.372   0.548 -1.6338 -0.1067 -0.4062
34313SOL     OW 6469  10.361   3.635   9.709 -0.1568  0.5395  0.4374
34313SOL    HW1 6470  10.318   3.634   9.795 -1.1270  1.1071 -0.0276
34313SOL    HW2 6471  10.442   3.587   9.723 -1.1864 -1.0907  1.2215
34314SOL     OW 6472   9.429   5.023   8.450  0.3124  0.3686  0.2335
34314SOL    HW1 6473   9.504   5.006   8.393  0.7262 -0.7166  1.0905
34314SOL    HW2 6474   9.468   5.053   8.532 -0.0713 -2.0502  1.3495
34315SOL     OW 6475  10.152   3.876   6.409  0.1734  0.5401  0.3618
34315SOL    HW1 6476  10.125   3.816   6.478 -2.1855  0.2842 -0.7018
34315SOL    HW2 6477  10.072   3.893   6.359  1.2285  2.8819 -0.6613
34316SOL     OW 6478  10.894   5.324   3.131 -0.6613 -0.2006 -0.4271
34316SOL    HW1 6479  10.891   5.328   3.227  0.5700  0.1726 -0.3901
34316SOL    HW2 6480  10.868   5.234   3.111  1.1993 -0.9983  0.4126
34317SOL     OW 6481   9.103   0.336   2.362  0.5807 -0.5193  0.1906
34317SOL    HW1 6482   9.141   0.248   2.365 -0.9708 -1.2015  0.6929
34317SOL    HW2 6483   9.009   0.323   2.371  0.4331  1.3092  2.7695
34318SOL     OW 6484   5.687   5.121   7.470 -0.6756 -0.4113 -0.4278
34318SOL    HW1 6485   5.645   5.097   7.553  1.1316  0.0111  0.6686
34318SOL    HW2 6486   5.732   5.204   7.490  1.3419 -1.2530 -1.2664
34319SOL     OW 6487   9.838   2.936   9.708  0.1700 -0.1220 -0.9491
34319SOL    HW1 6488   9.860   3.029   9.714 -0.9891  0.1109  0.3735
34319SOL    HW2 6489   9.790   2.928   9.626 -2.2235  1.0904  0.1927
34320SOL     OW 6490   1.363   1.989   2.057 -0.0606 -0.2165  0.4191
34320SOL    HW1 6491   1.457   1.977   2.042  0.3041 -1.0578  2.8704
34320SOL    HW2 6492   1.357   2.068   2.110 -0.8038  0.1043 -0.1304
34321SOL     OW 6493   6.259   4.173   9.473 -0.3411 -0.0940  0.0355
34321SOL    HW1 6494   6.179   4.172   9.421  0.5617 -0.9074 -1.4122
34321SOL    HW2 6495   6.306   4.094   9.446  1.2773  0.7330  0.3311
34322SOL     OW 6496   7.997  11.047   1.231  0.5301  0.1242 -0.1582
34322SOL    HW1 6497   8.036  10.999   1.304 -0.3983  0.6296  0.7112
34322SOL    HW2 6498   8.066  11.107   1.202 -0.1117  2.5027  2.7222
34323SOL     OW 6499   4.630  10.486   9.151 -0.8210 -0.4623 -0.2238
34323SOL    HW1 6500   4.677  10.500   9.233 -0.1636 -0.7988 -0.5423
34323SOL    HW2 6501   4.689  10.434   9.097 -0.8975  0.4857 -1.2545
34324SOL     OW 6502   2.043   5.545  10.535 -0.5157 -0.0353  0.2534
34324SOL    HW1 6503   1.979   5.594  10.586 -0.3930  0.5916 -0.1789
34324SOL    HW2 6504   2.112   5.523  10.597 -0.8748 -0.2226  0.5939
34325SOL     OW 6505  10.145   0.834   4.282  0.0868  0.1921 -0.2065
34325SOL    HW1 6506  10.168   0.924   4.258  0.0368  0.6103  1.2353
34325SOL    HW2 6507  10.205   0.780   4.231  0.9030  1.0905 -0.2323
34326SOL     OW 6508   4.009   2.293   4.318  0.1839 -0.3307 -0.3346
34326SOL    HW1 6509   4.002   2.321   4.409 -0.1535 -0.8279 -0.2042
34326SOL    HW2 6510   4.084   2.233   4.317  2.5056  2.3685 -1.0746
34327SOL     OW 6511   8.881   6.783   8.040 -0.2053 -0.1795 -0.2956
34327SOL    HW1 6512   8.876   6.815   8.130 -2.1785 -0.7060 -0.1814
34327SOL    HW2 6513   8.876   6.688   8.048 -1.9859 -0.1845 -0.9967
34328SOL     OW 6514   7.371   4.711   5.417 -0.1350 -0.6062  0.3873
34328SOL    HW1 6515   7.452   4.714   5.365  0.8712 -0.2441  1.9244
34328SOL    HW2 6516   7.357   4.801   5.445 -1.3570 -0.5789 -0.2321
34329SOL     OW 6517   7.767   5.600   2.579  0.1503 -0.2827 -0.7018
34329SOL    HW1 6518   7.801   5.606   2.668 -0.2092  4.1018 -0.6360
34329SOL    HW2 6519   7.830   5.545   2.533  2.7691  0.8111  1.3222
34330SOL     OW 6520   8.539   5.617   0.193 -0.4081  0.8295 -0.2646
34330SOL    HW1 6521   8.483   5.639   0.267  2.0740  0.3913  1.8856
34330SOL    HW2 6522   8.570   5.528   0.212  0.9474  1.0337 -1.3922
34331SOL     OW 6523   4.487   0.556   6.914 -0.4414  0.1694  0.1523
34331SOL    HW1 6524   4.476   0.497   6.839  0.4824  0.6052 -0.3479
34331SOL    HW2 6525   4.539   0.629   6.879  0.0759  0.3398  1.2403
34332SOL     OW 6526   7.586   7.120   1.719  0.0283 -0.2297 -0.0359
34332SOL    HW1 6527   7.500   7.081   1.700 -0.0859  0.3725 -0.8067
34332SOL    HW2 6528   7.644   7.083   1.652  0.1139  0.2330 -0.2225
34333SOL     OW 6529   5.425   7.337   3.417  0.1634 -0.3204 -0.5069
34333SOL    HW1 6530   5.508   7.297   3.439 -0.1598 -0.4511  0.5089
34333SOL    HW2 6531   5.441   7.431   3.424  0.3370 -0.3332 -0.7326
34334SOL     OW 6532   1.797   8.330   9.378  0.3477  0.2401  0.1029
34334SOL    HW1 6533   1.851   8.407   9.362 -0.1685  0.7256  0.6551
34334SOL    HW2 6534   1.857   8.256   9.364  0.6946  0.7150 -0.9771
34335SOL     OW 6535   1.487   0.514   2.967  0.5259  0.2793  0.8754
34335SOL    HW1 6536   1.401   0.499   3.007  0.3478 -0.4099  0.2546
34335SOL    HW2 6537   1.494   0.609   2.960 -0.6334  0.3242 -0.0086
34336SOL     OW 6538   4.376   8.717   3.012  0.3341  0.0401  0.3400
34336SOL    HW1 6539   4.401   8.774   2.939 -0.6520  1.4801  1.0971
34336SOL    HW2 6540   4.295   8.675   2.982 -1.4475  2.4679  1.4596
34337SOL     OW 6541   7.903   0.027   8.094 -0.1227  0.6738 -0.4266
34337SOL    HW1 6542   7.921   0.037   8.001 -2.2665  1.4755 -0.8222
34337SOL    HW2 6543   7.888   0.116   8.126  2.5010  0.6449  1.2018
34338SOL     OW 6544  10.794   0.543   1.328  0.1969  0.2670 -0.5287
34338SOL    HW1 6545  10.828   0.465   1.370  0.4221  0.6997  0.1092
34338SOL    HW2 6546  10.774   0.516   1.239  2.4073  0.0528 -1.0107
34339SOL     OW 6547   1.555   7.468   5.568 -0.0715 -0.5055  0.0604
34339SOL    HW1 6548   1.579   7.431   5.483 -0.7176 -2.1291  0.5459
34339SOL    HW2 6549   1.638   7.484   5.612  0.2585 -2.6523  0.3169
34340SOL     OW 6550   5.613   3.839   9.543  0.1915 -0.2656  0.3884
34340SOL    HW1 6551   5.573   3.908   9.595 -0.3547 -0.6297  0.4544
34340SOL    HW2 6552   5.707   3.847   9.561  0.1349  0.4935  0.3489
34341SOL     OW 6553   1.123   2.418   5.594 -0.1105 -0.5754 -0.4690
34341SOL    HW1 6554   1.059   2.359   5.633 -0.4300 -0.3121 -0.5865
34341SOL    HW2 6555   1.125   2.494   5.652  0.6925 -0.9224 -0.0256
34342SOL     OW 6556  10.473   9.704   9.291 -0.0023  0.1332 -0.9001
34342SOL    HW1 6557  10.401   9.705   9.354  0.8792  1.5306  0.1134
34342SOL    HW2 6558  10.448   9.768   9.225  0.0244  0.1694 -0.8750
34343SOL     OW 6559   8.640   0.075   7.280 -0.3324 -0.4097  0.0465
34343SOL    HW1 6560   8.599   0.147   7.328 -2.4632 -2.4486  1.5150
34343SOL    HW2 6561   8.629   0.098   7.188 -2.7366  0.2802  0.4410
34344SOL     OW 6562   6.599   3.180   0.689  0.1652 -0.2941  0.1244
34344SOL    HW1 6563   6.676   3.206   0.638  0.3836  1.2156  1.1617
34344SOL    HW2 6564   6.532   3.244   0.667 -0.8638 -1.6257 -0.8082
34345SOL     OW 6565   1.308   9.037   4.564 -0.2861  0.4628 -1.3733
34345SOL    HW1 6566   1.335   8.947   4.547  2.9458  1.4311 -2.1087
34345SOL    HW2 6567   1.301   9.042   4.659  1.2926 -0.1770 -1.1918
34346SOL     OW 6568   0.752  10.682   1.786  0.0762 -1.0785 -0.4895
34346SOL    HW1 6569   0.743  10.668   1.880  1.7257  1.0314  0.0749
34346SOL    HW2 6570   0.664  10.675   1.751 -0.7222 -0.9250  1.3920
34347SOL     OW 6571  10.949   7.646   8.207  0.4655  0.5958 -0.1926
34347SOL    HW1 6572  10.945   7.715   8.274  0.5000  0.0934  0.3427
34347SOL    HW2 6573  10.992   7.573   8.252 -0.9272 -0.3095 -0.2793
34348SOL     OW 6574   1.114   1.419   0.785  0.7925 -0.5395  0.5635
34348SOL    HW1 6575   1.191   1.474   0.773  0.0374  0.5044  0.4306
34348SOL    HW2 6576   1.040   1.475   0.763 -0.0520 -1.3592  1.2282
34349SOL     OW 6577   1.223  10.282   4.612 -0.6926 -0.5510  0.2315
34349SOL    HW1 6578   1.161  10.332   4.665  0.7277  0.0711  1.3749
34349SOL    HW2 6579   1.285  10.347   4.580 -0.8031 -1.1149 -1.1948
34350SOL     OW 6580   0.685   8.921   4.527  0.1112  0.2978 -0.3244
34350SOL    HW1 6581   0.664   8.983   4.458 -1.4276  0.4515  0.2428
34350SOL    HW2 6582   0.600   8.892   4.561  0.7849 -1.4961 -0.0165
34351SOL     OW 6583   6.145   9.788   9.207 -0.4632 -0.4914 -0.2354
34351SOL    HW1 6584   6.187   9.841   9.274  0.2305  1.5096 -2.1372
34351SOL    HW2 6585   6.217   9.750   9.157 -0.9440 -0.8740 -0.6582
34352SOL     OW 6586   1.483   7.620   2.582  0.8034 -0.1450  0.4212
34352SOL    HW1 6587   1.553   7.560   2.554  0.8780 -0.9825  2.2722
34352SOL    HW2 6588   1.419   7.563   2.624  0.3880  0.9496  1.3101
34353SOL     OW 6589   7.919   1.938   4.928  0.4940 -0.4593 -0.4929
34353SOL    HW1 6590   8.003   1.970   4.961  0.1332 -0.0319  0.0353
34353SOL    HW2 6591   7.887   1.879   4.997 -2.0926  3.3723  1.9776
34354SOL     OW 6592   9.108   3.803   3.681 -0.2100 -1.1626  0.4722
34354SOL    HW1 6593   9.132   3.812   3.589 -2.5734  1.3887 -0.0300
34354SOL    HW2 6594   9.105   3.709   3.696  0.5362 -1.6444 -1.9702
34355SOL     OW 6595   6.574   5.216   3.248  0.8879  0.4247  0.1082
34355SOL    HW1 6596   6.600   5.280   3.182 -1.9838 -0.1058 -1.6937
34355SOL    HW2 6597   6.593   5.131   3.208  1.2194  0.0971  0.9382
34356SOL     OW 6598   8.257   4.267   9.193 -0.0080 -0.2415 -0.3328
34356SOL    HW1 6599   8.260   4.180   9.154 -1.0018  0.0272 -1.0673
34356SOL    HW2 6600   8.196   4.316   9.138 -1.1824  0.2711  1.3121
34357SOL     OW 6601   7.648   9.690   7.163  0.3135  0.5526 -0.0271
34357SOL    HW1 6602   7.719   9.755   7.159  1.0202 -0.2081 -0.0995
34357SOL    HW2 6603   7.669   9.627   7.095 -0.4189  0.2879 -0.0167
34358SOL     OW 6604   2.654   3.176   1.741 -0.5445  0.3295  0.0388
34358SOL    HW1 6605   2.686   3.266   1.735  0.6482  0.1129  2.0659
34358SOL    HW2 6606   2.637   3.163   1.834 -0.9211 -1.4782 -0.2420
34359SOL     OW 6607   2.747  10.128   2.507 -0.4630 -0.5132  0.7066
34359SOL    HW1 6608   2.686  10.190   2.466  1.0617  0.3389 -0.4103
34359SOL    HW2 6609   2.702  10.044   2.505 -1.6272  0.1052 -0.0005
34360SOL     OW 6610   0.764   8.272   9.520 -0.0346 -0.3986 -0.3518
34360SOL    HW1 6611   0.749   8.184   9.555  2.4516 -0.3589  1.0587
34360SOL    HW2 6612   0.753   8.329   9.596 -0.8430  0.4517 -1.0914
34361SOL     OW 6613   5.686   1.405   1.394  0.4482  0.5793 -0.1993
34361SOL    HW1 6614   5.599   1.421   1.431  0.0850  0.3020 -0.9190
34361SOL    HW2 6615   5.746   1.426   1.466 -0.2721 -1.2436  1.0275
34362SOL     OW 6616   9.300   3.438   4.004  0.0437 -0.8081  0.8792
34362SOL    HW1 6617   9.245   3.480   3.938  2.7005  0.1351 -0.9138
34362SOL    HW2 6618   9.252   3.359   4.029 -2.4539  0.3695  0.0944
34363SOL     OW 6619   6.830   3.603   7.081  0.2755  0.0992 -0.1121
34363SOL    HW1 6620   6.868   3.678   7.035 -0.6240  0.4335 -0.3313
34363SOL    HW2 6621   6.820   3.633   7.171  0.0159  0.2033 -0.1757
34364SOL     OW 6622   5.044   4.190   7.190  0.0194  0.0869  0.3779
34364SOL    HW1 6623   5.104   4.231   7.128 -0.6525  0.0145 -0.3443
34364SOL    HW2 6624   4.980   4.259   7.210  0.1393  0.0585  0.8664
34365SOL     OW 6625  10.567   3.443   1.992  0.7286 -0.3928  0.2094
34365SOL    HW1 6626  10.585   3.506   1.922  1.3442 -1.8955 -1.0486
34365SOL    HW2 6627  10.635   3.460   2.058  0.4893  0.6640  0.1984
34366SOL     OW 6628   2.190   7.786   1.518 -0.4482  0.5553 -0.3090
34366SOL    HW1 6629   2.249   7.713   1.537 -1.3441 -0.5721 -1.6819
34366SOL    HW2 6630   2.135   7.755   1.446 -1.8929  2.0254  0.0903
34367SOL     OW 6631   7.707   6.067   4.079  0.0516 -0.4387  0.6870
34367SOL    HW1 6632   7.614   6.063   4.101 -0.6079  0.6111 -1.6543
34367SOL    HW2 6633   7.718   6.002   4.010  0.4579  1.1781 -0.8425
34368SOL     OW 6634   2.853   6.044   7.950 -0.0556  0.0321  0.3924
34368SOL    HW1 6635   2.931   6.032   8.004  1.4848 -0.4495 -1.8104
34368SOL    HW2 6636   2.877   6.113   7.888 -1.8053  0.6568  0.3408
34369SOL     OW 6637   2.648  10.711   4.901 -0.4448  0.6283 -0.3494
34369SOL    HW1 6638   2.583  10.700   4.832 -1.2962  0.3846  0.4689
34369SOL    HW2 6639   2.642  10.804   4.925 -1.6835  0.2579  0.8553
34370SOL     OW 6640   1.689   2.893   7.867 -0.3849  0.2079 -0.3704
34370SOL    HW1 6641   1.672   2.987   7.864 -0.1332  0.3164  1.0198
34370SOL    HW2 6642   1.783   2.885   7.854 -0.2114  0.2491  0.8158
34371SOL     OW 6643  10.327   5.686   6.833 -0.1904 -0.0165 -0.7004
34371SOL    HW1 6644  10.345   5.636   6.753  0.6065 -0.6149 -0.1620
34371SOL    HW2 6645  10.297   5.771   6.801  0.8001  0.0021 -1.6638
34372SOL     OW 6646   3.306  10.498   4.523 -0.3608 -0.2560 -0.2944
34372SOL    HW1 6647   3.215  10.512   4.496 -0.6770 -0.1440  0.7675
34372SOL    HW2 6648   3.324  10.407   4.501 -0.5973 -0.1737 -0.8569
34373SOL     OW 6649   2.722   2.100   8.337 -0.2798 -0.7288 -0.7411
34373SOL    HW1 6650   2.687   2.166   8.397 -1.3982 -0.9653 -1.1160
34373SOL    HW2 6651   2.760   2.151   8.266  0.5972 -0.4594 -0.1023
34374SOL     OW 6652   3.833   0.045   0.976 -0.0690 -0.0741  0.1293
34374SOL    HW1 6653   3.825   0.112   1.044  1.4896 -0.0894  0.3530
34374SOL    HW2 6654   3.905  -0.010   1.005  1.0645  0.2837 -1.8314
34375SOL     OW 6655   9.870   7.036   7.470 -0.4394 -0.0162 -0.6850
34375SOL    HW1 6656   9.939   7.064   7.531 -0.8098  1.4241 -0.9026
34375SOL    HW2 6657   9.789   7.042   7.521 -0.5945 -0.1048 -0.9213
34376SOL     OW 6658   7.444   3.472   0.450 -0.4009 -0.3743  0.4028
34376SOL    HW1 6659   7.360   3.494   0.490  0.1061  0.0484  1.2648
34376SOL    HW2 6660   7.502   3.542   0.478 -0.6907  1.7401 -3.5458
34377SOL     OW 6661   7.237  10.919  10.201 -0.1207 -0.1775 -0.5114
34377SOL    HW1 6662   7.312  10.867  10.230  0.3814  1.8972  2.2803
34377SOL    HW2 6663   7.275  11.002  10.173 -1.3375  1.2278  1.7521
34378SOL     OW 6664   9.328   6.810   6.819 -0.1640  0.3577 -0.0022
34378SOL    HW1 6665   9.265   6.867   6.775  0.8674  1.3218 -0.2817
34378SOL    HW2 6666   9.406   6.864   6.830  0.5704 -0.7538  0.4772
34379SOL     OW 6667   5.397   4.931   0.899 -0.2393  0.1834  0.3593
34379SOL    HW1 6668   5.382   5.025   0.895 -0.0889  0.1742 -1.6432
34379SOL    HW2 6669   5.491   4.922   0.914 -0.2331  0.3519  0.4203
34380SOL     OW 6670   6.279   1.546   0.976  0.1145  0.2128  0.7370
34380SOL    HW1 6671   6.243   1.481   1.036 -1.3337  0.2664 -0.0409
34380SOL    HW2 6672   6.317   1.494   0.905 -0.9034  0.1874  0.1934
34381SOL     OW 6673   6.200   9.059   5.670  0.4989 -0.4803  0.1092
34381SOL    HW1 6674   6.294   9.064   5.654  0.6607  0.3444  1.1618
34381SOL    HW2 6675   6.168   9.148   5.654  0.0027 -0.6138  0.3108
34382SOL     OW 6676   9.926  10.137   9.309  0.2921  0.7765  0.0156
34382SOL    HW1 6677   9.840  10.178   9.315  0.5876  1.3183  0.7213
34382SOL    HW2 6678   9.975  10.174   9.382  0.3937 -1.2791  1.0634
34383SOL     OW 6679   7.199   0.469   7.618  0.2213 -0.3704  0.0543
34383SOL    HW1 6680   7.262   0.399   7.638  0.3009  0.1855  1.9821
34383SOL    HW2 6681   7.233   0.511   7.539  2.7976  0.4645  1.4798
34384SOL     OW 6682   4.205   7.955   3.609  0.1807  0.5766 -0.3663
34384SOL    HW1 6683   4.156   8.035   3.628 -0.2027  0.1441  0.5078
34384SOL    HW2 6684   4.142   7.885   3.621  1.4400 -0.2016  2.9544
34385SOL     OW 6685   1.315   6.291   0.642 -0.4463  0.0506  0.3569
34385SOL    HW1 6686   1.242   6.280   0.581 -1.2450  3.3958  0.5265
34385SOL    HW2 6687   1.276   6.333   0.719  1.4989  1.1493  0.7958
34386SOL     OW 6688   1.755   8.038   3.103 -0.4635 -0.2110  0.1050
34386SOL    HW1 6689   1.780   8.117   3.151  0.9334 -0.6821  0.2086
34386SOL    HW2 6690   1.764   8.062   3.011 -0.1592 -0.1959  0.1357
34387SOL     OW 6691   3.481   0.586  10.161  0.2127  0.0208 -0.1722
34387SOL    HW1 6692   3.532   0.630  10.230  1.4934  0.0609 -1.1070
34387SOL    HW2 6693   3.390   0.608  10.180  0.7517  2.4557 -0.1609
34388SOL     OW 6694   6.532   6.523   4.670  0.0876 -0.3193 -0.0190
34388SOL    HW1 6695   6.517   6.475   4.589 -0.0976 -1.0337  0.4282
34388SOL    HW2 6696   6.619   6.562   4.659 -0.9631  1.8151 -1.6261
34389SOL     OW 6697   1.077   8.405   6.499 -0.1606 -0.6408 -0.3353
34389SOL    HW1 6698   1.080   8.455   6.581  1.4638  0.2796 -0.9119
34389SOL    HW2 6699   1.017   8.333   6.517 -0.7081  0.1756  1.3021
34390SOL     OW 6700   4.693   3.270   0.552 -0.2523 -0.2112  0.0523
34390SOL    HW1 6701   4.675   3.283   0.458 -2.5047 -0.2706  0.4096
34390SOL    HW2 6702   4.669   3.179   0.569  1.0368 -0.4792  0.5295
34391SOL     OW 6703   2.647   9.285   5.801  0.4548  0.2528 -0.2226
34391SOL    HW1 6704   2.597   9.210   5.767  2.7957 -2.9950  2.7565
34391SOL    HW2 6705   2.617   9.294   5.891  0.8642  2.4190 -0.2590
34392SOL     OW 6706  10.752   5.185   0.756  0.0509  0.1206  0.0213
34392SOL    HW1 6707  10.695   5.128   0.703  0.1991  1.2486 -1.3986
34392SOL    HW2 6708  10.691   5.247   0.797  0.1415  0.6878 -0.6854
34393SOL     OW 6709   7.105  10.067   0.842  0.0916  0.4481 -0.0651
34393SOL    HW1 6710   7.097  10.084   0.748 -0.6492  2.3711  0.2969
34393SOL    HW2 6711   7.199  10.065   0.858  0.3248 -2.1918 -1.1587
34394SOL     OW 6712   7.852   1.847   3.912  0.1629 -0.6522  0.2443
34394SOL    HW1 6713   7.789   1.840   3.841 -0.5862  1.9899  0.5428
34394SOL    HW2 6714   7.805   1.815   3.989 -0.3817  0.0235  0.2076
34395SOL     OW 6715   5.395   2.910   4.448  0.1146 -0.6758  0.7027
34395SOL    HW1 6716   5.408   2.988   4.503  1.9854 -0.0188 -0.5646
34395SOL    HW2 6717   5.367   2.842   4.510  0.5107  0.4545  2.2046
34396SOL     OW 6718   1.049   5.769   8.827 -0.1269  0.3775  0.8731
34396SOL    HW1 6719   1.051   5.673   8.825 -1.1292  0.3444  0.8286
34396SOL    HW2 6720   1.062   5.791   8.919  0.1053  0.1973  0.8846
34397SOL     OW 6721   7.097   0.302   2.921 -0.1366 -0.1991  1.0162
34397SOL    HW1 6722   7.124   0.391   2.943 -0.2702  0.1378 -0.0771
34397SOL    HW2 6723   7.004   0.309   2.899  0.1652 -0.3238 -0.4168
34398SOL     OW 6724   6.432  10.942   9.419 -0.2609  0.0685 -0.2339
34398SOL    HW1 6725   6.426  10.972   9.328 -0.8923 -0.0114 -0.2187
34398SOL    HW2 6726   6.414  10.848   9.415 -0.9803  0.1900  0.0580
34399SOL     OW 6727  10.809  11.043   9.905  0.2066  0.3900  0.3572
34399SOL    HW1 6728  10.878  11.109   9.901  0.7119 -0.1559 -0.3416
34399SOL    HW2 6729  10.828  10.993   9.984  0.2790  0.5985  0.4714
34400SOL     OW 6730  10.202   6.902   8.680  0.2546 -0.0652 -0.1363
34400SOL    HW1 6731  10.201   6.957   8.758 -0.6596  0.1080 -0.2587
34400SOL    HW2 6732  10.237   6.818   8.710  1.5502  0.5421  0.0775
34401SOL     OW 6733   5.058   1.804  10.428 -0.7539  0.4133  0.0871
34401SOL    HW1 6734   4.991   1.774  10.366 -1.0268  0.9046  0.1414
34401SOL    HW2 6735   5.140   1.773  10.390 -1.0252 -0.3551  0.1145
34402SOL     OW 6736   7.949   1.742   9.621 -0.7285 -0.1286  0.7076
34402SOL    HW1 6737   7.975   1.833   9.612 -0.2166 -0.3735 -0.4050
34402SOL    HW2 6738   7.982   1.699   9.542 -2.0503 -1.0217  0.6018
34403SOL     OW 6739   7.227   6.275   7.630 -0.5562  0.5693  0.3002
34403SOL    HW1 6740   7.160   6.224   7.675 -1.4978  0.7760 -0.8201
34403SOL    HW2 6741   7.307   6.258   7.679 -0.7660 -2.2210 -0.1417
34404SOL     OW 6742   3.771   9.998   3.243 -0.8233  0.0394  0.1693
34404SOL    HW1 6743   3.699  10.022   3.184  0.8145  2.2194 -1.0922
34404SOL    HW2 6744   3.849  10.001   3.188  0.6470  1.0739  2.1793
34405SOL     OW 6745   9.993   8.081   8.206  0.0319  0.3377  0.8689
34405SOL    HW1 6746   9.932   8.019   8.247 -0.2936 -0.4731 -0.7143
34405SOL    HW2 6747   9.972   8.075   8.112  1.1415  1.6198  0.5104
34406SOL     OW 6748  10.260   5.304   3.753 -0.0792 -0.1618 -0.2652
34406SOL    HW1 6749  10.314   5.348   3.688  1.2489  0.2095  1.0245
34406SOL    HW2 6750  10.323   5.266   3.815 -1.2766 -0.9545  0.5124
34407SOL     OW 6751   8.057   9.101   7.917 -0.1072 -0.5145  0.6585
34407SOL    HW1 6752   8.032   9.167   7.981  1.1384  0.8396 -0.1891
34407SOL    HW2 6753   8.148   9.080   7.938  0.3206 -0.0487 -0.6449
34408SOL     OW 6754   8.998   8.186   5.919 -0.1192 -0.0879  0.2271
34408SOL    HW1 6755   8.919   8.225   5.957  0.4319  0.2729  1.0292
34408SOL    HW2 6756   8.972   8.159   5.831 -1.7738 -2.0633  1.2558
34409SOL     OW 6757   8.282   1.715   1.268 -0.4312 -0.3397 -0.2577
34409SOL    HW1 6758   8.190   1.739   1.280 -0.6460 -1.2397 -0.0199
34409SOL    HW2 6759   8.299   1.730   1.175 -0.6582  0.3328 -0.2004
34410SOL     OW 6760   6.012   6.926   5.174  0.8237 -0.4833 -0.3509
34410SOL    HW1 6761   6.094   6.890   5.206  1.7884  1.1762 -0.8398
34410SOL    HW2 6762   6.027   6.943   5.081 -0.7793 -2.0220 -0.9528
34411SOL     OW 6763   9.321   2.409   4.628 -0.1641  0.2669  0.2318
34411SOL    HW1 6764   9.255   2.440   4.690 -2.8070 -1.8115 -1.3236
34411SOL    HW2 6765   9.315   2.469   4.554 -2.0355 -1.1207 -0.8423
34412SOL     OW 6766   8.518   4.814   7.880 -0.2183  0.1245  0.0608
34412SOL    HW1 6767   8.453   4.819   7.950 -0.0814  1.0960  0.1377
34412SOL    HW2 6768   8.524   4.904   7.847  1.0181  0.0365 -0.0029
34413SOL     OW 6769   0.978   4.905   1.995  0.1253 -0.0445  0.3559
34413SOL    HW1 6770   0.914   4.894   2.066 -1.6663  2.4690 -0.7259
34413SOL    HW2 6771   1.024   4.986   2.018 -0.0254  0.4377 -0.9912
34414SOL     OW 6772   6.189   9.182   2.050  0.1970  0.2752  0.0082
34414SOL    HW1 6773   6.104   9.142   2.033  1.1805 -1.3213 -1.4762
34414SOL    HW2 6774   6.191   9.259   1.992  0.0770 -0.1759 -0.6108
34415SOL     OW 6775   6.920  10.104   3.526  0.7757 -0.9910 -0.2804
34415SOL    HW1 6776   6.949  10.032   3.582  0.7564 -1.3174 -0.6862
34415SOL    HW2 6777   6.825  10.107   3.538  0.9071 -0.2176  0.6986
34416SOL     OW 6778   8.003   5.124   8.987  0.5868  0.1077  0.0099
34416SOL    HW1 6779   8.079   5.146   8.933  1.4297 -2.9174 -0.2239
34416SOL    HW2 6780   7.936   5.098   8.924  1.3718 -2.8283  0.2259
34417SOL     OW 6781   0.862   7.285   0.638  0.2444 -0.2751 -0.0777
34417SOL    HW1 6782   0.879   7.361   0.583 -0.3408  0.2008  0.3974
34417SOL    HW2 6783   0.766   7.278   0.641  0.2880 -0.8341  0.1442
34418SOL     OW 6784   9.299   7.809  10.006  0.0838  0.3626  0.3037
34418SOL    HW1 6785   9.207   7.791  10.026 -0.2897  1.1029 -0.6422
34418SOL    HW2 6786   9.295   7.868   9.931  1.3448  0.0919  0.0082
34419SOL     OW 6787   1.301   9.226   5.560 -0.0184 -0.3693  0.0045
34419SOL    HW1 6788   1.275   9.317   5.568  2.2921  0.2420  1.5452
34419SOL    HW2 6789   1.349   9.207   5.641  2.7727 -1.8219 -1.8039
34420SOL     OW 6790   6.240   3.289   7.137  0.4129 -0.0999 -0.4791
34420SOL    HW1 6791   6.254   3.209   7.086  0.3028 -0.0815 -0.5387
34420SOL    HW2 6792   6.229   3.258   7.227 -3.7660 -0.6130 -0.9454
34421SOL     OW 6793   2.940   8.443   8.568  0.1966  0.1002  0.1277
34421SOL    HW1 6794   2.943   8.379   8.639  0.0326 -0.3557 -0.2725
34421SOL    HW2 6795   2.991   8.403   8.498 -0.8998 -0.1241 -0.5624
34422SOL     OW 6796   5.859   8.996   0.400 -0.7039  0.1817 -0.4308
34422SOL    HW1 6797   5.938   9.030   0.358 -0.0130 -1.1642 -0.2854
34422SOL    HW2 6798   5.797   8.984   0.328  0.6853 -2.7317 -1.3025
34423SOL     OW 6799   1.651   9.806   3.841 -0.1510  0.4002  0.4608
34423SOL    HW1 6800   1.700   9.753   3.904  0.7165  0.3512 -0.2346
34423SOL    HW2 6801   1.585   9.851   3.894  0.3925  0.1627  1.3670
34424SOL     OW 6802  10.660   7.175   9.896  0.0190  0.2344 -0.7565
34424SOL    HW1 6803  10.718   7.170   9.971 -1.7517  0.1386  0.6758
34424SOL    HW2 6804  10.703   7.123   9.828  0.4465 -1.8830  1.0314
34425SOL     OW 6805   2.057   1.435  10.267  0.0623  0.0850 -1.2177
34425SOL    HW1 6806   2.079   1.416  10.176  3.0247  0.1952 -0.6098
34425SOL    HW2 6807   2.063   1.530  10.274 -0.7105  0.1285 -0.9971
34426SOL     OW 6808  10.542   8.335   1.840  0.0711  0.0799  0.0209
34426SOL    HW1 6809  10.514   8.336   1.749 -0.8916  0.4916  0.3167
34426SOL    HW2 6810  10.591   8.417   1.852 -0.6195  0.4836  0.1196
34427SOL     OW 6811   6.424   0.666   7.097  0.4195  0.9194 -0.1868
34427SOL    HW1 6812   6.361   0.626   7.157 -0.1892  0.4786 -1.1077
34427SOL    HW2 6813   6.399   0.634   7.010  0.7332  2.2322 -0.7926
34428SOL     OW 6814   7.203   6.935   9.112  0.0838 -0.1212  0.1790
34428SOL    HW1 6815   7.291   6.972   9.108 -0.1112  0.6904  2.1975
34428SOL    HW2 6816   7.156   6.992   9.173 -0.8817 -2.3997  1.6778
34429SOL     OW 6817   9.240   2.217   1.311 -0.4253  0.1999 -0.2894
34429SOL    HW1 6818   9.285   2.133   1.318 -0.3403  0.3876  1.8900
34429SOL    HW2 6819   9.299   2.280   1.352 -1.4031  0.9694 -0.0339
34430SOL     OW 6820   2.931  10.687   6.145 -0.3790 -0.0430 -0.1031
34430SOL    HW1 6821   2.929  10.740   6.066  0.2840 -1.1871 -0.9133
34430SOL    HW2 6822   2.957  10.748   6.214  0.9223  0.5732 -1.1001
34431SOL     OW 6823   1.079   4.072   8.765 -0.0024 -0.2497 -0.3269
34431SOL    HW1 6824   1.134   4.150   8.775 -0.7137  0.3051 -0.6812
34431SOL    HW2 6825   0.996   4.105   8.729 -0.7527 -1.0065  0.6599
34432SOL     OW 6826   2.894   5.043   5.479 -0.3453 -0.2572  0.6081
34432SOL    HW1 6827   2.854   5.130   5.467  1.3759  0.6807  1.2953
34432SOL    HW2 6828   2.908   5.036   5.573  3.6680  0.7804  0.2807
34433SOL     OW 6829   7.967   5.515   9.704  0.0158  0.1935  0.4557
34433SOL    HW1 6830   8.001   5.539   9.617 -2.5116  0.6392 -0.5051
34433SOL    HW2 6831   7.951   5.599   9.747 -0.5656  0.0259  0.5701
34434SOL     OW 6832   5.396   4.612   6.458  0.4254  0.0029 -0.3642
34434SOL    HW1 6833   5.355   4.697   6.438 -0.1938 -0.5653 -1.6136
34434SOL    HW2 6834   5.364   4.591   6.546 -0.5680  0.4140 -0.6079
34435SOL     OW 6835   1.058   0.689   0.582 -0.6727  0.3969  0.8374
34435SOL    HW1 6836   1.101   0.756   0.528 -0.8662  0.0299  0.2182
34435SOL    HW2 6837   0.969   0.721   0.594 -0.9628 -0.0719 -0.0298
34436SOL     OW 6838   5.165   9.554  10.657 -0.0329 -0.2251  0.4062
34436SOL    HW1 6839   5.230   9.575  10.590  0.8519  1.7677  1.7780
34436SOL    HW2 6840   5.116   9.480  10.621  1.7274 -0.5479 -1.5142
34437SOL     OW 6841   8.377   7.730   4.088 -0.1500  0.5078 -0.6952
34437SOL    HW1 6842   8.339   7.812   4.120 -0.6857 -0.3953  1.0890
34437SOL    HW2 6843   8.329   7.661   4.134  1.3521 -0.7661 -0.9496
34438SOL     OW 6844   2.165   8.409   1.143  0.0773 -0.7436  0.1187
34438SOL    HW1 6845   2.086   8.419   1.197  1.2920  1.0980  1.7010
34438SOL    HW2 6846   2.232   8.378   1.203  0.6967 -1.8599 -1.1063
34439SOL     OW 6847   1.975   2.619   3.565  0.3856  0.5869  0.0783
34439SOL    HW1 6848   1.965   2.561   3.640 -0.6740  0.0570 -0.4438
34439SOL    HW2 6849   1.969   2.707   3.601  1.5052  0.3748  0.8197
34440SOL     OW 6850   5.202   1.357   3.605 -0.1043 -0.0303 -0.4309
34440SOL    HW1 6851   5.156   1.330   3.526 -0.4102  0.4959 -0.4387
34440SOL    HW2 6852   5.150   1.320   3.676  1.2698 -2.2378 -0.4826
34441SOL     OW 6853   7.788  10.237   4.840 -0.0933 -0.0263 -0.2772
34441SOL    HW1 6854   7.799  10.258   4.747 -1.4091  1.0485 -0.2209
34441SOL    HW2 6855   7.753  10.317   4.879 -1.7236 -1.1368  0.6918
34442SOL     OW 6856   3.017   8.591   8.219 -0.3068 -0.2250 -0.4063
34442SOL    HW1 6857   3.096   8.536   8.221 -0.3817 -0.3157  1.1687
34442SOL    HW2 6858   2.984   8.582   8.129  0.5450 -1.5254 -0.6173
34443SOL     OW 6859   1.705   5.278   7.087  0.5079 -0.2723  0.1623
34443SOL    HW1 6860   1.672   5.359   7.049  1.2637 -0.7295 -1.5751
34443SOL    HW2 6861   1.663   5.272   7.173  1.9604  2.9840  1.2417
34444SOL     OW 6862   8.745   9.134   7.673 -0.1781 -0.1111  0.2493
34444SOL    HW1 6863   8.840   9.124   7.668 -0.3149 -1.3817 -0.1319
34444SOL    HW2 6864   8.715   9.125   7.583 -0.5315  1.9905  0.1238
34445SOL     OW 6865   1.784  10.360   1.726  0.5358  0.0458  0.1204
34445SOL    HW1 6866   1.714  10.407   1.680  1.2570  0.9242 -0.1085
34445SOL    HW2 6867   1.849  10.341   1.658  1.0997  0.3701  0.5631
34446SOL     OW 6868   5.728   5.017   8.209  0.1190 -0.6999 -0.2024
34446SOL    HW1 6869   5.810   5.012   8.160  0.2308 -2.7609  0.1076
34446SOL    HW2 6870   5.681   5.091   8.171  0.5504 -1.7068 -2.9135
34447SOL     OW 6871   1.451   3.336   4.041 -0.3228  0.1245  0.5393
34447SOL    HW1 6872   1.476   3.357   4.130  1.2262 -0.8462  0.3795
34447SOL    HW2 6873   1.531   3.349   3.990 -0.8627 -0.4607 -0.4959
34448SOL     OW 6874   0.100   8.834   8.018 -0.0128 -0.1043  0.3194
34448SOL    HW1 6875   0.007   8.849   8.032 -0.1615  0.4617 -1.0724
34448SOL    HW2 6876   0.125   8.768   8.083 -1.0336  0.8252  1.7199
34449SOL     OW 6877   9.231  11.002   1.021  0.0293  0.4710  0.0759
34449SOL    HW1 6878   9.213  10.997   0.927  0.4472 -2.7399  0.0549
34449SOL    HW2 6879   9.319  11.039   1.026  0.4723 -0.4036 -0.8981
34450SOL     OW 6880   6.746   2.757   5.155 -0.5733 -0.2170 -0.1980
34450SOL    HW1 6881   6.804   2.825   5.190 -1.6051  0.9856 -0.7433
34450SOL    HW2 6882   6.731   2.699   5.229 -0.5278  0.7614  0.6084
34451SOL     OW 6883   5.160  10.349   3.002 -0.2461  0.2959  0.1473
34451SOL    HW1 6884   5.170  10.333   3.095  0.0201 -1.7013 -0.1862
34451SOL    HW2 6885   5.077  10.397   2.994 -1.7218 -1.9334  1.2146
34452SOL     OW 6886   9.600   0.951   6.751  0.9517  0.2093  0.0908
34452SOL    HW1 6887   9.587   0.940   6.657 -2.0160 -0.4719  0.4775
34452SOL    HW2 6888   9.566   0.871   6.791 -1.1018  1.8367  1.8697
34453SOL     OW 6889   9.923   7.367   4.930  0.1772 -0.3129  0.2175
34453SOL    HW1 6890   9.937   7.310   5.005 -1.6751 -3.1130 -1.3606
34453SOL    HW2 6891   9.831   7.393   4.936  0.3355  0.4539 -0.4446
34454SOL     OW 6892   2.518   7.229   9.089 -0.0254  0.4295 -0.1421
34454SOL    HW1 6893   2.529   7.210   9.182 -1.5344 -0.9247 -0.1895
34454SOL    HW2 6894   2.426   7.256   9.081 -0.2936 -0.7195 -1.3960
34455SOL     OW 6895   3.951   7.789   4.691 -0.6699  0.1383  0.0619
34455SOL    HW1 6896   4.010   7.857   4.725 -0.5657  0.6072 -1.0093
34455SOL    HW2 6897   3.884   7.780   4.759 -0.7598  1.4250  0.1735
34456SOL     OW 6898   3.667   2.567   2.660  0.0793 -0.3026 -0.1485
34456SOL    HW1 6899   3.625   2.531   2.738 -0.5313  1.2740  0.2867
34456SOL    HW2 6900   3.614   2.534   2.587 -0.1104 -0.7442  0.1830
34457SOL     OW 6901   6.379   8.225   9.291 -0.0930  0.3593 -0.0153
34457SOL    HW1 6902   6.326   8.193   9.363  0.8476 -1.8074 -0.2081
34457SOL    HW2 6903   6.446   8.279   9.332 -1.0718  1.2355  0.4514
34458SOL     OW 6904   0.186   0.637   9.549  0.6977 -0.5852  0.0494
34458SOL    HW1 6905   0.093   0.641   9.527  0.0208  0.0258  2.6977
34458SOL    HW2 6906   0.221   0.722   9.521  1.1254 -1.6635 -3.1578
34459SOL     OW 6907   5.061  10.094  10.945  0.1130 -0.1657  0.0888
34459SOL    HW1 6908   5.053  10.015  10.891  1.0722  0.2861 -0.7322
34459SOL    HW2 6909   5.146  10.086  10.988  0.1537  0.3531  0.1095
34460SOL     OW 6910   7.724   8.077   6.275  0.1086 -0.2553 -0.1423
34460SOL    HW1 6911   7.667   8.150   6.299 -0.6147 -1.2406  1.2705
34460SOL    HW2 6912   7.665   8.009   6.245  0.6826 -0.6741 -0.3358
34461SOL     OW 6913   6.448   5.202  10.535  0.1102 -0.3333 -0.2950
34461SOL    HW1 6914   6.434   5.108  10.537  3.1219 -0.9100 -1.0592
34461SOL    HW2 6915   6.453   5.224  10.442  2.7703 -0.1313 -0.1931
34462SOL     OW 6916   6.275   7.099   6.627 -0.1581 -0.1004 -0.6311
34462SOL    HW1 6917   6.292   7.070   6.717  1.7159 -0.3752 -1.0362
34462SOL    HW2 6918   6.312   7.187   6.623  1.2911 -0.7175 -1.5613
34463SOL     OW 6919   7.241   4.315   4.925 -0.0282  0.0358  0.7930
34463SOL    HW1 6920   7.209   4.225   4.919  1.7270 -0.5626 -0.2215
34463SOL    HW2 6921   7.236   4.349   4.836  0.9486  0.3319  0.8363
34464SOL     OW 6922  10.136   2.900   5.872 -0.2043  0.0128  0.2623
34464SOL    HW1 6923  10.064   2.934   5.925 -2.4203 -2.7189 -0.7444
34464SOL    HW2 6924  10.184   2.841   5.931 -0.5246 -0.3393  0.1700
34465SOL     OW 6925   1.881   3.417   2.811 -0.2250  0.0198 -0.0807
34465SOL    HW1 6926   1.824   3.358   2.763 -0.1090 -0.5524  0.4752
34465SOL    HW2 6927   1.966   3.372   2.812 -0.2112  0.0643  0.5950
34466SOL     OW 6928   6.799   5.728   9.645 -0.1257 -0.1589 -0.2280
34466SOL    HW1 6929   6.848   5.649   9.619 -1.9147 -1.4986  0.2564
34466SOL    HW2 6930   6.839   5.799   9.595  1.2745 -1.4376 -1.0015
34467SOL     OW 6931   9.229   7.345   1.406 -0.1036 -0.5353  0.4839
34467SOL    HW1 6932   9.170   7.404   1.359  2.8773  1.3260 -1.2639
34467SOL    HW2 6933   9.229   7.377   1.496 -0.0116  0.9160 -0.0119
34468SOL     OW 6934   6.933  10.853   0.212 -0.2995  0.0728 -0.2953
34468SOL    HW1 6935   6.857  10.872   0.267 -0.1371 -1.3661  0.4952
34468SOL    HW2 6936   6.971  10.774   0.251  1.6826  0.8253 -0.5982
34469SOL     OW 6937   8.366   3.156   8.526 -0.5438 -0.4008  0.4029
34469SOL    HW1 6938   8.364   3.065   8.495 -3.3439 -0.8252  1.5057
34469SOL    HW2 6939   8.381   3.208   8.447 -2.7495 -1.6762 -0.9630
34470SOL     OW 6940   7.180   6.744   9.698 -0.0835  0.1553 -0.1934
34470SOL    HW1 6941   7.231   6.822   9.676  1.0409 -0.2583  0.8013
34470SOL    HW2 6942   7.230   6.671   9.662 -0.3641 -0.2112  0.1402
34471SOL     OW 6943   3.366  10.233   3.462 -0.7954  0.0666  0.5807
34471SOL    HW1 6944   3.343  10.301   3.526 -0.0673  0.3617  0.5443
34471SOL    HW2 6945   3.322  10.260   3.381 -0.2900  0.6466  0.4949
34472SOL     OW 6946   0.269   1.398  10.928  0.3837 -0.5959 -0.1168
34472SOL    HW1 6947   0.345   1.340  10.933  1.3077  0.3633 -1.8898
34472SOL    HW2 6948   0.240   1.391  10.837 -0.7207  0.2364  0.1515
34473SOL     OW 6949   3.810  10.109   7.107 -0.0019  0.2810 -0.0834
34473SOL    HW1 6950   3.820  10.120   7.202  0.6798  0.2813 -0.1500
34473SOL    HW2 6951   3.863  10.180   7.070 -1.7774  1.4831 -0.4621
34474SOL     OW 6952   5.785   3.176   1.552  0.1288  0.5491  0.5535
34474SOL    HW1 6953   5.858   3.236   1.533  1.0384 -0.4095  0.9400
34474SOL    HW2 6954   5.817   3.090   1.526 -1.3005  0.2546 -0.3372
34475SOL     OW 6955   8.883   9.517   7.529  0.0099 -0.1289 -0.2417
34475SOL    HW1 6956   8.912   9.446   7.472 -1.0690 -0.7713 -0.0007
34475SOL    HW2 6957   8.816   9.478   7.585 -1.1655  1.2676 -0.6317
34476SOL     OW 6958   8.114   1.839  11.094 -0.6952 -0.4072 -0.5240
34476SOL    HW1 6959   8.058   1.886  11.156 -1.4428 -0.0836 -1.4278
34476SOL    HW2 6960   8.115   1.894  11.016  2.7581  0.8189  0.1750
34477SOL     OW 6961   3.185   9.507  11.035 -0.0561 -0.3747  0.4616
34477SOL    HW1 6962   3.201   9.414  11.020 -1.6699 -0.9803  2.0823
34477SOL    HW2 6963   3.269   9.541  11.065  0.1378 -1.7605  1.6357
34478SOL     OW 6964  10.196  10.422   2.062  0.1327  0.1585  0.0676
34478SOL    HW1 6965  10.138  10.472   2.004  0.7741 -0.6124 -1.2739
34478SOL    HW2 6966  10.143  10.349   2.092 -0.0317  0.2582  0.0234
34479SOL     OW 6967   8.252   2.235   5.437 -0.1865  0.2407 -0.4643
34479SOL    HW1 6968   8.220   2.325   5.443 -1.8378 -0.3727  0.7031
34479SOL    HW2 6969   8.249   2.203   5.527 -1.4771 -1.5585 -1.0952
34480SOL     OW 6970   6.667  10.047   6.466 -0.2229  0.2668  0.2367
34480SOL    HW1 6971   6.687  10.072   6.375  0.3013  1.6360  0.7061
34480SOL    HW2 6972   6.718  10.107   6.519 -3.0035  1.7069  1.4890
34481SOL     OW 6973   3.927   6.995   3.623 -0.1645  0.8771 -0.1415
34481SOL    HW1 6974   3.958   7.031   3.540  0.3189 -0.3820 -0.5314
34481SOL    HW2 6975   3.849   6.945   3.601 -1.7927  2.9169  0.6404
34482SOL     OW 6976   3.703   5.358  11.113 -0.0049 -0.1338  0.3300
34482SOL    HW1 6977   3.613   5.329  11.130 -0.2529 -0.7401 -1.7714
34482SOL    HW2 6978   3.758   5.288  11.149 -0.5214 -1.6387 -1.5957
34483SOL     OW 6979   9.991  10.586   1.476 -0.2764 -0.4179 -0.5909
34483SOL    HW1 6980   9.907  10.616   1.510  0.7742 -0.4743  2.3891
34483SOL    HW2 6981  10.009  10.642   1.401 -0.8250  2.9360  1.5955
34484SOL     OW 6982   2.991   1.497   5.428 -0.3591 -0.0646  0.2541
34484SOL    HW1 6983   2.949   1.411   5.435 -3.0127  1.1264  0.0017
34484SOL    HW2 6984   2.948   1.538   5.353 -0.7091  2.2672  1.6392
34485SOL     OW 6985   8.203   2.135  10.354 -0.2940 -0.5578 -0.2637
34485SOL    HW1 6986   8.229   2.190  10.280  1.4345 -2.9129 -1.5558
34485SOL    HW2 6987   8.259   2.165  10.427 -1.7320  1.5130  0.0688
34486SOL     OW 6988   8.696   6.151  10.574 -0.0846  0.4518  0.7680
34486SOL    HW1 6989   8.772   6.114  10.529 -0.7705 -0.0550  0.0076
34486SOL    HW2 6990   8.629   6.160  10.507  0.1249  3.4549  0.8337
34487SOL     OW 6991   7.960   1.060   7.131  0.0014  0.3098  0.4842
34487SOL    HW1 6992   7.922   1.031   7.048 -1.8226 -1.8428  1.9438
34487SOL    HW2 6993   7.941   1.154   7.135 -0.7053  0.2646 -1.0885
34488SOL     OW 6994   3.156   2.325   5.466 -0.2682 -0.0085 -0.2659
34488SOL    HW1 6995   3.177   2.413   5.498 -0.1664  0.1184 -0.6690
34488SOL    HW2 6996   3.069   2.334   5.428 -0.1969 -0.0443 -0.4392
34489SOL     OW 6997   4.352   2.226   6.079 -0.1248 -0.1047  0.0753
34489SOL    HW1 6998   4.307   2.237   6.163  0.2435 -0.4256  0.3223
34489SOL    HW2 6999   4.367   2.132   6.073 -0.5857 -0.1377 -0.5876
34490SOL     OW 7000   3.997   4.168   0.719 -0.2613  0.0430  0.7293
34490SOL    HW1 7001   3.967   4.105   0.654  1.1641 -0.3506  0.4060
34490SOL    HW2 7002   3.983   4.124   0.803 -0.7212 -0.0641  0.5956
34491SOL     OW 7003   4.669   0.671   2.343 -0.5285  0.0946  0.7292
34491SOL    HW1 7004   4.578   0.683   2.372 -0.5805  1.2539  0.1653
34491SOL    HW2 7005   4.711   0.624   2.415 -1.5586 -0.4019  1.0254
34492SOL     OW 7006   2.631   2.573   6.276  0.2858 -0.2842  0.3431
34492SOL    HW1 7007   2.552   2.545   6.229  0.5896  1.7606 -1.5526
34492SOL    HW2 7008   2.600   2.595   6.364 -0.4611 -3.3729  0.9806
34493SOL     OW 7009   3.196  10.319   2.731  0.1366  0.0812  0.2458
34493SOL    HW1 7010   3.175  10.245   2.788 -1.1099  0.1121 -0.1501
34493SOL    HW2 7011   3.217  10.391   2.792  0.3619 -0.3109  0.6389
34494SOL     OW 7012   5.300   2.266   5.344 -0.2048  0.0600 -0.3207
34494SOL    HW1 7013   5.228   2.266   5.281 -0.7989 -0.2998  0.3388
34494SOL    HW2 7014   5.343   2.351   5.332 -1.3510  0.6927 -0.0456
34495SOL     OW 7015   1.155  11.094   5.790  0.3918  0.1851 -0.5541
34495SOL    HW1 7016   1.227  11.058   5.739  0.8238  0.3165 -0.0513
34495SOL    HW2 7017   1.099  11.019   5.811  0.7718 -0.0368 -0.3324
34496SOL     OW 7018   0.614   0.415   7.414  0.2125 -0.1835  0.4933
34496SOL    HW1 7019   0.682   0.468   7.457 -1.2429  2.1323  0.1314
34496SOL    HW2 7020   0.554   0.480   7.376 -1.9659 -2.1274  0.4133
34497SOL     OW 7021  10.140   3.133  11.101 -0.1082 -0.4492 -0.2495
34497SOL    HW1 7022  10.176   3.063  11.156  3.6775 -0.4702 -2.4181
34497SOL    HW2 7023  10.130   3.092  11.014  0.5589  1.2275 -1.1531
34498SOL     OW 7024   3.930   2.169   5.384 -0.8186 -0.1939  0.0041
34498SOL    HW1 7025   3.903   2.161   5.476 -3.0977  0.2732 -0.5579
34498SOL    HW2 7026   3.898   2.089   5.343  1.2639 -0.9741 -0.2075
34499SOL     OW 7027   8.816   1.600   6.338 -0.0866 -0.3045 -0.2156
34499SOL    HW1 7028   8.911   1.590   6.331 -0.0597  0.5841 -1.2925
34499SOL    HW2 7029   8.783   1.510   6.340  0.7471 -0.6225 -0.2668
34500SOL     OW 7030   5.433   6.554   4.929  0.0559  0.5058  0.3199
34500SOL    HW1 7031   5.462   6.463   4.917 -0.9928 -0.0679  1.8257
34500SOL    HW2 7032   5.345   6.556   4.892 -0.2972  0.6435  1.1543
34501SOL     OW 7033   7.008   6.775  11.062  0.1067  0.4506  0.7968
34501SOL    HW1 7034   6.920   6.752  11.030  0.5432 -0.5359  0.2325
34501SOL    HW2 7035   6.994   6.809  11.150 -0.6711 -1.8185  1.6235
34502SOL     OW 7036   9.067   6.805  10.863  0.3010  0.0076  0.3280
34502SOL    HW1 7037   9.019   6.869  10.916  2.4564  2.3646 -0.3878
34502SOL    HW2 7038   9.158   6.815  10.889  1.0114 -1.0685 -1.5413
34503SOL     OW 7039   9.429   9.153   1.114  0.2350 -0.8438 -0.1906
34503SOL    HW1 7040   9.335   9.135   1.104  0.1856 -1.5526  1.2570
34503SOL    HW2 7041   9.467   9.067   1.135  0.7863 -0.1627  1.8568
34504SOL     OW 7042   8.336   6.227   3.429  0.0381 -0.3748  0.0332
34504SOL    HW1 7043   8.322   6.264   3.516 -1.8649  1.1251 -0.8480
34504SOL    HW2 7044   8.275   6.153   3.424  1.8027 -1.9547  0.7527
34505SOL     OW 7045   4.056   3.312   4.709  0.1288 -0.5010  0.3593
34505SOL    HW1 7046   4.036   3.337   4.619  0.5781 -0.0892  0.3714
34505SOL    HW2 7047   4.057   3.395   4.757  1.9396 -0.4853  0.3411
34506SOL     OW 7048   3.611   0.469   4.779 -0.4546 -0.0136 -0.1671
34506SOL    HW1 7049   3.594   0.529   4.706  1.0301  0.5360 -0.0877
34506SOL    HW2 7050   3.692   0.500   4.818 -0.1551 -1.5052  0.4847
34507SOL     OW 7051   5.083   8.482   2.733  0.1444 -0.3742  0.0366
34507SOL    HW1 7052   5.013   8.532   2.775 -1.2749 -1.4476 -0.9780
34507SOL    HW2 7053   5.073   8.393   2.767  1.6000 -0.3603  0.5589
34508SOL     OW 7054   7.835   6.462   5.382  0.0480 -0.2896 -0.0785
34508SOL    HW1 7055   7.827   6.500   5.469  2.2975 -0.8204  0.4230
34508SOL    HW2 7056   7.747   6.432   5.361 -1.2388  2.6320  0.6551
34509SOL     OW 7057  10.606  11.105   0.267  0.2656 -0.0780  0.5454
34509SOL    HW1 7058  10.645  11.170   0.209  1.7020 -1.7457 -0.4581
34509SOL    HW2 7059  10.518  11.139   0.285 -0.2406  0.5683 -2.5663
34510SOL     OW 7060   6.147   7.172   3.817 -0.0903 -0.7509 -0.2385
34510SOL    HW1 7061   6.112   7.256   3.847 -0.9186 -1.3870  0.6200
34510SOL    HW2 7062   6.116   7.164   3.727 -2.3754 -1.3539  0.5290
34511SOL     OW 7063   8.083  10.757   2.546 -0.8973  0.1663 -0.7054
34511SOL    HW1 7064   8.018  10.804   2.598 -0.1116 -0.2056  0.6554
34511SOL    HW2 7065   8.055  10.666   2.550  0.2529 -0.1574  0.7922
34512SOL     OW 7066   3.645   3.944   3.085  0.0574 -0.1853  0.0340
34512SOL    HW1 7067   3.732   3.911   3.105 -0.4595 -1.9646 -0.4498
34512SOL    HW2 7068   3.630   3.918   2.994 -1.1129 -0.2228  0.2208
34513SOL     OW 7069   5.177   9.463   5.684  0.2119 -0.1374 -0.1235
34513SOL    HW1 7070   5.210   9.540   5.729  1.1815  0.3864 -1.6583
34513SOL    HW2 7071   5.125   9.497   5.612 -0.6684 -0.9500  0.0966
34514SOL     OW 7072   5.075   1.429   0.040 -0.1175 -0.6196 -0.1695
34514SOL    HW1 7073   5.006   1.405  -0.023 -0.8526 -1.4673  0.9085
34514SOL    HW2 7074   5.089   1.522   0.025 -0.1322 -0.8308 -1.7106
34515SOL     OW 7075   7.984   9.747   7.563 -0.8564  0.4314  0.5870
34515SOL    HW1 7076   7.943   9.671   7.521 -1.7494  1.6966 -0.9751
34515SOL    HW2 7077   7.969   9.818   7.501  0.6717  1.7178  1.6247
34516SOL     OW 7078   4.384   4.202   6.802 -0.4103 -0.0501 -0.3727
34516SOL    HW1 7079   4.398   4.124   6.856  0.2331  0.5983  0.4373
34516SOL    HW2 7080   4.315   4.177   6.741 -0.3488 -1.1885 -0.0086
34517SOL     OW 7081   1.705   4.001   0.765  0.0790  0.0908 -0.5062
34517SOL    HW1 7082   1.790   4.033   0.736  1.3545 -1.9664  0.6286
34517SOL    HW2 7083   1.700   3.912   0.729 -1.5777  0.1656 -0.5080
34518SOL     OW 7084   2.319   2.984   4.093 -0.1116 -0.5649  0.7189
34518SOL    HW1 7085   2.331   3.024   4.007  2.0070 -0.8291  0.8325
34518SOL    HW2 7086   2.403   2.941   4.111 -1.2262 -2.3680  1.9775
34519SOL     OW 7087   2.980   0.109  10.969 -0.1481  0.3606  0.3902
34519SOL    HW1 7088   3.010   0.050  10.900  1.8428 -0.5316  1.9352
34519SOL    HW2 7089   3.004   0.196  10.937 -0.8490  0.1529 -0.7911
34520SOL     OW 7090   9.173   5.567   3.594  0.7225 -0.2719 -0.6173
34520SOL    HW1 7091   9.103   5.613   3.642 -1.8861 -3.2149 -1.2470
34520SOL    HW2 7092   9.247   5.566   3.654 -0.4908  1.1382  0.9928
34521SOL     OW 7093   8.673   3.985   2.505  0.2666  0.6878  0.1276
34521SOL    HW1 7094   8.740   4.046   2.474  1.2143  1.0617  2.6658
34521SOL    HW2 7095   8.664   4.004   2.599 -0.8500 -1.7262  0.6074
34522SOL     OW 7096  10.684   8.217   6.872  0.0108 -0.1582  0.2257
34522SOL    HW1 7097  10.653   8.159   6.802  1.8970 -0.6745 -0.2362
34522SOL    HW2 7098  10.682   8.162   6.951 -1.6556  0.2820  0.5361
34523SOL     OW 7099   9.975   8.732   2.800  0.4095 -0.5073  0.0331
34523SOL    HW1 7100  10.039   8.671   2.838 -0.2576 -2.7065 -2.0982
34523SOL    HW2 7101  10.027   8.793   2.748  0.9477 -0.7274  0.3059
34524SOL     OW 7102   0.300   9.410   1.966  0.1683  0.3787 -0.4225
34524SOL    HW1 7103   0.350   9.346   2.018  0.6464  0.7556 -0.4117
34524SOL    HW2 7104   0.218   9.365   1.946  0.1641  0.0535  0.2695
34525SOL     OW 7105   0.821   0.747   0.663 -0.3563  0.2706 -0.0059
34525SOL    HW1 7106   0.759   0.816   0.642 -1.1319 -0.4521 -0.1167
34525SOL    HW2 7107   0.778   0.696   0.732 -1.9089 -2.8788 -3.0319
34526SOL     OW 7108   6.115   5.494   5.230 -0.0745 -0.4804 -0.0337
34526SOL    HW1 7109   6.107   5.488   5.326 -1.3507  1.1162  0.0098
34526SOL    HW2 7110   6.209   5.503   5.215  0.1516 -0.7514  1.0722
34527SOL     OW 7111   7.905  10.637  10.336  0.2648 -0.5676 -0.3292
34527SOL    HW1 7112   7.909  10.613  10.244 -0.4590 -1.3670 -0.1687
34527SOL    HW2 7113   7.896  10.732  10.336 -2.2295 -0.7183 -1.1939
34528SOL     OW 7114   3.426   9.834   8.954  0.0875  0.1060  0.1466
34528SOL    HW1 7115   3.355   9.774   8.929  0.2983  0.1731 -0.6413
34528SOL    HW2 7116   3.420   9.906   8.891  0.9733  0.0156 -0.0545
34529SOL     OW 7117   9.848   0.472   2.144 -0.1346 -0.0907 -0.4553
34529SOL    HW1 7118   9.941   0.451   2.149  0.5236  2.7135  0.3784
34529SOL    HW2 7119   9.839   0.525   2.065 -0.4360  2.1157  0.9926
34530SOL     OW 7120   7.460   8.404   5.137  0.0500 -0.4077  0.2143
34530SOL    HW1 7121   7.391   8.345   5.109 -1.1067  0.5929  0.8324
34530SOL    HW2 7122   7.539   8.350   5.141 -0.1935 -1.0987 -2.6081
34531SOL     OW 7123   1.123   8.699   7.346  0.5124 -0.5575 -0.5724
34531SOL    HW1 7124   1.124   8.705   7.251  0.3076 -2.7521 -0.7656
34531SOL    HW2 7125   1.030   8.690   7.369  0.6072 -0.6575 -0.2174
34532SOL     OW 7126   1.398   8.483   0.774  0.2629  0.0531  0.5117
34532SOL    HW1 7127   1.468   8.421   0.797  1.3349  0.1322 -2.1565
34532SOL    HW2 7128   1.318   8.442   0.809  1.0186 -2.5707 -0.5277
34533SOL     OW 7129   5.796  10.696   1.940  0.4439 -0.6581 -0.5833
34533SOL    HW1 7130   5.750  10.658   2.015 -1.2986  1.0862 -0.7061
34533SOL    HW2 7131   5.752  10.660   1.864 -0.5735  0.8060 -0.7067
34534SOL     OW 7132   6.012   2.290   1.859 -0.4783  0.5232 -0.0689
34534SOL    HW1 7133   6.014   2.236   1.938 -0.4085  1.3469  0.5118
34534SOL    HW2 7134   6.098   2.333   1.859 -0.5858  0.7359 -0.4448
34535SOL     OW 7135   9.634   1.224   1.036 -0.3847  0.3823  0.3724
34535SOL    HW1 7136   9.605   1.199   1.124 -0.5416 -0.6258  0.0502
34535SOL    HW2 7137   9.643   1.141   0.990  3.0646  0.5793  0.4369
34536SOL     OW 7138   9.394   3.408   2.251 -0.0889  0.5957 -0.2595
34536SOL    HW1 7139   9.449   3.448   2.318 -0.9722  0.5854  0.4830
34536SOL    HW2 7140   9.306   3.438   2.271 -0.3852  0.4925 -1.3525
34537SOL     OW 7141   7.828   3.177   3.903 -0.8251  0.3014 -0.0152
34537SOL    HW1 7142   7.752   3.126   3.933 -0.0864 -0.3679  0.7760
34537SOL    HW2 7143   7.862   3.218   3.983  0.0747  0.0057 -0.2351
34538SOL     OW 7144   6.186   3.343  11.047 -0.0275 -0.8731 -0.0738
34538SOL    HW1 7145   6.225   3.287  10.981 -0.0801 -0.4243 -0.4903
34538SOL    HW2 7146   6.164   3.284  11.119  1.1765 -1.1697  0.0717
34539SOL     OW 7147   7.814   6.578   5.669 -0.6263  0.1548  0.1179
34539SOL    HW1 7148   7.771   6.590   5.753 -1.0872  0.3745 -0.1467
34539SOL    HW2 7149   7.811   6.664   5.627 -0.4088  0.0449 -0.1309
34540SOL     OW 7150   7.555   6.983  10.768  0.0679 -0.0370  0.3196
34540SOL    HW1 7151   7.623   7.032  10.815 -2.2141  3.7970  0.0515
34540SOL    HW2 7152   7.502   6.944  10.838  1.5782 -1.8015  0.5555
34541SOL     OW 7153  10.321   2.853   8.031  0.5746  0.0433 -0.6078
34541SOL    HW1 7154  10.261   2.825   7.962  2.1887 -1.8151 -1.3520
34541SOL    HW2 7155  10.345   2.773   8.077  1.0882  0.9798  0.8519
34542SOL     OW 7156   1.030   9.623   3.962  0.2039  0.2262  0.4151
34542SOL    HW1 7157   1.008   9.614   4.055 -1.0357  0.6808  0.1901
34542SOL    HW2 7158   0.946   9.614   3.917  0.9080 -0.8730 -0.7406
34543SOL     OW 7159   1.621   1.510   0.758  0.2394  0.4565 -0.6745
34543SOL    HW1 7160   1.623   1.571   0.832 -1.4561  0.4409 -0.5809
34543SOL    HW2 7161   1.610   1.567   0.681  2.1924  0.4886 -0.9770
34544SOL     OW 7162   1.288   1.220   7.483  0.1984 -0.3393 -0.6271
34544SOL    HW1 7163   1.201   1.186   7.462  0.2223  0.7821 -2.8654
34544SOL    HW2 7164   1.299   1.295   7.424  2.3678  0.0249  0.1598
34545SOL     OW 7165   0.808   0.144   1.299 -0.0027 -0.4172 -0.4898
34545SOL    HW1 7166   0.819   0.173   1.390 -0.3356 -0.9563 -0.2744
34545SOL    HW2 7167   0.839   0.054   1.298  1.3292  0.0283 -1.2351
34546SOL     OW 7168   3.746   9.236   2.457  0.0648 -0.2613  0.6864
34546SOL    HW1 7169   3.791   9.289   2.391 -0.3491  2.3058  2.2802
34546SOL    HW2 7170   3.815   9.202   2.513  0.3189 -1.1494 -0.1512
34547SOL     OW 7171   1.404   0.122   1.308 -0.1008  0.0430  0.2065
34547SOL    HW1 7172   1.487   0.081   1.283  0.3346  1.3019 -0.4894
34547SOL    HW2 7173   1.348   0.049   1.334  0.4208 -1.0668 -1.6507
34548SOL     OW 7174   1.306   1.909   1.749 -0.5832  0.4907 -0.3675
34548SOL    HW1 7175   1.241   1.904   1.820  0.1101  2.6316  0.5140
34548SOL    HW2 7176   1.368   1.838   1.768 -1.4729 -0.1989  0.0211
34549SOL     OW 7177  10.506   1.340   4.668  0.0724 -0.6732 -0.3349
34549SOL    HW1 7178  10.437   1.317   4.606 -0.3005  0.1135 -0.2219
34549SOL    HW2 7179  10.468   1.327   4.754  0.2028 -0.6311 -0.2702
34550SOL     OW 7180   5.330   4.589   4.585 -0.6197  0.0345 -0.7900
34550SOL    HW1 7181   5.378   4.646   4.524  0.5393 -0.3656 -0.2893
34550SOL    HW2 7182   5.366   4.611   4.671 -0.1317 -1.4522 -0.5827
34551SOL     OW 7183   4.322  11.045   4.760  0.4237 -0.1101 -0.0921
34551SOL    HW1 7184   4.286  10.977   4.816 -1.3953  1.4161  0.7253
34551SOL    HW2 7185   4.259  11.052   4.687  0.5740  0.6625 -0.1587
34552SOL     OW 7186   6.889   7.658   9.945  0.0414  0.1998  0.1766
34552SOL    HW1 7187   6.945   7.600   9.892  0.7275  0.5740  0.4736
34552SOL    HW2 7188   6.872   7.733   9.888 -0.7386 -0.2237 -0.1605
34553SOL     OW 7189   0.997   5.174  10.622  0.0503  0.5715 -0.2721
34553SOL    HW1 7190   1.018   5.097  10.569 -1.0188  0.0969 -0.0368
34553SOL    HW2 7191   0.932   5.222  10.570  0.1987  0.9533 -0.1106
34554SOL     OW 7192   4.747  11.017   0.306 -0.1552 -0.3401  0.0053
34554SOL    HW1 7193   4.739  10.964   0.385 -2.6733  0.8721  0.6556
34554SOL    HW2 7194   4.802  11.091   0.332  0.5669 -0.8723  0.0416
34555SOL     OW 7195   1.882  10.462   2.775  0.5294 -0.3414  0.0143
34555SOL    HW1 7196   1.901  10.507   2.693  1.9136  0.0303  0.5151
34555SOL    HW2 7197   1.787  10.449   2.774  0.3817  0.6746 -1.1147
34556SOL     OW 7198   3.748   4.052   5.942  0.0263  0.4128  0.0488
34556SOL    HW1 7199   3.706   3.998   6.009 -2.4306  0.8008 -1.0896
34556SOL    HW2 7200   3.770   3.991   5.872  1.2034  0.2505  0.5395
34557SOL     OW 7201   1.151   2.124   5.588 -0.0651  0.1725 -0.4602
34557SOL    HW1 7202   1.191   2.209   5.574  0.8501 -0.1186  0.3161
34557SOL    HW2 7203   1.106   2.131   5.672 -0.5361  0.0858 -0.7001
34558SOL     OW 7204   4.469   1.445   7.655 -0.5019 -0.0575 -0.2819
34558SOL    HW1 7205   4.478   1.533   7.690 -0.4685  0.7382 -2.1693
34558SOL    HW2 7206   4.467   1.388   7.732  2.4254  1.2858  0.9392
34559SOL     OW 7207   2.454   8.303   9.492  0.0849 -0.1825  0.1495
34559SOL    HW1 7208   2.428   8.301   9.399 -0.5168  1.0366  0.2679
34559SOL    HW2 7209   2.536   8.255   9.495  0.6757  0.6830 -1.2138
34560SOL     OW 7210   5.747  11.066   1.316  0.3965 -0.1497  0.3582
34560SOL    HW1 7211   5.695  11.137   1.277 -1.1680 -1.4298 -0.0145
34560SOL    HW2 7212   5.763  11.095   1.405  0.8129  1.1847 -0.1183
34561SOL     OW 7213   1.539   3.267   3.399  0.4095 -0.4344  0.3916
34561SOL    HW1 7214   1.616   3.247   3.347  0.1467 -1.1619  0.2726
34561SOL    HW2 7215   1.572   3.322   3.470  0.7400  0.6990 -0.6102
34562SOL     OW 7216   5.628   0.450   0.611  0.2455 -0.3958  0.0625
34562SOL    HW1 7217   5.587   0.440   0.698  0.2099 -1.7236 -0.0883
34562SOL    HW2 7218   5.699   0.511   0.625 -1.3687  1.4958  0.4771
34563SOL     OW 7219   8.665  10.383   9.925 -0.4695 -0.1888 -0.2587
34563SOL    HW1 7220   8.617  10.389  10.007  0.5614  1.5962  0.2689
34563SOL    HW2 7221   8.755  10.361   9.951 -0.2897 -0.3455 -0.9642
34564SOL     OW 7222   1.279   0.908  11.077 -0.3926 -0.1553  0.5980
34564SOL    HW1 7223   1.372   0.895  11.097 -0.0519 -4.3770 -2.3647
34564SOL    HW2 7224   1.276   0.909  10.981 -3.3397  1.4055  0.6075
34565SOL     OW 7225   9.512   2.871   8.553 -0.2428  0.4760  0.2838
34565SOL    HW1 7226   9.554   2.828   8.627  0.2184 -1.6434 -1.1333
34565SOL    HW2 7227   9.423   2.888   8.584  0.5325  1.6688  2.0480
34566SOL     OW 7228   8.436   3.449   6.886 -0.2537 -0.2375 -0.6036
34566SOL    HW1 7229   8.461   3.505   6.813  0.1395  0.5913  0.1502
34566SOL    HW2 7230   8.348   3.480   6.911  0.3831  0.7761  0.4806
34567SOL     OW 7231   7.510   8.075   6.803 -0.5912 -0.2663 -0.3868
34567SOL    HW1 7232   7.549   7.999   6.760  0.2816  0.1571 -0.3686
34567SOL    HW2 7233   7.490   8.044   6.892 -0.4743 -0.5432 -0.4546
34568SOL     OW 7234   6.019  10.731   7.648 -0.1123 -0.1383  0.3216
34568SOL    HW1 7235   6.065  10.776   7.719 -0.3296  0.5482  0.0389
34568SOL    HW2 7236   6.087  10.711   7.584  0.3326 -1.9595  1.2754
34569SOL     OW 7237   7.886   1.938   6.728  0.8323  0.1155 -0.1701
34569SOL    HW1 7238   7.854   1.953   6.818  3.1020 -2.9651  1.3125
34569SOL    HW2 7239   7.981   1.934   6.737  1.0960 -0.5624 -2.7089
34570SOL     OW 7240   9.556   6.235   9.963  0.3693 -0.1182 -0.4779
34570SOL    HW1 7241   9.576   6.142   9.976 -0.2599 -0.1101  0.6240
34570SOL    HW2 7242   9.598   6.280  10.036 -0.2031  0.3424 -0.4242
34571SOL     OW 7243   9.116   7.553   3.469 -0.5591  0.0266  0.0090
34571SOL    HW1 7244   9.070   7.622   3.516  0.2411  0.0161  0.8213
34571SOL    HW2 7245   9.195   7.594   3.436  0.2252 -0.6230  1.0156
34572SOL     OW 7246   0.831   7.588   8.038 -0.0970  0.0314  0.1482
34572SOL    HW1 7247   0.876   7.572   8.121  1.0657  0.7453 -0.3122
34572SOL    HW2 7248   0.868   7.523   7.978  1.1135  1.2451 -0.4871
34573SOL     OW 7249   8.311   4.229   7.053 -0.3552 -0.8452  0.4301
34573SOL    HW1 7250   8.310   4.166   6.980  1.4318 -1.8691  1.2302
34573SOL    HW2 7251   8.342   4.179   7.128  0.2905  0.7988  1.3094
34574SOL     OW 7252   2.340   7.077   0.993 -0.0575  0.7724 -0.3918
34574SOL    HW1 7253   2.335   7.165   1.031  0.3536  1.4167 -1.7645
34574SOL    HW2 7254   2.262   7.032   1.026 -0.4202  1.7333  0.1143
34575SOL     OW 7255   7.413   1.097   1.116 -0.3786  0.1872 -0.4549
34575SOL    HW1 7256   7.451   1.129   1.034  0.5293  0.4046  0.0358
34575SOL    HW2 7257   7.332   1.053   1.090  0.1968 -0.2605 -1.5282
34576SOL     OW 7258  10.715   9.334   4.443 -0.4584 -0.5941 -0.0285
34576SOL    HW1 7259  10.781   9.402   4.458 -0.6818 -0.3694 -0.0558
34576SOL    HW2 7260  10.635   9.382   4.426 -0.9045 -0.8678  1.2241
34577SOL     OW 7261   4.374   0.139   1.928  0.1008  0.0316 -0.6013
34577SOL    HW1 7262   4.458   0.184   1.937 -0.2235  0.3610  1.3185
34577SOL    HW2 7263   4.336   0.175   1.849  1.2574  0.7373 -0.8689
34578SOL     OW 7264   7.608   2.353   5.184  0.5402 -0.0189  0.0495
34578SOL    HW1 7265   7.657   2.314   5.112  0.1935  0.3124 -0.3711
34578SOL    HW2 7266   7.517   2.344   5.158  0.3570 -0.8900  0.9584
34579SOL     OW 7267   5.624   7.255   9.148 -0.5403 -0.2519  0.4740
34579SOL    HW1 7268   5.640   7.222   9.060 -0.2908 -1.1675  0.8502
34579SOL    HW2 7269   5.694   7.217   9.202 -0.2013  0.9468  0.9268
34580SOL     OW 7270   1.146   6.623   0.098 -0.1841 -0.1140 -0.3061
34580SOL    HW1 7271   1.117   6.533   0.086  0.1581  0.0094 -2.2831
34580SOL    HW2 7272   1.103   6.673   0.029  0.4780  1.0473  0.0814
34581SOL     OW 7273   3.231   7.218   3.231  0.1450 -1.0565 -0.7708
34581SOL    HW1 7274   3.286   7.296   3.220 -0.5873 -0.6008 -1.3380
34581SOL    HW2 7275   3.259   7.159   3.161  0.0581 -0.9048 -0.9364
34582SOL     OW 7276   7.203   6.894   8.639  0.0159  0.0506 -0.0439
34582SOL    HW1 7277   7.273   6.898   8.574  0.8849 -0.6818  0.8312
34582SOL    HW2 7278   7.163   6.982   8.637  0.7897  0.3946 -0.7205
34583SOL     OW 7279   8.242   9.352   9.401 -0.3585  0.0318  0.2929
34583SOL    HW1 7280   8.299   9.282   9.369  0.2928  0.3996  0.6132
34583SOL    HW2 7281   8.235   9.336   9.496  1.2750  1.3938  0.6964
34584SOL     OW 7282   1.905   8.568   8.376  0.0001  0.2991 -0.3682
34584SOL    HW1 7283   1.914   8.648   8.323  0.0428 -0.6850 -1.8988
34584SOL    HW2 7284   1.918   8.497   8.314  1.6205 -0.9181  1.2774
34585SOL     OW 7285   2.903   0.595   9.006  0.5270  0.5385  0.9023
34585SOL    HW1 7286   2.898   0.513   9.054  0.4650  1.0444  1.7749
34585SOL    HW2 7287   2.880   0.662   9.070  0.3341  1.2192  0.1393
34586SOL     OW 7288   8.355   1.620   4.671  0.1507  0.3266  0.1942
34586SOL    HW1 7289   8.367   1.714   4.674 -1.2044  0.6495 -2.1211
34586SOL    HW2 7290   8.290   1.602   4.739 -0.1369  1.1798  0.1566
34587SOL     OW 7291   3.638   6.965   9.794 -0.8404  0.1147  0.8499
34587SOL    HW1 7292   3.708   6.909   9.760  0.4607  2.2281 -0.1053
34587SOL    HW2 7293   3.558   6.928   9.756  0.0569 -0.6137 -0.4103
34588SOL     OW 7294   6.230   5.377   2.960 -0.2360  0.3726 -0.2898
34588SOL    HW1 7295   6.229   5.308   3.026  0.2925  0.1146 -0.5387
34588SOL    HW2 7296   6.150   5.427   2.975 -0.6631 -0.3394 -0.1459
34589SOL     OW 7297   5.757   3.846   2.243 -0.0230 -0.3107  0.0360
34589SOL    HW1 7298   5.669   3.828   2.276 -0.2258  1.2210  0.4292
34589SOL    HW2 7299   5.746   3.856   2.148 -0.3010  0.0093  0.1015
34590SOL     OW 7300   1.191   3.037   9.870 -0.2208 -0.1962 -0.6424
34590SOL    HW1 7301   1.135   3.098   9.917  0.6334  0.5294 -0.5227
34590SOL    HW2 7302   1.249   3.093   9.818  0.9370 -0.8563 -0.1232
34591SOL     OW 7303   4.840   0.634   7.513  0.0025 -0.1647 -0.0292
34591SOL    HW1 7304   4.832   0.636   7.608  1.6691 -0.8032  0.1640
34591SOL    HW2 7305   4.934   0.622   7.497 -0.1766  0.4320 -1.7654
34592SOL     OW 7306  10.549   2.160   8.384  0.1167  0.0146  0.3728
34592SOL    HW1 7307  10.499   2.131   8.307 -0.3220 -0.2766  0.7574
34592SOL    HW2 7308  10.492   2.138   8.458 -0.5666  2.4888  0.6627
34593SOL     OW 7309   5.248   3.798   7.246 -0.0988  0.6651  0.5174
34593SOL    HW1 7310   5.188   3.738   7.291 -0.3347 -0.9124 -1.7173
34593SOL    HW2 7311   5.299   3.839   7.316 -2.1982  0.3506  2.3473
34594SOL     OW 7312   3.762   5.985   2.350  0.2197 -0.1962 -0.2273
34594SOL    HW1 7313   3.692   6.047   2.370  1.2707  0.8028  0.5190
34594SOL    HW2 7314   3.803   5.967   2.435 -0.6092 -2.6807 -0.2473
34595SOL     OW 7315   9.230   0.853   9.561  0.0729  0.1600  0.5331
34595SOL    HW1 7316   9.199   0.846   9.471 -0.1706 -1.8871  0.7226
34595SOL    HW2 7317   9.154   0.832   9.615  0.9400 -1.7960  1.0867
34596SOL     OW 7318   2.149   4.961  10.590 -0.0211  0.1699  0.1489
34596SOL    HW1 7319   2.144   5.039  10.646  2.4535  0.9329 -0.5545
34596SOL    HW2 7320   2.242   4.941  10.586 -0.3702 -1.3016 -1.7777
34597SOL     OW 7321   1.506   7.830   7.809  0.1660 -0.0961  0.1470
34597SOL    HW1 7322   1.465   7.907   7.770  1.0706  0.5835  0.5084
34597SOL    HW2 7323   1.600   7.847   7.804  0.4292 -1.5687 -0.5537
34598SOL     OW 7324   9.112   0.405  10.499  0.1625 -0.5814 -0.0849
34598SOL    HW1 7325   9.097   0.409  10.404  3.8164  0.2808 -0.7692
34598SOL    HW2 7326   9.158   0.322  10.512 -0.5353 -0.8159  1.0206
34599SOL     OW 7327   3.511   0.934   6.463 -0.6561  0.2396 -0.0625
34599SOL    HW1 7328   3.423   0.967   6.478 -0.6184  0.1435  0.4083
34599SOL    HW2 7329   3.569   1.006   6.489 -0.5957  0.2781 -0.3037
34600SOL     OW 7330  10.391   7.830   4.679 -0.5149 -0.3601  0.2190
34600SOL    HW1 7331  10.321   7.859   4.738 -0.9263  0.5862 -0.7169
34600SOL    HW2 7332  10.434   7.758   4.727 -0.9076  0.2978  1.6149
34601SOL     OW 7333  10.078   7.497   3.055 -0.2718  0.5012 -0.4224
34601SOL    HW1 7334  10.089   7.586   3.090  1.0075  0.5388 -0.8563
34601SOL    HW2 7335  10.046   7.446   3.130  0.5113  1.0015  0.2796
34602SOL     OW 7336  11.045   9.120   8.399 -0.7057 -0.1650 -0.4082
34602SOL    HW1 7337  11.023   9.182   8.470 -0.0101 -1.3056  0.8468
34602SOL    HW2 7338  11.140   9.111   8.404 -0.5949 -0.0041 -1.7580
34603SOL     OW 7339   6.635  10.338   5.187  0.1207 -0.2434  0.1229
34603SOL    HW1 7340   6.686  10.357   5.108  1.3032 -0.5467  0.7961
34603SOL    HW2 7341   6.617  10.244   5.182  0.9732 -0.4458  0.6419
34604SOL     OW 7342   5.102   8.654   4.643 -0.0320  0.1065 -0.5303
34604SOL    HW1 7343   5.112   8.738   4.689 -0.7034  0.2981 -0.7193
34604SOL    HW2 7344   5.097   8.589   4.714  1.1425  0.1387 -0.3974
34605SOL     OW 7345  10.135   6.886  10.823  0.1435 -0.3585 -0.2125
34605SOL    HW1 7346  10.183   6.836  10.756  0.1116  1.7953 -1.9496
34605SOL    HW2 7347  10.079   6.820  10.865  2.1970 -2.3078 -0.3608
34606SOL     OW 7348   0.907   8.539   3.555  0.1416  0.0535 -0.2807
34606SOL    HW1 7349   0.983   8.597   3.563  0.5158 -0.1223 -2.0816
34606SOL    HW2 7350   0.884   8.543   3.462 -1.9833 -0.0072  0.1940
34607SOL     OW 7351   0.761   5.965   7.622 -0.1671  0.2417 -0.0563
34607SOL    HW1 7352   0.719   5.936   7.541 -0.6620  1.0048 -0.0801
34607SOL    HW2 7353   0.788   6.055   7.604 -0.0155  0.3179  0.5259
34608SOL     OW 7354   6.568   2.703   0.575  0.3977  0.0319 -0.0190
34608SOL    HW1 7355   6.482   2.728   0.540  0.4134 -0.9641 -0.8409
34608SOL    HW2 7356   6.565   2.607   0.579  0.5711  0.0664  2.3392
34609SOL     OW 7357   0.525   4.999   9.958  0.1349 -0.0141 -0.2885
34609SOL    HW1 7358   0.595   4.954  10.005  0.1305  0.1851 -0.0881
34609SOL    HW2 7359   0.468   5.032  10.028  0.7584  1.3255 -0.3838
34610SOL     OW 7360   2.119   9.591   9.235  0.2522  0.1815 -0.5005
34610SOL    HW1 7361   2.211   9.595   9.260 -0.0370 -1.0982  0.9040
34610SOL    HW2 7362   2.104   9.500   9.212 -0.9543  0.0656  0.6015
34611SOL     OW 7363   3.821   8.579   4.803  0.0713 -0.1779  0.2275
34611SOL    HW1 7364   3.889   8.592   4.737 -0.1757 -1.8198 -0.3934
34611SOL    HW2 7365   3.739   8.587   4.755 -0.1809  1.0019  0.8234
34612SOL     OW 7366   7.224   7.802   2.031 -0.3553  0.0772 -0.1759
34612SOL    HW1 7367   7.204   7.847   2.113  0.5554  0.1774  0.0005
34612SOL    HW2 7368   7.281   7.730   2.058 -1.4034 -0.9069 -0.5138
34613SOL     OW 7369   9.247  11.071   0.767  0.6868  0.1727  0.1290
34613SOL    HW1 7370   9.184  11.136   0.735  0.4607  1.1222  2.2764
34613SOL    HW2 7371   9.328  11.092   0.722 -0.0002  0.3340 -1.0604
34614SOL     OW 7372   2.551   4.946   8.189 -0.0896  0.0974  0.2382
34614SOL    HW1 7373   2.461   4.956   8.160 -0.1128 -1.9411 -0.5755
34614SOL    HW2 7374   2.603   4.987   8.120 -0.3404 -0.2201 -0.1454
34615SOL     OW 7375   9.024  10.830   0.178 -0.3591 -0.2785 -0.2354
34615SOL    HW1 7376   9.066  10.897   0.124  0.8303 -1.8783 -1.3941
34615SOL    HW2 7377   8.931  10.835   0.155 -0.2204  0.6430 -0.6513
34616SOL     OW 7378   5.651   1.449   6.132  0.4625  0.3075  0.0873
34616SOL    HW1 7379   5.646   1.368   6.182  1.7717  0.4191  0.4460
34616SOL    HW2 7380   5.582   1.442   6.066 -1.1403  0.0452  1.7288
34617SOL     OW 7381   4.696   0.229   5.087 -0.0424 -0.1267 -0.2702
34617SOL    HW1 7382   4.695   0.322   5.062 -2.5916 -0.3313 -1.2153
34617SOL    HW2 7383   4.698   0.183   5.003  3.7177 -1.0849  0.1559
34618SOL     OW 7384  10.500   9.485   7.133 -0.1221 -0.3906 -0.2276
34618SOL    HW1 7385  10.520   9.401   7.174 -0.2175 -0.1161  0.3855
34618SOL    HW2 7386  10.409   9.477   7.105  0.2297 -0.9311 -1.2746
34619SOL     OW 7387   2.840   7.259   1.386 -0.3771  0.3601 -0.4615
34619SOL    HW1 7388   2.904   7.315   1.343  0.7174  0.3577  1.0654
34619SOL    HW2 7389   2.892   7.195   1.433 -1.5828 -1.6946 -1.7573
34620SOL     OW 7390   6.469   3.177   2.145 -0.0065  0.0758 -0.3401
34620SOL    HW1 7391   6.439   3.127   2.222  0.2096  1.3394  0.5907
34620SOL    HW2 7392   6.527   3.116   2.099  2.3998  0.2295  2.1946
34621SOL     OW 7393   9.462   6.875   9.100 -0.5522  0.4385 -0.0780
34621SOL    HW1 7394   9.394   6.937   9.125 -0.5039  0.9470 -1.1844
34621SOL    HW2 7395   9.445   6.856   9.008  0.0136 -0.4527 -0.0097
34622SOL     OW 7396   8.479   7.272   0.855 -0.3172 -0.2170  0.2079
34622SOL    HW1 7397   8.483   7.323   0.774  1.1826  0.5999  0.7635
34622SOL    HW2 7398   8.564   7.228   0.861 -1.4083 -2.5257 -0.0417
34623SOL     OW 7399   5.432   6.455   6.122  0.1844  0.0482  0.3465
34623SOL    HW1 7400   5.440   6.500   6.206 -1.1575 -0.5775  0.8314
34623SOL    HW2 7401   5.441   6.525   6.057  1.4391  0.5159  0.9765
34624SOL     OW 7402   0.819   1.600  11.066  0.1886  0.6567  0.8748
34624SOL    HW1 7403   0.774   1.547  11.001  1.0078  0.7135  0.2492
34624SOL    HW2 7404   0.904   1.621  11.026  0.2344  1.6725  1.4819
34625SOL     OW 7405   8.649   4.144  10.011 -0.1659 -0.0174 -0.4978
34625SOL    HW1 7406   8.659   4.078   9.942  1.8213 -0.4631  0.1493
34625SOL    HW2 7407   8.696   4.220   9.977 -1.2362  0.5923 -0.6342
34626SOL     OW 7408   1.984   8.093   2.200  0.6268 -0.1480  0.3231
34626SOL    HW1 7409   1.960   8.185   2.190 -0.0410 -0.0958  1.9994
34626SOL    HW2 7410   2.055   8.079   2.138  0.7822  1.5155  0.0839
34627SOL     OW 7411   5.405   4.685   8.479 -0.0077  0.4864 -0.0952
34627SOL    HW1 7412   5.495   4.669   8.505  0.1275  0.7085 -0.4174
34627SOL    HW2 7413   5.395   4.780   8.483 -0.0792  0.4997 -0.5390
34628SOL     OW 7414   0.308   9.428   7.777  0.0261  0.5757 -0.4461
34628SOL    HW1 7415   0.399   9.398   7.779 -0.1602 -0.0259 -0.9636
34628SOL    HW2 7416   0.309   9.503   7.717  0.0885  0.2648 -0.8355
34629SOL     OW 7417   7.353   1.684   2.247  0.3750  0.0999  0.6434
34629SOL    HW1 7418   7.333   1.762   2.297 -2.0872  2.0046 -2.8630
34629SOL    HW2 7419   7.283   1.622   2.270  0.1852  0.3458  0.7326
34630SOL     OW 7420   7.945   1.172   3.120  0.0179 -0.0132  0.1872
34630SOL    HW1 7421   7.973   1.167   3.029  0.6694 -0.3776  0.3981
34630SOL    HW2 7422   8.022   1.205   3.167  0.1462 -1.1044  0.7920
34631SOL     OW 7423   0.294   2.231   1.134  0.1683  0.5836  0.1512
34631SOL    HW1 7424   0.294   2.277   1.218 -0.8045 -0.4369  0.7376
34631SOL    HW2 7425   0.202   2.231   1.107  0.3786  0.3209 -0.5897
34632SOL     OW 7426   4.765   7.130   4.346  0.1470 -0.0823  0.4676
34632SOL    HW1 7427   4.699   7.199   4.353 -1.6377 -1.7408  0.6698
34632SOL    HW2 7428   4.836   7.171   4.296 -1.4478  1.4656 -0.6605
34633SOL     OW 7429   3.670   8.958   1.601 -0.1658 -0.0215 -0.2091
34633SOL    HW1 7430   3.761   8.983   1.615  0.0646  0.2967 -2.0095
34633SOL    HW2 7431   3.622   9.041   1.597 -0.7609 -0.2201  1.8716
34634SOL     OW 7432   2.272   5.757   4.940  0.0167  0.1290  0.4521
34634SOL    HW1 7433   2.261   5.773   5.034  1.2667  1.2302  0.4378
34634SOL    HW2 7434   2.315   5.672   4.936  0.8116  0.4860  0.9488
34635SOL     OW 7435   4.343   7.467   7.908  0.2175  0.5490 -0.5886
34635SOL    HW1 7436   4.397   7.439   7.981  0.8849  2.6858 -0.1854
34635SOL    HW2 7437   4.360   7.403   7.839  1.1269 -0.3632  0.4519
34636SOL     OW 7438   8.716   2.116   8.230  0.1979  0.0173  0.3452
34636SOL    HW1 7439   8.648   2.178   8.258  0.3261  0.5007 -0.3995
34636SOL    HW2 7440   8.724   2.130   8.136  1.1668 -0.2087  0.3872
34637SOL     OW 7441  11.055   2.667   6.757 -0.0966  0.0675 -0.0566
34637SOL    HW1 7442  11.025   2.714   6.679  0.2161  3.0629  1.4573
34637SOL    HW2 7443  10.977   2.660   6.812 -0.6468 -3.2834 -1.0808
34638SOL     OW 7444   4.033   8.010   2.325  0.3753 -0.3088  0.1528
34638SOL    HW1 7445   4.074   7.940   2.275 -1.5229 -1.8931  0.6966
34638SOL    HW2 7446   4.070   8.003   2.413  0.5092 -0.3387  0.0936
34639SOL     OW 7447   4.702   6.734   2.521 -0.3141  0.3825 -0.3391
34639SOL    HW1 7448   4.608   6.717   2.526 -0.4015  0.9193 -0.1171
34639SOL    HW2 7449   4.725   6.769   2.608  0.2893 -0.7197 -0.0410
34640SOL     OW 7450   9.358   5.480   1.594 -0.2563  0.3773 -0.0810
34640SOL    HW1 7451   9.398   5.394   1.579 -1.8661 -0.8478  2.1185
34640SOL    HW2 7452   9.431   5.536   1.620  0.6560 -0.6318 -0.3737
34641SOL     OW 7453   5.322   7.896   1.557 -0.3197 -0.0022  0.2592
34641SOL    HW1 7454   5.269   7.943   1.494 -0.9036 -1.8112 -0.6575
34641SOL    HW2 7455   5.412   7.920   1.535 -0.6091  0.9992  0.1072
34642SOL     OW 7456   8.049   4.089   8.262 -0.2899  0.8452 -0.0751
34642SOL    HW1 7457   8.113   4.028   8.225  0.9173  1.2907  1.1878
34642SOL    HW2 7458   7.991   4.109   8.189 -0.2528 -1.1790 -0.7292
34643SOL     OW 7459   0.561   0.693  11.126 -0.2531 -0.5585 -0.4109
34643SOL    HW1 7460   0.508   0.755  11.176 -0.5794 -0.1239 -1.2736
34643SOL    HW2 7461   0.614   0.747  11.069  0.3233 -1.0399 -0.3394
34644SOL     OW 7462   1.264   0.829   6.654 -0.1785 -0.0832 -0.4088
34644SOL    HW1 7463   1.328   0.808   6.722 -0.0617  1.0295 -0.1566
34644SOL    HW2 7464   1.316   0.835   6.573 -0.3000 -1.2877 -0.5959
34645SOL     OW 7465   2.990   2.739   7.335 -0.4084  0.1346  0.0968
34645SOL    HW1 7466   2.968   2.703   7.249  1.8610 -0.0579 -0.4831
34645SOL    HW2 7467   3.035   2.667   7.379  1.2672  1.1959  0.1813
34646SOL     OW 7468   7.313  10.615  10.984  0.3306 -0.3415  0.2145
34646SOL    HW1 7469   7.383  10.680  10.978  0.1760 -0.2707 -1.1553
34646SOL    HW2 7470   7.358  10.531  10.985  0.4669 -0.3330 -1.3990
34647SOL     OW 7471   7.821   5.548   8.458 -0.7477 -0.3328 -0.2300
34647SOL    HW1 7472   7.858   5.492   8.390  0.4290  1.2042 -0.9226
34647SOL    HW2 7473   7.759   5.605   8.411 -1.0888 -0.3021  0.2533
34648SOL     OW 7474  10.556   6.243   2.920  0.0948  0.1320  0.2411
34648SOL    HW1 7475  10.567   6.154   2.953 -2.0584 -1.0551 -1.9483
34648SOL    HW2 7476  10.477   6.276   2.963 -0.7696 -0.1641 -1.0386
34649SOL     OW 7477   0.144   0.563   9.087  0.1940  0.6310 -0.4345
34649SOL    HW1 7478   0.153   0.658   9.089  0.5104  0.6254 -1.3396
34649SOL    HW2 7479   0.066   0.547   9.035  1.7237  0.3392 -2.7690
34650SOL     OW 7480   3.577   2.335   2.064  0.0452  0.7831 -0.4358
34650SOL    HW1 7481   3.573   2.249   2.105 -1.7693  1.7488  1.6707
34650SOL    HW2 7482   3.619   2.320   1.980  0.6429 -1.9755  0.2493
34651SOL     OW 7483   6.170   7.239   2.313 -0.2767 -0.7157 -0.1419
34651SOL    HW1 7484   6.141   7.205   2.398 -5.7046  1.0007 -0.8985
34651SOL    HW2 7485   6.129   7.180   2.249 -2.0908  1.7575 -1.4059
34652SOL     OW 7486   0.185  10.314   2.100  0.4356  0.7434  0.3424
34652SOL    HW1 7487   0.281  10.311   2.100  0.5063  1.5344  2.1599
34652SOL    HW2 7488   0.160  10.268   2.181 -0.6271  2.0238  0.7708
34653SOL     OW 7489   0.323   6.496   9.141 -0.0661  0.1382  0.4355
34653SOL    HW1 7490   0.258   6.544   9.193  0.1617 -0.2512  1.0766
34653SOL    HW2 7491   0.328   6.546   9.059  0.2252  1.2693  1.1153
34654SOL     OW 7492   6.833   9.364   2.804 -0.4871 -0.6632  0.5356
34654SOL    HW1 7493   6.841   9.355   2.709  2.7124 -0.6615  0.6944
34654SOL    HW2 7494   6.856   9.277   2.837  4.6964  0.7097  1.3372
34655SOL     OW 7495   1.861   7.612   2.083  0.0384 -0.3674  0.3993
34655SOL    HW1 7496   1.784   7.564   2.113  0.1276  0.6020  2.3757
34655SOL    HW2 7497   1.860   7.693   2.135  3.5320 -1.2552  2.1847
34656SOL     OW 7498   8.801   8.769   4.323  0.1444  0.4321 -0.1203
34656SOL    HW1 7499   8.745   8.720   4.383 -0.4770  2.0500  0.6759
34656SOL    HW2 7500   8.762   8.754   4.237 -0.1715 -0.2639  0.1368
34657SOL     OW 7501   2.905   0.959  10.842 -0.6721  0.6208  0.4320
34657SOL    HW1 7502   2.879   0.895  10.776  2.0501 -0.8721  0.6275
34657SOL    HW2 7503   2.871   0.923  10.924 -0.7517  0.3845  0.2963
34658SOL     OW 7504   9.509   3.051   0.903  0.1253 -0.1229 -0.1047
34658SOL    HW1 7505   9.564   2.992   0.954 -2.4372 -1.8435  0.9090
34658SOL    HW2 7506   9.520   3.136   0.944  0.0078 -0.9880  1.8172
34659SOL     OW 7507   4.824  10.643   2.583 -0.3220  0.3160  0.1798
34659SOL    HW1 7508   4.843  10.700   2.658  0.8625  0.1857 -0.0012
34659SOL    HW2 7509   4.891  10.665   2.519  0.0055 -1.0806  0.0011
34660SOL     OW 7510   8.764   3.435   1.251  0.1210 -0.3617  0.4379
34660SOL    HW1 7511   8.736   3.494   1.181  0.2745 -0.0453  0.6379
34660SOL    HW2 7512   8.709   3.459   1.326 -0.7026 -1.3410  0.1634
34661SOL     OW 7513   8.257   4.139   0.586  0.4060  0.0893  0.5606
34661SOL    HW1 7514   8.244   4.196   0.511 -0.4579  0.8719  1.2701
34661SOL    HW2 7515   8.347   4.108   0.578  0.4916  0.5703 -0.5032
34662SOL     OW 7516   4.479   0.953   0.006 -0.2249  0.4854  0.0075
34662SOL    HW1 7517   4.405   0.930   0.061  1.1203 -1.4855  1.1223
34662SOL    HW2 7518   4.471   0.895  -0.070  0.9931 -0.9582  0.9165
34663SOL     OW 7519  10.423   7.724   9.045 -0.0312  0.1544 -0.3006
34663SOL    HW1 7520  10.504   7.736   9.093 -0.3987  0.0098  0.3739
34663SOL    HW2 7521  10.367   7.796   9.073  0.8068  1.9266 -2.8835
34664SOL     OW 7522   0.262   6.330   6.712 -0.2924 -0.0570 -0.7788
34664SOL    HW1 7523   0.266   6.387   6.789  0.6177  0.0129 -0.8678
34664SOL    HW2 7524   0.311   6.252   6.738 -0.8321 -0.4580 -0.9463
34665SOL     OW 7525   7.682   2.549   3.168 -0.5246 -0.5237  0.3856
34665SOL    HW1 7526   7.698   2.634   3.209 -0.8017 -0.8931  1.2834
34665SOL    HW2 7527   7.715   2.485   3.231 -0.1306 -1.0832 -0.3696
34666SOL     OW 7528   9.366   3.375   8.484  0.0088 -0.2626  0.2222
34666SOL    HW1 7529   9.327   3.448   8.532 -2.4074 -1.7459  0.6750
34666SOL    HW2 7530   9.425   3.333   8.546  0.8709  0.8317  0.1793
34667SOL     OW 7531   2.575   2.258   5.334 -0.3379 -0.1958  0.1670
34667SOL    HW1 7532   2.509   2.315   5.373  0.7105  0.7662  0.5576
34667SOL    HW2 7533   2.546   2.169   5.357 -1.2282  0.2346  0.7512
34668SOL     OW 7534   2.535   4.240   4.125  0.6923  0.1284 -0.1276
34668SOL    HW1 7535   2.493   4.231   4.040  1.9145  1.3477 -0.9180
34668SOL    HW2 7536   2.591   4.163   4.133  0.1604 -0.2642 -0.1804
34669SOL     OW 7537   2.742   6.966   8.963 -0.1302  0.6995 -0.0247
34669SOL    HW1 7538   2.794   7.032   8.917 -0.7504  1.2508  0.0510
34669SOL    HW2 7539   2.799   6.890   8.968  0.8594  1.4535  0.4988
34670SOL     OW 7540   2.502   0.206   6.290  0.2577 -0.1435  0.3760
34670SOL    HW1 7541   2.549   0.142   6.342  0.1271 -0.8381 -0.3403
34670SOL    HW2 7542   2.525   0.186   6.199  1.3039  1.6917  0.1851
34671SOL     OW 7543   6.112   7.997  10.033 -0.4668 -0.2057  0.5869
34671SOL    HW1 7544   6.050   8.047  10.086  0.5870  0.3890  1.2931
34671SOL    HW2 7545   6.174   8.063  10.001  0.2761 -0.9036  0.5652
34672SOL     OW 7546  10.829   5.398   8.105  0.0861 -0.4844 -0.6633
34672SOL    HW1 7547  10.824   5.321   8.049 -1.5836 -0.0421 -1.1953
34672SOL    HW2 7548  10.750   5.393   8.159  2.1022 -1.4367  2.4722
34673SOL     OW 7549   6.277   1.581   7.116 -0.5907  0.2933  0.0754
34673SOL    HW1 7550   6.348   1.583   7.052 -0.2416  0.4937  0.4692
34673SOL    HW2 7551   6.233   1.665   7.105  1.5999  1.8926  2.4872
34674SOL     OW 7552   1.107   3.104   5.640 -0.5992  0.0369  0.0124
34674SOL    HW1 7553   1.107   3.027   5.584 -0.2861 -0.2233  0.3663
34674SOL    HW2 7554   1.043   3.163   5.600 -0.4186 -0.1660 -0.5861
34675SOL     OW 7555   0.632   9.007   0.833 -0.4488 -0.4198 -0.0702
34675SOL    HW1 7556   0.555   8.967   0.792 -0.4553 -0.2965 -0.1794
34675SOL    HW2 7557   0.659   9.075   0.772  0.3354 -1.1084 -0.5077
34676SOL     OW 7558   8.536   9.889   1.743  0.2400 -0.0045 -0.1124
34676SOL    HW1 7559   8.478   9.818   1.773 -0.9802  0.8570 -0.3676
34676SOL    HW2 7560   8.530   9.886   1.648  0.9807 -0.1891 -0.1582
34677SOL     OW 7561   9.689  10.913   3.650 -0.3051 -0.5457 -0.0578
34677SOL    HW1 7562   9.609  10.941   3.696  0.3590  0.0604  0.7564
34677SOL    HW2 7563   9.657  10.857   3.579 -1.5671  0.7854 -0.6025
34678SOL     OW 7564   6.218   7.886   3.307 -0.1923  0.0663 -0.0528
34678SOL    HW1 7565   6.256   7.945   3.372  0.0351  0.6913 -0.7307
34678SOL    HW2 7566   6.255   7.800   3.327  0.3584  0.3711  0.2599
34679SOL     OW 7567   9.496   4.562   8.756  0.3312  0.2241  0.7873
34679SOL    HW1 7568   9.518   4.625   8.687 -2.1463  0.7281  0.3795
34679SOL    HW2 7569   9.458   4.616   8.826 -0.7048 -0.6923  0.9478
34680SOL     OW 7570   6.893   6.367  10.256 -0.3959  0.1204  0.5039
34680SOL    HW1 7571   6.843   6.347  10.335 -0.6221  1.2707  0.6685
34680SOL    HW2 7572   6.854   6.448  10.223 -1.1699 -0.9925 -1.5120
34681SOL     OW 7573  10.717   3.279   8.941  0.2335 -0.1455 -0.5370
34681SOL    HW1 7574  10.702   3.373   8.952  0.4718 -0.0489 -0.9994
34681SOL    HW2 7575  10.630   3.240   8.950 -0.1322  0.2825 -1.9327
34682SOL     OW 7576   7.388   2.292   9.001 -0.1498 -0.5825 -0.1194
34682SOL    HW1 7577   7.396   2.298   8.906 -1.0892  0.8539 -0.1273
34682SOL    HW2 7578   7.308   2.241   9.016 -0.8216  0.4277 -0.1368
34683SOL     OW 7579   6.715  10.666   9.114 -0.3379  0.1870 -0.0454
34683SOL    HW1 7580   6.745  10.741   9.165  1.1546 -0.8196  0.6407
34683SOL    HW2 7581   6.793  10.637   9.065 -1.3156  0.1102 -1.6401
34684SOL     OW 7582   2.398   1.699   2.898  0.2947 -0.9457 -0.2943
34684SOL    HW1 7583   2.464   1.737   2.840 -1.1141 -0.1336 -1.4322
34684SOL    HW2 7584   2.375   1.616   2.857 -3.6198  1.3201 -3.4413
34685SOL     OW 7585   4.301  10.665   5.849 -0.2839 -0.0815  0.3792
34685SOL    HW1 7586   4.223  10.676   5.903 -0.3108  2.3064 -0.0556
34685SOL    HW2 7587   4.267  10.632   5.765 -0.6901 -0.0510  0.5283
34686SOL     OW 7588   8.826   1.535   1.650  0.3459  0.0090  0.8364
34686SOL    HW1 7589   8.914   1.569   1.666  0.5377  0.5829 -1.1654
34686SOL    HW2 7590   8.840   1.448   1.612  0.3160  1.5572 -3.1004
34687SOL     OW 7591   8.326   7.911   6.424 -0.2885  0.0487 -0.6444
34687SOL    HW1 7592   8.306   7.995   6.383 -0.9741 -0.6726 -1.8503
34687SOL    HW2 7593   8.360   7.934   6.511  1.1865  1.6331 -1.5648
34688SOL     OW 7594   8.948   1.777   0.412  0.0829 -0.8121  0.3932
34688SOL    HW1 7595   8.993   1.734   0.340  1.3001  2.4999 -0.9944
34688SOL    HW2 7596   9.016   1.797   0.476 -0.1593  0.3873  0.2946
34689SOL     OW 7597   6.580  11.047   5.671 -0.5625 -0.5049  0.2155
34689SOL    HW1 7598   6.659  10.996   5.690 -0.9590 -1.2851 -0.1729
34689SOL    HW2 7599   6.612  11.121   5.620 -0.0190 -0.5421  0.4870
34690SOL     OW 7600   4.446   2.654   4.454  0.6385  0.3118  0.2142
34690SOL    HW1 7601   4.384   2.587   4.482  0.3922  1.2184  2.0527
34690SOL    HW2 7602   4.393   2.732   4.439  1.0195  0.3508 -1.0653
34691SOL     OW 7603   2.324   3.210   0.766 -0.1773  0.4612  0.0225
34691SOL    HW1 7604   2.351   3.119   0.782  0.8832  0.5462 -1.1483
34691SOL    HW2 7605   2.238   3.202   0.723  0.5118 -0.0785 -1.3230
34692SOL     OW 7606  10.283   2.346   6.165 -0.2740 -0.1972  0.0571
34692SOL    HW1 7607  10.198   2.382   6.188 -0.2614 -0.3106  0.2834
34692SOL    HW2 7608  10.286   2.261   6.210  0.0722 -0.0716  0.2698
34693SOL     OW 7609   1.101   1.925  10.181 -0.1855  1.0723  0.0076
34693SOL    HW1 7610   1.078   2.014  10.207  0.6668  0.4969  3.1485
34693SOL    HW2 7611   1.064   1.869  10.249  1.1865 -0.7904 -0.6769
34694SOL     OW 7612   4.682   8.759   6.052 -0.4629 -1.0118  0.2450
34694SOL    HW1 7613   4.693   8.822   5.980  0.8533 -0.5016  0.8607
34694SOL    HW2 7614   4.747   8.690   6.033 -1.0338 -1.5607  0.2437
34695SOL     OW 7615   7.253   2.417   6.450  0.0775 -0.1261 -0.2775
34695SOL    HW1 7616   7.166   2.393   6.416 -0.2220  1.9897 -1.1914
34695SOL    HW2 7617   7.314   2.372   6.392 -0.4440  0.7327 -1.5429
34696SOL     OW 7618   4.950   0.023   0.748 -0.0322  0.2074 -0.3089
34696SOL    HW1 7619   4.930   0.006   0.656 -0.4592  1.2237 -0.4263
34696SOL    HW2 7620   4.882   0.085   0.775 -1.1378 -1.5738  1.2681
34697SOL     OW 7621   7.150   4.704   8.558 -0.0811 -0.1817  0.3240
34697SOL    HW1 7622   7.171   4.621   8.516  1.1334  0.6490 -0.7855
34697SOL    HW2 7623   7.075   4.685   8.614  0.8892 -2.2908  1.0029
34698SOL     OW 7624   5.843   3.379   5.279 -0.1273 -0.3264 -0.1591
34698SOL    HW1 7625   5.911   3.425   5.330  0.1444 -0.8946 -0.0031
34698SOL    HW2 7626   5.869   3.393   5.188 -0.0038 -0.2297 -0.1103
34699SOL     OW 7627  10.398   4.351   5.990 -0.8037 -0.3292  0.5779
34699SOL    HW1 7628  10.450   4.328   6.066  0.2933 -0.5265 -0.2128
34699SOL    HW2 7629  10.312   4.312   6.007  0.2177 -2.7733  0.4822
34700SOL     OW 7630   7.823   5.699   4.505 -0.8922 -0.3993 -0.5612
34700SOL    HW1 7631   7.842   5.780   4.458 -0.8654 -0.3439 -0.4535
34700SOL    HW2 7632   7.816   5.725   4.597 -0.2764 -0.6161 -0.4477
34701SOL     OW 7633   3.582  10.296  10.158 -0.5118 -0.3865  0.0900
34701SOL    HW1 7634   3.600  10.281  10.065  1.2396 -1.6565  0.5900
34701SOL    HW2 7635   3.586  10.209  10.198 -0.5050  0.2260  1.4704
34702SOL     OW 7636   6.731   8.128   5.553  0.4023  0.1215  0.2855
34702SOL    HW1 7637   6.818   8.166   5.547  0.4886 -0.2875 -1.5134
34702SOL    HW2 7638   6.709   8.134   5.646  2.2724  0.3715  0.7555
34703SOL     OW 7639   2.690   5.704   2.403  0.2858  0.2816  0.4729
34703SOL    HW1 7640   2.681   5.652   2.323 -1.3483  1.0043  0.1482
34703SOL    HW2 7641   2.630   5.662   2.465  0.4140  0.6262  0.8295
34704SOL     OW 7642   5.110   4.400   5.176 -0.1566  0.9444 -0.1313
34704SOL    HW1 7643   5.058   4.430   5.101 -1.7270  1.7907  1.2391
34704SOL    HW2 7644   5.148   4.479   5.213  0.2802  0.5809  0.2225
34705SOL     OW 7645   8.942   3.571  10.646  0.0150  0.3332  0.0604
34705SOL    HW1 7646   9.002   3.626  10.596 -0.7598  1.0859 -0.0699
34705SOL    HW2 7647   8.994   3.538  10.719  0.3352  1.8067  0.5340
34706SOL     OW 7648   2.878   8.661   4.095  0.7712  0.6917  0.2054
34706SOL    HW1 7649   2.791   8.696   4.077  0.4453 -0.5777 -0.8671
34706SOL    HW2 7650   2.899   8.606   4.019  2.5994  1.1193  0.3344
34707SOL     OW 7651   0.556   2.910   0.536  0.1627 -0.2869  0.3672
34707SOL    HW1 7652   0.604   2.925   0.455 -0.8921  1.2125 -0.0099
34707SOL    HW2 7653   0.567   2.817   0.553  0.2454 -0.6774 -1.5957
34708SOL     OW 7654   9.243   5.898   7.477  0.0911 -0.3775 -0.1225
34708SOL    HW1 7655   9.267   5.812   7.441 -1.1097 -0.6181 -0.3776
34708SOL    HW2 7656   9.315   5.955   7.451  0.0101 -0.8948 -1.5636
34709SOL     OW 7657   2.850   7.779   9.066  0.3659  0.1514 -0.0519
34709SOL    HW1 7658   2.833   7.717   9.137 -0.1062 -0.8564 -1.0210
34709SOL    HW2 7659   2.865   7.862   9.111 -2.5909  0.1573  1.1470
34710SOL     OW 7660   9.443   4.513   6.641 -0.3869  0.0991  0.2914
34710SOL    HW1 7661   9.518   4.460   6.668  0.5532  0.1660 -1.9555
34710SOL    HW2 7662   9.368   4.454   6.650  0.0447 -0.2914  1.6346
34711SOL     OW 7663   5.869   3.906   9.585 -0.5502 -0.2977 -0.4692
34711SOL    HW1 7664   5.910   3.857   9.513 -0.6693  0.4981 -1.0964
34711SOL    HW2 7665   5.926   3.981   9.599 -0.7146 -0.2620  0.0371
34712SOL     OW 7666   6.118   8.674  10.879 -0.4962 -0.3865 -0.3155
34712SOL    HW1 7667   6.179   8.606  10.907  0.0112  0.2690  0.1946
34712SOL    HW2 7668   6.158   8.756  10.908 -1.8547  0.0284  0.4447
34713SOL     OW 7669   1.934   7.212   8.895 -0.3487  0.1664 -0.1865
34713SOL    HW1 7670   1.929   7.308   8.901  1.6332  0.5188 -2.5511
34713SOL    HW2 7671   1.847   7.182   8.920 -0.9627  2.5517  0.8749
34714SOL     OW 7672   1.103   3.835   3.738  0.7667 -0.3941 -0.3241
34714SOL    HW1 7673   1.099   3.926   3.769  1.8175 -0.4532  0.0122
34714SOL    HW2 7674   1.040   3.788   3.793  2.0307 -0.3432  1.2487
34715SOL     OW 7675   6.225   6.557   7.503 -0.1503 -0.2225 -0.0976
34715SOL    HW1 7676   6.211   6.635   7.450 -0.3558 -0.4484 -0.3772
34715SOL    HW2 7677   6.257   6.491   7.441  0.0161 -0.3649  0.1356
34716SOL     OW 7678   0.424   1.750   4.370  0.0722 -0.7792  0.7047
34716SOL    HW1 7679   0.510   1.763   4.331  1.5089 -2.3529  3.1093
34716SOL    HW2 7680   0.410   1.829   4.424 -1.0024  0.4341 -1.2238
34717SOL     OW 7681   0.451  10.860  10.726 -0.2041  0.1633 -0.7171
34717SOL    HW1 7682   0.523  10.832  10.782 -0.5645  2.0278  0.8100
34717SOL    HW2 7683   0.477  10.947  10.695 -1.3676  0.4541 -0.9183
34718SOL     OW 7684   4.933   6.795   7.970  0.0207 -0.0469  0.1599
34718SOL    HW1 7685   4.891   6.851   7.904 -1.3432 -1.2738 -0.0527
34718SOL    HW2 7686   4.904   6.832   8.054  0.5724  0.6255  0.0647
34719SOL     OW 7687   8.081   4.216   3.274  0.6109  0.3919  0.6031
34719SOL    HW1 7688   8.118   4.179   3.193 -0.9492  0.9279 -0.4139
34719SOL    HW2 7689   8.018   4.150   3.303  0.0377  0.8841  0.4941
34720SOL     OW 7690   2.934   7.681   0.969  0.4585  0.0098  0.3433
34720SOL    HW1 7691   2.841   7.695   0.989  0.6198 -0.8558  1.8084
34720SOL    HW2 7692   2.943   7.586   0.962  1.3425  0.0580  0.7734
34721SOL     OW 7693   3.822   0.712   3.812  0.0370  0.3169  0.3187
34721SOL    HW1 7694   3.811   0.627   3.771 -0.4039  1.6325 -2.5539
34721SOL    HW2 7695   3.808   0.775   3.741 -0.4091  2.8223  2.4645
34722SOL     OW 7696   7.456  10.954   3.981 -0.1073  0.2740  0.3764
34722SOL    HW1 7697   7.550  10.963   3.995 -0.0890 -0.5080  0.8114
34722SOL    HW2 7698   7.448  10.929   3.889 -0.0470  2.4628 -0.2972
34723SOL     OW 7699   5.760   0.346   4.756  0.5450 -0.0755  0.2746
34723SOL    HW1 7700   5.724   0.282   4.817  2.6904  0.9528  2.7847
34723SOL    HW2 7701   5.804   0.293   4.690 -0.7001 -1.1950  0.2902
34724SOL     OW 7702   6.886   3.656   6.033  0.3249 -0.6019 -0.0867
34724SOL    HW1 7703   6.951   3.600   5.990  1.2872  1.2681 -1.2419
34724SOL    HW2 7704   6.925   3.743   6.031 -2.4323  0.7353 -1.3219
34725SOL     OW 7705   3.721   1.005   4.136 -0.6748  0.4103  0.9718
34725SOL    HW1 7706   3.737   1.047   4.052 -0.4199  0.3746  1.0031
34725SOL    HW2 7707   3.753   0.915   4.125  0.6814  0.8002  1.5572
34726SOL     OW 7708   8.722   9.256   3.863 -0.0048 -0.2636 -0.1766
34726SOL    HW1 7709   8.760   9.342   3.845 -0.4919  0.0557  0.3001
34726SOL    HW2 7710   8.797   9.202   3.889  0.5140 -0.3767 -1.8093
34727SOL     OW 7711   6.108   4.126   4.055 -0.0671  0.0129  0.7088
34727SOL    HW1 7712   6.027   4.089   4.091 -1.1238  1.7702  0.2575
34727SOL    HW2 7713   6.089   4.139   3.962  1.4186 -1.2296  0.1850
34728SOL     OW 7714   8.389   5.664   8.572  0.3771  0.0864 -0.2800
34728SOL    HW1 7715   8.345   5.646   8.489 -2.1979  0.2444  0.9513
34728SOL    HW2 7716   8.332   5.727   8.616  1.5051 -0.2247  1.7375
34729SOL     OW 7717   0.763   0.579   0.269 -0.1614  0.3825  0.3034
34729SOL    HW1 7718   0.668   0.593   0.272 -0.6633 -2.5275  0.0212
34729SOL    HW2 7719   0.784   0.545   0.356  0.0312 -1.9554 -0.5997
34730SOL     OW 7720  10.190  11.046   4.545  0.0105 -0.6497 -0.0619
34730SOL    HW1 7721  10.270  11.003   4.517  0.0331  0.5216 -1.9942
34730SOL    HW2 7722  10.139  11.058   4.465 -0.5171  1.7664  0.5306
34731SOL     OW 7723   0.017   4.518   3.345  0.0871 -0.7914 -0.6394
34731SOL    HW1 7724   0.093   4.530   3.289  1.4619  0.6789  1.3973
34731SOL    HW2 7725  -0.009   4.426   3.332  3.3110 -1.8921 -0.1386
34732SOL     OW 7726   8.612   4.636   6.836 -0.4040 -0.1156  0.0449
34732SOL    HW1 7727   8.572   4.667   6.755  1.9588  0.5088 -0.9777
34732SOL    HW2 7728   8.657   4.555   6.811  1.5489  0.8202  0.2874
34733SOL     OW 7729   8.549   4.701   5.792  0.4739 -0.2191 -0.1612
34733SOL    HW1 7730   8.631   4.710   5.840  1.1234 -0.1428 -1.2625
34733SOL    HW2 7731   8.574   4.702   5.700 -0.5937 -1.7425 -0.5105
34734SOL     OW 7732  10.735   0.310   3.741 -0.3526  0.2939  0.0917
34734SOL    HW1 7733  10.737   0.296   3.836 -0.3599 -1.5994 -0.1531
34734SOL    HW2 7734  10.644   0.298   3.717 -0.3477  0.7631 -0.1747
34735SOL     OW 7735  10.668   2.632   8.566 -0.0511 -0.3755 -0.1314
34735SOL    HW1 7736  10.724   2.710   8.561 -0.9496  0.3575  1.0263
34735SOL    HW2 7737  10.641   2.627   8.657  0.3995 -2.3603 -0.0646
34736SOL     OW 7738  10.751   7.903   8.141  0.5306  0.1945  0.2109
34736SOL    HW1 7739  10.681   7.945   8.092  1.8115  1.7550 -0.3441
34736SOL    HW2 7740  10.706   7.862   8.215 -0.9987  0.9070 -0.2776
34737SOL     OW 7741   8.753   8.124   4.652  0.4438  0.5164 -0.4409
34737SOL    HW1 7742   8.676   8.180   4.662 -0.4415 -0.6914 -0.3399
34737SOL    HW2 7743   8.805   8.142   4.730  1.3113  2.8373 -1.4435
34738SOL     OW 7744   5.000   6.589  10.708 -0.4236 -0.3340 -0.6195
34738SOL    HW1 7745   5.059   6.665  10.714 -0.7176 -0.0401 -1.3226
34738SOL    HW2 7746   4.917   6.620  10.742 -0.5709 -0.3066 -0.9960
34739SOL     OW 7747   8.059   9.136   1.484  0.1274 -0.4920  0.0164
34739SOL    HW1 7748   8.147   9.138   1.521 -0.6177 -2.3750  2.1732
34739SOL    HW2 7749   8.018   9.217   1.514  0.4137 -0.7129  1.0487
34740SOL     OW 7750   5.445   5.813   2.026 -0.0232  0.1624 -0.3548
34740SOL    HW1 7751   5.483   5.822   1.939 -1.6961  3.0063 -0.9045
34740SOL    HW2 7752   5.381   5.742   2.018  0.7359 -0.4592 -1.0510
34741SOL     OW 7753   0.291  10.431   9.739 -0.6196  0.1172  0.4375
34741SOL    HW1 7754   0.371  10.379   9.738  0.2196  1.3509 -1.0849
34741SOL    HW2 7755   0.230  10.384   9.682 -0.5069 -0.1373  0.5276
34742SOL     OW 7756   4.255   9.049   6.696 -0.6476  0.4034  0.4117
34742SOL    HW1 7757   4.252   8.978   6.631  0.5303 -0.2985  1.0971
34742SOL    HW2 7758   4.326   9.024   6.755 -0.6256  1.8593  1.0245
34743SOL     OW 7759   5.651   7.688   2.016  0.8498 -0.1534 -0.7040
34743SOL    HW1 7760   5.699   7.770   2.027 -1.2824  0.9822  1.1152
34743SOL    HW2 7761   5.641   7.655   2.105 -0.2206 -1.2389 -1.2044
34744SOL     OW 7762   2.647   8.627   0.689  0.1466  0.1089 -0.5528
34744SOL    HW1 7763   2.587   8.629   0.615 -0.1149  1.3345 -0.3387
34744SOL    HW2 7764   2.726   8.584   0.655 -1.0830 -2.2566 -0.6044
34745SOL     OW 7765   1.700   3.500   3.455  0.3615 -0.6211 -0.0891
34745SOL    HW1 7766   1.772   3.528   3.397 -0.2333 -1.2889 -1.1901
34745SOL    HW2 7767   1.739   3.500   3.543  1.5381 -0.3755 -0.5835
34746SOL     OW 7768   8.717   2.316   8.966  0.0019  0.2358 -0.1909
34746SOL    HW1 7769   8.658   2.374   9.014  1.8749 -0.4061  3.2493
34746SOL    HW2 7770   8.664   2.240   8.943 -1.2132  0.9686  0.1351
34747SOL     OW 7771   3.582   0.926   2.971 -0.8480 -0.0216 -0.2599
34747SOL    HW1 7772   3.631   0.954   3.049 -0.0902  0.1266 -0.7791
34747SOL    HW2 7773   3.560   1.008   2.926  0.2855 -0.1825 -1.1308
34748SOL     OW 7774   3.539   8.643   0.398 -0.0703 -0.6211  0.3147
34748SOL    HW1 7775   3.452   8.681   0.402  0.6043  0.9190  1.3666
34748SOL    HW2 7776   3.562   8.646   0.306 -1.3489 -1.6318 -0.0658
34749SOL     OW 7777   9.942   8.219   2.414  0.0285 -0.6359  0.1320
34749SOL    HW1 7778   9.914   8.146   2.359 -1.0605 -0.9941  1.1145
34749SOL    HW2 7779   9.991   8.177   2.485  1.2398 -0.1979 -0.4271
34750SOL     OW 7780   0.467   9.399   0.199  0.1742 -0.1271  0.0061
34750SOL    HW1 7781   0.534   9.366   0.259 -0.3760 -1.1915  0.0588
34750SOL    HW2 7782   0.421   9.466   0.249  0.0384 -0.6613  0.6097
34751SOL     OW 7783   4.251   7.686   7.622  0.2325 -0.6784  0.0168
34751SOL    HW1 7784   4.312   7.623   7.659  1.5432  1.5126  1.9201
34751SOL    HW2 7785   4.304   7.765   7.607 -1.6095  0.4906 -0.7378
34752SOL     OW 7786   5.347   0.452   2.905  0.0071  0.8138 -0.4474
34752SOL    HW1 7787   5.271   0.484   2.952 -0.4132  0.6727 -1.0253
34752SOL    HW2 7788   5.415   0.444   2.972 -0.2789  1.5984 -0.0527
34753SOL     OW 7789   7.454   4.766   0.975  0.5767  0.0520 -0.7793
34753SOL    HW1 7790   7.367   4.804   0.984 -0.5118 -2.3156 -0.5649
34753SOL    HW2 7791   7.480   4.786   0.885 -0.1507  0.7859 -0.8446
34754SOL     OW 7792   3.937   6.170   4.063  0.5530  0.2181  0.2774
34754SOL    HW1 7793   3.873   6.196   4.129  0.8977 -1.0860  1.1597
34754SOL    HW2 7794   4.022   6.186   4.105  0.7771 -0.5199  0.1180
34755SOL     OW 7795   8.794   3.045   9.934  0.0613  0.3107 -0.2772
34755SOL    HW1 7796   8.760   3.004  10.014 -0.0847  1.8970  0.5214
34755SOL    HW2 7797   8.864   2.986   9.905 -0.3318 -0.6391  0.6389
34756SOL     OW 7798   8.971  10.345   1.893 -0.1222  0.0151 -0.0722
34756SOL    HW1 7799   8.992  10.382   1.807 -0.8297 -1.8016 -1.1148
34756SOL    HW2 7800   8.891  10.294   1.877  0.4868 -1.4743  1.3293
34757SOL     OW 7801   3.133   3.349   7.959  0.3107 -0.3720 -0.4448
34757SOL    HW1 7802   3.086   3.361   7.876  0.7219  1.7731 -0.4370
34757SOL    HW2 7803   3.127   3.435   8.002  1.2840 -1.0499  1.1173
34758SOL     OW 7804  10.103   7.762   7.643 -0.7054 -0.4644  0.2981
34758SOL    HW1 7805  10.124   7.721   7.559  0.1530 -0.5523  0.5413
34758SOL    HW2 7806  10.169   7.727   7.703 -0.4715  0.6349  0.6970
34759SOL     OW 7807   3.845   3.920   0.641 -0.2925 -0.2996  0.4185
34759SOL    HW1 7808   3.937   3.895   0.653  0.0743  0.4170 -0.7143
34759SOL    HW2 7809   3.830   3.910   0.547 -1.4466 -0.6086  0.6279
34760SOL     OW 7810   6.073   3.737   9.449  0.4466  0.2553  0.4689
34760SOL    HW1 7811   6.057   3.652   9.490  0.8851  0.3561  0.8646
34760SOL    HW2 7812   6.074   3.719   9.355  0.5047 -0.1732  0.5501
34761SOL     OW 7813   2.526   1.877   1.250  0.3265  0.0534  0.8236
34761SOL    HW1 7814   2.481   1.812   1.196 -2.4885  0.8906  1.9269
34761SOL    HW2 7815   2.553   1.945   1.188  1.5722 -1.2219 -0.0821
34762SOL     OW 7816   6.959   5.771   9.936  0.2633 -0.0920 -0.1673
34762SOL    HW1 7817   6.893   5.724   9.885  0.7486 -0.6730 -0.2740
34762SOL    HW2 7818   6.908   5.825   9.997 -0.3114  0.0357 -0.7520
34763SOL     OW 7819   5.326   7.186   3.134  0.1492 -0.1542  0.0860
34763SOL    HW1 7820   5.368   7.211   3.217 -1.3812 -1.4262  1.3114
34763SOL    HW2 7821   5.304   7.094   3.146 -1.7715  0.1254 -1.0012
34764SOL     OW 7822   5.489   3.079   0.189  0.2371  0.1550 -0.4980
34764SOL    HW1 7823   5.455   3.167   0.205 -0.6099 -0.4427  1.1560
34764SOL    HW2 7824   5.584   3.091   0.183  0.1170  1.2077 -0.4596
34765SOL     OW 7825   5.734   0.379   8.866  0.2353  0.5552 -0.3933
34765SOL    HW1 7826   5.729   0.286   8.843 -1.4218  0.0997  1.4922
34765SOL    HW2 7827   5.824   0.391   8.894  0.5411 -0.4422 -0.8849
34766SOL     OW 7828   2.681   5.344   1.833 -0.2743  0.1331 -0.6144
34766SOL    HW1 7829   2.695   5.426   1.881  1.0127 -0.3903 -0.0410
34766SOL    HW2 7830   2.602   5.307   1.873  1.3016 -0.7887  1.9493
34767SOL     OW 7831   9.245   0.959   6.920 -0.1696 -0.0436  0.1798
34767SOL    HW1 7832   9.159   0.997   6.902  0.3007  1.4853  0.9428
34767SOL    HW2 7833   9.257   0.969   7.014 -0.2064 -2.6478  0.5375
34768SOL     OW 7834   0.255   8.528   1.518 -0.5830  0.6596  0.1368
34768SOL    HW1 7835   0.301   8.453   1.479 -1.2080  0.2727  0.1301
34768SOL    HW2 7836   0.179   8.489   1.562 -0.9829  1.3059  0.0316
34769SOL     OW 7837   0.508   6.694   3.608 -0.7196 -0.5256  0.4015
34769SOL    HW1 7838   0.459   6.697   3.526 -1.8614 -2.1938  0.9813
34769SOL    HW2 7839   0.540   6.604   3.614  0.5511 -0.0486  1.1195
34770SOL     OW 7840   4.072  10.056  10.826 -0.2460  0.1828 -0.7799
34770SOL    HW1 7841   4.113  10.101  10.900 -1.5602  1.6775 -0.8949
34770SOL    HW2 7842   4.145  10.032  10.769  0.7224 -0.2684  0.5799
34771SOL     OW 7843   5.993   5.536   7.408  0.6673  1.0171 -0.3368
34771SOL    HW1 7844   5.980   5.601   7.339  0.0964  1.7472  0.4237
34771SOL    HW2 7845   6.078   5.559   7.446  1.7297 -0.3614 -1.7830
34772SOL     OW 7846   2.060   2.522   8.169 -0.3899  0.3463 -0.9567
34772SOL    HW1 7847   2.086   2.592   8.229 -1.6190 -0.8374  1.0910
34772SOL    HW2 7848   2.140   2.501   8.120  0.3397  2.2114 -0.6614
34773SOL     OW 7849   0.754   2.919   1.090 -0.3783 -0.1828  0.5083
34773SOL    HW1 7850   0.814   2.963   1.029  1.6530 -0.2789  2.3346
34773SOL    HW2 7851   0.772   2.826   1.077  0.6526 -0.1781  1.7763
34774SOL     OW 7852   5.976   0.835   6.196 -0.2550 -0.0881  0.4136
34774SOL    HW1 7853   5.945   0.894   6.265  0.0595  1.4395 -0.6935
34774SOL    HW2 7854   6.053   0.879   6.160  0.0343 -1.2246 -0.4079
34775SOL     OW 7855   6.264   5.387   6.130  0.4701 -0.5450  0.2006
34775SOL    HW1 7856   6.188   5.354   6.179 -0.6591 -0.7417 -1.5765
34775SOL    HW2 7857   6.323   5.421   6.197 -1.0105 -0.7543  1.6797
34776SOL     OW 7858   2.273   1.670  11.068  0.3976 -0.1840 -0.3925
34776SOL    HW1 7859   2.179   1.665  11.051  0.2355  0.2100  0.3670
34776SOL    HW2 7860   2.305   1.582  11.049 -0.1314 -0.3304 -0.6164
34777SOL     OW 7861  10.903   8.413   2.301 -0.3079 -0.4857 -0.2120
34777SOL    HW1 7862  10.986   8.384   2.338 -0.1160 -1.6429 -1.4815
34777SOL    HW2 7863  10.919   8.418   2.207 -1.4661  0.0394 -0.4059
34778SOL     OW 7864   2.514   5.059   9.035  0.3402 -0.0824 -0.1727
34778SOL    HW1 7865   2.486   4.977   9.076 -1.1243  0.2051 -0.5555
34778SOL    HW2 7866   2.480   5.128   9.092  0.4281  0.2831 -0.5587
34779SOL     OW 7867  11.086   4.928   5.914 -0.5091 -0.2007 -0.3697
34779SOL    HW1 7868  11.150   4.998   5.923  1.3427 -1.5159 -2.4146
34779SOL    HW2 7869  11.079   4.912   5.820 -0.4768 -3.0316  0.0083
34780SOL     OW 7870   4.106   7.054   6.332  0.3292  0.0525 -0.0958
34780SOL    HW1 7871   4.154   7.069   6.413  0.4656  0.0658 -0.1783
34780SOL    HW2 7872   4.171   7.016   6.273 -0.0436 -1.0008  0.1524
34781SOL     OW 7873   7.411   9.942   7.979 -0.3417 -0.0135  0.3921
34781SOL    HW1 7874   7.478   9.999   7.941 -0.6616 -0.4170 -0.7883
34781SOL    HW2 7875   7.425   9.857   7.938 -2.0003  0.0643 -0.3859
34782SOL     OW 7876   9.610   0.278  10.492 -0.2839 -0.7795 -0.0226
34782SOL    HW1 7877   9.580   0.243  10.408 -1.8909  0.9786 -0.2583
34782SOL    HW2 7878   9.595   0.207  10.554  0.5286 -1.9605 -1.1312
34783SOL     OW 7879   3.335  10.192   2.007  0.3781  0.0692  0.1686
34783SOL    HW1 7880   3.357  10.156   1.921  0.3112 -0.1134  0.2270
34783SOL    HW2 7881   3.375  10.278   2.008  1.4016 -0.3943  0.4073
34784SOL     OW 7882   3.369   0.515   7.323  0.1686 -0.2756  0.6928
34784SOL    HW1 7883   3.464   0.502   7.315  0.3846  0.9960  0.9777
34784SOL    HW2 7884   3.355   0.526   7.417 -0.5455 -2.3057  0.8729
34785SOL     OW 7885   1.450   1.489   9.705 -0.3742  0.1395  0.0786
34785SOL    HW1 7886   1.368   1.532   9.729 -1.3017 -0.4627 -1.8332
34785SOL    HW2 7887   1.450   1.409   9.758 -1.6721 -0.4796 -0.8000
34786SOL     OW 7888   0.757   2.385   6.078 -0.0800  0.3425 -0.2877
34786SOL    HW1 7889   0.672   2.343   6.061 -1.0913  2.2335 -0.2242
34786SOL    HW2 7890   0.774   2.368   6.170 -0.8699  0.7012 -0.0618
34787SOL     OW 7891   7.751  10.725   8.915  0.4996  0.1878  0.5300
34787SOL    HW1 7892   7.695  10.735   8.838 -0.5036 -1.4077  1.0070
34787SOL    HW2 7893   7.792  10.811   8.926 -0.2794  0.8001 -1.0407
34788SOL     OW 7894   3.764   7.015   3.274  0.1582 -0.1154 -0.4860
34788SOL    HW1 7895   3.802   7.090   3.321 -0.6202  0.0372 -0.0858
34788SOL    HW2 7896   3.818   7.007   3.195  0.2695  0.8544 -0.5235
34789SOL     OW 7897   6.515   8.247  10.124  0.0553  0.1992 -0.3740
34789SOL    HW1 7898   6.500   8.214  10.213  1.7957 -0.8438 -0.4273
34789SOL    HW2 7899   6.600   8.290  10.129 -1.0993  2.6978 -0.8892
34790SOL     OW 7900   4.065   0.846  10.521  0.3102 -0.5967 -0.2156
34790SOL    HW1 7901   4.050   0.768  10.573 -1.0022 -0.7822 -0.8493
34790SOL    HW2 7902   4.101   0.814  10.439  1.6079 -0.3614  0.2267
34791SOL     OW 7903   5.021   5.168   5.883  0.4919 -0.0939  0.0670
34791SOL    HW1 7904   4.981   5.219   5.812  1.1144  1.2916  0.6720
34791SOL    HW2 7905   5.106   5.209   5.897  1.0439 -1.3681  0.5466
34792SOL     OW 7906   8.801  10.828   6.711  0.5130  0.5402 -0.0994
34792SOL    HW1 7907   8.729  10.878   6.673  0.5882  0.5505 -0.2288
34792SOL    HW2 7908   8.762  10.744   6.735  0.7503  0.0296 -1.4140
34793SOL     OW 7909   4.612   7.718   6.303 -0.1769  0.1356  0.1760
34793SOL    HW1 7910   4.620   7.793   6.244  0.5141 -0.4089 -0.4448
34793SOL    HW2 7911   4.534   7.672   6.273  0.3878 -0.3525 -0.5857
34794SOL     OW 7912   8.918   7.535   7.163 -0.1820 -0.1694  0.3619
34794SOL    HW1 7913   8.917   7.628   7.139  1.0961  0.5075  2.6464
34794SOL    HW2 7914   8.829   7.518   7.194 -0.7388 -0.0449 -1.0734
34795SOL     OW 7915   5.213   6.867   0.762  0.1196  0.0120 -0.0552
34795SOL    HW1 7916   5.138   6.829   0.716  0.8720 -0.5619 -0.8422
34795SOL    HW2 7917   5.185   6.956   0.784 -1.8329 -1.0272  2.1825
34796SOL     OW 7918   7.035   6.587   9.347  0.0561  0.8468  0.1522
34796SOL    HW1 7919   7.068   6.568   9.435  0.2414 -0.1393 -0.1201
34796SOL    HW2 7920   7.110   6.570   9.290 -1.2078 -2.9403 -0.6515
34797SOL     OW 7921   8.134   6.674  10.412  0.3712 -0.5857  0.0265
34797SOL    HW1 7922   8.085   6.704  10.336 -0.8807 -0.3570  0.8828
34797SOL    HW2 7923   8.207   6.623  10.376 -0.4508 -0.8688 -1.3046
34798SOL     OW 7924   0.397   7.226   4.374 -0.8456 -0.0224  0.1249
34798SOL    HW1 7925   0.372   7.135   4.355 -0.3382 -0.1119 -0.1288
34798SOL    HW2 7926   0.491   7.222   4.391 -0.2422  0.8242 -2.4885
34799SOL     OW 7927   3.319   9.758   3.495 -0.3157 -0.0854 -0.5862
34799SOL    HW1 7928   3.386   9.826   3.489 -0.0663 -0.2766 -0.0831
34799SOL    HW2 7929   3.240   9.798   3.458  0.1837 -0.0041 -1.5736
34800SOL     OW 7930   5.479   2.900   9.888 -0.5619 -0.6889  0.0391
34800SOL    HW1 7931   5.438   2.847   9.956 -2.8956 -0.1180 -0.8369
34800SOL    HW2 7932   5.498   2.984   9.931 -0.5160 -0.8818  0.3971
34801SOL     OW 7933   9.459   9.384   2.281 -0.1732  0.0531  0.0699
34801SOL    HW1 7934   9.410   9.350   2.206  0.5241  0.0729 -0.4104
34801SOL    HW2 7935   9.551   9.367   2.259  0.0081 -0.5267  1.2217
34802SOL     OW 7936   1.260   3.168   0.672  0.2688 -0.0588  0.4999
34802SOL    HW1 7937   1.225   3.208   0.592 -0.7511 -0.5985  0.6610
34802SOL    HW2 7938   1.226   3.079   0.671  0.5326 -0.1739  1.3706
34803SOL     OW 7939   6.513   5.810   3.712  0.2228  0.0111 -0.2321
34803SOL    HW1 7940   6.607   5.810   3.692  0.1869  0.3495 -0.4038
34803SOL    HW2 7941   6.478   5.736   3.661  0.6497 -1.1403  1.0925
34804SOL     OW 7942   7.175   4.895   9.757 -0.4023 -0.1564 -0.1610
34804SOL    HW1 7943   7.134   4.923   9.675 -0.5183  0.9668  0.2613
34804SOL    HW2 7944   7.268   4.911   9.744 -0.5168  0.9157  0.2495
34805SOL     OW 7945   2.907   0.497  11.049  0.2937  0.1236 -0.0070
34805SOL    HW1 7946   2.897   0.575  11.103  0.4076  1.2041 -1.5110
34805SOL    HW2 7947   2.996   0.500  11.017  1.0741 -1.8640  1.6923
34806SOL     OW 7948   5.262   8.802   1.596 -0.4937 -0.1473  0.3940
34806SOL    HW1 7949   5.245   8.708   1.596 -0.0831 -0.2234  0.7702
34806SOL    HW2 7950   5.179   8.841   1.567 -0.8564 -0.5879  0.8183
34807SOL     OW 7951   8.524   4.519   7.825  0.1037  0.7408  0.1086
34807SOL    HW1 7952   8.597   4.522   7.888  0.6792 -0.0166 -0.5034
34807SOL    HW2 7953   8.525   4.606   7.784 -0.8385  1.5764  1.7306
34808SOL     OW 7954   2.225   9.262   3.957  0.1426  0.3282  0.1983
34808SOL    HW1 7955   2.171   9.197   4.002 -1.3949  1.0612 -0.5007
34808SOL    HW2 7956   2.257   9.217   3.879  0.7852 -0.1855  0.7411
34809SOL     OW 7957   5.268   6.312   2.445 -1.0365  0.0112 -0.1714
34809SOL    HW1 7958   5.357   6.277   2.446 -1.0842 -0.1782  1.4937
34809SOL    HW2 7959   5.248   6.325   2.353  1.6154  2.4488 -0.5338
34810SOL     OW 7960  10.050   4.435  10.452 -0.2646 -0.5081 -0.4979
34810SOL    HW1 7961   9.982   4.380  10.491 -1.9457  1.1936 -0.8829
34810SOL    HW2 7962  10.098   4.471  10.527  0.0357 -1.4566 -0.2155
34811SOL     OW 7963   9.040   6.260   7.140  0.3165  0.3387 -0.0753
34811SOL    HW1 7964   9.093   6.338   7.152  0.3559  0.1201  1.3948
34811SOL    HW2 7965   9.057   6.232   7.050  2.1966  0.6427  0.1504
34812SOL     OW 7966   1.867   7.368  10.951 -0.0539 -0.1410 -0.7517
34812SOL    HW1 7967   1.777   7.336  10.952  0.0748 -0.8236 -3.5092
34812SOL    HW2 7968   1.886   7.381  10.858  2.5980  0.3064 -0.2027
34813SOL     OW 7969   5.298   5.794  10.581 -0.0294  0.4339  0.0547
34813SOL    HW1 7970   5.204   5.793  10.564 -0.4305 -0.4461  2.0365
34813SOL    HW2 7971   5.335   5.847  10.510 -1.8392 -0.3012 -1.5180
34814SOL     OW 7972   6.063   6.667   9.285  0.0343 -0.4517  0.1743
34814SOL    HW1 7973   6.084   6.608   9.212  0.3811 -0.1829  0.0500
34814SOL    HW2 7974   5.976   6.701   9.264 -0.2566 -1.0811  0.3550
34815SOL     OW 7975   4.009   8.508   4.983 -0.7336 -0.3202  0.0114
34815SOL    HW1 7976   3.934   8.516   4.924 -0.8479  0.4191  0.2396
34815SOL    HW2 7977   3.970   8.500   5.070 -0.5544 -0.5619  0.0698
34816SOL     OW 7978  10.985   9.238   9.811 -0.5217 -0.2963  0.0728
34816SOL    HW1 7979  10.956   9.273   9.726 -0.6809  2.0894  1.0372
34816SOL    HW2 7980  11.057   9.294   9.837 -1.2238 -0.2419  2.0544
34817SOL     OW 7981   9.930   2.343   8.738  0.0236  0.3808 -0.1439
34817SOL    HW1 7982   9.841   2.338   8.702 -0.0022  0.4406 -0.0885
34817SOL    HW2 7983   9.973   2.264   8.705  0.6961  1.5237 -2.1627
34818SOL     OW 7984   4.012   2.400   3.835 -0.0313  0.4527  0.0944
34818SOL    HW1 7985   3.970   2.316   3.822  0.5452  0.3114 -1.0651
34818SOL    HW2 7986   3.969   2.459   3.773 -0.2058  0.9388  0.6602
34819SOL     OW 7987   2.923   2.164   8.620  0.6082  0.4200 -0.2427
34819SOL    HW1 7988   2.958   2.083   8.581  1.2229  1.4391 -1.9021
34819SOL    HW2 7989   2.889   2.214   8.546  0.1454  1.6592  0.7682
34820SOL     OW 7990   6.568   0.197   2.863 -0.0223  0.9978  0.3460
34820SOL    HW1 7991   6.497   0.242   2.908 -1.6208 -2.1784  1.3370
34820SOL    HW2 7992   6.532   0.175   2.777 -0.7363 -1.4296  1.1778
34821SOL     OW 7993   5.114   4.364  10.875 -0.0594 -0.6102  0.2265
34821SOL    HW1 7994   5.067   4.444  10.850  1.2498 -0.0409 -0.5499
34821SOL    HW2 7995   5.115   4.365  10.970  1.1587  1.1082  0.2539
34822SOL     OW 7996   2.362   2.171   5.978  0.1920 -0.0147 -0.1202
34822SOL    HW1 7997   2.335   2.161   6.070  0.1039  0.5788 -0.0762
34822SOL    HW2 7998   2.446   2.126   5.973  0.2337  0.0131  0.2733
34823SOL     OW 7999   5.566   4.698   5.300 -0.0733  0.4348 -0.0526
34823SOL    HW1 8000   5.554   4.768   5.235 -1.8780  0.6972  0.5234
34823SOL    HW2 8001   5.533   4.735   5.381 -0.9690 -1.0354  0.2954
34824SOL     OW 8002   7.093   8.213   0.585  0.5867 -0.3997 -0.1420
34824SOL    HW1 8003   7.186   8.199   0.568  0.8675 -0.6887  1.4058
34824SOL    HW2 8004   7.086   8.305   0.609  1.0115 -0.9616  2.4791
34825SOL     OW 8005   5.526   5.511  10.861  0.1546 -0.3249 -0.3737
34825SOL    HW1 8006   5.541   5.543  10.772 -1.5493  0.7934 -0.3209
34825SOL    HW2 8007   5.610   5.522  10.906  0.4929  1.0699 -1.2811
34826SOL     OW 8008   2.197   6.065   0.927 -0.2785  0.2253 -0.5551
34826SOL    HW1 8009   2.180   5.976   0.958  0.4342  0.5490  0.8591
34826SOL    HW2 8010   2.144   6.074   0.847 -0.1210 -1.5538 -0.8845
34827SOL     OW 8011   0.260  10.477   0.070  0.3960  0.7756  0.4827
34827SOL    HW1 8012   0.201  10.408   0.038  1.7890 -0.2819  0.1114
34827SOL    HW2 8013   0.296  10.516  -0.009  1.1381  0.5522  0.6987
34828SOL     OW 8014  10.207   3.512   0.728  0.2430 -0.7112 -0.2176
34828SOL    HW1 8015  10.159   3.592   0.750 -1.9721 -2.1279  0.4480
34828SOL    HW2 8016  10.170   3.485   0.644  0.4259 -1.4539 -0.0607
34829SOL     OW 8017  10.115   8.690   6.140  0.0398 -0.4694 -0.1770
34829SOL    HW1 8018  10.065   8.615   6.172 -1.8005  1.0668  0.7494
34829SOL    HW2 8019  10.051   8.761   6.136  2.0785  1.5353  0.7368
34830SOL     OW 8020   2.079   6.858  11.062  0.5599 -0.2322  0.7577
34830SOL    HW1 8021   2.023   6.936  11.063 -1.9116 -1.8844 -0.2233
34830SOL    HW2 8022   2.041   6.801  11.129  0.4039 -1.8018 -0.6179
34831SOL     OW 8023   1.502   9.207   6.048  0.6124 -0.1930 -0.3809
34831SOL    HW1 8024   1.536   9.224   6.135 -0.4434 -1.7799  0.3884
34831SOL    HW2 8025   1.428   9.266   6.038  2.4367  2.0752 -1.4091
34832SOL     OW 8026   3.541   0.631   4.572 -0.1430 -0.2770  0.1602
34832SOL    HW1 8027   3.461   0.581   4.554  0.7024 -2.0245  0.9748
34832SOL    HW2 8028   3.572   0.658   4.486 -1.9111  1.0220 -0.1446
34833SOL     OW 8029   0.740  10.172   3.619  0.2833 -0.0747  0.0191
34833SOL    HW1 8030   0.695  10.127   3.548 -0.9399  0.3974  0.4790
34833SOL    HW2 8031   0.827  10.191   3.583  0.4310 -1.7368 -0.5794
34834SOL     OW 8032  10.087   3.851   3.479  0.0746  0.1976 -0.1289
34834SOL    HW1 8033  10.070   3.941   3.505  0.9071  0.7452 -1.4167
34834SOL    HW2 8034  10.140   3.857   3.401  0.2933 -1.4250 -0.1567
34835SOL     OW 8035   5.847   0.889   3.585 -0.4685 -0.1082 -0.8263
34835SOL    HW1 8036   5.891   0.854   3.508  0.0231 -1.2675 -0.0510
34835SOL    HW2 8037   5.777   0.944   3.550  0.3665  0.2017 -2.0827
34836SOL     OW 8038   1.283   5.039   8.848 -0.3076 -0.0505 -0.2466
34836SOL    HW1 8039   1.198   5.081   8.835 -0.2327  0.3030  0.3745
34836SOL    HW2 8040   1.346   5.099   8.807 -0.2478  0.2383  0.2551
34837SOL     OW 8041   0.032  10.891   5.143 -0.2057 -0.8103 -0.4747
34837SOL    HW1 8042   0.121  10.867   5.169 -0.1386 -0.0330  0.0171
34837SOL    HW2 8043  -0.019  10.883   5.223 -0.3095  0.0601 -0.4476
34838SOL     OW 8044   9.708   4.251   8.434 -0.1735  0.0163 -0.5405
34838SOL    HW1 8045   9.772   4.321   8.452  1.0249 -0.8576 -1.2684
34838SOL    HW2 8046   9.637   4.295   8.388  0.6896  0.7339 -1.2416
34839SOL     OW 8047   6.151   3.486  10.382  0.6313 -0.2660 -0.6981
34839SOL    HW1 8048   6.121   3.505  10.471 -2.4598  3.7204 -2.2949
34839SOL    HW2 8049   6.200   3.565  10.356  0.0564 -0.6067 -3.0271
34840SOL     OW 8050   7.631  10.676   1.122  0.1896  0.0073 -0.5356
34840SOL    HW1 8051   7.550  10.627   1.114 -0.1454  0.8114 -4.6717
34840SOL    HW2 8052   7.610  10.750   1.179 -0.8226 -1.6569  1.3719
34841SOL     OW 8053   5.772   7.530  10.099 -0.7266  0.2254 -0.2432
34841SOL    HW1 8054   5.714   7.559  10.170 -0.9436 -0.1448 -0.2691
34841SOL    HW2 8055   5.854   7.508  10.142  1.2383  5.3441 -0.6070
34842SOL     OW 8056   9.275   4.531   8.570 -0.1134 -0.1492  0.0018
34842SOL    HW1 8057   9.355   4.503   8.616  0.0704 -1.4098 -1.0192
34842SOL    HW2 8058   9.307   4.573   8.490 -0.4357  1.8205  0.8570
34843SOL     OW 8059  10.239   4.133   5.361 -0.7955 -0.1326 -0.1807
34843SOL    HW1 8060  10.209   4.101   5.446  1.5331  0.4824  0.9762
34843SOL    HW2 8061  10.219   4.227   5.362 -1.5493 -0.2787 -0.7086
34844SOL     OW 8062   0.967   4.186   2.315  0.3314  0.2838  0.5861
34844SOL    HW1 8063   0.938   4.111   2.264  3.4630 -0.1148 -0.8207
34844SOL    HW2 8064   0.886   4.224   2.349 -1.5245 -2.3913 -0.4710
34845SOL     OW 8065   3.444   6.647   5.842  0.3009 -0.2451 -0.2369
34845SOL    HW1 8066   3.538   6.631   5.850  0.0831 -1.1391  0.7132
34845SOL    HW2 8067   3.408   6.564   5.811  0.0007  0.5573 -2.1251
34846SOL     OW 8068   6.261   8.878  10.296 -0.2726  0.1665 -0.6100
34846SOL    HW1 8069   6.255   8.962  10.343  0.4290 -0.1715  0.1188
34846SOL    HW2 8070   6.176   8.837  10.310  0.8061 -1.2758  3.0948
34847SOL     OW 8071   1.893   8.949   1.833 -0.3335 -0.0807  0.7254
34847SOL    HW1 8072   1.923   8.897   1.907 -0.9187  1.4107  2.0646
34847SOL    HW2 8073   1.846   9.023   1.872 -0.6197  0.7876 -1.1232
34848SOL     OW 8074  11.003   3.588   4.626 -0.2084  0.4014 -0.7923
34848SOL    HW1 8075  11.045   3.504   4.640 -0.5329  0.1245 -1.4246
34848SOL    HW2 8076  11.070   3.653   4.647 -0.0813 -0.0007  0.0918
34849SOL     OW 8077   6.466   1.347   9.974 -0.3511 -0.1492  0.2136
34849SOL    HW1 8078   6.478   1.431  10.019  2.4575  0.6158 -1.6924
34849SOL    HW2 8079   6.552   1.304   9.980 -1.1037 -1.8953 -0.7568
34850SOL     OW 8080   0.931   4.463   5.137 -0.4041 -0.6267 -0.4942
34850SOL    HW1 8081   0.916   4.558   5.131  1.4685 -0.3756 -2.1790
34850SOL    HW2 8082   0.952   4.437   5.047  0.8432 -2.3212  0.2443
34851SOL     OW 8083   1.680   7.665   7.009  0.0262  0.7054  0.6604
34851SOL    HW1 8084   1.589   7.650   7.034  0.0708 -0.1775  0.2989
34851SOL    HW2 8085   1.732   7.622   7.077  0.1527 -0.6638 -0.2703
34852SOL     OW 8086   5.342   1.415  10.741 -0.5550 -0.0405 -0.3987
34852SOL    HW1 8087   5.437   1.411  10.735 -0.3914 -1.5511  2.0147
34852SOL    HW2 8088   5.315   1.325  10.760 -2.3739  0.5312 -0.0885
34853SOL     OW 8089   0.066   5.499   3.880  0.3370 -0.1994 -1.0048
34853SOL    HW1 8090   0.031   5.561   3.816  0.5836  3.7405  2.2182
34853SOL    HW2 8091   0.150   5.537   3.907 -0.0921 -1.1579  2.1156
34854SOL     OW 8092   0.455   3.151   2.781 -0.1324 -0.2687 -0.0175
34854SOL    HW1 8093   0.518   3.183   2.846  1.0227  0.2946 -1.3495
34854SOL    HW2 8094   0.377   3.130   2.832  0.6235  0.4059  1.5098
34855SOL     OW 8095   9.712   9.859   5.407 -0.6327  0.1452 -0.2741
34855SOL    HW1 8096   9.620   9.884   5.399 -0.5784  0.1557 -0.9754
34855SOL    HW2 8097   9.742   9.849   5.316  0.2176  0.7578 -0.0779
34856SOL     OW 8098   5.879   2.139   3.104  0.1283 -0.2875 -0.3187
34856SOL    HW1 8099   5.923   2.219   3.134  0.1818 -0.4268 -0.0185
34856SOL    HW2 8100   5.818   2.169   3.037  0.7925 -0.1134 -0.8523
34857SOL     OW 8101   2.971   8.241   5.814 -0.2558  0.5656 -0.1929
34857SOL    HW1 8102   2.911   8.297   5.863 -2.2034  0.3666 -2.1898
34857SOL    HW2 8103   2.988   8.288   5.733  1.7478  0.2539 -0.0146
34858SOL     OW 8104   0.852   3.012   4.151  0.2659  0.3983  0.1082
34858SOL    HW1 8105   0.936   3.057   4.166  0.4360  0.0676  0.1551
34858SOL    HW2 8106   0.789   3.062   4.202  0.5309  0.3209  0.5160
34859SOL     OW 8107   1.685   8.230   7.308 -0.2684 -0.7729 -0.0728
34859SOL    HW1 8108   1.710   8.141   7.335 -0.0217 -0.3903  1.0536
34859SOL    HW2 8109   1.664   8.222   7.215 -2.6394 -2.5079  0.5087
34860SOL     OW 8110   1.755   0.441   0.002  0.3600 -0.2424 -0.0309
34860SOL    HW1 8111   1.724   0.402   0.084  2.2749 -1.9901 -0.0438
34860SOL    HW2 8112   1.823   0.381  -0.029 -1.0884 -0.3009 -3.5666
34861SOL     OW 8113   3.657   0.750   6.291 -0.1328 -0.4613  0.0278
34861SOL    HW1 8114   3.610   0.796   6.360  0.5722  1.4409 -0.7041
34861SOL    HW2 8115   3.750   0.766   6.310  0.0641  0.1730 -1.3906
34862SOL     OW 8116   2.343   9.029   0.770  0.0420 -0.0035 -0.5212
34862SOL    HW1 8117   2.300   8.956   0.814  0.0938  0.1670 -0.1882
34862SOL    HW2 8118   2.377   8.992   0.689 -0.2829 -0.2584 -0.5418
34863SOL     OW 8119   6.582   2.917   0.778  1.1390  0.2360  0.1128
34863SOL    HW1 8120   6.575   3.010   0.760  2.4232  0.3445  0.0503
34863SOL    HW2 8121   6.580   2.876   0.691 -0.1656  0.1181  0.1726
34864SOL     OW 8122   0.068  11.079   4.876 -0.5949  0.2014  0.0466
34864SOL    HW1 8123   0.095  11.039   4.959  2.1589  0.0047 -0.8520
34864SOL    HW2 8124   0.101  11.019   4.809 -0.7709  1.4961 -1.2364
34865SOL     OW 8125  10.182   8.972   1.921 -0.0431 -0.0601 -0.0283
34865SOL    HW1 8126  10.162   9.012   2.005  0.0122 -3.0346  1.5014
34865SOL    HW2 8127  10.270   8.937   1.931  0.5414  0.7687 -1.8628
34866SOL     OW 8128   1.353   5.160   8.157 -0.4963  0.8133  0.7746
34866SOL    HW1 8129   1.322   5.072   8.177  0.0582  0.4735  0.1770
34866SOL    HW2 8130   1.367   5.160   8.062  0.7283  1.1375  0.9355
34867SOL     OW 8131   0.740   6.298   5.839  0.0552  0.3342  0.1973
34867SOL    HW1 8132   0.788   6.381   5.840 -1.4726  1.2829 -1.0417
34867SOL    HW2 8133   0.672   6.309   5.906  1.1768 -0.8362  1.6271
34868SOL     OW 8134   8.564   6.229   9.262 -0.2774  0.7275  0.2067
34868SOL    HW1 8135   8.564   6.173   9.184  2.1925 -0.3632  0.9010
34868SOL    HW2 8136   8.552   6.167   9.335  2.6919  0.9521  1.0090
34869SOL     OW 8137   9.393   4.538   3.214  0.3877  0.3839  0.3356
34869SOL    HW1 8138   9.406   4.571   3.303 -0.0412 -0.6802  0.8234
34869SOL    HW2 8139   9.305   4.568   3.190  0.5725  0.8181  0.2077
34870SOL     OW 8140   6.617   5.313   6.823 -0.3810 -0.2740 -0.8563
34870SOL    HW1 8141   6.687   5.251   6.844  1.1048  1.1627 -1.3248
34870SOL    HW2 8142   6.598   5.298   6.731 -1.2360 -1.1668 -0.5449
34871SOL     OW 8143   0.887   0.579   5.949 -0.5713  0.2007  0.1079
34871SOL    HW1 8144   0.875   0.514   5.880 -2.2848  0.8987 -0.2904
34871SOL    HW2 8145   0.955   0.542   6.004  0.8287 -0.4181 -1.8994
34872SOL     OW 8146   4.450   8.582   2.424  0.5068  0.4498  0.2035
34872SOL    HW1 8147   4.469   8.657   2.480  0.7429  1.3607 -1.0418
34872SOL    HW2 8148   4.535   8.555   2.390  0.2812  0.4371 -0.3573
34873SOL     OW 8149   1.054   7.537   6.996  0.3236 -0.0109  1.1058
34873SOL    HW1 8150   1.034   7.606   7.059  0.2464  1.8024 -0.7611
34873SOL    HW2 8151   0.969   7.501   6.970 -0.1909  2.6177 -1.4122
34874SOL     OW 8152  10.244   3.829   5.499 -0.2791 -1.0244 -0.1610
34874SOL    HW1 8153  10.190   3.756   5.470 -3.1280  1.4100 -1.6249
34874SOL    HW2 8154  10.281   3.865   5.418  0.7179 -0.5746  0.4812
34875SOL     OW 8155   3.716   9.712   6.176  0.1538 -0.2486  0.0474
34875SOL    HW1 8156   3.754   9.637   6.221  2.9566  0.6578 -0.6302
34875SOL    HW2 8157   3.698   9.775   6.247  0.9035 -0.3130  0.3050
34876SOL     OW 8158   1.818   2.372   0.211 -0.5041 -0.5071  0.4064
34876SOL    HW1 8159   1.909   2.342   0.210  0.7568  2.8717 -0.4381
34876SOL    HW2 8160   1.772   2.311   0.155  1.6752 -1.2612 -0.6715
34877SOL     OW 8161   5.769   1.540   4.137  0.0779 -0.2576  0.0452
34877SOL    HW1 8162   5.713   1.603   4.094  1.6976  0.1665 -1.5351
34877SOL    HW2 8163   5.776   1.572   4.227 -0.8832  0.5484 -0.1450
34878SOL     OW 8164  10.477   4.987   6.343 -0.6567 -0.7192 -0.4452
34878SOL    HW1 8165  10.446   4.910   6.294 -0.2868 -0.9335 -0.3514
34878SOL    HW2 8166  10.457   5.061   6.286 -0.1106 -0.9791 -0.9882
34879SOL     OW 8167   8.153   6.303  11.018 -0.1468  0.3440 -0.2383
34879SOL    HW1 8168   8.214   6.296  10.945  0.2040  0.5682  0.0295
34879SOL    HW2 8169   8.205   6.280  11.095 -0.7343 -0.7352 -0.1510
34880SOL     OW 8170   5.837   2.740   1.637 -0.5099 -0.3043 -0.1391
34880SOL    HW1 8171   5.761   2.682   1.642 -0.0633 -0.7810  2.3865
34880SOL    HW2 8172   5.898   2.704   1.702  0.2856  2.2946  0.6606
34881SOL     OW 8173   8.774  10.054   2.185 -0.2444 -0.2185 -0.0892
34881SOL    HW1 8174   8.765  10.107   2.106  1.3240  0.6609  0.2882
34881SOL    HW2 8175   8.788  10.117   2.255  1.5807 -1.0940  0.3872
34882SOL     OW 8176   8.435   6.178   5.583 -0.2241  0.6061 -0.5333
34882SOL    HW1 8177   8.433   6.082   5.583 -0.9950  0.6166 -0.5459
34882SOL    HW2 8178   8.350   6.204   5.618  0.0443  1.2904 -0.3664
34883SOL     OW 8179   4.065   2.460   9.630  0.4561 -0.3151  0.2082
34883SOL    HW1 8180   4.110   2.472   9.546  1.5716 -1.7404  0.5626
34883SOL    HW2 8181   4.033   2.370   9.627 -2.2701  0.5710  0.0715
34884SOL     OW 8182   0.422   3.467   5.134  0.1751 -0.2595 -0.2509
34884SOL    HW1 8183   0.448   3.546   5.087 -0.0313  0.6264  1.0839
34884SOL    HW2 8184   0.365   3.420   5.073 -0.8959  1.3484 -0.5325
34885SOL     OW 8185  10.056   4.084  10.507 -0.2432  0.2961 -0.0194
34885SOL    HW1 8186  10.139   4.128  10.526 -0.7833  1.2829  0.1345
34885SOL    HW2 8187  10.070   4.043  10.422  0.6207 -0.1132  0.3108
34886SOL     OW 8188   8.970   1.757   4.663 -0.0353  0.1141  0.1552
34886SOL    HW1 8189   9.051   1.791   4.625 -0.0517  0.4089  0.3741
34886SOL    HW2 8190   8.912   1.833   4.667 -0.4198 -0.1563 -0.2531
34887SOL     OW 8191   1.803   1.090   0.283 -0.5333 -0.6910  0.6086
34887SOL    HW1 8192   1.880   1.106   0.338 -0.3682 -0.6867  0.3787
34887SOL    HW2 8193   1.737   1.150   0.318 -0.6103 -1.0885  1.1627
34888SOL     OW 8194   2.117   5.316   5.029 -0.1841 -0.1581  0.0425
34888SOL    HW1 8195   2.051   5.249   5.009 -0.1005 -0.2098 -0.0592
34888SOL    HW2 8196   2.125   5.367   4.948  0.9231 -1.0201 -0.4187
34889SOL     OW 8197   5.450   9.215   4.109  0.3958  0.5081 -0.3457
34889SOL    HW1 8198   5.523   9.189   4.165 -0.5081 -0.1680  0.5543
34889SOL    HW2 8199   5.391   9.140   4.110 -0.2284  0.9699 -1.2136
34890SOL     OW 8200   9.529   2.999   6.922  0.3139  0.4703  0.3121
34890SOL    HW1 8201   9.587   3.028   6.851 -0.3213 -1.4488 -1.0771
34890SOL    HW2 8202   9.576   2.926   6.963  0.4443  1.2385  1.5923
34891SOL     OW 8203   4.522   3.395  10.264  0.1784 -0.3113  0.0939
34891SOL    HW1 8204   4.566   3.455  10.205 -0.5515 -0.2251 -0.3712
34891SOL    HW2 8205   4.465   3.342  10.208  1.2341 -1.8573  0.3992
34892SOL     OW 8206   4.403  11.041   2.376  0.6656  0.1702  0.2128
34892SOL    HW1 8207   4.448  10.959   2.393 -0.2376 -0.1893  0.9550
34892SOL    HW2 8208   4.374  11.035   2.285  0.8807 -0.1968  0.1701
34893SOL     OW 8209   8.578   2.485   7.078 -0.3926  0.7538  0.9912
34893SOL    HW1 8210   8.621   2.571   7.077 -0.2253  0.6614  0.3122
34893SOL    HW2 8211   8.621   2.438   7.150  1.9778 -0.0021 -0.7731
34894SOL     OW 8212   2.554   4.192   7.684  0.0797  0.4616 -0.2172
34894SOL    HW1 8213   2.557   4.153   7.772 -1.3552  2.8435  1.0047
34894SOL    HW2 8214   2.483   4.145   7.640  0.5175 -0.4616  0.0299
34895SOL     OW 8215   0.257   4.366   2.729  0.1976 -0.5047 -0.2217
34895SOL    HW1 8216   0.320   4.406   2.790  0.0225 -1.3940  0.5794
34895SOL    HW2 8217   0.311   4.340   2.654  0.9307 -1.7729  0.6977
34896SOL     OW 8218   6.956   5.111   3.880  0.2143 -0.1137  0.0121
34896SOL    HW1 8219   6.949   5.202   3.909 -0.3055 -0.5267  1.2441
34896SOL    HW2 8220   7.030   5.111   3.819  1.2401  0.8427  1.2067
34897SOL     OW 8221   2.962   6.308   1.636  0.3400 -0.7138 -0.1336
34897SOL    HW1 8222   3.003   6.312   1.723  0.3748 -1.8859 -0.0748
34897SOL    HW2 8223   2.870   6.290   1.654 -0.4533  2.5891 -0.2391
34898SOL     OW 8224   9.752  10.505   8.841  0.4937 -0.3326 -0.3960
34898SOL    HW1 8225   9.817  10.470   8.902 -1.5980 -1.3863  1.3070
34898SOL    HW2 8226   9.687  10.436   8.832 -0.8687  1.0261 -1.3777
34899SOL     OW 8227   9.664   2.875   6.617  0.3793  0.1246  0.5188
34899SOL    HW1 8228   9.732   2.810   6.631  0.7797  0.1745 -0.9936
34899SOL    HW2 8229   9.616   2.844   6.540 -1.3088  0.1098  1.5311
34900SOL     OW 8230   2.117   7.024   6.076  0.1907  0.1194  0.0464
34900SOL    HW1 8231   2.025   7.000   6.060  0.0878  1.0452 -0.8397
34900SOL    HW2 8232   2.132   7.100   6.020  1.4275  0.1536  0.3986
34901SOL     OW 8233  11.100   9.155   2.343 -0.3121  0.2281 -0.1700
34901SOL    HW1 8234  11.140   9.097   2.278 -1.5156  0.2550 -0.9830
34901SOL    HW2 8235  11.095   9.102   2.423 -0.7908 -0.5735 -0.7163
34902SOL     OW 8236   3.661   3.974   7.787  0.1696 -0.0725  0.1167
34902SOL    HW1 8237   3.748   3.972   7.825 -0.3485 -0.2218  1.3307
34902SOL    HW2 8238   3.676   3.971   7.692  1.4613 -0.3185  0.3143
34903SOL     OW 8239   0.775   9.717   2.190  0.8098  0.1383  0.4266
34903SOL    HW1 8240   0.803   9.787   2.131  0.5551  0.6623  0.9113
34903SOL    HW2 8241   0.724   9.762   2.258 -1.3490 -0.7670 -0.4801
34904SOL     OW 8242   2.426   7.566   7.092 -0.0836 -0.6329 -0.1849
34904SOL    HW1 8243   2.436   7.661   7.095  1.4146 -0.7842  1.3411
34904SOL    HW2 8244   2.333   7.551   7.103 -0.3776  0.6610 -0.7455
34905SOL     OW 8245  10.511   4.302   3.259 -0.4144 -0.1331 -0.7711
34905SOL    HW1 8246  10.448   4.338   3.322  0.7754  1.2851 -0.3316
34905SOL    HW2 8247  10.494   4.352   3.179 -1.7154 -1.7175 -1.5522
34906SOL     OW 8248  10.684  10.505   7.991 -0.1561 -0.2883  0.5715
34906SOL    HW1 8249  10.600  10.466   8.015 -0.5438 -0.1696 -0.5277
34906SOL    HW2 8250  10.731  10.434   7.945  0.3010 -0.3162  1.0702
34907SOL     OW 8251   2.521   6.878  10.523 -0.0472  0.3668 -0.5667
34907SOL    HW1 8252   2.608   6.842  10.544 -0.9885 -0.7188  1.8363
34907SOL    HW2 8253   2.466   6.801  10.512 -1.0009  1.0668 -0.7911
34908SOL     OW 8254   7.646   8.453   4.001  0.2242 -0.3799  0.3091
34908SOL    HW1 8255   7.642   8.368   4.045  1.2124  1.2080  3.8815
34908SOL    HW2 8256   7.739   8.466   3.984  0.4620  0.9471  2.2233
34909SOL     OW 8257  10.946   4.565   2.774 -0.8183  0.3787  0.5770
34909SOL    HW1 8258  10.993   4.492   2.732  1.3599  0.9004  1.9581
34909SOL    HW2 8259  10.854   4.543   2.762 -0.2565 -2.2828  0.3515
34910SOL     OW 8260   1.730  10.302   7.728  0.0258 -0.0817  0.4533
34910SOL    HW1 8261   1.651  10.350   7.704 -1.5827 -2.3803  0.8227
34910SOL    HW2 8262   1.764  10.348   7.804 -0.7910  1.1210  0.1231
34911SOL     OW 8263   9.317   0.326   6.875  0.6487 -0.0562  0.6328
34911SOL    HW1 8264   9.285   0.329   6.785 -1.7418  0.8632  1.4171
34911SOL    HW2 8265   9.297   0.236   6.904 -1.6637  0.5524  1.1704
34912SOL     OW 8266  10.769   4.122   7.739  0.0538 -0.1988  0.2506
34912SOL    HW1 8267  10.859   4.126   7.770 -0.0957 -2.9588  1.2815
34912SOL    HW2 8268  10.719   4.087   7.813 -2.1137  2.1793  0.0623
34913SOL     OW 8269   5.788   9.564   2.896  0.1715 -0.8305  0.1852
34913SOL    HW1 8270   5.694   9.569   2.880  0.1728 -0.2324  0.3543
34913SOL    HW2 8271   5.827   9.549   2.809 -0.0576 -0.7929  0.0766
34914SOL     OW 8272   1.166   5.114   1.855  0.1373 -0.2054  0.1549
34914SOL    HW1 8273   1.231   5.167   1.808 -1.2357  0.1448 -1.4392
34914SOL    HW2 8274   1.115   5.178   1.904  0.1558 -0.3414  0.3516
34915SOL     OW 8275   6.971   4.454   0.869 -0.1486 -0.1626 -0.2256
34915SOL    HW1 8276   7.003   4.423   0.954  1.5015  0.9084 -0.3985
34915SOL    HW2 8277   7.051   4.480   0.822 -1.1671  0.9417 -1.4170
34916SOL     OW 8278   5.290   4.144   6.416  0.2422  0.0483  0.2857
34916SOL    HW1 8279   5.287   4.114   6.326 -0.0316  1.8435 -0.3336
34916SOL    HW2 8280   5.379   4.123   6.445  0.2664 -0.7170 -0.3025
34917SOL     OW 8281   7.170   9.031   2.934 -0.0833  1.2826  0.2182
34917SOL    HW1 8282   7.188   8.946   2.974 -0.6426  0.8885 -0.3587
34917SOL    HW2 8283   7.150   9.088   3.008  0.2112  0.8952  0.6025
34918SOL     OW 8284   3.755   0.450   3.743 -0.6947 -0.2227 -0.5513
34918SOL    HW1 8285   3.740   0.451   3.838 -1.1479  0.1320 -0.6237
34918SOL    HW2 8286   3.705   0.375   3.711 -1.5381  0.3734 -0.6625
34919SOL     OW 8287   6.609   2.018  10.363 -0.5104 -0.0936  0.0655
34919SOL    HW1 8288   6.699   2.047  10.374 -0.0572 -1.8432  1.4229
34919SOL    HW2 8289   6.559   2.098  10.349  0.9795  1.0795  1.1897
34920SOL     OW 8290   9.249   4.264   1.765  0.2931 -0.2863 -0.1272
34920SOL    HW1 8291   9.258   4.177   1.726 -0.9994 -0.6284  0.2782
34920SOL    HW2 8292   9.167   4.298   1.729  0.8646  0.8525 -0.4152
34921SOL     OW 8293   3.157   2.300   2.847 -0.1615  0.0993 -0.0797
34921SOL    HW1 8294   3.195   2.237   2.786 -0.1467 -0.6679  0.7019
34921SOL    HW2 8295   3.228   2.324   2.905 -0.1160  1.0113 -0.4843
34922SOL     OW 8296   8.565   6.115   6.523 -0.5738  0.4232  0.2263
34922SOL    HW1 8297   8.610   6.127   6.607 -0.5796 -0.4512  0.3593
34922SOL    HW2 8298   8.600   6.185   6.467 -1.0416  1.4203  1.1417
34923SOL     OW 8299   1.981   8.569   7.349 -0.2796  0.3346 -0.2714
34923SOL    HW1 8300   1.938   8.492   7.313 -0.7242  1.1906 -1.6275
34923SOL    HW2 8301   1.917   8.606   7.411 -0.1864 -0.2020  0.1480
34924SOL     OW 8302   3.863   1.075   6.480  0.0758  0.2642  0.2345
34924SOL    HW1 8303   3.787   1.065   6.422  1.0348  1.6019 -1.3443
34924SOL    HW2 8304   3.856   1.164   6.514  1.6224  0.9417 -1.0623
34925SOL     OW 8305   7.731   5.740   0.843 -0.3890 -0.1152  0.4760
34925SOL    HW1 8306   7.748   5.646   0.846 -3.5059 -0.8165 -0.2877
34925SOL    HW2 8307   7.722   5.760   0.750  0.8579  1.1250  0.5863
34926SOL     OW 8308   9.683  10.578   9.828 -0.7700  0.4615 -0.5956
34926SOL    HW1 8309   9.657  10.487   9.810 -1.1603  0.2893  0.7400
34926SOL    HW2 8310   9.607  10.616   9.873 -0.1985  1.1299 -0.1871
34927SOL     OW 8311   5.928  10.423   9.870 -0.1654 -0.8228  0.1919
34927SOL    HW1 8312   5.866  10.428   9.797 -1.3673  1.1020  1.2514
34927SOL    HW2 8313   6.004  10.377   9.835 -0.8137 -0.2038 -2.1795
34928SOL     OW 8314   7.012   2.072   6.560 -0.0880 -0.8682  0.1546
34928SOL    HW1 8315   7.028   1.993   6.612  0.2299 -0.3149  0.9116
34928SOL    HW2 8316   7.089   2.081   6.505 -0.2122 -1.1950 -0.0722
34929SOL     OW 8317  10.643  10.562   4.523 -0.0478  0.1817  0.4823
34929SOL    HW1 8318  10.557  10.572   4.483  0.4510  0.2360 -0.5934
34929SOL    HW2 8319  10.644  10.472   4.557 -0.6905  0.3333  0.9361
34930SOL     OW 8320  10.127   9.769   6.837  0.2052 -0.0391 -0.1993
34930SOL    HW1 8321  10.203   9.730   6.793 -1.0896 -0.3039 -2.3842
34930SOL    HW2 8322  10.075   9.805   6.765 -0.7307  1.9836  1.4110
34931SOL     OW 8323   0.477   6.202   5.108 -0.0217  0.6275 -0.4332
34931SOL    HW1 8324   0.470   6.266   5.179 -0.5083 -1.3466  1.4188
34931SOL    HW2 8325   0.557   6.226   5.061  1.8378  0.5265  2.4158
34932SOL     OW 8326   3.715   9.137   9.718 -0.0206 -0.2613  0.7531
34932SOL    HW1 8327   3.774   9.194   9.669 -0.3988 -1.0011 -0.6192
34932SOL    HW2 8328   3.699   9.183   9.801  0.9397  0.8413  0.3437
34933SOL     OW 8329   8.497   7.809   4.703 -0.3765  0.1441  0.1561
34933SOL    HW1 8330   8.413   7.826   4.662 -1.0384  1.1801  1.8457
34933SOL    HW2 8331   8.511   7.882   4.762 -0.1609 -1.8536  2.7840
34934SOL     OW 8332   5.469   7.157   4.226  0.9652  0.1739 -0.4431
34934SOL    HW1 8333   5.385   7.196   4.202  1.1083  0.4731 -0.4716
34934SOL    HW2 8334   5.496   7.107   4.149  0.6139 -0.2739 -0.2816
34935SOL     OW 8335   4.635   7.750  10.349 -0.1543  0.6249 -0.3178
34935SOL    HW1 8336   4.608   7.659  10.340  0.8103  0.1496  1.1718
34935SOL    HW2 8337   4.631   7.786  10.261  0.2656 -1.0969 -1.0711
34936SOL     OW 8338   6.693   6.133   0.819 -0.2603 -0.1531  0.2484
34936SOL    HW1 8339   6.767   6.094   0.774  0.0407  0.8601 -0.1697
34936SOL    HW2 8340   6.733   6.181   0.892 -0.6325 -0.7303  0.8398
34937SOL     OW 8341   6.440   4.720   3.878 -0.0486  0.4639 -0.4325
34937SOL    HW1 8342   6.436   4.626   3.863 -0.2493  0.6467 -1.7237
34937SOL    HW2 8343   6.367   4.738   3.937  0.3011 -0.2504  0.2296
34938SOL     OW 8344  10.994   6.802   8.665  0.3572 -0.0863 -0.0369
34938SOL    HW1 8345  10.948   6.821   8.583  0.5300 -0.0144 -0.1172
34938SOL    HW2 8346  10.931   6.826   8.733  0.8375  1.5312 -0.1177
34939SOL     OW 8347  10.448   6.467   3.320  0.1025  0.5166 -0.2181
34939SOL    HW1 8348  10.511   6.503   3.257  1.2639 -1.9881 -0.6274
34939SOL    HW2 8349  10.422   6.541   3.374  1.9271  2.0170 -1.2909
34940SOL     OW 8350   4.672  11.118   7.511  0.6645 -0.2321  0.4901
34940SOL    HW1 8351   4.721  11.129   7.430 -0.3643 -0.6644 -0.2084
34940SOL    HW2 8352   4.681  11.203   7.556 -1.0023  0.9972 -1.3468
34941SOL     OW 8353   3.547   1.521   6.543 -0.5104 -0.0043 -0.0443
34941SOL    HW1 8354   3.583   1.580   6.477  0.8617 -0.4618  0.2691
34941SOL    HW2 8355   3.534   1.576   6.620  0.7737 -0.0804  0.2496
34942SOL     OW 8356   0.751   9.748   7.545  0.3458 -0.2597 -0.6135
34942SOL    HW1 8357   0.804   9.696   7.606 -1.1112  0.5510  1.4602
34942SOL    HW2 8358   0.717   9.684   7.482  2.0459 -1.1003 -0.7269
34943SOL     OW 8359  10.794   4.595   7.461  0.2759 -0.4275  0.6207
34943SOL    HW1 8360  10.808   4.508   7.424 -1.9060 -0.3367 -0.6101
34943SOL    HW2 8361  10.706   4.591   7.499 -0.6764  1.6839 -1.1076
34944SOL     OW 8362   2.975   6.282   1.929 -0.2156  0.2842  0.2073
34944SOL    HW1 8363   2.956   6.188   1.927  0.7690  0.0686  0.4450
34944SOL    HW2 8364   2.891   6.323   1.950 -0.9799 -0.4227 -1.3096
34945SOL     OW 8365   9.341   9.799  10.320 -0.0259 -0.1863  0.2038
34945SOL    HW1 8366   9.259   9.828  10.359 -0.7183 -2.4659  0.6343
34945SOL    HW2 8367   9.324   9.799  10.226 -0.8529 -1.4123  0.3248
34946SOL     OW 8368  10.958   5.866   3.591 -0.2546 -0.4581  0.4703
34946SOL    HW1 8369  10.896   5.909   3.532  0.3158 -0.2650 -0.0010
34946SOL    HW2 8370  10.959   5.774   3.562  1.1852 -0.0739 -0.8907
34947SOL     OW 8371   0.015   9.758   8.364 -0.6285 -0.1027  0.0569
34947SOL    HW1 8372  -0.066   9.808   8.374 -1.4219 -0.6733 -2.5873
34947SOL    HW2 8373   0.079   9.823   8.334 -1.5811 -0.4203 -3.0790
34948SOL     OW 8374   7.816   9.163   4.464  0.1112  0.4769  0.4688
34948SOL    HW1 8375   7.759   9.086   4.461 -1.7158  1.7844 -0.0319
34948SOL    HW2 8376   7.817   9.187   4.557  0.4528  0.0205  0.5855
34949SOL     OW 8377   2.773   8.150   7.434  0.0414  0.0278 -0.0225
34949SOL    HW1 8378   2.824   8.071   7.413  0.3787 -0.1308  1.3156
34949SOL    HW2 8379   2.727   8.170   7.352  1.1359 -0.6552 -0.8457
34950SOL     OW 8380   6.929  10.006   5.296 -0.3129 -0.1185 -0.0791
34950SOL    HW1 8381   6.955   9.927   5.250  1.5380 -0.0473  0.7470
34950SOL    HW2 8382   6.838  10.021   5.270 -0.2453 -1.7072 -1.3433
34951SOL     OW 8383   6.252   4.017   4.350  0.0653 -0.4381  0.1556
34951SOL    HW1 8384   6.204   3.985   4.427  0.5801 -2.0800 -0.1811
34951SOL    HW2 8385   6.224   4.108   4.341 -1.3899 -0.7490  1.2036
34952SOL     OW 8386  10.144   2.450   3.268  0.5434  0.0577  0.2386
34952SOL    HW1 8387  10.101   2.442   3.353 -3.1837  0.2432 -1.4398
34952SOL    HW2 8388  10.197   2.530   3.276 -1.2448  1.1669  1.8177
34953SOL     OW 8389   6.654   2.949   2.096 -0.0775 -0.1738  0.5161
34953SOL    HW1 8390   6.731   2.906   2.059  1.7959  1.9741  1.6692
34953SOL    HW2 8391   6.645   2.911   2.183 -0.3131 -0.4033  0.3924
34954SOL     OW 8392   4.714   8.704   2.370  0.3317  0.4999 -0.2034
34954SOL    HW1 8393   4.736   8.783   2.320 -1.4578 -0.1974 -2.2587
34954SOL    HW2 8394   4.715   8.733   2.461  2.2138  2.2333 -0.7055
34955SOL     OW 8395   6.920  10.267   9.177  0.2782 -0.2183 -0.4456
34955SOL    HW1 8396   6.955  10.296   9.093  0.8680 -0.2291 -0.2120
34955SOL    HW2 8397   6.842  10.215   9.155  0.5049 -0.3288 -0.9913
34956SOL     OW 8398   8.509   2.271   5.086  0.4472 -0.5563 -0.0695
34956SOL    HW1 8399   8.603   2.257   5.075  0.4132 -0.9375  0.0965
34956SOL    HW2 8400   8.474   2.274   4.996  0.5514 -0.9152 -0.1252
34957SOL     OW 8401   0.324   9.830   4.570  0.1687  0.2688  0.2971
34957SOL    HW1 8402   0.350   9.804   4.482  0.8829 -0.5956  0.7464
34957SOL    HW2 8403   0.355   9.759   4.626 -1.5685  0.0730  1.0864
34958SOL     OW 8404   5.821   8.753   5.635 -0.1667 -0.3501  0.0387
34958SOL    HW1 8405   5.869   8.830   5.666  1.6461 -1.4340  0.0623
34958SOL    HW2 8406   5.874   8.679   5.663 -1.0627 -1.5617 -1.3260
34959SOL     OW 8407  10.472  10.281   3.059  0.4695 -0.3721  0.3145
34959SOL    HW1 8408  10.493  10.194   3.024  0.6081 -0.1581 -0.1363
34959SOL    HW2 8409  10.538  10.339   3.021  1.2524 -0.2926  1.7212
34960SOL     OW 8410  10.085   7.094   4.739 -0.0440  1.0499 -0.7337
34960SOL    HW1 8411  10.057   7.183   4.716  0.9275  1.6966  0.4824
34960SOL    HW2 8412  10.147   7.070   4.671  1.4263  2.2283  0.1385
34961SOL     OW 8413   9.480   6.161   6.762  0.1524  0.8030  0.3486
34961SOL    HW1 8414   9.395   6.140   6.723  0.9849 -0.8465 -0.6888
34961SOL    HW2 8415   9.473   6.253   6.787 -1.9460  0.6884  0.3275
34962SOL     OW 8416   5.828   8.887   8.083  0.3217 -0.2884 -0.3969
34962SOL    HW1 8417   5.757   8.944   8.113 -1.3914 -2.2808 -0.3559
34962SOL    HW2 8418   5.906   8.942   8.082 -1.3327  2.1985 -1.0406
34963SOL     OW 8419   2.705   7.795   6.734 -0.9832 -0.4795  0.1472
34963SOL    HW1 8420   2.636   7.861   6.732  0.7305  1.4549  0.6859
34963SOL    HW2 8421   2.729   7.788   6.826  2.1185  1.9104 -0.2991
34964SOL     OW 8422   4.947   1.655   7.370 -0.1240  0.0705 -0.4579
34964SOL    HW1 8423   4.872   1.655   7.430 -0.1492 -1.6376 -0.4463
34964SOL    HW2 8424   4.927   1.585   7.307  0.8315  0.5150 -1.2803
34965SOL     OW 8425   3.698   1.439   1.627 -0.2845 -0.2590 -0.0756
34965SOL    HW1 8426   3.773   1.464   1.573 -0.9154  0.8569 -0.4635
34965SOL    HW2 8427   3.735   1.427   1.715 -0.0702  3.3254  0.4496
34966SOL     OW 8428   8.038   3.579   6.429  0.0249 -0.3170  0.0724
34966SOL    HW1 8429   8.041   3.594   6.335  1.3663  0.7464  0.2484
34966SOL    HW2 8430   8.075   3.492   6.441  0.6752 -0.1050 -0.3332
34967SOL     OW 8431   4.067   4.240   6.928 -0.5288  0.1306 -0.2540
34967SOL    HW1 8432   4.146   4.187   6.929 -1.1752 -0.8876 -0.9822
34967SOL    HW2 8433   4.071   4.287   6.845 -0.8014 -0.1197 -0.4120
34968SOL     OW 8434   5.349   8.010   3.147  0.4501  0.2096  0.4124
34968SOL    HW1 8435   5.362   8.086   3.091  0.8561  0.0267  0.2544
34968SOL    HW2 8436   5.331   8.047   3.234 -0.7514  0.4965  0.0569
34969SOL     OW 8437   9.564   1.827   9.414 -0.3351  0.8643 -0.2270
34969SOL    HW1 8438   9.485   1.779   9.389 -0.3004  0.3577  0.5940
34969SOL    HW2 8439   9.585   1.795   9.502  0.8496  0.9124 -0.4772
34970SOL     OW 8440   7.810   6.646   5.973  0.4473  0.3984 -0.1467
34970SOL    HW1 8441   7.882   6.697   5.936  0.9182  0.6644  1.0942
34970SOL    HW2 8442   7.757   6.711   6.019 -1.2333  0.3931 -1.9612
34971SOL     OW 8443   6.960   8.220   2.794 -0.4668  0.9361 -0.9479
34971SOL    HW1 8444   6.917   8.232   2.879 -0.1138 -0.1793 -0.6025
34971SOL    HW2 8445   6.893   8.243   2.730 -1.3527 -0.0693 -0.4008
34972SOL     OW 8446  10.931   8.039   3.505 -0.1537 -0.2367 -0.0553
34972SOL    HW1 8447  10.841   8.065   3.486 -0.1364 -0.1100  0.0344
34972SOL    HW2 8448  10.923   7.961   3.560 -0.2051 -1.1795 -1.3404
34973SOL     OW 8449   0.327  10.330   1.743  0.2515  0.0329 -0.1575
34973SOL    HW1 8450   0.265  10.401   1.758  0.4845  0.6639 -1.9590
34973SOL    HW2 8451   0.375  10.322   1.826 -0.7157  1.0326  0.5208
34974SOL     OW 8452  10.223   5.550   9.570  0.2982  0.1309 -0.2475
34974SOL    HW1 8453  10.214   5.528   9.663  0.7596 -0.4609 -0.3441
34974SOL    HW2 8454  10.317   5.545   9.553  0.0678 -1.5897 -1.1892
34975SOL     OW 8455   6.147   4.348   4.820 -0.1620 -0.2139 -0.0778
34975SOL    HW1 8456   6.135   4.292   4.897 -0.0869 -0.5328 -0.2958
34975SOL    HW2 8457   6.079   4.320   4.759 -0.4616  0.2969  0.0170
34976SOL     OW 8458   9.809   9.840   0.183 -0.0188 -0.6980  0.3812
34976SOL    HW1 8459   9.850   9.761   0.218  2.5773  1.0001  1.4605
34976SOL    HW2 8460   9.867   9.866   0.110 -0.4521  0.5434  0.4627
34977SOL     OW 8461   9.409   3.250   1.184 -0.6941  0.0956 -0.3642
34977SOL    HW1 8462   9.354   3.219   1.256 -0.7860 -0.5868 -0.7221
34977SOL    HW2 8463   9.349   3.295   1.125 -0.6225  0.6286 -0.0371
34978SOL     OW 8464   7.427   9.799   7.067 -0.2894  0.1899  0.0982
34978SOL    HW1 8465   7.513   9.776   7.101 -0.1464  1.3953  0.5990
34978SOL    HW2 8466   7.370   9.728   7.098  0.2508  0.1451  1.0426
34979SOL     OW 8467   7.573   1.651   5.226  0.7180  0.4521 -0.0937
34979SOL    HW1 8468   7.575   1.727   5.283  0.3543 -1.1268  2.1791
34979SOL    HW2 8469   7.520   1.678   5.151 -0.1591  2.1444  1.0832
34980SOL     OW 8470   4.971   3.693   3.682  0.4617  0.3581  0.0735
34980SOL    HW1 8471   5.046   3.663   3.630 -0.2384 -2.4513  0.5194
34980SOL    HW2 8472   4.920   3.613   3.699 -1.5525  1.8489  1.5335
34981SOL     OW 8473   7.121   3.150  10.849  0.1670 -0.6615 -0.3399
34981SOL    HW1 8474   7.118   3.057  10.827 -1.5937 -0.5323 -0.7958
34981SOL    HW2 8475   7.086   3.195  10.772 -0.5453  0.2419  0.4787
34982SOL     OW 8476   0.145   6.446   3.196 -0.2970 -0.2117  0.3363
34982SOL    HW1 8477   0.155   6.375   3.133  1.9050 -0.7192  1.1831
34982SOL    HW2 8478   0.056   6.437   3.229 -1.2977 -0.3167 -2.1928
34983SOL     OW 8479   3.352   4.108   8.947  0.6931 -0.6797 -0.2133
34983SOL    HW1 8480   3.354   4.198   8.913  0.7864 -0.5460  0.1479
34983SOL    HW2 8481   3.309   4.115   9.032  0.9585 -0.9363 -0.0559
34984SOL     OW 8482   9.345   3.942   9.132 -0.3353  0.2435  0.1755
34984SOL    HW1 8483   9.349   4.038   9.133  1.1686  0.3490 -3.3950
34984SOL    HW2 8484   9.396   3.916   9.055 -0.3777 -3.4882  1.2052
34985SOL     OW 8485   3.488   5.030   6.667 -0.4111  0.2359  0.4923
34985SOL    HW1 8486   3.543   4.987   6.601 -1.5447 -0.9747  0.3017
34985SOL    HW2 8487   3.524   5.119   6.674  2.9087 -1.0199  1.8684
34986SOL     OW 8488   8.143   3.027   1.693 -0.6782  0.7600  0.4441
34986SOL    HW1 8489   8.193   3.107   1.678  1.0333 -0.3503 -0.0076
34986SOL    HW2 8490   8.124   2.993   1.606 -1.2848  0.6012  0.6323
34987SOL     OW 8491   7.754   3.760   9.294  0.0098 -0.1663 -0.2676
34987SOL    HW1 8492   7.815   3.703   9.340 -0.3527 -1.2884 -1.1134
34987SOL    HW2 8493   7.804   3.838   9.272  1.2558 -1.1885 -1.2213
34988SOL     OW 8494   4.616   3.961   8.797  0.4163 -0.7419  0.2553
34988SOL    HW1 8495   4.682   4.006   8.851 -0.3743 -1.2509  1.6971
34988SOL    HW2 8496   4.626   3.999   8.710  0.2944  1.6854  1.2396
34989SOL     OW 8497  10.570   4.667   7.697 -0.3052  0.5612 -0.3402
34989SOL    HW1 8498  10.489   4.656   7.647 -0.4794 -0.6499  0.1691
34989SOL    HW2 8499  10.564   4.603   7.768  1.6239 -0.4498 -0.9952
34990SOL     OW 8500   0.860   6.724   1.638  0.1452  0.3285 -0.8268
34990SOL    HW1 8501   0.935   6.698   1.585  0.2477 -2.5214  0.5327
34990SOL    HW2 8502   0.783   6.705   1.583  0.3326  1.0666 -1.3563
34991SOL     OW 8503   8.678   8.876   5.685  0.2833  0.0874  0.4218
34991SOL    HW1 8504   8.647   8.799   5.733 -0.0112  0.4073  0.7465
34991SOL    HW2 8505   8.684   8.945   5.752 -0.6629  0.6883 -0.0975
34992SOL     OW 8506   9.179   6.623   1.007 -0.5663 -0.0071  0.1749
34992SOL    HW1 8507   9.229   6.551   0.969  0.5529  0.2452  1.1010
34992SOL    HW2 8508   9.128   6.658   0.934  0.1336 -0.6828 -0.6598
34993SOL     OW 8509   6.382  10.743   7.793 -0.4885 -0.1467 -0.3255
34993SOL    HW1 8510   6.323  10.668   7.787  0.1440 -0.6597 -0.2221
34993SOL    HW2 8511   6.354  10.789   7.872  0.0461 -1.0819  0.4185
34994SOL     OW 8512   9.548   2.241   0.576 -0.2287 -0.2910 -0.1800
34994SOL    HW1 8513   9.543   2.179   0.503 -3.9854 -0.0948 -0.2492
34994SOL    HW2 8514   9.460   2.277   0.584  1.1571  3.2400  1.4872
34995SOL     OW 8515  10.428   2.092   4.566 -0.2115  0.1001 -0.0773
34995SOL    HW1 8516  10.380   2.021   4.525 -0.4793  0.8348 -1.0807
34995SOL    HW2 8517  10.406   2.085   4.659 -0.8380 -0.6513 -0.2715
34996SOL     OW 8518   1.262   2.374   4.734  0.4846  0.2479 -0.5795
34996SOL    HW1 8519   1.270   2.391   4.641  0.8437  1.7310 -0.3078
34996SOL    HW2 8520   1.291   2.456   4.776 -1.2012  0.1938  0.8035
34997SOL     OW 8521   8.111   1.055   4.237  0.1152 -0.0554  0.1526
34997SOL    HW1 8522   8.132   0.977   4.186 -0.7940  0.6513 -1.3506
34997SOL    HW2 8523   8.135   1.128   4.180  0.4185  0.7859  1.3108
34998SOL     OW 8524   1.820   1.718   7.958  0.2754  0.1721 -0.3692
34998SOL    HW1 8525   1.897   1.755   8.002 -0.1767  1.9664 -0.9904
34998SOL    HW2 8526   1.846   1.713   7.866  0.3077 -1.0841 -0.3084
34999SOL     OW 8527   8.846   0.314   2.309 -0.0640  0.6803 -0.6656
34999SOL    HW1 8528   8.810   0.356   2.231 -1.8465  1.3868  0.4633
34999SOL    HW2 8529   8.776   0.257   2.340  0.4805  0.6394  0.5663
35000SOL     OW 8530   7.972   3.817   7.102 -0.0858  0.4030  0.1952
35000SOL    HW1 8531   7.904   3.878   7.130 -0.8994 -1.2151  2.0493
35000SOL    HW2 8532   7.971   3.822   7.006 -1.9849  1.3267  0.2108
35001SOL     OW 8533   0.104   3.506   8.873 -0.5643  0.0990  0.6737
35001SOL    HW1 8534   0.125   3.598   8.855  0.1567 -0.2235 -0.2351
35001SOL    HW2 8535   0.059   3.508   8.957  0.1049  1.2150  1.0378
35002SOL     OW 8536   3.366   9.303   7.893  0.0246 -0.3738  0.1091
35002SOL    HW1 8537   3.368   9.362   7.818 -1.2700 -0.5865 -0.1172
35002SOL    HW2 8538   3.456   9.271   7.901  0.4170  0.4883 -0.6723
35003SOL     OW 8539   4.585   9.473   5.178  0.8380  0.5631 -0.5316
35003SOL    HW1 8540   4.525   9.491   5.250  0.0399  0.4734 -1.1497
35003SOL    HW2 8541   4.646   9.408   5.212 -0.4576 -0.6336 -0.3798
35004SOL     OW 8542   3.995   9.755   9.565 -0.3044 -0.3418 -0.4362
35004SOL    HW1 8543   3.945   9.680   9.532  1.0985 -0.9778 -1.2296
35004SOL    HW2 8544   3.993   9.745   9.660 -1.1914 -0.6648 -0.4790
35005SOL     OW 8545   7.219   9.112   1.272  0.6664 -0.1206 -0.3875
35005SOL    HW1 8546   7.159   9.144   1.339 -1.1272 -1.4577 -1.2682
35005SOL    HW2 8547   7.301   9.158   1.289 -0.5892  1.7818  0.8826
35006SOL     OW 8548   1.378   3.997   8.649  0.1193 -0.1280  0.3500
35006SOL    HW1 8549   1.444   3.929   8.661  0.3896  0.3832  2.1661
35006SOL    HW2 8550   1.364   4.032   8.737 -0.1647  2.0113 -0.4811
35007SOL     OW 8551   7.642   0.884   9.410  0.2602  0.6895 -0.1071
35007SOL    HW1 8552   7.703   0.811   9.417  1.3160  1.6858  2.3198
35007SOL    HW2 8553   7.676   0.938   9.339 -0.1844 -0.7926 -1.5090
35008SOL     OW 8554   9.596   5.669   3.406 -0.1682 -0.5667 -0.0173
35008SOL    HW1 8555   9.661   5.619   3.454  1.5006  0.9723 -0.5569
35008SOL    HW2 8556   9.543   5.711   3.473  0.3616 -0.6441  0.4525
35009SOL     OW 8557   5.823   4.309   7.614 -0.8310  0.0362 -0.2269
35009SOL    HW1 8558   5.891   4.309   7.682 -0.9403 -0.8539 -0.1049
35009SOL    HW2 8559   5.818   4.400   7.586  0.6309  0.0751 -0.4563
35010SOL     OW 8560   5.966   9.522   9.647 -0.0899 -0.2253  0.2304
35010SOL    HW1 8561   6.023   9.511   9.723 -0.2078  0.3462  0.4025
35010SOL    HW2 8562   6.025   9.517   9.572  0.3621  1.3891  0.4383
35011SOL     OW 8563   4.114   0.493   7.707 -0.5551  0.1978 -0.2590
35011SOL    HW1 8564   4.064   0.521   7.783 -0.5726 -0.8436  0.1331
35011SOL    HW2 8565   4.061   0.519   7.632 -1.5733 -0.6402  0.1393
35012SOL     OW 8566   7.795   0.448   2.646 -0.1637  0.0611 -0.9300
35012SOL    HW1 8567   7.819   0.496   2.726 -0.5869  1.1158 -1.4213
35012SOL    HW2 8568   7.728   0.386   2.675 -1.0887  1.1678 -0.6554
35013SOL     OW 8569   9.244   8.899   9.088  0.3623 -0.0722 -0.2856
35013SOL    HW1 8570   9.339   8.903   9.102  0.4798  1.0233 -1.2038
35013SOL    HW2 8571   9.230   8.815   9.043  1.3479  1.0478 -2.8965
35014SOL     OW 8572   4.590   9.862   4.642  0.1460  0.0726 -0.3907
35014SOL    HW1 8573   4.583   9.921   4.716 -2.2418 -0.1543 -0.3578
35014SOL    HW2 8574   4.628   9.782   4.678  0.5170  0.5170  0.2168
35015SOL     OW 8575   2.813   9.409   3.199  0.2360 -0.3612 -0.0489
35015SOL    HW1 8576   2.724   9.443   3.198  0.2747 -0.2664 -0.5219
35015SOL    HW2 8577   2.839   9.406   3.107  0.9610  0.2289  0.1261
35016SOL     OW 8578   2.669   9.562   8.055 -0.1612  0.5652  0.1576
35016SOL    HW1 8579   2.666   9.467   8.043  1.2673  0.4329  0.6752
35016SOL    HW2 8580   2.736   9.593   7.995 -0.5357  1.2386  0.0705
35017SOL     OW 8581   7.784   7.257   5.281 -0.4601  0.4652 -0.7171
35017SOL    HW1 8582   7.850   7.188   5.278  0.3343  1.1602  0.2894
35017SOL    HW2 8583   7.825   7.328   5.329 -2.7581  0.0345  2.1883
35018SOL     OW 8584   5.137   0.717   8.629 -0.3079 -0.1925 -0.4795
35018SOL    HW1 8585   5.136   0.788   8.565  0.0858  2.3743  2.1846
35018SOL    HW2 8586   5.049   0.681   8.626 -1.5037  2.4589  0.1475
35019SOL     OW 8587  10.104   3.069   4.702  0.7137 -0.2194  0.4067
35019SOL    HW1 8588  10.034   3.134   4.705  1.0690  0.4445 -2.4702
35019SOL    HW2 8589  10.063   2.991   4.665  0.5487 -1.3854  2.8302
35020SOL     OW 8590  10.043   0.818   0.420  0.1720  0.2815 -0.0178
35020SOL    HW1 8591   9.950   0.809   0.444 -0.1791 -0.1459 -1.4495
35020SOL    HW2 8592  10.079   0.730   0.432  0.1430  0.2131 -0.4064
35021SOL     OW 8593   1.537   3.416   0.662  0.5346 -0.1491 -0.0287
35021SOL    HW1 8594   1.549   3.412   0.757  0.0142  1.0832  0.1031
35021SOL    HW2 8595   1.626   3.417   0.627  0.7333 -0.3379  0.4572
35022SOL     OW 8596   6.189   9.052   8.511 -0.5677  0.9506 -0.4518
35022SOL    HW1 8597   6.193   9.081   8.602 -2.5048 -0.7844  0.2665
35022SOL    HW2 8598   6.280   9.053   8.481  0.3667 -0.1985  2.1134
35023SOL     OW 8599   2.103   0.680   4.937 -0.3109 -0.6970  0.2815
35023SOL    HW1 8600   2.150   0.683   4.853 -0.9982 -2.7315 -0.2506
35023SOL    HW2 8601   2.036   0.748   4.929  0.4723  0.0279 -0.2778
35024SOL     OW 8602   8.003   7.636   5.783  0.1947  0.7672  0.5612
35024SOL    HW1 8603   8.001   7.611   5.875 -2.3707  2.8057  1.2117
35024SOL    HW2 8604   7.945   7.573   5.739  3.9236 -2.2870 -0.4863
35025SOL     OW 8605   9.683   6.752   0.608 -0.4369 -0.2960  0.5224
35025SOL    HW1 8606   9.775   6.753   0.633  0.1153  1.1979 -1.3345
35025SOL    HW2 8607   9.678   6.687   0.537 -0.9023 -0.6332  0.8532
35026SOL     OW 8608   6.240   2.817   5.380  0.0495  0.1545  0.1233
35026SOL    HW1 8609   6.316   2.867   5.411 -0.3166 -1.2141  3.7946
35026SOL    HW2 8610   6.278   2.743   5.332  0.9795  0.2058  0.7442
35027SOL     OW 8611   5.033   6.760   3.347  0.5328 -0.0623  0.2868
35027SOL    HW1 8612   4.962   6.825   3.356  0.6131  0.1072 -0.2552
35027SOL    HW2 8613   5.112   6.809   3.368  0.4866 -0.2797  0.9994
35028SOL     OW 8614   9.386  10.929   6.099  0.2129 -0.1493  0.2339
35028SOL    HW1 8615   9.349  11.010   6.135  1.7765  0.9577 -0.5421
35028SOL    HW2 8616   9.341  10.917   6.016 -1.1147 -0.9612  1.0307
35029SOL     OW 8617   6.276   5.568  10.674  0.1894 -0.3056 -0.0364
35029SOL    HW1 8618   6.292   5.536  10.585 -1.7882 -0.7599 -0.2680
35029SOL    HW2 8619   6.218   5.502  10.713 -0.9073  1.0907  0.7655
35030SOL     OW 8620  10.497   5.345   1.352  0.3592 -0.0341  0.1643
35030SOL    HW1 8621  10.546   5.297   1.286  1.1105  0.3896  0.4084
35030SOL    HW2 8622  10.563   5.382   1.410 -0.1282  2.2450 -0.6506
35031SOL     OW 8623   4.319   7.981   0.135  0.5372  0.0134 -0.2769
35031SOL    HW1 8624   4.317   8.051   0.200  0.8846 -0.7145  0.5513
35031SOL    HW2 8625   4.305   7.901   0.186 -1.5991 -0.4089 -1.4224
35032SOL     OW 8626   4.360  10.252   0.194  0.7035 -0.1405 -0.4218
35032SOL    HW1 8627   4.272  10.224   0.167 -0.0664 -0.0497  1.8090
35032SOL    HW2 8628   4.404  10.171   0.218  0.8449 -0.0765 -0.4653
35033SOL     OW 8629   5.244   4.996   0.292 -0.8402 -0.3165  0.2524
35033SOL    HW1 8630   5.246   4.913   0.245  1.5714 -0.7071  0.9432
35033SOL    HW2 8631   5.317   5.046   0.256 -0.5012  0.3582  1.8090
35034SOL     OW 8632   9.112   4.845   4.785 -0.1722  0.1639 -0.4691
35034SOL    HW1 8633   9.187   4.889   4.745  0.5701  0.2772  0.9965
35034SOL    HW2 8634   9.082   4.905   4.853  0.3036 -1.1829  0.9765
35035SOL     OW 8635   2.908   2.331   2.199 -0.3299 -0.2717 -0.3995
35035SOL    HW1 8636   2.913   2.263   2.267 -1.6491  1.3614  1.4433
35035SOL    HW2 8637   2.868   2.287   2.124 -0.7742 -1.6426  0.5990
35036SOL     OW 8638   6.284   7.629   3.582 -0.3246  0.7838 -0.0650
35036SOL    HW1 8639   6.330   7.552   3.615 -1.0262  1.0028  1.5164
35036SOL    HW2 8640   6.306   7.632   3.489  0.1279 -1.0250 -0.0564
35037SOL     OW 8641   0.964   6.075   2.403 -0.0747  0.1897  0.2695
35037SOL    HW1 8642   0.990   5.985   2.384  2.4832  0.7185  1.0075
35037SOL    HW2 8643   0.921   6.104   2.322  0.4684 -1.1824 -0.5564
35038SOL     OW 8644   9.467   3.389   0.785 -0.1454 -0.3773 -0.8855
35038SOL    HW1 8645   9.485   3.482   0.798 -1.4277 -0.2849  0.4138
35038SOL    HW2 8646   9.496   3.371   0.695  0.1864  1.2538 -1.1234
35039SOL     OW 8647   1.798   1.135   4.819  0.2757  0.2754  0.2102
35039SOL    HW1 8648   1.875   1.163   4.770  0.2323 -0.9335 -0.5925
35039SOL    HW2 8649   1.723   1.161   4.765  0.1237  1.0073  0.7539
35040SOL     OW 8650   4.020   6.009  10.622 -0.6354  0.1518 -0.1278
35040SOL    HW1 8651   3.940   5.963  10.599 -0.8786  0.2673  0.4582
35040SOL    HW2 8652   4.084   5.940  10.640 -0.3697  0.0613 -1.3578
35041SOL     OW 8653   1.956   2.832  10.056 -0.0178  0.2882  0.4445
35041SOL    HW1 8654   1.962   2.739  10.036 -0.8391  0.3675 -0.2240
35041SOL    HW2 8655   1.891   2.837  10.127 -1.9745  0.5378 -1.2645
35042SOL     OW 8656  10.736   0.369   7.000  0.1937  0.2324  1.0670
35042SOL    HW1 8657  10.761   0.277   7.015  0.2902  0.2539  1.0368
35042SOL    HW2 8658  10.754   0.384   6.907  1.9940  0.8413  1.4758
35043SOL     OW 8659   6.746   4.921  10.098  0.0783  0.5337 -0.9681
35043SOL    HW1 8660   6.742   4.869  10.018  0.5204  0.3080 -0.8463
35043SOL    HW2 8661   6.809   4.990  10.079  0.3281  0.3681 -0.7536
35044SOL     OW 8662   5.932   3.422   8.402  0.2105  0.1553 -0.0413
35044SOL    HW1 8663   5.861   3.413   8.465  0.2932 -0.7809 -0.0733
35044SOL    HW2 8664   5.979   3.500   8.430 -0.0842  0.0658  0.7265
35045SOL     OW 8665   7.794   4.706   5.709  0.8441  0.2340  0.1576
35045SOL    HW1 8666   7.702   4.728   5.727  1.3019  0.7432  2.1450
35045SOL    HW2 8667   7.795   4.611   5.699 -0.0893  0.3491 -1.2863
35046SOL     OW 8668   8.875   0.662   0.531  0.1259 -0.0882 -0.2364
35046SOL    HW1 8669   8.863   0.729   0.598  1.7316  0.2716 -0.2461
35046SOL    HW2 8670   8.951   0.612   0.560  1.2812  0.4836 -2.0443
35047SOL     OW 8671   4.574   1.515   9.118 -0.0689  0.2063  1.0762
35047SOL    HW1 8672   4.494   1.493   9.165 -0.4343  0.5198  0.6075
35047SOL    HW2 8673   4.638   1.450   9.149  0.3451  1.7139  3.6362
35048SOL     OW 8674   5.727   6.316   6.892  0.5157 -0.3654  0.1636
35048SOL    HW1 8675   5.655   6.254   6.892  0.0514  0.1571  0.5680
35048SOL    HW2 8676   5.792   6.279   6.833  0.8403 -1.9083  1.4350
35049SOL     OW 8677   4.621   1.046   5.741 -0.1354  0.1967 -0.1699
35049SOL    HW1 8678   4.582   1.098   5.811 -0.0181  0.3852 -0.2432
35049SOL    HW2 8679   4.651   0.967   5.784  0.3286  0.5028  0.0750
35050SOL     OW 8680   2.001   0.054   2.977 -0.4872 -0.3668  0.0289
35050SOL    HW1 8681   1.954   0.108   3.041 -0.2616 -0.2342  0.0835
35050SOL    HW2 8682   2.077   0.107   2.952 -1.0851  0.0045 -1.0818
35051SOL     OW 8683   3.603  11.057   1.079 -0.6920  0.8107 -0.3035
35051SOL    HW1 8684   3.675  11.117   1.061 -2.2131  2.1126 -2.5796
35051SOL    HW2 8685   3.541  11.072   1.007 -2.5951 -1.2412  0.7901
35052SOL     OW 8686   9.027   5.677  10.908 -0.3474 -0.3086  0.1265
35052SOL    HW1 8687   9.105   5.716  10.948  0.8701 -0.5983 -1.7987
35052SOL    HW2 8688   8.995   5.744  10.848  0.2233 -1.2567 -1.2870
35053SOL     OW 8689   0.334   2.325  10.428 -0.2298  0.1942 -0.3246
35053SOL    HW1 8690   0.394   2.341  10.501  1.3597 -0.3396 -1.4432
35053SOL    HW2 8691   0.309   2.233  10.437 -1.8806  0.7028  0.7965
35054SOL     OW 8692   1.370  11.118   0.747 -0.5853  0.0839  0.4186
35054SOL    HW1 8693   1.391  11.188   0.685  0.5233  0.6510  1.3978
35054SOL    HW2 8694   1.277  11.129   0.765 -0.6306  0.7100 -0.1689
35055SOL     OW 8695   3.501   9.192  10.393 -0.2962 -0.1537 -0.3488
35055SOL    HW1 8696   3.425   9.136  10.405 -0.9980  0.9021  0.2977
35055SOL    HW2 8697   3.546   9.189  10.478 -0.2023  0.0646 -0.3915
35056SOL     OW 8698   0.724   6.773   8.516  0.8015 -0.1822 -0.0887
35056SOL    HW1 8699   0.657   6.706   8.504 -0.1949  0.8192 -0.2941
35056SOL    HW2 8700   0.728   6.786   8.611  1.4393 -0.9457  0.0009
35057SOL     OW 8701   4.912   3.879   8.460  0.1810  0.1934  0.4432
35057SOL    HW1 8702   4.861   3.930   8.397  0.3175 -0.6003 -0.3472
35057SOL    HW2 8703   4.883   3.788   8.445 -0.4384  0.0702  2.1538
35058SOL     OW 8704   3.616  10.357   2.400 -0.6604  0.1921 -0.1341
35058SOL    HW1 8705   3.587  10.448   2.389 -2.3009 -0.3522 -0.5304
35058SOL    HW2 8706   3.557  10.320   2.465 -1.1635 -1.0769 -1.2659
35059SOL     OW 8707   9.396   5.418   3.252 -0.4117 -0.7675  0.1403
35059SOL    HW1 8708   9.347   5.431   3.171 -1.6043 -1.0139  0.8051
35059SOL    HW2 8709   9.376   5.495   3.305  2.1614  0.5455 -0.6323
35060SOL     OW 8710   6.389   7.753  10.633 -0.3393 -0.4336 -0.2521
35060SOL    HW1 8711   6.462   7.790  10.583 -0.8180 -0.7308 -1.1844
35060SOL    HW2 8712   6.337   7.829  10.658 -1.0074 -0.4054 -1.6686
35061SOL     OW 8713   4.939   9.933   5.626 -0.6285  0.1342  0.1634
35061SOL    HW1 8714   4.993   9.929   5.705 -2.3672  1.0971  1.4805
35061SOL    HW2 8715   4.979  10.003   5.575  0.5202 -0.4946  0.1661
35062SOL     OW 8716   8.057  10.419   4.153  0.0549  0.0124 -0.5244
35062SOL    HW1 8717   8.083  10.509   4.173 -0.2507 -0.0724  0.2885
35062SOL    HW2 8718   8.051  10.376   4.239 -0.8199 -0.5008 -0.8318
35063SOL     OW 8719   3.786  10.109   3.764  0.7780 -0.2913  0.0626
35063SOL    HW1 8720   3.690  10.112   3.769  0.8270  0.9414  0.8043
35063SOL    HW2 8721   3.805  10.075   3.677 -0.3659  2.0433 -1.1906
35064SOL     OW 8722   0.210   0.698   6.942 -0.2820 -0.1453  0.3322
35064SOL    HW1 8723   0.230   0.672   7.032 -0.7415 -0.1708  0.4300
35064SOL    HW2 8724   0.167   0.622   6.904 -2.5181  0.7631  0.9144
35065SOL     OW 8725   2.261   1.157   4.838 -0.2127  0.1427  0.3705
35065SOL    HW1 8726   2.229   1.097   4.771 -0.1034  0.4602  0.0281
35065SOL    HW2 8727   2.269   1.104   4.916  1.0846 -0.5912 -0.2353
35066SOL     OW 8728   7.725   6.030   2.459 -0.0725 -0.0470 -0.2056
35066SOL    HW1 8729   7.662   6.098   2.436 -0.2830  0.0434  0.6065
35066SOL    HW2 8730   7.810   6.072   2.448 -0.2163  0.7126  1.3262
35067SOL     OW 8731   7.061   2.340   2.372 -0.4368  0.1424 -0.2672
35067SOL    HW1 8732   7.052   2.364   2.280 -0.9891  1.3270  0.0750
35067SOL    HW2 8733   7.031   2.249   2.376  0.6922 -0.3024 -1.4343
35068SOL     OW 8734   4.816   9.538  10.117 -0.6486  0.1892  0.0016
35068SOL    HW1 8735   4.776   9.559  10.202 -0.2075  0.5213  0.1338
35068SOL    HW2 8736   4.905   9.509  10.139  0.0364  1.8357 -0.4427
35069SOL     OW 8737   0.200   7.127   1.151  0.3204 -0.5756 -0.3024
35069SOL    HW1 8738   0.199   7.108   1.245  2.2297  0.2002 -0.0772
35069SOL    HW2 8739   0.177   7.219   1.145 -0.7439 -0.8547 -0.6991
35070SOL     OW 8740   4.796   4.129  10.924 -0.7059 -0.2492 -0.4331
35070SOL    HW1 8741   4.785   4.043  10.964  1.3200 -0.6650 -0.6347
35070SOL    HW2 8742   4.891   4.142  10.922 -0.9074  1.3398 -1.7672
35071SOL     OW 8743   7.339   4.290   0.716 -0.3485 -0.3912  0.5765
35071SOL    HW1 8744   7.422   4.330   0.688 -0.3414 -0.4464  0.5182
35071SOL    HW2 8745   7.323   4.326   0.803  0.7627 -1.9071  1.4590
35072SOL     OW 8746   2.875   1.819   9.448  0.2494 -0.4965 -0.5194
35072SOL    HW1 8747   2.882   1.884   9.378  0.3853 -0.4378 -0.4535
35072SOL    HW2 8748   2.782   1.798   9.454 -0.1945  1.5751  1.1451
35073SOL     OW 8749   3.648   6.044   6.388 -0.5210 -0.0476  0.2564
35073SOL    HW1 8750   3.702   6.110   6.344 -1.7621  0.2402 -0.9371
35073SOL    HW2 8751   3.650   6.069   6.480 -0.4328  1.2882 -0.0820
35074SOL     OW 8752   7.699  10.259   8.542  0.6364  0.5225  0.1814
35074SOL    HW1 8753   7.654  10.305   8.472 -0.3172  0.6445  0.8586
35074SOL    HW2 8754   7.638  10.192   8.571 -0.1790  2.2104  2.7285
35075SOL     OW 8755   4.630   7.403   6.580  0.5546  0.2182 -0.3456
35075SOL    HW1 8756   4.686   7.458   6.525  2.2751 -0.1786  0.9230
35075SOL    HW2 8757   4.680   7.322   6.591  0.9749  0.8176  2.9412
35076SOL     OW 8758   1.216   8.909   2.031  0.1559 -0.1484 -0.1542
35076SOL    HW1 8759   1.257   8.953   2.105 -0.8358  0.4792  0.0319
35076SOL    HW2 8760   1.152   8.971   1.998 -0.9299 -1.2596 -0.2069
35077SOL     OW 8761   2.763   2.796   0.680  0.1008 -0.1509  0.0949
35077SOL    HW1 8762   2.782   2.885   0.710 -0.1904 -0.3077  0.7517
35077SOL    HW2 8763   2.713   2.809   0.599  0.0412  0.2825  0.1961
35078SOL     OW 8764  10.681   6.930   9.544 -0.5569 -0.0480 -0.6325
35078SOL    HW1 8765  10.757   6.933   9.485 -0.2956  1.0482 -0.2608
35078SOL    HW2 8766  10.687   7.011   9.596 -1.9893  0.0717 -0.6048
35079SOL     OW 8767   9.557  10.891   1.999 -0.1715 -0.1198 -0.0782
35079SOL    HW1 8768   9.597  10.864   2.082  0.1829 -0.5110 -0.3715
35079SOL    HW2 8769   9.566  10.986   1.998 -1.3283  0.0395  0.9150
35080SOL     OW 8770   3.541   5.549   2.012 -0.2724 -0.4398 -0.1389
35080SOL    HW1 8771   3.490   5.628   1.995  0.0386  0.5056  2.7306
35080SOL    HW2 8772   3.620   5.560   1.960  0.0989  1.5677  0.7369
35081SOL     OW 8773   0.333   5.108   9.454 -0.2913  0.3824  0.4311
35081SOL    HW1 8774   0.397   5.115   9.383  0.7265  3.3019  1.5092
35081SOL    HW2 8775   0.248   5.119   9.411  0.2618  1.4632 -0.4314
35082SOL     OW 8776   7.538   1.086   7.738  0.0494  0.0717 -0.5186
35082SOL    HW1 8777   7.498   1.097   7.652 -2.3398 -1.8870  0.2204
35082SOL    HW2 8778   7.495   1.008   7.774  1.2122  0.6302  2.3078
35083SOL     OW 8779   0.964   1.817   7.804 -0.4668 -0.3926  0.1948
35083SOL    HW1 8780   0.964   1.887   7.869 -1.3812 -2.4987  2.6108
35083SOL    HW2 8781   0.877   1.778   7.810  0.1121 -1.9494 -0.8465
35084SOL     OW 8782   1.641   5.301   3.296  0.2384  0.0876  0.4740
35084SOL    HW1 8783   1.616   5.248   3.220  1.9601 -0.7613  0.4393
35084SOL    HW2 8784   1.736   5.294   3.300  0.1746 -0.4065  3.0859
35085SOL     OW 8785  10.035   8.739   3.770  0.4275  0.2329 -0.0601
35085SOL    HW1 8786   9.963   8.677   3.755  1.0228 -0.7117  0.8150
35085SOL    HW2 8787  10.097   8.690   3.825  1.3404  1.3155 -0.0958
35086SOL     OW 8788   5.569   6.821   6.974  0.1037  0.0037  0.2679
35086SOL    HW1 8789   5.600   6.877   6.903  1.7947 -0.5364  0.5403
35086SOL    HW2 8790   5.478   6.801   6.951 -0.1962  1.9360 -0.3874
35087SOL     OW 8791   8.830   0.456   8.313  0.1379  0.5017 -0.1965
35087SOL    HW1 8792   8.795   0.434   8.399  1.5205 -1.8901 -0.1620
35087SOL    HW2 8793   8.901   0.518   8.331 -1.0738  1.8480  0.1185
35088SOL     OW 8794   1.259   6.405   7.160 -0.0896 -0.9132  0.1288
35088SOL    HW1 8795   1.291   6.324   7.122  0.1080 -0.4919 -0.6107
35088SOL    HW2 8796   1.334   6.441   7.207 -0.4603 -1.6710  1.3670
35089SOL     OW 8797   5.001   5.232   3.636 -0.0586  0.1856  0.2146
35089SOL    HW1 8798   4.952   5.291   3.694 -0.6706 -0.4246  0.3358
35089SOL    HW2 8799   5.006   5.279   3.553  0.5242  0.9231  0.6546
35090SOL     OW 8800   6.014   1.274   6.129  0.1564  0.5036  0.4571
35090SOL    HW1 8801   5.970   1.263   6.214 -2.5852 -2.0337 -1.1132
35090SOL    HW2 8802   6.106   1.256   6.148 -0.7422 -2.9409  2.5462
35091SOL     OW 8803  10.642   6.436   7.846  0.1643  0.1450  0.5618
35091SOL    HW1 8804  10.560   6.388   7.833  0.4258  0.3903 -2.8001
35091SOL    HW2 8805  10.704   6.370   7.876 -0.7992 -0.4096  1.4027
35092SOL     OW 8806   7.324   7.037   5.669  0.1563 -0.0805  0.4447
35092SOL    HW1 8807   7.284   6.960   5.627 -2.6963  1.7536 -0.4819
35092SOL    HW2 8808   7.415   7.011   5.684  0.4946 -2.1553 -3.7192
35093SOL     OW 8809   4.141   6.667   1.669 -0.5032 -0.0574 -0.9640
35093SOL    HW1 8810   4.131   6.761   1.682  0.3152 -0.0430 -0.2757
35093SOL    HW2 8811   4.201   6.640   1.739 -1.5952 -1.2848 -0.4623
35094SOL     OW 8812   4.594   1.968   8.054  0.2592 -0.6290 -0.5845
35094SOL    HW1 8813   4.512   1.992   8.012  0.1518  1.2172  0.6077
35094SOL    HW2 8814   4.662   1.997   7.993  0.0680  0.2874 -0.3701
35095SOL     OW 8815   1.360   9.337   4.879 -0.2883 -0.1064 -0.7084
35095SOL    HW1 8816   1.291   9.399   4.905 -1.0901 -1.2777  0.0575
35095SOL    HW2 8817   1.316   9.252   4.878  1.1555 -0.8899 -0.1814
35096SOL     OW 8818   3.128   9.780   1.159  0.5107 -0.4260  0.5848
35096SOL    HW1 8819   3.194   9.799   1.225  0.1902  0.9544  0.5308
35096SOL    HW2 8820   3.046   9.773   1.209  0.3852 -0.1147  0.4258
35097SOL     OW 8821   3.305   1.405   6.466 -0.3683 -0.3690 -0.4931
35097SOL    HW1 8822   3.378   1.433   6.522 -0.7012  0.5983 -0.5188
35097SOL    HW2 8823   3.226   1.432   6.513 -0.7203 -1.5089 -0.4155
35098SOL     OW 8824   4.694   8.113   8.165 -0.2289 -0.1471  0.1138
35098SOL    HW1 8825   4.615   8.107   8.111 -0.0625 -1.0053 -0.0378
35098SOL    HW2 8826   4.756   8.051   8.125  0.7756  1.0007 -0.1872
35099SOL     OW 8827   1.169  11.056  10.324 -0.2177 -0.0385 -0.3427
35099SOL    HW1 8828   1.088  11.052  10.375  2.0234 -2.2948  3.5544
35099SOL    HW2 8829   1.185  11.149  10.311 -2.5549  0.5132  0.2246
35100SOL     OW 8830   1.329  10.821   1.242 -0.1544  0.1346  0.5024
35100SOL    HW1 8831   1.303  10.912   1.254  0.0168  0.3145 -0.4247
35100SOL    HW2 8832   1.282  10.792   1.164 -2.2340 -1.3917  2.1862
35101SOL     OW 8833   7.064   0.346   6.124 -0.0377 -0.1326 -0.3180
35101SOL    HW1 8834   7.062   0.337   6.028  0.6802 -0.2868 -0.3260
35101SOL    HW2 8835   7.145   0.302   6.150 -0.1279  0.0875  0.3452
35102SOL     OW 8836   6.842   6.673   7.540  0.1490 -0.2002 -0.3280
35102SOL    HW1 8837   6.806   6.687   7.627 -0.0152  0.7131 -0.5300
35102SOL    HW2 8838   6.927   6.630   7.555  0.1510  0.0111  0.2772
35103SOL     OW 8839   0.057   0.789   8.516  0.1943 -0.0826 -0.4789
35103SOL    HW1 8840   0.118   0.852   8.479 -1.1274  1.6494  0.0951
35103SOL    HW2 8841   0.103   0.752   8.591  0.3706  1.6046  0.2873
35104SOL     OW 8842   1.734   2.485   2.965  0.3773  0.3611 -0.4699
35104SOL    HW1 8843   1.710   2.406   2.917 -0.7446  0.9499 -0.9008
35104SOL    HW2 8844   1.764   2.454   3.051 -0.9941 -0.4817 -0.2734
35105SOL     OW 8845   7.922   1.449   0.905 -0.2966 -0.4526 -0.6335
35105SOL    HW1 8846   7.970   1.511   0.959  0.2411 -0.7870 -0.7153
35105SOL    HW2 8847   7.959   1.364   0.927 -1.2450 -0.7941 -0.2821
35106SOL     OW 8848   3.393   2.578   0.842 -0.1805 -0.1136 -0.4625
35106SOL    HW1 8849   3.421   2.543   0.926  2.1131 -0.2822 -1.2425
35106SOL    HW2 8850   3.413   2.508   0.779  0.5385  0.9616 -1.4772
35107SOL     OW 8851   7.668   7.341   6.707  0.6901 -0.2312 -0.0736
35107SOL    HW1 8852   7.708   7.281   6.644  0.5100 -0.0073 -0.4002
35107SOL    HW2 8853   7.721   7.330   6.787  0.4330 -1.0969 -0.0117
35108SOL     OW 8854   1.791   2.242   7.796  0.4705 -0.0252  0.0524
35108SOL    HW1 8855   1.763   2.271   7.883 -2.6471  0.2662 -0.9283
35108SOL    HW2 8856   1.832   2.319   7.756 -1.7842  1.1617 -0.1388
35109SOL     OW 8857   7.027   0.082   6.353 -0.1088 -0.1726  0.5353
35109SOL    HW1 8858   6.942   0.081   6.398 -0.9275 -1.2686 -0.9523
35109SOL    HW2 8859   7.005   0.084   6.260  1.5067 -0.4771  0.1147
35110SOL     OW 8860   3.838   5.009   9.789 -0.0314 -0.1073 -0.3812
35110SOL    HW1 8861   3.825   5.042   9.878 -0.6135  0.1963 -0.5800
35110SOL    HW2 8862   3.915   4.952   9.796 -0.1690 -0.2072  0.3449
35111SOL     OW 8863   1.655   4.545   9.153  0.5360 -0.3710 -0.1226
35111SOL    HW1 8864   1.563   4.559   9.177  0.5527 -1.7849  0.8669
35111SOL    HW2 8865   1.703   4.608   9.206  0.2255 -0.4397  0.2439
35112SOL     OW 8866   6.218   3.732  10.657  0.2349  0.1895  0.0491
35112SOL    HW1 8867   6.210   3.750  10.751  0.1371  1.9781 -0.2579
35112SOL    HW2 8868   6.134   3.694  10.632  0.2956 -0.3882  0.7015
35113SOL     OW 8869   3.290   3.648  10.297  0.4423  0.5264 -0.4003
35113SOL    HW1 8870   3.264   3.561  10.328  2.8364 -0.6924 -1.5533
35113SOL    HW2 8871   3.239   3.708  10.351 -1.7937 -1.5561 -0.0049
35114SOL     OW 8872   9.570   6.303   1.787  0.0663  0.7347 -0.0253
35114SOL    HW1 8873   9.507   6.303   1.714  0.0159 -0.2554  0.0046
35114SOL    HW2 8874   9.641   6.246   1.757  0.1940  0.5709  0.5755
35115SOL     OW 8875  10.984   0.779   7.627  0.1179 -0.0265  0.2850
35115SOL    HW1 8876  11.039   0.841   7.579 -0.9239  0.1601 -0.7432
35115SOL    HW2 8877  11.045   0.721   7.672  1.1279  0.5719 -0.2777
35116SOL     OW 8878   4.595   7.104  10.633 -0.1870  0.0534  0.0619
35116SOL    HW1 8879   4.573   7.185  10.586 -1.2726 -0.6961 -0.8051
35116SOL    HW2 8880   4.652   7.056  10.572 -0.6764 -0.4255 -0.0275
35117SOL     OW 8881  10.073   1.785   6.544 -0.0797  0.2431 -0.2487
35117SOL    HW1 8882  10.105   1.758   6.458 -1.8110 -1.2810 -0.4782
35117SOL    HW2 8883   9.979   1.794   6.533 -0.4745 -0.9415  1.6876
35118SOL     OW 8884   1.447  10.077   9.167 -0.3361 -0.6937 -0.2731
35118SOL    HW1 8885   1.486   9.998   9.130  1.8224 -0.0943  0.5902
35118SOL    HW2 8886   1.471  10.074   9.259 -1.3173  0.3588  0.0325
35119SOL     OW 8887  10.912   3.380  10.493  0.6300 -0.1594 -0.0721
35119SOL    HW1 8888  10.938   3.326  10.567  0.8825 -1.0834 -0.8192
35119SOL    HW2 8889  10.912   3.320  10.418 -1.0376  0.4107 -0.5811
35120SOL     OW 8890   1.967   8.725   5.652  0.2315 -0.1168  0.0186
35120SOL    HW1 8891   1.872   8.726   5.639  0.1361 -1.2358  0.5265
35120SOL    HW2 8892   1.978   8.740   5.746  0.4850 -1.4262  0.2084
35121SOL     OW 8893  10.917   8.680   3.470  0.2817  0.0651  0.0201
35121SOL    HW1 8894  10.984   8.619   3.501  0.0561  0.7065  1.9154
35121SOL    HW2 8895  10.834   8.641   3.497  0.1210  1.0355  1.0496
35122SOL     OW 8896   4.673   8.590   0.598 -0.1293  0.1105  0.0296
35122SOL    HW1 8897   4.758   8.634   0.590 -0.1964  0.2834  0.2466
35122SOL    HW2 8898   4.686   8.525   0.667 -0.3093  0.4823  0.4262
35123SOL     OW 8899   6.102   6.158   4.032 -0.4259  0.1462 -0.6587
35123SOL    HW1 8900   6.121   6.107   4.110  0.2297  1.9034  0.3961
35123SOL    HW2 8901   6.112   6.097   3.959 -1.2051 -1.5681  0.6215
35124SOL     OW 8902   1.775   5.568   6.319  0.1168  0.0841  0.9396
35124SOL    HW1 8903   1.772   5.504   6.248 -0.3304  1.0722  0.0260
35124SOL    HW2 8904   1.868   5.591   6.326  0.0649  0.6854 -0.0222
35125SOL     OW 8905   8.832   6.091   2.037  0.1743 -0.0866  0.0642
35125SOL    HW1 8906   8.795   6.028   2.099  0.2960  0.9551  1.2416
35125SOL    HW2 8907   8.845   6.171   2.089  1.0154  0.5791 -1.1213
35126SOL     OW 8908   4.104   8.956   0.898  0.6957  0.2530 -0.2237
35126SOL    HW1 8909   4.166   9.028   0.913  0.7935 -0.1563  1.4440
35126SOL    HW2 8910   4.141   8.909   0.823  3.2578 -0.8064  1.5474
35127SOL     OW 8911   4.453   4.655   4.139  0.0704 -0.4071 -0.2208
35127SOL    HW1 8912   4.512   4.584   4.164 -1.2347 -0.9885  1.4504
35127SOL    HW2 8913   4.410   4.624   4.060 -1.3844 -2.1063  1.1553
35128SOL     OW 8914   6.044   2.692   7.516  0.3742  0.0693 -0.6435
35128SOL    HW1 8915   6.051   2.667   7.608  0.3399 -1.8499 -1.1237
35128SOL    HW2 8916   5.951   2.712   7.504  0.3121 -0.0257 -0.3416
35129SOL     OW 8917   4.624   5.136   7.442  0.3815 -0.0237 -0.1291
35129SOL    HW1 8918   4.621   5.148   7.347 -2.4872  1.5832  0.0131
35129SOL    HW2 8919   4.644   5.224   7.476 -2.9088  0.5299  0.7230
35130SOL     OW 8920  10.266   4.429   8.004  0.0916  0.6469 -0.5082
35130SOL    HW1 8921  10.344   4.384   7.971  0.0128 -0.2307  0.4770
35130SOL    HW2 8922  10.266   4.513   7.958  1.2218  0.3681 -1.0453
35131SOL     OW 8923   0.311   1.958   3.485  0.5960  0.0096  0.2581
35131SOL    HW1 8924   0.266   2.037   3.454  1.1630 -0.0745 -0.7914
35131SOL    HW2 8925   0.342   1.982   3.573 -0.4544  0.4632  0.5281
35132SOL     OW 8926   7.989   8.386   2.420  0.3855 -0.4904 -0.3805
35132SOL    HW1 8927   8.012   8.408   2.330  0.1102 -0.8266 -0.5363
35132SOL    HW2 8928   7.968   8.293   2.417  0.9053 -0.6322  0.1383
35133SOL     OW 8929  10.439   2.635   4.971 -0.0506 -0.1640 -0.3783
35133SOL    HW1 8930  10.424   2.664   5.062 -0.3073 -0.8908 -0.1823
35133SOL    HW2 8931  10.535   2.633   4.962  0.0010  2.1900 -0.8821
35134SOL     OW 8932   4.034   5.616   9.590 -0.2163 -0.0446 -0.2731
35134SOL    HW1 8933   4.043   5.710   9.606 -1.8509 -0.0624  1.0019
35134SOL    HW2 8934   4.101   5.576   9.646  0.5244  0.3450 -0.8632
35135SOL     OW 8935  10.328   9.062   0.788  0.2233  0.3623 -0.8962
35135SOL    HW1 8936  10.336   8.971   0.760  2.8236  0.9704 -2.4911
35135SOL    HW2 8937  10.365   9.063   0.877  0.3592 -0.1099 -0.9442
35136SOL     OW 8938   3.295   0.328  10.507 -0.0705  0.7649  0.0923
35136SOL    HW1 8939   3.330   0.417  10.512 -0.5135  0.8690  2.7304
35136SOL    HW2 8940   3.272   0.317  10.415  1.6123  2.7248 -0.6417
35137SOL     OW 8941   1.533   1.582   7.355 -0.0859  0.4979 -0.1718
35137SOL    HW1 8942   1.628   1.577   7.343 -0.1048  1.4815 -0.9259
35137SOL    HW2 8943   1.498   1.564   7.268 -0.6150 -0.1131  0.1603
35138SOL     OW 8944   3.320   6.006   4.268  0.3797 -0.6944 -0.3275
35138SOL    HW1 8945   3.329   5.985   4.175 -0.1747  0.3329 -0.6369
35138SOL    HW2 8946   3.323   5.922   4.312  1.1969 -1.1603 -1.2262
35139SOL     OW 8947  10.920   1.029   4.527  0.0070 -1.3932 -0.4054
35139SOL    HW1 8948  10.995   1.000   4.474 -0.3700 -1.0319 -1.1569
35139SOL    HW2 8949  10.955   1.101   4.579 -0.5060  0.8906 -3.0094
35140SOL     OW 8950   0.494   1.107   5.081  0.1019  0.2075 -0.5879
35140SOL    HW1 8951   0.444   1.183   5.112 -0.7995 -1.1045  1.3680
35140SOL    HW2 8952   0.427   1.041   5.064  0.9268 -0.3899 -1.5982
35141SOL     OW 8953   1.306   5.928   0.055  0.0423 -0.0986  0.0754
35141SOL    HW1 8954   1.302   5.899   0.146 -0.7211 -0.2016  0.0171
35141SOL    HW2 8955   1.382   5.883   0.019  1.1333  0.9273  0.9886
35142SOL     OW 8956   4.310   6.392   9.011  0.5384  0.6996  0.0352
35142SOL    HW1 8957   4.252   6.380   9.086  0.8781 -1.0584  0.0703
35142SOL    HW2 8958   4.259   6.362   8.936  0.1161  2.6600 -0.5172
35143SOL     OW 8959  10.429   5.283   4.010  0.2814 -0.0832 -0.4393
35143SOL    HW1 8960  10.523   5.284   4.029  0.5177 -0.0641 -1.5680
35143SOL    HW2 8961  10.402   5.192   4.023  0.4811 -0.1116 -0.2324
35144SOL     OW 8962   3.729   2.065   1.284  0.0615 -0.3939 -0.1657
35144SOL    HW1 8963   3.680   2.039   1.363 -1.1300  1.1290 -0.3589
35144SOL    HW2 8964   3.793   1.995   1.272  0.8263 -0.2771  2.6093
35145SOL     OW 8965   1.623   5.355   3.791  0.4176  0.2173 -0.6050
35145SOL    HW1 8966   1.708   5.313   3.781  0.7821  0.7547  0.1578
35145SOL    HW2 8967   1.574   5.330   3.712  1.6868  0.8594 -1.6395
35146SOL     OW 8968   2.998  10.004   3.026 -0.6039 -0.3324  0.5141
35146SOL    HW1 8969   2.930  10.068   3.047 -0.1078 -0.0310  1.2271
35146SOL    HW2 8970   2.961   9.951   2.955 -2.7312 -2.0168  2.7238
35147SOL     OW 8971   6.725   0.692   3.044 -0.0757 -0.4699 -0.0052
35147SOL    HW1 8972   6.783   0.644   2.985  0.0231 -0.4390  0.0659
35147SOL    HW2 8973   6.742   0.784   3.024 -0.2087 -0.4633 -0.0883
35148SOL     OW 8974   1.161   3.295   4.650 -0.0147 -0.4091  0.0294
35148SOL    HW1 8975   1.158   3.381   4.693  1.0195 -0.9244  1.1832
35148SOL    HW2 8976   1.111   3.238   4.708 -0.9428 -0.5566 -0.8825
35149SOL     OW 8977   6.536   9.295   8.871 -0.5510 -0.1393 -0.0441
35149SOL    HW1 8978   6.532   9.378   8.825  0.2187 -0.7938 -1.3427
35149SOL    HW2 8979   6.533   9.228   8.803 -2.2032 -1.2441  1.0202
35150SOL     OW 8980   0.586   2.776   5.306  0.1132  0.1513 -0.1091
35150SOL    HW1 8981   0.679   2.762   5.290  0.3143  1.0695  0.1836
35150SOL    HW2 8982   0.542   2.703   5.262  1.0039 -0.6426  0.2893
35151SOL     OW 8983  10.924   4.630   1.499 -0.1401  0.5660  0.1723
35151SOL    HW1 8984  10.891   4.622   1.409 -0.5065 -0.1102  0.3649
35151SOL    HW2 8985  11.013   4.663   1.488 -0.1147  0.3103 -0.4550
35152SOL     OW 8986   6.497   3.762   2.416 -0.1979  0.6438  0.4252
35152SOL    HW1 8987   6.507   3.742   2.323  1.4760 -1.9603  1.0489
35152SOL    HW2 8988   6.503   3.857   2.421 -0.3855  0.8623 -2.1087
35153SOL     OW 8989   5.371   9.855  10.432 -0.2807 -0.8011 -0.2893
35153SOL    HW1 8990   5.323   9.912  10.491  1.0482  0.2638 -0.1752
35153SOL    HW2 8991   5.381   9.906  10.352  0.1791 -1.2159 -0.5037
35154SOL     OW 8992   8.924   9.555   4.644  0.2591  0.2277  0.2455
35154SOL    HW1 8993   8.856   9.545   4.711  0.0377 -1.2641 -0.1588
35154SOL    HW2 8994   8.952   9.465   4.625  0.7380  0.6697 -1.2471
35155SOL     OW 8995   9.711   1.705   7.464 -0.1292  0.2634  0.8471
35155SOL    HW1 8996   9.701   1.611   7.478 -0.4866  0.2806  0.7215
35155SOL    HW2 8997   9.685   1.718   7.373 -0.6474  0.5664  1.0353
35156SOL     OW 8998   4.890   2.824   4.347  0.3735 -0.2391  0.3900
35156SOL    HW1 8999   4.944   2.865   4.415 -0.4367 -0.2208  1.0432
35156SOL    HW2 9000   4.858   2.897   4.294  0.5785 -0.2021  0.3196
35157SOL     OW 9001   3.169   5.853   1.254 -0.3090 -0.1254  0.2051
35157SOL    HW1 9002   3.207   5.854   1.342 -1.3820  2.3999  0.7219
35157SOL    HW2 9003   3.136   5.764   1.243  2.3668 -1.3337  1.1681
35158SOL     OW 9004   9.266   8.401   9.483 -0.2474 -0.0295  0.0121
35158SOL    HW1 9005   9.314   8.319   9.476 -0.3118  0.0057 -1.0790
35158SOL    HW2 9006   9.331   8.469   9.464 -0.1106  0.2026  1.2731
35159SOL     OW 9007   7.594   2.753   7.076  0.3705 -0.2978  0.4250
35159SOL    HW1 9008   7.564   2.663   7.085 -0.7906  0.1342  1.1774
35159SOL    HW2 9009   7.584   2.791   7.164  1.2539  0.4396  0.2201
35160SOL     OW 9010   8.996   6.699   6.344 -0.4884 -0.0030 -0.1185
35160SOL    HW1 9011   8.905   6.713   6.368  0.0185  1.7657  0.9136
35160SOL    HW2 9012   9.046   6.760   6.398  1.1775  0.3446 -1.9025
35161SOL     OW 9013   9.767   0.187   5.255 -0.3208 -0.7756  0.0757
35161SOL    HW1 9014   9.765   0.209   5.162  0.0551  0.8206  0.4076
35161SOL    HW2 9015   9.860   0.177   5.275 -0.2630  0.6238  0.6210
35162SOL     OW 9016   1.193   3.790   6.799 -0.2892  0.1225 -0.0779
35162SOL    HW1 9017   1.258   3.841   6.848 -1.2291  0.1567  1.1667
35162SOL    HW2 9018   1.219   3.801   6.707  1.7788 -0.3135  0.4028
35163SOL     OW 9019   9.967   6.182   0.234 -0.1817 -0.1657  0.6957
35163SOL    HW1 9020  10.011   6.238   0.171 -0.7089  1.2461  1.5185
35163SOL    HW2 9021  10.023   6.183   0.312 -0.9569  0.5538  1.2736
35164SOL     OW 9022   0.916   5.618   1.218 -0.1346  0.0578  0.2858
35164SOL    HW1 9023   0.920   5.535   1.170 -0.2911  0.1735  0.0742
35164SOL    HW2 9024   0.847   5.605   1.283 -4.1110  1.7879 -3.1387
35165SOL     OW 9025   9.298  10.096   5.419 -0.0401  0.2245  0.2912
35165SOL    HW1 9026   9.358  10.146   5.364  0.0036  0.9239  0.9594
35165SOL    HW2 9027   9.278  10.154   5.492  2.5662 -1.8473  2.8787
35166SOL     OW 9028   2.741   1.673   4.230 -0.0366 -0.1193 -0.1167
35166SOL    HW1 9029   2.760   1.766   4.241 -0.1313 -0.0625 -0.4354
35166SOL    HW2 9030   2.662   1.671   4.176  0.3646 -0.3976 -0.7043
35167SOL     OW 9031   9.153   1.600   4.093  0.3118  0.0054 -0.0585
35167SOL    HW1 9032   9.154   1.695   4.087  0.7332 -0.0531 -1.4401
35167SOL    HW2 9033   9.233   1.572   4.049  1.2857 -0.9447  2.1538
35168SOL     OW 9034   6.580   9.743   2.262  0.5079 -0.5965  0.1306
35168SOL    HW1 9035   6.614   9.748   2.172  1.5274 -0.5827  0.5027
35168SOL    HW2 9036   6.512   9.810   2.266  0.1961 -0.8501 -0.7381
35169SOL     OW 9037   5.248   8.016   6.235  0.1833  0.4041  0.2411
35169SOL    HW1 9038   5.169   7.972   6.204 -0.1319  0.1576  1.3488
35169SOL    HW2 9039   5.231   8.109   6.221  0.4788  0.2425 -1.2661
35170SOL     OW 9040  10.826   2.335   9.493  0.2204 -0.1837  0.0846
35170SOL    HW1 9041  10.771   2.410   9.516 -0.2723 -0.7016  0.6509
35170SOL    HW2 9042  10.898   2.373   9.444  0.3505  0.7561  0.9526
35171SOL     OW 9043   4.781   1.172   8.010 -0.1526  0.2167  0.2035
35171SOL    HW1 9044   4.863   1.124   8.021  0.2122  0.9987  1.0152
35171SOL    HW2 9045   4.729   1.147   8.087  0.2014  1.4111  0.8510
35172SOL     OW 9046  10.827   9.758   7.310  0.2143  1.0226 -0.4725
35172SOL    HW1 9047  10.904   9.784   7.258  0.4131 -0.2462 -0.8518
35172SOL    HW2 9048  10.757   9.816   7.280  1.0624  2.3545  0.0409
35173SOL     OW 9049   9.189   7.861   8.614  0.2008  0.2998  0.2044
35173SOL    HW1 9050   9.124   7.809   8.660  0.9383  0.1087  1.0539
35173SOL    HW2 9051   9.182   7.948   8.653  1.1102  0.0336  0.9924
35174SOL     OW 9052   1.597   3.861   7.467 -0.0002 -0.5061  0.5712
35174SOL    HW1 9053   1.634   3.848   7.555  2.1850  0.1752 -0.1764
35174SOL    HW2 9054   1.668   3.838   7.408 -1.3162 -0.5869 -1.0386
35175SOL     OW 9055   5.665   6.746   6.152 -0.5037  0.0756 -0.1213
35175SOL    HW1 9056   5.752   6.754   6.112 -0.6805 -1.7903 -1.0048
35175SOL    HW2 9057   5.608   6.722   6.079 -1.3997 -0.5668  0.7627
35176SOL     OW 9058   5.381   8.342   9.561 -0.5834  1.0988  0.6005
35176SOL    HW1 9059   5.339   8.257   9.573  1.1071  0.2688  0.9470
35176SOL    HW2 9060   5.390   8.351   9.466  2.8971 -1.0962  0.5595
35177SOL     OW 9061   2.770   0.428   6.721 -0.0731  0.2083  0.6562
35177SOL    HW1 9062   2.742   0.493   6.657 -4.8256 -0.3247  1.8038
35177SOL    HW2 9063   2.767   0.345   6.674  1.3261  0.2810  0.4002
35178SOL     OW 9064   1.353   9.089   3.347 -0.3223  0.2402  0.3929
35178SOL    HW1 9065   1.269   9.125   3.375 -0.4645  0.0059  0.2730
35178SOL    HW2 9066   1.413   9.163   3.347 -0.7816  0.6195 -0.5630
35179SOL     OW 9067   9.366   8.389   2.031  0.3049 -0.7902  0.1878
35179SOL    HW1 9068   9.340   8.312   1.980 -2.5361 -0.6158  1.1881
35179SOL    HW2 9069   9.459   8.398   2.014  0.0491 -2.3513 -2.7683
35180SOL     OW 9070   4.340  10.738   6.602 -0.1076  0.9800 -0.3740
35180SOL    HW1 9071   4.377  10.650   6.611 -0.2897  1.0894  2.3478
35180SOL    HW2 9072   4.252  10.730   6.638 -0.4036  2.1336 -0.8167
35181SOL     OW 9073   0.187   9.622   0.758  0.1971  0.2050  0.3175
35181SOL    HW1 9074   0.193   9.714   0.782  2.1955  0.0078  0.8014
35181SOL    HW2 9075   0.273   9.602   0.720 -0.8346 -1.0105 -1.5299
35182SOL     OW 9076   9.042   5.699   9.401  0.8075 -0.1535 -0.2254
35182SOL    HW1 9077   9.058   5.793   9.412  1.1205 -0.3547  1.2186
35182SOL    HW2 9078   9.119   5.668   9.353  1.6651  0.0030  1.0197
35183SOL     OW 9079   5.363   4.442  11.057  0.8600 -0.0213  0.2104
35183SOL    HW1 9080   5.410   4.509  11.008  0.0011  0.1894 -0.3486
35183SOL    HW2 9081   5.288   4.488  11.095 -0.9407 -1.0117 -1.9070
35184SOL     OW 9082   1.809   7.529   5.980 -0.1425  0.3798 -0.0785
35184SOL    HW1 9083   1.833   7.442   5.946 -2.9262 -0.2236 -0.7514
35184SOL    HW2 9084   1.775   7.575   5.904 -1.1437  1.0931  0.7800
35185SOL     OW 9085   1.030   4.936   6.924  0.1682  0.0890 -0.2068
35185SOL    HW1 9086   1.072   5.022   6.932  0.6390 -0.3181  2.4606
35185SOL    HW2 9087   1.018   4.906   7.014 -1.9568 -1.7348 -0.9972
35186SOL     OW 9088   3.384   9.292   6.220 -0.2127  0.1813  0.0252
35186SOL    HW1 9089   3.453   9.289   6.153  0.0439 -0.5758  0.3233
35186SOL    HW2 9090   3.409   9.365   6.276  0.4976 -0.2581  0.2903
35187SOL     OW 9091   8.622   2.421   1.689  0.4505 -0.2496  0.5761
35187SOL    HW1 9092   8.539   2.433   1.644  0.1777 -1.0015  0.8704
35187SOL    HW2 9093   8.665   2.350   1.643  0.3794 -0.7068  1.1989
35188SOL     OW 9094   9.658  11.112   9.521 -0.1042 -0.6803 -0.3847
35188SOL    HW1 9095   9.611  11.059   9.456 -1.2181  0.5916 -0.6745
35188SOL    HW2 9096   9.719  11.051   9.562  0.5624 -1.5587 -2.5400
35189SOL     OW 9097   1.850   5.738   3.346 -0.2625  0.1664  0.3249
35189SOL    HW1 9098   1.886   5.658   3.385  0.1937 -0.0993 -0.6043
35189SOL    HW2 9099   1.758   5.717   3.329 -0.0557 -0.3216 -0.2705
35190SOL     OW 9100   3.064   4.762   3.672  0.3107 -0.0767 -0.5953
35190SOL    HW1 9101   3.125   4.698   3.637 -0.0591 -0.0140 -1.3610
35190SOL    HW2 9102   3.008   4.712   3.732  1.5099 -0.0103  0.6149
35191SOL     OW 9103   8.498   2.084   3.418  0.1362  0.8923 -0.6063
35191SOL    HW1 9104   8.565   2.020   3.394  3.0641  3.6398 -0.4867
35191SOL    HW2 9105   8.457   2.048   3.496  1.7160 -0.8033 -0.4941
35192SOL     OW 9106   4.933   8.115   1.001  0.1942 -0.4068 -0.1542
35192SOL    HW1 9107   4.887   8.044   1.046  1.1022 -1.0337 -0.1766
35192SOL    HW2 9108   5.015   8.124   1.049 -0.2970  1.3056  0.4440
35193SOL     OW 9109   0.018  10.729   1.882  0.2396 -0.2627  0.0874
35193SOL    HW1 9110  -0.076  10.729   1.865  0.3725  2.4272 -1.1940
35193SOL    HW2 9111   0.028  10.681   1.964 -2.7303  2.3387  2.2072
35194SOL     OW 9112   1.643   7.400   4.015  0.0310 -0.3007 -0.0691
35194SOL    HW1 9113   1.646   7.310   4.049 -0.7378  0.2309  1.5108
35194SOL    HW2 9114   1.726   7.438   4.042  0.3067 -0.4906 -0.6356
35195SOL     OW 9115   0.786   6.528  10.925 -0.1876  0.0841  0.1502
35195SOL    HW1 9116   0.874   6.562  10.909  0.1549 -1.7279 -2.4462
35195SOL    HW2 9117   0.729   6.605  10.923  1.1219  1.0684 -0.0770
35196SOL     OW 9118   5.933   3.463  10.066 -0.9263 -0.2254  0.2837
35196SOL    HW1 9119   5.907   3.410  10.141 -1.3204  1.8096  1.6548
35196SOL    HW2 9120   5.990   3.405  10.014 -0.0120 -1.4519  2.5239
35197SOL     OW 9121  10.382   1.212   0.979 -0.3245  0.2841  0.5052
35197SOL    HW1 9122  10.337   1.255   0.906 -0.3017  1.8611  1.3685
35197SOL    HW2 9123  10.461   1.176   0.940 -0.8280  0.1712 -0.4432
35198SOL     OW 9124   2.851   4.038   4.554  0.4282  0.0380 -0.5463
35198SOL    HW1 9125   2.893   3.975   4.614 -0.4979  0.0025  0.0840
35198SOL    HW2 9126   2.888   4.123   4.579 -0.0685  0.0453  0.2010
35199SOL     OW 9127  10.952   2.169   7.689  0.5541  0.2321 -0.0855
35199SOL    HW1 9128  10.887   2.117   7.641  0.4004  0.2558  0.0944
35199SOL    HW2 9129  10.930   2.155   7.781  2.3412 -1.7610  0.0942
35200SOL     OW 9130   8.719  10.553   6.619 -0.3283  0.2531 -0.0972
35200SOL    HW1 9131   8.761  10.471   6.644 -0.6041 -0.0376 -0.5832
35200SOL    HW2 9132   8.628  10.544   6.648 -1.2408 -0.9828 -3.0665
35201SOL     OW 9133  10.426   7.231   9.753  0.1538  0.2646  0.1067
35201SOL    HW1 9134  10.502   7.217   9.810 -0.3541  0.1503  0.7824
35201SOL    HW2 9135  10.463   7.246   9.666  0.9618  0.5431  0.4823
35202SOL     OW 9136   7.394   9.094   7.256 -0.2384  0.0079  0.1886
35202SOL    HW1 9137   7.374   9.025   7.319  0.2064  0.8160  1.2527
35202SOL    HW2 9138   7.332   9.164   7.276 -2.2487 -0.8893 -2.3778
35203SOL     OW 9139   8.513   5.439   7.920 -0.1540  0.4565 -0.1805
35203SOL    HW1 9140   8.556   5.486   7.849  1.4011  0.0621  0.4574
35203SOL    HW2 9141   8.456   5.504   7.961 -0.6554  0.8327 -1.4240
35204SOL     OW 9142   8.264   5.331   0.789 -0.0535  0.0420 -0.3838
35204SOL    HW1 9143   8.263   5.312   0.696 -3.8474 -1.5285 -0.2030
35204SOL    HW2 9144   8.244   5.247   0.831 -1.7603  1.3188  1.5611
35205SOL     OW 9145   2.592   3.918  10.748 -0.2925 -0.2900 -0.3348
35205SOL    HW1 9146   2.528   3.850  10.770  0.0411 -0.3202  0.5926
35205SOL    HW2 9147   2.674   3.870  10.733 -0.2641 -0.1698 -0.5685
35206SOL     OW 9148   5.409   5.183   5.362 -0.3086 -0.1625  0.5525
35206SOL    HW1 9149   5.346   5.246   5.328  0.2830  0.7520  1.1009
35206SOL    HW2 9150   5.429   5.126   5.288  0.4436  1.3582 -0.4521
35207SOL     OW 9151   4.560   8.634   1.325  0.3972  0.2878 -0.4283
35207SOL    HW1 9152   4.644   8.674   1.349  1.4808 -1.4310 -1.1230
35207SOL    HW2 9153   4.570   8.542   1.351 -0.4578 -0.4130 -2.3839
35208SOL     OW 9154   6.788   1.596   7.175 -0.3469  0.4051 -0.1615
35208SOL    HW1 9155   6.858   1.661   7.183  0.1458 -0.0518 -0.7059
35208SOL    HW2 9156   6.832   1.512   7.187 -0.4937  0.0123 -2.1778
35209SOL     OW 9157   7.916   2.856   2.655 -0.0522  0.7173 -0.5919
35209SOL    HW1 9158   7.998   2.878   2.699 -0.3077  0.0888  0.2355
35209SOL    HW2 9159   7.859   2.932   2.671  0.1307  0.8459 -0.5515
35210SOL     OW 9160  10.783   1.269   9.126  0.8486 -0.6009 -0.6280
35210SOL    HW1 9161  10.808   1.316   9.206  1.6566 -1.0071 -0.6352
35210SOL    HW2 9162  10.826   1.318   9.055 -1.1484  0.7341 -1.0286
35211SOL     OW 9163   1.861   7.336   6.489 -0.9537 -0.2229  0.3052
35211SOL    HW1 9164   1.904   7.284   6.421 -0.0938 -0.3911  0.9735
35211SOL    HW2 9165   1.819   7.272   6.546 -1.1127 -0.1117  0.3132
35212SOL     OW 9166   5.052   2.628   8.485 -0.0368  0.2642 -0.0063
35212SOL    HW1 9167   5.065   2.545   8.439  0.6316  1.5150 -2.2391
35212SOL    HW2 9168   5.137   2.671   8.483 -0.2323  0.7961  1.6267
35213SOL     OW 9169   0.286   6.311   9.736  0.2220  0.2720  0.2890
35213SOL    HW1 9170   0.230   6.371   9.686  0.9589  0.8023  0.0814
35213SOL    HW2 9171   0.342   6.270   9.670 -0.6124 -1.0581  0.3575
35214SOL     OW 9172   2.671   6.647   9.066  0.1068  0.2478 -0.2213
35214SOL    HW1 9173   2.764   6.643   9.045  0.1596  0.0091  0.0408
35214SOL    HW2 9174   2.629   6.590   9.001  0.3890 -1.3363  0.9283
35215SOL     OW 9175   4.403   8.210   4.428 -0.6818  0.5993  0.2551
35215SOL    HW1 9176   4.403   8.306   4.428  0.8161  0.7086  3.0803
35215SOL    HW2 9177   4.496   8.186   4.427 -0.9455 -0.7171  2.1711
35216SOL     OW 9178   3.021   3.398   5.959 -0.5305 -0.5860  0.1615
35216SOL    HW1 9179   3.065   3.321   5.995  0.3087 -0.5644 -0.7497
35216SOL    HW2 9180   2.936   3.366   5.930 -0.9200 -0.7608  1.4458
35217SOL     OW 9181   5.770   5.897   5.630  0.2762  0.2032 -0.2716
35217SOL    HW1 9182   5.825   5.903   5.708 -0.7579 -2.5348  0.7804
35217SOL    HW2 9183   5.827   5.859   5.563  0.4690  0.1279 -0.0662
35218SOL     OW 9184   7.930   0.761   4.287 -0.3772  0.1956  0.1251
35218SOL    HW1 9185   7.850   0.708   4.287 -1.4950  1.5796 -3.4882
35218SOL    HW2 9186   7.970   0.744   4.372 -3.1140 -2.6393  1.0397
35219SOL     OW 9187   2.513   2.840   9.651  0.0321  0.6201 -0.3940
35219SOL    HW1 9188   2.486   2.754   9.683  0.1655  1.2399  1.5002
35219SOL    HW2 9189   2.492   2.838   9.558 -1.8613 -0.7446 -0.0162
35220SOL     OW 9190   1.058   9.074   9.030 -1.1886  0.6818  0.2410
35220SOL    HW1 9191   1.071   9.023   8.951 -0.1316  1.7412 -0.3129
35220SOL    HW2 9192   1.064   9.011   9.101 -0.3530 -0.0290 -0.4416
35221SOL     OW 9193   3.459   6.141   1.273  0.1386 -0.3932 -0.2303
35221SOL    HW1 9194   3.432   6.162   1.362 -0.4658 -0.9424 -0.2770
35221SOL    HW2 9195   3.512   6.062   1.283 -0.1164 -0.5828 -0.3835
35222SOL     OW 9196   4.983   6.694   3.842  0.2017  0.0968  0.3850
35222SOL    HW1 9197   5.004   6.787   3.853 -0.8279  0.8056 -2.7032
35222SOL    HW2 9198   4.889   6.692   3.826 -0.2909 -1.8379  2.8227
35223SOL     OW 9199   0.855   8.320   1.677  0.8398  0.5841 -0.0251
35223SOL    HW1 9200   0.933   8.375   1.690  1.7786 -0.5512 -0.6433
35223SOL    HW2 9201   0.847   8.272   1.759  0.1835  1.4230  0.4121
35224SOL     OW 9202   5.530   9.274   6.585  0.0835 -0.5137  0.0249
35224SOL    HW1 9203   5.500   9.266   6.495 -1.1636 -2.3148  0.5538
35224SOL    HW2 9204   5.540   9.184   6.616  1.2505  0.0540  1.4563
35225SOL     OW 9205   0.150   8.881   3.000 -0.0207 -0.3441 -0.5108
35225SOL    HW1 9206   0.231   8.836   3.023  0.6278 -0.3036 -2.5112
35225SOL    HW2 9207   0.156   8.967   3.043  0.7211 -0.5485 -0.1994
35226SOL     OW 9208   0.712   3.706   6.343  0.4798 -0.5877 -0.4745
35226SOL    HW1 9209   0.652   3.717   6.270  0.1231  0.5632 -0.0250
35226SOL    HW2 9210   0.766   3.785   6.343  2.2191 -1.7272 -1.0452
35227SOL     OW 9211  10.681   0.202   6.439 -0.1282  0.2759 -0.8224
35227SOL    HW1 9212  10.768   0.235   6.421  0.3086 -0.1713  0.3687
35227SOL    HW2 9213  10.643   0.186   6.352  1.1762 -0.0687 -1.3513
35228SOL     OW 9214   1.534   5.690   5.308  0.2169 -0.7441 -0.0128
35228SOL    HW1 9215   1.448   5.677   5.267 -1.0050  0.6943  1.8880
35228SOL    HW2 9216   1.540   5.620   5.373 -0.8691  0.7233  1.7857
35229SOL     OW 9217   5.998  10.202   8.770 -0.3890  0.1096  0.7059
35229SOL    HW1 9218   6.023  10.292   8.791 -1.9395  0.6835  0.2094
35229SOL    HW2 9219   6.063  10.148   8.815  0.5494  1.4678  1.0351
35230SOL     OW 9220   3.895   6.181  10.116  0.0995  0.4737  0.4264
35230SOL    HW1 9221   3.829   6.176  10.047  0.8412  3.6293 -0.6662
35230SOL    HW2 9222   3.854   6.138  10.191 -2.1565  0.0576 -0.9459
35231SOL     OW 9223   4.928   2.730   1.764  0.2984 -0.1707  0.4093
35231SOL    HW1 9224   4.846   2.772   1.736  0.6902 -0.1802 -0.8286
35231SOL    HW2 9225   4.900   2.649   1.806 -0.4420  1.0415  2.3564
35232SOL     OW 9226   2.091   0.501  10.888  0.3496  0.6745  0.1268
35232SOL    HW1 9227   2.050   0.588  10.893 -1.0462  0.0127  1.0234
35232SOL    HW2 9228   2.045   0.450  10.954 -0.7410 -1.5162 -2.1772
35233SOL     OW 9229   9.247  10.015   9.588  0.0514  0.9886 -0.6276
35233SOL    HW1 9230   9.268  10.108   9.579 -0.2278  0.8236 -4.1665
35233SOL    HW2 9231   9.155  10.013   9.616 -0.9240  1.8960 -3.4895
35234SOL     OW 9232   2.091   9.180   7.005 -0.1259 -0.4124  0.1232
35234SOL    HW1 9233   2.176   9.201   7.043 -0.3719  2.6956 -0.7517
35234SOL    HW2 9234   2.089   9.084   7.002  2.8983 -0.6164  1.0628
35235SOL     OW 9235   7.159   4.399  10.239  0.1610 -0.4842  0.0128
35235SOL    HW1 9236   7.148   4.460  10.312  0.9252 -0.8470  0.4396
35235SOL    HW2 9237   7.252   4.401  10.220 -0.0493 -0.2512 -1.0974
35236SOL     OW 9238   9.148   2.089   6.475  0.2414  0.3739 -0.1028
35236SOL    HW1 9239   9.124   2.016   6.532  1.2850 -0.2609 -0.4417
35236SOL    HW2 9240   9.152   2.165   6.533 -1.8625  0.3971  0.0783
35237SOL     OW 9241   1.387   0.881   8.318 -0.1461  0.5440 -0.4118
35237SOL    HW1 9242   1.351   0.793   8.321  2.3791 -0.5580 -0.2089
35237SOL    HW2 9243   1.403   0.898   8.225 -0.9187  0.9190 -0.4783
35238SOL     OW 9244   3.737   1.230   9.692 -0.4303 -0.3089 -0.3466
35238SOL    HW1 9245   3.825   1.204   9.722 -0.5985 -0.7995 -0.2717
35238SOL    HW2 9246   3.726   1.186   9.608 -1.4911 -2.1402  0.6861
35239SOL     OW 9247  11.039   0.131   6.581  0.2000  0.3578  0.1847
35239SOL    HW1 9248  11.007   0.160   6.666  0.3625 -0.2345  0.4558
35239SOL    HW2 9249  11.029   0.207   6.524 -3.6519 -0.3279 -0.3390
35240SOL     OW 9250   2.960   9.764   4.291  0.3666  0.1249 -0.0713
35240SOL    HW1 9251   3.024   9.697   4.267  0.3486  0.5890 -1.5564
35240SOL    HW2 9252   2.962   9.826   4.218 -1.7007  0.2001 -0.1359
35241SOL     OW 9253   4.584   5.804   3.675 -0.1415 -0.3856 -0.0854
35241SOL    HW1 9254   4.590   5.727   3.619 -0.1239  0.7831 -1.7754
35241SOL    HW2 9255   4.668   5.809   3.719 -0.2773 -1.5241  0.3303
35242SOL     OW 9256   5.830   5.700  11.018  0.0911 -0.1719  0.2725
35242SOL    HW1 9257   5.873   5.777  10.981  0.4395  1.0965  3.1088
35242SOL    HW2 9258   5.898   5.633  11.019  0.4106  0.1356 -0.2037
35243SOL     OW 9259   9.922   7.307   4.648  0.3394 -0.0032  0.0145
35243SOL    HW1 9260   9.914   7.322   4.743  0.6584  1.9248 -0.2232
35243SOL    HW2 9261   9.939   7.393   4.612  0.9638 -0.8195 -1.7466
35244SOL     OW 9262  11.085   3.905   9.853 -0.3122  0.1540  0.5226
35244SOL    HW1 9263  10.991   3.905   9.869 -0.2473  0.5812  0.9188
35244SOL    HW2 9264  11.105   3.814   9.829 -0.8827  0.1444  0.0523
35245SOL     OW 9265   2.201   4.411   7.111 -0.1075  0.1226 -0.0281
35245SOL    HW1 9266   2.179   4.496   7.150  0.8213 -0.4372  1.8310
35245SOL    HW2 9267   2.128   4.354   7.135  0.1258 -0.0470  0.2832
35246SOL     OW 9268   7.327   8.807   2.325 -0.1243 -0.2608 -0.1952
35246SOL    HW1 9269   7.239   8.790   2.359 -1.2219  1.1953 -2.0921
35246SOL    HW2 9270   7.357   8.884   2.374  0.1434 -0.7941  0.4960
35247SOL     OW 9271   1.226   1.990   2.948  0.2736  0.2505  0.4048
35247SOL    HW1 9272   1.306   1.938   2.962  0.3950 -0.0152 -1.0860
35247SOL    HW2 9273   1.238   2.067   3.004  0.6166 -0.7622  1.7821
35248SOL     OW 9274   9.266   0.893   1.847  0.2201 -0.0744 -0.3802
35248SOL    HW1 9275   9.191   0.861   1.898  1.0589 -0.1693  0.8402
35248SOL    HW2 9276   9.233   0.971   1.803 -0.1208  1.0358  1.6755
35249SOL     OW 9277   7.842   9.581   5.201 -0.0870  0.2629  0.1348
35249SOL    HW1 9278   7.912   9.603   5.262  0.6001  1.4589 -1.0368
35249SOL    HW2 9279   7.874   9.610   5.115 -0.9357 -1.5380 -0.8569
35250SOL     OW 9280   0.491  10.282   3.861  0.0507  0.1678  0.4461
35250SOL    HW1 9281   0.576  10.242   3.846  0.6353  0.8099  1.9194
35250SOL    HW2 9282   0.505  10.375   3.845 -0.4365  0.2585  0.5167
35251SOL     OW 9283   1.245   2.545   0.448  0.3638  0.0552 -0.8054
35251SOL    HW1 9284   1.216   2.505   0.365 -0.2877  1.2831 -1.2032
35251SOL    HW2 9285   1.241   2.640   0.431 -0.5137  0.3475  0.8777
35252SOL     OW 9286   1.849   8.979   5.901  0.2456 -0.0545  0.0186
35252SOL    HW1 9287   1.755   8.958   5.903 -0.2276  1.5522 -1.8643
35252SOL    HW2 9288   1.870   9.003   5.991 -1.1526 -0.4824  0.4839
35253SOL     OW 9289   1.414   4.867   4.411  0.5312 -0.2019  0.3241
35253SOL    HW1 9290   1.324   4.900   4.405  0.9822  1.0404  0.0693
35253SOL    HW2 9291   1.438   4.845   4.322  0.4204 -0.7289  0.4204
35254SOL     OW 9292   1.360   9.426   8.577 -0.8194  0.0263  0.2108
35254SOL    HW1 9293   1.441   9.411   8.528  1.2020  0.6410  3.1167
35254SOL    HW2 9294   1.290   9.415   8.512  1.6041  0.6992 -2.7226
35255SOL     OW 9295   0.662   9.480   2.134  0.6049  0.2348  0.2173
35255SOL    HW1 9296   0.699   9.566   2.153  4.0235 -1.4335  2.3051
35255SOL    HW2 9297   0.695   9.459   2.046 -0.4639  1.0850 -0.4129
35256SOL     OW 9298   6.983  10.005   2.529 -0.1883 -0.2295  0.0612
35256SOL    HW1 9299   6.927   9.938   2.567 -2.1725  1.3927  0.1608
35256SOL    HW2 9300   6.980   9.989   2.435 -1.4859  0.3100 -0.0007
35257SOL     OW 9301   2.303   3.920   7.285 -0.2045 -0.2324 -0.0511
35257SOL    HW1 9302   2.352   3.879   7.214  0.5831 -1.5690  1.2026
35257SOL    HW2 9303   2.216   3.881   7.280  0.0070 -0.7167  0.0347
35258SOL     OW 9304   6.431   0.042  10.787 -0.0172  0.3562  0.6162
35258SOL    HW1 9305   6.354   0.039  10.844  0.6684  0.1213  1.5733
35258SOL    HW2 9306   6.493   0.098  10.835  0.1474  1.1536 -0.4879
35259SOL     OW 9307   9.840   7.584  10.454 -0.3247  0.0594  1.1048
35259SOL    HW1 9308   9.853   7.523  10.381 -1.6278  1.9790 -0.8530
35259SOL    HW2 9309   9.863   7.533  10.532  2.3701 -1.7140 -0.6679
35260SOL     OW 9310   9.468   7.061  10.130 -0.1683 -0.2378 -0.3362
35260SOL    HW1 9311   9.540   7.092  10.074 -0.8448 -0.6880 -1.4836
35260SOL    HW2 9312   9.506   7.057  10.218  0.5089  1.9262 -0.4608
35261SOL     OW 9313   3.743   3.186   9.462  0.9748 -0.0158  0.1334
35261SOL    HW1 9314   3.779   3.155   9.545  1.4533 -0.2006 -0.1334
35261SOL    HW2 9315   3.748   3.281   9.467  1.1057 -0.0297  0.2749
35262SOL     OW 9316   0.759  10.110   5.286  0.0060  0.0953  0.1431
35262SOL    HW1 9317   0.836  10.072   5.330 -1.0254 -0.7893  1.2471
35262SOL    HW2 9318   0.738  10.049   5.216 -0.2800 -0.1980  0.4783
35263SOL     OW 9319  10.242  10.570   3.735  0.4720  0.5793  0.1586
35263SOL    HW1 9320  10.307  10.585   3.803  1.1813 -0.0697 -0.3591
35263SOL    HW2 9321  10.262  10.634   3.667  0.1069  0.8671  0.3214
35264SOL     OW 9322  10.527   7.200  10.214  0.0710  0.4396  0.5926
35264SOL    HW1 9323  10.526   7.137  10.142  1.3582 -1.1288  1.8749
35264SOL    HW2 9324  10.438   7.235  10.217 -1.1232 -2.3865  0.7394
35265SOL     OW 9325  10.547   2.373   1.742 -0.2018 -0.0308  0.1210
35265SOL    HW1 9326  10.633   2.341   1.714  0.0163  0.8732 -0.3000
35265SOL    HW2 9327  10.565   2.432   1.815 -0.5412 -0.4553  0.5510
35266SOL     OW 9328   1.045  10.391   7.318 -0.0710 -0.1187 -0.0018
35266SOL    HW1 9329   0.997  10.393   7.235 -1.6275 -1.2724  0.8476
35266SOL    HW2 9330   0.994  10.335   7.376  2.8717 -2.4502  0.6226
35267SOL     OW 9331   8.283   3.204   7.073 -0.1072  0.3868  0.0387
35267SOL    HW1 9332   8.265   3.249   6.990 -0.1812 -0.9071 -0.6820
35267SOL    HW2 9333   8.214   3.137   7.078 -0.3035  0.6701  1.3235
35268SOL     OW 9334   8.031   4.704   0.747 -0.0794  0.1062  0.0681
35268SOL    HW1 9335   8.120   4.679   0.722  0.3375  0.3337  1.2532
35268SOL    HW2 9336   8.002   4.763   0.677  0.7170  0.0560 -0.3109
35269SOL     OW 9337  10.099   7.132   9.486  0.1969  0.5759 -0.2710
35269SOL    HW1 9338  10.035   7.143   9.416 -0.5683 -3.8258 -0.5268
35269SOL    HW2 9339  10.052   7.086   9.555  1.5422  2.8288  2.3261
35270SOL     OW 9340  10.526   6.763   5.448 -0.3608 -0.0968  0.2444
35270SOL    HW1 9341  10.450   6.768   5.390 -1.3793 -0.5191  1.4797
35270SOL    HW2 9342  10.526   6.846   5.495  0.4749  0.2576 -0.3669
35271SOL     OW 9343   1.633   3.435   8.502 -0.1340 -0.1301  0.5978
35271SOL    HW1 9344   1.554   3.481   8.472  0.5872  0.7536 -0.0026
35271SOL    HW2 9345   1.613   3.411   8.593 -0.1456  2.3682  1.3263
35272SOL     OW 9346   1.908   7.539   6.838 -0.1664 -0.1253 -0.5293
35272SOL    HW1 9347   1.899   7.500   6.925 -1.5583  0.5441 -0.3463
35272SOL    HW2 9348   1.818   7.556   6.810  0.3288  1.8421 -1.0865
35273SOL     OW 9349   4.165   1.842   6.121  0.5416 -0.6074 -0.1696
35273SOL    HW1 9350   4.098   1.848   6.053  0.1865 -0.6270  0.1752
35273SOL    HW2 9351   4.158   1.924   6.169  0.5767 -0.7235  0.0376
35274SOL     OW 9352   7.308   1.092   0.808 -0.3487  0.0554  0.0088
35274SOL    HW1 9353   7.259   1.173   0.818 -1.4413 -0.8210  2.2576
35274SOL    HW2 9354   7.244   1.029   0.775 -0.6275 -0.8983  2.2248
35275SOL     OW 9355   1.932   7.904   3.604  0.6858  0.4860  0.4812
35275SOL    HW1 9356   1.994   7.919   3.676 -1.7487  1.7988  2.4772
35275SOL    HW2 9357   1.902   7.991   3.579  0.3823 -0.0533 -1.1533
35276SOL     OW 9358   8.084   8.348   0.777  0.1917  0.0214  0.4398
35276SOL    HW1 9359   8.068   8.388   0.862  0.5410  1.6994 -0.2420
35276SOL    HW2 9360   8.164   8.391   0.745 -0.6184  0.3445 -1.2597
35277SOL     OW 9361   2.134  10.297   9.542  0.1411 -0.1100 -0.2636
35277SOL    HW1 9362   2.110  10.284   9.634  0.5240 -0.5569 -0.2236
35277SOL    HW2 9363   2.200  10.366   9.544  0.0554 -0.0291 -0.2164
35278SOL     OW 9364   1.577   2.205   9.976  0.0023 -0.0636 -0.4204
35278SOL    HW1 9365   1.602   2.176   9.889  0.7341 -0.0134 -0.2321
35278SOL    HW2 9366   1.482   2.192   9.980  0.0773 -0.7816 -0.9460
35279SOL     OW 9367   2.953   3.287   4.700  0.2360 -0.0770  0.4261
35279SOL    HW1 9368   2.871   3.336   4.703  0.1647 -0.1761  0.1263
35279SOL    HW2 9369   2.941   3.216   4.762  0.0958 -0.0917  0.3817
35280SOL     OW 9370   5.112   7.484   1.117  0.1809 -0.1297 -0.6549
35280SOL    HW1 9371   5.205   7.506   1.125 -0.1114  0.6683  1.0411
35280SOL    HW2 9372   5.090   7.442   1.200 -1.0367 -0.0511 -0.9188
35281SOL     OW 9373   2.741   5.372   0.923  0.2068 -0.5876  0.1563
35281SOL    HW1 9374   2.659   5.387   0.876 -0.2364 -0.1572  1.0163
35281SOL    HW2 9375   2.784   5.301   0.877 -0.6826 -0.8504 -0.2812
35282SOL     OW 9376  10.611   6.679   5.168 -0.3139  0.2099 -0.3437
35282SOL    HW1 9377  10.688   6.684   5.225 -0.3636 -1.7283 -0.0393
35282SOL    HW2 9378  10.575   6.768   5.168  0.9500  0.7638  0.8565
35283SOL     OW 9379   5.016   2.589   4.298  0.2064 -0.0698  0.7400
35283SOL    HW1 9380   5.093   2.639   4.267 -1.6858  0.1338 -4.7636
35283SOL    HW2 9381   4.947   2.655   4.308 -0.5444 -0.7992  0.4627
35284SOL     OW 9382   3.446   4.055   6.836 -0.0651 -0.1440 -0.1845
35284SOL    HW1 9383   3.395   4.114   6.781 -0.0462 -1.2119 -1.3784
35284SOL    HW2 9384   3.532   4.096   6.842 -0.0887  0.0190 -0.8930
35285SOL     OW 9385  10.989   9.685   5.398  0.5469  0.2384 -0.1023
35285SOL    HW1 9386  10.914   9.738   5.424  1.7405  1.6009  0.7348
35285SOL    HW2 9387  10.953   9.598   5.382 -1.6094  1.3598 -2.0757
35286SOL     OW 9388   3.565   9.866  11.016 -0.2698  0.4514 -0.8192
35286SOL    HW1 9389   3.547   9.953  11.053 -2.0637  0.0123 -0.5872
35286SOL    HW2 9390   3.502   9.858  10.944  0.8816 -0.0754 -1.7913
35287SOL     OW 9391   3.658   6.586   7.259  0.1269 -0.1313 -0.0338
35287SOL    HW1 9392   3.670   6.503   7.214 -0.3872 -0.7442  0.9271
35287SOL    HW2 9393   3.581   6.573   7.314 -1.1286  1.6181 -1.2821
35288SOL     OW 9394   4.241   0.719   5.039 -0.0798  0.1634 -0.3555
35288SOL    HW1 9395   4.146   0.726   5.034 -0.0979  0.0938 -0.1067
35288SOL    HW2 9396   4.272   0.741   4.951 -0.2374  1.6039 -0.0775
35289SOL     OW 9397   0.652  10.008   3.421 -0.0704  0.1615 -0.0604
35289SOL    HW1 9398   0.736   9.963   3.417 -1.5613 -2.7850 -1.5963
35289SOL    HW2 9399   0.645  10.055   3.338  0.7142  1.9307  0.8055
35290SOL     OW 9400   2.617   5.757   7.755 -0.2650  0.3473 -0.4808
35290SOL    HW1 9401   2.588   5.714   7.836 -0.0315 -0.0390 -0.6020
35290SOL    HW2 9402   2.645   5.686   7.698 -2.0946  0.4351 -1.5983
35291SOL     OW 9403   9.957   6.172   3.995  0.2876  0.2557 -0.5701
35291SOL    HW1 9404   9.913   6.185   4.079  2.3113  0.9152  0.4685
35291SOL    HW2 9405   9.933   6.083   3.969  1.1303 -0.7210  1.7128
35292SOL     OW 9406  10.895   4.692   7.098 -0.1029 -0.0309  0.0907
35292SOL    HW1 9407  10.872   4.743   7.020 -1.5090  0.3303  0.6980
35292SOL    HW2 9408  10.842   4.613   7.092  1.1751 -0.8763 -0.2401
35293SOL     OW 9409   5.910   2.799   4.130  0.1170  0.2525  0.0291
35293SOL    HW1 9410   5.842   2.859   4.161  0.5276  0.6746  0.1268
35293SOL    HW2 9411   5.896   2.718   4.178 -1.3203 -0.2195 -1.1030
35294SOL     OW 9412   9.458   6.306   4.321 -0.0806 -0.0016  0.0877
35294SOL    HW1 9413   9.505   6.387   4.340 -0.4967 -0.0201  1.2741
35294SOL    HW2 9414   9.367   6.333   4.308 -0.2871 -0.2978  0.8383
35295SOL     OW 9415   3.700   0.399   6.484 -0.1071  0.9548 -0.4346
35295SOL    HW1 9416   3.617   0.409   6.530  0.4763  1.7383  0.4586
35295SOL    HW2 9417   3.767   0.425   6.547  1.1104 -2.4913 -0.0599
35296SOL     OW 9418   0.882   1.994   3.033 -0.0268 -0.0584 -0.2771
35296SOL    HW1 9419   0.866   2.089   3.037 -1.0005 -0.2216 -0.1872
35296SOL    HW2 9420   0.954   1.980   3.095  3.2945  1.2148 -3.4402
35297SOL     OW 9421   4.159   0.737   6.430  0.6011  0.0544  0.3740
35297SOL    HW1 9422   4.219   0.686   6.484  0.5818  1.0287  1.3687
35297SOL    HW2 9423   4.209   0.815   6.405  0.1264  0.3176  0.2342
35298SOL     OW 9424   9.840  10.243   4.240  0.2068 -0.0913 -0.3382
35298SOL    HW1 9425   9.773  10.234   4.172 -0.3179 -0.8560  0.2633
35298SOL    HW2 9426   9.790  10.246   4.322  0.6926  2.7034 -0.0552
35299SOL     OW 9427   8.286   5.656   9.168  0.0580  0.2970  0.2731
35299SOL    HW1 9428   8.308   5.648   9.261  1.3831 -0.2441 -0.0667
35299SOL    HW2 9429   8.235   5.578   9.148  2.7180 -1.4321 -0.2205
35300SOL     OW 9430   7.077  10.879   4.490 -0.4227 -0.1623  0.0777
35300SOL    HW1 9431   7.161  10.850   4.525  0.5040  3.8142  1.7188
35300SOL    HW2 9432   7.022  10.894   4.566 -1.6762 -0.1095 -0.8008
35301SOL     OW 9433   0.621   3.903   9.987 -0.2349  0.4153 -0.0216
35301SOL    HW1 9434   0.539   3.909   9.939  0.5815  0.7478 -1.4033
35301SOL    HW2 9435   0.688   3.893   9.920  0.8253 -0.2889  1.1054
35302SOL     OW 9436   7.583   9.511   1.073 -0.0725  0.0001 -0.0605
35302SOL    HW1 9437   7.504   9.459   1.089  1.3189 -2.1161  0.3772
35302SOL    HW2 9438   7.653   9.460   1.114  1.8913  0.5826 -2.4924
35303SOL     OW 9439   8.622   4.647   4.184 -0.0947  0.3262 -0.0939
35303SOL    HW1 9440   8.662   4.636   4.098 -2.3212  1.6690 -1.4084
35303SOL    HW2 9441   8.645   4.736   4.210 -1.7643  0.9818 -0.6998
35304SOL     OW 9442   6.499   0.488   3.179 -0.2031 -0.0235  0.3883
35304SOL    HW1 9443   6.487   0.575   3.141 -0.5979 -0.2303  0.0222
35304SOL    HW2 9444   6.488   0.428   3.105  0.3427 -0.3710  0.5875
35305SOL     OW 9445   9.297   9.896   9.309 -0.2029  0.5813  0.3531
35305SOL    HW1 9446   9.276   9.949   9.386  1.4014 -0.3080  1.4621
35305SOL    HW2 9447   9.370   9.841   9.337 -1.0432 -1.3937 -1.1105
35306SOL     OW 9448   4.565   6.864   1.894 -0.5434  0.7124  0.0516
35306SOL    HW1 9449   4.596   6.829   1.811 -1.0910  0.2179  0.0426
35306SOL    HW2 9450   4.631   6.927   1.921 -0.6289  1.2583 -1.0101
35307SOL     OW 9451  10.353   0.699   2.586  0.6559  0.2745  0.0998
35307SOL    HW1 9452  10.352   0.724   2.678 -0.0713 -0.3032  0.2577
35307SOL    HW2 9453  10.263   0.713   2.557  0.2013 -2.0155  0.1788
35308SOL     OW 9454   3.226   7.223   3.544 -0.2430 -0.5014  0.0769
35308SOL    HW1 9455   3.223   7.288   3.613 -1.7830 -0.6170  0.1524
35308SOL    HW2 9456   3.210   7.272   3.463 -0.8684 -0.6956  0.0762
35309SOL     OW 9457   4.724   6.737  10.061 -0.0356 -0.2732 -0.1594
35309SOL    HW1 9458   4.670   6.721   9.983 -0.4809 -1.9338  0.4424
35309SOL    HW2 9459   4.807   6.692  10.043  0.6211  1.0138 -0.4640
35310SOL     OW 9460   5.036   6.998   4.465  0.0149 -0.2826 -0.2354
35310SOL    HW1 9461   5.036   7.084   4.508  1.4434  0.2231 -1.1614
35310SOL    HW2 9462   4.978   6.944   4.518  0.8670  0.6164  1.6793
35311SOL     OW 9463   6.144   1.217   7.607 -0.1731  0.2477  0.3835
35311SOL    HW1 9464   6.160   1.211   7.702  0.4557  3.6489  0.6257
35311SOL    HW2 9465   6.231   1.225   7.569 -0.4555 -0.4734 -0.4268
35312SOL     OW 9466   9.648   0.037   9.871 -0.1825  0.4047  0.5293
35312SOL    HW1 9467   9.603   0.065   9.951  1.5203  0.9302  1.3378
35312SOL    HW2 9468   9.731   0.085   9.871  1.4842 -2.2837  0.3380
35313SOL     OW 9469   4.288  10.632   5.336 -0.1179 -0.4560 -0.0045
35313SOL    HW1 9470   4.271  10.575   5.261 -0.5970 -0.6209  0.2245
35313SOL    HW2 9471   4.238  10.711   5.318  1.9960  0.6827 -1.2163
35314SOL     OW 9472  10.139   7.074   6.878 -0.1860  0.0474  0.0013
35314SOL    HW1 9473  10.101   7.145   6.930 -0.8694 -0.6670  0.4807
35314SOL    HW2 9474  10.076   7.003   6.883  1.5469 -1.4814  1.4872
35315SOL     OW 9475   4.486  10.365   1.916  0.1750  0.1482  0.2464
35315SOL    HW1 9476   4.440  10.366   1.833 -1.5108  1.0879  1.1353
35315SOL    HW2 9477   4.443  10.295   1.966  0.7816 -0.0234  0.5364
35316SOL     OW 9478   9.018   6.595   2.458 -0.6799  0.9192  0.1403
35316SOL    HW1 9479   9.069   6.675   2.445  1.3378 -0.1961  0.7500
35316SOL    HW2 9480   9.019   6.581   2.553 -0.2991 -0.2421 -0.0194
35317SOL     OW 9481   5.461  10.473   7.552 -0.0686 -0.0506 -0.0418
35317SOL    HW1 9482   5.508  10.550   7.582 -0.7041  0.6675 -0.8479
35317SOL    HW2 9483   5.468  10.476   7.457  0.7637 -1.5524 -0.0558
35318SOL     OW 9484   6.703   2.245   0.384 -0.7664 -0.2288 -0.2466
35318SOL    HW1 9485   6.659   2.288   0.457  0.2737 -0.1523  0.3563
35318SOL    HW2 9486   6.781   2.297   0.369 -1.1402 -0.0317 -1.6769
35319SOL     OW 9487   6.226   4.646   7.226  0.2432  0.3633  0.0940
35319SOL    HW1 9488   6.163   4.599   7.170  1.0079  0.8204 -1.1904
35319SOL    HW2 9489   6.253   4.721   7.173  0.5556  1.1427  1.3354
35320SOL     OW 9490   2.738   8.381   5.632 -0.1377  0.1262  0.4674
35320SOL    HW1 9491   2.726   8.426   5.716  0.2479  0.5152  0.3167
35320SOL    HW2 9492   2.671   8.419   5.575 -0.2938 -0.0228  0.5485
35321SOL     OW 9493   1.703   4.574   1.787  0.0264 -0.5627 -0.1314
35321SOL    HW1 9494   1.744   4.504   1.838 -2.9604 -2.4183 -0.0041
35321SOL    HW2 9495   1.636   4.529   1.735 -1.2584  2.0790 -0.9506
35322SOL     OW 9496  10.721   4.139   0.918  0.1822 -0.4609  0.0497
35322SOL    HW1 9497  10.797   4.177   0.960 -1.0478  0.2873  1.6828
35322SOL    HW2 9498  10.751   4.053   0.887  1.6310 -0.2313  0.7545
35323SOL     OW 9499   5.990   0.817   0.610  0.0624  0.5521 -0.4987
35323SOL    HW1 9500   6.077   0.848   0.636  0.6862 -0.0048 -1.8585
35323SOL    HW2 9501   5.946   0.799   0.693  0.2547  3.3964  0.3187
35324SOL     OW 9502   2.335   1.721   3.743  0.0824  0.1101  0.3751
35324SOL    HW1 9503   2.269   1.741   3.810 -0.0247  0.6304  0.1183
35324SOL    HW2 9504   2.416   1.707   3.793  0.2488  1.5571  0.5624
35325SOL     OW 9505   4.960   1.449   9.622 -0.0329 -0.6963  0.0158
35325SOL    HW1 9506   5.049   1.437   9.587  0.6442 -0.3802  1.5267
35325SOL    HW2 9507   4.935   1.362   9.655 -1.0209 -1.2039 -1.9348
35326SOL     OW 9508   2.025   7.081   5.233 -0.0555 -0.3566 -0.5917
35326SOL    HW1 9509   2.045   7.142   5.163 -0.5980 -0.2293 -0.6321
35326SOL    HW2 9510   2.110   7.039   5.253  0.0731 -0.4985 -1.4103
35327SOL     OW 9511   9.143   8.322   3.957  0.2322 -0.0007  0.5673
35327SOL    HW1 9512   9.112   8.354   4.041 -4.2207 -0.0307 -0.8347
35327SOL    HW2 9513   9.225   8.370   3.942 -1.6232  4.2694  2.4565
35328SOL     OW 9514   1.237   6.321   3.660 -0.0561 -0.3059  0.3705
35328SOL    HW1 9515   1.292   6.311   3.737  2.1218 -0.2441 -1.0879
35328SOL    HW2 9516   1.248   6.412   3.634 -1.3499 -0.1312  0.3810
35329SOL     OW 9517   5.825   0.462   4.159  0.1383  0.1041 -0.1166
35329SOL    HW1 9518   5.761   0.431   4.223 -0.3690  0.5377 -0.4020
35329SOL    HW2 9519   5.883   0.388   4.145 -1.0969 -0.7667 -0.8609
35330SOL     OW 9520   1.860   7.367   5.559 -0.1120  0.0716 -0.3010
35330SOL    HW1 9521   1.951   7.381   5.533  0.6444  0.7936  2.4205
35330SOL    HW2 9522   1.865   7.346   5.653 -2.5829 -2.2364 -0.5654
35331SOL     OW 9523   3.760   3.464   8.028  0.0679  0.3710 -0.0796
35331SOL    HW1 9524   3.747   3.540   7.971 -1.3842 -0.3851 -0.8384
35331SOL    HW2 9525   3.847   3.476   8.065 -0.3294  2.6954  0.2869
35332SOL     OW 9526   6.485   7.850  10.150  0.0081 -0.0626  0.0584
35332SOL    HW1 9527   6.494   7.763  10.189  0.9285  0.2672  0.6155
35332SOL    HW2 9528   6.455   7.906  10.221 -0.6796  0.0595 -0.3249
35333SOL     OW 9529   8.805   0.539   0.917 -0.2607 -0.2436 -0.5693
35333SOL    HW1 9530   8.780   0.520   0.827 -0.8808  1.8926 -0.9131
35333SOL    HW2 9531   8.884   0.487   0.932 -1.0242 -1.8461 -1.7827
35334SOL     OW 9532  10.012   9.243   8.709  0.0187 -0.5599  0.1868
35334SOL    HW1 9533  10.002   9.159   8.664 -0.9541 -0.5101  0.2955
35334SOL    HW2 9534  10.105   9.246   8.733  0.4094 -0.8878 -1.2003
35335SOL     OW 9535   5.452   1.065   3.035  0.2416  0.1557 -0.3932
35335SOL    HW1 9536   5.471   0.990   2.978 -1.5684 -1.4616  0.9514
35335SOL    HW2 9537   5.362   1.049   3.065  0.2319  2.2750  0.8896
35336SOL     OW 9538   0.276   0.535   7.983  0.2980  0.0459  0.1863
35336SOL    HW1 9539   0.246   0.623   8.003  0.8900 -0.1067  1.9334
35336SOL    HW2 9540   0.280   0.491   8.068  1.0283 -1.3407 -0.5234
35337SOL     OW 9541   6.253  10.229  10.288  0.4498 -0.1963 -0.0481
35337SOL    HW1 9542   6.276  10.188  10.372  0.7403  0.2813  0.1100
35337SOL    HW2 9543   6.332  10.275  10.261  0.1718  0.1500 -0.2892
35338SOL     OW 9544   8.235  10.500   5.123 -0.2826  0.3780  0.3663
35338SOL    HW1 9545   8.316  10.450   5.129  0.0196  0.6895 -0.8584
35338SOL    HW2 9546   8.254  10.583   5.165 -0.0041  0.3987  0.1989
35339SOL     OW 9547   2.049   6.604   9.687  0.5073 -0.1707 -0.2086
35339SOL    HW1 9548   1.997   6.539   9.640  1.5209 -0.6325 -0.7296
35339SOL    HW2 9549   2.133   6.560   9.704  0.1219 -0.0939  2.2349
35340SOL     OW 9550   2.660   5.392   5.723  0.3061 -0.0277  0.1550
35340SOL    HW1 9551   2.754   5.375   5.733  0.2267 -0.0028  1.0230
35340SOL    HW2 9552   2.654   5.457   5.653  0.9574  0.2195  0.3261
35341SOL     OW 9553   2.117   4.360   3.928  0.5513 -0.7033  0.0326
35341SOL    HW1 9554   2.047   4.349   3.863 -1.8134 -0.4468  2.3604
35341SOL    HW2 9555   2.147   4.271   3.947  1.1855 -0.7856 -1.2892
35342SOL     OW 9556   8.394   7.099   9.580  0.0849 -0.3417 -0.0150
35342SOL    HW1 9557   8.356   7.014   9.600  0.3771 -0.3036  0.7385
35342SOL    HW2 9558   8.416   7.095   9.487  0.9896 -1.4389  0.2234
35343SOL     OW 9559   7.625   3.635   5.819 -0.5445 -0.0505  0.1819
35343SOL    HW1 9560   7.574   3.566   5.776  0.1503 -0.6093  0.2317
35343SOL    HW2 9561   7.639   3.701   5.751 -0.6668 -0.2642 -0.0510
35344SOL     OW 9562   8.065   8.311  11.116 -0.1571 -0.1714  0.8913
35344SOL    HW1 9563   8.002   8.346  11.179 -2.3500  1.7393 -2.0480
35344SOL    HW2 9564   8.012   8.289  11.039  2.6134  0.5214 -1.3928
35345SOL     OW 9565   8.976   5.694   0.880 -0.0119  0.4598 -0.3497
35345SOL    HW1 9566   8.912   5.623   0.879  0.7413 -0.2468 -1.2290
35345SOL    HW2 9567   9.010   5.695   0.969  1.2560 -1.5339 -0.7332
35346SOL     OW 9568   8.538   6.315   6.144 -0.0912 -0.4395 -0.0325
35346SOL    HW1 9569   8.483   6.392   6.156  0.5236 -0.1434  0.9509
35346SOL    HW2 9570   8.627   6.349   6.140  0.3074 -1.1639  1.6445
35347SOL     OW 9571   5.551  11.082   8.592 -0.0971  0.2215 -0.3822
35347SOL    HW1 9572   5.514  11.129   8.667 -0.4647 -0.0848 -0.3735
35347SOL    HW2 9573   5.481  11.026   8.561  0.6955 -1.2703  0.3869
35348SOL     OW 9574   9.913   8.058   2.865 -0.1002 -0.1297 -0.2691
35348SOL    HW1 9575   9.925   7.985   2.804 -1.7839 -0.8576  0.1796
35348SOL    HW2 9576   9.843   8.111   2.826 -0.9488 -0.4097  0.8034
35349SOL     OW 9577   7.299   4.541   1.778 -0.0567 -0.3460 -1.0204
35349SOL    HW1 9578   7.377   4.596   1.768  0.6895 -1.7136 -3.9250
35349SOL    HW2 9579   7.334   4.452   1.783 -1.3625 -0.8163 -0.0347
35350SOL     OW 9580   2.325   9.579   7.978 -0.1434 -0.4073 -0.2679
35350SOL    HW1 9581   2.279   9.593   8.060 -0.8270 -0.5083 -0.6285
35350SOL    HW2 9582   2.258   9.588   7.910  0.4491 -0.0864 -0.8358
35351SOL     OW 9583   5.830   4.465   9.056  0.7155 -0.1975 -0.7849
35351SOL    HW1 9584   5.909   4.418   9.082  0.9558  0.3385 -0.5285
35351SOL    HW2 9585   5.859   4.555   9.042 -0.2611  0.5827  1.6502
35352SOL     OW 9586   4.236   6.980   6.680 -0.1749  0.1718  0.1486
35352SOL    HW1 9587   4.306   6.996   6.616 -0.4891 -3.0819 -1.2219
35352SOL    HW2 9588   4.175   7.053   6.669  0.6677  0.6131 -2.0277
35353SOL     OW 9589   7.641   9.143   4.207 -0.0058 -0.0504 -0.1485
35353SOL    HW1 9590   7.658   9.147   4.113  3.4000  2.8566  0.3479
35353SOL    HW2 9591   7.728   9.129   4.245 -0.8744  1.4665  2.6177
35354SOL     OW 9592  11.094   1.419   2.367 -0.0869 -0.1360 -0.0477
35354SOL    HW1 9593  11.148   1.487   2.326 -0.1215  0.2057  0.4558
35354SOL    HW2 9594  11.012   1.422   2.318 -0.2621  0.5233  0.2621
35355SOL     OW 9595   4.669   5.182   2.597 -0.1798 -0.2120 -0.5323
35355SOL    HW1 9596   4.758   5.157   2.573 -0.2562 -0.6277 -0.4046
35355SOL    HW2 9597   4.628   5.099   2.624 -0.6560 -0.0521 -0.7586
35356SOL     OW 9598   1.705   0.839   0.792  0.1020 -0.5603 -0.5780
35356SOL    HW1 9599   1.649   0.769   0.758  1.4617 -1.3927 -1.2242
35356SOL    HW2 9600   1.780   0.793   0.831  0.3426  0.5089  0.2915
35357SOL     OW 9601   9.808   2.853   1.669  0.0735  0.5313 -0.2649
35357SOL    HW1 9602   9.873   2.787   1.693 -0.7650 -0.5551 -0.8718
35357SOL    HW2 9603   9.804   2.912   1.744  1.6888  0.5887 -0.1809
35358SOL     OW 9604   0.426   2.161   1.755  0.4631 -0.3401  0.1788
35358SOL    HW1 9605   0.367   2.221   1.801  0.2205 -1.0376  0.8004
35358SOL    HW2 9606   0.467   2.214   1.687 -0.8572  0.1701 -0.2437
35359SOL     OW 9607   0.221   1.959   6.084 -0.0133 -0.1574 -0.6881
35359SOL    HW1 9608   0.197   1.966   6.176  2.7585  1.2604  0.0500
35359SOL    HW2 9609   0.164   2.021   6.038 -1.7452 -1.2304 -0.0430
35360SOL     OW 9610   6.868   1.669   6.342 -0.9143 -0.0526 -0.0179
35360SOL    HW1 9611   6.806   1.739   6.364 -0.5834  0.5915 -1.1014
35360SOL    HW2 9612   6.871   1.615   6.421 -0.3021  1.7925  1.2891
35361SOL     OW 9613   7.436   8.530   9.194 -0.2066  0.3558  0.1738
35361SOL    HW1 9614   7.507   8.544   9.257 -0.1740 -0.6386  0.3831
35361SOL    HW2 9615   7.360   8.574   9.232 -0.3575 -0.7756  1.2576
35362SOL     OW 9616   5.477   0.173   8.061 -0.5315 -0.0564  0.0319
35362SOL    HW1 9617   5.454   0.090   8.017 -0.9289  0.7586 -1.3866
35362SOL    HW2 9618   5.568   0.189   8.036 -0.2095 -0.4382  0.9396
35363SOL     OW 9619   7.225   2.117   9.324 -0.0518  0.1302 -0.4779
35363SOL    HW1 9620   7.168   2.186   9.290  0.7992  0.9830 -0.1945
35363SOL    HW2 9621   7.234   2.056   9.250  0.5245  1.1703 -1.2951
35364SOL     OW 9622   4.662   6.121   4.174  0.4386 -0.1898 -0.1453
35364SOL    HW1 9623   4.687   6.197   4.120  1.7188 -0.7992 -0.4593
35364SOL    HW2 9624   4.680   6.045   4.118 -2.7750 -0.7354 -0.6202
35365SOL     OW 9625   9.754   5.700   7.174  0.5123  0.8003 -0.5725
35365SOL    HW1 9626   9.719   5.616   7.205  0.9517  0.5009 -0.8655
35365SOL    HW2 9627   9.679   5.745   7.135  0.1310  0.8310  0.1830
35366SOL     OW 9628   5.822   9.000  10.199 -0.1820 -0.0154  0.0460
35366SOL    HW1 9629   5.867   9.042  10.272  1.3066 -0.4500 -0.5766
35366SOL    HW2 9630   5.769   8.932  10.239 -0.1232  0.3738  0.7985
35367SOL     OW 9631   1.025   1.486   4.021  0.1399  0.3492  0.1292
35367SOL    HW1 9632   0.946   1.439   3.995 -1.7736  1.2752  3.5692
35367SOL    HW2 9633   1.085   1.417   4.051 -1.4611 -0.2345  2.2801
35368SOL     OW 9634   5.862   7.372   9.871  0.0961  0.7172 -0.0497
35368SOL    HW1 9635   5.816   7.420   9.940 -0.1509 -0.5392  0.7026
35368SOL    HW2 9636   5.858   7.280   9.899 -0.1445  0.1488 -1.8207
35369SOL     OW 9637   0.761   0.119   8.204 -0.0729  0.2606 -0.4247
35369SOL    HW1 9638   0.805   0.044   8.164  0.4852  0.9084 -1.0516
35369SOL    HW2 9639   0.713   0.159   8.132  1.3046  1.6984 -0.5885
35370SOL     OW 9640   0.881   5.906  10.941 -0.5321 -0.5268  0.0676
35370SOL    HW1 9641   0.830   5.982  10.914 -0.2151 -0.4512 -0.3462
35370SOL    HW2 9642   0.817   5.836  10.953 -0.9711  0.1197  1.6879
35371SOL     OW 9643   7.710   0.538   6.109 -0.0081 -0.3668  0.0111
35371SOL    HW1 9644   7.781   0.495   6.157 -0.8988  0.3234  2.0559
35371SOL    HW2 9645   7.743   0.626   6.092  0.2159 -0.5381 -0.4671
35372SOL     OW 9646   2.501   9.166   6.701  0.1408  0.5382 -0.2285
35372SOL    HW1 9647   2.530   9.137   6.614 -0.7649  0.0191 -0.3669
35372SOL    HW2 9648   2.501   9.262   6.695 -2.2908  0.5300 -1.6597
35373SOL     OW 9649   3.417   7.080   2.832 -0.7558  0.5683  0.1973
35373SOL    HW1 9650   3.441   7.163   2.873  1.8367  0.5211 -1.0524
35373SOL    HW2 9651   3.358   7.104   2.761  0.4182  1.4327 -0.5081
35374SOL     OW 9652   8.234   9.233   0.675 -0.1808 -0.0395 -0.0793
35374SOL    HW1 9653   8.329   9.223   0.681 -0.3366 -0.6443  1.7205
35374SOL    HW2 9654   8.212   9.194   0.590  0.7911 -3.1161  0.9606
35375SOL     OW 9655   1.293   0.261   4.501  0.0987  0.3404 -0.6571
35375SOL    HW1 9656   1.358   0.235   4.436  2.0051  1.7365  0.5582
35375SOL    HW2 9657   1.256   0.179   4.532  0.8073 -0.4635 -1.8623
35376SOL     OW 9658   8.936   5.367  10.622  0.3185 -0.1102  0.3315
35376SOL    HW1 9659   9.023   5.405  10.626 -0.3884  1.5714  3.9586
35376SOL    HW2 9660   8.877   5.441  10.634 -1.7463 -1.0854 -2.7071
35377SOL     OW 9661   7.604   4.541   8.452 -0.2105  0.1244 -0.6323
35377SOL    HW1 9662   7.601   4.459   8.402  0.2280 -0.7979  0.7623
35377SOL    HW2 9663   7.521   4.584   8.432 -0.5110 -0.7214 -1.3078
35378SOL     OW 9664   6.341  10.158   0.529  0.0548 -0.2504 -0.3389
35378SOL    HW1 9665   6.346  10.133   0.437 -1.0869  0.0977 -0.5080
35378SOL    HW2 9666   6.382  10.245   0.532  0.2564 -0.3373 -0.4761
35379SOL     OW 9667   4.594   2.414   4.860 -0.3328 -0.0161 -0.2993
35379SOL    HW1 9668   4.679   2.370   4.867 -0.6817 -0.8913 -1.2265
35379SOL    HW2 9669   4.531   2.349   4.891 -0.6641  0.6804  0.5232
35380SOL     OW 9670   9.471   9.544   3.199 -0.3463 -0.6107  0.0820
35380SOL    HW1 9671   9.457   9.451   3.182  0.5644 -0.8114  0.3930
35380SOL    HW2 9672   9.480   9.550   3.294 -0.8846 -0.1326  0.1069
35381SOL     OW 9673   5.586   8.132   9.368 -0.4826 -0.6637 -0.1729
35381SOL    HW1 9674   5.563   8.142   9.460  1.2174 -2.5430  0.5442
35381SOL    HW2 9675   5.676   8.164   9.362 -0.3236 -1.2109 -0.9932
35382SOL     OW 9676   1.524   3.628   9.852  0.0087  0.3528 -0.1920
35382SOL    HW1 9677   1.549   3.687   9.923  1.1032  0.2923 -0.5095
35382SOL    HW2 9678   1.562   3.544   9.876  1.0756  0.5221 -1.2234
35383SOL     OW 9679   0.210   4.329   9.696 -0.0765  0.0809 -0.1529
35383SOL    HW1 9680   0.179   4.242   9.719  0.6628 -0.6130 -1.6650
35383SOL    HW2 9681   0.282   4.346   9.757  2.4149 -2.0729 -2.2737
35384SOL     OW 9682   4.850   2.164   5.998 -0.0989 -0.7350  0.1063
35384SOL    HW1 9683   4.930   2.139   6.044 -1.1245 -1.0878  1.7762
35384SOL    HW2 9684   4.854   2.116   5.915  2.6287  1.2608 -1.0662
35385SOL     OW 9685   4.783   0.611   3.464  0.4047 -0.0874  0.0921
35385SOL    HW1 9686   4.747   0.604   3.376 -2.4658 -3.5824  1.2981
35385SOL    HW2 9687   4.836   0.532   3.474 -1.0685 -0.9188  2.0671
35386SOL     OW 9688   1.714   7.987   9.116  0.1999  0.4891 -0.2146
35386SOL    HW1 9689   1.652   7.943   9.174  1.4465  0.1271  0.9019
35386SOL    HW2 9690   1.703   7.944   9.031  0.3093 -0.9323  0.4605
35387SOL     OW 9691   2.887   8.318   6.302  0.5065  0.1477 -0.1535
35387SOL    HW1 9692   2.847   8.290   6.219  1.0401 -2.5737  0.4017
35387SOL    HW2 9693   2.875   8.243   6.361 -0.2288  2.1550  2.4169
35388SOL     OW 9694   0.789  10.916   2.309 -0.4247  0.5287  0.2059
35388SOL    HW1 9695   0.817  10.993   2.360 -1.2318  1.5954 -0.8935
35388SOL    HW2 9696   0.704  10.892   2.347  0.3482 -0.5538  1.2932
35389SOL     OW 9697   4.499   5.678   1.977 -0.2715 -0.0775 -0.1229
35389SOL    HW1 9698   4.434   5.618   2.015  0.3020 -1.3045 -1.0410
35389SOL    HW2 9699   4.478   5.763   2.017 -2.5502 -0.3844 -0.5083
35390SOL     OW 9700   0.688  11.064   9.044  0.2399  0.0945 -0.2079
35390SOL    HW1 9701   0.681  10.970   9.060 -1.9233  0.2334 -0.1121
35390SOL    HW2 9702   0.750  11.094   9.111 -0.0562 -1.0628  0.6368
35391SOL     OW 9703  10.305   3.721   0.252  0.2167 -0.2472 -0.1261
35391SOL    HW1 9704  10.311   3.662   0.177 -1.1725 -1.3489  0.5699
35391SOL    HW2 9705  10.212   3.721   0.275  0.6427 -0.1857  1.7701
35392SOL     OW 9706   3.650   8.661   3.900 -0.5821  0.0965 -0.1150
35392SOL    HW1 9707   3.725   8.718   3.880 -1.7840  1.2946 -1.5045
35392SOL    HW2 9708   3.619   8.690   3.985  1.0151 -1.0002  0.8867
35393SOL     OW 9709   7.721   6.339   1.785 -0.4754 -0.0449 -0.3165
35393SOL    HW1 9710   7.798   6.340   1.841  0.9964 -0.7620 -2.2189
35393SOL    HW2 9711   7.740   6.402   1.716 -1.1767 -0.8601 -1.2989
35394SOL     OW 9712   7.181   6.558   0.426 -0.5000  0.0411  0.2041
35394SOL    HW1 9713   7.090   6.584   0.441 -0.2929  0.5837  0.5354
35394SOL    HW2 9714   7.183   6.534   0.333 -0.8921  0.3973  0.0966
35395SOL     OW 9715   1.503  10.734   1.455 -0.2453 -0.3291 -0.0808
35395SOL    HW1 9716   1.432  10.772   1.403 -0.1184 -0.8637 -0.6621
35395SOL    HW2 9717   1.578  10.791   1.436 -0.3756 -0.0992  0.0865
35396SOL     OW 9718  10.938   4.944   2.316 -0.1047 -0.7306  0.1082
35396SOL    HW1 9719  10.997   4.872   2.339  0.9621 -0.0454 -0.3938
35396SOL    HW2 9720  10.859   4.900   2.285  0.7197 -1.7248 -0.7126
35397SOL     OW 9721   1.626   1.326   7.222  0.3906  0.1599 -0.6874
35397SOL    HW1 9722   1.572   1.335   7.143  0.1768  2.7081 -0.3384
35397SOL    HW2 9723   1.579   1.264   7.277 -0.0392 -0.7854 -2.0666
35398SOL     OW 9724   3.609   6.468  10.302  0.3942  0.0804 -0.0558
35398SOL    HW1 9725   3.616   6.551  10.349  1.7689 -0.3182  0.4929
35398SOL    HW2 9726   3.525   6.473  10.256  0.1920  1.5226  0.4333
35399SOL     OW 9727   7.138   8.604   5.178 -0.1431 -0.1055 -0.1442
35399SOL    HW1 9728   7.197   8.599   5.103  0.5536 -0.6175  0.4168
35399SOL    HW2 9729   7.182   8.553   5.246 -0.9656 -0.0115  0.4752
35400SOL     OW 9730   0.048   4.621   5.923 -0.2933 -0.1974 -0.0696
35400SOL    HW1 9731   0.017   4.558   5.858 -0.4968 -0.5174  0.3338
35400SOL    HW2 9732   0.009   4.704   5.897 -0.3108 -0.3103 -0.4022
35401SOL     OW 9733   0.857   4.991   8.804 -0.0424 -0.0808  0.1241
35401SOL    HW1 9734   0.766   5.008   8.828  0.3362  0.1676  1.4417
35401SOL    HW2 9735   0.853   4.968   8.711 -0.9845  3.8168 -0.9656
35402SOL     OW 9736  10.977  10.784   9.204  0.1418  0.7867  0.3098
35402SOL    HW1 9737  11.021  10.722   9.262  1.8683 -0.1364 -1.8244
35402SOL    HW2 9738  10.939  10.729   9.136  2.0821  1.9731 -1.8918
35403SOL     OW 9739  10.140   3.443   3.393 -0.4456 -0.0050 -0.0971
35403SOL    HW1 9740  10.145   3.486   3.308 -0.9039  0.6718  0.2078
35403SOL    HW2 9741  10.069   3.488   3.439  1.1183  1.0776  1.4228
35404SOL     OW 9742   9.086   3.592   6.537  0.0646  0.2594 -0.3643
35404SOL    HW1 9743   9.012   3.642   6.569  0.3994  1.7794 -1.8283
35404SOL    HW2 9744   9.157   3.612   6.598 -0.4912 -0.6199  0.6088
35405SOL     OW 9745   6.305   7.137   2.790 -0.0810 -0.6499 -0.4349
35405SOL    HW1 9746   6.278   7.099   2.874 -1.0482 -0.3925 -0.6180
35405SOL    HW2 9747   6.392   7.101   2.775  0.6707  0.3160  1.3053
35406SOL     OW 9748   8.517   8.051   2.334 -0.8081 -0.3550  0.2072
35406SOL    HW1 9749   8.584   8.039   2.401 -1.8784 -2.5082  0.9869
35406SOL    HW2 9750   8.438   8.077   2.383 -1.1697 -0.2170 -0.4316
35407SOL     OW 9751   6.220   2.217   4.626  0.1755  0.3425  0.2427
35407SOL    HW1 9752   6.247   2.260   4.545  0.5816  0.3576  0.3862
35407SOL    HW2 9753   6.158   2.150   4.598  1.6975 -0.9070 -0.2819
35408SOL     OW 9754   5.084   3.536   9.317  0.7768 -0.5562  0.2807
35408SOL    HW1 9755   5.147   3.493   9.259 -1.2401 -2.4330 -0.6833
35408SOL    HW2 9756   5.004   3.484   9.308 -1.6373  2.9301 -0.2669
35409SOL     OW 9757   9.794   5.695   0.006 -0.0108 -0.0984 -0.0212
35409SOL    HW1 9758   9.828   5.727   0.090 -0.5336  0.4455 -0.0085
35409SOL    HW2 9759   9.864   5.640  -0.028  0.5945  0.4162  0.3459
35410SOL     OW 9760   2.603   7.293   6.751 -0.8401  0.3097 -0.2361
35410SOL    HW1 9761   2.591   7.367   6.691 -0.5867 -0.3903 -1.1823
35410SOL    HW2 9762   2.698   7.282   6.756 -0.8036 -2.5909 -3.5538
35411SOL     OW 9763   1.700   4.606   5.886 -0.4075  0.1321  0.0273
35411SOL    HW1 9764   1.796   4.599   5.892 -0.3979  0.9009  1.0123
35411SOL    HW2 9765   1.679   4.687   5.931 -1.5466 -0.0675 -0.1112
35412SOL     OW 9766   2.539   6.959   1.624  0.2546  0.4096  0.3584
35412SOL    HW1 9767   2.580   7.045   1.633 -1.6870  1.2559  1.9628
35412SOL    HW2 9768   2.517   6.953   1.531  2.1936  0.7358 -0.1619
35413SOL     OW 9769   5.005   9.355   0.078  0.5417  0.3720  0.5662
35413SOL    HW1 9770   4.970   9.440   0.051 -1.9838 -0.4521  0.9760
35413SOL    HW2 9771   4.976   9.345   0.169  0.6170 -1.0047  0.4590
35414SOL     OW 9772   8.292   8.230   7.312 -0.0529 -0.7046  0.4498
35414SOL    HW1 9773   8.253   8.152   7.353 -2.7468 -0.0425 -0.6689
35414SOL    HW2 9774   8.351   8.264   7.379 -0.5945 -2.3723  1.8775
35415SOL     OW 9775   0.559   6.768   4.761  0.1197  0.1561 -0.0089
35415SOL    HW1 9776   0.652   6.786   4.746  0.0589  0.0609 -0.5155
35415SOL    HW2 9777   0.516   6.852   4.748  0.1243  0.1761  0.1088
35416SOL     OW 9778   3.858   2.757   1.740 -0.1649 -0.2651  0.2901
35416SOL    HW1 9779   3.861   2.732   1.832  0.5346 -0.3720  0.2409
35416SOL    HW2 9780   3.899   2.844   1.737 -0.1674 -0.2706  0.0745
35417SOL     OW 9781   4.984   7.088   9.583 -0.3985 -0.1162 -1.1824
35417SOL    HW1 9782   4.940   7.133   9.655  0.0486 -1.6636  0.1234
35417SOL    HW2 9783   5.062   7.140   9.566 -0.5263  0.2922 -0.5695
35418SOL     OW 9784   7.635   5.888   7.325  0.2756  0.2375  0.1132
35418SOL    HW1 9785   7.545   5.918   7.316  0.9581  2.2328 -0.7876
35418SOL    HW2 9786   7.669   5.936   7.401  0.9773  0.6265 -0.4329
35419SOL     OW 9787   1.407  10.270  10.038  0.6092  0.2976  0.0156
35419SOL    HW1 9788   1.346  10.289   9.966  0.0919 -1.1066  0.0445
35419SOL    HW2 9789   1.357  10.211  10.096  1.5403  0.2062  0.7365
35420SOL     OW 9790   8.355   1.197   8.023 -0.3893  0.4291  0.4124
35420SOL    HW1 9791   8.353   1.255   7.947 -1.0881  0.3673  0.3810
35420SOL    HW2 9792   8.296   1.125   8.001 -0.5225  0.3610  0.9727
35421SOL     OW 9793   7.392   1.521   0.716  0.5521  0.2673  0.0224
35421SOL    HW1 9794   7.455   1.451   0.701  1.8569  1.1115  1.2856
35421SOL    HW2 9795   7.376   1.559   0.630 -0.4883 -1.7813 -0.7591
35422SOL     OW 9796   7.299   6.964   6.891  0.0607 -0.6494 -0.3534
35422SOL    HW1 9797   7.267   6.875   6.884  0.7544 -0.9120 -0.2959
35422SOL    HW2 9798   7.352   6.965   6.970 -0.9613  0.1506  0.3445
35423SOL     OW 9799   8.227   4.063   5.460  0.4988  0.1378 -0.3838
35423SOL    HW1 9800   8.264   4.144   5.426  0.2478  0.1928 -0.5269
35423SOL    HW2 9801   8.139   4.088   5.490 -0.2119 -0.4075 -1.9068
35424SOL     OW 9802   0.052   5.994   4.055 -0.1500  0.0785 -0.2177
35424SOL    HW1 9803   0.018   5.964   4.140  0.7063 -1.1028 -0.2794
35424SOL    HW2 9804  -0.001   5.948   3.990  0.7898 -0.9010 -0.3122
35425SOL     OW 9805   8.588   0.296   4.774  0.2451 -0.2166  0.0352
35425SOL    HW1 9806   8.509   0.350   4.784  0.6711  0.2293  1.1195
35425SOL    HW2 9807   8.654   0.341   4.826  1.1508 -0.7336 -0.6576
35426SOL     OW 9808   9.780   6.328   4.799  0.8702 -0.3123 -0.2956
35426SOL    HW1 9809   9.740   6.377   4.871  1.0704 -0.0443 -0.3676
35426SOL    HW2 9810   9.869   6.363   4.792  1.7591 -2.1215  1.0324
35427SOL     OW 9811   1.213   3.746   5.716 -0.3691 -0.7993  0.2508
35427SOL    HW1 9812   1.259   3.796   5.784  0.5491 -0.4676 -0.6083
35427SOL    HW2 9813   1.217   3.656   5.747 -2.4210 -0.3737  2.0399
35428SOL     OW 9814   0.379   5.116  10.137 -0.3069 -0.0599  0.3059
35428SOL    HW1 9815   0.332   5.185  10.092 -0.0697 -0.4654 -0.5924
35428SOL    HW2 9816   0.345   5.117  10.226  0.6224  2.0780  0.6989
35429SOL     OW 9817   6.371   9.340  10.723 -0.3421  0.1912 -0.0322
35429SOL    HW1 9818   6.421   9.413  10.758  0.0824  0.1895 -0.6109
35429SOL    HW2 9819   6.437   9.277  10.695 -0.6959 -0.2922  0.1969
35430SOL     OW 9820  11.075  10.660   7.721 -0.1655 -0.1560  0.7191
35430SOL    HW1 9821  11.144  10.694   7.665 -2.3679  1.3207 -1.2692
35430SOL    HW2 9822  11.082  10.565   7.713 -0.2035 -0.0095 -1.9158
35431SOL     OW 9823   0.662   8.322   8.982 -0.3249 -0.4230 -0.1523
35431SOL    HW1 9824   0.584   8.271   8.957 -0.3925  0.0332 -0.9009
35431SOL    HW2 9825   0.659   8.324   9.077  0.5968 -3.2726  0.0366
35432SOL     OW 9826   9.831   6.224   4.214 -0.0975  0.1294  0.2384
35432SOL    HW1 9827   9.749   6.183   4.240 -0.0524  0.4057  0.8437
35432SOL    HW2 9828   9.816   6.318   4.227  0.3249  0.1771  0.4038
35433SOL     OW 9829   1.179   1.062   3.013 -0.0660  0.9352 -0.2749
35433SOL    HW1 9830   1.245   1.105   2.958  1.6769  0.6066  1.4414
35433SOL    HW2 9831   1.098   1.070   2.963  0.9875  2.5598 -1.8847
35434SOL     OW 9832   4.510   7.566   8.748  0.3623 -0.2090 -0.5385
35434SOL    HW1 9833   4.488   7.531   8.834 -0.5528 -0.7094 -0.9632
35434SOL    HW2 9834   4.441   7.630   8.729  0.4984 -0.1745 -0.9426
35435SOL     OW 9835   3.569   0.970   8.294 -0.4955 -0.3218  0.0153
35435SOL    HW1 9836   3.506   0.947   8.226 -0.1871 -0.6952 -0.1460
35435SOL    HW2 9837   3.575   0.892   8.349 -0.0416 -0.3517 -0.0710
35436SOL     OW 9838   1.158   7.596   5.900 -0.5473  0.1054  0.0244
35436SOL    HW1 9839   1.219   7.603   5.973 -0.5634  1.6309 -0.0730
35436SOL    HW2 9840   1.204   7.543   5.835  0.4087  0.6668  0.2236
35437SOL     OW 9841   1.207   7.828   4.531  0.2136  0.3159 -0.2161
35437SOL    HW1 9842   1.248   7.866   4.453 -0.1105 -0.1477 -0.6136
35437SOL    HW2 9843   1.262   7.859   4.603  0.3740  0.9518 -0.6001
35438SOL     OW 9844   5.928   9.594   1.850  0.5354  0.4233  0.5801
35438SOL    HW1 9845   5.852   9.620   1.902  0.5130  0.0515  0.7344
35438SOL    HW2 9846   5.953   9.509   1.885 -0.3250 -0.4912 -0.9171
35439SOL     OW 9847  10.661   2.331   7.736 -0.1072  0.2650  0.2611
35439SOL    HW1 9848  10.726   2.300   7.800 -0.6088 -1.3033  0.0676
35439SOL    HW2 9849  10.586   2.357   7.789 -0.2699 -0.3907  0.3645
35440SOL     OW 9850   2.590   6.334   7.670 -0.5156 -0.3919 -0.4799
35440SOL    HW1 9851   2.636   6.289   7.599  0.4348 -1.0612  0.5319
35440SOL    HW2 9852   2.516   6.276   7.690 -1.8065  0.6335 -2.0360
35441SOL     OW 9853  10.576   1.546   5.740  0.5678  0.1930 -0.4392
35441SOL    HW1 9854  10.553   1.454   5.753  1.9177 -0.0056  0.7460
35441SOL    HW2 9855  10.667   1.553   5.770  0.2807  2.0494  0.1286
35442SOL     OW 9856   5.975   3.020   5.095 -0.0815  0.5178  0.0935
35442SOL    HW1 9857   5.998   2.930   5.117 -1.5958  0.2761  0.7685
35442SOL    HW2 9858   6.053   3.070   5.119  0.5229 -0.5178  0.3703
35443SOL     OW 9859   6.293   3.400   9.655  0.5367 -0.1778  0.3480
35443SOL    HW1 9860   6.304   3.305   9.648  2.7452 -0.0432  1.2479
35443SOL    HW2 9861   6.380   3.436   9.642  0.0763  1.6177  1.7571
35444SOL     OW 9862   2.618   9.742  10.128  0.0608  0.0560 -0.3678
35444SOL    HW1 9863   2.595   9.824  10.083 -0.1073 -0.7962 -1.8967
35444SOL    HW2 9864   2.538   9.715  10.172  0.7713  2.0136  2.3939
35445SOL     OW 9865  10.439   0.887   5.788 -0.4903  0.3798  0.1733
35445SOL    HW1 9866  10.495   0.854   5.858 -1.7064 -0.5618  0.7349
35445SOL    HW2 9867  10.458   0.981   5.785  2.6125 -0.1358 -1.0633
35446SOL     OW 9868   4.652   2.498   9.269 -0.8445  0.2008  0.1538
35446SOL    HW1 9869   4.611   2.471   9.351 -1.1759 -0.5403 -0.2440
35446SOL    HW2 9870   4.744   2.475   9.279 -0.4346  2.0837  1.1439
35447SOL     OW 9871   8.259   5.770   9.524  0.0821 -0.2457  0.0977
35447SOL    HW1 9872   8.228   5.736   9.608  0.0619  1.2932  0.7569
35447SOL    HW2 9873   8.240   5.864   9.529  2.4881  0.3267 -0.5347
35448SOL     OW 9874  10.363   8.172   0.564  0.1046  0.6502 -0.1848
35448SOL    HW1 9875  10.270   8.154   0.582  0.2962 -0.1641  0.0161
35448SOL    HW2 9876  10.378   8.138   0.476  0.3588  0.2135  0.0224
35449SOL     OW 9877   6.143   2.262  10.912  0.3871  0.3696  0.0555
35449SOL    HW1 9878   6.234   2.274  10.883  0.1806 -0.6635 -1.1517
35449SOL    HW2 9879   6.148   2.191  10.976  0.3554 -0.2775 -0.6390
35450SOL     OW 9880   2.618   2.715   5.617  0.2733 -0.4751 -0.3985
35450SOL    HW1 9881   2.549   2.696   5.554 -1.3451  1.4355  0.7121
35450SOL    HW2 9882   2.659   2.795   5.583 -1.0224  0.9313  1.2134
35451SOL     OW 9883  10.830   0.643   9.312  0.0763  0.1639 -0.2370
35451SOL    HW1 9884  10.797   0.558   9.284  1.0914 -0.4309  0.3375
35451SOL    HW2 9885  10.777   0.666   9.388 -0.0840 -0.0296 -0.2909
35452SOL     OW 9886   4.745   1.279   2.528 -0.0498  0.2095  0.4269
35452SOL    HW1 9887   4.821   1.221   2.518 -0.6000 -0.5921  0.7844
35452SOL    HW2 9888   4.669   1.223   2.514 -0.5882  1.3311 -1.5602
35453SOL     OW 9889   7.643   7.711   4.603 -0.1924  1.0262 -0.4337
35453SOL    HW1 9890   7.696   7.687   4.679 -2.3203  0.5402  0.9791
35453SOL    HW2 9891   7.654   7.639   4.541  1.3152  1.2817 -0.4950
35454SOL     OW 9892   8.235   2.713   2.943 -0.8615 -0.5506 -0.1219
35454SOL    HW1 9893   8.302   2.649   2.918 -1.0062 -0.2227 -1.4122
35454SOL    HW2 9894   8.266   2.749   3.027  0.6130 -0.3756 -0.7128
35455SOL     OW 9895  11.084   6.896   1.264 -0.2237  0.0171  0.0481
35455SOL    HW1 9896  11.110   6.893   1.172  0.9500  1.6983  0.2698
35455SOL    HW2 9897  11.101   6.807   1.296 -0.8871 -0.6691 -1.3901
35456SOL     OW 9898   5.515   1.496   2.136  0.1600 -0.5455  0.6300
35456SOL    HW1 9899   5.493   1.483   2.043  0.5102 -0.6825  0.5642
35456SOL    HW2 9900   5.556   1.413   2.162 -0.1868 -0.6100  0.9825
35457SOL     OW 9901  10.056   0.520   7.297 -0.4496  0.2870 -0.3529
35457SOL    HW1 9902  10.072   0.551   7.208  0.8228 -0.7676 -0.5172
35457SOL    HW2 9903  10.034   0.599   7.347 -0.1671  1.0239 -1.3722
35458SOL     OW 9904  11.088   4.524   8.365  0.1035 -0.4876  0.5234
35458SOL    HW1 9905  11.104   4.492   8.454  0.2868 -1.4800  0.1441
35458SOL    HW2 9906  11.080   4.619   8.375 -1.9295 -0.7355  1.9061
35459SOL     OW 9907  10.258   0.592   7.677  0.4988  0.2239 -0.1399
35459SOL    HW1 9908  10.332   0.629   7.629  0.2013 -0.0453 -0.8221
35459SOL    HW2 9909  10.273   0.498   7.675  0.4142  0.2020  0.1921
35460SOL     OW 9910   1.421   1.177   2.968  0.0786 -0.0433 -0.1329
35460SOL    HW1 9911   1.510   1.175   3.001 -0.1493 -1.5520  0.4967
35460SOL    HW2 9912   1.422   1.243   2.899  1.5904  0.1985  0.0891
35461SOL     OW 9913   6.647   4.731   1.061  0.3720  0.4452  0.4764
35461SOL    HW1 9914   6.656   4.760   1.152  1.4623 -1.1744  0.9187
35461SOL    HW2 9915   6.555   4.705   1.054  0.0350  1.5116  0.8199
35462SOL     OW 9916   3.921  10.378   7.917 -0.1771 -0.2072  0.1579
35462SOL    HW1 9917   3.851  10.355   7.978 -1.7860  1.3914 -0.9941
35462SOL    HW2 9918   3.910  10.317   7.844  0.5320 -0.8495  0.5699
35463SOL     OW 9919   1.051   3.898  11.119  0.2543  0.0613 -0.2963
35463SOL    HW1 9920   1.021   3.835  11.185  1.4330 -0.3613 -0.1517
35463SOL    HW2 9921   1.100   3.846  11.056  0.2950  0.6709 -0.7704
35464SOL     OW 9922   9.435   1.564   3.995  0.1133  0.4789 -0.8968
35464SOL    HW1 9923   9.417   1.651   4.032  1.3379  0.0311  0.8886
35464SOL    HW2 9924   9.521   1.541   4.029 -0.8058 -2.0633 -0.0599
35465SOL     OW 9925   7.763   5.200   9.402 -0.3563 -0.0204  0.3934
35465SOL    HW1 9926   7.762   5.249   9.484 -1.0088  1.6664 -0.5765
35465SOL    HW2 9927   7.834   5.240   9.351 -0.7629 -0.2247 -0.3401
35466SOL     OW 9928   1.896   3.714   1.076  0.1929 -0.2114  0.0262
35466SOL    HW1 9929   1.892   3.800   1.117 -1.0489 -1.2228  2.2178
35466SOL    HW2 9930   1.986   3.707   1.044  1.2731  0.7186  2.6146
35467SOL     OW 9931  10.124   2.925   2.656  0.0737 -0.5954  0.0437
35467SOL    HW1 9932  10.071   2.896   2.582  0.3035  0.6786 -0.6412
35467SOL    HW2 9933  10.096   3.015   2.671  1.4644 -0.1768  0.1970
35468SOL     OW 9934   5.765   2.273   9.990 -0.0915 -0.2856 -0.1682
35468SOL    HW1 9935   5.783   2.366   9.975 -0.5386 -0.5026 -2.4082
35468SOL    HW2 9936   5.800   2.229   9.913 -1.4685 -1.7636 -0.0031
35469SOL     OW 9937   3.262  11.058   0.169 -0.6675 -0.3165 -0.3137
35469SOL    HW1 9938   3.263  10.989   0.103 -0.5774 -0.4717 -0.1529
35469SOL    HW2 9939   3.225  11.016   0.247  0.5322 -0.5283  0.1582
35470SOL     OW 9940   1.544   6.500   4.473 -0.4244  0.5830 -0.7569
35470SOL    HW1 9941   1.603   6.425   4.478 -0.8922  0.2942  1.5915
35470SOL    HW2 9942   1.512   6.511   4.562 -1.2551  2.8933 -1.2751
35471SOL     OW 9943   8.092   6.570  10.012  0.2074  0.2029 -0.2033
35471SOL    HW1 9944   8.095   6.515   9.934  0.6460  2.2733 -1.7235
35471SOL    HW2 9945   8.160   6.636   9.998 -1.3375  2.1009  0.7306
35472SOL     OW 9946   9.788   9.299   2.495  0.3475  0.2792  0.1574
35472SOL    HW1 9947   9.769   9.210   2.523 -1.7867  0.1376 -1.4758
35472SOL    HW2 9948   9.812   9.345   2.576  0.3822 -1.4950  1.1981
35473SOL     OW 9949   0.914   2.671  10.073 -0.1694 -0.0503 -0.3352
35473SOL    HW1 9950   0.820   2.654  10.067  0.1580 -2.2184  0.1650
35473SOL    HW2 9951   0.955   2.602  10.021  1.3012 -1.7370  2.7938
35474SOL     OW 9952   3.591  10.446   7.141 -0.0746  0.2145 -0.0801
35474SOL    HW1 9953   3.651  10.519   7.125 -0.2344  0.4411  0.3287
35474SOL    HW2 9954   3.621  10.407   7.223 -0.6310  0.4848  0.2563
35475SOL     OW 9955   5.601   3.941  10.136 -0.2024  0.0530 -0.3708
35475SOL    HW1 9956   5.587   3.953  10.231 -3.6929 -1.1983 -0.5885
35475SOL    HW2 9957   5.593   4.029  10.100  2.7869  0.8100  0.5282
35476SOL     OW 9958  10.329   1.279   7.082  0.4748 -0.2808 -0.0493
35476SOL    HW1 9959  10.275   1.204   7.055  0.8905 -0.3369 -0.7440
35476SOL    HW2 9960  10.321   1.280   7.178 -0.1385 -0.7543 -0.0860
35477SOL     OW 9961   4.367   6.005   7.508 -0.2670 -0.3143  0.4571
35477SOL    HW1 9962   4.404   6.059   7.578 -0.9526 -2.3704  2.5367
35477SOL    HW2 9963   4.280   6.043   7.493 -0.5552 -0.4992  1.5385
35478SOL     OW 9964   5.642  10.634   3.357  0.4003 -0.0099 -0.8076
35478SOL    HW1 9965   5.681  10.700   3.413  0.9003 -1.7178  0.9643
35478SOL    HW2 9966   5.716  10.579   3.330 -0.3268 -1.4286 -0.0064
35479SOL     OW 9967   2.690   6.861   7.863  0.3616  0.2295  0.7680
35479SOL    HW1 9968   2.630   6.887   7.933  0.8521  2.1382  0.5298
35479SOL    HW2 9969   2.761   6.815   7.908 -0.5929 -0.8861  1.1923
35480SOL     OW 9970   1.402  10.693   4.759  0.1300  0.2067 -0.4636
35480SOL    HW1 9971   1.324  10.747   4.747  1.4749  2.1382 -1.0385
35480SOL    HW2 9972   1.433  10.715   4.847 -0.1900 -0.8948 -0.0564
35481SOL     OW 9973   5.272   9.131  10.271 -0.3125 -0.1264  0.2093
35481SOL    HW1 9974   5.253   9.164  10.183 -0.4805  0.5272  0.4855
35481SOL    HW2 9975   5.222   9.188  10.330  0.2805 -0.1715  0.7703
35482SOL     OW 9976   1.148   8.652   9.094 -0.1311 -0.1227  0.1390
35482SOL    HW1 9977   1.092   8.577   9.115 -0.0994 -0.0442  0.5087
35482SOL    HW2 9978   1.167   8.641   9.001 -2.8909  1.2431 -0.7056
35483SOL     OW 9979   8.649   0.601   9.481  0.3779  0.0339  0.4811
35483SOL    HW1 9980   8.722   0.641   9.434 -0.8878  0.8508 -0.8515
35483SOL    HW2 9981   8.577   0.663   9.471 -0.9568 -1.4785  0.4236
35484SOL     OW 9982   4.380   5.115   6.091  0.0680 -0.5482 -0.0074
35484SOL    HW1 9983   4.309   5.098   6.153 -0.6020 -1.3962 -0.9709
35484SOL    HW2 9984   4.424   5.030   6.082  1.9499  0.2176  1.4476
35485SOL     OW 9985   8.583  10.195   1.730  0.2942 -0.2153 -0.2166
35485SOL    HW1 9986   8.493  10.228   1.721  0.4797  0.5938  0.8016
35485SOL    HW2 9987   8.638  10.268   1.702  0.6736 -0.0836  0.8478
35486SOL     OW 9988   6.460   7.444   2.763 -0.2878 -0.3828  0.1096
35486SOL    HW1 9989   6.514   7.443   2.842  0.4320  2.0557 -0.2998
35486SOL    HW2 9990   6.481   7.361   2.720  1.4406 -0.5046  1.0678
35487SOL     OW 9991   7.886   0.629   3.770 -0.1250  0.0226 -0.7030
35487SOL    HW1 9992   7.937   0.623   3.850  0.0435  1.7670 -0.6323
35487SOL    HW2 9993   7.861   0.539   3.749  0.7018 -0.5551  0.7305
35488SOL     OW 9994   8.440   6.955   0.129  0.2011  0.0292  0.7001
35488SOL    HW1 9995   8.518   6.910   0.099  0.4198  0.8684 -0.0408
35488SOL    HW2 9996   8.371   6.889   0.127  0.9578 -0.8556  1.8204
35489SOL     OW 9997   6.209   8.762   7.115  0.5530 -0.0275  0.4523
35489SOL    HW1 9998   6.177   8.823   7.181 -0.0745  1.8695 -1.4705
35489SOL    HW2 9999   6.212   8.677   7.159 -1.2803  0.8636  2.4549
35490SOL     OW10000   6.407   2.729   6.704  0.3612  0.4948  0.2979
35490SOL    HW110001   6.314   2.719   6.682  0.3668 -0.2483  0.5596
35490SOL    HW210002   6.411   2.810   6.755 -0.3752 -0.1640  1.4731
35491SOL     OW10003   0.243   7.847   9.489  0.2442 -0.4262  0.3670
35491SOL    HW110004   0.213   7.936   9.504 -0.8042 -0.5456 -0.8232
35491SOL    HW210005   0.207   7.797   9.562 -1.2782 -0.2829 -0.2429
35492SOL     OW10006   6.824   5.568   5.763 -0.1439 -0.3760  0.2278
35492SOL    HW110007   6.838   5.660   5.787  1.3987 -0.3380 -0.6981
35492SOL    HW210008   6.895   5.548   5.703 -1.2982 -1.7651 -0.7419
35493SOL     OW10009   2.686   1.463  10.614 -0.2453  0.4491 -0.3843
35493SOL    HW110010   2.649   1.384  10.653 -1.8432  0.1439 -2.4050
35493SOL    HW210011   2.614   1.527  10.615 -0.3712  0.4196 -2.7628
35494SOL     OW10012   6.811   8.289   7.954  0.1363  0.3986  0.4674
35494SOL    HW110013   6.869   8.365   7.955  0.7596 -0.0434 -0.3864
35494SOL    HW210014   6.855   8.225   7.898 -1.6160  0.4112 -1.0470
35495SOL     OW10015   5.371   1.221   8.155  0.2131  0.3709  0.1024
35495SOL    HW110016   5.362   1.293   8.093  0.0929 -1.2642 -1.8782
35495SOL    HW210017   5.442   1.167   8.120  0.2508 -0.5420  1.4889
35496SOL     OW10018   6.496   7.369   9.184  0.3178  0.1516 -0.2441
35496SOL    HW110019   6.418   7.317   9.202  0.2300  0.2102 -0.4535
35496SOL    HW210020   6.529   7.335   9.100  0.6151  0.0083 -0.0706
35497SOL     OW10021   0.276   0.269  10.696 -0.2144  0.4862  0.5978
35497SOL    HW110022   0.302   0.355  10.663  0.0857  0.2246  0.1447
35497SOL    HW210023   0.264   0.282  10.790  0.8571  0.7861  0.7045
35498SOL     OW10024   4.775   7.618   1.990 -0.3079  0.0005 -0.1329
35498SOL    HW110025   4.852   7.673   2.005 -1.0331  0.9565  0.2236
35498SOL    HW210026   4.806   7.549   1.932  0.3757  1.4327 -1.5716
35499SOL     OW10027   3.011   4.163   3.593 -0.2853 -0.5964  0.3722
35499SOL    HW110028   2.919   4.170   3.618 -0.2082 -1.6499  1.0060
35499SOL    HW210029   3.057   4.148   3.675  0.5886  0.8380  0.1773
35500SOL     OW10030   8.525   2.653   5.898 -0.2016  0.4226  0.1285
35500SOL    HW110031   8.512   2.620   5.987  2.7842  0.5558  0.7260
35500SOL    HW210032   8.512   2.576   5.842 -0.5014 -0.0470  0.8284
35501SOL     OW10033   8.567   1.462   8.733  0.3954 -0.3214 -0.3815
35501SOL    HW110034   8.628   1.500   8.671  0.3515 -1.1215 -0.9263
35501SOL    HW210035   8.484   1.455   8.685  0.2304 -0.4866 -0.0803
35502SOL     OW10036   5.429  10.821   1.503  0.3221  0.1327  0.0767
35502SOL    HW110037   5.473  10.853   1.582 -0.0911 -0.7969  0.7052
35502SOL    HW210038   5.493  10.763   1.462 -0.2915 -1.2710  1.0253
35503SOL     OW10039   4.652   5.880   6.049 -0.2072  0.1884  0.2161
35503SOL    HW110040   4.584   5.818   6.022 -0.8265  1.0795 -0.3166
35503SOL    HW210041   4.636   5.894   6.143  0.1417 -0.6900  0.4177
35504SOL     OW10042  10.015   4.064   2.422  0.4752 -0.3112 -0.0957
35504SOL    HW110043   9.932   4.101   2.450  0.9833  1.9954 -1.3858
35504SOL    HW210044   9.999   3.970   2.418 -2.8774  0.1740 -2.6381
35505SOL     OW10045   2.005   5.076   1.827 -0.0480 -0.3097 -0.3064
35505SOL    HW110046   2.037   5.121   1.904  0.2045  1.0500 -1.1717
35505SOL    HW210047   2.077   5.081   1.764  0.2378 -2.4998 -0.2386
35506SOL     OW10048   1.551   9.072  10.641  1.0297  0.1545 -0.7676
35506SOL    HW110049   1.491   9.004  10.611  1.5168 -1.2838  1.3004
35506SOL    HW210050   1.635   9.051  10.600  1.1496 -0.4635 -0.2276
35507SOL     OW10051   9.578   4.110   4.653 -0.1575  0.6218  0.0393
35507SOL    HW110052   9.601   4.104   4.561 -0.1480  0.3948  0.0554
35507SOL    HW210053   9.584   4.020   4.685  1.1879  0.8711  0.5871
35508SOL     OW10054   1.866   4.721  10.176  0.1642  0.4725  0.1425
35508SOL    HW110055   1.926   4.772  10.231  0.1468 -0.2617  0.8618
35508SOL    HW210056   1.917   4.701  10.097 -0.1205  2.3349 -0.5658
35509SOL     OW10057   8.756   9.608   5.134  0.5448  0.1355 -0.1570
35509SOL    HW110058   8.793   9.686   5.094  1.6565  0.5735  1.6382
35509SOL    HW210059   8.735   9.634   5.224 -1.9427 -0.7831 -0.3831
35510SOL     OW10060   7.352   6.044   0.205  0.4042 -0.0127 -0.0546
35510SOL    HW110061   7.288   6.043   0.134 -0.6568  0.9508  0.8340
35510SOL    HW210062   7.432   6.010   0.166 -0.0632  0.7609 -1.7874
35511SOL     OW10063   0.919   5.891   9.373 -0.6995 -0.1689 -0.0072
35511SOL    HW110064   0.867   5.852   9.443  0.7071 -1.0056  0.6099
35511SOL    HW210065   1.005   5.907   9.412 -0.7906  2.3058 -0.6459
35512SOL     OW10066   3.777   2.248   4.188 -0.5076 -0.1101 -0.4521
35512SOL    HW110067   3.852   2.259   4.248 -0.9700  0.5948  0.0120
35512SOL    HW210068   3.766   2.334   4.148 -1.4539 -0.0432 -0.0611
35513SOL     OW10069   7.316   3.522   2.642  0.6396  0.3340  0.3915
35513SOL    HW110070   7.232   3.515   2.689  0.8447 -0.9596  0.5889
35513SOL    HW210071   7.343   3.613   2.656 -0.1722  0.4576  1.3009
35514SOL     OW10072   3.880   7.519  10.887  0.1414  0.3093  0.5394
35514SOL    HW110073   3.809   7.537  10.825 -1.0356 -1.7327  1.2018
35514SOL    HW210074   3.917   7.436  10.858  0.7571  0.2199  1.5485
35515SOL     OW10075   5.886   5.576   8.336  0.4467  0.1671 -0.1551
35515SOL    HW110076   5.802   5.593   8.377  0.5610  2.1579 -0.6721
35515SOL    HW210077   5.875   5.491   8.293 -1.3303  0.4538 -0.3206
35516SOL     OW10078   9.656   7.514   6.723  0.1854 -0.1652 -0.1962
35516SOL    HW110079   9.618   7.600   6.703 -1.2229 -0.3269  1.5215
35516SOL    HW210080   9.715   7.496   6.650  0.7774  2.4033 -0.4547
35517SOL     OW10081   5.809   6.021   8.715 -0.2657  0.6454  0.1480
35517SOL    HW110082   5.758   5.949   8.752  1.0083 -0.2665  0.2011
35517SOL    HW210083   5.805   6.007   8.620 -0.2671  0.6831  0.1422
35518SOL     OW10084   0.719  10.284   1.936 -0.0883  0.2584  0.1643
35518SOL    HW110085   0.709  10.192   1.911  0.7062  0.7376 -2.1755
35518SOL    HW210086   0.746  10.281   2.028 -0.6773 -1.7986  0.3218
35519SOL     OW10087   6.326   6.698   2.546 -0.4210 -0.2604 -0.5364
35519SOL    HW110088   6.264   6.754   2.498 -1.2902 -0.9704 -0.2727
35519SOL    HW210089   6.296   6.702   2.637  1.5240  1.4891  0.1120
35520SOL     OW10090   6.619   8.887   3.975  0.0959  0.0231 -0.2812
35520SOL    HW110091   6.547   8.933   3.932 -1.1223 -0.7152  0.8819
35520SOL    HW210092   6.691   8.892   3.912 -0.5953  1.7480 -1.0279
35521SOL     OW10093   1.266   5.237   7.168  0.0240  0.0307  0.5335
35521SOL    HW110094   1.289   5.150   7.200 -0.4916  0.1939  1.3985
35521SOL    HW210095   1.322   5.297   7.217 -0.1410  0.2301  0.4815
35522SOL     OW10096   1.032   9.468   3.500  0.3836  0.5138  0.2595
35522SOL    HW110097   1.034   9.373   3.504 -1.1272  0.4337 -0.3723
35522SOL    HW210098   0.946   9.490   3.464  0.7426  2.1163  0.2638
35523SOL     OW10099   1.871   9.991   8.557  0.1179  0.5700  0.7918
35523SOL    HW110100   1.945   9.978   8.498 -0.4054 -0.7639  0.3954
35523SOL    HW210101   1.845   9.903   8.584 -0.9275  1.0413  1.4343
35524SOL     OW10102   2.936   0.727   8.612  0.7053 -0.3076 -0.1664
35524SOL    HW110103   2.930   0.631   8.614  0.9709 -0.3784 -1.5990
35524SOL    HW210104   3.001   0.745   8.543  1.2080  0.8888  0.5990
35525SOL     OW10105   0.767   1.487   9.350 -0.1089  0.5328  0.3900
35525SOL    HW110106   0.818   1.455   9.425  0.3825  0.6528  0.1134
35525SOL    HW210107   0.699   1.541   9.389  1.1508  1.9767  0.6778
35526SOL     OW10108  10.694   6.599   9.539  0.2490 -0.2747 -0.0559
35526SOL    HW110109  10.728   6.673   9.489 -1.4273  0.1236 -0.6443
35526SOL    HW210110  10.643   6.548   9.475 -0.2470 -0.8607  0.7875
35527SOL     OW10111   6.464   8.665   2.035  0.0247  0.0567  0.1082
35527SOL    HW110112   6.380   8.645   2.076 -0.1577 -2.1284 -1.1447
35527SOL    HW210113   6.510   8.581   2.031  2.2546  1.1746  0.6495
35528SOL     OW10114   2.101   8.777   3.886 -0.8773  0.2180  0.0959
35528SOL    HW110115   2.047   8.783   3.807 -2.8672 -1.1896  1.2601
35528SOL    HW210116   2.190   8.798   3.856 -1.5955 -0.0488 -2.4502
35529SOL     OW10117   0.481   7.075   6.103 -0.0056 -0.3314 -1.0469
35529SOL    HW110118   0.530   7.052   6.182 -1.5483  1.6676  0.6370
35529SOL    HW210119   0.487   6.998   6.047  2.0650 -1.4327  0.5431
35530SOL     OW10120  10.854   0.946   9.222  0.2542  0.6737  0.5951
35530SOL    HW110121  10.843   0.851   9.223 -0.4054  0.7428  0.7513
35530SOL    HW210122  10.893   0.965   9.137 -1.3597  0.4231 -0.2382
35531SOL     OW10123  10.398   0.618   6.059 -0.2612  0.5482 -0.5963
35531SOL    HW110124  10.333   0.561   6.017  0.2374  0.3870 -1.1621
35531SOL    HW210125  10.472   0.560   6.078 -0.3331  0.7002  0.1784
35532SOL     OW10126   0.630   2.979   4.554 -0.1927 -0.4634 -0.3493
35532SOL    HW110127   0.554   2.921   4.546  0.8937 -1.9786 -0.0900
35532SOL    HW210128   0.667   2.958   4.639  0.2586  0.6038 -0.2709
35533SOL     OW10129   2.251   9.596   3.208 -0.1022  0.4891 -0.1302
35533SOL    HW110130   2.214   9.588   3.295 -0.8966 -1.2287 -0.5750
35533SOL    HW210131   2.179   9.572   3.149  0.6669  0.7230 -1.2000
35534SOL     OW10132   2.942  10.644   6.703 -0.0435  0.1930 -0.9778
35534SOL    HW110133   2.890  10.725   6.698 -0.2481  0.1743  0.5734
35534SOL    HW210134   3.032  10.674   6.693 -0.0433  0.7580  0.4453
35535SOL     OW10135   8.422   1.752   7.623 -0.1358  0.1325  0.4224
35535SOL    HW110136   8.518   1.745   7.615  0.0420  2.2031  0.1263
35535SOL    HW210137   8.404   1.844   7.606 -2.1483 -0.1003  1.0961
35536SOL     OW10138  10.544   9.384  10.523  0.1747 -0.4204  0.2538
35536SOL    HW110139  10.600   9.307  10.508 -2.3538 -2.4447  0.5168
35536SOL    HW210140  10.520   9.378  10.615  0.6042  1.2265  0.5011
35537SOL     OW10141   9.849   5.534   3.483  0.6116  0.6384  0.0104
35537SOL    HW110142   9.924   5.572   3.439  1.4907  0.3421  1.2018
35537SOL    HW210143   9.863   5.439   3.478  1.5180  0.5987  2.1440
35538SOL     OW10144   8.691   3.973   4.821 -0.1300  0.1995  0.1047
35538SOL    HW110145   8.604   3.941   4.800  0.7525 -2.3132 -0.0135
35538SOL    HW210146   8.689   3.987   4.916 -0.3697 -0.8920  0.2732
35539SOL     OW10147   4.077   7.440   1.574 -0.8735  0.0025 -0.2516
35539SOL    HW110148   4.145   7.372   1.567  0.2911  0.6390  3.0351
35539SOL    HW210149   4.036   7.442   1.487  3.0279 -0.7169 -2.3532
35540SOL     OW10150   5.443  10.841   4.956  0.2659  1.2001 -0.6350
35540SOL    HW110151   5.447  10.799   4.870  0.0354 -0.2512  0.0250
35540SOL    HW210152   5.350  10.837   4.980  0.3763  1.3106 -0.1775
35541SOL     OW10153   6.307   1.782   6.515 -0.0067  0.0506 -0.0382
35541SOL    HW110154   6.347   1.707   6.471 -0.3884  0.3149 -0.8694
35541SOL    HW210155   6.224   1.794   6.470 -0.7248 -0.0635  1.2132
35542SOL     OW10156   6.367   0.393   1.522 -0.1294  0.0433 -0.3035
35542SOL    HW110157   6.369   0.300   1.500 -0.9946  0.0340 -0.3675
35542SOL    HW210158   6.341   0.436   1.441 -1.6785  0.1586  0.2353
35543SOL     OW10159   8.563   6.062   5.940 -0.4953  0.0558 -0.5540
35543SOL    HW110160   8.565   6.153   5.909 -2.7374  0.8525  1.3447
35543SOL    HW210161   8.630   6.059   6.008  0.5629 -0.1506 -1.5742
35544SOL     OW10162   5.350   0.344   6.687 -0.1525  0.0923  0.0442
35544SOL    HW110163   5.331   0.251   6.677  1.8095 -0.3910  0.4140
35544SOL    HW210164   5.445   0.350   6.681 -0.2671  2.1634 -0.5625
35545SOL     OW10165   0.221   7.398   9.664  0.0923  0.8533 -0.5314
35545SOL    HW110166   0.276   7.334   9.709 -2.3545 -1.2513 -0.2815
35545SOL    HW210167   0.263   7.411   9.579  1.3907 -0.0254 -0.0483
35546SOL     OW10168   2.631   3.698   9.530 -0.4863 -0.1245  0.0219
35546SOL    HW110169   2.612   3.613   9.569  0.0026  0.4750  1.6699
35546SOL    HW210170   2.563   3.756   9.565  0.0008  0.4527  0.0213
35547SOL     OW10171   4.874   9.559   1.141  0.0033 -0.3941  0.1767
35547SOL    HW110172   4.923   9.641   1.156 -0.3793 -0.0724 -0.3198
35547SOL    HW210173   4.851   9.529   1.229  0.5345 -0.2111  0.3871
35548SOL     OW10174   6.748   7.443   3.894 -0.1059 -0.6574  0.8394
35548SOL    HW110175   6.778   7.506   3.960  0.1151  0.4376 -0.2614
35548SOL    HW210176   6.668   7.407   3.931 -0.1304  0.1184  1.5963
35549SOL     OW10177   3.647   4.097   6.435  0.1526 -0.2295  0.1638
35549SOL    HW110178   3.571   4.087   6.378  0.2420 -0.3154  0.0590
35549SOL    HW210179   3.646   4.189   6.461  0.2006 -0.1555 -0.1002
35550SOL     OW10180   8.251   1.572   5.634 -0.0818 -0.1955 -0.3849
35550SOL    HW110181   8.342   1.600   5.642 -0.2910  0.2707  0.4345
35550SOL    HW210182   8.219   1.568   5.724 -0.4087 -1.9503 -0.5474
35551SOL     OW10183   5.151   6.327   8.130  0.1614  0.2154  0.3943
35551SOL    HW110184   5.124   6.249   8.082  0.5319 -0.2003  0.8505
35551SOL    HW210185   5.168   6.296   8.219  0.7396  0.7311  0.4722
35552SOL     OW10186   6.010   6.983   4.673 -0.1140 -0.2435 -0.4420
35552SOL    HW110187   5.986   7.006   4.583 -2.2770  1.0352  0.3707
35552SOL    HW210188   5.933   6.938   4.707  1.7992 -3.4969 -0.0793
35553SOL     OW10189   5.454   0.384   0.184 -0.1065 -0.3287 -0.1584
35553SOL    HW110190   5.520   0.450   0.205 -0.8707  0.0975  0.9839
35553SOL    HW210191   5.504   0.303   0.170  0.6807  0.0554  0.3988
35554SOL     OW10192   0.388   9.569   8.319 -0.4877  0.0017  0.4520
35554SOL    HW110193   0.367   9.480   8.291  0.7325  0.2819 -1.5857
35554SOL    HW210194   0.483   9.577   8.306 -0.4339  1.3500  1.4090
35555SOL     OW10195   1.523  10.853   0.471 -0.1604  0.3061 -0.3260
35555SOL    HW110196   1.502  10.761   0.489 -0.7274  0.2979 -0.9784
35555SOL    HW210197   1.439  10.894   0.450 -0.0846  1.2788  1.1678
35556SOL     OW10198   5.195  10.053   7.758 -0.0444 -0.3958  0.1473
35556SOL    HW110199   5.135  10.084   7.689 -1.0986 -3.6980 -0.6042
35556SOL    HW210200   5.280  10.047   7.714  0.1475  1.0553  0.2600
35557SOL     OW10201   7.694   7.070   4.245  0.1636  0.5544 -0.1116
35557SOL    HW110202   7.647   6.989   4.264 -0.6429  1.0546  0.1205
35557SOL    HW210203   7.753   7.048   4.174 -0.7278 -0.0059 -0.7023
35558SOL     OW10204   5.022  10.774   1.077  0.2887  0.1692 -0.4218
35558SOL    HW110205   4.960  10.835   1.117  0.1653 -0.1378 -0.1342
35558SOL    HW210206   5.108  10.805   1.105  0.3872  1.4396 -1.9703
35559SOL     OW10207   8.723   2.714   7.106 -0.4503  0.1428 -0.4379
35559SOL    HW110208   8.658   2.747   7.168 -1.0034  1.2949 -1.5777
35559SOL    HW210209   8.806   2.745   7.141 -0.7417  0.7048 -0.2213
35560SOL     OW10210   6.352  10.359   5.780 -0.5220  0.4208  0.1622
35560SOL    HW110211   6.289  10.377   5.850  0.5314 -1.9179  1.8270
35560SOL    HW210212   6.400  10.281   5.810  1.7918  0.9062 -1.9524
35561SOL     OW10213  10.863   9.851  10.831 -0.6325 -0.6811 -0.3262
35561SOL    HW110214  10.872   9.825  10.923 -1.3355  1.1835  0.3301
35561SOL    HW210215  10.774   9.887  10.825  0.5822  2.5980 -0.7600
35562SOL     OW10216  10.873   0.541   5.534  0.0054 -0.4306  0.4844
35562SOL    HW110217  10.854   0.448   5.540  0.2268 -0.4965  0.1666
35562SOL    HW210218  10.840   0.567   5.448 -0.3087 -0.1559  0.6858
35563SOL     OW10219   3.068   3.417   6.464 -0.2543  0.4912 -0.2846
35563SOL    HW110220   3.108   3.503   6.452  0.7700 -0.0614 -1.0406
35563SOL    HW210221   3.113   3.380   6.540 -0.3209  0.4258 -0.2763
35564SOL     OW10222   8.921   7.732   8.682  0.2006 -0.1479  0.4030
35564SOL    HW110223   8.879   7.815   8.660  0.3336 -0.2098 -0.0991
35564SOL    HW210224   8.856   7.686   8.735 -1.0921 -0.9315 -1.7137
35565SOL     OW10225  10.814   6.554   0.534  0.0792  0.3984 -0.3075
35565SOL    HW110226  10.812   6.648   0.552 -0.5547  0.2726  0.3114
35565SOL    HW210227  10.741   6.519   0.584  1.7994 -0.7879  1.5348
35566SOL     OW10228   1.842   3.860   1.697 -0.3293  0.1478 -0.1238
35566SOL    HW110229   1.794   3.943   1.697  0.6391  0.7470  1.5779
35566SOL    HW210230   1.934   3.885   1.694 -0.0360 -0.8876 -0.0389
35567SOL     OW10231  10.891   1.180   3.083 -0.1190 -0.2313  0.6096
35567SOL    HW110232  10.882   1.098   3.132  0.4977 -1.5148 -1.3420
35567SOL    HW210233  10.802   1.201   3.055 -0.2208 -0.4258  0.7854
35568SOL     OW10234   8.532   0.915  10.015 -0.3661 -0.6958  0.3848
35568SOL    HW110235   8.461   0.917  10.078 -1.6638  0.2456 -1.0199
35568SOL    HW210236   8.531   1.002   9.975  1.3555 -0.7846  0.0880
35569SOL     OW10237   6.603   2.788   5.888  0.0104 -0.1210 -0.3731
35569SOL    HW110238   6.697   2.794   5.875  0.1086 -0.2261  0.2382
35569SOL    HW210239   6.589   2.825   5.975  0.1712 -4.7632  1.9120
35570SOL     OW10240   6.541   8.551   0.502 -0.0222 -0.4620 -0.5393
35570SOL    HW110241   6.491   8.630   0.521  1.0383  0.3297 -0.9395
35570SOL    HW210242   6.595   8.573   0.426  1.6039 -0.9607  0.4088
35571SOL     OW10243   5.461  10.422   1.311  0.0600 -0.2226 -0.6643
35571SOL    HW110244   5.495  10.373   1.236 -1.3186 -4.1715  1.0011
35571SOL    HW210245   5.373  10.449   1.284  0.8247  1.4801 -1.5942
35572SOL     OW10246   9.549   4.506   4.587  0.2722 -0.7601  0.1405
35572SOL    HW110247   9.531   4.559   4.664 -0.6952 -2.4973  1.1739
35572SOL    HW210248   9.480   4.532   4.525  0.3936 -0.1330  0.2557
35573SOL     OW10249   8.732  10.792   7.735 -0.6353  0.6730 -0.3219
35573SOL    HW110250   8.731  10.700   7.707 -0.5280  0.6555 -0.2706
35573SOL    HW210251   8.825  10.813   7.744 -0.5826  1.2119 -1.7194
35574SOL     OW10252   7.103   9.141   0.471 -0.4125 -0.1865  0.1775
35574SOL    HW110253   7.145   9.184   0.545 -0.7203 -0.1619  0.3377
35574SOL    HW210254   7.087   9.051   0.501  1.5179 -0.8619 -0.6389
35575SOL     OW10255   4.875   4.948   3.512  0.3076 -0.2408 -0.2885
35575SOL    HW110256   4.960   4.979   3.484 -0.2009  0.5918 -0.9651
35575SOL    HW210257   4.888   4.855   3.533  1.4041 -0.0696 -0.2063
35576SOL     OW10258   7.838   4.823   9.548  0.3248  0.1756  0.3127
35576SOL    HW110259   7.757   4.867   9.525 -0.8993 -1.5748  1.0383
35576SOL    HW210260   7.907   4.883   9.520 -1.1864  3.0769  2.2951
35577SOL     OW10261   5.173   8.225   1.611 -0.1151  0.3654 -0.3881
35577SOL    HW110262   5.104   8.282   1.643 -0.1320 -0.7350  1.7333
35577SOL    HW210263   5.127   8.148   1.577  0.0054 -0.7143  1.7406
35578SOL     OW10264   3.446   6.730   5.038  0.0977  0.5039  0.3637
35578SOL    HW110265   3.446   6.738   4.943 -1.8520  1.7472  0.4206
35578SOL    HW210266   3.439   6.820   5.069 -1.1080 -0.0078  1.6478
35579SOL     OW10267   3.148   0.950   5.066 -0.0569  0.6193 -0.2039
35579SOL    HW110268   3.189   1.015   5.010  0.0256 -0.6766 -1.7432
35579SOL    HW210269   3.206   0.942   5.142  1.3215  0.4517 -1.2509
35580SOL     OW10270   1.999   1.556   2.844 -0.1191  0.0511 -0.1591
35580SOL    HW110271   1.948   1.513   2.775 -0.5151  1.4047 -0.7514
35580SOL    HW210272   1.936   1.610   2.891  0.7130  1.7164 -0.8768
35581SOL     OW10273   2.369   2.968   4.464  0.0416 -0.2869 -0.3432
35581SOL    HW110274   2.431   2.958   4.391  0.5756 -0.6528  0.1486
35581SOL    HW210275   2.412   2.923   4.537  0.1802  1.2928  0.5960
35582SOL     OW10276   8.165   2.710   0.354 -0.6210  0.1610 -0.1140
35582SOL    HW110277   8.152   2.616   0.339 -0.1813  0.3500 -1.7981
35582SOL    HW210278   8.255   2.717   0.384 -0.2814  0.1452 -1.1071
35583SOL     OW10279   0.812   6.717   5.799 -0.1066 -0.0208 -0.3419
35583SOL    HW110280   0.888   6.660   5.787 -0.2989  0.0029 -1.8990
35583SOL    HW210281   0.848   6.805   5.798 -0.0619 -0.0366 -0.1811
35584SOL     OW10282   1.122   5.418   1.509  0.1026  0.5611  1.0296
35584SOL    HW110283   1.189   5.414   1.441  1.1684  1.8247  1.9468
35584SOL    HW210284   1.056   5.354   1.482  2.0817 -1.4098  0.5446
35585SOL     OW10285   7.899   1.802   9.179  0.0900 -1.2415  0.1873
35585SOL    HW110286   7.966   1.775   9.116 -0.8991  0.8950 -1.9260
35585SOL    HW210287   7.931   1.885   9.214 -0.7687 -0.9565  0.3060
35586SOL     OW10288   2.640   3.618   7.502  0.4272  0.8734  0.3512
35586SOL    HW110289   2.600   3.549   7.449 -0.2963  0.1312  1.7886
35586SOL    HW210290   2.587   3.696   7.485 -0.1870  0.4855  0.4506
35587SOL     OW10291   6.509   7.748   3.127  0.7621 -0.2377  0.1959
35587SOL    HW110292   6.475   7.799   3.053  0.1467 -0.0199  0.6216
35587SOL    HW210293   6.586   7.797   3.156  1.8818 -1.0946 -1.2038
35588SOL     OW10294   4.832   0.142   1.981  0.2191  0.0041  0.3449
35588SOL    HW110295   4.862   0.230   1.960 -0.9632  0.2855 -0.2543
35588SOL    HW210296   4.874   0.086   1.916  0.8254  0.1407  0.6098
35589SOL     OW10297   9.495  10.625   3.176  0.1835 -0.1473 -0.1641
35589SOL    HW110298   9.546  10.563   3.124 -2.3574 -2.3962 -0.1936
35589SOL    HW210299   9.560  10.685   3.211  2.5487 -1.4261 -2.0203
35590SOL     OW10300  10.765   4.139   9.723 -0.1016  0.6759 -0.3958
35590SOL    HW110301  10.839   4.196   9.701  0.7521 -0.3920 -0.3911
35590SOL    HW210302  10.790   4.098   9.806 -0.8564  0.5616 -0.2167
35591SOL     OW10303   0.796   1.309   3.408  0.8737 -0.1126  0.1242
35591SOL    HW110304   0.843   1.372   3.353 -0.7697 -0.4189 -1.7465
35591SOL    HW210305   0.708   1.346   3.416 -0.2663 -2.3232 -1.3797
35592SOL     OW10306  10.799   0.435   1.058  0.4031 -0.1055  0.0891
35592SOL    HW110307  10.833   0.346   1.051 -3.1490 -1.5867 -1.0298
35592SOL    HW210308  10.855   0.488   1.001  3.0229 -1.4067  1.3217
35593SOL     OW10309  11.124   9.010   1.188 -0.0120  0.3005 -0.1557
35593SOL    HW110310  11.121   9.105   1.204  0.5903  0.3961 -0.5781
35593SOL    HW210311  11.200   8.998   1.132 -1.4698 -0.1381 -2.1454
35594SOL     OW10312   1.187  10.203  10.198  0.2974  0.0216  0.2511
35594SOL    HW110313   1.133  10.270  10.156 -1.1453 -1.4285 -0.3390
35594SOL    HW210314   1.226  10.247  10.274 -1.8361  1.1258  0.7828
35595SOL     OW10315   9.231   1.265   8.642 -0.0222 -0.0343 -0.3377
35595SOL    HW110316   9.322   1.292   8.629 -0.0850  0.0525 -0.5987
35595SOL    HW210317   9.233   1.212   8.722  0.0247  1.1804  0.5148
35596SOL     OW10318   9.463   8.763   4.411 -0.2041  0.0681 -0.1574
35596SOL    HW110319   9.492   8.672   4.410 -1.1317 -0.2383 -0.8648
35596SOL    HW210320   9.422   8.776   4.325  1.7281  1.7648 -0.9265
35597SOL     OW10321   9.746   0.555   4.176  0.1530  0.1455 -0.1638
35597SOL    HW110322   9.739   0.550   4.271 -1.5933  0.1673 -0.2560
35597SOL    HW210323   9.744   0.649   4.157  0.4706  0.1405 -0.2291
35598SOL     OW10324   7.491   2.160   2.493  0.4267 -0.0647 -0.1531
35598SOL    HW110325   7.519   2.148   2.584  1.5225  0.5271 -0.4036
35598SOL    HW210326   7.434   2.237   2.496  1.6652  0.8829 -0.1840
35599SOL     OW10327   8.287   6.937   5.588 -0.4748 -0.0203 -0.2298
35599SOL    HW110328   8.234   7.017   5.585 -1.6429 -0.7752 -1.7880
35599SOL    HW210329   8.344   6.948   5.664 -1.7929  1.5404  0.6049
35600SOL     OW10330   4.308   8.268  10.353 -0.0225  0.6132  0.5291
35600SOL    HW110331   4.328   8.264  10.446 -0.3980  1.0260  0.6270
35600SOL    HW210332   4.391   8.294  10.312  1.0049 -2.3739  0.4248
35601SOL     OW10333   2.457   0.541   3.540  0.5821  0.8005  0.8176
35601SOL    HW110334   2.529   0.532   3.477 -1.4894 -0.2496 -1.6153
35601SOL    HW210335   2.427   0.452   3.555 -2.6749  1.3360 -1.4919
35602SOL     OW10336   7.643  10.321   1.890 -1.1163  0.1154  0.2916
35602SOL    HW110337   7.629  10.281   1.976 -3.7777 -0.5228 -0.3640
35602SOL    HW210338   7.648  10.415   1.908 -0.9829 -0.0570  1.2113
35603SOL     OW10339   5.311   8.617   3.585 -0.1354  0.3323 -0.1909
35603SOL    HW110340   5.284   8.567   3.508 -2.7238  0.1250  0.7877
35603SOL    HW210341   5.363   8.555   3.636  0.1652 -0.0500 -0.9312
35604SOL     OW10342   6.447   1.527  10.438 -0.1139 -0.0842  0.0675
35604SOL    HW110343   6.450   1.623  10.440  0.7836 -0.1130  0.4138
35604SOL    HW210344   6.511   1.502  10.372 -0.8242 -0.4413 -0.5061
35605SOL     OW10345  10.618   7.667   1.780  0.0936  0.0461  0.0625
35605SOL    HW110346  10.562   7.714   1.842 -1.4128 -0.0880 -1.1515
35605SOL    HW210347  10.705   7.707   1.791 -0.1608  0.1351  2.1117
35606SOL     OW10348   1.126   6.776   5.703  0.0639  0.1922  0.0974
35606SOL    HW110349   1.193   6.838   5.732 -1.2205  1.0940  1.2645
35606SOL    HW210350   1.152   6.693   5.743  0.8702  0.3569 -0.0645
35607SOL     OW10351   6.378   8.767   0.456  0.1301 -0.0456 -0.6886
35607SOL    HW110352   6.294   8.805   0.481  0.0644  0.2396 -1.3054
35607SOL    HW210353   6.386   8.788   0.362  0.2387 -1.2790 -0.9668
35608SOL     OW10354   4.813   8.653   0.981  0.4644  0.8952  0.3649
35608SOL    HW110355   4.743   8.708   1.015 -0.0813  0.8663 -0.6619
35608SOL    HW210356   4.768   8.577   0.942  1.1747 -0.0680  1.3559
35609SOL     OW10357   5.903   3.824   1.080  0.8752  0.0380 -0.0896
35609SOL    HW110358   5.821   3.796   1.040  0.6816 -0.0675  0.3758
35609SOL    HW210359   5.914   3.766   1.156  1.4485 -0.0387 -0.2242
35610SOL     OW10360   2.358   1.170   7.759  0.2172 -0.5428  0.0776
35610SOL    HW110361   2.449   1.146   7.774  0.5834  0.9029  0.3367
35610SOL    HW210362   2.319   1.093   7.717  1.7178 -0.9332 -0.6699
35611SOL     OW10363   3.481   7.171   7.906 -0.5547  0.2350  0.9562
35611SOL    HW110364   3.575   7.168   7.926 -0.5464  0.6952  1.0054
35611SOL    HW210365   3.477   7.170   7.811 -0.5130 -0.0525  0.9560
35612SOL     OW10366   8.666  10.411   8.335  0.1828  0.0803 -0.5806
35612SOL    HW110367   8.706  10.365   8.408  1.5030 -0.2915 -1.4950
35612SOL    HW210368   8.597  10.353   8.305  0.8447 -0.6226 -0.7722
35613SOL     OW10369   4.220   6.725   3.468 -0.2038 -0.3715  0.0856
35613SOL    HW110370   4.196   6.813   3.440 -0.3135 -0.1827  0.7576
35613SOL    HW210371   4.312   6.731   3.492 -0.6538  0.0113  1.8463
35614SOL     OW10372   4.910   9.986   3.645  0.5108 -0.1565 -0.1997
35614SOL    HW110373   4.836   9.993   3.585  1.5670 -1.0514 -1.6856
35614SOL    HW210374   4.874   9.944   3.723 -0.9867  1.4042  0.0205
35615SOL     OW10375   6.184   1.047   3.706 -0.7864  0.4007  0.2193
35615SOL    HW110376   6.105   1.003   3.739 -1.3055  1.2250  0.0994
35615SOL    HW210377   6.175   1.042   3.610 -0.5290  0.2097  0.2048
35616SOL     OW10378   6.012   9.282   2.287 -0.2924  0.2667 -0.1697
35616SOL    HW110379   6.036   9.288   2.195 -0.3550  2.9598 -0.0983
35616SOL    HW210380   6.091   9.311   2.334 -0.4562 -0.5011  0.5921
35617SOL     OW10381   4.666   6.514   5.544  0.3952  0.1293 -0.7367
35617SOL    HW110382   4.596   6.515   5.479 -0.7971 -0.6021  0.4744
35617SOL    HW210383   4.620   6.519   5.628  1.9628  4.6244  0.1227
35618SOL     OW10384   3.705   5.354   1.307  0.0817 -0.1116 -0.0613
35618SOL    HW110385   3.753   5.431   1.278  0.4172  0.1141  1.0322
35618SOL    HW210386   3.613   5.375   1.294  0.2178  0.0754 -0.7099
35619SOL     OW10387   5.012   2.516   7.630 -0.4589  0.2314 -0.2682
35619SOL    HW110388   5.028   2.586   7.567  0.4387 -1.2593 -1.7683
35619SOL    HW210389   4.990   2.439   7.576 -3.9935 -0.1023  1.3755
35620SOL     OW10390   5.141  10.604   6.120  0.3811 -0.2916  0.6291
35620SOL    HW110391   5.111  10.516   6.141  0.0877 -0.2104  0.5502
35620SOL    HW210392   5.086  10.632   6.047  1.3724 -0.5584 -0.2448
35621SOL     OW10393  10.972   0.943   8.448 -0.3344  0.0419  0.4419
35621SOL    HW110394  11.033   0.870   8.447 -0.5835 -0.1802  0.9960
35621SOL    HW210395  10.945   0.953   8.357  0.3953  0.0355  0.2219
35622SOL     OW10396   6.855   0.480   6.216 -0.3261  0.1688 -0.8655
35622SOL    HW110397   6.798   0.419   6.263  0.4000  0.6019  0.6073
35622SOL    HW210398   6.926   0.425   6.182  0.4289  0.1769  0.6212
35623SOL     OW10399   0.565   9.218   7.758 -0.5277  0.1146  0.0722
35623SOL    HW110400   0.611   9.225   7.841  0.8009 -0.5311 -0.5831
35623SOL    HW210401   0.539   9.126   7.751 -2.0223  0.4785  0.4622
35624SOL     OW10402  10.832   8.991  11.012 -0.3504  0.2187  0.2770
35624SOL    HW110403  10.768   9.032  10.953 -0.3388  1.7575  1.2915
35624SOL    HW210404  10.902   9.055  11.020  0.9296 -1.0718 -0.0841
35625SOL     OW10405   9.542   2.980   9.853 -0.1171 -0.0879  0.7704
35625SOL    HW110406   9.546   3.008   9.761 -2.5689 -0.0992  0.5901
35625SOL    HW210407   9.606   2.910   9.859  0.9229  0.6876 -0.6362
35626SOL     OW10408   9.443   3.856   8.602  0.2814  0.1465 -0.3414
35626SOL    HW110409   9.406   3.839   8.516  0.7771  2.1192 -1.0007
35626SOL    HW210410   9.443   3.951   8.610 -1.2914  0.0183  2.5392
35627SOL     OW10411  10.712   1.023   4.853  0.0098  0.1174  0.5607
35627SOL    HW110412  10.746   0.942   4.817  1.5531  1.2517 -0.6818
35627SOL    HW210413  10.767   1.040   4.930  1.2789  1.1385 -0.5304
35628SOL     OW10414   8.398   8.797   9.786 -0.2011  0.0490  0.0527
35628SOL    HW110415   8.333   8.852   9.829 -1.0215 -0.5469 -0.4026
35628SOL    HW210416   8.456   8.859   9.742 -1.3924  0.5698 -0.8597
35629SOL     OW10417   9.714   9.333   3.584  0.3079  0.1048 -0.2867
35629SOL    HW110418   9.659   9.346   3.507 -1.8737 -1.9376  0.7846
35629SOL    HW210419   9.652   9.315   3.655  2.1753  2.2355  2.1130
35630SOL     OW10420   6.093   2.169   1.056 -0.1714 -1.0179  0.2334
35630SOL    HW110421   6.175   2.217   1.052 -0.1361 -0.9128  1.5769
35630SOL    HW210422   6.045   2.195   0.978 -0.3038  1.5334  1.0839
35631SOL     OW10423   2.208   0.166   6.593 -0.6697  0.5586 -0.2842
35631SOL    HW110424   2.138   0.116   6.634 -0.0624  1.5777  2.1795
35631SOL    HW210425   2.276   0.101   6.574 -1.3665 -0.0900 -0.6150
35632SOL     OW10426   7.150   0.759   0.354 -0.2257 -0.4169  0.2028
35632SOL    HW110427   7.161   0.667   0.333 -0.3670 -0.4930  0.4564
35632SOL    HW210428   7.111   0.759   0.442  1.6084 -0.0997  1.0619
35633SOL     OW10429   5.058   2.373   8.333 -0.2569 -0.3018  0.2603
35633SOL    HW110430   5.148   2.346   8.312 -0.1833  0.2118 -0.0924
35633SOL    HW210431   5.005   2.295   8.314 -0.0216 -0.2730 -0.5752
35634SOL     OW10432   4.961   7.489   2.467 -0.8408  0.4918 -0.0263
35634SOL    HW110433   5.023   7.450   2.405 -0.0971  1.7554 -0.1216
35634SOL    HW210434   5.013   7.504   2.546 -1.1747  1.0547  0.0894
35635SOL     OW10435   4.969   7.895   8.073  0.7612  0.2301 -0.1361
35635SOL    HW110436   4.948   7.808   8.106  1.8727 -0.2508 -0.6537
35635SOL    HW210437   5.062   7.908   8.093  1.0332  0.6148 -1.5037
35636SOL     OW10438   9.155  11.050   3.718 -0.0300  0.6388  0.3940
35636SOL    HW110439   9.214  11.124   3.731  0.2398  0.3097  1.1155
35636SOL    HW210440   9.169  11.023   3.627  2.1374 -0.4190  0.9740
35637SOL     OW10441   2.822   8.199   5.432 -0.2331  0.2833  0.6215
35637SOL    HW110442   2.853   8.140   5.500 -0.1809  1.1144  1.3237
35637SOL    HW210443   2.748   8.245   5.472 -3.0220 -2.1931 -1.2262
35638SOL     OW10444   6.023   7.025   2.172  0.3191  0.2156 -0.3101
35638SOL    HW110445   5.969   6.962   2.125 -0.3165  0.5300 -0.0224
35638SOL    HW210446   5.969   7.104   2.176  0.4536  0.2619  0.7529
35639SOL     OW10447   7.995   8.337   1.839  0.1660 -0.2735  0.0115
35639SOL    HW110448   7.935   8.370   1.906  0.8522  0.3348  0.3328
35639SOL    HW210449   7.945   8.268   1.795 -0.5684 -0.1599  0.6398
35640SOL     OW10450   0.875   2.564   3.128 -0.4254 -0.7768 -0.4306
35640SOL    HW110451   0.838   2.620   3.196 -1.5972 -0.8351 -0.9817
35640SOL    HW210452   0.823   2.584   3.050  0.2526 -1.4056 -1.0615
35641SOL     OW10453   9.355   2.041   6.266  0.2688  0.1484  0.0195
35641SOL    HW110454   9.352   2.121   6.214 -0.9914 -0.2511 -0.5725
35641SOL    HW210455   9.284   2.051   6.329  1.5151  0.4411  1.4278
35642SOL     OW10456   9.201   5.059   1.227  0.2361 -0.2669  0.2182
35642SOL    HW110457   9.280   5.068   1.175 -0.0557 -0.5488 -0.2810
35642SOL    HW210458   9.132   5.098   1.173  0.2908  1.4750  1.3160
35643SOL     OW10459   6.257   5.206   3.181  0.6241  0.0703  1.0172
35643SOL    HW110460   6.292   5.277   3.235  3.8298 -0.2786 -0.3951
35643SOL    HW210461   6.287   5.126   3.224  2.4066 -0.2286 -0.6894
35644SOL     OW10462   9.906   3.142   6.956  0.1723  0.1487  0.1887
35644SOL    HW110463   9.894   3.226   7.000 -1.0998  0.8522 -1.3896
35644SOL    HW210464   9.999   3.121   6.969  0.2010  1.1226  1.7342
35645SOL     OW10465   8.498   1.141   4.136  0.1946  0.0373  0.2309
35645SOL    HW110466   8.585   1.156   4.099  0.5939  0.1986  1.2075
35645SOL    HW210467   8.513   1.075   4.204 -0.3502  0.5126  0.8098
35646SOL     OW10468  10.089   1.821   4.419  0.2904  0.2409  0.1492
35646SOL    HW110469  10.070   1.730   4.399 -2.0899  0.6507  0.3502
35646SOL    HW210470  10.185   1.826   4.416  0.4494 -2.0753 -0.5673
35647SOL     OW10471   2.016   3.048   1.437  0.0141 -0.4419 -0.1978
35647SOL    HW110472   2.085   3.090   1.386 -0.2616 -0.6303 -0.7295
35647SOL    HW210473   1.965   2.998   1.373 -0.3225 -0.6974  0.2624
35648SOL     OW10474   8.751   3.060   3.618  0.4912 -0.0375 -0.1226
35648SOL    HW110475   8.777   3.004   3.692  1.1975 -0.2500 -0.5270
35648SOL    HW210476   8.820   3.048   3.553  0.7906  1.4720 -0.1358
35649SOL     OW10477   3.672   7.492  10.411  0.7107  0.2883 -0.0209
35649SOL    HW110478   3.629   7.408  10.400  1.5460 -0.2662  0.7411
35649SOL    HW210479   3.747   7.489  10.352  0.1002  0.9812 -0.8543
35650SOL     OW10480   0.732   5.172   6.376 -0.1751  0.0419  0.1461
35650SOL    HW110481   0.808   5.137   6.331  0.5096  1.1643  0.3840
35650SOL    HW210482   0.767   5.244   6.428 -1.7091  2.0085 -1.4050
35651SOL     OW10483   2.997   0.313   0.102  0.5157 -0.2295  0.4299
35651SOL    HW110484   2.944   0.378   0.056  1.0240 -0.0060  0.1404
35651SOL    HW210485   3.062   0.285   0.037 -0.1572 -1.5920  0.3123
35652SOL     OW10486   8.463   8.644   7.533  0.0559 -0.0376 -0.2466
35652SOL    HW110487   8.533   8.654   7.598 -0.2553  0.6457 -0.0105
35652SOL    HW210488   8.398   8.588   7.576  1.5892 -2.9464 -1.4042
35653SOL     OW10489   0.722   6.848   3.458 -0.3717  0.2305 -0.1941
35653SOL    HW110490   0.665   6.793   3.511 -1.8121 -0.4388 -2.3098
35653SOL    HW210491   0.774   6.786   3.407  2.3402  0.8246  1.6536
35654SOL     OW10492  10.748  10.802   8.957  0.0268  0.2329 -0.3081
35654SOL    HW110493  10.828  10.755   8.937  1.3204  1.5955  1.2710
35654SOL    HW210494  10.688  10.736   8.991  0.7534 -0.6946 -0.8043
35655SOL     OW10495   5.039   9.894   8.655  0.1172 -0.2732 -0.0638
35655SOL    HW110496   5.120   9.926   8.617  0.2329 -0.9766 -0.4205
35655SOL    HW210497   5.052   9.800   8.665 -0.0109 -0.1586  1.4621
35656SOL     OW10498   7.876   1.776   5.189 -0.3807  0.1052  0.1303
35656SOL    HW110499   7.857   1.682   5.185  0.8315 -0.1627  0.2509
35656SOL    HW210500   7.967   1.780   5.218 -0.4639  1.3271  0.2456
35657SOL     OW10501   1.458   3.912   5.157  0.3776 -0.0687  0.1868
35657SOL    HW110502   1.439   3.899   5.250  0.8572  0.2447  0.3342
35657SOL    HW210503   1.408   3.843   5.112 -0.0840 -0.0414  0.6504
35658SOL     OW10504  10.905   4.606   7.753  0.6547  0.0667 -0.5038
35658SOL    HW110505  10.854   4.603   7.672 -0.6372 -2.0031  0.2982
35658SOL    HW210506  10.844   4.641   7.819  0.6297 -1.2508  0.2052
35659SOL     OW10507   9.263   6.347  10.645  0.2316 -0.1788  0.3030
35659SOL    HW110508   9.240   6.435  10.676  0.3581  0.2051 -0.6596
35659SOL    HW210509   9.343   6.360  10.594  0.4633 -0.9212  0.4623
35660SOL     OW10510   4.376   1.861   7.033 -0.5100  0.3275  0.1206
35660SOL    HW110511   4.384   1.898   6.945 -1.4890 -0.9486 -0.5379
35660SOL    HW210512   4.282   1.867   7.052 -0.3502  0.2792  0.9417
35661SOL     OW10513   4.929   6.498   8.129 -0.0438 -0.2400 -0.3685
35661SOL    HW110514   4.966   6.586   8.124 -0.5734  0.2055  2.2586
35661SOL    HW210515   5.001   6.443   8.161 -0.2849 -0.3363  0.0175
35662SOL     OW10516   6.962   3.092   3.959 -0.2601 -0.1285 -0.4144
35662SOL    HW110517   6.908   3.059   3.887 -1.8386  1.2801  0.0435
35662SOL    HW210518   7.002   3.172   3.924 -0.8248  0.4166  0.1484
35663SOL     OW10519   2.120   0.057   4.366 -0.0715  0.1706 -0.5174
35663SOL    HW110520   2.192   0.116   4.385 -1.2490  1.0569  1.5357
35663SOL    HW210521   2.145   0.014   4.285  2.1768  1.3336 -0.5171
35664SOL     OW10522   1.696   9.340   4.010  0.0703 -0.2346 -0.0678
35664SOL    HW110523   1.707   9.277   3.939 -0.3070 -1.1157  0.6322
35664SOL    HW210524   1.642   9.410   3.972  0.6586 -0.2321 -0.9113
35665SOL     OW10525   3.557   4.341  11.113 -0.2368  0.1997 -0.0624
35665SOL    HW110526   3.563   4.336  11.018 -0.0623 -0.4727 -0.0272
35665SOL    HW210527   3.553   4.249  11.141 -1.0642  0.4091  0.5343
35666SOL     OW10528   9.229   5.526   7.536 -0.2181  0.6706 -0.3561
35666SOL    HW110529   9.269   5.564   7.458 -0.2534  2.4826  0.4577
35666SOL    HW210530   9.136   5.518   7.515 -0.4680  2.4547 -0.0535
35667SOL     OW10531   6.189   8.800   4.149  0.3531 -0.1206  0.3392
35667SOL    HW110532   6.224   8.718   4.184  0.1442 -0.4702 -0.2572
35667SOL    HW210533   6.108   8.774   4.105 -0.8629  0.7308  2.0090
35668SOL     OW10534   8.544   0.502   6.518 -0.9377  0.3021  0.1166
35668SOL    HW110535   8.566   0.595   6.509  0.4254  0.1377  1.4368
35668SOL    HW210536   8.451   0.502   6.540 -1.1455  1.3017 -0.6824
35669SOL     OW10537   7.833   6.429   6.442  0.0962 -0.1035 -0.2372
35669SOL    HW110538   7.772   6.458   6.374  2.3337  1.5569 -1.6655
35669SOL    HW210539   7.920   6.443   6.405  1.4238 -1.6853  1.9822
35670SOL     OW10540   8.449   6.227   1.924  0.1473 -0.0296  0.0585
35670SOL    HW110541   8.459   6.313   1.966 -1.8951  0.4549 -0.3434
35670SOL    HW210542   8.451   6.246   1.830 -3.2291  0.1141 -0.1120
35671SOL     OW10543   3.366   2.420   1.443 -0.0827 -0.1294  0.3201
35671SOL    HW110544   3.358   2.505   1.400 -1.1443 -0.0330  0.6996
35671SOL    HW210545   3.459   2.413   1.464  0.4309 -0.0279 -1.6708
35672SOL     OW10546   8.788   8.643   8.130 -0.5057 -0.2008  0.1103
35672SOL    HW110547   8.853   8.600   8.185  1.0512  1.3040 -0.4452
35672SOL    HW210548   8.735   8.695   8.191 -0.4594 -0.5686  0.4615
35673SOL     OW10549   1.836   1.059  10.373 -0.2465  0.3640  0.2888
35673SOL    HW110550   1.861   1.152  10.371  0.1368  0.2552 -0.8196
35673SOL    HW210551   1.747   1.057  10.337  0.2614  0.1786 -1.0252
35674SOL     OW10552  10.856   9.414   7.897  0.5382  0.2588  0.4113
35674SOL    HW110553  10.773   9.421   7.943 -0.9867 -0.8246 -2.0085
35674SOL    HW210554  10.880   9.321   7.904  1.0106  0.3565  0.1723
35675SOL     OW10555   7.555   2.331   0.698  0.0904  0.5803 -0.2062
35675SOL    HW110556   7.579   2.363   0.785  1.8831 -0.3062 -0.3212
35675SOL    HW210557   7.548   2.409   0.644 -0.6570  1.1092  0.6372
35676SOL     OW10558   6.366   1.676   1.188 -0.1524 -0.0116  0.0755
35676SOL    HW110559   6.423   1.617   1.238 -0.1994 -1.3498 -1.3661
35676SOL    HW210560   6.329   1.621   1.119 -0.5508  1.6163 -1.0717
35677SOL     OW10561   0.250   8.250   0.587 -0.4054 -0.2959 -0.1788
35677SOL    HW110562   0.176   8.270   0.644 -0.4168  0.3536 -0.4065
35677SOL    HW210563   0.210   8.228   0.503 -0.4821 -2.9088  0.4597
35678SOL     OW10564   5.538   6.282   2.333  0.0654  0.1085  0.5974
35678SOL    HW110565   5.512   6.374   2.337  2.5713  0.8675  2.0374
35678SOL    HW210566   5.592   6.276   2.254  0.6753  0.1312  1.0059
35679SOL     OW10567   7.733   2.921   6.211  0.0276  0.1036  0.2158
35679SOL    HW110568   7.812   2.975   6.218 -0.2987  0.7714 -0.8990
35679SOL    HW210569   7.738   2.884   6.123 -1.7797  1.6345 -0.5991
35680SOL     OW10570   8.374   3.862   1.573  0.0373  0.3328  0.3504
35680SOL    HW110571   8.427   3.797   1.526 -0.4963 -0.7577  1.2268
35680SOL    HW210572   8.304   3.811   1.613 -1.1155  1.6225  0.0393
35681SOL     OW10573   4.519   7.118   1.514 -0.7407 -0.2420 -0.1100
35681SOL    HW110574   4.543   7.197   1.563  1.1810 -0.9594  0.1902
35681SOL    HW210575   4.579   7.051   1.546 -0.2488 -1.0550 -2.5385
35682SOL     OW10576   9.071   5.939   5.880  0.2563  0.0406  0.4034
35682SOL    HW110577   9.030   5.891   5.808  3.5571 -0.1307 -1.5390
35682SOL    HW210578   9.033   6.027   5.873  0.3320 -0.0235 -1.4606
35683SOL     OW10579   1.172   7.029  10.277 -0.1186 -1.0415  0.0976
35683SOL    HW110580   1.227   7.094  10.322  1.4833 -2.7493  0.7077
35683SOL    HW210581   1.166   7.061  10.187  4.1512 -2.0511 -0.7393
35684SOL     OW10582   2.934  10.657   2.915 -0.6167 -0.0315 -0.0679
35684SOL    HW110583   2.895  10.589   2.970 -1.4377  0.1290 -0.4430
35684SOL    HW210584   2.862  10.690   2.862 -0.1737  0.9250 -0.1095
35685SOL     OW10585   6.926   7.321   3.274 -0.2153  0.1351  0.5404
35685SOL    HW110586   7.000   7.359   3.226 -0.5583  1.2834  0.8872
35685SOL    HW210587   6.859   7.308   3.208 -0.6582  1.6383  0.6426
35686SOL     OW10588   1.445   6.434   3.862 -0.3238 -0.1083  0.2722
35686SOL    HW110589   1.388   6.499   3.904  2.1102  2.9551 -0.8119
35686SOL    HW210590   1.512   6.414   3.927  0.0083 -0.0736 -0.0552
35687SOL     OW10591   1.842   7.769   6.336 -0.5487 -0.0861  0.0158
35687SOL    HW110592   1.859   7.841   6.397 -3.2229  0.5248  0.1539
35687SOL    HW210593   1.809   7.698   6.392  0.8619 -1.0293 -0.2837
35688SOL     OW10594   9.468   9.094  10.120  0.1259 -0.3893  0.0868
35688SOL    HW110595   9.426   9.178  10.106 -0.4987 -1.0934 -2.9495
35688SOL    HW210596   9.560   9.109  10.096  0.9309  0.1984  3.0469
35689SOL     OW10597   6.514   5.613   6.743 -0.0598  0.1395 -0.4355
35689SOL    HW110598   6.484   5.703   6.729  1.0518  1.0821  2.4855
35689SOL    HW210599   6.456   5.579   6.812  1.0624 -0.5249  0.2055
35690SOL     OW10600  10.202   3.461   1.837 -0.5842  0.0326  0.0348
35690SOL    HW110601  10.227   3.498   1.752 -1.7362 -0.4875 -0.5640
35690SOL    HW210602  10.115   3.498   1.855 -0.0049  0.7878  1.4121
35691SOL     OW10603  10.652   9.078   5.859  0.1302  0.7170  0.2018
35691SOL    HW110604  10.664   9.099   5.767  1.0265 -1.6271 -0.2788
35691SOL    HW210605  10.722   9.125   5.904 -0.5080  2.1400 -0.2202
35692SOL     OW10606   8.725   3.407  10.201  0.0560  1.1904 -0.0226
35692SOL    HW110607   8.781   3.355  10.143  0.4168  1.6231 -0.0764
35692SOL    HW210608   8.774   3.411  10.284 -0.9161 -0.2756  0.6666
35693SOL     OW10609   6.998   2.093   5.928 -0.3417 -0.0617  0.2546
35693SOL    HW110610   6.930   2.110   5.863  0.6278  1.6032 -0.3597
35693SOL    HW210611   6.987   2.000   5.949 -1.0967 -0.4890 -1.7835
35694SOL     OW10612  11.052   3.327   3.740 -0.2889  0.5172 -0.4074
35694SOL    HW110613  11.071   3.248   3.790 -2.1878 -0.5799 -1.3024
35694SOL    HW210614  10.991   3.376   3.794  0.9451  1.4640  0.1805
35695SOL     OW10615   4.738  10.860   8.678  0.0621  0.7119  0.1147
35695SOL    HW110616   4.753  10.821   8.764 -0.5749  0.7216  0.2342
35695SOL    HW210617   4.802  10.818   8.620 -0.0859  0.0742  0.4093
35696SOL     OW10618   8.530   5.329   2.812 -0.1558 -0.7452 -0.0392
35696SOL    HW110619   8.610   5.382   2.811 -0.2316 -0.6301  0.0711
35696SOL    HW210620   8.470   5.376   2.869 -0.8168 -0.0885 -1.2429
35697SOL     OW10621   6.378   9.014  10.682 -0.4312  0.3121  0.4869
35697SOL    HW110622   6.408   9.067  10.608  1.3091 -2.4591 -0.9570
35697SOL    HW210623   6.287   8.993  10.661 -0.4884  0.9690  0.0345
35698SOL     OW10624   6.099   3.143   0.358 -0.3539 -0.3093 -0.2997
35698SOL    HW110625   6.170   3.207   0.349  0.9864 -1.3530  1.8628
35698SOL    HW210626   6.057   3.165   0.440  1.0228 -2.8616  1.2529
35699SOL     OW10627   8.759   2.438   2.921 -0.3338  0.9579  0.4082
35699SOL    HW110628   8.678   2.485   2.900 -0.8643  0.6661  1.7375
35699SOL    HW210629   8.827   2.486   2.873 -1.3729  0.7314 -1.3741
35700SOL     OW10630   0.028   4.129   8.373 -0.1862  0.8607 -0.0159
35700SOL    HW110631   0.054   4.117   8.464 -0.1399  0.9148 -0.0218
35700SOL    HW210632   0.088   4.196   8.340  0.2857  0.3172 -0.2931
35701SOL     OW10633   5.868   1.334   5.685  0.2371 -0.0804 -0.0848
35701SOL    HW110634   5.823   1.387   5.619 -1.5363 -1.6481 -0.2132
35701SOL    HW210635   5.934   1.284   5.635  0.6784  0.6353 -0.2350
35702SOL     OW10636  10.445   8.061   0.014  0.0699 -0.2809 -0.6282
35702SOL    HW110637  10.433   8.119  -0.061  0.5030  0.1648 -0.3561
35702SOL    HW210638  10.540   8.053   0.023  0.0883  1.1576  0.9987
35703SOL     OW10639   0.819   9.755   2.622 -0.4209  0.5336 -0.5219
35703SOL    HW110640   0.763   9.780   2.695 -1.7121 -0.2193 -1.2162
35703SOL    HW210641   0.828   9.836   2.571  0.4547  1.0516  0.4152
35704SOL     OW10642   4.257   8.228   4.710 -0.4904 -0.1373 -0.7525
35704SOL    HW110643   4.271   8.140   4.677 -1.9120 -0.6863  0.0311
35704SOL    HW210644   4.185   8.263   4.658 -2.1805 -0.7011  1.0660
35705SOL     OW10645   9.484   9.354   8.707 -0.6385  0.1272 -0.0565
35705SOL    HW110646   9.549   9.328   8.641 -1.0934 -1.0421 -0.0486
35705SOL    HW210647   9.528   9.424   8.756  0.2611  0.0035 -0.6551
35706SOL     OW10648   3.764   4.567   9.094 -0.3098  0.2805  0.1326
35706SOL    HW110649   3.729   4.654   9.114 -0.6270 -0.3188  2.4476
35706SOL    HW210650   3.730   4.511   9.163  1.0163 -1.4107 -0.5245
35707SOL     OW10651   4.641   5.114   6.234  0.2510 -0.0838 -0.0825
35707SOL    HW110652   4.615   5.044   6.174  1.2685  0.8580 -1.7228
35707SOL    HW210653   4.736   5.120   6.223  0.0708  2.2609 -0.8563
35708SOL     OW10654  10.588   0.120   6.208 -0.0018 -0.6245 -0.2518
35708SOL    HW110655  10.664   0.124   6.151 -0.3748  0.0206 -0.7198
35708SOL    HW210656  10.515   0.098   6.150 -0.3085 -0.4435  0.0565
35709SOL     OW10657   0.900  10.283   5.052 -0.6590 -0.1507 -0.0096
35709SOL    HW110658   0.849  10.328   5.119 -1.2757  0.8580 -1.1268
35709SOL    HW210659   0.966  10.347   5.025 -0.0560 -0.7446  0.0065
35710SOL     OW10660   5.458   3.068   4.661 -0.9308 -0.0387  0.5077
35710SOL    HW110661   5.480   3.037   4.748 -0.8117  0.4952  0.6756
35710SOL    HW210662   5.458   3.164   4.669 -0.1113  0.0422 -0.2712
35711SOL     OW10663   7.764   7.593   1.718 -0.2526 -0.0265  0.1270
35711SOL    HW110664   7.711   7.551   1.649  1.0495 -0.3403 -0.7152
35711SOL    HW210665   7.811   7.521   1.759 -0.2732  0.2828  0.7068
35712SOL     OW10666  10.065  10.670   0.636 -0.7531  0.3462  0.0925
35712SOL    HW110667  10.013  10.720   0.698 -0.3402 -0.1974  0.8978
35712SOL    HW210668  10.005  10.649   0.565 -1.9327 -1.0461  1.4310
35713SOL     OW10669   5.160   9.811   3.502 -0.2696  0.1175  0.4507
35713SOL    HW110670   5.126   9.737   3.553 -1.2543 -0.0588 -0.4329
35713SOL    HW210671   5.099   9.883   3.521 -1.4057 -0.3005 -1.4304
35714SOL     OW10672   9.183   8.029   6.062  0.3969 -0.2653  0.3272
35714SOL    HW110673   9.135   8.093   6.009 -1.4200 -0.7862  1.2692
35714SOL    HW210674   9.142   7.945   6.041  0.1991 -0.5943  1.8957
35715SOL     OW10675   1.080  11.031   0.716  1.3212 -0.3964  0.1965
35715SOL    HW110676   1.113  10.947   0.684 -0.0831 -0.7074 -0.5044
35715SOL    HW210677   1.015  11.058   0.651  0.0162  0.0492  1.6263
35716SOL     OW10678   2.313   3.974   1.956 -0.0311  0.0226  0.3357
35716SOL    HW110679   2.305   4.069   1.947  0.2961  0.3206  2.5083
35716SOL    HW210680   2.406   3.960   1.974  0.1160 -0.8486 -0.9567
35717SOL     OW10681   5.814  10.205  11.056 -0.1658 -0.2877  0.3413
35717SOL    HW110682   5.888  10.266  11.050 -0.0147 -0.5491 -0.6409
35717SOL    HW210683   5.753  10.247  11.116 -0.2229  1.0250 -0.5904
35718SOL     OW10684   1.762   9.428  10.894  0.0292  0.1320  0.5551
35718SOL    HW110685   1.778   9.336  10.914  0.3828 -0.0456 -0.5097
35718SOL    HW210686   1.801   9.441  10.808 -0.3359  1.1930  0.5384
35719SOL     OW10687   6.565   9.657   0.646 -0.9721 -0.2584  0.3205
35719SOL    HW110688   6.633   9.725   0.647 -0.9921 -0.2429  1.3049
35719SOL    HW210689   6.483   9.706   0.651 -1.0514 -0.2958 -0.4964
35720SOL     OW10690   1.593   7.210   9.118  0.5252  0.4288  0.1286
35720SOL    HW110691   1.593   7.138   9.055 -2.3781  1.8697 -1.7241
35720SOL    HW210692   1.670   7.262   9.096  1.6459 -1.0916  0.3191
35721SOL     OW10693   2.061   5.976  10.566  0.2462  0.1655  0.3302
35721SOL    HW110694   1.986   5.941  10.614  0.1662 -1.7823 -1.0884
35721SOL    HW210695   2.137   5.948  10.617  0.1146 -0.7565  0.0410
35722SOL     OW10696  10.510   2.708   8.256 -0.2037  0.0244  0.1196
35722SOL    HW110697  10.421   2.711   8.291 -0.0665  0.2707  0.4519
35722SOL    HW210698  10.549   2.629   8.294  0.6008  1.3241  2.1508
35723SOL     OW10699   7.666  10.417   8.315  0.4716 -0.2328  0.0476
35723SOL    HW110700   7.593  10.393   8.259  0.9102 -3.2985  0.6029
35723SOL    HW210701   7.733  10.448   8.255 -0.4662  0.3796 -0.6980
35724SOL     OW10702  10.755   2.732   3.989 -0.7827 -0.3072  0.2691
35724SOL    HW110703  10.850   2.739   3.989 -0.7778  0.0537  1.7255
35724SOL    HW210704  10.733   2.707   4.079 -2.1217  0.8712  0.3091
35725SOL     OW10705   3.557   0.408   0.926 -0.2058  0.2406  1.0804
35725SOL    HW110706   3.552   0.358   0.844  1.3582 -0.5024  1.3914
35725SOL    HW210707   3.473   0.394   0.968 -0.2903 -1.0565  0.5328
35726SOL     OW10708  10.508  10.254   9.620 -0.5343 -0.1860 -0.2359
35726SOL    HW110709  10.458  10.216   9.547 -1.1622  0.5835 -0.2249
35726SOL    HW210710  10.442  10.296   9.675 -0.0535 -0.6685  0.7340
35727SOL     OW10711   7.577   0.693   8.710 -0.7015 -0.8796  0.5942
35727SOL    HW110712   7.607   0.626   8.771 -1.0506 -1.8266 -0.2480
35727SOL    HW210713   7.492   0.661   8.680  0.0530 -1.1242 -1.4114
35728SOL     OW10714   0.141   3.578   8.061 -0.1289 -0.3471  0.5984
35728SOL    HW110715   0.086   3.501   8.075 -0.4494 -0.5674 -1.5822
35728SOL    HW210716   0.230   3.549   8.083 -0.5117 -0.7202  1.7309
35729SOL     OW10717   1.040   3.842   5.540  0.1864  0.2249  0.2409
35729SOL    HW110718   1.066   3.922   5.494  1.0636 -0.6208 -0.7914
35729SOL    HW210719   1.122   3.809   5.579  0.1070 -0.8727 -0.4745
35730SOL     OW10720   6.069   5.391   4.329 -0.9308  0.1467  0.4389
35730SOL    HW110721   6.055   5.475   4.285 -0.8153  0.2416  0.5819
35730SOL    HW210722   6.097   5.332   4.258 -0.9473  0.2451  0.3491
35731SOL     OW10723   4.876   3.263   3.016  0.2795  0.1171  0.4378
35731SOL    HW110724   4.809   3.223   3.073 -0.9128  1.9413  0.3831
35731SOL    HW210725   4.956   3.258   3.068 -0.4559  0.2919  1.6489
35732SOL     OW10726   7.107   7.741   9.489 -0.5528  0.1578  0.0673
35732SOL    HW110727   7.036   7.706   9.542 -0.8876  0.6179 -0.0669
35732SOL    HW210728   7.172   7.770   9.553  0.7330 -2.6761  0.1517
35733SOL     OW10729   0.082   6.630   4.246 -0.3636  0.0547 -0.2771
35733SOL    HW110730   0.072   6.719   4.210 -0.2549 -0.0942 -0.6746
35733SOL    HW210731   0.134   6.583   4.181  2.2218  0.5338  1.2890
35734SOL     OW10732   1.436   6.402   8.539 -0.3497 -0.1131 -0.0253
35734SOL    HW110733   1.360   6.369   8.588 -0.5760 -0.3911 -0.5572
35734SOL    HW210734   1.468   6.327   8.489  0.0753  0.0884 -0.0597
35735SOL     OW10735  10.300   4.343   9.893  0.4317  0.2152  0.8401
35735SOL    HW110736  10.230   4.405   9.873  0.9769  1.0195  1.3523
35735SOL    HW210737  10.267   4.259   9.862 -0.3040  0.7658  0.0878
35736SOL     OW10738   9.815   8.102   4.148 -0.2209  0.1414  0.1958
35736SOL    HW110739   9.848   8.191   4.159 -0.1078  0.4209 -2.0391
35736SOL    HW210740   9.891   8.051   4.119 -0.3485 -0.6638  1.1882
35737SOL     OW10741  10.061   4.918   2.349 -0.1541 -0.2933  0.0141
35737SOL    HW110742  10.064   4.963   2.434 -1.5298 -0.2809  0.0791
35737SOL    HW210743   9.971   4.929   2.319 -0.3913 -2.4789 -0.2564
35738SOL     OW10744   6.235   8.556   1.113  0.1507 -0.3064 -0.5097
35738SOL    HW110745   6.295   8.489   1.079 -0.8998 -2.4963  1.6369
35738SOL    HW210746   6.248   8.554   1.207 -0.2157  2.3296 -0.3409
35739SOL     OW10747   8.040   5.593   9.446 -0.1342 -0.0337  0.1478
35739SOL    HW110748   8.020   5.508   9.407 -0.1513 -0.9892  2.1374
35739SOL    HW210749   8.135   5.595   9.455 -0.0692  0.4834 -0.5579
35740SOL     OW10750   6.111   2.745   9.615 -0.1957 -0.9257 -0.2122
35740SOL    HW110751   6.046   2.747   9.686  1.4257 -0.1800  1.3450
35740SOL    HW210752   6.077   2.807   9.551 -0.8573 -0.2538  0.7433
35741SOL     OW10753   8.149   9.055   9.600 -0.4000  0.1215  0.0953
35741SOL    HW110754   8.114   9.019   9.682 -0.1722  0.0463  0.1610
35741SOL    HW210755   8.138   9.150   9.610 -0.7469  0.0862  0.0400
35742SOL     OW10756   2.533   1.950   5.173  0.4565  0.4795 -0.4437
35742SOL    HW110757   2.570   1.861   5.172 -0.1289  0.2155 -2.0418
35742SOL    HW210758   2.490   1.957   5.258 -0.9901 -1.4357 -0.9522
35743SOL     OW10759   7.778   2.069   9.722  0.0791 -0.5557 -0.5699
35743SOL    HW110760   7.776   2.008   9.795  0.1463 -0.4228 -0.4573
35743SOL    HW210761   7.784   2.155   9.762 -0.1462 -0.4659 -0.7251
35744SOL     OW10762   2.969   9.059   3.337 -0.2070 -0.3740  0.1146
35744SOL    HW110763   2.938   9.088   3.251  0.8518  1.8993  0.4106
35744SOL    HW210764   3.040   8.998   3.317 -0.1508 -0.0842 -0.6219
35745SOL     OW10765   4.799   4.039   8.214 -0.2321 -0.6712  0.0612
35745SOL    HW110766   4.873   4.087   8.178 -0.0241 -1.7353 -0.9732
35745SOL    HW210767   4.788   3.964   8.156 -1.6524 -0.9355  0.6286
35746SOL     OW10768   2.687   7.138   2.949  0.2785  0.4779  0.3344
35746SOL    HW110769   2.690   7.193   3.027 -0.2636 -1.1489  1.5517
35746SOL    HW210770   2.599   7.151   2.914  0.8214  1.9125 -0.5762
35747SOL     OW10771  11.107   0.635   8.317 -0.3927  0.4314 -0.1504
35747SOL    HW110772  11.156   0.672   8.243  3.9488 -1.4848  1.4509
35747SOL    HW210773  11.137   0.684   8.393 -2.3253  0.2191  0.8296
35748SOL     OW10774   9.688   1.795   5.240 -0.1578  0.5924 -0.6217
35748SOL    HW110775   9.752   1.861   5.266 -0.0562 -0.0055  0.7268
35748SOL    HW210776   9.736   1.713   5.242 -0.8250  0.2025 -0.1144
35749SOL     OW10777   7.525   1.916   7.341 -0.4418 -0.6064  0.5743
35749SOL    HW110778   7.501   1.905   7.434 -0.1811  0.6414  0.7996
35749SOL    HW210779   7.620   1.923   7.342 -0.5373  1.1476  0.4276
35750SOL     OW10780  10.440   8.022   9.329 -0.6110 -0.1114  0.4408
35750SOL    HW110781  10.473   8.002   9.416  2.2948  0.4735 -0.4313
35750SOL    HW210782  10.477   8.108   9.309 -2.3209  0.3763 -0.8895
35751SOL     OW10783   1.017  10.026   7.285 -0.0132  0.1195 -0.3333
35751SOL    HW110784   0.935  10.076   7.284 -0.2042 -0.1792  0.0136
35751SOL    HW210785   1.075  10.076   7.342 -0.0123  0.2455 -0.4459
35752SOL     OW10786   2.280   3.094   5.555  0.0617  0.4320  0.1396
35752SOL    HW110787   2.346   3.038   5.596 -0.5006  0.7650  1.5909
35752SOL    HW210788   2.257   3.049   5.474  1.1000 -0.3676  0.2681
35753SOL     OW10789   5.001   8.411   6.548  0.2046 -0.0619 -0.0123
35753SOL    HW110790   5.062   8.417   6.474  1.3255 -0.6181  0.8506
35753SOL    HW210791   4.919   8.381   6.508  0.7007 -0.0717 -1.0738
35754SOL     OW10792   5.808   9.439   2.395  0.2528  0.6654 -0.3425
35754SOL    HW110793   5.873   9.379   2.357  0.2703  0.9787 -0.8118
35754SOL    HW210794   5.810   9.516   2.337 -0.5173  0.6890 -0.3396
35755SOL     OW10795   1.657   2.621  10.454 -0.0697  0.1589 -0.0135
35755SOL    HW110796   1.591   2.635  10.522  1.2581 -0.3420  1.4350
35755SOL    HW210797   1.647   2.529  10.429  0.2603  0.0009  0.4228
35756SOL     OW10798   1.250   9.532   0.594  0.0324 -0.1681  0.3899
35756SOL    HW110799   1.341   9.534   0.563 -0.3375  1.2305 -0.7370
35756SOL    HW210800   1.201   9.497   0.519 -0.3627 -0.9929  1.0211
35757SOL     OW10801   6.319   4.434   4.551 -0.0532  0.6924 -0.0148
35757SOL    HW110802   6.355   4.516   4.518 -2.4585  1.6211 -0.5567
35757SOL    HW210803   6.282   4.456   4.637  0.0121 -0.0297  0.2070
35758SOL     OW10804   1.272   3.047  10.142  0.1660  0.0871 -0.2138
35758SOL    HW110805   1.278   3.062  10.047 -0.2789  0.4190 -0.1917
35758SOL    HW210806   1.356   3.077  10.176  0.1094  0.5054 -0.4359
35759SOL     OW10807   3.194   6.008  10.226  0.9774  0.5472  0.2435
35759SOL    HW110808   3.134   6.082  10.237 -0.7362 -0.4262 -1.6612
35759SOL    HW210809   3.147   5.934  10.266  0.4322 -0.3995 -1.9867
35760SOL     OW10810   9.950   9.262   4.396 -0.0686 -0.6683 -0.1104
35760SOL    HW110811   9.953   9.309   4.479  1.1232  1.3213 -1.2097
35760SOL    HW210812   9.933   9.330   4.330  1.4166 -1.7853 -1.7401
35761SOL     OW10813   9.075   7.276   4.395 -0.2100 -0.2321 -0.2439
35761SOL    HW110814   9.128   7.213   4.444 -2.0684 -1.2582  0.5519
35761SOL    HW210815   9.139   7.328   4.347  1.5234 -1.2587  0.8168
35762SOL     OW10816   9.164  10.532   2.090  0.2117 -0.1453  0.2318
35762SOL    HW110817   9.220  10.550   2.015 -1.0461  0.2427 -0.6615
35762SOL    HW210818   9.082  10.501   2.051 -0.8068  0.9638  1.3958
35763SOL     OW10819   8.381   0.450  10.007 -0.1520 -0.0787  0.2131
35763SOL    HW110820   8.299   0.462   9.959 -1.0156  1.0793  1.9107
35763SOL    HW210821   8.361   0.475  10.097  2.1283  0.4688  0.6312
35764SOL     OW10822   0.153   4.855   9.302 -0.4964 -0.1197  0.3152
35764SOL    HW110823   0.066   4.821   9.321 -0.4518  0.4131  1.5744
35764SOL    HW210824   0.138   4.945   9.272 -0.3158  0.7701  2.6401
35765SOL     OW10825   5.881   5.976  10.896  0.4600 -0.3918 -0.5295
35765SOL    HW110826   5.944   6.021  10.841  2.9192 -1.7017  1.0225
35765SOL    HW210827   5.868   6.034  10.971 -0.8421  0.2060 -1.1771
35766SOL     OW10828   0.708   7.704   8.504  0.0901 -0.4254 -0.6761
35766SOL    HW110829   0.719   7.743   8.417 -0.8001 -0.5828 -0.8757
35766SOL    HW210830   0.713   7.778   8.564  0.0627 -0.2246 -0.9176
35767SOL     OW10831   6.274   3.017   0.694  0.4736  0.3560  0.0982
35767SOL    HW110832   6.290   3.027   0.788  3.0113 -0.5471 -0.1770
35767SOL    HW210833   6.266   3.107   0.661 -2.7596  0.7097  1.4103
35768SOL     OW10834   9.086   5.567   7.252 -1.2352  0.4199  0.3444
35768SOL    HW110835   9.029   5.526   7.318 -2.5587 -1.9215 -2.0408
35768SOL    HW210836   9.068   5.661   7.259 -1.5865  0.2161  3.0160
35769SOL     OW10837   7.335   0.326   5.744 -0.0245  0.3160 -0.8954
35769SOL    HW110838   7.395   0.268   5.790 -0.3349 -0.4441 -1.4313
35769SOL    HW210839   7.384   0.359   5.669 -0.3430 -0.5247 -1.4916
35770SOL     OW10840  10.928   8.113   8.168  0.1124 -0.0664 -0.0186
35770SOL    HW110841  10.860   8.046   8.166 -0.1461  0.2242 -1.3647
35770SOL    HW210842  11.005   8.070   8.132 -0.3956  0.6946 -2.1369
35771SOL     OW10843   8.240   3.787   8.552 -0.2600  0.1215 -0.4548
35771SOL    HW110844   8.269   3.696   8.544  1.2822  0.4416  0.8332
35771SOL    HW210845   8.299   3.836   8.494 -1.1240  0.3156 -1.1903
35772SOL     OW10846   3.835   3.620   4.086 -0.5265  0.4246 -0.3881
35772SOL    HW110847   3.784   3.679   4.031 -0.4415  0.5135 -0.3716
35772SOL    HW210848   3.902   3.585   4.027 -1.6519 -1.0372 -0.8809
35773SOL     OW10849   6.255   7.135  10.989  0.0765  0.3394  0.5888
35773SOL    HW110850   6.321   7.097  10.931 -2.5090 -1.5072 -1.3371
35773SOL    HW210851   6.305   7.165  11.065  3.4776  1.5968 -1.8832
35774SOL     OW10852   8.284   7.558   7.053  0.6050  0.4285  0.4004
35774SOL    HW110853   8.253   7.550   7.143 -0.8835 -1.8476 -0.2213
35774SOL    HW210854   8.279   7.652   7.034  0.4006  0.8937  2.4804
35775SOL     OW10855   8.891  10.325   7.443 -0.0846 -0.0038 -0.7417
35775SOL    HW110856   8.900  10.276   7.524 -1.2356 -1.7957 -1.6189
35775SOL    HW210857   8.802  10.306   7.413 -0.3068  2.0489 -1.5432
35776SOL     OW10858   9.627   3.096   4.248  0.5633  0.1541  0.2460
35776SOL    HW110859   9.720   3.107   4.269  0.8881 -1.2441 -0.3472
35776SOL    HW210860   9.619   3.005   4.219 -1.0492  0.1735  0.5227
35777SOL     OW10861   1.848   9.311   2.223  0.0677 -0.1534  0.4067
35777SOL    HW110862   1.902   9.239   2.188  1.1938 -0.1131  1.9695
35777SOL    HW210863   1.758   9.281   2.211  0.4441 -0.7230 -1.2350
35778SOL     OW10864   8.423   2.593   7.350 -0.3675  0.1005  0.0135
35778SOL    HW110865   8.466   2.564   7.430 -0.6359  0.0748  0.1514
35778SOL    HW210866   8.472   2.671   7.324  0.0169 -0.1630 -0.0605
35779SOL     OW10867   1.706   1.003   7.121 -0.2232  0.1032  0.1080
35779SOL    HW110868   1.667   1.046   7.197 -3.2849  0.1936 -1.3579
35779SOL    HW210869   1.705   0.910   7.142 -0.2384  0.1997  0.5267
35780SOL     OW10870   5.827   0.637   9.089 -0.0594 -0.8214 -0.4945
35780SOL    HW110871   5.842   0.632   9.184  0.8177  0.7594 -0.5147
35780SOL    HW210872   5.887   0.571   9.053 -0.3954 -1.4343  0.0256
35781SOL     OW10873   3.837   6.479   5.151  0.0803  0.2562 -0.0510
35781SOL    HW110874   3.867   6.497   5.061  1.1265 -0.7712  0.0758
35781SOL    HW210875   3.742   6.482   5.145  0.1084  3.2748 -0.5442
35782SOL     OW10876   6.206   9.439   8.365  0.1436  0.0947  0.0280
35782SOL    HW110877   6.153   9.497   8.310 -1.1399  1.1303  2.1748
35782SOL    HW210878   6.165   9.353   8.356 -0.3855  0.3713 -0.2293
35783SOL     OW10879   3.592   4.889   6.459 -0.2998 -0.3590  0.5156
35783SOL    HW110880   3.672   4.842   6.481 -0.2113 -1.1531 -1.3407
35783SOL    HW210881   3.547   4.832   6.397 -1.0849  1.1912 -0.3975
35784SOL     OW10882   0.108   4.238   4.830  0.3264 -0.7396  0.3026
35784SOL    HW110883   0.048   4.274   4.765 -0.6645 -2.0804  0.4321
35784SOL    HW210884   0.178   4.198   4.778  1.0136  0.5925  0.1483
35785SOL     OW10885   5.072  10.073  10.247 -0.3286 -0.0587  0.5242
35785SOL    HW110886   4.979  10.092  10.232  0.2223  1.3731 -1.4606
35785SOL    HW210887   5.106  10.151  10.290  0.0739 -0.3383  0.7164
35786SOL     OW10888   5.154   1.109   2.128 -0.2794 -0.6409  0.4960
35786SOL    HW110889   5.100   1.096   2.050 -0.4521 -0.1807  0.5385
35786SOL    HW210890   5.118   1.187   2.170 -0.6285 -1.2705  1.4086
35787SOL     OW10891   8.685   0.760   2.301 -0.5483  0.1407  0.3353
35787SOL    HW110892   8.769   0.723   2.275 -0.2074  0.1288  1.4244
35787SOL    HW210893   8.707   0.845   2.338 -0.8746 -0.3525  1.7136
35788SOL     OW10894   8.146   7.309   3.317 -0.5205 -0.5774  0.1420
35788SOL    HW110895   8.060   7.348   3.330 -1.4927 -2.3183 -0.8122
35788SOL    HW210896   8.175   7.285   3.405 -0.1068  1.7046  0.7030
35789SOL     OW10897   0.040  10.968   1.173  0.3922  0.0595 -0.0432
35789SOL    HW110898   0.020  11.060   1.155 -0.5375  0.1584  1.3328
35789SOL    HW210899   0.135  10.962   1.159  0.3365  1.0106 -0.9745
35790SOL     OW10900   0.842   6.167   8.042  0.4477  0.2597  0.5000
35790SOL    HW110901   0.873   6.211   8.121  1.5970  0.4208 -0.0133
35790SOL    HW210902   0.789   6.232   7.996  1.9964  1.0904 -0.1736
35791SOL     OW10903   3.631   6.371   0.772  0.1901 -0.0907  0.3737
35791SOL    HW110904   3.642   6.317   0.694 -0.9915 -0.2735  0.3205
35791SOL    HW210905   3.626   6.307   0.844  1.8106  0.0950  0.6924
35792SOL     OW10906   9.991   6.302   1.741 -0.0292  0.0487 -0.7286
35792SOL    HW110907   9.956   6.288   1.829  0.8500 -0.8407 -0.4931
35792SOL    HW210908   9.915   6.300   1.683 -0.6616  1.0946  0.0514
35793SOL     OW10909   2.473   3.858   0.953 -0.3608  0.0890 -0.4334
35793SOL    HW110910   2.448   3.807   1.029  1.4769 -1.1062 -0.5673
35793SOL    HW210911   2.441   3.808   0.878 -0.1470  0.0722 -0.5139
35794SOL     OW10912   3.251   9.357   1.389 -0.1850 -0.4311  0.3861
35794SOL    HW110913   3.273   9.328   1.300  2.8420 -0.7164  1.1272
35794SOL    HW210914   3.215   9.280   1.431 -1.7013 -0.2841 -0.5625
35795SOL     OW10915   0.120   6.727   1.749  0.3941  0.3580 -1.0028
35795SOL    HW110916   0.167   6.651   1.715  0.9450 -0.1074  0.6928
35795SOL    HW210917   0.183   6.798   1.745  1.3755 -0.2973  1.3971
35796SOL     OW10918  10.653   1.386   8.839  0.8739  0.1722 -0.2688
35796SOL    HW110919  10.633   1.298   8.810 -0.8724  0.7927 -1.0466
35796SOL    HW210920  10.648   1.381   8.935  1.1595 -0.6430 -0.2905
35797SOL     OW10921   1.560   3.534  10.965 -0.5676  0.1533  0.0673
35797SOL    HW110922   1.490   3.578  11.013 -0.6267  0.5987 -0.4086
35797SOL    HW210923   1.633   3.596  10.968  0.2400 -0.8323  1.6296
35798SOL     OW10924   4.749   1.036   6.544  0.6934 -0.7666 -0.1372
35798SOL    HW110925   4.671   1.030   6.598  0.3995 -0.8219 -0.5599
35798SOL    HW210926   4.810   1.089   6.595 -0.1113  0.4109 -0.3645
35799SOL     OW10927   5.593   8.945   9.963 -0.2837  0.0559  0.0099
35799SOL    HW110928   5.673   8.967   9.916 -0.7663  2.6349  0.2754
35799SOL    HW210929   5.535   9.020   9.949 -1.2744 -0.0680  2.8303
35800SOL     OW10930   0.262   5.221   2.604 -0.4928 -0.0975  0.0857
35800SOL    HW110931   0.309   5.162   2.663 -1.5526 -0.9307  0.1382
35800SOL    HW210932   0.216   5.282   2.663  1.8687  1.8846  0.0158
35801SOL     OW10933   9.262   0.162   1.703 -0.1796 -0.2109  0.1708
35801SOL    HW110934   9.270   0.127   1.792  1.0985  0.6173  0.3940
35801SOL    HW210935   9.316   0.240   1.702  1.1898 -1.0884 -1.8051
35802SOL     OW10936   8.592   3.402  11.034  0.1603  0.6132  0.4115
35802SOL    HW110937   8.575   3.316  11.072 -0.3684  0.9249  0.8909
35802SOL    HW210938   8.685   3.401  11.013 -0.1227 -0.6204 -0.9627
35803SOL     OW10939   3.475   0.107   2.695 -0.5311  0.1042  0.6603
35803SOL    HW110940   3.390   0.074   2.666 -0.5030  0.8450 -0.2863
35803SOL    HW210941   3.486   0.190   2.650  0.2825  0.4744  1.5078
35804SOL     OW10942   7.267   4.787   5.156 -0.1787  0.0323 -0.1129
35804SOL    HW110943   7.335   4.733   5.195  0.4088  0.4983 -0.4841
35804SOL    HW210944   7.209   4.725   5.112 -0.5694 -0.4492  1.0657
35805SOL     OW10945   7.874   7.782   5.060  0.1676  0.2325 -0.3707
35805SOL    HW110946   7.882   7.687   5.048 -2.2084 -0.1264  0.2267
35805SOL    HW210947   7.802   7.807   5.002  0.8162  1.7060 -0.5753
35806SOL     OW10948   5.495   9.200   8.594  0.1259  0.3592  0.7565
35806SOL    HW110949   5.522   9.150   8.671 -0.6867  0.6346  1.2317
35806SOL    HW210950   5.402   9.217   8.608  0.2616  1.5031  0.3175
35807SOL     OW10951   1.647   6.586   7.621  0.1417 -0.0895 -0.3740
35807SOL    HW110952   1.598   6.600   7.702  2.0616  0.5431  0.7447
35807SOL    HW210953   1.622   6.497   7.594 -2.1798  0.4823 -0.3320
35808SOL     OW10954   4.960  10.249   1.486  0.0081 -0.3415  0.0339
35808SOL    HW110955   4.966  10.341   1.462  1.5174 -0.2776  0.5906
35808SOL    HW210956   5.021  10.239   1.559 -0.9504 -1.5495  0.7055
35809SOL     OW10957   6.849  10.399   1.461 -0.5563 -0.9078 -0.4924
35809SOL    HW110958   6.871  10.446   1.381 -0.6570 -0.9226 -0.5298
35809SOL    HW210959   6.933  10.381   1.503 -0.5801  0.5794  0.2583
35810SOL     OW10960   1.694   6.500   5.568 -0.1291 -0.0218 -0.3407
35810SOL    HW110961   1.748   6.422   5.570 -0.6092 -0.4312 -2.1058
35810SOL    HW210962   1.667   6.513   5.660  1.4099 -0.8540  0.2567
35811SOL     OW10963   8.658   9.630   8.133 -0.1420 -0.0913 -0.3132
35811SOL    HW110964   8.656   9.609   8.040  0.4729 -1.9864  0.0573
35811SOL    HW210965   8.740   9.592   8.165  0.0829  1.2735  0.8610
35812SOL     OW10966   1.898   0.473   7.001  0.7978 -0.2850 -0.2437
35812SOL    HW110967   1.974   0.531   7.002 -1.1900  2.5665 -0.7074
35812SOL    HW210968   1.887   0.450   6.909  0.0491  0.9186 -0.4814
35813SOL     OW10969   9.666   6.463   5.004 -0.2510 -0.5152  0.4057
35813SOL    HW110970   9.720   6.464   5.083  0.3487  1.9558  0.0326
35813SOL    HW210971   9.686   6.545   4.959 -2.5242 -0.6263 -0.9932
35814SOL     OW10972   2.002   0.021   1.820  0.8934 -0.5032  0.8730
35814SOL    HW110973   2.023   0.068   1.739  0.0519 -0.2188  0.8066
35814SOL    HW210974   1.916  -0.018   1.803  0.5107 -0.0843  1.7741
35815SOL     OW10975   1.021   3.633   2.558 -0.1761 -0.1029  0.5844
35815SOL    HW110976   1.081   3.588   2.499 -0.3960 -0.6858  0.7978
35815SOL    HW210977   1.062   3.718   2.573  1.6367 -1.1877  2.2993
35816SOL     OW10978   7.823  10.800   8.097  0.2817  0.3372 -0.3191
35816SOL    HW110979   7.753  10.776   8.158  0.9635 -0.5937  0.1238
35816SOL    HW210980   7.786  10.786   8.010 -0.7234  1.7455 -0.1559
35817SOL     OW10981   2.962   4.449  10.602  0.8058 -0.0398 -0.0106
35817SOL    HW110982   2.946   4.520  10.665 -0.1818 -1.1457  1.0383
35817SOL    HW210983   2.995   4.494  10.524 -1.3347  1.7989  0.0195
35818SOL     OW10984   5.037   0.188   8.178 -0.3230  0.0186  0.0389
35818SOL    HW110985   4.950   0.218   8.151 -0.5168 -0.5775  0.0030
35818SOL    HW210986   5.096   0.259   8.153 -0.8194  0.4967  0.2057
35819SOL     OW10987   1.151   8.137   0.371  0.1108 -0.2531  0.0004
35819SOL    HW110988   1.057   8.141   0.356 -0.0469  0.8810  1.1476
35819SOL    HW210989   1.160   8.117   0.464  1.0041 -0.0093 -0.0254
35820SOL     OW10990   4.563   7.440   3.033 -0.1975  0.4959 -0.8189
35820SOL    HW110991   4.642   7.389   3.012 -0.1719  0.6108 -1.0060
35820SOL    HW210992   4.569   7.517   2.976  0.0220  0.9666 -0.1671
35821SOL     OW10993   8.334   6.395   3.200 -0.5658 -0.4476  0.3497
35821SOL    HW110994   8.425   6.423   3.208 -0.5364 -0.6337  0.7021
35821SOL    HW210995   8.321   6.334   3.273 -1.5683  1.1848  1.6128
35822SOL     OW10996   6.093   3.489   0.635 -0.0534 -0.3340  0.0383
35822SOL    HW110997   6.082   3.523   0.546 -0.6392 -1.1694 -0.2205
35822SOL    HW210998   6.045   3.406   0.635  0.2918 -0.5454  1.0152
35823SOL     OW10999   6.931   1.271   0.302 -0.5489  0.2581  0.4234
35823SOL    HW111000   6.972   1.273   0.216  0.3557 -0.9274  0.7943
35823SOL    HW211001   6.860   1.207   0.294 -3.3024  3.2022 -0.5676
35824SOL     OW11002   8.594   1.718   9.833 -0.1516 -0.4211  0.0910
35824SOL    HW111003   8.546   1.744   9.912 -2.9959 -0.1991 -1.5531
35824SOL    HW211004   8.540   1.647   9.796  0.6439  0.0412 -2.0546
35825SOL     OW11005   3.276   9.595   6.090 -0.2979 -0.4242  0.2102
35825SOL    HW111006   3.279   9.598   6.186 -1.1277  0.5420  0.2227
35825SOL    HW211007   3.302   9.683   6.063  1.0331 -0.9988 -0.5093
35826SOL     OW11008   4.505   7.011   9.327  0.0968 -0.4346 -0.2591
35826SOL    HW111009   4.509   6.967   9.242  1.9727  0.4257 -0.6654
35826SOL    HW211010   4.580   7.071   9.327 -0.0407 -0.1825  1.8839
35827SOL     OW11011   7.087   9.837   1.791  0.4483 -0.9186  0.3295
35827SOL    HW111012   7.083   9.751   1.832 -1.4154 -0.9825  0.1065
35827SOL    HW211013   7.007   9.843   1.738  0.2297  1.1519  0.7891
35828SOL     OW11014   1.556   1.921   7.676 -0.1629 -1.1087  0.1114
35828SOL    HW111015   1.490   1.882   7.733  0.0894 -0.7558  0.6605
35828SOL    HW211016   1.551   2.015   7.693  0.6557 -1.0980  0.3725
35829SOL     OW11017   4.551   1.721   6.721  0.4628 -0.1913  0.2038
35829SOL    HW111018   4.638   1.686   6.740  0.4361  0.3288  1.3841
35829SOL    HW211019   4.513   1.741   6.807 -0.5617  0.2222 -0.3168
35830SOL     OW11020   9.092   6.543   4.973 -0.7552  0.2718 -0.1096
35830SOL    HW111021   9.002   6.561   5.000 -1.1085 -2.2590  0.6801
35830SOL    HW211022   9.083   6.503   4.887 -0.3932  0.0071 -0.0268
35831SOL     OW11023   7.867   5.411   8.013 -0.0579 -0.1308 -0.0070
35831SOL    HW111024   7.923   5.379   7.943  0.4682 -0.7561  0.6727
35831SOL    HW211025   7.791   5.448   7.969  0.1290 -0.7677 -0.8867
35832SOL     OW11026   1.342   6.338   6.735  0.2068 -0.3959  0.0503
35832SOL    HW111027   1.362   6.428   6.761  1.6996 -0.7917  0.3449
35832SOL    HW211028   1.426   6.294   6.734 -0.4211 -1.6291 -0.7874
35833SOL     OW11029   2.915   2.740   1.797 -0.0623  0.0288 -0.5804
35833SOL    HW111030   2.942   2.805   1.862 -0.2488  0.1109 -0.5827
35833SOL    HW211031   2.822   2.725   1.816  0.2015 -0.9190  0.0006
35834SOL     OW11032   4.489   1.879   3.010  0.0763 -0.1275 -0.8334
35834SOL    HW111033   4.556   1.858   3.075 -0.5834 -1.3010 -0.4984
35834SOL    HW211034   4.407   1.858   3.053 -0.3538 -1.7584 -2.2972
35835SOL     OW11035   8.266   8.984   6.937  0.0377 -0.7365 -0.0065
35835SOL    HW111036   8.349   9.029   6.927 -0.6523  0.5205 -0.2571
35835SOL    HW211037   8.219   9.033   7.005 -0.6207 -1.2314 -0.0848
35836SOL     OW11038   8.579   5.510   3.195 -0.1725  0.0979  0.0515
35836SOL    HW111039   8.521   5.447   3.152  0.7932 -0.3289 -0.6901
35836SOL    HW211040   8.623   5.555   3.122  2.1542 -1.2622  0.5275
35837SOL     OW11041   8.359   9.582   0.236 -0.2832 -0.3117 -0.0854
35837SOL    HW111042   8.325   9.531   0.162  1.0597 -0.0998 -0.8907
35837SOL    HW211043   8.358   9.521   0.310  0.4478 -1.2425 -0.8164
35838SOL     OW11044  10.123   1.432   8.408 -0.2126  0.4021  0.5030
35838SOL    HW111045  10.202   1.415   8.358  0.0152  1.9443  0.2690
35838SOL    HW211046  10.062   1.469   8.343 -1.4678 -1.5495  0.4834
35839SOL     OW11047   2.172   6.466   0.077  0.1048 -0.3082  0.1237
35839SOL    HW111048   2.236   6.510   0.020  0.6306  0.1057  1.0141
35839SOL    HW211049   2.216   6.386   0.104 -0.0972 -0.4454  0.0446
35840SOL     OW11050   2.529  10.155   2.962 -0.4785 -0.0465 -0.1296
35840SOL    HW111051   2.514  10.078   2.906 -0.2293  0.0667 -0.3565
35840SOL    HW211052   2.493  10.131   3.047  0.9981 -1.0059  0.2452
35841SOL     OW11053   1.332  10.891   2.163  0.2665 -0.5663 -1.2219
35841SOL    HW111054   1.325  10.984   2.145  0.2565 -0.5920 -1.3530
35841SOL    HW211055   1.357  10.852   2.080  0.8132 -0.6171 -1.0426
35842SOL     OW11056   0.585   4.839  10.416  0.0162  0.3721  0.7159
35842SOL    HW111057   0.636   4.851  10.496  2.0583  1.5983 -0.6914
35842SOL    HW211058   0.552   4.749  10.422  1.0434  0.0589  2.4117
35843SOL     OW11059   1.296   7.017   3.837 -0.0825 -0.1321 -0.0543
35843SOL    HW111060   1.354   7.065   3.896  1.8250 -2.0706 -0.2150
35843SOL    HW211061   1.249   6.956   3.894  1.0519 -1.3274 -0.3196
35844SOL     OW11062   9.968   3.607   3.528 -0.0314 -0.2741  0.4410
35844SOL    HW111063   9.952   3.611   3.623  0.7786  0.9107  0.5428
35844SOL    HW211064  10.003   3.693   3.506 -0.0359 -0.6043 -0.9146
35845SOL     OW11065   2.435   1.337   5.791 -0.4496 -0.5774 -0.5222
35845SOL    HW111066   2.394   1.356   5.707 -1.2452  0.6081  0.1012
35845SOL    HW211067   2.507   1.278   5.770  0.1914  0.7070 -2.2101
35846SOL     OW11068   6.481   9.447   8.298  0.1747  0.2753  0.2234
35846SOL    HW111069   6.387   9.453   8.316 -0.0121 -0.5482 -0.3836
35846SOL    HW211070   6.505   9.357   8.322  1.0166  0.7564  1.2504
35847SOL     OW11071   1.958   4.291  10.830 -0.0147  0.0676  0.2442
35847SOL    HW111072   2.044   4.263  10.798 -0.0697 -0.2718  0.3915
35847SOL    HW211073   1.901   4.216  10.814 -0.9011  1.1484 -2.2814
35848SOL     OW11074   6.043   0.962   4.495  0.1563  0.2987 -0.0260
35848SOL    HW111075   5.974   0.909   4.455  1.1895 -0.6118 -0.6576
35848SOL    HW211076   6.076   0.909   4.567  2.7236 -1.0292 -2.0212
35849SOL     OW11077   0.800   7.390   5.434 -0.2562 -1.1133  0.0273
35849SOL    HW111078   0.721   7.383   5.488 -0.9170 -0.4833 -0.8369
35849SOL    HW211079   0.779   7.341   5.355  0.3050 -1.1287 -0.1118
35850SOL     OW11080   4.452   6.210   4.335 -0.0814 -0.5232  0.3732
35850SOL    HW111081   4.509   6.178   4.266  0.6960  0.3433  0.5913
35850SOL    HW211082   4.477   6.160   4.413 -0.5936 -1.1251  0.1604
35851SOL     OW11083  11.000  10.548   3.433 -0.1499 -0.0003 -0.2385
35851SOL    HW111084  11.065  10.477   3.435 -0.4972 -0.3003  0.4846
35851SOL    HW211085  11.021  10.597   3.353  0.8337 -0.2239 -0.1292
35852SOL     OW11086   9.503   0.706   6.330  0.1133 -0.4346  0.0779
35852SOL    HW111087   9.436   0.695   6.397 -0.4134 -0.1748 -0.4011
35852SOL    HW211088   9.454   0.722   6.249  0.7615  0.3001 -0.1752
35853SOL     OW11089   3.147   1.306   9.232 -0.3043 -0.2949  0.2660
35853SOL    HW111090   3.091   1.261   9.169  1.2493  0.4694 -1.7597
35853SOL    HW211091   3.225   1.329   9.182  1.1015  0.1747  2.5506
35854SOL     OW11092   2.637   9.156   9.528 -0.8778 -0.1053  0.1247
35854SOL    HW111093   2.724   9.118   9.512  0.0804  1.0075  2.3408
35854SOL    HW211094   2.576   9.085   9.508  0.3413 -0.3932 -3.2866
35855SOL     OW11095   8.096   6.325   5.397  0.2965  0.1980 -0.0593
35855SOL    HW111096   8.121   6.384   5.468  1.1342 -0.4113  0.1629
35855SOL    HW211097   8.004   6.346   5.380  0.5892  1.5980 -0.0279
35856SOL     OW11098   2.189   8.431   5.671 -0.9291 -0.4032  0.2958
35856SOL    HW111099   2.254   8.365   5.692  0.0793  0.2805 -0.5388
35856SOL    HW211100   2.172   8.476   5.753 -1.0467 -1.1912  0.7080
35857SOL     OW11101   6.771   8.773  10.792  0.2744 -0.3285  0.2003
35857SOL    HW111102   6.736   8.840  10.851  2.4212  0.7439  0.3434
35857SOL    HW211103   6.802   8.823  10.716 -0.3141 -1.4513 -0.8107
35858SOL     OW11104  10.713   0.672   5.335  0.4648  0.0029 -0.3282
35858SOL    HW111105  10.690   0.720   5.256 -1.0392 -1.1001 -0.5883
35858SOL    HW211106  10.710   0.738   5.405 -0.2914  0.5469 -0.8697
35859SOL     OW11107   0.417   0.651   4.808 -0.0892  0.2772  0.1370
35859SOL    HW111108   0.379   0.611   4.887 -0.0731  2.1042  1.1165
35859SOL    HW211109   0.506   0.615   4.804 -0.2196 -0.1279  0.7320
35860SOL     OW11110   2.026   7.826   9.028 -0.1726  0.7335  0.8087
35860SOL    HW111111   2.007   7.784   9.112 -0.7974  1.0798  0.8479
35860SOL    HW211112   2.122   7.825   9.022 -0.1475  0.0348  1.1736
35861SOL     OW11113  10.576   3.671   8.322  0.2769  0.0738 -0.6069
35861SOL    HW111114  10.555   3.740   8.259  0.7949  1.2286  0.4566
35861SOL    HW211115  10.670   3.657   8.312  0.2326 -0.2468 -0.5842
35862SOL     OW11116   5.749   3.098   0.136  0.7469  0.5687  0.5380
35862SOL    HW111117   5.810   3.028   0.160 -0.6792 -1.5717 -1.5399
35862SOL    HW211118   5.790   3.140   0.061  0.1928 -0.2135 -0.2287
35863SOL     OW11119   2.090   0.592   7.387 -0.6671 -0.4605 -0.1171
35863SOL    HW111120   2.059   0.525   7.447  1.8995  0.0567  1.9520
35863SOL    HW211121   2.159   0.549   7.336 -0.6420 -0.0449 -0.4457
35864SOL     OW11122  10.688   8.733   6.791  0.0075 -0.4045 -0.0938
35864SOL    HW111123  10.621   8.691   6.845  1.4767 -0.0766  2.0970
35864SOL    HW211124  10.700   8.819   6.830  0.7899  0.0448 -1.2675
35865SOL     OW11125   1.350   5.903   2.746 -0.4208  0.1087 -0.6014
35865SOL    HW111126   1.316   5.991   2.765  1.1575  0.8615 -1.0762
35865SOL    HW211127   1.299   5.874   2.670  0.4485  1.5339 -1.7883
35866SOL     OW11128   0.514   8.065  10.192 -0.2935  0.0090 -0.1285
35866SOL    HW111129   0.438   8.017  10.225  0.1493  0.8324  2.3069
35866SOL    HW211130   0.518   8.042  10.100 -1.6606 -2.4969  0.3308
35867SOL     OW11131   9.272   7.062   4.204 -0.4260  0.5606  0.4106
35867SOL    HW111132   9.228   7.108   4.132  0.1687  1.5307  0.6412
35867SOL    HW211133   9.332   7.002   4.160 -0.2699  0.9442  0.0874
35868SOL     OW11134   8.131   6.343   1.520  0.5175  0.6402 -0.7605
35868SOL    HW111135   8.221   6.341   1.488  0.4292 -0.4599 -0.9937
35868SOL    HW211136   8.109   6.251   1.535 -0.0658  0.9983  0.7213
35869SOL     OW11137   7.342   7.097   5.933  0.1908 -0.1325 -0.0622
35869SOL    HW111138   7.290   7.178   5.941 -2.3520 -1.7038  0.5483
35869SOL    HW211139   7.323   7.065   5.845 -2.0805 -2.0120  0.9980
35870SOL     OW11140   5.002   9.559   4.401 -0.2575  0.5641  0.5022
35870SOL    HW111141   5.087   9.596   4.425  0.3508  0.4760 -1.3660
35870SOL    HW211142   4.945   9.635   4.390  0.3586  0.8483 -0.9838
35871SOL     OW11143   4.253   6.844   9.758  0.2013 -0.2186  0.2367
35871SOL    HW111144   4.271   6.898   9.681 -1.7581 -0.0237 -0.1248
35871SOL    HW211145   4.205   6.768   9.724  0.8856 -1.0444  1.0556
35872SOL     OW11146  10.057   1.835   5.397 -0.0812  0.0683 -0.0388
35872SOL    HW111147  10.108   1.857   5.475 -0.0163  0.8469 -0.2960
35872SOL    HW211148  10.092   1.750   5.369 -0.8821 -0.7949  1.4282
35873SOL     OW11149  10.242   1.355   0.461  0.5145  0.4144 -0.1833
35873SOL    HW111150  10.313   1.369   0.523 -0.8080  2.6401  0.9457
35873SOL    HW211151  10.247   1.430   0.400 -1.5573  1.3560  0.7008
35874SOL     OW11152   8.086   4.189   1.262  0.2200  0.1853 -0.1493
35874SOL    HW111153   8.109   4.136   1.339 -1.3576 -0.0013  0.2355
35874SOL    HW211154   8.088   4.279   1.293  0.2032  0.1506 -0.0461
35875SOL     OW11155   2.060   1.717  10.227 -0.1726  0.0669 -0.1798
35875SOL    HW111156   2.048   1.808  10.256  0.8376  0.4444 -0.8686
35875SOL    HW211157   2.137   1.721  10.171 -0.6341 -1.0799 -0.9098
35876SOL     OW11158   1.253   5.687   6.875  0.3249  0.1726  0.4956
35876SOL    HW111159   1.190   5.718   6.809  1.2334 -0.0650 -0.5252
35876SOL    HW211160   1.316   5.636   6.824  0.7884 -0.4157  1.6472
35877SOL     OW11161   1.317   1.391   9.989 -0.0151  0.1464 -0.0383
35877SOL    HW111162   1.239   1.447   9.983 -1.0088 -1.2198 -0.5153
35877SOL    HW211163   1.330   1.378  10.082 -0.6400  0.0202  0.0351
35878SOL     OW11164   8.346  10.059   6.853  0.2839 -0.1095 -0.4988
35878SOL    HW111165   8.322   9.995   6.921 -0.6298  0.7807  0.0374
35878SOL    HW211166   8.397  10.125   6.900 -2.5368  1.9033 -0.0553
35879SOL     OW11167   1.810   1.357   4.987 -0.1098 -0.7067  0.3723
35879SOL    HW111168   1.852   1.346   5.072  0.5563 -0.7652  0.0476
35879SOL    HW211169   1.812   1.270   4.948 -1.5966 -0.9543  0.8198
35880SOL     OW11170   3.572   7.793   5.795  0.1338 -0.1637 -0.3580
35880SOL    HW111171   3.505   7.801   5.863 -1.4499 -2.9693 -1.4693
35880SOL    HW211172   3.569   7.877   5.749 -3.2755 -0.4779 -0.9149
35881SOL     OW11173   5.496   4.886   0.059 -0.1849  0.6579  0.3344
35881SOL    HW111174   5.518   4.900  -0.033 -0.0212  2.0820  0.5747
35881SOL    HW211175   5.421   4.827   0.056 -1.0041  1.7067 -0.7668
35882SOL     OW11176   4.860   1.080   6.072 -0.5155  0.2777 -0.4028
35882SOL    HW111177   4.811   1.096   6.153 -1.7216  1.2387 -1.2833
35882SOL    HW211178   4.868   1.166   6.031  0.1961 -0.1724 -1.2472
35883SOL     OW11179   3.539   8.751   7.232 -0.1587  0.1877 -0.0546
35883SOL    HW111180   3.447   8.771   7.216 -0.7076  0.3331  2.6951
35883SOL    HW211181   3.576   8.831   7.268  0.9026 -0.0471 -0.5733
35884SOL     OW11182   6.513  10.176   4.606 -0.3082 -0.0916 -0.0696
35884SOL    HW111183   6.452  10.250   4.604 -0.2685 -0.0297  0.9600
35884SOL    HW211184   6.476  10.114   4.542 -1.0005  0.2940 -0.0540
35885SOL     OW11185  11.066  10.527   0.225 -0.2855 -0.2291 -0.2616
35885SOL    HW111186  11.016  10.452   0.258 -0.5760  1.1068  2.7122
35885SOL    HW211187  10.999  10.594   0.209  0.1725  0.1589 -0.5531
35886SOL     OW11188   9.797   2.841   9.442 -0.4011 -0.3790  0.1617
35886SOL    HW111189   9.723   2.789   9.413 -0.5603 -0.6350  1.0065
35886SOL    HW211190   9.782   2.928   9.405 -0.5449 -0.7123 -0.5858
35887SOL     OW11191   8.332   2.825   7.034 -0.5114  0.0451 -0.1664
35887SOL    HW111192   8.294   2.776   6.962 -0.3329  0.8107 -0.7964
35887SOL    HW211193   8.372   2.902   6.993  0.3997  0.0325  0.6398
35888SOL     OW11194   4.936   0.480   6.849 -0.0069 -0.8895 -0.0931
35888SOL    HW111195   4.862   0.451   6.902 -0.8594  2.5192  0.8608
35888SOL    HW211196   4.914   0.454   6.760 -1.0348 -2.2720  0.5359
35889SOL     OW11197   0.295   9.902   7.402  0.4332 -0.3644 -0.7222
35889SOL    HW111198   0.270   9.847   7.328  0.3169 -0.2560 -0.7632
35889SOL    HW211199   0.215   9.947   7.427  0.3752 -0.7103 -0.2705
35890SOL     OW11200   9.222   4.154   8.901  0.2729 -0.3918 -0.1263
35890SOL    HW111201   9.155   4.221   8.911  0.4406  0.0489 -1.6736
35890SOL    HW211202   9.285   4.173   8.971  0.7201  1.5695 -1.0065
35891SOL     OW11203   0.178   9.431   8.476 -0.0288  0.1343  0.0265
35891SOL    HW111204   0.219   9.517   8.479  0.9207 -0.3268  2.1288
35891SOL    HW211205   0.219   9.387   8.402  0.0952  1.1857 -0.5442
35892SOL     OW11206   8.462   1.662   6.626 -0.4129 -0.3644 -0.0273
35892SOL    HW111207   8.471   1.601   6.552 -1.7998  0.9795 -1.3903
35892SOL    HW211208   8.374   1.645   6.660 -0.6389  0.5471 -0.1317
35893SOL     OW11209   5.557   1.550   8.198 -0.3916 -0.0327  0.1392
35893SOL    HW111210   5.506   1.473   8.175  0.2733  0.2898 -2.8579
35893SOL    HW211211   5.637   1.515   8.238 -1.0020 -0.7507  0.7575
35894SOL     OW11212   3.377   0.160   0.529 -0.6682  0.0124  0.1390
35894SOL    HW111213   3.418   0.113   0.457 -1.4459  1.7028 -1.4845
35894SOL    HW211214   3.324   0.094   0.574  0.1374 -1.1580 -0.5977
35895SOL     OW11215   0.299   2.073   9.651 -0.2470  0.1392 -0.2056
35895SOL    HW111216   0.216   2.065   9.603 -0.1481 -1.0768 -0.2086
35895SOL    HW211217   0.364   2.030   9.595  0.1568  0.0385  0.3246
35896SOL     OW11218   8.121   0.884   4.710 -0.4285  0.2906  0.7208
35896SOL    HW111219   8.127   0.816   4.777  3.0000  1.1423  1.4602
35896SOL    HW211220   8.103   0.964   4.759  0.5962  0.6843  0.4619
35897SOL     OW11221  10.100   5.386  10.781 -0.5375 -0.1278 -0.4283
35897SOL    HW111222  10.112   5.456  10.845 -0.2374 -0.7717  0.2372
35897SOL    HW211223  10.186   5.344  10.774 -0.7993 -0.6615 -0.5341
35898SOL     OW11224   5.093   8.861   9.085  0.2303 -0.8961 -0.0676
35898SOL    HW111225   5.008   8.881   9.046  0.6708  2.0640  0.2549
35898SOL    HW211226   5.073   8.829   9.173 -0.5521 -0.4655 -0.0835
35899SOL     OW11227   6.794   1.794   2.005 -0.5508 -0.3542 -0.1439
35899SOL    HW111228   6.884   1.764   1.992 -1.5807 -3.4921 -0.9197
35899SOL    HW211229   6.769   1.758   2.090 -1.0437  0.7212  0.1902
35900SOL     OW11230   0.433   7.371   4.819  0.5248 -0.4161 -0.1624
35900SOL    HW111231   0.410   7.365   4.912 -1.5156 -1.7410 -0.6888
35900SOL    HW211232   0.410   7.461   4.795  0.9908 -0.0867  0.5749
35901SOL     OW11233   0.882   7.007   7.288 -0.4645  0.4699 -0.4056
35901SOL    HW111234   0.830   7.085   7.269 -0.1823  0.7341 -0.1088
35901SOL    HW211235   0.939   7.033   7.360  0.3947  0.3257 -1.0150
35902SOL     OW11236   4.294   7.730   7.947  0.2427 -0.1389  0.3783
35902SOL    HW111237   4.299   7.639   7.918 -2.2944  0.1566 -1.3634
35902SOL    HW211238   4.268   7.724   8.039 -1.1959 -1.2150 -0.0632
35903SOL     OW11239   0.421   1.424   6.718 -0.1569 -0.0295  0.1735
35903SOL    HW111240   0.467   1.431   6.802 -0.3780 -0.5739  0.3452
35903SOL    HW211241   0.475   1.363   6.667 -0.2249  0.0045  0.0628
35904SOL     OW11242  11.098   2.954   7.023  0.4589 -0.2537  0.2680
35904SOL    HW111243  11.136   2.866   7.021  0.8028 -0.1142  0.6175
35904SOL    HW211244  11.160   3.006   7.074 -0.1844 -0.0176  0.8187
35905SOL     OW11245   1.123  10.789   0.491  0.4825 -0.1344  0.0494
35905SOL    HW111246   1.042  10.797   0.441  0.5809  0.4478 -0.0167
35905SOL    HW211247   1.183  10.852   0.451 -0.0012  1.6659  1.9706
35906SOL     OW11248   9.449   0.672   9.286  0.1567 -0.0754 -0.2940
35906SOL    HW111249   9.500   0.595   9.312  0.5601 -0.3337 -1.8006
35906SOL    HW211250   9.475   0.739   9.348  2.2544 -0.2401 -0.9336
35907SOL     OW11251   1.343   6.574  10.372 -0.5136 -0.2447 -0.3513
35907SOL    HW111252   1.333   6.559  10.278 -3.1487 -0.0660 -0.1608
35907SOL    HW211253   1.261   6.544  10.411  0.3387  0.0873  1.8667
35908SOL     OW11254   8.701   1.952  10.466 -0.0405 -0.6311  0.3476
35908SOL    HW111255   8.669   1.903  10.390  2.2104  0.0501 -1.1486
35908SOL    HW211256   8.785   1.912  10.487 -0.9979 -1.4093  3.1733
35909SOL     OW11257   9.110   3.329   8.176  0.6300 -0.0378 -0.0923
35909SOL    HW111258   9.016   3.346   8.184  1.0232  1.8728  0.9641
35909SOL    HW211259   9.128   3.261   8.241 -0.0023 -0.4612 -0.3425
35910SOL     OW11260  10.109   3.816   5.747 -0.1176 -0.1562 -0.0271
35910SOL    HW111261  10.172   3.829   5.677 -0.6177 -0.3530 -0.5246
35910SOL    HW211262  10.086   3.904   5.776  0.8305 -0.0976  0.5688
35911SOL     OW11263   4.888   7.273   8.824 -0.6373 -0.3099  0.2464
35911SOL    HW111264   4.810   7.316   8.789  0.4571  1.6815  0.1538
35911SOL    HW211265   4.951   7.275   8.752 -0.2768 -1.4041  0.5003
35912SOL     OW11266   9.063  10.573   6.939  0.2673  0.6153  0.4241
35912SOL    HW111267   8.981  10.587   6.892  0.8281  1.5492 -0.3277
35912SOL    HW211268   9.058  10.483   6.971 -1.3519  0.8922  1.0247
35913SOL     OW11269   6.123   0.887   4.762 -0.4766 -0.1661 -0.4790
35913SOL    HW111270   6.215   0.865   4.776 -0.4252 -0.6301 -1.4593
35913SOL    HW211271   6.077   0.803   4.763 -0.7329 -0.0433 -1.0080
35914SOL     OW11272   2.716   3.257   4.155  0.4026  0.2065  0.6004
35914SOL    HW111273   2.681   3.174   4.121  0.0759  1.3588 -2.1724
35914SOL    HW211274   2.646   3.321   4.140  0.2641  0.9011  3.5903
35915SOL     OW11275   3.092   3.880  10.773 -0.4340 -0.4000 -0.0100
35915SOL    HW111276   3.121   3.970  10.790 -2.3797  0.4128 -0.6429
35915SOL    HW211277   3.160   3.843  10.718 -0.5612  1.4320 -1.5227
35916SOL     OW11278   2.355   9.250   3.322 -0.2300  0.3070  0.1432
35916SOL    HW111279   2.400   9.274   3.241 -0.0667  2.9285  0.9151
35916SOL    HW211280   2.399   9.302   3.390 -1.8035 -0.1341  1.5601
35917SOL     OW11281   6.580   8.478   2.697 -0.0640 -0.0619  0.3224
35917SOL    HW111282   6.504   8.444   2.744 -0.5178 -0.2928 -0.5612
35917SOL    HW211283   6.620   8.401   2.657  0.3245  0.1330  0.3312
35918SOL     OW11284   3.074   7.239   2.343 -0.2018  0.3301 -0.1248
35918SOL    HW111285   3.110   7.307   2.401  0.8059  0.5983 -1.0270
35918SOL    HW211286   3.030   7.288   2.274 -0.4686  0.0278 -0.1704
35919SOL     OW11287   9.174   5.897   6.679  0.1502  0.2432 -0.1947
35919SOL    HW111288   9.126   5.824   6.718  0.5514 -1.2723 -2.3406
35919SOL    HW211289   9.245   5.855   6.630  1.3042  2.1913 -0.2954
35920SOL     OW11290   8.914   9.663  10.379 -0.3767  0.0767  0.1499
35920SOL    HW111291   8.948   9.578  10.352  0.9762  0.5496  0.2600
35920SOL    HW211292   8.829   9.644  10.418 -0.0931 -1.2209  0.1767
35921SOL     OW11293   9.066   3.723   9.543  0.1363 -0.3658 -0.2326
35921SOL    HW111294   9.145   3.675   9.517  1.6086  0.8524  1.7268
35921SOL    HW211295   9.026   3.750   9.460  1.5796 -1.3107 -1.2798
35922SOL     OW11296   1.386   9.039   5.260  0.1074 -0.3689  0.4028
35922SOL    HW111297   1.401   9.079   5.346 -0.1792  0.7240 -0.0369
35922SOL    HW211298   1.467   8.993   5.240  0.5910  0.2950  0.7796
35923SOL     OW11299   3.487   1.537   4.995 -0.0732 -0.2992 -0.4163
35923SOL    HW111300   3.495   1.496   5.081  1.2555  0.1223 -0.3149
35923SOL    HW211301   3.467   1.465   4.935 -0.4465 -0.6800  0.1612
35924SOL     OW11302   9.859  10.215   7.850  0.3226 -0.5690  0.7111
35924SOL    HW111303   9.941  10.250   7.813 -0.3394  0.0640 -0.2319
35924SOL    HW211304   9.872  10.218   7.944  1.6635 -1.1663  0.5634
35925SOL     OW11305   1.003   5.999   3.316  0.5183 -0.4170 -0.1591
35925SOL    HW111306   0.917   5.962   3.298 -1.1915  2.5871  1.1402
35925SOL    HW211307   1.036   6.028   3.231 -0.2985 -0.4796 -0.5012
35926SOL     OW11308   0.069   6.903   8.063  0.5198 -0.6910  0.7161
35926SOL    HW111309   0.078   6.823   8.115  0.2318 -0.3886  1.2426
35926SOL    HW211310   0.068   6.973   8.128 -1.5853 -0.4232  0.4664
35927SOL     OW11311   8.187   0.788   1.401  0.2649 -0.4141 -0.4633
35927SOL    HW111312   8.109   0.819   1.447  0.6828 -1.1022  0.7751
35927SOL    HW211313   8.166   0.698   1.377 -0.4538  0.3223 -2.8801
35928SOL     OW11314   0.104   4.088   4.533  0.3615 -0.3733 -0.3094
35928SOL    HW111315   0.064   4.086   4.446 -0.7278 -2.6939  0.1620
35928SOL    HW211316   0.180   4.029   4.525  1.4000  0.8981 -0.1478
35929SOL     OW11317   3.055   0.979   6.440 -0.4436  0.1709  0.0903
35929SOL    HW111318   2.967   0.987   6.474 -0.1253  0.5639  0.8403
35929SOL    HW211319   3.081   1.068   6.419 -0.4954 -0.0229 -0.8458
35930SOL     OW11320   5.780   2.605   2.254 -0.5732  0.3343  0.2990
35930SOL    HW111321   5.717   2.544   2.291  0.1353 -0.7211 -0.1807
35930SOL    HW211322   5.733   2.688   2.247 -0.9248  0.4310  2.9544
35931SOL     OW11323   5.562   9.996  11.049 -0.3159 -0.3743 -0.1714
35931SOL    HW111324   5.586  10.086  11.072  0.8430 -0.3156 -1.4966
35931SOL    HW211325   5.470   9.988  11.077  0.2049  0.4813  1.9804
35932SOL     OW11326   8.452   5.158   9.410 -0.2207  0.4101  0.4865
35932SOL    HW111327   8.448   5.075   9.456 -0.0940  0.4650  0.5963
35932SOL    HW211328   8.513   5.212   9.461 -1.8805  1.3083  1.6251
35933SOL     OW11329   2.189   1.572   6.093  0.9966 -0.0979  0.2504
35933SOL    HW111330   2.120   1.619   6.140  0.3697  1.5851 -2.1739
35933SOL    HW211331   2.174   1.480   6.114  0.5049  0.5075  2.9015
35934SOL     OW11332   0.660   7.203   5.253  0.1944  0.3217 -0.1938
35934SOL    HW111333   0.614   7.141   5.309  0.0861 -0.0716 -0.7076
35934SOL    HW211334   0.614   7.198   5.169  0.2389  1.0346 -0.2711
35935SOL     OW11335   6.646   6.574   2.299  1.0713  0.7912 -0.0736
35935SOL    HW111336   6.566   6.549   2.253  0.4771  1.3511  0.6127
35935SOL    HW211337   6.615   6.608   2.383  2.1835 -1.5649  1.3846
35936SOL     OW11338   2.372   7.560   6.817  0.2056  0.3470  0.0562
35936SOL    HW111339   2.329   7.553   6.903 -0.5314  0.4051 -0.3034
35936SOL    HW211340   2.466   7.564   6.838 -0.0379  3.8543  1.1009
35937SOL     OW11341   3.581   7.936   7.348  0.5107 -0.4750  0.2648
35937SOL    HW111342   3.527   7.859   7.329  0.9827 -0.7357 -0.0515
35937SOL    HW211343   3.584   7.940   7.443 -1.3824  0.4800  0.3385
35938SOL     OW11344   2.304   4.883   0.879 -0.1083  0.4346  0.2006
35938SOL    HW111345   2.275   4.940   0.807 -0.3472 -0.0564 -0.0971
35938SOL    HW211346   2.264   4.798   0.860  0.3996  0.1149  0.5416
35939SOL     OW11347  10.351   8.835   3.088 -0.4912 -0.2767  0.8339
35939SOL    HW111348  10.365   8.840   2.993 -0.3446 -1.3788  0.7858
35939SOL    HW211349  10.438   8.849   3.125 -0.5011 -0.1160  0.7957
35940SOL     OW11350   7.942   0.335   4.140  0.1466 -0.2476 -0.1964
35940SOL    HW111351   7.857   0.353   4.099  0.7417  2.4620 -0.4489
35940SOL    HW211352   7.920   0.314   4.231 -0.8362 -0.7792 -0.5336
35941SOL     OW11353  11.063   3.536   2.750 -0.1847 -0.1118  0.1151
35941SOL    HW111354  11.038   3.470   2.685 -0.5673 -0.6314  0.7738
35941SOL    HW211355  11.087   3.612   2.699 -2.1005  0.0651 -0.6181
35942SOL     OW11356   0.685   1.274   4.849 -0.5674 -0.1937 -0.5846
35942SOL    HW111357   0.748   1.278   4.921  0.3535 -0.6046 -1.3321
35942SOL    HW211358   0.684   1.182   4.822 -1.1695 -0.1122 -0.8541
35943SOL     OW11359   9.126   0.411   7.649 -0.0913  0.0104 -0.7112
35943SOL    HW111360   9.210   0.456   7.641 -0.1147 -0.1364 -2.0822
35943SOL    HW211361   9.121   0.357   7.570 -1.2323 -0.3955 -0.3759
35944SOL     OW11362   8.239   1.189   4.024  0.3681 -0.5250  0.0364
35944SOL    HW111363   8.263   1.276   3.992 -0.8028 -0.0721  0.3371
35944SOL    HW211364   8.317   1.159   4.070  1.3967 -0.3625 -1.4922
35945SOL     OW11365   1.017   4.906   1.485 -0.1490  0.3411 -0.2153
35945SOL    HW111366   1.094   4.902   1.542  0.1981  0.6812 -0.6568
35945SOL    HW211367   0.949   4.945   1.540 -0.9394 -2.6903  1.1813
35946SOL     OW11368   8.180   3.541   2.499 -0.1038  0.2630 -0.0102
35946SOL    HW111369   8.110   3.542   2.564  0.1518 -3.5766  0.5597
35946SOL    HW211370   8.141   3.498   2.423  1.0522 -0.0999 -0.4213
35947SOL     OW11371   5.001   0.489   6.175 -0.0817  0.0538 -0.1948
35947SOL    HW111372   5.005   0.506   6.269 -0.0641  0.2031 -0.2232
35947SOL    HW211373   5.059   0.554   6.136  2.1101 -1.6819 -0.0913
35948SOL     OW11374   7.952   4.793   9.857 -0.6742  0.1731 -0.2199
35948SOL    HW111375   8.003   4.753   9.927 -0.0162 -0.1109 -0.8547
35948SOL    HW211376   7.994   4.765   9.776 -1.6916  0.1345 -0.7577
35949SOL     OW11377   8.187  11.062   4.731  0.2780 -0.1406  0.0483
35949SOL    HW111378   8.216  11.018   4.811 -0.6828 -0.5567  0.1908
35949SOL    HW211379   8.178  11.154   4.755  0.4606 -0.1855  0.2887
35950SOL     OW11380  10.780   4.748   2.148 -0.6406  0.4677  0.2808
35950SOL    HW111381  10.720   4.724   2.077  2.0869 -0.5062 -1.8720
35950SOL    HW211382  10.768   4.679   2.214 -1.1084 -0.3067 -0.5929
35951SOL     OW11383   1.954   4.703   5.373  0.0072 -1.0062  0.0528
35951SOL    HW111384   1.983   4.662   5.292 -1.1304 -0.2694 -0.7590
35951SOL    HW211385   1.979   4.795   5.364  1.2767 -1.1937  1.2458
35952SOL     OW11386   3.978   8.239   8.341 -0.4007 -0.4779 -0.1129
35952SOL    HW111387   3.940   8.242   8.429 -0.7443  0.1768 -0.2780
35952SOL    HW211388   4.056   8.294   8.346 -1.9748  1.9918 -0.9238
35953SOL     OW11389   2.170   4.841   7.877 -0.5073  0.2556 -0.6086
35953SOL    HW111390   2.222   4.908   7.921 -0.2205 -0.5482  0.3108
35953SOL    HW211391   2.080   4.857   7.907 -0.6491  1.0160 -1.4058
35954SOL     OW11392   5.215   9.403   8.973  0.4247  1.0235 -0.6580
35954SOL    HW111393   5.297   9.452   8.982 -0.1884  2.6706 -3.0715
35954SOL    HW211394   5.148   9.462   9.007  0.1942 -0.4569  1.6406
35955SOL     OW11395   4.585   2.692   2.400 -0.0050  0.0012  0.4310
35955SOL    HW111396   4.592   2.730   2.312  0.5177 -1.1409 -0.0354
35955SOL    HW211397   4.675   2.690   2.432 -0.0284 -0.8190  0.4538
35956SOL     OW11398   1.258   5.600   6.119  0.3996  0.1578  0.2091
35956SOL    HW111399   1.313   5.666   6.077 -0.3163  0.8363  0.3323
35956SOL    HW211400   1.276   5.520   6.071 -1.0939  1.0927 -2.0270
35957SOL     OW11401   1.342  10.690   5.539 -0.0252  0.2592  0.0834
35957SOL    HW111402   1.341  10.608   5.491 -0.4451  1.4616 -2.0998
35957SOL    HW211403   1.429  10.694   5.578  0.2405 -0.9041 -0.3549
35958SOL     OW11404   0.926   8.023   8.668 -0.5061  0.1210  0.0069
35958SOL    HW111405   0.833   8.046   8.671 -0.2681  1.0237  2.0977
35958SOL    HW211406   0.947   7.995   8.757  1.2014 -0.1753 -0.4527
35959SOL     OW11407   0.563   5.733   1.784  0.0250  1.2610 -0.0553
35959SOL    HW111408   0.496   5.772   1.728  0.1084  1.2452 -0.1649
35959SOL    HW211409   0.541   5.640   1.787 -0.2593  1.3404  0.3242
35960SOL     OW11410   6.002   6.654   9.778 -0.8193  0.2801 -0.3338
35960SOL    HW111411   6.064   6.726   9.773  0.9069 -0.7927  2.7066
35960SOL    HW211412   5.973   6.641   9.688  1.7263  2.2608 -1.5787
35961SOL     OW11413  10.269   8.536   7.879 -0.3030 -0.1252 -0.6201
35961SOL    HW111414  10.284   8.442   7.888  1.0795  0.1229 -0.0790
35961SOL    HW211415  10.260   8.550   7.785  2.0595 -0.4768 -0.9618
35962SOL     OW11416   9.346   2.470   7.907 -0.0984 -0.0428  0.4177
35962SOL    HW111417   9.331   2.564   7.908  0.7792  0.1044  0.8072
35962SOL    HW211418   9.263   2.432   7.936 -0.2794  0.6460  0.8216
35963SOL     OW11419   2.650   4.404  10.491  0.4270 -1.0252 -0.1764
35963SOL    HW111420   2.571   4.350  10.480 -0.5036 -0.0164  1.3097
35963SOL    HW211421   2.697   4.392  10.409 -1.9621 -0.5268 -1.7378
35964SOL     OW11422   7.611   7.405   0.860  0.0553  0.4752 -0.5455
35964SOL    HW111423   7.663   7.482   0.838  1.2222 -0.3478 -0.7922
35964SOL    HW211424   7.632   7.386   0.952 -0.2945  0.4923 -0.4581
35965SOL     OW11425   6.482   4.322  10.218 -0.2837 -0.2377 -0.0930
35965SOL    HW111426   6.569   4.357  10.202 -0.7267  0.5086 -1.0324
35965SOL    HW211427   6.452   4.294  10.131 -1.0087 -0.4065  0.2043
35966SOL     OW11428   5.767   6.891   0.130  0.0966 -0.0170 -0.5402
35966SOL    HW111429   5.701   6.948   0.090 -0.8369 -0.2079  0.6708
35966SOL    HW211430   5.850   6.938   0.116 -0.6213  1.5718  0.2539
35967SOL     OW11431   5.701   6.997   1.780 -0.3321 -0.0578  0.4811
35967SOL    HW111432   5.661   7.069   1.830  0.8718  1.7292 -0.9996
35967SOL    HW211433   5.629   6.962   1.728 -0.6598  1.0457  0.1621
35968SOL     OW11434   2.934   6.439  10.646 -0.0679  0.3073  0.0558
35968SOL    HW111435   2.882   6.376  10.596  0.0240 -0.6101  1.0794
35968SOL    HW211436   2.995   6.386  10.696 -0.2266  1.1806  1.2331
35969SOL     OW11437   3.903   6.835   1.504 -0.7742 -0.5230  0.3064
35969SOL    HW111438   3.899   6.772   1.432 -0.3844  0.6402 -0.7721
35969SOL    HW211439   3.932   6.784   1.579 -0.0578 -1.5498 -0.6391
35970SOL     OW11440   6.730   4.466   6.119  0.1723 -0.2106  0.2602
35970SOL    HW111441   6.805   4.506   6.076 -0.2799  1.3434  0.8384
35970SOL    HW211442   6.664   4.536   6.121 -2.3280 -2.2400 -2.6287
35971SOL     OW11443   5.827   4.191   2.671 -0.0345  0.1514 -0.3408
35971SOL    HW111444   5.909   4.150   2.700  0.3558  1.7861  0.9574
35971SOL    HW211445   5.831   4.185   2.575  1.2605 -0.4297 -0.2757
35972SOL     OW11446   0.717   3.621   2.126 -0.0310 -0.3189 -0.5304
35972SOL    HW111447   0.714   3.694   2.064  3.4589  0.9338  0.5697
35972SOL    HW211448   0.696   3.660   2.211 -1.1888 -1.2878 -0.3436
35973SOL     OW11449   0.865   0.402   0.884 -0.7934  0.3562  0.4516
35973SOL    HW111450   0.948   0.429   0.923  0.9369 -1.7126 -1.5279
35973SOL    HW211451   0.861   0.308   0.898 -1.3147 -0.0680 -1.9759
35974SOL     OW11452   2.383   1.624   6.473  0.2397 -0.2189  0.3368
35974SOL    HW111453   2.335   1.707   6.478 -1.2959 -1.1236  0.9192
35974SOL    HW211454   2.467   1.643   6.516  0.1706  1.2011 -0.1073
35975SOL     OW11455   3.082   0.835   3.745 -0.1085 -0.1374 -0.2872
35975SOL    HW111456   3.062   0.912   3.692  0.9554  0.7804  0.5888
35975SOL    HW211457   3.088   0.869   3.835  1.7617 -0.9730 -0.0471
35976SOL     OW11458   7.446   7.343   7.805  0.0394 -0.3166  0.2597
35976SOL    HW111459   7.491   7.411   7.854  0.7955 -1.1239  0.7330
35976SOL    HW211460   7.490   7.262   7.831 -0.7790 -0.9776 -0.3440
35977SOL     OW11461   1.415  10.759   3.589  0.1660  0.0653  0.5882
35977SOL    HW111462   1.359  10.813   3.645 -0.5351 -1.1998  1.1446
35977SOL    HW211463   1.359  10.735   3.515  0.1267 -0.7629  0.8763
35978SOL     OW11464   6.185   6.447   9.805  0.0298 -0.3594  0.2630
35978SOL    HW111465   6.115   6.511   9.792  0.4902 -0.0170 -0.6796
35978SOL    HW211466   6.255   6.478   9.747  0.7179 -1.0392  0.7294
35979SOL     OW11467   0.852   4.132   8.608  0.4580 -0.3811  0.1709
35979SOL    HW111468   0.846   4.227   8.617  1.8668 -0.4203  2.4626
35979SOL    HW211469   0.876   4.117   8.517  2.1783  1.5978  0.2466
35980SOL     OW11470   2.743   6.267   4.943  0.1910  0.3640 -0.0683
35980SOL    HW111471   2.779   6.354   4.924  0.2558 -0.0361 -1.8926
35980SOL    HW211472   2.816   6.219   4.981 -0.2115  1.4917  2.3268
35981SOL     OW11473   2.422   8.983   7.455 -0.4661 -0.1719 -0.6477
35981SOL    HW111474   2.466   8.906   7.491 -1.1275 -0.5223 -0.5621
35981SOL    HW211475   2.403   8.960   7.364 -0.4762 -0.0262 -0.6826
35982SOL     OW11476   2.825   5.147   4.346  0.3364 -0.1127 -0.0931
35982SOL    HW111477   2.854   5.182   4.429 -0.7489  1.3028 -0.2642
35982SOL    HW211478   2.849   5.214   4.282 -1.7339  0.3689 -0.4421
35983SOL     OW11479   9.150   1.563  10.038 -1.1226  0.6469 -0.2482
35983SOL    HW111480   9.072   1.566   9.983 -1.1269  0.1439 -0.2780
35983SOL    HW211481   9.209   1.503   9.992 -1.5098 -0.5704  0.7752
35984SOL     OW11482   9.096   0.255   7.899  0.4752  0.1409  0.2020
35984SOL    HW111483   9.089   0.271   7.805 -1.9179 -1.0663  0.1093
35984SOL    HW211484   9.049   0.327   7.940  0.3606 -0.0434  0.4012
35985SOL     OW11485   3.480   0.348   1.298 -0.3592  0.3847  0.2871
35985SOL    HW111486   3.433   0.340   1.215  0.6586  1.9956 -0.4900
35985SOL    HW211487   3.464   0.264   1.342 -1.4120 -0.2829 -1.2638
35986SOL     OW11488   6.831   5.173   6.902 -0.2539  0.4017  0.4850
35986SOL    HW111489   6.902   5.186   6.839 -0.5679  1.0128  0.2397
35986SOL    HW211490   6.854   5.094   6.950 -0.3144 -0.4504 -0.8373
35987SOL     OW11491   9.902   4.164   0.188  0.2310  0.0857  0.4554
35987SOL    HW111492   9.823   4.200   0.149 -0.2651 -2.0673 -0.6510
35987SOL    HW211493   9.953   4.132   0.114  0.7240 -1.2616  1.3476
35988SOL     OW11494   9.909   5.699   3.865 -0.0252 -0.0632  0.0202
35988SOL    HW111495   9.858   5.651   3.800 -1.2802 -0.6197  1.3581
35988SOL    HW211496   9.912   5.641   3.941  1.9220  0.3132  0.2808
35989SOL     OW11497   7.627  10.392   2.314 -0.0130  0.6021  0.0108
35989SOL    HW111498   7.657  10.441   2.391  2.0184  0.5949 -0.7108
35989SOL    HW211499   7.629  10.456   2.243 -3.7769  1.1480  0.2240
35990SOL     OW11500  10.687   6.586   0.205  0.1548 -0.3697  0.2120
35990SOL    HW111501  10.776   6.588   0.239  0.2024  0.6105  0.0607
35990SOL    HW211502  10.644   6.515   0.253  1.3690 -1.7537 -0.6569
35991SOL     OW11503   4.460   9.558   2.705  0.2896  0.4595 -0.2395
35991SOL    HW111504   4.519   9.521   2.640 -0.4684 -3.2529  0.9226
35991SOL    HW211505   4.515   9.618   2.756  1.6918  0.9635 -2.2477
35992SOL     OW11506   1.380   2.746   6.993  0.2326  0.1664 -0.5495
35992SOL    HW111507   1.377   2.721   6.900  1.1282 -1.1874 -0.2508
35992SOL    HW211508   1.430   2.676   7.034 -1.7684 -0.2475  1.3088
35993SOL     OW11509   8.493   4.840   4.894 -0.4487 -0.1749 -0.4633
35993SOL    HW111510   8.554   4.891   4.841 -0.6001  0.6416  0.1392
35993SOL    HW211511   8.501   4.877   4.982 -0.2884 -1.4304  0.0728
35994SOL     OW11512   0.052   1.083   2.079  0.1391 -0.3460  0.4318
35994SOL    HW111513  -0.037   1.114   2.093  0.0191 -0.7862  0.6502
35994SOL    HW211514   0.059   1.005   2.133  1.1726  0.5768  1.7084
35995SOL     OW11515   9.041   5.962   7.650 -0.2113 -0.5990  0.6604
35995SOL    HW111516   9.097   6.019   7.703 -0.7239 -1.4782  2.1878
35995SOL    HW211517   9.089   5.953   7.568 -0.6621  3.0049 -0.2022
35996SOL     OW11518   8.952   9.586   2.541 -0.0232 -0.6237 -0.3279
35996SOL    HW111519   8.947   9.500   2.499 -0.1744  0.3317 -2.4131
35996SOL    HW211520   8.861   9.607   2.562 -0.5700  0.6080 -3.4104
35997SOL     OW11521   5.679   3.189   5.063 -0.7151 -0.0766 -0.3237
35997SOL    HW111522   5.668   3.278   5.098  0.6321  0.0839 -0.2515
35997SOL    HW211523   5.730   3.143   5.130  0.6547 -0.1906 -1.4207
35998SOL     OW11524   0.207   6.038   8.215  0.1515  0.2465 -0.4249
35998SOL    HW111525   0.197   5.959   8.161  2.2552 -0.8156  0.5852
35998SOL    HW211526   0.118   6.062   8.240 -0.5586 -1.8263 -0.7685
35999SOL     OW11527   9.527   5.692   0.020 -0.0311  0.6078 -0.1925
35999SOL    HW111528   9.504   5.665  -0.069  0.7994 -1.2612  0.1045
35999SOL    HW211529   9.623   5.693   0.020  0.0001 -0.3627  0.9183
36000SOL     OW11530   1.007   6.393  11.111  0.0572  0.1595 -0.4122
36000SOL    HW111531   0.985   6.379  11.019 -1.0982  0.5312 -0.2124
36000SOL    HW211532   0.929   6.435  11.148  0.6159  0.2782  0.6700
36001SOL     OW11533  10.117   4.594   4.146 -0.5152  0.3470 -0.0711
36001SOL    HW111534  10.186   4.555   4.092  0.9201  0.5268  1.5242
36001SOL    HW211535  10.035   4.566   4.106  0.4554  1.0786 -2.7516
36002SOL     OW11536   1.967   6.354   7.837 -0.0732  0.1836  0.3191
36002SOL    HW111537   1.889   6.352   7.891 -0.4696  1.8470 -0.1260
36002SOL    HW211538   1.954   6.429   7.778  0.3294 -1.5200 -2.0984
36003SOL     OW11539   8.841   2.560   7.480  0.4089  0.0085 -0.1543
36003SOL    HW111540   8.869   2.648   7.507  1.8079  0.9826 -4.1499
36003SOL    HW211541   8.914   2.503   7.503 -0.3994 -0.1838  2.2162
36004SOL     OW11542  10.572   1.718   7.895  0.0186 -0.3484  0.1475
36004SOL    HW111543  10.616   1.651   7.842  1.0866  1.3034 -1.2101
36004SOL    HW211544  10.479   1.707   7.876  0.1550 -1.5419  0.1029
36005SOL     OW11545   6.340   4.012   7.814  0.2396  0.3319  0.6303
36005SOL    HW111546   6.253   4.014   7.854 -0.2236 -0.0678 -0.3188
36005SOL    HW211547   6.399   3.988   7.885 -0.6492 -1.0313  0.9526
36006SOL     OW11548   5.294   6.540   8.904 -0.3018 -0.2880 -0.4355
36006SOL    HW111549   5.256   6.458   8.872 -0.9286 -0.3118  0.3106
36006SOL    HW211550   5.227   6.575   8.963  0.3942  0.2313  0.0635
36007SOL     OW11551  10.456   8.559   8.944  0.1571  0.0025 -0.7409
36007SOL    HW111552  10.388   8.610   8.900  0.7939  1.6484  0.0684
36007SOL    HW211553  10.475   8.609   9.024  1.8405 -0.7479 -0.6239
36008SOL     OW11554   1.690   1.106   8.309 -0.0423 -0.4630 -0.1146
36008SOL    HW111555   1.654   1.054   8.237  1.3665 -3.0985  0.9616
36008SOL    HW211556   1.645   1.073   8.386  0.0001  0.8478  0.4932
36009SOL     OW11557   6.239   9.167   3.658 -0.0622 -0.2533 -0.6972
36009SOL    HW111558   6.321   9.188   3.701  0.8556 -1.7193 -1.6266
36009SOL    HW211559   6.199   9.252   3.638  1.0243  0.4671  0.1088
36010SOL     OW11560   2.343   8.639   4.127  0.1967 -0.2416  0.3156
36010SOL    HW111561   2.259   8.682   4.113 -0.2778 -0.7971  1.3611
36010SOL    HW211562   2.387   8.693   4.193  1.2381  0.7833 -1.1513
36011SOL     OW11563  10.543   8.219   3.096  0.3811 -0.0507  0.5205
36011SOL    HW111564  10.557   8.309   3.069 -1.2063  0.0964  0.0595
36011SOL    HW211565  10.621   8.171   3.067  0.4302  0.8287 -0.8470
36012SOL     OW11566   7.793   4.580   2.433  0.0550 -0.4288  0.0223
36012SOL    HW111567   7.783   4.675   2.434  2.2637 -0.1038 -1.7921
36012SOL    HW211568   7.817   4.557   2.523 -0.8476  0.6337  0.5673
36013SOL     OW11569   9.773  10.452   2.122  0.2582 -0.6086 -0.0881
36013SOL    HW111570   9.823  10.528   2.094 -1.1017  0.5768  0.5610
36013SOL    HW211571   9.681  10.479   2.112 -0.2514 -2.0071  0.5701
36014SOL     OW11572   1.754   4.440   6.887  0.4644  0.2612 -0.1826
36014SOL    HW111573   1.660   4.442   6.873  0.3206  1.2450  0.7589
36014SOL    HW211574   1.792   4.435   6.799 -0.4517  1.1547 -0.6393
36015SOL     OW11575   8.182   2.328   2.815  0.1953 -0.1299 -0.0067
36015SOL    HW111576   8.273   2.301   2.832 -0.3247 -1.3419  1.0610
36015SOL    HW211577   8.176   2.333   2.720  0.6653 -2.8318 -0.2732
36016SOL     OW11578   6.945   3.800   7.748 -0.1337 -0.2193  0.1320
36016SOL    HW111579   6.923   3.793   7.841  1.9236  2.0945  0.9023
36016SOL    HW211580   6.920   3.889   7.724  1.1008 -0.1429 -0.9904
36017SOL     OW11581   9.092   0.689   3.826  0.6781  0.3468 -0.0101
36017SOL    HW111582   9.081   0.679   3.920 -0.9318 -0.5455 -0.2519
36017SOL    HW211583   9.027   0.754   3.801 -1.5730 -2.0647 -0.9444
36018SOL     OW11584   1.407   1.819   4.902  0.1637  0.4327 -0.3756
36018SOL    HW111585   1.487   1.872   4.909  0.4222  0.1980 -1.3296
36018SOL    HW211586   1.435   1.731   4.928 -0.2598  0.7287  1.1860
36019SOL     OW11587   9.202   9.911   8.296  0.3344 -0.0665 -0.1424
36019SOL    HW111588   9.254   9.968   8.239 -1.2582 -0.0255 -1.6578
36019SOL    HW211589   9.243   9.825   8.288  0.1039 -0.0849 -1.4793
36020SOL     OW11590   2.327   7.019   4.839  0.3856  0.1553 -0.3562
36020SOL    HW111591   2.267   6.957   4.880  0.1532  0.5083 -0.1546
36020SOL    HW211592   2.406   6.968   4.821 -0.4792 -0.7064 -1.9798
36021SOL     OW11593   9.406   7.082   5.182  0.4318  0.5379 -0.6511
36021SOL    HW111594   9.317   7.067   5.215  1.2944 -0.8449  1.2396
36021SOL    HW211595   9.431   6.998   5.143  2.2828 -0.5733  2.5002
36022SOL     OW11596   3.553   3.158   8.209 -0.2377  0.0430 -0.0836
36022SOL    HW111597   3.480   3.194   8.159 -1.6967 -1.8790  0.5636
36022SOL    HW211598   3.631   3.195   8.168 -1.5227  1.5488 -1.2799
36023SOL     OW11599  10.572   4.602   5.646 -0.2198 -0.0214 -0.6394
36023SOL    HW111600  10.534   4.680   5.687 -0.7569 -1.2748  1.3828
36023SOL    HW211601  10.656   4.632   5.610  0.1952  1.2122  1.2528
36024SOL     OW11602   1.583   2.882   4.922 -0.2834  0.7460 -0.1354
36024SOL    HW111603   1.540   2.848   5.001 -0.1804  2.6070  0.7636
36024SOL    HW211604   1.512   2.917   4.869 -0.3834 -0.7499 -1.0380
36025SOL     OW11605   1.210   7.697   4.912 -0.0884  0.0306  0.2674
36025SOL    HW111606   1.162   7.714   4.831 -0.6004 -0.7481  0.4018
36025SOL    HW211607   1.165   7.749   4.978  1.5471  2.3015 -0.2831
36026SOL     OW11608   9.167   5.008  10.816  0.3965 -0.3274 -0.6829
36026SOL    HW111609   9.234   4.940  10.813 -0.8051 -1.4959 -2.8894
36026SOL    HW211610   9.150   5.020  10.910  2.5736 -1.0695 -0.1382
36027SOL     OW11611   8.973   7.881   1.932  0.1117  0.2462 -0.6497
36027SOL    HW111612   8.879   7.867   1.919  0.0784 -0.8750  0.6408
36027SOL    HW211613   8.990   7.965   1.890 -1.9104  1.5949  1.0534
36028SOL     OW11614   6.202   9.453  11.068 -0.2775  0.0216  0.4085
36028SOL    HW111615   6.177   9.366  11.037 -0.1483 -0.2275  1.0087
36028SOL    HW211616   6.190   9.450  11.163  0.2442  0.4884  0.4927
36029SOL     OW11617   4.559   4.631   6.703  0.2581  0.5049  0.3395
36029SOL    HW111618   4.619   4.635   6.778 -0.1390 -0.7415  0.7586
36029SOL    HW211619   4.588   4.554   6.653 -0.4886  0.3601  0.1140
36030SOL     OW11620   1.346   8.832   7.236  0.7004  0.0386 -0.1337
36030SOL    HW111621   1.270   8.794   7.193  1.3579 -2.2630  0.5543
36030SOL    HW211622   1.340   8.802   7.327  2.1453  0.2389  0.0544
36031SOL     OW11623   1.714   5.965   9.224 -0.1794 -0.6208 -0.2298
36031SOL    HW111624   1.774   6.039   9.237 -1.2652  0.1405  0.6803
36031SOL    HW211625   1.694   5.965   9.131 -0.0708  0.1641 -0.2553
36032SOL     OW11626   7.468   1.563   0.054  0.2424  0.1877 -0.7424
36032SOL    HW111627   7.480   1.586   0.146  0.8719 -0.8798 -0.5369
36032SOL    HW211628   7.503   1.474   0.047 -0.5824 -0.0701 -1.8353
36033SOL     OW11629   1.583   9.089   4.461  0.4287  0.3745 -0.5594
36033SOL    HW111630   1.632   9.149   4.405  1.1927  0.2449 -0.0462
36033SOL    HW211631   1.542   9.146   4.526  0.3931  0.4326 -0.6330
36034SOL     OW11632   3.070   9.561   1.548 -0.2175  0.0727 -0.3575
36034SOL    HW111633   3.046   9.492   1.487  0.5522 -0.2722 -0.2806
36034SOL    HW211634   3.036   9.641   1.508 -0.8335 -0.3032 -0.6030
36035SOL     OW11635   8.413   7.684   7.706  0.0283 -0.7099  0.0254
36035SOL    HW111636   8.331   7.642   7.730  0.5532 -0.9950  1.4105
36035SOL    HW211637   8.479   7.640   7.759  1.2292 -1.0761 -1.6883
36036SOL     OW11638   8.913   3.963  10.214 -0.7483 -0.3157  0.2075
36036SOL    HW111639   8.880   3.911  10.141 -0.2377 -0.5519  0.1433
36036SOL    HW211640   8.834   4.000  10.254 -1.2730 -2.4676  1.2871
36037SOL     OW11641  10.474   8.999   9.835  0.6793 -0.3435 -0.3157
36037SOL    HW111642  10.551   8.996   9.890 -0.6460 -0.7373  1.6075
36037SOL    HW211643  10.488   9.075   9.778  2.4585 -0.4270 -0.0494
36038SOL     OW11644   8.737   9.948   6.551 -0.4933  0.3033 -0.5094
36038SOL    HW111645   8.679   9.887   6.506  0.1497 -0.0166 -0.9195
36038SOL    HW211646   8.800   9.893   6.597 -0.0054  0.6458 -0.7499
36039SOL     OW11647   8.947   2.460   2.165  0.0740  0.3413  0.9528
36039SOL    HW111648   8.994   2.390   2.119  1.0955  1.4406  0.2830
36039SOL    HW211649   8.899   2.414   2.234 -2.1752 -1.5027 -1.6239
36040SOL     OW11650   6.193   8.531   3.428  0.5323  0.2332 -0.3599
36040SOL    HW111651   6.258   8.596   3.402  1.3957 -1.0690 -1.6280
36040SOL    HW211652   6.237   8.479   3.496  0.6644 -0.3250 -0.8556
36041SOL     OW11653   5.833  10.752   9.793 -0.2605 -0.3100 -0.5249
36041SOL    HW111654   5.839  10.847   9.807  0.7717 -0.5472  0.9487
36041SOL    HW211655   5.906  10.716   9.845 -2.2003 -2.1056  1.1231
36042SOL     OW11656  10.127  10.538   7.540  0.5333  0.0908  0.1274
36042SOL    HW111657  10.142  10.466   7.478 -2.4397 -0.9174  0.3825
36042SOL    HW211658  10.205  10.538   7.596  2.1183 -0.6840 -1.9281
36043SOL     OW11659  10.061   0.724  11.126 -0.3935  0.7042  0.0816
36043SOL    HW111660   9.994   0.678  11.177 -0.7070  0.7224 -0.3061
36043SOL    HW211661  10.027   0.813  11.118 -0.2157  0.7705  0.0666
36044SOL     OW11662   9.353   7.495   1.128 -0.6090  0.7911 -0.0645
36044SOL    HW111663   9.290   7.510   1.199 -0.0923  0.7930  0.3974
36044SOL    HW211664   9.345   7.572   1.072  0.9951  2.1831  1.5182
36045SOL     OW11665   3.875   1.896   4.930  0.1662  0.2012 -0.0167
36045SOL    HW111666   3.813   1.825   4.948  0.9169 -0.8256 -1.2790
36045SOL    HW211667   3.876   1.904   4.835 -1.6820  3.6078  0.0925
36046SOL     OW11668   9.606   0.415   9.368  0.4304 -0.4074  0.7954
36046SOL    HW111669   9.523   0.370   9.383 -0.6504  1.7241  1.5643
36046SOL    HW211670   9.665   0.380   9.435 -0.4604 -0.4803  1.5621
36047SOL     OW11671   3.889   1.521   2.548 -0.2561  0.1192  0.3389
36047SOL    HW111672   3.903   1.550   2.638  2.4989  0.4543 -0.1097
36047SOL    HW211673   3.860   1.430   2.556 -4.2350  1.2544  1.5890
36048SOL     OW11674   0.023   2.399   4.435  0.3998 -0.5166  0.1846
36048SOL    HW111675   0.048   2.308   4.452 -0.3788 -0.5314  1.3650
36048SOL    HW211676  -0.073   2.398   4.434  0.3236  0.5735  2.0447
36049SOL     OW11677   7.359   7.806   3.058  0.0522  0.2598 -0.3299
36049SOL    HW111678   7.404   7.826   2.976  0.0499 -0.2363 -0.4590
36049SOL    HW211679   7.423   7.824   3.126  0.2900  0.0172 -0.4853
36050SOL     OW11680   6.759   8.745   7.968 -0.0614 -0.2523 -0.2365
36050SOL    HW111681   6.674   8.766   7.929 -1.0024 -3.4045 -0.1221
36050SOL    HW211682   6.765   8.650   7.964  2.4511 -0.3117  1.9444
36051SOL     OW11683  10.842   8.162   1.568 -0.5083 -0.0405 -0.2111
36051SOL    HW111684  10.872   8.097   1.632 -0.4738 -0.4135 -0.6015
36051SOL    HW211685  10.901   8.151   1.494  0.4899  1.4970  0.3093
36052SOL     OW11686   3.424   3.654   8.093  0.4946  0.6911 -0.0583
36052SOL    HW111687   3.337   3.687   8.112  0.1270 -0.1078 -0.3420
36052SOL    HW211688   3.422   3.632   8.000  0.7297 -0.1085  0.1152
36053SOL     OW11689   5.814   8.997   9.798  0.6387  0.0586 -0.8391
36053SOL    HW111690   5.844   9.073   9.749  1.1101 -0.2075 -0.9738
36053SOL    HW211691   5.854   8.923   9.753 -0.4509 -0.3385 -1.1952
36054SOL     OW11692   9.724   7.017   0.698 -0.1366  0.2927  0.5305
36054SOL    HW111693   9.664   7.010   0.772 -1.1401  1.0804 -0.1970
36054SOL    HW211694   9.693   6.952   0.635  1.8420 -1.7537  1.5021
36055SOL     OW11695  10.141  10.143  10.719 -0.0621 -0.0109 -0.1580
36055SOL    HW111696  10.047  10.156  10.705 -0.1985 -0.8887 -0.1406
36055SOL    HW211697  10.146  10.094  10.801  0.4701  0.8060  0.3059
36056SOL     OW11698   4.516   2.075  11.110 -0.0629  0.1521  0.6027
36056SOL    HW111699   4.476   1.989  11.127  0.5215 -0.8342 -2.3312
36056SOL    HW211700   4.586   2.056  11.047 -0.4392  2.8828 -0.7663
36057SOL     OW11701   9.114   3.174   4.230  0.0131 -0.4641  0.0093
36057SOL    HW111702   9.023   3.168   4.200 -0.0270 -0.9938  0.2190
36057SOL    HW211703   9.109   3.225   4.311  0.1446  1.1303 -0.9427
36058SOL     OW11704   8.097  10.785   1.172  0.4871 -0.1808  0.2784
36058SOL    HW111705   8.017  10.824   1.137 -0.1009  0.6998  2.3909
36058SOL    HW211706   8.099  10.813   1.264  2.3495 -1.5832  0.7432
36059SOL     OW11707  10.746   4.395   8.760  0.4522  0.0573 -0.0445
36059SOL    HW111708  10.755   4.397   8.855  1.5713  1.6219 -0.1506
36059SOL    HW211709  10.815   4.336   8.730  0.9074  0.5296  0.0550
36060SOL     OW11710   9.079  10.211   2.516  0.1328  0.1521 -0.0288
36060SOL    HW111711   9.022  10.265   2.571  1.8825  0.9472  1.1207
36060SOL    HW211712   9.114  10.272   2.451  0.1852 -0.1633 -0.2941
36061SOL     OW11713   9.094   4.100   7.946 -0.2851 -0.1904 -0.3038
36061SOL    HW111714   9.169   4.091   7.888 -0.6104  1.2730 -1.0155
36061SOL    HW211715   9.022   4.060   7.898 -0.4286  0.4954 -0.6842
36062SOL     OW11716   8.087   2.115   7.166  0.3759  0.0778  0.0202
36062SOL    HW111717   8.037   2.114   7.248 -0.2923 -0.6688 -0.3825
36062SOL    HW211718   8.045   2.182   7.113  1.2589  1.0779  0.5356
36063SOL     OW11719   8.881  10.660   6.413 -0.0810  0.1889  0.3199
36063SOL    HW111720   8.968  10.641   6.447  0.8737  1.9013 -0.9978
36063SOL    HW211721   8.823  10.653   6.489  1.4342  0.5271  1.5392
36064SOL     OW11722   8.644   3.910   1.961 -1.1181 -0.5328  0.4545
36064SOL    HW111723   8.693   3.989   1.982 -0.8795 -0.5245 -0.1288
36064SOL    HW211724   8.631   3.867   2.046  0.7849 -1.0532  0.5173
36065SOL     OW11725   6.482   0.241   6.731 -0.0843 -0.3422 -0.9278
36065SOL    HW111726   6.437   0.197   6.803  1.0456 -1.4192 -0.8391
36065SOL    HW211727   6.416   0.251   6.663 -0.9991  0.1120  0.0105
36066SOL     OW11728  10.372   6.779   3.805  0.7855 -0.1675 -0.2136
36066SOL    HW111729  10.380   6.779   3.901  1.1696 -1.2285 -0.2284
36066SOL    HW211730  10.376   6.686   3.781 -1.3103 -0.0812 -1.1078
36067SOL     OW11731   2.594   0.361   4.344  0.3299 -0.0480 -0.4964
36067SOL    HW111732   2.626   0.445   4.377  0.8101  0.0097 -1.1111
36067SOL    HW211733   2.640   0.347   4.262 -0.0038 -0.7526 -0.5759
36068SOL     OW11734   2.243   9.141  10.641  0.7945  0.6954  0.0393
36068SOL    HW111735   2.316   9.149  10.580  1.3743  2.4593  0.9212
36068SOL    HW211736   2.278   9.168  10.725 -0.5707  0.3962  0.7349
36069SOL     OW11737   7.419   2.214   6.829 -0.0238  0.1400 -0.0355
36069SOL    HW111738   7.468   2.174   6.757  0.7986 -0.3973  0.7949
36069SOL    HW211739   7.377   2.291   6.791  1.2500  0.4626 -0.8440
36070SOL     OW11740   2.120   7.292   0.327  0.1852  0.2629 -0.2076
36070SOL    HW111741   2.168   7.350   0.386  0.2587  0.0524 -0.0593
36070SOL    HW211742   2.028   7.315   0.339 -0.0785 -1.5761  2.0000
36071SOL     OW11743  10.721   6.838   2.622 -0.3987 -0.2543  0.3707
36071SOL    HW111744  10.653   6.773   2.638  0.1959 -1.0590 -0.3011
36071SOL    HW211745  10.677   6.907   2.572 -1.3024  0.4278  2.0183
36072SOL     OW11746   1.545   2.772   0.337  1.2180  0.4922  0.7349
36072SOL    HW111747   1.627   2.803   0.376  1.3633  1.1311 -0.0426
36072SOL    HW211748   1.546   2.678   0.352  1.7287  0.5967  1.4082
36073SOL     OW11749   8.371  10.937   8.141  0.5335  0.8382  0.2452
36073SOL    HW111750   8.350  10.859   8.090 -2.5733  0.9875  1.0565
36073SOL    HW211751   8.386  11.005   8.076  0.5807  0.1605 -0.4666
36074SOL     OW11752   7.807  10.345   3.168 -0.2912  0.1783 -0.2064
36074SOL    HW111753   7.902  10.347   3.180 -0.4430 -0.9841  1.5475
36074SOL    HW211754   7.792  10.387   3.083  1.7000  1.2484 -0.0715
36075SOL     OW11755   7.526   5.974   6.525  0.5133  0.1634 -0.1806
36075SOL    HW111756   7.529   5.968   6.429 -0.4154 -0.2959 -0.1880
36075SOL    HW211757   7.434   5.962   6.547  0.9452 -1.4719  0.8868
36076SOL     OW11758   2.688   2.299   6.370 -0.9349 -0.0823  0.1826
36076SOL    HW111759   2.725   2.319   6.456 -0.0088  0.0212 -0.2205
36076SOL    HW211760   2.688   2.383   6.324  0.9346 -0.5398 -0.7663
36077SOL     OW11761   1.751   2.360   1.825  0.6318 -0.0899 -0.0333
36077SOL    HW111762   1.808   2.436   1.835  0.3237  0.2511 -0.7953
36077SOL    HW211763   1.718   2.367   1.735  1.7151 -1.8771 -0.6302
36078SOL     OW11764  10.379   2.118   7.902 -0.2053 -0.3200  0.3370
36078SOL    HW111765  10.308   2.101   7.840  0.1255  0.7400 -0.3657
36078SOL    HW211766  10.405   2.209   7.884  2.5278 -1.2133 -0.6947
36079SOL     OW11767   0.014   5.803   1.453 -0.7460 -0.5569  0.3058
36079SOL    HW111768   0.109   5.802   1.450 -0.7137  0.5965  0.5700
36079SOL    HW211769  -0.013   5.740   1.386  0.1964 -1.3135  0.6232
36080SOL     OW11770   0.204   9.854   1.415  0.1483  0.1444  0.5342
36080SOL    HW111771   0.132   9.791   1.415  0.9272 -0.7614  0.3625
36080SOL    HW211772   0.238   9.851   1.505  1.0475 -0.6960  0.1761
36081SOL     OW11773   1.678   4.413   9.879 -0.4440 -0.0463  0.1943
36081SOL    HW111774   1.664   4.504   9.908 -1.7161 -0.4917  1.0476
36081SOL    HW211775   1.764   4.390   9.914 -0.0024  0.8983 -0.2342
36082SOL     OW11776   5.998  10.883   2.233  0.1707 -0.0761  0.3345
36082SOL    HW111777   5.974  10.914   2.320  0.5519 -0.9574  0.7582
36082SOL    HW211778   6.071  10.823   2.247 -0.1667 -0.7113 -0.5260
36083SOL     OW11779   0.381   9.955   7.082 -0.5488 -0.1458  0.0414
36083SOL    HW111780   0.322   9.879   7.077 -1.5481  0.6465 -0.5290
36083SOL    HW211781   0.331  10.027   7.043 -0.1362  1.1507  1.7825
36084SOL     OW11782   0.636  10.301   8.016  0.1733 -0.6440 -0.7834
36084SOL    HW111783   0.653  10.345   7.933  2.3770 -1.3196 -0.7492
36084SOL    HW211784   0.715  10.250   8.033 -0.5227 -1.1113  1.3674
36085SOL     OW11785   8.507   8.884   8.002  0.1814  0.0601  0.4933
36085SOL    HW111786   8.583   8.867   7.948 -0.1527 -1.4662  0.4553
36085SOL    HW211787   8.483   8.975   7.983  1.8431  0.5021  0.3653
36086SOL     OW11788   1.268   3.329   9.982  0.4106 -0.1004 -0.2894
36086SOL    HW111789   1.339   3.313  10.043 -1.0173 -1.1138  1.2045
36086SOL    HW211790   1.222   3.405  10.018 -0.6857 -0.9595  0.1727
36087SOL     OW11791   6.169   5.946   4.247  0.2611 -0.4070  0.5540
36087SOL    HW111792   6.236   5.912   4.307  1.2109  0.6573  0.1485
36087SOL    HW211793   6.170   5.887   4.173  1.8327  0.3998 -0.1101
36088SOL     OW11794   7.006   4.391   9.950 -0.1061 -0.1032 -0.2937
36088SOL    HW111795   7.011   4.472   9.898 -0.0837 -0.6182 -1.1007
36088SOL    HW211796   6.989   4.422  10.039  0.8076  0.8474 -0.4183
36089SOL     OW11797   8.311   1.784   6.961 -0.0765 -0.4752 -0.4245
36089SOL    HW111798   8.338   1.693   6.972  4.3913  0.5072 -1.3352
36089SOL    HW211799   8.325   1.824   7.047  0.5580 -0.1293 -0.6819
36090SOL     OW11800   8.381   0.847   8.558  0.1961  0.4144 -0.1277
36090SOL    HW111801   8.435   0.780   8.598 -0.6094 -0.9177 -1.1963
36090SOL    HW211802   8.299   0.802   8.536 -0.6606  1.9320 -0.1733
36091SOL     OW11803   6.167   7.149   2.570 -0.7799  0.0696 -0.2142
36091SOL    HW111804   6.085   7.110   2.598 -1.3440  1.3776  0.0186
36091SOL    HW211805   6.219   7.155   2.650 -0.3807 -0.8940 -0.3873
36092SOL     OW11806   4.566   9.727  10.251  0.1847  0.2933 -0.4756
36092SOL    HW111807   4.500   9.658  10.249  2.6693 -2.3025 -0.0952
36092SOL    HW211808   4.606   9.718  10.338  1.0480  1.7659 -0.7004
36093SOL     OW11809   6.659   6.485   4.928  0.0320  0.6088  0.1556
36093SOL    HW111810   6.722   6.556   4.915  1.6083 -0.7653  0.0030
36093SOL    HW211811   6.607   6.483   4.847  2.2114 -0.5450 -1.2908
36094SOL     OW11812  11.060   1.185   8.137 -0.0981  0.2297  0.5369
36094SOL    HW111813  11.084   1.102   8.177  0.5448 -0.0988 -0.4692
36094SOL    HW211814  10.965   1.180   8.127 -0.1525 -0.0676  1.1499
36095SOL     OW11815   7.441   7.200   9.662  0.0819 -0.7221 -0.1547
36095SOL    HW111816   7.404   7.122   9.704  0.6869 -0.7925  0.2674
36095SOL    HW211817   7.408   7.197   9.572  1.4163 -2.4025 -0.6494
36096SOL     OW11818   7.655   4.411   2.221  0.1588 -0.4534 -0.2587
36096SOL    HW111819   7.592   4.465   2.174 -0.4207 -0.0389  0.9504
36096SOL    HW211820   7.670   4.458   2.303  2.2572 -0.4039 -0.6293
36097SOL     OW11821   9.756   7.491   5.826 -0.3651  0.1815 -0.3263
36097SOL    HW111822   9.691   7.560   5.838 -0.0551  0.3711  0.2692
36097SOL    HW211823   9.829   7.516   5.882  0.1424 -0.1394 -0.8310
36098SOL     OW11824   7.607   2.044   8.405  0.2061  0.7553  0.8088
36098SOL    HW111825   7.640   1.959   8.432 -0.0443  0.4605  0.2077
36098SOL    HW211826   7.575   2.030   8.316 -0.9194  1.1853  1.1199
36099SOL     OW11827   5.501   3.395   6.055  0.8391  0.7080  0.4287
36099SOL    HW111828   5.534   3.311   6.023  1.5786  0.4438  1.8226
36099SOL    HW211829   5.406   3.384   6.058  0.8942  0.0975  0.1463
36100SOL     OW11830   9.346  10.263   7.918  0.0585 -0.2597 -0.1584
36100SOL    HW111831   9.288  10.216   7.858  0.3416 -1.1467  0.2389
36100SOL    HW211832   9.433  10.227   7.901  0.4062  0.6532 -0.3520
36101SOL     OW11833  10.371   6.985   4.843  0.5083 -0.3429  0.4150
36101SOL    HW111834  10.462   6.989   4.814  0.5872  1.1174  0.7684
36101SOL    HW211835  10.329   6.923   4.784  1.8672 -1.5219  0.6472
36102SOL     OW11836   7.045   7.288   9.607 -0.0263  0.3326 -0.9852
36102SOL    HW111837   6.980   7.229   9.566  1.0351  0.4524 -2.9945
36102SOL    HW211838   7.122   7.279   9.551  2.2891 -0.9329  2.1184
36103SOL     OW11839   6.266  10.346   4.187  0.0237  0.3487  0.4465
36103SOL    HW111840   6.318  10.266   4.186  0.9931  0.9552  1.1366
36103SOL    HW211841   6.206  10.335   4.261 -0.4986 -0.1277 -0.0338
36104SOL     OW11842   1.843   5.551   7.626  0.2885  0.7666  0.5180
36104SOL    HW111843   1.853   5.595   7.542 -0.6743  0.9363  0.4767
36104SOL    HW211844   1.874   5.614   7.691 -0.8526  1.4225  0.4404
36105SOL     OW11845   2.783   9.678   2.862  0.0496  0.3082 -0.4139
36105SOL    HW111846   2.847   9.693   2.793 -0.9623  0.7738 -1.2754
36105SOL    HW211847   2.784   9.583   2.876  1.1683  0.3451 -0.1516
36106SOL     OW11848   6.198   7.305   8.209 -0.3780 -0.1498  0.0218
36106SOL    HW111849   6.202   7.226   8.262  0.2582  0.5813  1.0933
36106SOL    HW211850   6.253   7.369   8.255  2.5337 -0.2768 -2.9348
36107SOL     OW11851  10.267   8.852   4.534 -0.6813 -0.3827  0.8546
36107SOL    HW111852  10.217   8.822   4.458  0.7512  0.8420 -0.6807
36107SOL    HW211853  10.294   8.772   4.579 -0.9207 -1.1855 -0.3761
36108SOL     OW11854  10.632   9.836   7.541 -0.4827 -0.3173 -0.0474
36108SOL    HW111855  10.690   9.783   7.595 -1.4428 -0.6064  0.7302
36108SOL    HW211856  10.601   9.776   7.473  0.4669 -0.0395 -0.7551
36109SOL     OW11857  10.886   1.052   5.076 -0.4752  0.0544  0.1053
36109SOL    HW111858  10.978   1.065   5.053 -0.7457 -0.6362 -1.5024
36109SOL    HW211859  10.887   1.036   5.170  1.0203  0.2123  0.1495
36110SOL     OW11860   4.995   6.051   4.112 -0.3072  0.0111 -0.0755
36110SOL    HW111861   4.955   5.996   4.045  1.0943 -0.3890 -0.5959
36110SOL    HW211862   5.051   6.112   4.064  1.1694 -0.6531  0.7429
36111SOL     OW11863   5.123   6.487   3.904  0.5756  0.1483  0.3626
36111SOL    HW111864   5.085   6.554   3.846 -0.0297 -0.2502  0.2933
36111SOL    HW211865   5.059   6.477   3.974  0.7095 -0.2909  0.4237
36112SOL     OW11866  10.890   0.625   0.118  0.8728 -0.7154 -0.1252
36112SOL    HW111867  10.975   0.590   0.090  0.6638 -0.7245 -0.7637
36112SOL    HW211868  10.826   0.568   0.074  0.5093  0.9275 -1.8488
36113SOL     OW11869   1.202   4.828   6.699  0.4405 -0.2380  0.5128
36113SOL    HW111870   1.136   4.827   6.629  0.7545  2.0331  0.1239
36113SOL    HW211871   1.158   4.868   6.773 -0.1002 -3.2212  1.9797
36114SOL     OW11872   2.756   0.288   8.605  0.4427 -0.2948 -0.2412
36114SOL    HW111873   2.687   0.261   8.666  1.5425 -0.4366  0.9742
36114SOL    HW211874   2.768   0.381   8.623  1.2352 -0.4848  0.2460
36115SOL     OW11875   9.495   7.203   2.750 -0.3085  0.1887  0.1227
36115SOL    HW111876   9.502   7.251   2.832 -0.7972  0.6240 -0.0785
36115SOL    HW211877   9.570   7.231   2.698 -0.9352  1.2614 -0.2470
36116SOL     OW11878   6.974   9.113   9.033  0.7927 -0.3104  0.2299
36116SOL    HW111879   6.938   9.176   8.971 -0.9316 -0.5896  0.8916
36116SOL    HW211880   6.897   9.073   9.074  1.8608 -1.7974  0.8730
36117SOL     OW11881  10.791   3.228   1.422  0.1649  0.5324  0.7154
36117SOL    HW111882  10.877   3.242   1.462  0.0892 -0.9296  1.4763
36117SOL    HW211883  10.743   3.310   1.438  1.3264  1.2806  0.4774
36118SOL     OW11884   0.829   6.710   7.353 -0.0286 -0.1001 -1.2083
36118SOL    HW111885   0.795   6.667   7.275 -2.7847  1.3915 -0.9544
36118SOL    HW211886   0.841   6.802   7.327  0.2471  0.1570 -0.2239
36119SOL     OW11887  10.951   2.432  10.447 -0.3415  0.4992 -0.3442
36119SOL    HW111888  10.972   2.434  10.354  0.0518 -0.4997 -0.3001
36119SOL    HW211889  11.030   2.396  10.488 -0.4862  0.9916  0.3851
36120SOL     OW11890  10.580   6.090   4.733  0.7098  0.0229 -0.8537
36120SOL    HW111891  10.557   6.010   4.686 -0.9425 -0.7081  1.0893
36120SOL    HW211892  10.508   6.150   4.715 -0.5214 -0.6443  1.5100
36121SOL     OW11893   2.227   3.963   1.329 -0.0436  0.7968 -0.4732
36121SOL    HW111894   2.283   3.894   1.294 -0.6485  0.3220 -0.5279
36121SOL    HW211895   2.287   4.025   1.368  0.4469 -0.4956  0.9099
36122SOL     OW11896   6.241   3.440   5.073 -0.1010 -0.3309  0.1825
36122SOL    HW111897   6.275   3.530   5.075 -0.0121 -0.3387 -0.8018
36122SOL    HW211898   6.292   3.396   5.005 -0.4244 -1.0222  0.3736
36123SOL     OW11899   3.299   1.433   9.711 -0.4673 -0.1322 -0.2463
36123SOL    HW111900   3.257   1.384   9.640  0.3212  0.2805 -1.0179
36123SOL    HW211901   3.345   1.365   9.761  0.0445 -0.2832 -0.9012
36124SOL     OW11902   2.537   0.374   9.277 -0.3739 -0.1828 -0.1765
36124SOL    HW111903   2.606   0.317   9.312 -0.1918  0.3586  0.3632
36124SOL    HW211904   2.455   0.330   9.301 -0.3086  0.8132  2.1489
36125SOL     OW11905   9.820   6.305   1.504 -0.0037  0.3143 -0.0785
36125SOL    HW111906   9.841   6.397   1.493 -0.8299  0.4674 -0.4532
36125SOL    HW211907   9.880   6.260   1.444 -2.6164  0.9579 -3.4787
36126SOL     OW11908   3.072   1.156   8.757 -0.4594  0.3183 -0.3536
36126SOL    HW111909   3.092   1.185   8.668 -0.7160 -0.9846 -0.8617
36126SOL    HW211910   3.027   1.230   8.797 -0.9194  0.6985 -1.5347
36127SOL     OW11911   6.177   0.641   8.423  0.4163  0.1551 -0.1070
36127SOL    HW111912   6.190   0.668   8.333  0.1423  4.1580  0.8721
36127SOL    HW211913   6.082   0.637   8.434  0.2567  3.4087  0.7689
36128SOL     OW11914   0.354   3.379  11.104 -0.0798 -0.1984  0.0361
36128SOL    HW111915   0.385   3.403  11.017 -1.2896  0.5412 -0.2222
36128SOL    HW211916   0.319   3.460  11.141 -1.4255 -0.9019  0.3918
36129SOL     OW11917  10.602  11.050   4.201 -0.1418 -0.1981  0.3948
36129SOL    HW111918  10.543  10.996   4.148 -0.1187  0.6062 -0.4596
36129SOL    HW211919  10.551  11.127   4.223  0.5192  0.4119 -0.1779
36130SOL     OW11920   7.130   6.597   5.097  0.4809  0.6237  0.4212
36130SOL    HW111921   7.204   6.620   5.153  0.9225 -0.7980  0.4752
36130SOL    HW211922   7.142   6.503   5.079 -2.2808 -0.1586  1.9934
36131SOL     OW11923   2.054   2.403   0.730 -0.3792  0.7620 -0.1452
36131SOL    HW111924   2.127   2.394   0.669 -0.1665  1.6936 -0.0445
36131SOL    HW211925   1.979   2.365   0.684  0.3167 -0.9376  0.0628
36132SOL     OW11926   9.802   4.451   9.879  0.1684 -0.1398 -0.1974
36132SOL    HW111927   9.887   4.415   9.907  0.0882 -0.0662  0.1492
36132SOL    HW211928   9.741   4.378   9.885 -0.0156  0.0698  0.6050
36133SOL     OW11929   1.829   5.343   1.440 -0.4966 -0.6239  1.1043
36133SOL    HW111930   1.752   5.397   1.459  0.0181  0.1085  1.1435
36133SOL    HW211931   1.902   5.405   1.440 -0.2364 -0.8232 -1.6415
36134SOL     OW11932   0.464   0.324   6.736  0.8984 -0.5971 -0.2146
36134SOL    HW111933   0.455   0.239   6.692  0.0140 -1.2079  1.1150
36134SOL    HW211934   0.380   0.368   6.722  1.2244 -0.0653 -0.5804
36135SOL     OW11935   6.846   1.492   8.066 -0.5310 -0.1066 -0.3366
36135SOL    HW111936   6.908   1.558   8.036 -0.4448 -0.8730 -2.0049
36135SOL    HW211937   6.884   1.457   8.146  0.2380  0.7207 -0.3282
36136SOL     OW11938   1.829   7.063   9.574 -0.3219 -0.0716  0.8017
36136SOL    HW111939   1.921   7.083   9.558 -0.1915 -1.0924  0.2511
36136SOL    HW211940   1.801   7.013   9.497 -1.4989  0.7165  0.6853
36137SOL     OW11941   4.998   3.462   7.314  0.6464 -0.3407 -0.2459
36137SOL    HW111942   4.985   3.557   7.321 -0.3187 -0.4687 -0.0984
36137SOL    HW211943   5.055   3.451   7.239  1.0240  0.3784 -0.0756
36138SOL     OW11944   7.312   7.664   5.812  0.2205  0.4565 -0.0992
36138SOL    HW111945   7.249   7.655   5.740  0.9580  2.6190 -1.1292
36138SOL    HW211946   7.388   7.706   5.771  0.7780  1.5169  1.8878
36139SOL     OW11947   2.992   8.201   4.637 -0.0019  0.0597  0.1132
36139SOL    HW111948   2.957   8.204   4.726 -1.1198  1.2264 -0.3414
36139SOL    HW211949   2.948   8.126   4.597  0.4453 -0.4213  0.5120
36140SOL     OW11950   6.707   1.491   1.199  0.3778  0.0815  0.4989
36140SOL    HW111951   6.636   1.501   1.262 -0.2486 -0.6981 -0.0624
36140SOL    HW211952   6.714   1.577   1.158 -2.2941 -0.5335 -1.5200
36141SOL     OW11953  10.610   2.795   6.902 -0.3399  0.0418 -0.3832
36141SOL    HW111954  10.622   2.838   6.817 -0.4730  1.6210  0.3580
36141SOL    HW211955  10.694   2.805   6.946 -0.3663 -0.5108 -0.2009
36142SOL     OW11956   6.674   7.563   4.742  0.6682  0.3341  0.2066
36142SOL    HW111957   6.624   7.644   4.730 -0.9918 -0.4806  1.1349
36142SOL    HW211958   6.718   7.548   4.659  1.3814  2.4114  0.1680
36143SOL     OW11959  10.149   6.984   8.927 -0.0861  0.1797  0.3258
36143SOL    HW111960  10.161   7.025   9.013  0.0673 -0.4465  0.6156
36143SOL    HW211961  10.079   6.920   8.940 -0.3476  0.3704 -0.1237
36144SOL     OW11962   3.907   8.378   7.366 -0.9926 -0.9209 -0.0121
36144SOL    HW111963   3.851   8.436   7.418 -0.1862 -0.3476  0.2343
36144SOL    HW211964   3.995   8.413   7.378 -0.6899 -1.2785 -1.1019
36145SOL     OW11965   9.742   2.567   3.881  0.4369  0.3278  0.1949
36145SOL    HW111966   9.831   2.600   3.881  0.2087  0.9520  0.4165
36145SOL    HW211967   9.708   2.589   3.794  0.2159  0.8780  0.4153
36146SOL     OW11968   7.851  10.815   4.530  0.4169 -0.9290 -0.2717
36146SOL    HW111969   7.834  10.757   4.456  1.0173 -0.9490 -0.3986
36146SOL    HW211970   7.863  10.756   4.605 -3.2764 -0.8795  0.5890
36147SOL     OW11971   0.559   2.680  10.351 -0.2984 -0.3292  0.8419
36147SOL    HW111972   0.476   2.724  10.371 -1.1116  0.0397 -2.7406
36147SOL    HW211973   0.533   2.591  10.327  0.1647  0.0386 -1.1642
36148SOL     OW11974   5.032   4.697   6.090  0.1902 -0.3291 -0.1872
36148SOL    HW111975   5.082   4.720   6.168  0.3806  2.2255 -0.9813
36148SOL    HW211976   5.062   4.757   6.023 -1.5501 -0.9725 -1.6381
36149SOL     OW11977  10.945   1.588   4.707  0.2920 -0.1689 -0.2954
36149SOL    HW111978  11.003   1.532   4.656  0.0974  0.6906 -1.5198
36149SOL    HW211979  10.858   1.574   4.669 -0.1454 -0.6683  0.8353
36150SOL     OW11980   4.937   8.095   6.754 -0.4598 -0.1596 -0.2233
36150SOL    HW111981   4.978   8.178   6.778 -0.2556  0.4106 -2.3168
36150SOL    HW211982   4.961   8.035   6.824  2.4544  0.6493 -0.4028
36151SOL     OW11983   5.589   1.680  10.550  0.0729  0.3133 -0.4981
36151SOL    HW111984   5.582   1.633  10.634  0.9975  1.0574  0.0150
36151SOL    HW211985   5.674   1.653  10.515 -0.0393  0.4809 -0.8945
36152SOL     OW11986   0.916   9.922   5.688  0.1260 -0.5975 -0.8610
36152SOL    HW111987   0.917   9.992   5.753 -1.4426  2.2935 -3.6887
36152SOL    HW211988   0.841   9.867   5.714  1.5078 -1.5307  1.5188
36153SOL     OW11989   9.010   1.473   2.252 -0.3225  0.5514  0.0243
36153SOL    HW111990   8.946   1.404   2.232 -0.6082  1.0608 -0.8747
36153SOL    HW211991   9.058   1.439   2.328 -2.4431  0.6617  1.5233
36154SOL     OW11992   9.247   4.802   3.881 -0.2510 -0.3590  0.1966
36154SOL    HW111993   9.167   4.832   3.924 -0.1638 -1.4612  1.1775
36154SOL    HW211994   9.298   4.882   3.867  0.1346 -0.0125  3.0360
36155SOL     OW11995   2.634   9.741   7.554  0.0524 -0.0875  1.1327
36155SOL    HW111996   2.690   9.787   7.617  0.0225  0.0294  1.0735
36155SOL    HW211997   2.635   9.796   7.476 -0.0692 -0.1334  1.0987
36156SOL     OW11998   9.032   7.172   4.703  0.1502  0.4873 -0.2482
36156SOL    HW111999   9.121   7.194   4.731 -0.0962  0.3700  0.6527
36156SOL    HW212000   9.031   7.076   4.700  0.1874  0.4988 -0.7225
36157SOL     OW12001   1.418  11.010   3.251 -0.4136 -0.1168  0.0144
36157SOL    HW112002   1.489  10.980   3.308  0.8513  1.7483 -0.5113
36157SOL    HW212003   1.344  10.952   3.272  1.7087 -3.3372 -0.6679
36158SOL     OW12004   6.613   1.286   6.421 -0.1045  0.1935  0.2158
36158SOL    HW112005   6.694   1.307   6.374 -0.2130 -0.5278 -0.3114
36158SOL    HW212006   6.569   1.223   6.365 -1.2993  0.9779  0.2304
36159SOL     OW12007   1.656   3.793   6.338  0.4910 -0.1845  0.4394
36159SOL    HW112008   1.732   3.827   6.386  1.7056  1.2059 -2.2600
36159SOL    HW212009   1.608   3.872   6.312 -0.4832 -0.9297 -0.0635
36160SOL     OW12010   3.401   7.426   7.107 -0.2463  0.3323  0.4391
36160SOL    HW112011   3.340   7.381   7.164  0.1328 -1.4076 -0.4701
36160SOL    HW212012   3.354   7.435   7.024 -0.0178  0.9117  0.3629
36161SOL     OW12013   7.379   2.210   7.684 -0.9872 -0.6823  0.0199
36161SOL    HW112014   7.354   2.297   7.714 -0.5180 -0.6117  0.2105
36161SOL    HW212015   7.297   2.161   7.684 -1.3786 -0.0350 -0.8249
36162SOL     OW12016   9.896   2.098   1.747  0.0762 -0.0394 -0.4133
36162SOL    HW112017   9.805   2.122   1.761  0.0849  0.3470 -0.9501
36162SOL    HW212018   9.893   2.023   1.687  0.1331  1.4059 -2.3479
36163SOL     OW12019   4.860   4.059   8.898 -0.3580  0.2819 -0.1025
36163SOL    HW112020   4.872   4.116   8.822 -0.3560 -0.2525 -0.5059
36163SOL    HW212021   4.939   4.005   8.900 -0.5541 -0.0038  0.0176
36164SOL     OW12022   0.284  10.142   7.671  0.0315  0.0005 -0.0848
36164SOL    HW112023   0.347  10.071   7.661  1.4566  0.9067  1.7767
36164SOL    HW212024   0.221  10.128   7.601  2.9916 -0.2103 -2.9223
36165SOL     OW12025   8.443   0.375   4.408 -0.0505 -0.3499 -0.6431
36165SOL    HW112026   8.527   0.419   4.395  0.8104 -1.6790  0.1610
36165SOL    HW212027   8.422   0.337   4.323  1.5183 -2.2220 -0.2673
36166SOL     OW12028   0.993   0.223   2.382  0.2179 -0.4205 -0.1208
36166SOL    HW112029   1.038   0.289   2.328  0.2230 -0.6632 -0.4157
36166SOL    HW212030   0.986   0.263   2.468  2.3262 -0.9387  0.3411
36167SOL     OW12031   1.820  10.916   2.131 -0.5065  0.2492  0.1881
36167SOL    HW112032   1.737  10.933   2.087  0.3294  1.7420 -0.8874
36167SOL    HW212033   1.825  10.982   2.200 -0.1420  0.2666  0.1469
36168SOL     OW12034   7.678   2.498   4.272  0.0133 -0.0365  0.3693
36168SOL    HW112035   7.598   2.484   4.323 -0.9560 -0.7134 -1.2755
36168SOL    HW212036   7.656   2.567   4.210  0.3614 -0.9073 -0.7561
36169SOL     OW12037   1.034   3.437   3.873  0.1704 -0.0841 -0.0104
36169SOL    HW112038   0.977   3.480   3.809 -0.0173  0.8542  0.7551
36169SOL    HW212039   1.045   3.348   3.839  0.6251  0.5690 -1.6853
36170SOL     OW12040   7.096   6.349   0.748  0.1951  0.2160  0.1438
36170SOL    HW112041   7.048   6.423   0.788 -1.0650 -0.5644  0.1284
36170SOL    HW212042   7.173   6.390   0.709  0.8518  1.1968  2.2835
36171SOL     OW12043   1.921   5.502   8.920  0.5885 -0.1626 -1.1116
36171SOL    HW112044   1.964   5.549   8.991 -0.5050  0.5741 -0.9094
36171SOL    HW212045   1.918   5.566   8.848 -1.0515  0.1656 -0.7843
36172SOL     OW12046  10.834   4.402   4.104  0.0981 -0.1651  0.3360
36172SOL    HW112047  10.827   4.431   4.195 -0.4656 -1.5106  0.7406
36172SOL    HW212048  10.808   4.310   4.105  2.4353 -0.9112 -0.8070
36173SOL     OW12049   2.337   2.080   6.249  0.0746 -0.0640 -0.4477
36173SOL    HW112050   2.401   2.100   6.318  1.0343  1.4020 -1.6912
36173SOL    HW212051   2.252   2.102   6.288  0.3122 -1.7547  1.1244
36174SOL     OW12052   8.023   8.579   6.058 -0.3354  0.7810 -0.1169
36174SOL    HW112053   8.112   8.564   6.091 -0.3666 -0.8826 -0.7177
36174SOL    HW212054   7.979   8.624   6.130  1.1074  2.1025  0.0117
36175SOL     OW12055   6.440   2.583  10.964 -0.0049 -0.0584  0.5520
36175SOL    HW112056   6.434   2.534  11.046  1.8943  0.4083  1.0036
36175SOL    HW212057   6.503   2.652  10.981 -0.6053  0.8966 -0.9047
36176SOL     OW12058   8.443   0.242   3.405 -0.1658  0.5627  0.5649
36176SOL    HW112059   8.479   0.297   3.335  1.1659  2.5462  2.6764
36176SOL    HW212060   8.515   0.183   3.428  0.1856  1.3722  1.6400
36177SOL     OW12061   1.735   0.353   6.187 -0.0922  0.6611  0.2264
36177SOL    HW112062   1.714   0.316   6.101  1.8466  0.3301 -0.1656
36177SOL    HW212063   1.665   0.323   6.244 -1.1705  0.4917 -1.1289
36178SOL     OW12064   2.594   7.506   5.912 -0.1955  0.2120 -0.1543
36178SOL    HW112065   2.688   7.511   5.893 -0.2211 -0.5269 -0.5283
36178SOL    HW212066   2.570   7.594   5.940  0.4364  0.6275 -0.8814
36179SOL     OW12067   3.151   8.626   9.729  0.3143  0.2690  1.0097
36179SOL    HW112068   3.150   8.533   9.709 -1.5237  0.6287 -0.8719
36179SOL    HW212069   3.183   8.668   9.649 -1.1380  1.3900  0.9738
36180SOL     OW12070   8.772   9.718   1.317 -0.2075 -0.1527 -0.2810
36180SOL    HW112071   8.753   9.710   1.223  1.7322 -2.3808 -0.5739
36180SOL    HW212072   8.702   9.668   1.360  0.5101 -1.6432 -0.7850
36181SOL     OW12073   6.355   4.009   0.332  0.1579 -0.4878  0.4563
36181SOL    HW112074   6.418   3.937   0.333  1.7669  0.8663  1.9250
36181SOL    HW212075   6.314   4.007   0.418 -0.2563 -0.0118  0.2801
36182SOL     OW12076   4.018   2.117   8.781  0.2374  0.1625 -0.2798
36182SOL    HW112077   4.100   2.111   8.831 -0.2316 -2.6640  0.3429
36182SOL    HW212078   3.981   2.029   8.785 -2.1524  0.9911 -1.7693
36183SOL     OW12079   1.467   1.677  10.480  0.2396 -1.2634 -0.2399
36183SOL    HW112080   1.460   1.596  10.530 -1.0956 -1.1834 -0.2455
36183SOL    HW212081   1.376   1.705  10.468  0.6921  0.8631  0.7782
36184SOL     OW12082   3.252  10.293   4.189  0.5198 -0.4665  0.0346
36184SOL    HW112083   3.158  10.279   4.179  0.2434  2.2359 -2.5106
36184SOL    HW212084   3.269  10.282   4.283 -2.4110 -0.5049  0.6333
36185SOL     OW12085   8.120   1.834   3.776  0.1328 -0.8087 -0.4598
36185SOL    HW112086   8.088   1.881   3.699 -0.4084  0.4007  0.4650
36185SOL    HW212087   8.048   1.841   3.839  0.1441 -2.6766 -0.1834
36186SOL     OW12088   0.047   9.613  10.895 -0.0595 -0.1855  0.1041
36186SOL    HW112089  -0.005   9.547  10.848 -0.3608  0.3279 -0.2874
36186SOL    HW212090   0.137   9.597  10.866  0.0220 -1.1111  0.8224
36187SOL     OW12091   8.794   4.365   0.649 -0.3016  0.2333 -0.4997
36187SOL    HW112092   8.701   4.349   0.661 -0.1950 -1.2755 -1.3308
36187SOL    HW212093   8.835   4.279   0.661  1.0372  0.9344  0.2293
36188SOL     OW12094   3.235   5.740   2.813 -0.1842 -0.6804 -0.3333
36188SOL    HW112095   3.290   5.760   2.737 -0.3828  0.3002 -0.2336
36188SOL    HW212096   3.293   5.690   2.871  0.7352  0.6096 -0.0884
36189SOL     OW12097   4.100   7.631   5.686  0.2647  0.3500 -0.3350
36189SOL    HW112098   4.145   7.628   5.771 -1.7459  2.2022  0.9051
36189SOL    HW212099   4.019   7.582   5.700  0.0935  0.3252 -1.3304
36190SOL     OW12100   5.059   8.232   5.378 -0.4762 -0.2039  0.1204
36190SOL    HW112101   5.154   8.233   5.368 -0.4461 -0.5669  0.3605
36190SOL    HW212102   5.026   8.219   5.289 -0.2930 -0.3909  0.0791
36191SOL     OW12103   2.271   9.558  10.523  0.1311 -0.1708  0.9274
36191SOL    HW112104   2.201   9.498  10.497 -0.6351  1.1233 -0.1602
36191SOL    HW212105   2.227   9.623  10.578  0.8138 -0.2242  1.5548
36192SOL     OW12106   8.443  10.182   8.045 -0.0193  0.0794 -0.1413
36192SOL    HW112107   8.505  10.135   7.990  0.3195 -0.4623  0.6969
36192SOL    HW212108   8.458  10.148   8.133 -1.0695  0.3966  0.1712
36193SOL     OW12109   0.787  10.938   6.735  0.0213  0.3893 -0.0455
36193SOL    HW112110   0.767  11.024   6.698  1.6408  1.0914  0.6413
36193SOL    HW212111   0.703  10.907   6.770 -0.3994  2.1164  0.5583
36194SOL     OW12112   0.333   1.759  10.999  0.8095  0.4124 -0.3359
36194SOL    HW112113   0.384   1.680  11.017  0.9561  0.4371 -0.6467
36194SOL    HW212114   0.388   1.831  11.028  0.6386  0.3986  0.0326
36195SOL     OW12115   5.776   7.445  10.921 -0.4310 -0.1843  0.1662
36195SOL    HW112116   5.797   7.469  10.830  0.0703 -0.0777  0.3075
36195SOL    HW212117   5.688   7.479  10.935 -0.3641  0.1305 -0.1641
36196SOL     OW12118   9.320   8.173   0.758 -0.2231 -0.5402 -0.1905
36196SOL    HW112119   9.399   8.225   0.743  1.4816 -2.7292  0.6273
36196SOL    HW212120   9.282   8.161   0.671  0.4384  0.3686 -0.6199
36197SOL     OW12121   3.859   1.752   6.185  0.3907 -0.2510 -0.5487
36197SOL    HW112122   3.903   1.722   6.264  0.3652 -0.3932 -0.5872
36197SOL    HW212123   3.927   1.751   6.118  0.4350 -0.0378 -0.5063
36198SOL     OW12124   1.348   4.542   1.969 -0.0970 -0.4633  0.0026
36198SOL    HW112125   1.398   4.616   1.935 -1.5837 -0.3616 -2.2017
36198SOL    HW212126   1.265   4.581   1.997  1.1608 -0.4889  4.3568
36199SOL     OW12127  10.989   0.682   4.601 -0.0729 -0.0860  0.1776
36199SOL    HW112128  10.944   0.610   4.556  0.3292 -0.1568 -0.1173
36199SOL    HW212129  11.023   0.737   4.530 -0.4290  0.4281  0.3999
36200SOL     OW12130   6.041   9.492   4.708 -0.4083 -0.3068  0.1303
36200SOL    HW112131   6.009   9.514   4.795 -0.5754  1.8904 -0.4207
36200SOL    HW212132   6.131   9.526   4.706 -0.7975  0.7152 -0.9032
36201SOL     OW12133   1.176   2.469   2.332 -0.0608 -0.2984 -0.2566
36201SOL    HW112134   1.118   2.533   2.291  0.3472 -0.4237 -1.0442
36201SOL    HW212135   1.151   2.470   2.424 -2.3345 -1.4398 -0.8105
36202SOL     OW12136   8.960   7.400  10.395  0.8214  0.0546 -0.1492
36202SOL    HW112137   8.933   7.327  10.339  2.0075 -0.0659 -0.6062
36202SOL    HW212138   8.921   7.477  10.355 -2.7300 -0.5028  1.8293
36203SOL     OW12139  10.179   3.202   6.633 -0.2233  0.2407 -0.2042
36203SOL    HW112140  10.228   3.224   6.712  0.0716  0.6006 -0.4849
36203SOL    HW212141  10.090   3.233   6.650 -0.3248 -0.2871  0.2502
36204SOL     OW12142   0.310   3.384   5.655 -0.8572 -0.1655  0.1280
36204SOL    HW112143   0.385   3.404   5.599  0.2236 -0.9822  1.2595
36204SOL    HW212144   0.299   3.462   5.709  0.5833 -0.8357  1.4674
36205SOL     OW12145   7.045   9.699   8.645 -0.2452 -0.9464  0.4918
36205SOL    HW112146   7.138   9.709   8.625 -0.3399  1.9578  0.9791
36205SOL    HW212147   7.042   9.697   8.741 -0.7193 -0.1314  0.5013
36206SOL     OW12148  10.017   0.138   4.618  0.6526  0.2759 -0.3833
36206SOL    HW112149   9.943   0.078   4.619  1.4176 -0.7654 -2.0626
36206SOL    HW212150  10.088   0.088   4.579  2.3989  1.1217  1.5077
36207SOL     OW12151   2.786   5.231   9.042  0.1298 -0.1511  0.2193
36207SOL    HW112152   2.759   5.279   8.964  0.3396 -1.1670 -0.4984
36207SOL    HW212153   2.807   5.299   9.106  0.9315  0.7327 -0.9384
36208SOL     OW12154   1.190  10.621  10.614  0.0235 -0.0843  0.2392
36208SOL    HW112155   1.145  10.537  10.627  1.2357 -1.1922 -2.1013
36208SOL    HW212156   1.132  10.670  10.556 -0.2070  0.2923  0.7849
36209SOL     OW12157   1.527   1.874   7.987  0.6933  0.3463  0.0675
36209SOL    HW112158   1.608   1.822   7.990  0.0790 -0.5856  1.1028
36209SOL    HW212159   1.551   1.958   8.026  1.5954  0.7472 -1.2628
36210SOL     OW12160   0.694   6.390   9.282  0.4492  0.0306 -0.2417
36210SOL    HW112161   0.757   6.320   9.267 -1.2599 -2.0159  1.4136
36210SOL    HW212162   0.618   6.367   9.228  0.1232  1.0347 -0.2437
36211SOL     OW12163   1.623   5.770   0.503  0.0539 -0.1004  0.8029
36211SOL    HW112164   1.558   5.755   0.572 -1.1116 -0.4289 -0.3318
36211SOL    HW212165   1.648   5.682   0.474  0.8036  0.0279  1.0222
36212SOL     OW12166   4.383  10.579   9.098  0.6890  0.1851 -0.1950
36212SOL    HW112167   4.462  10.529   9.118 -0.8761 -1.3679  2.7257
36212SOL    HW212168   4.355  10.546   9.012  1.2360 -2.0080  0.3999
36213SOL     OW12169   1.861  10.381   0.057  0.0351  0.3213 -0.2664
36213SOL    HW112170   1.919  10.354   0.129 -0.1494  0.6055 -0.0087
36213SOL    HW212171   1.773  10.376   0.094 -0.0388  0.7444 -0.3886
36214SOL     OW12172   4.086   1.895   0.015  0.2220  0.0242 -0.3535
36214SOL    HW112173   4.056   1.821   0.068 -0.2679 -0.8315 -1.7736
36214SOL    HW212174   4.008   1.950   0.004 -0.7621 -1.7641 -3.3259
36215SOL     OW12175   0.819   8.729   3.337  0.6691  0.3969 -0.0962
36215SOL    HW112176   0.816   8.785   3.415  0.5298  1.8587 -1.1225
36215SOL    HW212177   0.781   8.782   3.268  2.7734 -0.0536 -1.6872
36216SOL     OW12178   4.684   4.452   9.632 -0.0290  0.0918 -0.0786
36216SOL    HW112179   4.731   4.525   9.594 -0.8274 -0.4721 -2.2890
36216SOL    HW212180   4.744   4.378   9.625  0.1096  0.1362  0.5295
36217SOL     OW12181   2.845   3.988   5.886  0.1104 -0.1750 -0.0918
36217SOL    HW112182   2.930   3.961   5.922  0.0673  0.7555  0.7256
36217SOL    HW212183   2.807   3.906   5.853  0.8508 -0.7838  0.5159
36218SOL     OW12184   6.569   6.214   7.064 -0.1479  0.7634 -0.0934
36218SOL    HW112185   6.541   6.305   7.053 -1.1073  0.3006 -1.8905
36218SOL    HW212186   6.489   6.166   7.084  0.6845  0.6030  3.4145
36219SOL     OW12187   8.787   3.773  10.025 -0.1589  0.4518 -0.5364
36219SOL    HW112188   8.811   3.680  10.014 -3.0768 -0.3298 -1.1319
36219SOL    HW212189   8.776   3.805   9.935 -0.4394  1.0006 -0.3093
36220SOL     OW12190   1.931   9.086   0.481  0.4852 -0.0364  0.2161
36220SOL    HW112191   1.937   9.046   0.395  0.0385  0.5527 -0.0917
36220SOL    HW212192   2.006   9.146   0.486 -0.9530  1.9338 -0.8241
36221SOL     OW12193   4.811   6.877   9.179 -0.1131  0.6193 -0.4026
36221SOL    HW112194   4.793   6.820   9.253 -0.7008  0.2206 -0.8426
36221SOL    HW212195   4.800   6.821   9.102  2.0280  0.5992 -0.7638
36222SOL     OW12196   0.702   3.629   7.476 -0.0311  0.1816 -0.2756
36222SOL    HW112197   0.667   3.551   7.520  0.8048  0.7708  1.5428
36222SOL    HW212198   0.636   3.696   7.492 -1.4836 -0.4147 -3.1144
36223SOL     OW12199   6.318   5.853   4.545  0.1050  0.1297 -0.1291
36223SOL    HW112200   6.254   5.787   4.520 -0.8990  1.7034 -1.9750
36223SOL    HW212201   6.397   5.803   4.565 -0.8549 -1.6675 -0.6227
36224SOL     OW12202   3.714   1.096   0.176 -0.3687 -0.1841  0.8550
36224SOL    HW112203   3.783   1.161   0.189 -1.2212  0.6431  1.3091
36224SOL    HW212204   3.720   1.038   0.252  0.4913 -0.7489  0.3742
36225SOL     OW12205   8.369   9.723  10.083 -0.0678  0.0955  0.5742
36225SOL    HW112206   8.279   9.715  10.052 -0.1153 -0.8667  0.9339
36225SOL    HW212207   8.422   9.680  10.017  0.0202 -0.2570  0.8700
36226SOL     OW12208   8.332   9.211  10.691  0.2290  0.2283  0.3556
36226SOL    HW112209   8.260   9.151  10.673 -0.2516  0.8532  0.1914
36226SOL    HW212210   8.411   9.157  10.679 -0.1436 -1.7206  4.7719
36227SOL     OW12211   6.465   9.255   6.954  0.3178 -0.0967  0.0979
36227SOL    HW112212   6.514   9.202   6.891 -1.5036 -2.4063  0.4922
36227SOL    HW212213   6.443   9.195   7.025 -1.7430  1.1967  0.6612
36228SOL     OW12214   2.062   9.640   5.697  0.4292 -0.2578  0.1590
36228SOL    HW112215   2.096   9.610   5.781  1.1632  1.4219  0.5000
36228SOL    HW212216   2.135   9.685   5.656 -0.4765  0.6318 -0.5249
36229SOL     OW12217   0.593   5.099   9.304 -0.0647 -1.4148 -0.2875
36229SOL    HW112218   0.658   5.029   9.295 -0.3414 -2.1209  2.2529
36229SOL    HW212219   0.644   5.180   9.305  0.6559 -1.8643  0.4491
36230SOL     OW12220   5.625   4.679   2.107  0.3508  0.4769 -0.0180
36230SOL    HW112221   5.577   4.757   2.132 -0.2301 -0.2569  1.2402
36230SOL    HW212222   5.717   4.705   2.107  0.1856  1.0646  0.7347
36231SOL     OW12223  10.618   4.534   3.753 -0.2935 -0.1393 -0.4301
36231SOL    HW112224  10.524   4.531   3.735  0.1588  1.4278 -3.5729
36231SOL    HW212225  10.653   4.455   3.712 -0.0992 -0.2900  0.0111
36232SOL     OW12226   9.003   0.783   5.444  0.2374  0.3148 -0.7645
36232SOL    HW112227   9.080   0.741   5.483 -1.5880 -0.8984  1.8540
36232SOL    HW212228   9.002   0.871   5.481  1.2619  0.9548 -2.1887
36233SOL     OW12229   2.073  10.793  10.653 -0.0616  0.4849 -0.1961
36233SOL    HW112230   2.022  10.724  10.696  0.5075  0.0438 -0.2217
36233SOL    HW212231   2.147  10.747  10.614 -0.7733  0.8134 -2.0039
36234SOL     OW12232   5.244   6.271   4.972  0.3256 -0.0133 -0.6257
36234SOL    HW112233   5.200   6.202   5.021 -0.9552  0.4317 -1.0983
36234SOL    HW212234   5.336   6.264   4.997 -0.2982  0.4084  2.0819
36235SOL     OW12235   5.556   7.411  10.661 -0.6360  0.0023 -0.5383
36235SOL    HW112236   5.528   7.320  10.669  1.7368 -0.6986  1.1644
36235SOL    HW212237   5.523   7.453  10.741  1.3601 -0.3723  0.5467
36236SOL     OW12238   6.137   4.139   8.110 -0.6266 -0.3458  0.9258
36236SOL    HW112239   6.201   4.093   8.165  0.3524 -0.7861 -0.5126
36236SOL    HW212240   6.121   4.080   8.037 -1.4609  0.4610  0.4268
36237SOL     OW12241   8.307   9.773   3.515  0.2778  0.6900 -0.0537
36237SOL    HW112242   8.397   9.778   3.546  0.1690 -1.1829  0.6998
36237SOL    HW212243   8.280   9.682   3.533 -1.7366  1.1864 -0.2813
36238SOL     OW12244   8.021   5.759   5.631  0.1628  0.0125 -0.2679
36238SOL    HW112245   8.071   5.834   5.598  1.6571 -0.6330  0.4513
36238SOL    HW212246   7.930   5.780   5.611  0.5904  1.8335 -0.4279
36239SOL     OW12247   0.528   2.973   3.677  0.4851 -0.0277 -0.5031
36239SOL    HW112248   0.597   2.999   3.739 -1.0939  0.3050  1.2164
36239SOL    HW212249   0.485   2.899   3.720 -0.8586  0.4083 -1.0635
36240SOL     OW12250   9.242  10.441   5.195  0.0915 -0.0755  0.2073
36240SOL    HW112251   9.268  10.489   5.273  1.2973  1.4747 -1.0670
36240SOL    HW212252   9.162  10.484   5.166 -0.8540 -1.2207  1.0346
36241SOL     OW12253   6.480   6.115   2.830 -0.0867 -0.0855 -0.3438
36241SOL    HW112254   6.507   6.104   2.921  0.1292  0.9805 -0.2668
36241SOL    HW212255   6.494   6.208   2.812 -0.9577 -0.1070 -1.1981
36242SOL     OW12256   3.253   1.262   4.312  0.3916 -0.4334 -0.0284
36242SOL    HW112257   3.310   1.335   4.335  0.3472 -1.0537  2.3476
36242SOL    HW212258   3.176   1.303   4.273 -0.0638  0.9684  2.1385
36243SOL     OW12259   7.864   5.507   5.266 -0.0113 -0.0775  0.0655
36243SOL    HW112260   7.866   5.601   5.249  2.2643 -0.4128 -2.0917
36243SOL    HW212261   7.946   5.489   5.313 -0.7789 -0.8978  1.1383
36244SOL     OW12262   4.486   8.202   6.933 -0.1734  0.3234  0.0747
36244SOL    HW112263   4.543   8.167   6.863 -0.7130  0.1899 -0.3049
36244SOL    HW212264   4.539   8.195   7.012 -0.2395 -1.3445  0.0044
36245SOL     OW12265  10.209   1.015   5.055 -0.6754  0.2227  0.1112
36245SOL    HW112266  10.233   1.039   4.965 -0.9337 -1.0436 -0.3130
36245SOL    HW212267  10.288   1.031   5.106  0.5448 -2.0473 -0.9175
36246SOL     OW12268   0.606   3.919   2.028  0.0011  0.8033  0.6642
36246SOL    HW112269   0.622   3.996   1.974  1.5222  0.0120 -0.0986
36246SOL    HW212270   0.597   3.847   1.965 -0.4272  0.2009  1.3924
36247SOL     OW12271   5.757   3.029  10.310 -0.0148 -0.5311 -0.2532
36247SOL    HW112272   5.844   3.069  10.309 -0.1690 -0.1598 -1.7062
36247SOL    HW212273   5.722   3.047  10.222 -2.8410  2.0921  1.2202
36248SOL     OW12274   1.594   4.516  10.202 -0.2007 -0.1888  0.3307
36248SOL    HW112275   1.618   4.495  10.292 -1.5775  1.6858  1.2118
36248SOL    HW212276   1.516   4.572  10.211  1.3101  2.4921 -1.8499
36249SOL     OW12277   6.420   3.399   6.768 -0.2145 -0.0844  0.4974
36249SOL    HW112278   6.332   3.433   6.785 -0.4569 -0.1321 -0.5919
36249SOL    HW212279   6.461   3.396   6.854 -1.5891 -0.9430  1.1680
36250SOL     OW12280  11.067  10.326   6.159  0.0010 -0.3341 -0.2342
36250SOL    HW112281  11.038  10.370   6.079  2.0401 -0.5045 -1.1195
36250SOL    HW212282  10.987  10.313   6.209 -1.1191  1.2430 -1.5111
36251SOL     OW12283   8.308   8.084   1.763 -0.2228  0.2919 -0.1481
36251SOL    HW112284   8.342   7.995   1.774  0.0567  0.5502  1.2562
36251SOL    HW212285   8.266   8.083   1.677  0.7006 -0.8939 -0.6135
36252SOL     OW12286   6.736   4.370   7.269  0.4147 -0.6215 -0.2003
36252SOL    HW112287   6.816   4.351   7.220  1.7652 -1.2893  2.1112
36252SOL    HW212288   6.709   4.285   7.305  0.1555  0.0097  1.1525
36253SOL     OW12289   3.213   3.472   8.688  0.6003 -0.0229  0.0510
36253SOL    HW112290   3.272   3.545   8.671  0.2837  0.4203  0.7854
36253SOL    HW212291   3.126   3.508   8.677  0.4278 -0.1415  0.9046
36254SOL     OW12292   6.294   7.561   4.793 -0.0130  0.2363  0.0486
36254SOL    HW112293   6.359   7.491   4.798 -1.4357 -1.3661 -1.8919
36254SOL    HW212294   6.314   7.607   4.711 -0.6812  0.3870 -0.0414
36255SOL     OW12295   9.993   4.089   0.443 -0.4037 -0.4252 -0.1092
36255SOL    HW112296   9.972   4.123   0.356 -0.9823 -0.1637  0.1313
36255SOL    HW212297  10.010   4.167   0.496  3.8380 -0.5479 -0.8656
36256SOL     OW12298   5.850   5.900   4.882  0.2225 -0.2723 -0.0376
36256SOL    HW112299   5.939   5.869   4.863  0.4261  0.3318 -0.0850
36256SOL    HW212300   5.797   5.864   4.811  0.2063 -1.6405  0.6476
36257SOL     OW12301   4.804   7.238   0.373 -0.0494  0.1227  0.1598
36257SOL    HW112302   4.773   7.309   0.316  1.6286  0.9012  0.1783
36257SOL    HW212303   4.757   7.251   0.455  0.8329  1.7156  0.4366
36258SOL     OW12304  10.742   0.239   4.297  0.0592 -0.6013 -0.1023
36258SOL    HW112305  10.688   0.192   4.361  1.8035 -0.6231  1.4588
36258SOL    HW212306  10.800   0.293   4.351 -0.8932  2.3155 -1.7885
36259SOL     OW12307   4.509   6.651   1.519  0.1100  0.5220 -0.0717
36259SOL    HW112308   4.571   6.578   1.514 -0.7935 -0.2803  0.1683
36259SOL    HW212309   4.508   6.675   1.611  0.0068  0.4960 -0.0670
36260SOL     OW12310   6.355   5.568   0.358 -0.1480 -0.0696  0.3106
36260SOL    HW112311   6.359   5.602   0.447 -1.3611  0.2482  0.2606
36260SOL    HW212312   6.421   5.619   0.310 -0.6177  0.8971  0.6610
36261SOL     OW12313   1.885   8.542   5.282 -0.0333 -0.8186 -0.4775
36261SOL    HW112314   1.815   8.548   5.346  0.8985 -1.3199  0.6258
36261SOL    HW212315   1.956   8.595   5.319  0.0016  0.1694 -1.8471
36262SOL     OW12316   5.634  10.624   5.686 -0.0958 -0.9117  0.2021
36262SOL    HW112317   5.695  10.614   5.613 -0.6777  1.3815 -0.6730
36262SOL    HW212318   5.684  10.669   5.754 -0.3441 -0.5430  0.1413
36263SOL     OW12319  10.009   1.385  10.769  0.6401  0.7365 -0.3034
36263SOL    HW112320  10.005   1.378  10.864 -0.2258  0.4799 -0.3529
36263SOL    HW212321   9.958   1.310  10.737  3.1683 -0.8361 -1.0056
36264SOL     OW12322   5.198   3.026   3.311 -0.2334  0.5369  0.4080
36264SOL    HW112323   5.286   3.017   3.273 -0.1198 -0.9355  0.9581
36264SOL    HW212324   5.209   3.003   3.403 -1.4409 -1.1255  0.1788
36265SOL     OW12325   8.514   0.626   5.865 -0.7768 -0.0649  0.0704
36265SOL    HW112326   8.441   0.577   5.904  0.9136 -1.1605  2.0705
36265SOL    HW212327   8.592   0.593   5.910  0.9383  1.3712 -1.6620
36266SOL     OW12328   9.758   9.298   1.871  0.3577  0.1286 -0.0144
36266SOL    HW112329   9.849   9.308   1.900  0.7485 -0.6872 -0.9247
36266SOL    HW212330   9.712   9.372   1.912  1.0269 -0.5061  1.9914
36267SOL     OW12331   2.779   3.716   5.576  0.4311  0.2538  0.1454
36267SOL    HW112332   2.805   3.673   5.495  0.6634 -0.4048  0.5611
36267SOL    HW212333   2.710   3.777   5.550 -0.3361 -0.8087 -0.3758
36268SOL     OW12334   9.271   4.740   6.391  0.2570  0.5619 -0.1969
36268SOL    HW112335   9.318   4.738   6.473  0.3136  1.9242 -0.1733
36268SOL    HW212336   9.179   4.748   6.416  0.0511 -1.2843 -0.2546
36269SOL     OW12337   7.739   8.567   9.794 -0.4960 -0.3356 -0.9176
36269SOL    HW112338   7.648   8.549   9.771 -0.8553 -0.1742  0.3258
36269SOL    HW212339   7.780   8.481   9.800 -1.0336 -0.5334  0.3100
36270SOL     OW12340   6.054   3.075   6.959  0.5304  0.4786  0.1804
36270SOL    HW112341   5.997   3.041   6.889  1.1655  0.3786 -0.2922
36270SOL    HW212342   6.015   3.159   6.983 -1.6214 -0.9269  2.0075
36271SOL     OW12343   0.186   6.558  10.328 -0.2891  0.5145 -0.3546
36271SOL    HW112344   0.280   6.546  10.342 -0.4476 -0.7955 -0.3096
36271SOL    HW212345   0.175   6.653  10.320  1.0835  0.6598 -0.7403
36272SOL     OW12346   4.381   1.425   3.279 -0.3996 -0.5853 -0.2793
36272SOL    HW112347   4.453   1.426   3.217  0.0694 -0.5318  0.2565
36272SOL    HW212348   4.420   1.396   3.362 -0.3697  2.0681  0.7469
36273SOL     OW12349   4.499  10.782   8.308  0.1613 -0.5225 -0.1029
36273SOL    HW112350   4.536  10.703   8.348 -0.8836 -0.3853  1.2007
36273SOL    HW212351   4.446  10.750   8.235  0.0649 -0.9976  0.1728
36274SOL     OW12352   4.136   1.472   7.065 -0.0008  0.8626  0.1742
36274SOL    HW112353   4.177   1.392   7.031  0.2048  0.7228  0.7460
36274SOL    HW212354   4.053   1.442   7.103  0.0055  0.9425  0.2509
36275SOL     OW12355   8.501   2.117   9.833  0.4336 -0.0496 -0.1110
36275SOL    HW112356   8.424   2.061   9.825 -0.1625  0.8480 -0.9567
36275SOL    HW212357   8.498   2.150   9.923 -0.1429 -0.0727 -0.1184
36276SOL     OW12358   0.582   2.729   0.229  0.2007 -0.5108  0.2570
36276SOL    HW112359   0.675   2.739   0.249  0.8809 -1.1221 -2.2126
36276SOL    HW212360   0.547   2.818   0.228  1.2452 -0.0954 -0.7424
36277SOL     OW12361  10.640   2.223   8.716  0.0829  0.2914  0.3547
36277SOL    HW112362  10.670   2.313   8.701  0.1444  0.0842 -0.8713
36277SOL    HW212363  10.628   2.217   8.811  2.4397  0.8564  0.7536
36278SOL     OW12364   9.766   1.408   3.154  0.0230 -0.5223  0.1251
36278SOL    HW112365   9.715   1.355   3.092 -1.7919  1.4324 -0.1337
36278SOL    HW212366   9.825   1.459   3.099 -2.4546  2.1474 -0.2363
36279SOL     OW12367   9.750   2.048   0.174 -0.5028  0.1881  0.5347
36279SOL    HW112368   9.760   2.138   0.206  0.2598  0.5565 -0.6790
36279SOL    HW212369   9.799   1.995   0.237  0.0490  0.7671  0.6066
36280SOL     OW12370   9.337   9.858   7.177 -0.4738 -0.4881  0.1700
36280SOL    HW112371   9.345   9.762   7.174  0.0578 -0.4672  0.6727
36280SOL    HW212372   9.427   9.889   7.164 -0.5448 -0.0792  0.6401
36281SOL     OW12373   9.352   1.611   7.671  0.1560 -0.1913  0.0140
36281SOL    HW112374   9.266   1.617   7.714  0.0230 -1.3142 -0.0633
36281SOL    HW212375   9.350   1.681   7.606 -0.1246  0.7354  0.9811
36282SOL     OW12376   4.811   6.928   0.988 -0.1235 -0.4237 -0.1226
36282SOL    HW112377   4.903   6.914   1.011 -0.4828 -3.0506  0.0431
36282SOL    HW212378   4.769   6.952   1.071  0.1061 -1.0303  0.1742
36283SOL     OW12379   4.018   3.623   9.723  0.4204 -0.3901  0.4689
36283SOL    HW112380   4.064   3.688   9.669 -2.2193  1.0184 -0.2923
36283SOL    HW212381   3.940   3.601   9.672 -0.6815 -1.2823  2.4331
36284SOL     OW12382   3.541   7.042  10.035  0.4589  0.2185 -0.4096
36284SOL    HW112383   3.597   7.039   9.958 -1.0016 -0.2751 -1.5023
36284SOL    HW212384   3.529   6.951  10.060 -0.6785  0.2275 -0.8459
36285SOL     OW12385   9.538   5.207   6.950  0.0148  0.7284 -0.3971
36285SOL    HW112386   9.574   5.287   6.988 -0.3576  1.1612 -0.9366
36285SOL    HW212387   9.591   5.192   6.872  0.7867 -0.1642  0.2773
36286SOL     OW12388   6.368   1.458   5.000 -0.0910 -0.0072  0.0697
36286SOL    HW112389   6.301   1.422   4.941 -0.1737 -0.2873  0.3310
36286SOL    HW212390   6.344   1.550   5.009  0.6497  0.3424 -1.3241
36287SOL     OW12391   2.608   1.772   9.418  0.3893  0.0701 -0.4288
36287SOL    HW112392   2.570   1.832   9.355  1.2932 -0.4759 -1.5271
36287SOL    HW212393   2.549   1.696   9.418 -0.0363  0.3968 -0.0180
36288SOL     OW12394   8.278   3.144  10.342 -0.1263 -0.2571  0.3233
36288SOL    HW112395   8.334   3.093  10.401  1.7173  2.6565  1.3103
36288SOL    HW212396   8.339   3.189  10.283 -1.1303  3.7813  2.0162
36289SOL     OW12397   6.231   9.819   2.054 -0.3973 -0.3767 -0.0607
36289SOL    HW112398   6.298   9.846   2.117 -0.0180 -1.7766  0.1767
36289SOL    HW212399   6.214   9.727   2.075 -1.2966 -0.4730 -1.1054
36290SOL     OW12400   2.381   4.256   7.978  0.0686  0.8533 -0.0608
36290SOL    HW112401   2.316   4.263   8.047  1.1016 -2.0652  1.4072
36290SOL    HW212402   2.330   4.254   7.897 -1.5858  0.0171  0.9455
36291SOL     OW12403   8.459   4.336   2.951 -0.3326  0.2585 -0.2278
36291SOL    HW112404   8.412   4.254   2.942 -2.6264  1.3520  0.9360
36291SOL    HW212405   8.405   4.400   2.905  1.1149  1.2541 -0.6499
36292SOL     OW12406   1.947   0.789  10.389 -0.9057 -0.5563  0.0222
36292SOL    HW112407   1.881   0.858  10.392 -0.0726  0.2382  0.5048
36292SOL    HW212408   2.030   0.835  10.377 -0.4140 -1.5312 -0.4640
36293SOL     OW12409   0.466   8.602   6.395  0.5043  0.1003  0.0789
36293SOL    HW112410   0.457   8.522   6.344 -1.9351 -0.1319  0.7415
36293SOL    HW212411   0.556   8.600   6.428  0.8781 -1.7271 -0.9228
36294SOL     OW12412   3.692   0.514   5.080 -0.5646  0.2100  0.1517
36294SOL    HW112413   3.786   0.527   5.096 -0.4301 -0.8551  0.2915
36294SOL    HW212414   3.650   0.582   5.133  0.1437  1.2642 -0.5958
36295SOL     OW12415   6.730   5.705   7.905 -0.4553 -0.3126  0.1770
36295SOL    HW112416   6.635   5.693   7.910 -1.2226  3.0078 -2.4151
36295SOL    HW212417   6.752   5.755   7.983 -1.5310  1.6826 -0.7205
36296SOL     OW12418   3.570   9.988   4.207  0.1117 -0.3023  0.4763
36296SOL    HW112419   3.582  10.082   4.203  1.1342 -0.4513 -0.2975
36296SOL    HW212420   3.644   9.952   4.158 -0.3459 -1.4981  0.6286
36297SOL     OW12421   3.348   3.132   0.629 -0.1186 -0.1576  0.2572
36297SOL    HW112422   3.293   3.210   0.618 -1.3404 -1.2553 -2.5498
36297SOL    HW212423   3.299   3.077   0.691 -1.7452 -0.6419 -1.3627
36298SOL     OW12424   8.293   0.963   4.467 -0.0485  0.4415 -0.0340
36298SOL    HW112425   8.249   0.985   4.385 -0.4738  0.2850  0.1518
36298SOL    HW212426   8.222   0.946   4.529  0.2749 -0.4233  0.1015
36299SOL     OW12427   0.222   5.093   9.858  0.7871 -0.2461  0.0216
36299SOL    HW112428   0.274   5.161   9.900  1.3239 -0.3793 -0.4148
36299SOL    HW212429   0.181   5.046   9.930 -0.3845  1.1518  0.2982
36300SOL     OW12430   1.691  10.093   1.067 -0.4753 -0.3290 -0.1175
36300SOL    HW112431   1.626  10.054   1.009 -0.5135 -0.8788  0.2848
36300SOL    HW212432   1.657  10.181   1.086  0.1204  0.3123 -1.8499
36301SOL     OW12433   5.505   8.202   2.442  0.1348  0.0116 -0.3093
36301SOL    HW112434   5.552   8.178   2.362  1.9085  1.9125  0.0929
36301SOL    HW212435   5.508   8.122   2.495  2.8096 -0.0477 -0.3974
36302SOL     OW12436   1.363   7.624   6.112 -0.5301 -0.0698 -0.2522
36302SOL    HW112437   1.456   7.633   6.132 -0.5844  0.7948 -0.3721
36302SOL    HW212438   1.321   7.698   6.156 -0.9210  0.6702 -1.7953
36303SOL     OW12439  10.944   9.169   8.139  0.2339 -0.0827 -0.3590
36303SOL    HW112440  10.944   9.262   8.161 -1.4743 -0.2126  0.3204
36303SOL    HW212441  10.961   9.124   8.221 -0.6431 -0.4083 -0.3455
36304SOL     OW12442   9.212   9.269   4.240  0.0065  0.6860  0.5004
36304SOL    HW112443   9.225   9.301   4.150  0.0456 -1.1460 -0.1955
36304SOL    HW212444   9.149   9.197   4.230  1.5201 -0.8722  1.6363
36305SOL     OW12445   5.552   0.907   6.800  0.1009  0.1452  0.6610
36305SOL    HW112446   5.563   0.899   6.706 -0.3381 -0.2101  0.6333
36305SOL    HW212447   5.460   0.931   6.812  0.5428  1.8359  0.9252
36306SOL     OW12448   5.881   9.118   4.384  0.0205  0.2993  0.6835
36306SOL    HW112449   5.944   9.145   4.450  0.8530  0.3522 -0.1221
36306SOL    HW212450   5.869   9.024   4.400 -0.5502  0.5031  1.5315
36307SOL     OW12451   9.361   2.664   5.188  0.1294 -0.0179 -0.2668
36307SOL    HW112452   9.386   2.685   5.098  0.5863  2.0075  0.2712
36307SOL    HW212453   9.265   2.659   5.185  0.0346  1.4170 -0.6569
36308SOL     OW12454   2.901   6.575   4.946  0.4842 -0.0871  0.2164
36308SOL    HW112455   2.919   6.659   4.904 -1.1608  0.8309  1.2194
36308SOL    HW212456   2.987   6.537   4.961  1.2983  1.5611 -0.0144
36309SOL     OW12457  10.415   1.500   2.301  0.0287 -0.3349  0.0860
36309SOL    HW112458  10.338   1.445   2.316  0.4074 -0.8809  0.0346
36309SOL    HW212459  10.435   1.538   2.386 -2.3281  2.5337 -0.4796
36310SOL     OW12460   7.523   6.963   2.047  0.0854 -0.5654 -0.3350
36310SOL    HW112461   7.467   7.006   1.982 -0.4773  0.5867  0.8709
36310SOL    HW212462   7.494   6.872   2.047 -0.8150 -0.2920 -0.7407
36311SOL     OW12463   1.834   8.139   0.832 -0.3251  0.1672 -0.1528
36311SOL    HW112464   1.843   8.044   0.829 -1.6087  0.0119  0.5638
36311SOL    HW212465   1.822   8.159   0.925 -0.1031  1.0285 -0.3018
36312SOL     OW12466   1.694   2.769   3.571  0.2899  0.5491 -0.0780
36312SOL    HW112467   1.777   2.814   3.586  1.2103 -0.5908 -1.5342
36312SOL    HW212468   1.693   2.698   3.635 -0.8686  2.1418  1.7837
36313SOL     OW12469   3.285   0.266   8.162 -0.0137 -0.7887 -0.5677
36313SOL    HW112470   3.321   0.188   8.205 -0.0365  0.1580  1.2594
36313SOL    HW212471   3.360   0.325   8.154  0.0867 -1.1185 -2.3004
36314SOL     OW12472   9.736   9.338   4.729  0.5767  0.0511  0.4913
36314SOL    HW112473   9.690   9.361   4.648  0.0965  0.0382  0.7592
36314SOL    HW212474   9.807   9.281   4.701  1.5269  1.4801 -0.1517
36315SOL     OW12475   7.810   6.971   1.962 -0.5539  0.6343 -0.4760
36315SOL    HW112476   7.737   7.030   1.981 -2.1434 -1.0852 -0.9002
36315SOL    HW212477   7.861   6.969   2.043 -2.5571 -0.2105  0.8580
36316SOL     OW12478   3.858   6.138   5.243  0.0879 -0.1631 -0.4769
36316SOL    HW112479   3.803   6.217   5.239  0.2814  0.0477  0.7172
36316SOL    HW212480   3.931   6.157   5.184 -0.0727  0.3958 -0.5006
36317SOL     OW12481   5.439   5.854   1.748 -0.1172  0.1943 -0.4369
36317SOL    HW112482   5.383   5.838   1.672  0.1022  0.4306 -0.6527
36317SOL    HW212483   5.413   5.941   1.779 -1.0527 -0.3914  0.5065
36318SOL     OW12484   8.193  10.472   1.236  0.2239 -0.2899  0.8550
36318SOL    HW112485   8.156  10.532   1.172  1.6174  0.6595  0.8901
36318SOL    HW212486   8.158  10.501   1.320 -1.0540 -1.0994  0.6166
36319SOL     OW12487   4.307   5.735  10.971 -0.7631 -0.9426 -0.4498
36319SOL    HW112488   4.222   5.707  11.004 -1.5652  2.0596  0.3639
36319SOL    HW212489   4.366   5.727  11.046 -0.2587 -3.0351 -1.0173
36320SOL     OW12490   9.095   2.551  10.508  0.0762  0.0387  0.1448
36320SOL    HW112491   9.071   2.462  10.480  0.8411 -0.0021 -0.3957
36320SOL    HW212492   9.021   2.579  10.562 -0.5157 -0.6435 -0.2851
36321SOL     OW12493   8.412   5.833   1.346 -0.9688 -0.6605  0.4225
36321SOL    HW112494   8.478   5.902   1.359 -0.4305 -0.9942 -0.4275
36321SOL    HW212495   8.432   5.798   1.259 -1.4761 -1.6384  0.6929
36322SOL     OW12496   1.667   0.856   0.374 -0.0926 -0.3859 -0.3842
36322SOL    HW112497   1.694   0.940   0.338 -1.6372 -0.6805 -2.3969
36322SOL    HW212498   1.743   0.799   0.363 -0.9019 -0.9306 -4.9268
36323SOL     OW12499   1.850   7.858   1.089 -0.2335  0.0965  0.2959
36323SOL    HW112500   1.915   7.828   1.152  0.1299 -0.6251 -0.3995
36323SOL    HW212501   1.808   7.933   1.131 -0.7574 -1.0135  1.8391
36324SOL     OW12502   7.216   1.986   0.154 -0.3794 -0.8481 -0.1226
36324SOL    HW112503   7.309   1.966   0.138 -0.3657 -0.5955 -0.3615
36324SOL    HW212504   7.209   1.989   0.250  0.4842  1.9325 -0.0727
36325SOL     OW12505   3.352   8.706   4.574 -0.0152  0.4975  0.7517
36325SOL    HW112506   3.279   8.760   4.605 -0.8031  0.4635 -0.9328
36325SOL    HW212507   3.424   8.768   4.560 -0.5504  0.9562 -0.0450
36326SOL     OW12508   8.286   0.562   2.989 -0.0428 -0.3662 -0.6989
36326SOL    HW112509   8.353   0.598   3.048  0.2294 -0.1194 -1.1453
36326SOL    HW212510   8.336   0.528   2.914 -0.3861 -0.5966 -0.8260
36327SOL     OW12511   0.626   8.835   6.692  0.1573 -0.4251 -0.4622
36327SOL    HW112512   0.714   8.872   6.699  0.7221 -1.7544 -0.3219
36327SOL    HW212513   0.629   8.756   6.745 -0.7656 -1.1539 -1.4566
36328SOL     OW12514   4.748   8.336  10.093  0.0414  0.1699  0.5217
36328SOL    HW112515   4.796   8.266  10.048 -0.9925 -1.2324  1.5281
36328SOL    HW212516   4.765   8.414  10.040  1.1701 -0.8389 -0.6758
36329SOL     OW12517  10.780   8.390   5.144 -0.3062 -0.3902 -0.1680
36329SOL    HW112518  10.706   8.449   5.127  0.0216 -0.1067 -0.6251
36329SOL    HW212519  10.842   8.444   5.192  0.0171 -0.3412 -0.6341
36330SOL     OW12520   0.633   0.995   0.643 -0.0278  0.3087  0.0155
36330SOL    HW112521   0.696   1.055   0.683 -2.9617  3.0444  0.9036
36330SOL    HW212522   0.593   1.045   0.572 -1.3794 -1.2274 -0.3828
36331SOL     OW12523   3.960   1.198   0.635  0.4685  0.5923 -0.4079
36331SOL    HW112524   3.971   1.139   0.710  0.8268 -0.2136 -1.0747
36331SOL    HW212525   3.866   1.212   0.629  0.4122  0.4313  0.0131
36332SOL     OW12526  11.032   8.843   0.372  0.7879  0.2818  0.1413
36332SOL    HW112527  11.035   8.755   0.409  0.7636 -0.0304 -0.5784
36332SOL    HW212528  11.120   8.878   0.385  1.0174 -0.1369 -0.2362
36333SOL     OW12529   9.120   9.385  10.391  0.1583 -0.5918 -0.3770
36333SOL    HW112530   9.054   9.319  10.370  0.5020 -0.7544 -0.9893
36333SOL    HW212531   9.144   9.368  10.482 -1.2101 -0.0232  0.1194
36334SOL     OW12532   6.349   1.031   2.715 -0.2082  0.2927 -0.3677
36334SOL    HW112533   6.299   1.071   2.786 -0.1605 -0.6643  0.2090
36334SOL    HW212534   6.368   1.104   2.656 -0.6807  1.0053  0.3421
36335SOL     OW12535   4.210   4.886  10.017  0.6023 -0.4290 -0.7620
36335SOL    HW112536   4.285   4.853   9.968  0.1951  0.0173 -1.6961
36335SOL    HW212537   4.247   4.917  10.100  1.4769 -0.0222 -1.2918
36336SOL     OW12538   4.198   1.926   4.148 -0.0852 -1.0455  0.8617
36336SOL    HW112539   4.286   1.926   4.187  0.2000 -0.4850  0.2504
36336SOL    HW212540   4.195   2.006   4.096 -0.9445 -1.0933  0.8233
36337SOL     OW12541   0.484   3.677   9.678  0.5786 -0.5701 -0.7838
36337SOL    HW112542   0.487   3.631   9.762  0.5858 -1.0330 -1.0356
36337SOL    HW212543   0.565   3.727   9.675  0.8108 -0.9356 -0.7259
36338SOL     OW12544   1.760   0.020   7.891 -0.3686  0.4548  0.2030
36338SOL    HW112545   1.839   0.060   7.927 -0.6821  0.2673  1.1236
36338SOL    HW212546   1.698   0.021   7.964 -0.7185 -0.7805 -0.0606
36339SOL     OW12547   8.026   2.107   1.383  0.4310 -0.5267  0.1313
36339SOL    HW112548   7.946   2.144   1.346  2.1016  2.2312 -0.9639
36339SOL    HW212549   7.997   2.026   1.427 -2.8053  0.0487 -0.7273
36340SOL     OW12550  10.848   0.319   5.206  0.4107  0.4052  0.5358
36340SOL    HW112551  10.926   0.280   5.248  0.8799 -0.1362 -0.7941
36340SOL    HW212552  10.856   0.296   5.114 -0.6847  1.4426  0.1531
36341SOL     OW12553   7.362   6.108   1.458 -0.0343 -0.0356 -0.5087
36341SOL    HW112554   7.336   6.105   1.550 -1.0670  1.0107 -0.7482
36341SOL    HW212555   7.400   6.021   1.442 -1.7607 -1.0106  0.3436
36342SOL     OW12556  10.798   3.887   0.802  0.1385 -0.4129 -0.5014
36342SOL    HW112557  10.761   3.844   0.725 -0.9356 -1.6298  0.6390
36342SOL    HW212558  10.821   3.816   0.861 -1.3288  0.4980  1.2949
36343SOL     OW12559   1.397   4.063   0.734 -0.0032 -0.1073 -0.0140
36343SOL    HW112560   1.490   4.056   0.756  0.7494 -0.5242 -2.9577
36343SOL    HW212561   1.372   3.976   0.704 -1.2488  0.1201  0.2936
36344SOL     OW12562   2.440   8.564   0.492  0.2740  0.6058 -0.4402
36344SOL    HW112563   2.490   8.513   0.429  1.1835  0.7755  0.1253
36344SOL    HW212564   2.376   8.503   0.528  2.1843 -0.5542  1.1758
36345SOL     OW12565   9.262  10.720   9.877  0.0651  0.0960 -0.0249
36345SOL    HW112566   9.203  10.731   9.802  0.2228  1.5196  0.0208
36345SOL    HW212567   9.224  10.649   9.928  0.0793 -1.0583 -1.5662
36346SOL     OW12568   5.814   0.257  10.147 -0.5928  0.1389  0.3248
36346SOL    HW112569   5.783   0.246  10.058  3.0095 -0.6756 -0.9958
36346SOL    HW212570   5.816   0.168  10.183  0.0844  0.1850  0.4069
36347SOL     OW12571   6.537   1.957  10.869  0.5365 -0.0344  0.1509
36347SOL    HW112572   6.591   1.878  10.870 -0.7936 -0.9954  1.5334
36347SOL    HW212573   6.565   2.006  10.947  1.1178  0.7011 -0.5110
36348SOL     OW12574   4.790   4.214   0.907 -0.1316 -0.0362  0.1641
36348SOL    HW112575   4.834   4.129   0.909 -1.6602 -0.8819 -0.2843
36348SOL    HW212576   4.720   4.203   0.842 -1.4285  1.0047  1.3264
36349SOL     OW12577   7.685   5.570  10.872 -0.0919  0.3757  0.4365
36349SOL    HW112578   7.777   5.550  10.854 -0.7310 -1.9336 -0.6700
36349SOL    HW212579   7.636   5.504  10.823 -2.3817  1.8190  0.6148
36350SOL     OW12580   4.988   6.197   6.687 -0.0976  0.0550 -0.4480
36350SOL    HW112581   4.907   6.149   6.671  1.9826 -2.8980 -3.4439
36350SOL    HW212582   4.989   6.212   6.782 -3.6128 -0.6649 -0.1902
36351SOL     OW12583   8.949   8.760   2.881 -0.0915  0.2176  0.1280
36351SOL    HW112584   8.953   8.794   2.791 -1.4747 -0.2516 -0.1339
36351SOL    HW212585   8.857   8.769   2.906  0.3009  0.4804  1.5673
36352SOL     OW12586  10.276   1.820   0.464  0.1686 -0.4994 -1.3657
36352SOL    HW112587  10.271   1.916   0.456 -2.0186 -0.4019  0.2924
36352SOL    HW212588  10.186   1.793   0.482  1.1622 -2.5583  0.9967
36353SOL     OW12589   9.917   5.298   5.724 -0.7518  0.2831 -0.2327
36353SOL    HW112590   9.837   5.350   5.720 -1.6717 -0.9522  0.9152
36353SOL    HW212591   9.948   5.294   5.634 -1.3150  1.7592 -0.5186
36354SOL     OW12592  10.940   7.862   4.387  0.0173 -0.7569 -0.6600
36354SOL    HW112593  10.967   7.943   4.431  0.6966 -1.8158  0.9713
36354SOL    HW212594  10.973   7.872   4.298  1.2992  0.1903 -0.1176
36355SOL     OW12595   1.738   1.416   3.986  0.3297 -0.8969 -0.0527
36355SOL    HW112596   1.682   1.338   3.997  0.1516 -0.6008  1.3306
36355SOL    HW212597   1.689   1.487   4.027 -0.5623  0.5289 -3.2511
36356SOL     OW12598   7.689   0.134   2.523  0.0814  0.4033 -0.0642
36356SOL    HW112599   7.609   0.081   2.530 -0.8201  1.7583  0.2525
36356SOL    HW212600   7.664   0.208   2.469  1.7486 -0.2168 -1.7928
36357SOL     OW12601   9.161   2.816   9.292  0.3249 -0.6785 -0.2556
36357SOL    HW112602   9.132   2.726   9.309  0.9398 -0.9510 -0.6195
36357SOL    HW212603   9.178   2.818   9.198  1.1050 -0.4151 -0.1117
36358SOL     OW12604  11.061   9.477   8.921 -0.1752 -0.8393  0.0095
36358SOL    HW112605  11.065   9.462   9.015 -0.9980  2.2469  0.6510
36358SOL    HW212606  10.968   9.478   8.900 -0.2124  1.8769 -0.0766
36359SOL     OW12607   7.774   8.093   8.195  0.0838  0.5846  0.0742
36359SOL    HW112608   7.783   8.050   8.110  2.0147  1.5795 -0.2982
36359SOL    HW212609   7.833   8.044   8.253 -0.2116  0.7194  0.4953
36360SOL     OW12610   8.221  10.022  10.383 -0.1436  0.0311  0.2175
36360SOL    HW112611   8.262  10.000  10.299  1.4709 -0.6200  1.1362
36360SOL    HW212612   8.167   9.945  10.404 -1.5645  0.7007 -0.7691
36361SOL     OW12613   0.216   5.148   0.998 -0.8187 -0.1662  0.5867
36361SOL    HW112614   0.294   5.095   0.982  0.8476  2.2562  0.1684
36361SOL    HW212615   0.214   5.211   0.925 -1.8405  1.2865  1.8028
36362SOL     OW12616   9.747   2.190   7.894 -0.0249  0.8271  0.3356
36362SOL    HW112617   9.769   2.178   7.801 -0.4353 -0.6456  0.4147
36362SOL    HW212618   9.662   2.149   7.904  0.0419  0.9277  1.3829
36363SOL     OW12619   9.990   2.941   2.096  0.7273 -0.1173 -0.0857
36363SOL    HW112620  10.050   3.011   2.069 -0.1404  0.6009 -0.2243
36363SOL    HW212621  10.034   2.860   2.071  1.6004  0.3945 -0.2500
36364SOL     OW12622   7.031   3.230   8.348  0.0575  0.1310 -0.3512
36364SOL    HW112623   7.021   3.325   8.358  0.3991  0.0884  0.4647
36364SOL    HW212624   7.036   3.197   8.437  2.7842 -0.3372 -0.5855
36365SOL     OW12625   5.200  11.115   1.632  0.3196  0.0908  0.3863
36365SOL    HW112626   5.254  11.103   1.555 -0.5045 -0.3115 -0.1462
36365SOL    HW212627   5.134  11.045   1.627  0.3465 -0.0494  1.5342
36366SOL     OW12628   5.902   1.501   1.504 -0.2961  0.3392 -0.2923
36366SOL    HW112629   5.908   1.582   1.453  1.3167 -0.6973 -1.8660
36366SOL    HW212630   5.986   1.457   1.489 -0.4281 -0.8056  1.9762
36367SOL     OW12631   1.397   8.026   5.547  0.3599  0.2430 -0.4340
36367SOL    HW112632   1.404   7.957   5.613  1.5961  2.8139  2.3749
36367SOL    HW212633   1.306   8.054   5.551  0.3869  0.2663  0.0769
36368SOL     OW12634   3.142   5.314   9.826  0.1500  0.4842 -0.0570
36368SOL    HW112635   3.161   5.312   9.920  1.7846 -0.5866 -0.3707
36368SOL    HW212636   3.050   5.286   9.820  0.2681 -0.2577  1.1698
36369SOL     OW12637   9.482   0.522   9.903 -0.0303 -0.2788 -0.1150
36369SOL    HW112638   9.404   0.469   9.883  0.6721 -1.4605  0.1381
36369SOL    HW212639   9.555   0.464   9.882  0.8038  1.0204 -0.9021
36370SOL     OW12640   4.420  10.990  11.088  0.0745 -0.4959 -0.0066
36370SOL    HW112641   4.439  11.059  11.151  0.6513 -0.6641  0.0124
36370SOL    HW212642   4.398  11.037  11.007 -0.0177 -0.2868  0.1391
36371SOL     OW12643   7.299   5.917   7.916  0.3419  0.6127  0.6779
36371SOL    HW112644   7.265   5.936   7.829  0.8624  1.9240  0.7244
36371SOL    HW212645   7.233   5.952   7.976 -0.4400 -1.0777  0.8496
36372SOL     OW12646   2.858   1.068   3.110 -0.3524 -0.3290  0.1701
36372SOL    HW112647   2.828   1.103   3.195 -0.7399 -0.1883 -0.0218
36372SOL    HW212648   2.786   1.086   3.050 -1.5208 -3.3712  0.5009
36373SOL     OW12649   0.948   3.240   7.077 -0.5089 -0.2141  0.0138
36373SOL    HW112650   0.999   3.159   7.079  1.2510  0.8541  1.3173
36373SOL    HW212651   0.909   3.245   7.165 -1.4917 -0.1689 -0.4180
36374SOL     OW12652   5.081   8.163   7.665 -0.7091  0.2202 -0.2423
36374SOL    HW112653   5.062   8.195   7.754 -1.9578  1.4063 -0.8871
36374SOL    HW212654   5.100   8.243   7.616  0.6819 -0.4934 -0.8951
36375SOL     OW12655   7.025   3.270   4.402 -0.2535 -0.1948 -0.1366
36375SOL    HW112656   6.942   3.263   4.355  0.0335  1.3369 -0.9738
36375SOL    HW212657   7.014   3.346   4.459 -0.5753 -1.9959  2.3417
36376SOL     OW12658   0.061   6.230  10.080 -0.0617  0.2843 -0.0444
36376SOL    HW112659   0.016   6.185  10.008  1.0259  2.4334 -2.2099
36376SOL    HW212660  -0.000   6.298  10.108  0.0477  0.3003  0.1557
36377SOL     OW12661   1.921   1.637   2.388  0.0654 -0.0498  0.6996
36377SOL    HW112662   1.925   1.541   2.381  0.5345  0.0046  0.0817
36377SOL    HW212663   1.969   1.658   2.468 -1.4318 -0.4241  1.7368
36378SOL     OW12664  10.067   2.268  11.063  0.3477  0.7228  1.2465
36378SOL    HW112665  10.132   2.204  11.034 -2.7078 -1.4046 -1.6506
36378SOL    HW212666  10.087   2.347  11.012 -0.3440 -0.5234 -1.0857
36379SOL     OW12667   1.439   1.955   2.745 -0.4571  0.2126 -0.2764
36379SOL    HW112668   1.384   2.020   2.701 -1.1460  0.1828  0.5196
36379SOL    HW212669   1.389   1.874   2.739 -0.1639  0.0267 -0.1848
36380SOL     OW12670   6.985   3.124   8.662  0.1888  0.7172 -0.2241
36380SOL    HW112671   7.074   3.090   8.675  0.0863  0.3851 -0.3778
36380SOL    HW212672   6.959   3.155   8.749  0.3627  0.5949 -0.1269
36381SOL     OW12673   7.106   3.896   7.992 -0.3944  0.3357  0.2689
36381SOL    HW112674   7.126   3.945   8.072  0.1531  0.7536 -0.1073
36381SOL    HW212675   7.016   3.866   8.003 -0.2373  0.1638  1.1512
36382SOL     OW12676   8.767   5.874   6.337 -0.0400 -0.2203 -0.0115
36382SOL    HW112677   8.760   5.779   6.346 -0.6072 -0.0959  1.0522
36382SOL    HW212678   8.677   5.904   6.329  0.1323  0.2383 -0.2544
36383SOL     OW12679   6.949   0.431   1.149  0.0561  0.4101  0.1404
36383SOL    HW112680   6.964   0.499   1.214  0.2485  0.8427 -0.3507
36383SOL    HW212681   7.032   0.423   1.102  0.4010 -0.9461  0.9029
36384SOL     OW12682   2.692   5.564   1.109  0.1658 -0.3347  0.3663
36384SOL    HW112683   2.652   5.612   1.036  1.2538 -1.1181 -0.7866
36384SOL    HW212684   2.712   5.478   1.072  1.4510 -0.4785  1.3642
36385SOL     OW12685   8.749   1.174   3.571 -0.1365  0.0257  0.1910
36385SOL    HW112686   8.666   1.139   3.601 -0.0275 -0.4151 -0.0089
36385SOL    HW212687   8.741   1.269   3.580  0.0123 -0.1022  1.9016
36386SOL     OW12688   1.997   9.074   9.264 -0.6116 -0.1377  0.3659
36386SOL    HW112689   1.955   9.151   9.227  1.0091  0.9990  0.8052
36386SOL    HW212690   1.931   9.005   9.258 -1.7477  1.0199 -0.9476
36387SOL     OW12691   1.695   9.683   4.263 -0.0100  0.6775 -0.5226
36387SOL    HW112692   1.737   9.693   4.348  0.8326  1.3230 -0.9976
36387SOL    HW212693   1.674   9.772   4.235  0.5401  0.5612 -1.3737
36388SOL     OW12694   1.888   3.479   6.087 -0.1100 -0.8364 -0.5367
36388SOL    HW112695   1.913   3.479   5.995 -1.0748 -1.5144 -0.8068
36388SOL    HW212696   1.813   3.420   6.092 -2.1143  1.5602  0.1088
36389SOL     OW12697   1.797   2.312   9.611  0.2838 -0.2487 -0.0404
36389SOL    HW112698   1.836   2.267   9.686  1.6861  1.1027  0.1031
36389SOL    HW212699   1.855   2.387   9.595 -0.8343  0.3639 -1.5184
36390SOL     OW12700   6.665   4.145   8.567  0.5046  0.6087 -0.1366
36390SOL    HW112701   6.747   4.113   8.531  0.3867  2.1475 -1.9435
36390SOL    HW212702   6.675   4.240   8.568 -1.0345  0.7925  0.1535
36391SOL     OW12703   2.040   7.147   6.334  0.6846  0.5129 -0.1703
36391SOL    HW112704   2.118   7.125   6.282  1.3057  0.1307  0.8763
36391SOL    HW212705   2.059   7.110   6.420 -0.4483  0.8712  0.2402
36392SOL     OW12706   3.941   4.982   4.684 -0.4883 -0.2632 -0.1014
36392SOL    HW112707   3.852   4.997   4.651 -0.0305  0.1388 -1.1999
36392SOL    HW212708   3.929   4.961   4.777 -1.7373 -0.3620 -0.2707
36393SOL     OW12709  10.742   1.535   4.899 -0.0735  0.0365 -0.3429
36393SOL    HW112710  10.817   1.576   4.855 -0.3363  0.7764 -0.1072
36393SOL    HW212711  10.750   1.442   4.877  1.4739 -0.0643  0.4919
36394SOL     OW12712   1.541   9.863   1.981 -0.4667 -0.0022  0.4163
36394SOL    HW112713   1.601   9.843   2.053  0.0265 -1.2938 -0.3226
36394SOL    HW212714   1.531   9.780   1.935 -0.8481  0.7792 -0.9551
36395SOL     OW12715   7.069   9.600   2.398 -0.3076 -0.3679 -0.0422
36395SOL    HW112716   7.007   9.652   2.449 -0.5757 -0.5012 -0.2295
36395SOL    HW212717   7.139   9.579   2.460 -0.4458 -0.2126  0.1696
36396SOL     OW12718  10.346   0.727   4.860 -0.6182  0.2186 -0.4712
36396SOL    HW112719  10.421   0.669   4.845 -0.2133  0.8368 -0.8436
36396SOL    HW212720  10.322   0.711   4.952  0.1446  0.2288 -0.2671
36397SOL     OW12721   6.755  10.576   3.673  0.3785 -0.3311  0.4089
36397SOL    HW112722   6.707  10.496   3.691  1.5750 -1.2281 -0.2420
36397SOL    HW212723   6.758  10.582   3.578 -0.2425  0.8480  0.4430
36398SOL     OW12724   6.840   1.662   9.556 -0.0288 -0.0013 -0.0590
36398SOL    HW112725   6.886   1.715   9.621  1.1108 -0.0752 -0.7665
36398SOL    HW212726   6.809   1.585   9.604  2.1984 -0.8531  0.1466
36399SOL     OW12727   1.517   5.745   3.291 -0.1860  0.0092  0.3504
36399SOL    HW112728   1.518   5.650   3.296  2.5931 -0.0167  0.8154
36399SOL    HW212729   1.519   5.764   3.197  2.1486 -0.5233  0.2205
36400SOL     OW12730  10.660   2.992   3.408  0.7675  0.2437 -0.1977
36400SOL    HW112731  10.609   3.073   3.404  0.5223  0.0353 -1.9276
36400SOL    HW212732  10.751   3.022   3.408  0.6767  0.5311  0.0436
36401SOL     OW12733   5.627   2.731   3.462  0.3182 -0.0935  0.0684
36401SOL    HW112734   5.565   2.760   3.394  0.4198  0.3127  0.1449
36401SOL    HW212735   5.710   2.720   3.416  0.3801  0.1533  0.1210
36402SOL     OW12736   4.844  10.966   1.167 -0.1052 -0.1925  0.3237
36402SOL    HW112737   4.832  10.992   1.258  0.8080 -1.0921  0.7157
36402SOL    HW212738   4.815  11.042   1.116 -1.7310 -0.0865  1.3204
36403SOL     OW12739   2.058   3.477   2.465  0.7369 -0.4185 -0.3771
36403SOL    HW112740   2.047   3.558   2.416 -3.1246  1.1896  2.5618
36403SOL    HW212741   1.989   3.420   2.432 -2.4032  0.9419  3.1057
36404SOL     OW12742   5.785   8.270  10.130 -0.3911  0.1082 -0.3326
36404SOL    HW112743   5.836   8.225  10.198  0.1816  0.4789 -0.5043
36404SOL    HW212744   5.694   8.257  10.156 -0.1755  1.1038  1.0748
36405SOL     OW12745   1.156   6.992   4.275  0.0721 -0.3872  0.3833
36405SOL    HW112746   1.122   7.015   4.361  0.2128 -0.1560  0.3771
36405SOL    HW212747   1.146   7.071   4.223  1.9644  0.1672  0.7837
36406SOL     OW12748   6.261   1.614   9.876  0.0490  0.0580 -0.4110
36406SOL    HW112749   6.238   1.697   9.834 -0.6439  1.8513  3.1311
36406SOL    HW212750   6.349   1.628   9.911 -0.3131 -0.4740  0.7379
36407SOL     OW12751   6.201   8.032   4.801  0.1467 -0.0398 -0.1594
36407SOL    HW112752   6.127   8.063   4.853 -0.6933 -1.6426 -0.3514
36407SOL    HW212753   6.245   8.112   4.773 -2.4008  1.0870 -1.3217
36408SOL     OW12754   3.312   7.253   4.268  0.3368  0.4713  0.5639
36408SOL    HW112755   3.389   7.288   4.224 -0.4162 -0.0813 -1.2519
36408SOL    HW212756   3.337   7.164   4.294  1.3088  1.2864  2.7680
36409SOL     OW12757   0.434   6.241   3.009  0.7959  0.1726 -0.1109
36409SOL    HW112758   0.417   6.147   3.014 -1.6125  0.4626 -1.2471
36409SOL    HW212759   0.438   6.270   3.100  3.7580 -1.2745  0.3477
36410SOL     OW12760   7.039   2.362   4.445 -0.1910 -0.6834  0.1533
36410SOL    HW112761   6.968   2.342   4.506 -1.3447  0.4884 -0.7386
36410SOL    HW212762   7.054   2.280   4.398 -1.0029 -0.9333  0.3105
36411SOL     OW12763   0.550   8.831   5.015  0.0494  0.2631 -0.5277
36411SOL    HW112764   0.515   8.802   5.099  0.7743  0.9836  0.0460
36411SOL    HW212765   0.503   8.912   4.996 -1.1977 -0.6617 -1.5899
36412SOL     OW12766   5.932   8.458   3.711 -0.3146  0.3654 -0.4702
36412SOL    HW112767   5.910   8.539   3.757 -0.7261  0.5442 -0.9725
36412SOL    HW212768   5.885   8.463   3.628  0.3284 -0.0039 -0.8733
36413SOL     OW12769   0.019   8.266   4.305 -0.4877  0.0408  0.0770
36413SOL    HW112770   0.076   8.199   4.343 -0.1002  0.2819 -0.0736
36413SOL    HW212771   0.045   8.270   4.213 -1.2646 -0.3793 -0.1679
36414SOL     OW12772   6.921   0.166   7.776  0.6642  0.9237 -0.5148
36414SOL    HW112773   6.871   0.227   7.830  1.0842  0.0209  0.9510
36414SOL    HW212774   6.889   0.079   7.802 -0.3065  0.4767 -2.9392
36415SOL     OW12775   0.905   8.163   9.151  0.2736 -0.3016 -0.1078
36415SOL    HW112776   0.936   8.187   9.063 -0.0392 -1.8740 -0.6756
36415SOL    HW212777   0.980   8.180   9.208  0.9621 -0.5990 -0.9026
36416SOL     OW12778   4.900   4.771   4.110  0.5560  0.0877 -0.3539
36416SOL    HW112779   4.945   4.798   4.030  0.2922  0.9799 -0.2048
36416SOL    HW212780   4.953   4.698   4.143  1.4118  0.5697 -0.6309
36417SOL     OW12781   7.114  10.192   4.252  0.2423  0.2247 -0.8002
36417SOL    HW112782   7.158  10.241   4.322  1.3341 -2.3422  0.4509
36417SOL    HW212783   7.021  10.207   4.267  0.5066  0.8226  0.3730
36418SOL     OW12784   6.492   9.766   0.120 -0.4361  0.0202 -0.1676
36418SOL    HW112785   6.536   9.705   0.179 -0.9232 -0.6733 -0.5080
36418SOL    HW212786   6.538   9.849   0.133  1.0175 -0.6889 -0.5439
36419SOL     OW12787   2.289   1.719   1.373  0.0908 -0.1888  0.1792
36419SOL    HW112788   2.357   1.786   1.382  1.1492 -1.3260  0.9917
36419SOL    HW212789   2.336   1.641   1.342 -1.1559 -0.4999 -1.0172
36420SOL     OW12790   7.667   8.899   0.500 -0.4449 -0.2624 -0.4089
36420SOL    HW112791   7.583   8.915   0.543  0.9877 -1.0137  3.0177
36420SOL    HW212792   7.708   8.985   0.494 -1.5170  0.1694 -2.4686
36421SOL     OW12793   9.962   8.080   7.922 -0.6659 -0.3325  0.1543
36421SOL    HW112794  10.040   8.043   7.882  0.6858  0.9967  1.4058
36421SOL    HW212795   9.910   8.113   7.848  1.2314  1.1085 -0.6181
36422SOL     OW12796   1.261   5.986   6.119 -0.2751 -0.4556  0.3348
36422SOL    HW112797   1.166   5.988   6.110 -0.1728  0.7238 -0.9369
36422SOL    HW212798   1.277   6.010   6.210 -1.2008  0.3621  0.3052
36423SOL     OW12799   3.768   9.301   1.115  0.1841 -0.0407  0.6194
36423SOL    HW112800   3.863   9.291   1.113  0.3044  1.0777 -0.3181
36423SOL    HW212801   3.735   9.239   1.050  0.2286 -0.6978  1.2095
36424SOL     OW12802   4.163   6.928   2.195  0.0130  0.0210 -0.2871
36424SOL    HW112803   4.102   6.988   2.238 -1.1089 -1.6913  0.6569
36424SOL    HW212804   4.207   6.981   2.129 -0.2780  2.0636  1.0762
36425SOL     OW12805   1.206   2.353   9.940  0.0327 -0.3760 -0.2398
36425SOL    HW112806   1.269   2.398   9.884 -0.5910  0.9057  0.0441
36425SOL    HW212807   1.122   2.394   9.918 -0.5967 -1.5445 -0.0961
36426SOL     OW12808  10.673   1.973   8.628  0.1234 -0.1816  0.4353
36426SOL    HW112809  10.590   1.940   8.592 -0.5516  0.7489  1.0913
36426SOL    HW212810  10.658   2.067   8.640  1.1741 -0.0554  0.8413
36427SOL     OW12811   3.769   2.647   8.285 -0.7057 -0.5695  0.6366
36427SOL    HW112812   3.827   2.709   8.243 -0.1017 -1.0272  0.7833
36427SOL    HW212813   3.741   2.690   8.366 -0.8672 -0.2028  0.3864
36428SOL     OW12814  10.195   9.728   3.867  0.1861  0.2068  0.1637
36428SOL    HW112815  10.223   9.800   3.923  1.4762  0.6873 -1.0368
36428SOL    HW212816  10.159   9.663   3.927  0.1950  1.3014  1.3912
36429SOL     OW12817   2.190   8.907   8.503  0.5131 -0.3159  0.2776
36429SOL    HW112818   2.229   8.886   8.418 -0.0405 -0.3864  0.0382
36429SOL    HW212819   2.170   8.822   8.542 -0.4295 -0.2688 -0.0852
36430SOL     OW12820   4.891   7.410   3.368 -0.4299  0.6418  0.0734
36430SOL    HW112821   4.861   7.335   3.316 -0.2504  0.0986  0.7435
36430SOL    HW212822   4.897   7.377   3.457 -2.3443  1.9834  0.7881
36431SOL     OW12823   4.632   7.522  10.674  0.0225  0.7816  0.9068
36431SOL    HW112824   4.554   7.541  10.621  0.2694 -1.3890 -0.3355
36431SOL    HW212825   4.608   7.444  10.724  1.8747 -0.8547 -0.6443
36432SOL     OW12826   6.509  10.938   9.843  0.0020 -0.0880 -0.2616
36432SOL    HW112827   6.499  10.848   9.871 -0.5117  0.0021 -0.1523
36432SOL    HW212828   6.600  10.944   9.814 -0.3193 -0.9894 -1.5480
36433SOL     OW12829   0.167   9.967   1.183 -0.0513  0.1625  0.8820
36433SOL    HW112830   0.193   9.956   1.275  1.8517  0.4278  0.4157
36433SOL    HW212831   0.181  10.060   1.165  1.1211 -0.1723 -0.0780
36434SOL     OW12832   4.365   1.719  10.923 -0.4199 -0.4306  0.0727
36434SOL    HW112833   4.371   1.759  11.010  0.4676 -0.0130 -0.1704
36434SOL    HW212834   4.335   1.790  10.866  0.2540 -0.3496 -0.1900
36435SOL     OW12835   3.373   1.297  10.932  0.0649  0.1451 -0.3140
36435SOL    HW112836   3.368   1.314  11.026  2.2884 -1.9330  0.2801
36435SOL    HW212837   3.325   1.215  10.920  1.2088 -0.4910 -0.6634
36436SOL     OW12838   3.068   9.050   2.746 -0.3908  0.3222 -0.5793
36436SOL    HW112839   2.994   9.015   2.696 -0.8241  2.2741 -1.4221
36436SOL    HW212840   3.141   9.050   2.684 -0.8043  2.2951 -1.1378
36437SOL     OW12841   8.163   1.277   6.777 -0.1645  0.3975  0.1884
36437SOL    HW112842   8.128   1.362   6.751  0.1408  0.7097  0.7743
36437SOL    HW212843   8.239   1.264   6.720  0.1466  0.8024  0.5029
36438SOL     OW12844  10.851   0.652   6.395 -0.0477  0.7174 -0.1493
36438SOL    HW112845  10.783   0.711   6.428 -0.3594  0.8795 -1.0556
36438SOL    HW212846  10.806   0.595   6.333  0.9373  2.0540 -2.2195
36439SOL     OW12847   3.553   3.573   9.692  0.6897 -0.4431  1.2314
36439SOL    HW112848   3.624   3.530   9.644 -1.1631 -0.1474 -2.1542
36439SOL    HW212849   3.591   3.655   9.722  1.9863 -0.5791  0.0832
36440SOL     OW12850   2.769   3.303   4.415  0.4261  0.2055  0.1664
36440SOL    HW112851   2.849   3.251   4.423  1.4860  1.7020 -0.4018
36440SOL    HW212852   2.740   3.288   4.324 -0.3334 -0.8287  0.5503
36441SOL     OW12853  11.110   9.589   5.022  0.5290 -0.1280  0.0427
36441SOL    HW112854  11.167   9.640   4.965  0.2773  0.7905  0.5754
36441SOL    HW212855  11.040   9.651   5.047 -1.6238 -1.6212 -1.8618
36442SOL     OW12856  10.694   8.599   1.814  0.1301 -0.1387 -0.2382
36442SOL    HW112857  10.789   8.591   1.800 -0.0250 -2.0110 -0.5117
36442SOL    HW212858  10.667   8.667   1.753  1.2448  0.1700 -0.4214
36443SOL     OW12859   6.963   5.462   6.641  0.2216 -0.5518  0.0153
36443SOL    HW112860   6.932   5.402   6.575 -2.1564  2.0302 -1.4391
36443SOL    HW212861   6.884   5.492   6.686  1.3203  1.0634  1.0059
36444SOL     OW12862   8.247   7.455   9.969  0.4410 -0.2377 -0.2442
36444SOL    HW112863   8.166   7.415   9.934 -0.7124  1.8663 -0.1204
36444SOL    HW212864   8.314   7.389   9.953 -0.9074 -1.2373 -2.2491
36445SOL     OW12865   1.425  11.069   6.334 -0.8618 -0.1253  0.1698
36445SOL    HW112866   1.332  11.047   6.323 -1.5300  2.6286 -0.6866
36445SOL    HW212867   1.461  10.997   6.385 -2.7205 -2.8705 -2.0670
36446SOL     OW12868   2.651   6.259  11.066 -0.1192 -0.0763 -0.1750
36446SOL    HW112869   2.693   6.316  11.002 -0.8684  0.2060 -0.4331
36446SOL    HW212870   2.710   6.260  11.141  0.2681  0.4076 -0.4795
36447SOL     OW12871   5.514   1.400   9.470 -0.0970 -0.4063  0.4300
36447SOL    HW112872   5.568   1.329   9.434  0.5281  0.7642 -1.0474
36447SOL    HW212873   5.545   1.411   9.560  1.4729 -0.4052 -0.0890
36448SOL     OW12874   5.257   4.964   3.169  0.6289  0.0864  0.2508
36448SOL    HW112875   5.196   4.937   3.100  0.8051  1.1081 -0.3167
36448SOL    HW212876   5.328   4.900   3.164  1.4328  1.0406 -1.6082
36449SOL     OW12877   1.663   2.176   0.098  0.0493  0.1288  0.2110
36449SOL    HW112878   1.628   2.090   0.075 -1.7410  1.0609 -0.8724
36449SOL    HW212879   1.604   2.208   0.167  1.0843  0.2449  1.0635
36450SOL     OW12880   6.463   4.700   2.650  0.6934  0.0611 -0.2763
36450SOL    HW112881   6.425   4.635   2.710  2.2579 -1.8636 -1.2255
36450SOL    HW212882   6.429   4.784   2.681 -0.7668 -1.1006  1.5537
36451SOL     OW12883   2.347   1.406   8.922 -0.5643 -0.3389 -0.3246
36451SOL    HW112884   2.431   1.445   8.947 -0.7389 -1.0584  1.5151
36451SOL    HW212885   2.282   1.474   8.943 -0.4945  0.1842 -1.6681
36452SOL     OW12886   0.195   2.979   5.804  0.1479 -0.1940 -0.8001
36452SOL    HW112887   0.281   3.009   5.831  0.1409 -1.2756  0.5658
36452SOL    HW212888   0.145   3.059   5.788  0.5220  0.5580  1.3714
36453SOL     OW12889   0.436   9.623   7.308  0.1193  0.6784 -0.1598
36453SOL    HW112890   0.525   9.588   7.296 -0.2111  0.1153 -1.0662
36453SOL    HW212891   0.445   9.687   7.379  1.0329 -0.1809  0.5299
36454SOL     OW12892   0.575   9.625   7.932  0.9937 -0.5208 -0.8838
36454SOL    HW112893   0.490   9.663   7.909  0.6375 -1.6970 -1.5664
36454SOL    HW212894   0.638   9.676   7.881  0.5390 -0.7178 -1.6574
36455SOL     OW12895   8.768   9.185   4.896  0.4126 -0.2980  0.5018
36455SOL    HW112896   8.820   9.201   4.817 -1.1952  0.9213 -0.3688
36455SOL    HW212897   8.725   9.101   4.879 -0.0933  0.0625 -0.0260
36456SOL     OW12898   2.999   3.773   5.214 -0.3190 -0.1388 -0.0459
36456SOL    HW112899   2.955   3.812   5.139  0.5549  0.7554 -0.1175
36456SOL    HW212900   3.081   3.823   5.223  1.7566 -3.0588 -1.2458
36457SOL     OW12901   3.885   1.113   8.339  0.0707 -0.1516 -0.0556
36457SOL    HW112902   3.859   1.085   8.251 -0.6251  2.0115 -0.6176
36457SOL    HW212903   3.802   1.121   8.387  0.3866 -0.5779  0.5785
36458SOL     OW12904   4.988   2.394   5.260 -0.1469  0.0181  0.3983
36458SOL    HW112905   4.994   2.299   5.258  1.2501  0.0185  2.0990
36458SOL    HW212906   5.018   2.423   5.174  2.5423 -0.9988  0.9223
36459SOL     OW12907  10.402  10.935   4.048  0.2754  0.2353 -0.0678
36459SOL    HW112908  10.428  10.882   3.973 -0.8410  1.6311 -1.5215
36459SOL    HW212909  10.317  10.899   4.075 -0.2915  0.9684 -0.8027
36460SOL     OW12910   2.616  10.811   1.870 -0.0895  0.0312  0.8078
36460SOL    HW112911   2.578  10.779   1.788 -0.3530  2.3400 -0.0267
36460SOL    HW212912   2.617  10.733   1.927 -1.4719 -1.2484 -0.7899
36461SOL     OW12913   5.592   4.687   3.441 -0.0884  0.2162  0.2762
36461SOL    HW112914   5.510   4.687   3.392 -0.0952  2.1650  0.2182
36461SOL    HW212915   5.626   4.598   3.431 -2.2281 -0.6634  0.4082
36462SOL     OW12916   8.573   2.995  10.173  0.3066  0.7765  0.2961
36462SOL    HW112917   8.569   3.083  10.211 -0.0268  1.0157 -0.2766
36462SOL    HW212918   8.619   2.943  10.238  1.2023  1.5530  0.3100
36463SOL     OW12919   7.519   7.928   3.240  0.0056  0.8162  0.0449
36463SOL    HW112920   7.466   7.981   3.299  0.2778  1.3820 -0.2103
36463SOL    HW212921   7.561   7.992   3.182  1.3851  0.4221  0.5823
36464SOL     OW12922   6.514   8.845   9.466  0.4787  0.0588 -0.3968
36464SOL    HW112923   6.568   8.916   9.501 -0.4484  0.0089  1.1946
36464SOL    HW212924   6.575   8.774   9.449  1.0755  0.3894  0.3301
36465SOL     OW12925   6.281   2.310   5.336 -0.4218  0.1215 -0.5692
36465SOL    HW112926   6.286   2.216   5.320 -1.7568  0.1276 -1.1384
36465SOL    HW212927   6.367   2.343   5.309  0.4766 -1.0536  0.7133
36466SOL     OW12928   9.166   1.542   2.898 -0.3857 -0.6059  0.6759
36466SOL    HW112929   9.103   1.479   2.862 -0.2083 -1.5018  1.8868
36466SOL    HW212930   9.141   1.552   2.990 -1.2692  2.1820  0.2440
36467SOL     OW12931   6.424   5.889   0.901  0.0106  0.2210 -0.2453
36467SOL    HW112932   6.506   5.843   0.921  0.3431  1.0953  0.5201
36467SOL    HW212933   6.355   5.831   0.932  0.1741 -1.5804 -2.9866
36468SOL     OW12934   1.079   9.779   8.073 -0.3475  0.2443  0.0613
36468SOL    HW112935   1.011   9.815   8.016  1.1916  0.5871 -1.6452
36468SOL    HW212936   1.084   9.842   8.145 -0.8194  1.0161 -0.5550
36469SOL     OW12937   4.973   2.852   6.880 -0.1525  0.1123 -0.4745
36469SOL    HW112938   4.978   2.907   6.959 -3.1223  0.1267 -0.2054
36469SOL    HW212939   5.007   2.908   6.810  0.1314  1.0160  0.3538
36470SOL     OW12940   4.439   9.358   1.306 -0.4711 -0.5747  0.2952
36470SOL    HW112941   4.496   9.408   1.365 -1.5788  0.8418  0.2194
36470SOL    HW212942   4.350   9.381   1.333 -1.1024  1.8781 -3.2536
36471SOL     OW12943   7.792   6.426   8.241 -0.2687  0.4391  0.4046
36471SOL    HW112944   7.763   6.509   8.280 -1.7529  1.3177 -2.2852
36471SOL    HW212945   7.737   6.360   8.283  0.5123  0.8695  2.1570
36472SOL     OW12946  10.730   8.649   4.796 -0.2925  0.0175 -0.2612
36472SOL    HW112947  10.661   8.612   4.740  0.6900 -1.3985 -0.5884
36472SOL    HW212948  10.760   8.726   4.748 -1.0260  0.1374 -0.5465
36473SOL     OW12949   3.545   4.858   2.553 -0.1460  0.2818  0.4575
36473SOL    HW112950   3.584   4.854   2.640  0.5352  1.7363  0.2565
36473SOL    HW212951   3.620   4.872   2.494 -0.4901 -1.6065 -0.4826
36474SOL     OW12952   6.192   4.536   0.961 -0.3842 -0.0231  0.0592
36474SOL    HW112953   6.105   4.537   0.922 -0.8520 -1.2632  1.0254
36474SOL    HW212954   6.189   4.466   1.027  0.9703  0.6999  0.9470
36475SOL     OW12955   0.561   6.850   5.035 -0.5655  0.5817 -0.5838
36475SOL    HW112956   0.585   6.812   4.950 -0.4994  0.2865 -0.4372
36475SOL    HW212957   0.633   6.826   5.092 -0.3663  1.2230 -0.5670
36476SOL     OW12958   0.156  11.119   3.707  0.2921 -0.5551  0.5621
36476SOL    HW112959   0.061  11.126   3.699  0.4461  0.4835 -0.7424
36476SOL    HW212960   0.174  11.026   3.690 -0.4715 -0.7047  0.5322
36477SOL     OW12961   8.537   3.321   8.933 -0.0897  0.3513 -0.3464
36477SOL    HW112962   8.605   3.314   9.001  0.0761 -1.0209 -0.6338
36477SOL    HW212963   8.587   3.331   8.852 -0.2884  2.1034 -0.2901
36478SOL     OW12964   9.154   2.925   4.754  0.0883 -0.6846 -0.0319
36478SOL    HW112965   9.166   2.830   4.752  1.0480 -0.5794  0.2035
36478SOL    HW212966   9.243   2.961   4.753 -0.2506  0.2918 -2.7831
36479SOL     OW12967   6.394   3.333   8.398  0.3656 -0.2345 -0.4288
36479SOL    HW112968   6.465   3.306   8.339  1.0429  0.4177  0.0808
36479SOL    HW212969   6.433   3.399   8.455 -0.8069  0.5995 -0.5408
36480SOL     OW12970   5.778   2.132   2.373  0.1361  0.4960  0.1479
36480SOL    HW112971   5.688   2.107   2.394  1.2750 -1.9988  2.8115
36480SOL    HW212972   5.814   2.163   2.456  2.0343  0.3963 -0.5983
36481SOL     OW12973   4.906   3.620  10.844 -0.3585  0.3312 -0.0709
36481SOL    HW112974   4.998   3.592  10.846 -0.2501  0.7049  0.9541
36481SOL    HW212975   4.857   3.543  10.871 -0.4874 -0.2679 -1.8581
36482SOL     OW12976  10.079   7.793   4.350  0.0793 -0.4947  0.0309
36482SOL    HW112977  10.039   7.849   4.284  0.9933 -0.3686 -0.4273
36482SOL    HW212978  10.027   7.808   4.429 -0.6145 -0.1520 -0.4760
36483SOL     OW12979   9.983  10.139   7.519  0.2194 -0.8312  0.2909
36483SOL    HW112980  10.052  10.149   7.584 -1.4204 -0.0716  2.0376
36483SOL    HW212981   9.924  10.073   7.557 -1.3094  0.3656  0.1003
36484SOL     OW12982   0.825   3.231   0.478 -0.1017  0.3325 -0.8472
36484SOL    HW112983   0.904   3.194   0.440  0.4745  0.5808  0.0886
36484SOL    HW212984   0.840   3.229   0.572 -1.0085  0.8373 -0.6781
36485SOL     OW12985   1.686   3.281   9.662 -0.8522  0.1887  0.2353
36485SOL    HW112986   1.769   3.247   9.631 -0.0386  0.9920  1.4479
36485SOL    HW212987   1.620   3.236   9.609  0.3545 -0.1685 -1.0163
36486SOL     OW12988   0.909   2.866   6.816  0.3334  0.6930 -0.2750
36486SOL    HW112989   0.984   2.841   6.761  0.4374  2.0940 -0.7931
36486SOL    HW212990   0.902   2.794   6.879  1.0535 -0.2941 -1.2677
36487SOL     OW12991   9.787   7.400   6.421  0.1959 -0.2242 -0.3222
36487SOL    HW112992   9.767   7.308   6.435  0.4761 -0.1020  0.9961
36487SOL    HW212993   9.859   7.418   6.481  0.2278  0.8315 -0.6588
36488SOL     OW12994   0.543   7.056   7.171 -0.5260 -0.1943 -0.3603
36488SOL    HW112995   0.528   6.999   7.095  1.8230  0.3789 -1.3586
36488SOL    HW212996   0.466   7.112   7.175 -1.1478 -0.9049 -1.7083
36489SOL     OW12997   4.593   3.566   5.828 -0.0398  0.0047 -0.1474
36489SOL    HW112998   4.541   3.538   5.753  1.9404 -1.9535 -0.9256
36489SOL    HW212999   4.578   3.499   5.895  1.0768 -0.3609 -0.2317
36490SOL     OW13000   4.865  10.350   6.139 -0.1631 -0.4085  0.4474
36490SOL    HW113001   4.864  10.426   6.081 -0.3832 -0.7292  0.0249
36490SOL    HW213002   4.786  10.301   6.116 -0.9773  0.1261  1.9185
36491SOL     OW13003   0.531   3.986   6.488 -0.0555 -0.2031 -0.5766
36491SOL    HW113004   0.525   4.082   6.487  2.5696  0.0631  0.5847
36491SOL    HW213005   0.466   3.957   6.425 -1.5161  2.3025 -0.3401
36492SOL     OW13006   0.269  10.712   0.343 -0.3403  0.2749 -0.5013
36492SOL    HW113007   0.221  10.675   0.269 -0.7242  0.0058 -0.1198
36492SOL    HW213008   0.358  10.680   0.332 -0.5409 -0.2935 -0.4903
36493SOL     OW13009  10.478   5.781   0.949 -0.1878  0.3715 -0.4559
36493SOL    HW113010  10.528   5.720   0.894 -0.0578 -0.4041  0.5131
36493SOL    HW213011  10.523   5.865   0.938  0.1220  0.1216 -1.1593
36494SOL     OW13012   4.647   0.268   6.634 -0.3043  0.3355 -0.1224
36494SOL    HW113013   4.676   0.177   6.626 -0.0913  0.5062 -1.3715
36494SOL    HW213014   4.726   0.320   6.619 -0.8248  0.7555 -1.5537
36495SOL     OW13015   1.056   6.681   1.441  0.3635  0.2701  0.1562
36495SOL    HW113016   1.047   6.774   1.421  0.7736  0.7439  1.9318
36495SOL    HW213017   1.062   6.638   1.356 -1.5759  1.6573 -0.7558
36496SOL     OW13018   6.724   4.302   0.584  0.0084 -0.8619  0.5410
36496SOL    HW113019   6.744   4.394   0.565 -1.5412 -0.0514  2.4726
36496SOL    HW213020   6.662   4.276   0.515 -2.4563  0.7726  1.9761
36497SOL     OW13021   7.393   7.354   6.691  0.0898 -0.5783 -0.1468
36497SOL    HW113022   7.377   7.448   6.691 -1.7999 -0.8500  0.4755
36497SOL    HW213023   7.485   7.345   6.716  0.2849  1.0922 -0.1649
36498SOL     OW13024   9.526  10.815   4.408 -0.2087  0.1454  0.5287
36498SOL    HW113025   9.465  10.843   4.475 -1.2338  0.5055 -0.5200
36498SOL    HW213026   9.607  10.795   4.455 -1.0707 -0.1527  1.9196
36499SOL     OW13027   3.837   2.333   7.451  0.3013  0.4481  0.3477
36499SOL    HW113028   3.798   2.311   7.535 -1.3253  0.4533 -0.3726
36499SOL    HW213029   3.893   2.258   7.430 -0.6079 -0.3289  0.6365
36500SOL     OW13030   7.083   7.135   5.366 -0.5770 -0.0606  0.2649
36500SOL    HW113031   7.124   7.092   5.291 -1.3805  0.5135 -0.5274
36500SOL    HW213032   6.996   7.097   5.370 -0.1680 -0.8907  1.6090
36501SOL     OW13033   4.887   8.936   7.018 -0.0908 -0.4307  0.2305
36501SOL    HW113034   4.871   8.852   6.974 -3.1593 -0.5521  1.2916
36501SOL    HW213035   4.970   8.966   6.982 -0.1575 -2.6613 -2.1735
36502SOL     OW13036   9.739  10.194   6.766  0.5164  0.1712 -0.1319
36502SOL    HW113037   9.696  10.113   6.793  0.4037  0.5365  0.8319
36502SOL    HW213038   9.677  10.235   6.706 -0.8852  1.0545  1.8052
36503SOL     OW13039   6.941   4.778   5.278  0.0213 -0.0994  0.0890
36503SOL    HW113040   7.006   4.708   5.274 -1.0449 -1.2246  1.5046
36503SOL    HW213041   6.936   4.802   5.370 -1.2506  0.2630 -0.0545
36504SOL     OW13042   4.985   6.055   1.267 -0.6770 -0.1249  0.2998
36504SOL    HW113043   4.906   6.107   1.255 -0.6144  0.0637  0.6920
36504SOL    HW213044   5.056   6.119   1.270 -0.2651 -0.3834 -1.8955
36505SOL     OW13045  10.131   0.922   9.262 -0.2468  0.1759  0.3745
36505SOL    HW113046  10.044   0.914   9.223 -0.6897 -0.2311  1.4145
36505SOL    HW213047  10.178   0.843   9.234  0.5380  1.3722 -1.9266
36506SOL     OW13048   2.422  10.235   9.394 -0.0520  0.2868 -1.0503
36506SOL    HW113049   2.340  10.185   9.401  0.3099 -0.1961 -0.1692
36506SOL    HW213050   2.398  10.323   9.423  0.0591 -0.2224  0.6916
36507SOL     OW13051   0.762   5.485   9.679 -0.0597 -0.8083 -0.0062
36507SOL    HW113052   0.795   5.446   9.760 -0.7987 -2.0398 -0.2782
36507SOL    HW213053   0.692   5.427   9.651 -0.3154  0.0137 -1.1437
36508SOL     OW13054   7.160   7.623   5.592  0.3126 -0.1585 -0.6301
36508SOL    HW113055   7.173   7.546   5.537 -0.8635 -1.4036  0.7337
36508SOL    HW213056   7.089   7.671   5.550  0.5375 -0.2075 -1.0741
36509SOL     OW13057  10.619   2.465   8.367 -0.5117  0.0411  0.0188
36509SOL    HW113058  10.579   2.383   8.396  0.4201 -0.7484 -0.8573
36509SOL    HW213059  10.640   2.511   8.449  0.7919 -1.4998  0.6080
36510SOL     OW13060   0.734   2.481   0.136 -0.4619 -0.5626  0.3916
36510SOL    HW113061   0.675   2.543   0.093 -1.2572 -0.6251  1.3533
36510SOL    HW213062   0.710   2.396   0.098 -1.3096 -0.6474  1.0825
36511SOL     OW13063   7.282   8.509   2.012 -0.8151 -0.0840 -0.5486
36511SOL    HW113064   7.349   8.482   2.075 -1.2347  0.5615  0.1974
36511SOL    HW213065   7.232   8.429   1.994 -0.8210 -0.2322  0.1071
36512SOL     OW13066   2.773  10.442   3.441 -0.4051  0.2205 -0.1007
36512SOL    HW113067   2.710  10.510   3.420  0.7453  1.4662  0.3705
36512SOL    HW213068   2.796  10.457   3.533  0.0627 -0.6501 -0.0563
36513SOL     OW13069   8.691   1.570   2.606  0.3235 -0.0325  0.5237
36513SOL    HW113070   8.707   1.486   2.649 -1.0243 -0.1391  0.8461
36513SOL    HW213071   8.610   1.602   2.644 -0.2987  0.4259 -1.0946
36514SOL     OW13072   4.159   2.840   7.323  0.1360 -0.1246  0.4249
36514SOL    HW113073   4.126   2.911   7.378 -1.0466 -1.1914  1.1566
36514SOL    HW213074   4.145   2.761   7.375  1.8376 -0.8757 -0.1854
36515SOL     OW13075   9.586   2.643   2.421  0.4936 -0.5400  0.0387
36515SOL    HW113076   9.593   2.737   2.409  0.1395 -0.6066 -0.7647
36515SOL    HW213077   9.521   2.615   2.356  0.4986 -1.3157  0.3542
36516SOL     OW13078   6.536   7.570   6.383  0.0267  0.5424 -0.6012
36516SOL    HW113079   6.546   7.475   6.378 -1.0826  0.3757 -0.0056
36516SOL    HW213080   6.612   7.600   6.433  0.0424 -0.1053 -0.2271
36517SOL     OW13081   9.482   2.068   9.707 -0.0036  0.0431 -0.1357
36517SOL    HW113082   9.482   1.974   9.724  1.1956 -0.0181 -0.4186
36517SOL    HW213083   9.389   2.091   9.700 -0.3273 -1.6181 -2.8516
36518SOL     OW13084   8.311   7.878   6.831  0.0629 -0.5974 -0.0970
36518SOL    HW113085   8.376   7.808   6.835  0.6399 -0.0436  0.3372
36518SOL    HW213086   8.338   7.932   6.758  0.2438 -0.2192  0.2476
36519SOL     OW13087   7.463   7.733   0.726  0.2174  0.6371  0.3874
36519SOL    HW113088   7.421   7.717   0.811 -0.5813 -0.5126 -0.1897
36519SOL    HW213089   7.400   7.785   0.677 -0.7579 -1.3615 -0.5975
36520SOL     OW13090   8.510   4.667   1.189  0.5623 -0.7073  0.1615
36520SOL    HW113091   8.540   4.740   1.135  0.8229  0.1581  1.4113
36520SOL    HW213092   8.562   4.592   1.160  0.5582 -0.3148 -0.8890
36521SOL     OW13093   6.841  10.736   2.429 -0.2697 -0.4585 -0.2323
36521SOL    HW113094   6.768  10.694   2.474 -0.5031 -0.6748 -0.8042
36521SOL    HW213095   6.844  10.825   2.465 -0.5323 -0.5879  0.1121
36522SOL     OW13096   4.380   7.960   6.717  0.0791  0.0859 -0.6969
36522SOL    HW113097   4.358   8.037   6.665  0.4496 -0.3476 -1.5170
36522SOL    HW213098   4.476   7.961   6.723 -0.0187  1.4937  2.1297
36523SOL     OW13099   1.283   3.828   0.839 -0.0122 -0.0753 -0.6241
36523SOL    HW113100   1.196   3.796   0.817 -0.0322  0.5587 -1.4955
36523SOL    HW213101   1.342   3.784   0.778  0.1930  0.0388 -0.5118
36524SOL     OW13102   3.160   2.698   8.484 -0.2487 -0.4236  0.0175
36524SOL    HW113103   3.118   2.769   8.435  0.1199  0.2533  0.6664
36524SOL    HW213104   3.208   2.742   8.553  0.7346 -1.2565 -0.1207
36525SOL     OW13105   7.920  10.970   9.046  0.2813 -0.0784 -0.0945
36525SOL    HW113106   7.934  11.039   9.112 -0.9567  1.4576 -1.3533
36525SOL    HW213107   8.008  10.946   9.017  0.7638  0.4793  0.8634
36526SOL     OW13108   1.867   1.689   5.948  0.5713 -0.2744 -0.1714
36526SOL    HW113109   1.930   1.721   6.012 -0.5582 -1.3586  1.5567
36526SOL    HW213110   1.786   1.735   5.968 -0.4428 -2.3381  0.8456
36527SOL     OW13111  10.885   8.353   5.868 -0.0730  0.0474 -0.0099
36527SOL    HW113112  10.936   8.419   5.914 -1.3127  0.4735  0.8043
36527SOL    HW213113  10.817   8.328   5.930 -0.5047 -0.9241 -0.8504
36528SOL     OW13114  11.010  10.209   4.835 -0.2797  0.1305  0.0519
36528SOL    HW113115  11.100  10.224   4.863  0.1366 -1.2409 -0.4842
36528SOL    HW213116  11.018  10.168   4.749 -1.2896 -2.6730  1.1901
36529SOL     OW13117   2.825   3.191  10.366  0.5977 -0.4620 -0.3217
36529SOL    HW113118   2.890   3.253  10.333  1.3375 -1.0543 -0.0156
36529SOL    HW213119   2.741   3.230  10.343  1.0286  0.9360  0.3424
36530SOL     OW13120  10.721   8.973   9.586  0.0180  0.5681  0.1894
36530SOL    HW113121  10.806   8.928   9.587 -0.4131 -0.3032 -0.6382
36530SOL    HW213122  10.731   9.045   9.648  1.3404  0.4356  0.1520
36531SOL     OW13123   5.266   8.440   4.750 -0.4753 -0.1914 -0.3689
36531SOL    HW113124   5.266   8.443   4.846 -1.0216  0.4575 -0.3780
36531SOL    HW213125   5.260   8.347   4.728  0.2141 -0.3853  0.2163
36532SOL     OW13126   7.543   1.593   4.442 -0.1302  0.2018  0.7095
36532SOL    HW113127   7.454   1.560   4.442 -0.1365  0.1756 -0.3621
36532SOL    HW213128   7.585   1.550   4.367 -0.5813  3.7315 -1.8208
36533SOL     OW13129   0.844   8.423   1.073  0.1186 -1.1344 -0.2769
36533SOL    HW113130   0.752   8.399   1.068 -0.2452 -0.0372  0.5416
36533SOL    HW213131   0.883   8.360   1.133 -0.4272 -0.7787  0.4711
36534SOL     OW13132   8.012   6.441   0.883 -0.4219 -0.0566 -0.3973
36534SOL    HW113133   7.977   6.408   0.966 -0.4078 -1.3253 -0.8739
36534SOL    HW213134   7.946   6.503   0.853 -0.6837  0.0184  0.3101
36535SOL     OW13135   2.545   3.826   5.947  0.3875  0.1634  0.0623
36535SOL    HW113136   2.555   3.773   6.026  1.4214 -1.3633 -1.0331
36535SOL    HW213137   2.464   3.794   5.907  0.4621  0.1329 -0.0651
36536SOL     OW13138   8.333   0.478   8.259 -0.0154 -0.7317  0.2888
36536SOL    HW113139   8.428   0.472   8.269 -0.1918 -0.1407  2.8468
36536SOL    HW213140   8.299   0.397   8.296 -0.5625 -0.3350  0.6731
36537SOL     OW13141   7.545   7.402   5.885 -0.3873 -0.2728 -0.6071
36537SOL    HW113142   7.452   7.386   5.903 -0.7343 -0.2150 -2.1950
36537SOL    HW213143   7.551   7.403   5.790  1.3162 -0.6235 -0.5363
36538SOL     OW13144   9.217   9.150   8.306  0.0917 -0.5246 -0.2332
36538SOL    HW113145   9.148   9.093   8.273 -1.0389  0.6797 -0.0638
36538SOL    HW213146   9.207   9.147   8.401 -0.7557  0.8063 -0.2466
36539SOL     OW13147   5.808  10.691   2.515 -0.0693 -0.1336 -0.2366
36539SOL    HW113148   5.761  10.643   2.583 -0.2919  0.1344 -0.2036
36539SOL    HW213149   5.879  10.736   2.561 -0.4775  0.3918 -0.1195
36540SOL     OW13150   9.213   6.977   3.193 -0.4474  0.1712  0.4710
36540SOL    HW113151   9.186   7.068   3.183  0.2332  0.3297  0.0425
36540SOL    HW213152   9.201   6.959   3.286  0.5831  1.0856  0.7975
36541SOL     OW13153   7.664   8.364   2.504 -0.0221  0.4603 -0.4429
36541SOL    HW113154   7.661   8.301   2.432  1.2392  1.9208 -1.8373
36541SOL    HW213155   7.674   8.449   2.461 -0.7243  1.5346  1.4227
36542SOL     OW13156   3.984   3.831   1.610 -0.0509 -0.5335  0.3406
36542SOL    HW113157   4.018   3.814   1.522 -0.0627 -1.0596  0.4301
36542SOL    HW213158   4.034   3.906   1.642 -0.4997  0.0632 -0.3594
36543SOL     OW13159   3.364   0.863   6.163 -0.0769  0.1129 -0.0509
36543SOL    HW113160   3.374   0.945   6.212 -2.1954  0.5927 -0.3101
36543SOL    HW213161   3.354   0.892   6.072  1.2669 -0.6015 -0.4455
36544SOL     OW13162   5.736   9.203   3.976  0.4377 -0.4750 -0.2459
36544SOL    HW113163   5.817   9.157   3.955  0.2702 -0.2430 -1.4693
36544SOL    HW213164   5.744   9.225   4.068  1.8333 -0.3294 -0.3852
36545SOL     OW13165  10.838   9.187   6.912 -1.0707 -0.3147 -0.6153
36545SOL    HW113166  10.790   9.246   6.971  2.6857  0.5358  1.9317
36545SOL    HW213167  10.922   9.231   6.897  0.4359 -3.2986 -1.7643
36546SOL     OW13168  10.677   3.974   3.029  0.2561 -0.0220 -0.4677
36546SOL    HW113169  10.690   4.062   2.993 -1.8431  0.7196  0.4295
36546SOL    HW213170  10.727   3.974   3.111 -1.3718  1.1198  0.5851
36547SOL     OW13171   2.791   3.486  10.159  0.6259  0.6841 -0.0377
36547SOL    HW113172   2.852   3.491  10.232  1.1960 -1.5951 -0.2918
36547SOL    HW213173   2.845   3.497  10.081  0.4145  0.5397 -0.2077
36548SOL     OW13174   4.573   8.667   3.828  0.1972  0.0998 -0.2412
36548SOL    HW113175   4.567   8.650   3.734 -0.7373  1.9200 -0.5580
36548SOL    HW213176   4.545   8.585   3.869  2.1653 -1.2708 -1.4813
36549SOL     OW13177   1.383   7.493   3.122  0.8773 -0.0671 -0.0954
36549SOL    HW113178   1.327   7.545   3.064  1.1961 -0.7064 -1.0042
36549SOL    HW213179   1.441   7.557   3.163 -0.0126  0.5129  0.2834
36550SOL     OW13180   2.271  10.581   1.862 -0.1315 -0.3112 -0.1530
36550SOL    HW113181   2.182  10.556   1.838 -0.4690  0.7718 -0.1075
36550SOL    HW213182   2.260  10.655   1.922  0.7932 -0.3677  0.1020
36551SOL     OW13183   0.329   9.157   2.406  0.4421 -0.1477  0.3645
36551SOL    HW113184   0.366   9.203   2.331  0.2891 -0.2930  0.1972
36551SOL    HW213185   0.290   9.226   2.460 -0.7395 -0.1670 -0.4230
36552SOL     OW13186   2.274  10.694   9.635 -0.1196 -0.4943  0.1829
36552SOL    HW113187   2.206  10.664   9.695 -1.8306  0.5138 -1.1663
36552SOL    HW213188   2.240  10.675   9.548  0.8398  0.9859 -0.5718
36553SOL     OW13189   2.744   3.555   7.751  0.1795  0.0511 -0.0049
36553SOL    HW113190   2.820   3.500   7.733  1.4076  1.6181  0.2265
36553SOL    HW213191   2.704   3.569   7.665  2.0576  1.8610 -0.6615
36554SOL     OW13192   5.155   9.537   0.663  0.0854 -0.2787  0.3441
36554SOL    HW113193   5.215   9.505   0.596 -0.9558  0.2517 -0.8916
36554SOL    HW213194   5.122   9.458   0.706 -0.6790 -0.7842 -1.0912
36555SOL     OW13195   5.833   8.379  10.607  0.6223 -0.0476 -0.2036
36555SOL    HW113196   5.749   8.392  10.651  0.0585 -1.6737 -0.7335
36555SOL    HW213197   5.883   8.458  10.627 -0.1254 -0.0991  2.1581
36556SOL     OW13198   1.440   0.162   3.149 -0.4751 -0.0315  0.2414
36556SOL    HW113199   1.405   0.083   3.191  0.7045  0.3165  2.0048
36556SOL    HW213200   1.458   0.134   3.059 -2.8813 -0.8750 -0.0542
36557SOL     OW13201   3.594   8.075   0.315  0.3220  0.2045 -0.4094
36557SOL    HW113202   3.616   8.005   0.376  0.3609  1.4297  1.0236
36557SOL    HW213203   3.673   8.086   0.262  0.6231 -0.2155 -0.0567
36558SOL     OW13204   1.504  10.159   6.058  0.0454  1.0564  0.0711
36558SOL    HW113205   1.493  10.253   6.070  0.4644  1.0884  0.2230
36558SOL    HW213206   1.549  10.150   5.974 -1.1089  0.9252 -0.5508
36559SOL     OW13207   1.952   3.393   4.508  0.5811  0.1114  0.1297
36559SOL    HW113208   1.859   3.391   4.531  0.3682 -0.1308 -0.7142
36559SOL    HW213209   1.990   3.320   4.556 -0.1739 -1.4570 -1.5431
36560SOL     OW13210  11.115   1.781   8.600 -0.7311 -0.4790  0.1027
36560SOL    HW113211  11.186   1.736   8.646 -1.1873 -1.1426  0.1738
36560SOL    HW213212  11.139   1.774   8.507  0.1198  0.7433  0.2085
36561SOL     OW13213   9.872   4.746   3.902 -0.8745  0.1318  0.1239
36561SOL    HW113214   9.813   4.697   3.846 -0.5110  0.5373 -0.6244
36561SOL    HW213215   9.895   4.685   3.973  1.7164 -1.8237 -2.1736
36562SOL     OW13216   1.432   5.080   8.472  0.8819 -0.3170  0.0956
36562SOL    HW113217   1.505   5.019   8.460  1.4020 -0.7155  3.8646
36562SOL    HW213218   1.453   5.154   8.416  2.6555 -1.6355 -1.1064
36563SOL     OW13219   5.099  10.413   4.165 -0.6940 -0.1369 -0.4748
36563SOL    HW113220   5.134  10.412   4.076 -0.3587 -3.1798 -0.4256
36563SOL    HW213221   5.012  10.375   4.158 -0.2905 -1.3501  0.5635
36564SOL     OW13222   1.496  10.889   7.090 -0.1360 -0.1924 -0.2458
36564SOL    HW113223   1.532  10.876   7.178 -0.5839 -1.4283 -0.2229
36564SOL    HW213224   1.402  10.878   7.101 -0.0534 -2.4406 -1.1897
36565SOL     OW13225   0.197   7.082  10.990  0.1551  1.0332  0.3909
36565SOL    HW113226   0.151   7.009  11.031  0.6716 -0.4873 -1.6003
36565SOL    HW213227   0.287   7.052  10.981  0.6550  2.3875  0.5245
36566SOL     OW13228   0.889   2.117   9.812 -0.0275  0.0488 -0.1335
36566SOL    HW113229   0.870   2.186   9.875 -0.3239 -0.2970  0.1646
36566SOL    HW213230   0.883   2.159   9.726  0.3379  0.5134  0.0700
36567SOL     OW13231   5.797   3.862   2.585 -0.0282  0.1742  0.3389
36567SOL    HW113232   5.804   3.939   2.529 -1.0854 -0.0216 -0.0880
36567SOL    HW213233   5.830   3.891   2.670 -0.1608  1.0136  0.1138
36568SOL     OW13234   4.277   3.970   4.146 -0.2596 -0.1809 -0.0375
36568SOL    HW113235   4.351   3.978   4.085 -0.2941  0.4648 -0.0044
36568SOL    HW213236   4.286   3.882   4.183 -2.1298 -1.9569 -3.4060
36569SOL     OW13237   1.718   4.914   2.186 -0.0410  0.8124 -0.4159
36569SOL    HW113238   1.648   4.849   2.174 -0.0303  0.7493 -0.1463
36569SOL    HW213239   1.796   4.872   2.149  0.7291 -0.7149  2.6132
36570SOL     OW13240   7.792   0.087   0.181  0.2083  0.0461 -0.1235
36570SOL    HW113241   7.722   0.121   0.236 -0.9868 -1.7427 -0.4715
36570SOL    HW213242   7.776   0.125   0.094  0.7968  1.1079  0.2148
36571SOL     OW13243   9.449   0.603   0.071 -0.3210  0.5237 -0.3827
36571SOL    HW113244   9.494   0.676   0.027 -0.9408  0.0158 -1.9258
36571SOL    HW213245   9.362   0.602   0.031 -0.0324 -1.6180 -1.0479
36572SOL     OW13246   2.036   9.713   4.791 -0.5675  0.4377 -0.6529
36572SOL    HW113247   2.068   9.680   4.707  0.1633 -0.6307  0.0204
36572SOL    HW213248   1.943   9.692   4.791 -0.4752  0.0272 -1.0047
36573SOL     OW13249   4.357   1.476   9.263 -0.1182  0.0750 -0.5211
36573SOL    HW113250   4.375   1.461   9.355  0.2519 -0.7467 -0.7189
36573SOL    HW213251   4.340   1.570   9.257  2.7603  0.7253 -0.0736
36574SOL     OW13252   9.191  10.871   3.963  0.7466  0.3679 -0.2525
36574SOL    HW113253   9.130  10.801   3.985 -1.3297  2.0361 -0.3680
36574SOL    HW213254   9.163  10.902   3.877  0.3800  2.5115  0.5612
36575SOL     OW13255   3.370  10.739   1.989 -0.5953 -0.0457  0.0947
36575SOL    HW113256   3.324  10.821   1.968  1.7145  1.3093 -0.0101
36575SOL    HW213257   3.400  10.751   2.080 -1.4880 -1.4419  0.6080
36576SOL     OW13258   8.859   8.523  10.450  0.1435 -0.2608 -0.5036
36576SOL    HW113259   8.764   8.525  10.441  0.2496 -0.8769 -2.0084
36576SOL    HW213260   8.873   8.503  10.543 -1.1463  1.7558  0.1881
36577SOL     OW13261   5.365   8.374   0.580 -0.3564 -0.9042  0.4328
36577SOL    HW113262   5.384   8.311   0.511  0.0818 -0.1533 -0.1470
36577SOL    HW213263   5.449   8.415   0.600 -0.7716  0.1175  0.1679
36578SOL     OW13264  10.687   2.092   9.808 -0.7051 -0.7505 -0.5212
36578SOL    HW113265  10.620   2.045   9.859 -0.3309 -0.7683 -0.0397
36578SOL    HW213266  10.651   2.096   9.719 -1.7408  0.0045 -0.0887
36579SOL     OW13267   4.645   4.373   6.579 -0.6405 -0.2145  0.2349
36579SOL    HW113268   4.672   4.301   6.637 -1.3604 -1.2050 -0.6206
36579SOL    HW213269   4.607   4.329   6.503 -0.5493  1.0762 -0.5811
36580SOL     OW13270  10.180   6.597   8.257  0.4640  0.6742  0.5462
36580SOL    HW113271  10.150   6.682   8.289 -0.1052  0.7878 -0.2562
36580SOL    HW213272  10.147   6.534   8.322 -2.0260  0.7356 -0.5444
36581SOL     OW13273   0.935   0.529  10.114 -0.3278  0.0736 -0.0717
36581SOL    HW113274   0.966   0.562  10.199 -0.0011  0.0730 -0.1903
36581SOL    HW213275   0.853   0.483  10.135 -1.3073  1.7461 -0.0219
36582SOL     OW13276  10.220   3.439   9.905 -0.0321 -0.1198 -0.4411
36582SOL    HW113277  10.304   3.464   9.944  0.7391 -1.6427 -1.0363
36582SOL    HW213278  10.211   3.346   9.926 -0.7644 -0.3834 -1.8180
36583SOL     OW13279  10.898   6.456   1.621  0.2347  0.1260  0.2856
36583SOL    HW113280  10.883   6.401   1.544 -0.5182 -1.0123  1.2222
36583SOL    HW213281  10.876   6.545   1.591 -1.1017 -0.4491 -0.5315
36584SOL     OW13282   3.039   9.052   3.874 -0.1150  0.0595 -0.1414
36584SOL    HW113283   3.128   9.077   3.901  0.1812 -1.1702  0.0734
36584SOL    HW213284   3.028   9.094   3.789  0.6006  0.3931 -0.0818
36585SOL     OW13285   7.250   1.394  10.556 -0.3811 -0.3669  0.3659
36585SOL    HW113286   7.274   1.407  10.464 -0.3303  1.7668  0.6297
36585SOL    HW213287   7.333   1.376  10.600 -0.3890 -1.2566  0.0467
36586SOL     OW13288   0.045   5.104   3.119  0.4879 -0.4609 -0.2774
36586SOL    HW113289  -0.012   5.084   3.044 -0.0413  0.2459 -0.0773
36586SOL    HW213290   0.021   5.039   3.185 -1.2518  0.7775  0.3859
36587SOL     OW13291   3.973   4.296   2.777 -0.0407 -0.3951 -0.3851
36587SOL    HW113292   3.943   4.245   2.703  1.3817  0.0591 -1.3185
36587SOL    HW213293   4.067   4.307   2.763 -0.0223  1.1282  0.5951
36588SOL     OW13294  10.856   5.809   8.344 -0.0410 -0.1709  0.3644
36588SOL    HW113295  10.812   5.783   8.263 -0.5758 -0.6953  0.8158
36588SOL    HW213296  10.887   5.727   8.382  0.8655  0.1450  0.3221
36589SOL     OW13297   3.239   9.869   2.457 -0.2655  1.2733  0.0554
36589SOL    HW113298   3.243   9.960   2.485 -0.0543  0.7181  1.9622
36589SOL    HW213299   3.307   9.862   2.390 -0.6470  2.6172 -0.5098
36590SOL     OW13300  10.035   9.684   4.379  0.1539  0.3686  0.1422
36590SOL    HW113301  10.024   9.776   4.403  2.0154  0.5031  0.6023
36590SOL    HW213302   9.954   9.642   4.407  0.0501  1.5334  1.7024
36591SOL     OW13303   2.116   4.165   5.581  0.1743 -0.1541 -0.4516
36591SOL    HW113304   2.151   4.078   5.561 -0.7427 -0.6769  0.1519
36591SOL    HW213305   2.021   4.152   5.589 -0.0025  0.9423 -0.5629
36592SOL     OW13306   3.003   2.475   8.435  0.1857  0.2600  0.3028
36592SOL    HW113307   3.046   2.426   8.365  1.2501 -1.5489  2.0851
36592SOL    HW213308   3.065   2.544   8.457  0.5887 -0.1536  0.4964
36593SOL     OW13309   1.515   0.988   9.631  0.5315 -0.2078 -0.5646
36593SOL    HW113310   1.439   0.931   9.641  1.0672 -1.0272 -0.9361
36593SOL    HW213311   1.480   1.077   9.634 -0.2589 -0.5342  0.6509
36594SOL     OW13312   7.343  10.254   2.120 -0.0148  0.3537 -0.3724
36594SOL    HW113313   7.367  10.260   2.212 -2.4134  0.6534  0.2970
36594SOL    HW213314   7.379  10.170   2.090 -0.4559 -0.4411  1.2440
36595SOL     OW13315   9.829  11.053  10.656  0.1430  0.0275  0.5854
36595SOL    HW113316   9.849  11.011  10.573  0.2264 -1.2854  1.2502
36595SOL    HW213317   9.912  11.058  10.702  0.4599  2.4151 -0.0894
36596SOL     OW13318   1.000   2.946   1.916  0.1784 -0.1765  0.4461
36596SOL    HW113319   1.030   2.906   1.998  2.2238  1.1131  0.4054
36596SOL    HW213320   1.003   2.875   1.852  1.8307 -0.4653  0.7960
36597SOL     OW13321  10.461   3.444   0.832  0.1632 -0.0268  0.2045
36597SOL    HW113322  10.457   3.428   0.927 -1.9219 -3.3462 -0.2776
36597SOL    HW213323  10.372   3.473   0.810  1.0018  2.0736 -0.6280
36598SOL     OW13324  10.613   4.967   3.930 -0.0038  0.1698  0.1451
36598SOL    HW113325  10.699   5.007   3.940  0.3699 -0.3191 -0.9208
36598SOL    HW213326  10.596   4.924   4.014  1.3357 -0.7109 -0.0022
36599SOL     OW13327   3.272   0.416   9.706 -0.5418 -0.5216  0.2455
36599SOL    HW113328   3.226   0.333   9.691  1.0323 -1.3005 -0.4613
36599SOL    HW213329   3.361   0.400   9.675 -0.0384  1.2493  0.6863
36600SOL     OW13330   1.891   1.225   1.387  0.1478  0.2841 -0.5002
36600SOL    HW113331   1.936   1.165   1.446 -1.3297  0.8741  1.3091
36600SOL    HW213332   1.903   1.311   1.426  0.5340  0.9375 -1.9857
36601SOL     OW13333   1.895   1.331   9.883 -0.6555  0.2302 -0.7261
36601SOL    HW113334   1.849   1.306   9.802  0.0386  2.2647 -1.8293
36601SOL    HW213335   1.839   1.397   9.922 -0.0534  0.6431 -0.5625
36602SOL     OW13336   0.610   3.899   5.594 -0.8886 -0.7553 -0.1606
36602SOL    HW113337   0.557   3.887   5.515 -0.3282  0.5690 -0.7744
36602SOL    HW213338   0.585   3.985   5.626 -1.6684 -1.5833  1.5841
36603SOL     OW13339   9.194   2.629   9.794 -0.1369  0.3536 -0.4760
36603SOL    HW113340   9.134   2.632   9.869 -0.4720 -0.1447 -0.7200
36603SOL    HW213341   9.182   2.714   9.752 -0.6085  0.2960 -0.4663
36604SOL     OW13342   7.521   5.031   8.124  0.1452 -0.3797 -0.6342
36604SOL    HW113343   7.509   5.049   8.030  0.3654  0.7922 -0.4524
36604SOL    HW213344   7.442   4.984   8.150 -1.1390  1.5435 -0.8650
36605SOL     OW13345   6.162   7.716   8.546  0.4359 -0.1636 -0.2587
36605SOL    HW113346   6.106   7.673   8.610  0.9253 -0.0584  0.2496
36605SOL    HW213347   6.112   7.713   8.464 -0.7826  0.8780  0.4017
36606SOL     OW13348   7.954   9.330   0.107 -0.0759 -0.0971  0.2583
36606SOL    HW113349   7.954   9.293   0.196  0.0307 -0.3825  0.1403
36606SOL    HW213350   7.998   9.263   0.054  1.9497  1.0444  0.3920
36607SOL     OW13351   5.361   7.159  10.696  0.1485 -0.0164 -0.3432
36607SOL    HW113352   5.310   7.230  10.735  1.2441  0.4616  0.2565
36607SOL    HW213353   5.298   7.088  10.684 -0.7998  0.7877 -0.2490
36608SOL     OW13354  11.080   9.381   6.351 -0.7506 -0.1160  0.5909
36608SOL    HW113355  10.995   9.342   6.330 -0.8013  0.6095 -0.6711
36608SOL    HW213356  11.140   9.307   6.355 -1.2618 -0.5407  0.5162
36609SOL     OW13357   3.413   5.635   4.106 -0.0021 -0.2032 -0.2055
36609SOL    HW113358   3.360   5.562   4.139  0.7309 -0.8221 -0.3681
36609SOL    HW213359   3.406   5.628   4.011 -1.0021  0.7546 -0.2250
36610SOL     OW13360   4.831   4.576   6.554 -0.0364 -0.6647 -0.1308
36610SOL    HW113361   4.847   4.594   6.646  0.7679  0.7381 -0.5273
36610SOL    HW213362   4.777   4.497   6.555  0.2876 -0.9068  1.5157
36611SOL     OW13363   6.785   2.373   4.790  0.1480  0.4647 -0.0067
36611SOL    HW113364   6.814   2.325   4.712 -0.3548  0.0945  0.0327
36611SOL    HW213365   6.836   2.337   4.862 -0.2035  0.0103  0.0173
36612SOL     OW13366   6.834   1.286   3.030 -0.8854 -0.0368 -0.3093
36612SOL    HW113367   6.906   1.265   3.090 -0.7015 -0.4794 -0.6819
36612SOL    HW213368   6.850   1.232   2.953 -1.9701 -0.6217 -0.1489
36613SOL     OW13369   1.199   6.258   5.974  0.6973  0.2262  0.3928
36613SOL    HW113370   1.237   6.265   5.886  0.7045 -0.1938  0.3630
36613SOL    HW213371   1.275   6.252   6.033  0.7103  1.1596  0.4937
36614SOL     OW13372   2.070   7.893   3.814  0.2715 -0.1958 -0.5114
36614SOL    HW113373   2.140   7.849   3.863  0.8841  1.0136 -0.2517
36614SOL    HW213374   2.050   7.970   3.866 -0.2121  0.2559 -1.3455
36615SOL     OW13375   3.126   9.265   4.235 -0.5064  0.3860  0.0841
36615SOL    HW113376   3.219   9.283   4.221 -0.2289 -0.6465  0.5075
36615SOL    HW213377   3.101   9.206   4.164 -0.5838 -0.1128  0.5134
36616SOL     OW13378   8.817   8.684   9.040  0.1292 -0.5359 -0.0290
36616SOL    HW113379   8.742   8.684   9.100  0.9244 -1.5932  0.9981
36616SOL    HW213380   8.879   8.745   9.080 -1.1004  2.3620 -2.1727
36617SOL     OW13381   8.434   3.115   0.537 -0.6196  0.0883  0.0776
36617SOL    HW113382   8.456   3.161   0.618  0.7210 -1.4757  0.6499
36617SOL    HW213383   8.474   3.028   0.546 -3.5677 -1.5058 -0.6520
36618SOL     OW13384   6.316   8.290   4.037  0.0981 -0.0284 -0.3661
36618SOL    HW113385   6.313   8.362   3.975 -0.2674  0.0537 -0.2550
36618SOL    HW213386   6.315   8.211   3.983 -0.6986  0.0360 -0.4573
36619SOL     OW13387   1.654   4.949   2.637  0.2784 -0.1181 -0.1415
36619SOL    HW113388   1.592   4.878   2.654 -0.3325  1.0156  3.0898
36619SOL    HW213389   1.738   4.905   2.628 -0.4237 -1.4079 -0.6541
36620SOL     OW13390   5.298   4.961   4.982  0.6674 -0.0599  0.7587
36620SOL    HW113391   5.217   5.012   4.976  0.0018 -1.1263  0.2559
36620SOL    HW213392   5.292   4.898   4.910  1.7850 -0.3834  0.9276
36621SOL     OW13393   3.919   8.437   9.386  0.1846 -0.0409 -0.4624
36621SOL    HW113394   3.868   8.360   9.410 -2.7382  2.0902  0.6913
36621SOL    HW213395   3.915   8.440   9.290 -0.9241 -0.5253 -0.4359
36622SOL     OW13396   4.329   8.439   0.634  0.2199  0.3897  0.8515
36622SOL    HW113397   4.360   8.447   0.544  0.1254  1.0963  0.8825
36622SOL    HW213398   4.246   8.393   0.627  0.2725  0.3323  0.5892
36623SOL     OW13399   3.001   2.962   5.712 -0.2148  0.2960 -0.3945
36623SOL    HW113400   2.915   2.996   5.736 -1.2151 -1.8271 -0.7365
36623SOL    HW213401   3.009   2.982   5.618 -0.5410  0.1125 -0.4642
36624SOL     OW13402   0.223   7.738   7.756  0.2821 -0.1372  0.2884
36624SOL    HW113403   0.182   7.747   7.842 -2.2303 -0.1183 -0.8281
36624SOL    HW213404   0.250   7.646   7.752 -0.3793 -0.3560  0.7673
36625SOL     OW13405   1.704   5.065   3.593 -0.5384 -0.0015  0.3422
36625SOL    HW113406   1.752   5.049   3.512 -0.7711  1.4459 -0.1275
36625SOL    HW213407   1.762   5.035   3.663 -0.2419 -1.0632 -0.3474
36626SOL     OW13408   6.247   7.883   9.025 -0.1184 -0.2621  0.0184
36626SOL    HW113409   6.179   7.822   8.998 -0.8335 -1.1128  3.3232
36626SOL    HW213410   6.200   7.965   9.041  0.0103 -0.2341  0.2484
36627SOL     OW13411  10.451   5.636  10.841 -0.5033  0.2480 -0.0132
36627SOL    HW113412  10.392   5.711  10.831 -0.1500  0.6815  1.0677
36627SOL    HW213413  10.455   5.598  10.753 -0.7474  1.4475 -0.5692
36628SOL     OW13414   7.400   1.081   2.066  0.0155  0.1716  0.0691
36628SOL    HW113415   7.397   1.058   1.974 -0.2382  1.3982 -0.2430
36628SOL    HW213416   7.491   1.063   2.092 -0.1700 -1.1972 -0.1126
36629SOL     OW13417  10.669   8.553   7.897  0.1794  0.1869 -0.6013
36629SOL    HW113418  10.617   8.545   7.977  0.7997 -0.0224 -0.2154
36629SOL    HW213419  10.653   8.643   7.868  0.3282  0.4219  0.0262
36630SOL     OW13420   6.480   1.285   7.924  0.1776  0.0828 -0.4774
36630SOL    HW113421   6.497   1.366   7.876 -0.7031  1.2774  1.1459
36630SOL    HW213422   6.392   1.259   7.898  0.6255 -0.6131 -1.3296
36631SOL     OW13423   5.333   6.099   1.763  0.5249 -0.2967 -0.2433
36631SOL    HW113424   5.370   6.156   1.697  0.4025 -0.0314 -0.0835
36631SOL    HW213425   5.246   6.077   1.730  0.0631  0.6607  0.3116
36632SOL     OW13426   7.657   1.328   2.819  0.5488 -0.0365 -0.1857
36632SOL    HW113427   7.708   1.297   2.745  1.9137  1.7518 -0.0550
36632SOL    HW213428   7.596   1.392   2.781  1.1683  0.7946  0.1949
36633SOL     OW13429   9.104   0.882   8.925 -0.2288 -0.3093 -0.1065
36633SOL    HW113430   9.084   0.925   9.008  0.7992  3.1914 -1.4955
36633SOL    HW213431   9.098   0.788   8.944 -4.4989  0.2708  2.7468
36634SOL     OW13432   7.521   9.602   6.000 -0.3338  0.1035  0.4467
36634SOL    HW113433   7.476   9.612   5.917 -2.6402  1.8573  1.7683
36634SOL    HW213434   7.482   9.525   6.040  0.4107 -0.4437  0.1321
36635SOL     OW13435   9.570  10.250   8.538 -0.5139  0.4997 -0.0332
36635SOL    HW113436   9.657  10.282   8.514  0.1833 -1.1998  0.0811
36635SOL    HW213437   9.539  10.204   8.460 -1.1710  0.7955  0.0464
36636SOL     OW13438   7.468   5.765   5.597  0.3315 -0.0857 -0.1626
36636SOL    HW113439   7.467   5.689   5.540 -0.4926  0.0942 -0.3937
36636SOL    HW213440   7.456   5.729   5.685  3.2817 -0.5399  0.1692
36637SOL     OW13441  10.231   3.830   2.209 -0.0627 -0.4564  0.0813
36637SOL    HW113442  10.214   3.752   2.263  0.3677 -1.3674 -1.0557
36637SOL    HW213443  10.164   3.826   2.141 -0.4765  0.5758  0.4137
36638SOL     OW13444   2.973   3.503  10.400 -0.0604  0.3859 -0.6864
36638SOL    HW113445   2.997   3.489  10.491  1.5236 -0.8590 -1.2570
36638SOL    HW213446   2.980   3.597  10.387  0.4953  0.4783  0.2579
36639SOL     OW13447  10.292   3.526   8.685  0.8852  0.1820  0.2450
36639SOL    HW113448  10.272   3.585   8.613 -0.5827 -0.5790 -0.0154
36639SOL    HW213449  10.328   3.447   8.644 -2.3736 -1.3264 -0.0141
36640SOL     OW13450  10.507   8.554   4.290  0.4524 -0.0242 -0.2519
36640SOL    HW113451  10.458   8.502   4.354 -0.4782  2.1152  0.8582
36640SOL    HW213452  10.599   8.534   4.308  0.1273 -1.2289  0.1490
36641SOL     OW13453   5.304   5.246   4.242  0.5564  0.4394  0.1914
36641SOL    HW113454   5.376   5.256   4.180 -0.2276  1.4068 -0.6067
36641SOL    HW213455   5.251   5.324   4.229  1.0964  1.3965  3.0992
36642SOL     OW13456   1.999   0.395   4.979  0.3838 -0.1936 -0.0504
36642SOL    HW113457   1.935   0.368   4.913  0.5193 -2.4413  0.6482
36642SOL    HW213458   2.023   0.484   4.955 -1.8870  0.1693 -1.1953
36643SOL     OW13459  10.173   1.012   8.718 -0.0306  0.1000  0.3811
36643SOL    HW113460  10.238   1.067   8.674  1.2377 -0.9658  0.8537
36643SOL    HW213461  10.204   1.007   8.809 -0.7232 -0.5154  0.5932
36644SOL     OW13462   5.429   4.573   8.184  0.1109  0.3356  0.4881
36644SOL    HW113463   5.406   4.558   8.276  1.4416 -0.4515  0.7260
36644SOL    HW213464   5.525   4.579   8.184  0.1158  0.6114 -0.8151
36645SOL     OW13465   9.765   0.731   0.978 -0.7128  0.2521 -0.5772
36645SOL    HW113466   9.847   0.741   0.929 -0.6294  1.3585 -0.2192
36645SOL    HW213467   9.792   0.703   1.065 -0.7468  0.1073 -0.6129
36646SOL     OW13468   7.689   3.109  10.153  0.4007 -0.3343 -0.2949
36646SOL    HW113469   7.726   3.099  10.241  0.7750 -0.0113 -0.4106
36646SOL    HW213470   7.646   3.026  10.136  0.5769 -0.5071  0.0789
36647SOL     OW13471   6.199  10.903   3.215 -0.3857  0.1299 -0.4047
36647SOL    HW113472   6.239  10.955   3.285  1.8068 -0.6961 -0.9493
36647SOL    HW213473   6.228  10.945   3.134 -0.2036 -0.7773 -0.8267
36648SOL     OW13474   9.136   6.328   4.136 -0.0193 -0.0055  0.2514
36648SOL    HW113475   9.069   6.382   4.093 -1.0107 -1.4171 -0.0512
36648SOL    HW213476   9.166   6.381   4.210 -1.1117  0.8708  0.0928
36649SOL     OW13477   8.929   7.184  10.907  0.4035  0.6463 -0.4119
36649SOL    HW113478   8.987   7.210  10.835  0.1289 -0.7942 -1.2063
36649SOL    HW213479   8.842   7.181  10.867  0.4719 -1.9020 -0.5658
36650SOL     OW13480   8.096   5.519   5.454  0.2696  0.1950  0.0872
36650SOL    HW113481   8.187   5.510   5.428  0.4860  0.2871  0.7785
36650SOL    HW213482   8.096   5.593   5.516 -0.5647  1.3750 -1.2592
36651SOL     OW13483   8.224   8.715   6.934  0.0767  0.3054 -0.3005
36651SOL    HW113484   8.222   8.811   6.939  0.1349  0.3543 -1.1001
36651SOL    HW213485   8.146   8.693   6.882  0.5162 -0.0275 -0.8243
36652SOL     OW13486   5.791  10.415   7.038 -0.2538 -0.0493 -0.0816
36652SOL    HW113487   5.820  10.335   7.082  1.7839  1.2201  1.0546
36652SOL    HW213488   5.743  10.463   7.105 -1.7755 -0.4091 -0.8608
36653SOL     OW13489   8.415   9.127   9.322  1.0174 -0.0130  0.4970
36653SOL    HW113490   8.446   9.038   9.306 -1.7215 -1.2687  1.6587
36653SOL    HW213491   8.370   9.152   9.241 -0.5742 -0.8182  1.0902
36654SOL     OW13492   8.090   8.437   3.981  0.0578  0.1116  0.4643
36654SOL    HW113493   8.015   8.443   3.922  0.0337  1.8191  0.6371
36654SOL    HW213494   8.066   8.367   4.042 -0.7251 -0.3851 -0.3721
36655SOL     OW13495   9.910   5.163   4.164  0.1392  0.1408  0.6063
36655SOL    HW113496   9.880   5.127   4.081  2.6265  0.6461 -0.6180
36655SOL    HW213497   9.947   5.088   4.211 -1.8700 -0.2764  1.6413
36656SOL     OW13498   0.101   8.492  10.412  0.1118  0.1183 -0.1997
36656SOL    HW113499   0.033   8.559  10.421 -1.6054 -1.5609 -0.1358
36656SOL    HW213500   0.112   8.482  10.317 -0.4734 -0.3361 -0.2185
36657SOL     OW13501   2.052   2.971   9.063 -0.0870  0.6025  0.1086
36657SOL    HW113502   2.121   3.035   9.080  0.8475 -0.5266  0.7293
36657SOL    HW213503   2.095   2.902   9.013 -1.0652  0.4055 -0.5049
36658SOL     OW13504   3.484   4.481   0.501 -0.5957 -0.1681 -0.0864
36658SOL    HW113505   3.456   4.471   0.410 -2.6615  1.3149  0.2953
36658SOL    HW213506   3.418   4.434   0.552 -0.4009  0.3921  0.7064
36659SOL     OW13507   2.156   8.838  10.388 -1.1643 -0.2498 -0.7646
36659SOL    HW113508   2.161   8.777  10.462  0.3881 -1.4990 -1.8249
36659SOL    HW213509   2.118   8.917  10.425  0.2141 -0.5714  1.5673
36660SOL     OW13510   9.480   6.639   0.750  0.0336  0.0691  0.0008
36660SOL    HW113511   9.555   6.686   0.716 -0.2715  1.3855  1.0646
36660SOL    HW213512   9.477   6.662   0.843 -0.6101 -1.4178  0.3813
36661SOL     OW13513   6.965  10.803   3.093 -0.6515  0.1906 -0.0751
36661SOL    HW113514   7.000  10.745   3.161 -1.7121  0.4408  0.7088
36661SOL    HW213515   6.874  10.817   3.118 -0.5046  1.9637 -0.3998
36662SOL     OW13516   8.426   2.947   3.728  0.2174 -0.5501 -0.3036
36662SOL    HW113517   8.478   2.898   3.665 -3.1651 -2.8285 -1.6596
36662SOL    HW213518   8.396   3.024   3.681  1.5420  0.3022  0.1951
36663SOL     OW13519   3.458   1.517   1.903  0.5899 -0.2460 -0.3023
36663SOL    HW113520   3.454   1.447   1.968 -0.5736 -0.4402 -0.5639
36663SOL    HW213521   3.369   1.522   1.867  1.0658  0.2344 -1.4764
36664SOL     OW13522   3.354   6.128   3.821 -0.1738 -0.5896 -1.0900
36664SOL    HW113523   3.441   6.169   3.827 -0.7699  0.7780 -1.4861
36664SOL    HW213524   3.348   6.073   3.899  0.0847  1.2441  0.2905
36665SOL     OW13525   5.485   2.406   9.044  0.2601  0.1195  0.2895
36665SOL    HW113526   5.443   2.415   8.959 -0.1531  0.0994  0.4889
36665SOL    HW213527   5.579   2.416   9.026  0.1462  0.4871 -0.1101
36666SOL     OW13528  10.640  10.764   1.859  0.0760 -0.0877 -0.1318
36666SOL    HW113529  10.554  10.722   1.872  0.3813 -0.2527  1.5729
36666SOL    HW213530  10.623  10.857   1.873  0.1550 -0.1120  0.1280
36667SOL     OW13531  10.001   8.490   8.237 -0.0871 -0.8505 -0.3170
36667SOL    HW113532  10.016   8.516   8.146  0.7656 -0.1471  0.0025
36667SOL    HW213533   9.992   8.573   8.285 -0.5480 -1.2098  0.2361
36668SOL     OW13534   0.172   1.472  10.037  0.2360 -0.0728  0.0991
36668SOL    HW113535   0.131   1.386  10.039 -0.6170  0.2507 -1.4513
36668SOL    HW213536   0.119   1.527  10.094  0.1999 -0.3320  0.3139
36669SOL     OW13537   2.469   5.828   6.505 -0.0049  0.3199 -0.8711
36669SOL    HW113538   2.421   5.745   6.503 -1.3370  1.0420  0.0507
36669SOL    HW213539   2.536   5.818   6.437  0.4647 -1.8453 -0.1749
36670SOL     OW13540  10.823   9.339  10.844 -1.0675  0.2083  0.5284
36670SOL    HW113541  10.877   9.380  10.776 -1.3351  0.0690  0.2284
36670SOL    HW213542  10.857   9.250  10.851 -0.6953  0.3817  0.9539
36671SOL     OW13543   3.290   8.522   8.193 -0.0520  0.4603  0.2436
36671SOL    HW113544   3.303   8.542   8.101 -0.1765  0.7426  0.2857
36671SOL    HW213545   3.356   8.576   8.239  0.4461 -0.1654  0.2816
36672SOL     OW13546  10.752   3.911   6.245 -0.2907  1.0315  0.0316
36672SOL    HW113547  10.746   3.863   6.328 -0.6061  1.4957  0.2824
36672SOL    HW213548  10.661   3.928   6.221 -0.1754  1.9592  0.2171
36673SOL     OW13549   7.817   1.519   9.411  0.7016 -0.3997 -0.5941
36673SOL    HW113550   7.735   1.563   9.435  1.6200  1.1694 -0.2175
36673SOL    HW213551   7.792   1.428   9.398 -0.9622 -0.1089  0.2991
36674SOL     OW13552   5.493   5.709   7.007 -0.0722 -0.5097 -0.3348
36674SOL    HW113553   5.476   5.796   6.972  0.2226 -0.4625 -0.3663
36674SOL    HW213554   5.487   5.650   6.932  0.2422 -0.4495 -0.4085
36675SOL     OW13555   9.468   1.629  10.547  0.1805  0.3269  0.0078
36675SOL    HW113556   9.545   1.574  10.533  1.1329  1.7477 -0.6287
36675SOL    HW213557   9.457   1.630  10.642  0.1809 -0.8760  0.0367
36676SOL     OW13558   4.707   8.868   7.288  0.4619 -0.0071 -0.1314
36676SOL    HW113559   4.760   8.790   7.274  2.8175  1.2953  0.9082
36676SOL    HW213560   4.729   8.926   7.215 -2.2552 -0.7026 -1.6358
36677SOL     OW13561   0.737   1.650   4.959 -0.2258  0.0452 -0.0272
36677SOL    HW113562   0.814   1.593   4.967  2.1782  2.9650 -0.4952
36677SOL    HW213563   0.695   1.621   4.878  1.7145 -0.2430 -1.0024
36678SOL     OW13564   1.793   4.071   5.197  0.5087  0.7311 -0.0435
36678SOL    HW113565   1.878   4.047   5.234 -0.6990 -2.9545  0.8295
36678SOL    HW213566   1.730   4.025   5.251 -1.9367  1.7730 -1.8262
36679SOL     OW13567   0.241   6.247   5.660 -0.5559  0.0714  0.2150
36679SOL    HW113568   0.303   6.319   5.673 -0.0886 -0.1351 -0.7623
36679SOL    HW213569   0.296   6.170   5.647 -1.0612 -0.5751  1.7560
36680SOL     OW13570   8.509  10.057   4.044 -0.0492 -0.2993  0.2822
36680SOL    HW113571   8.498   9.962   4.056 -0.6026  0.0860  3.4281
36680SOL    HW213572   8.467  10.096   4.120 -0.3222  2.5545 -1.2208
36681SOL     OW13573   7.298   2.683   6.362  0.2967 -0.4244 -0.2696
36681SOL    HW113574   7.321   2.671   6.270  2.4150  0.6929  0.0470
36681SOL    HW213575   7.293   2.593   6.396  0.0285 -0.8376 -1.3506
36682SOL     OW13576   5.485   3.133  10.052 -0.8404  0.8085  1.0165
36682SOL    HW113577   5.480   3.134  10.148  1.1739  0.6989  1.1457
36682SOL    HW213578   5.522   3.218  10.030  4.7405 -1.2741  0.8418
36683SOL     OW13579   3.503   2.816   6.468 -0.0612  0.0233 -0.4204
36683SOL    HW113580   3.490   2.734   6.420  2.2423 -0.2756 -0.6477
36683SOL    HW213581   3.420   2.832   6.512 -0.4604 -2.6410 -0.0453
36684SOL     OW13582   9.562  10.445   5.485  0.1376  0.5223 -0.3816
36684SOL    HW113583   9.603  10.394   5.555  0.5929 -0.5794 -1.4006
36684SOL    HW213584   9.500  10.502   5.529  1.6684  1.1362  1.0821
36685SOL     OW13585   4.828   9.943   4.869  0.0158 -0.4522  0.1874
36685SOL    HW113586   4.829   9.898   4.953  0.2887  0.1225  0.4978
36685SOL    HW213587   4.915   9.984   4.862  0.0568 -0.6334 -0.4473
36686SOL     OW13588   7.695   0.988   4.221 -0.3376  0.0182  0.3540
36686SOL    HW113589   7.751   1.012   4.294  1.1268  0.0387 -0.7293
36686SOL    HW213590   7.631   0.927   4.258  0.8687 -0.5879  1.4845
36687SOL     OW13591   5.912   5.702   7.225 -0.1589 -0.3783 -0.1969
36687SOL    HW113592   5.862   5.659   7.156  0.5806  0.1139 -1.0636
36687SOL    HW213593   5.991   5.734   7.181 -0.9197  2.3635  0.2542
36688SOL     OW13594   8.657  10.576   3.256  0.3779  0.9127 -0.7648
36688SOL    HW113595   8.713  10.500   3.268 -1.0965  0.0159  1.1885
36688SOL    HW213596   8.584  10.544   3.202 -1.3705  0.1571  1.8160
36689SOL     OW13597   1.341   0.809   4.068 -0.0782 -0.1836  0.1851
36689SOL    HW113598   1.338   0.783   4.161 -0.9620  1.3883  0.6371
36689SOL    HW213599   1.283   0.885   4.063 -0.0449 -0.2398 -1.6790
36690SOL     OW13600   7.943   4.566  10.257 -0.3089 -0.2937 -0.7452
36690SOL    HW113601   7.869   4.541  10.202 -0.2476  0.2997 -1.1112
36690SOL    HW213602   7.923   4.529  10.343 -1.8100  1.1365 -0.4135
36691SOL     OW13603   3.792   9.564   7.778 -0.0687  0.0390 -0.3867
36691SOL    HW113604   3.854   9.632   7.805 -1.7586  0.8439  1.8245
36691SOL    HW213605   3.707   9.598   7.805 -0.9478 -3.1653  1.3829
36692SOL     OW13606   6.598   9.575   6.057 -0.2709 -0.3398  0.1173
36692SOL    HW113607   6.535   9.636   6.096  1.2493  0.9394  0.6837
36692SOL    HW213608   6.609   9.606   5.968  1.1053  0.7750  0.6386
36693SOL     OW13609   0.783   3.575   1.585 -0.1366 -0.6409 -0.2671
36693SOL    HW113610   0.785   3.664   1.621 -0.4713 -0.5307 -0.5086
36693SOL    HW213611   0.813   3.585   1.495 -2.3466 -0.3898 -1.0295
36694SOL     OW13612  10.039  11.095   2.767  0.3149  0.0967  0.2400
36694SOL    HW113613  10.029  11.160   2.698  1.2340  0.6171  0.5852
36694SOL    HW213614   9.993  11.132   2.843  3.0720  1.6808  1.2887
36695SOL     OW13615  10.382   2.052   4.120  0.7842  0.0381  0.1312
36695SOL    HW113616  10.341   2.075   4.204  0.4597 -0.3919  0.0970
36695SOL    HW213617  10.355   1.962   4.105 -0.9083  0.7528 -1.4482
36696SOL     OW13618   3.355   4.366   7.848 -0.2321 -0.1073 -0.0274
36696SOL    HW113619   3.297   4.410   7.911 -1.1467  0.4577 -1.2089
36696SOL    HW213620   3.336   4.410   7.765  0.9805 -0.7948 -0.6856
36697SOL     OW13621   5.906   5.422   0.867  0.2659  0.2254  0.4636
36697SOL    HW113622   5.962   5.496   0.843 -1.6187  1.1211 -1.5677
36697SOL    HW213623   5.936   5.350   0.812  1.1706 -0.1270  1.3954
36698SOL     OW13624   0.953   6.759   1.103 -1.0173 -0.0770 -0.0688
36698SOL    HW113625   0.941   6.664   1.096 -0.6683 -0.0756 -0.7480
36698SOL    HW213626   0.899   6.785   1.178 -2.0011 -0.6578 -0.5601
36699SOL     OW13627   0.517   4.531   3.219 -0.6823  0.1980 -0.1784
36699SOL    HW113628   0.514   4.615   3.265 -0.3374  0.2033 -0.1620
36699SOL    HW213629   0.425   4.507   3.206 -0.7821  0.6066 -0.2368
36700SOL     OW13630   8.828   5.703   4.267 -0.7303  0.3070 -0.0766
36700SOL    HW113631   8.844   5.612   4.242 -0.6016  0.1965  0.4015
36700SOL    HW213632   8.863   5.755   4.194 -1.5972 -0.0463 -0.7617
36701SOL     OW13633   4.768   2.373   6.335  0.0817 -0.7594  0.1420
36701SOL    HW113634   4.804   2.285   6.337 -1.1511 -1.2754  1.1461
36701SOL    HW213635   4.839   2.430   6.364  1.2153 -1.2770 -1.5187
36702SOL     OW13636   5.871   7.352   8.358  0.5502  0.6793 -0.3261
36702SOL    HW113637   5.863   7.392   8.272  0.8936  0.5694 -0.4088
36702SOL    HW213638   5.874   7.258   8.341 -0.1637  0.6202 -0.1381
36703SOL     OW13639  10.062   8.386   1.299 -0.0736  0.3018 -0.3351
36703SOL    HW113640  10.095   8.335   1.373 -0.7041  0.8464  0.3372
36703SOL    HW213641  10.110   8.469   1.303  0.2057  0.1698 -0.8084
36704SOL     OW13642   4.425   4.968   7.906  1.3958 -0.0432 -0.0696
36704SOL    HW113643   4.430   4.872   7.903  1.3476 -0.0986  1.0672
36704SOL    HW213644   4.399   4.994   7.817  0.2826 -1.1589 -0.0958
36705SOL     OW13645   4.732   5.932   8.546  0.0043  0.2268  0.1484
36705SOL    HW113646   4.659   5.891   8.592 -1.5908  1.4369 -1.2079
36705SOL    HW213647   4.730   6.024   8.575 -1.2337  1.1009 -2.4578
36706SOL     OW13648   5.338   7.665   8.494  0.1793  0.0840 -0.1946
36706SOL    HW113649   5.268   7.619   8.447  0.2954  0.4370 -0.7216
36706SOL    HW213650   5.386   7.712   8.426  1.6110 -1.0122 -0.0065
36707SOL     OW13651   1.382   4.586   2.973 -0.0493 -0.1948  0.0266
36707SOL    HW113652   1.439   4.529   3.023 -0.8934 -1.0876  0.0038
36707SOL    HW213653   1.386   4.670   3.018  2.4685  0.2286 -0.8773
36708SOL     OW13654   7.783  10.498   5.939  0.1776  0.1917  0.2476
36708SOL    HW113655   7.823  10.577   5.974  1.0807  0.2400 -0.8144
36708SOL    HW213656   7.829  10.483   5.856 -2.0248  0.2496 -1.0506
36709SOL     OW13657  10.989   0.998   6.776 -0.0584  0.4486  0.2397
36709SOL    HW113658  10.906   0.949   6.776 -0.2058  0.6912  1.0175
36709SOL    HW213659  11.042   0.956   6.843  0.2679  0.6100  0.0868
36710SOL     OW13660   3.805   5.113   1.194  0.2609 -0.9987 -0.5638
36710SOL    HW113661   3.792   5.195   1.242  1.5962 -1.3302  0.4334
36710SOL    HW213662   3.759   5.047   1.245  2.4980 -1.5277  0.9250
36711SOL     OW13663   7.195   5.300   6.542  0.2320 -0.7579 -0.6297
36711SOL    HW113664   7.134   5.373   6.533 -0.4498 -0.9932  1.5212
36711SOL    HW213665   7.277   5.333   6.506 -0.3089  0.7525 -0.5551
36712SOL     OW13666   0.351   7.303   3.120 -0.3422  0.4199 -0.3890
36712SOL    HW113667   0.296   7.239   3.075  0.0801 -0.6936  0.6205
36712SOL    HW213668   0.306   7.319   3.203  0.1040  0.6249 -0.1852
36713SOL     OW13669   3.849   0.880   9.048  0.1382  0.2254 -0.2166
36713SOL    HW113670   3.852   0.805   9.108 -1.0332  1.3048  1.2718
36713SOL    HW213671   3.769   0.867   8.997  0.2787  0.1423 -0.4189
36714SOL     OW13672   4.176   1.445   2.042  0.3046 -0.4422  0.3248
36714SOL    HW113673   4.168   1.397   2.124  0.6904 -0.0176  0.6170
36714SOL    HW213674   4.132   1.390   1.977 -0.9306 -0.3119  1.0121
36715SOL     OW13675   7.578   6.456   9.939 -0.1240  0.6091 -0.2858
36715SOL    HW113676   7.576   6.483  10.031 -0.0100 -0.9387  0.2108
36715SOL    HW213677   7.635   6.379   9.938 -1.2381 -0.2587 -1.3930
36716SOL     OW13678   2.355   7.885   4.183  0.3852 -0.4405  0.0859
36716SOL    HW113679   2.268   7.893   4.223  0.9585  0.5626  1.1846
36716SOL    HW213680   2.416   7.916   4.251  1.4507  0.6236 -1.2952
36717SOL     OW13681   7.181   1.141   6.949  0.0398  0.2545 -0.5956
36717SOL    HW113682   7.128   1.100   6.881 -2.4933 -1.8999  2.3894
36717SOL    HW213683   7.260   1.087   6.955 -0.4640 -0.5019 -0.7623
36718SOL     OW13684   0.565   9.381   7.539 -0.0494 -0.0928 -0.0629
36718SOL    HW113685   0.565   9.303   7.594  1.7297 -1.1179 -1.4407
36718SOL    HW213686   0.653   9.385   7.502 -0.0142  2.6908  0.0954
36719SOL     OW13687   2.205   8.801   3.420 -0.3830 -0.7946  0.7565
36719SOL    HW113688   2.162   8.867   3.366 -0.5095 -0.4408  1.2797
36719SOL    HW213689   2.299   8.814   3.403 -0.3869 -0.2030  1.1722
36720SOL     OW13690   3.299   7.012   8.338 -0.4675 -0.7861 -0.4429
36720SOL    HW113691   3.386   7.028   8.374  0.0715 -1.0060 -1.6127
36720SOL    HW213692   3.240   7.060   8.396  0.1502 -2.5884  1.8415
36721SOL     OW13693  10.648   1.879   4.569  0.0040 -0.3231 -0.4070
36721SOL    HW113694  10.595   1.880   4.490 -0.8212 -2.0657  0.0645
36721SOL    HW213695  10.636   1.791   4.605  1.3394  0.0118  0.9961
36722SOL     OW13696  10.081   4.570   1.495  0.2066 -0.0966  0.2766
36722SOL    HW113697  10.065   4.627   1.420  0.9326  1.2181  1.0897
36722SOL    HW213698  10.009   4.588   1.555  0.9299  0.6781  0.9342
36723SOL     OW13699  10.829   7.535  10.953  0.0909  0.2299  0.4126
36723SOL    HW113700  10.823   7.453  11.001 -0.2280 -1.1023 -1.7545
36723SOL    HW213701  10.751   7.535  10.897  0.2685  1.8576  0.1201
36724SOL     OW13702   6.236   7.904   2.419 -0.2208 -0.1030  0.5889
36724SOL    HW113703   6.148   7.866   2.423 -0.2210 -0.1278  0.3744
36724SOL    HW213704   6.293   7.828   2.403 -0.2470  0.0167 -0.0963
36725SOL     OW13705   7.189   5.747  10.068 -0.1293  0.1792 -0.3259
36725SOL    HW113706   7.105   5.750  10.021 -1.0302  1.0311  1.2423
36725SOL    HW213707   7.170   5.696  10.147  1.4051 -1.4221 -0.9427
36726SOL     OW13708   5.482   0.959   9.347 -0.4760  0.5355  0.1441
36726SOL    HW113709   5.450   0.924   9.264  1.4688  2.3431 -1.4522
36726SOL    HW213710   5.569   0.921   9.356 -0.2407  1.2274  0.8136
36727SOL     OW13711   2.957   7.967   3.418  0.1998 -1.0044  0.1781
36727SOL    HW113712   3.007   7.885   3.414 -0.9121 -1.7965  1.2938
36727SOL    HW213713   2.941   7.980   3.512 -0.1669  0.1736 -0.0354
36728SOL     OW13714   7.995   6.143   8.280 -0.1011 -0.0153  0.2046
36728SOL    HW113715   7.936   6.158   8.206 -1.8504  0.1807  1.5594
36728SOL    HW213716   8.077   6.186   8.254 -1.1231  1.3018 -1.0326
36729SOL     OW13717   1.192   4.172   8.348 -0.2497 -0.2544 -0.5796
36729SOL    HW113718   1.275   4.214   8.368 -0.2562 -1.2001  1.8618
36729SOL    HW213719   1.196   4.088   8.395 -2.5689 -0.3102 -0.3483
36730SOL     OW13720  10.728   0.845   7.545 -0.1088  0.5900 -0.0400
36730SOL    HW113721  10.814   0.806   7.561 -0.2494  0.1598 -0.3170
36730SOL    HW213722  10.666   0.781   7.581 -0.3127  0.9105  0.1861
36731SOL     OW13723   5.192   7.979  10.611 -0.2994  0.2176  0.6047
36731SOL    HW113724   5.109   7.997  10.566 -0.0100 -0.7212 -0.3450
36731SOL    HW213725   5.167   7.929  10.689 -0.5642 -0.8430 -0.1503
36732SOL     OW13726   2.264   5.539   9.916  0.0029  0.9165 -0.1551
36732SOL    HW113727   2.261   5.464   9.856 -0.9902  1.6997 -1.1425
36732SOL    HW213728   2.196   5.520   9.981  2.1231 -0.6913  1.7670
36733SOL     OW13729   1.828   6.647   8.470 -0.0342 -0.1627  0.0963
36733SOL    HW113730   1.741   6.626   8.505  0.0651 -1.0904 -0.1718
36733SOL    HW213731   1.879   6.567   8.485  0.5625  0.1126 -0.4184
36734SOL     OW13732  10.210  10.454   8.777  0.6604  0.6195  0.1077
36734SOL    HW113733  10.160  10.403   8.713 -0.0280  0.1482  0.9975
36734SOL    HW213734  10.191  10.545   8.755  0.4007  0.4599 -0.3373
36735SOL     OW13735   9.342   2.633   4.509 -0.4399  0.4029  0.0734
36735SOL    HW113736   9.351   2.672   4.422 -1.3288  0.7652  0.1244
36735SOL    HW213737   9.413   2.671   4.560  0.7009 -0.5710 -0.7445
36736SOL     OW13738   8.482   5.945   0.293  0.4158  0.1014 -0.5742
36736SOL    HW113739   8.563   5.980   0.331  0.5692  1.3442 -1.9239
36736SOL    HW213740   8.493   5.959   0.198 -1.4559  0.4787 -0.7702
36737SOL     OW13741   2.154   5.177  10.302  0.3185 -0.2239  0.9814
36737SOL    HW113742   2.125   5.088  10.280 -2.0002  0.6626  0.1899
36737SOL    HW213743   2.130   5.188  10.394  3.0551 -1.2545  1.9381
36738SOL     OW13744   3.869   2.913   4.655 -0.1343  0.2433 -0.5437
36738SOL    HW113745   3.920   2.866   4.721 -0.4802 -2.2774 -1.9755
36738SOL    HW213746   3.854   3.000   4.694  0.8720 -0.6571  2.0474
36739SOL     OW13747  10.721  10.595   9.591 -0.1758  0.2229  0.0009
36739SOL    HW113748  10.806  10.555   9.608 -0.8201 -0.4392  1.9541
36739SOL    HW213749  10.706  10.580   9.498  1.4131 -0.4952 -0.1781
36740SOL     OW13750   7.173   3.546   5.620  0.3603  0.2305 -0.1887
36740SOL    HW113751   7.250   3.495   5.642  0.4736  1.3047  2.2153
36740SOL    HW213752   7.207   3.631   5.591  0.1316  0.9501  1.5447
36741SOL     OW13753   6.440   1.520   3.709  0.0152  0.1973  0.0344
36741SOL    HW113754   6.395   1.436   3.697  0.3802  0.1032 -0.7622
36741SOL    HW213755   6.486   1.511   3.792 -0.3509 -0.2076  0.1969
36742SOL     OW13756   7.797   2.251   6.774 -0.1818  0.5925  0.1462
36742SOL    HW113757   7.865   2.300   6.728 -0.6491 -0.2048 -1.4703
36742SOL    HW213758   7.804   2.162   6.739 -0.2410 -0.1841  2.0149
36743SOL     OW13759   6.124   2.020   4.438  0.1265 -0.2239  0.8715
36743SOL    HW113760   6.072   2.091   4.401  1.2813 -0.0665 -0.5644
36743SOL    HW213761   6.070   1.941   4.424 -1.9755  0.4792  4.1125
36744SOL     OW13762   8.978   3.822   8.492 -0.6301 -0.6628 -0.3581
36744SOL    HW113763   9.063   3.780   8.481 -0.6810 -0.3908 -1.9470
36744SOL    HW213764   8.998   3.912   8.519 -0.4168 -0.6100 -0.6982
36745SOL     OW13765   8.672   9.516  10.924 -0.0300 -0.0481  0.3297
36745SOL    HW113766   8.591   9.567  10.923 -0.2019 -0.2207  2.2442
36745SOL    HW213767   8.643   9.425  10.933  0.3622 -0.2228 -0.1186
36746SOL     OW13768   3.930   7.374   5.499 -0.6542  0.5814  0.0148
36746SOL    HW113769   3.875   7.295   5.495 -1.2525  1.0025 -0.3662
36746SOL    HW213770   3.910   7.412   5.584  1.5711 -1.0071  1.3507
36747SOL     OW13771  10.576   9.355   6.132 -0.7031  0.5280  0.4003
36747SOL    HW113772  10.571   9.419   6.203  0.7375  0.0198  0.9957
36747SOL    HW213773  10.642   9.390   6.072 -1.1612  0.4443 -0.1646
36748SOL     OW13774   5.620   4.723   5.562 -0.0725  0.6304 -0.0796
36748SOL    HW113775   5.657   4.799   5.607 -0.3320  0.3694  0.5969
36748SOL    HW213776   5.697   4.675   5.530  0.2820 -0.3105  1.9710
36749SOL     OW13777   8.525   3.753   3.968  0.2051  0.1945  0.6570
36749SOL    HW113778   8.484   3.702   3.898  0.0805  1.7332 -0.4511
36749SOL    HW213779   8.611   3.775   3.934 -0.7699  3.1630 -0.2627
36750SOL     OW13780   5.661   9.542   8.885  0.1421 -0.4747 -0.1191
36750SOL    HW113781   5.665   9.492   8.967  0.9275 -0.9108 -0.4140
36750SOL    HW213782   5.688   9.479   8.818  0.7392  0.2303 -0.5517
36751SOL     OW13783   2.823   9.011   3.106  0.4283  0.0239  0.9645
36751SOL    HW113784   2.737   8.999   3.147 -0.2181 -1.4761 -0.7094
36751SOL    HW213785   2.805   9.056   3.024  1.2290 -0.2444  0.6273
36752SOL     OW13786   1.268   3.725   2.933 -0.0308 -0.5689  0.5172
36752SOL    HW113787   1.251   3.632   2.918  2.1901 -1.1052  1.0327
36752SOL    HW213788   1.363   3.732   2.935 -0.1556  1.6874  0.7951
36753SOL     OW13789   0.661   6.440   2.869  0.1847  0.1990 -0.0197
36753SOL    HW113790   0.716   6.415   2.794  0.3699  0.2811  0.0886
36753SOL    HW213791   0.644   6.358   2.915 -0.2770  0.0853 -0.3838
36754SOL     OW13792   8.828   3.009   7.706 -0.3474  0.0619  0.3243
36754SOL    HW113793   8.916   3.030   7.674 -0.4154  0.8828  0.6589
36754SOL    HW213794   8.783   2.975   7.629  0.3077 -0.5200  0.1834
36755SOL     OW13795   9.486   7.305   7.880  0.0972  0.4908 -0.7471
36755SOL    HW113796   9.431   7.292   7.802 -2.8760 -0.3792  1.3009
36755SOL    HW213797   9.515   7.217   7.904 -0.2482  0.5498 -0.0832
36756SOL     OW13798   4.363   1.100   7.459  0.6049 -0.2379 -0.6030
36756SOL    HW113799   4.440   1.046   7.442  0.6656 -0.5174  0.4919
36756SOL    HW213800   4.297   1.039   7.492  0.9134  0.4197  1.3605
36757SOL     OW13801   6.909   7.144   8.831 -0.3291 -0.2071 -0.0053
36757SOL    HW113802   6.995   7.153   8.872 -0.6365  0.6681  0.4695
36757SOL    HW213803   6.909   7.208   8.760  0.5621 -2.3764 -2.0759
36758SOL     OW13804   7.713   4.867   1.448 -0.0397 -0.4514 -0.4883
36758SOL    HW113805   7.685   4.777   1.468  1.2227 -0.5287  1.1963
36758SOL    HW213806   7.708   4.873   1.353 -0.5630 -2.1685 -0.6076
36759SOL     OW13807   8.225   5.457   2.209 -0.3218 -0.3865  0.2330
36759SOL    HW113808   8.315   5.484   2.188 -0.5402 -1.2807 -2.2102
36759SOL    HW213809   8.182   5.538   2.235  0.8110  0.3434 -0.0702
36760SOL     OW13810   9.259   3.113   9.637  0.8182 -0.1823 -0.4249
36760SOL    HW113811   9.340   3.086   9.680 -0.6536 -0.0048  2.7640
36760SOL    HW213812   9.230   3.190   9.687 -1.7177 -0.7390 -0.8936
36761SOL     OW13813   3.673   8.043   6.254 -0.1918 -1.2815  0.2135
36761SOL    HW113814   3.587   8.079   6.235  0.0808 -0.2173  0.8806
36761SOL    HW213815   3.658   7.983   6.327 -0.2775 -0.5057  0.8577
36762SOL     OW13816  10.101  10.722   2.621  0.1569  0.2788  0.5659
36762SOL    HW113817  10.050  10.678   2.554  0.4772  0.5175  0.1602
36762SOL    HW213818  10.119  10.654   2.686  0.1568 -0.0497  0.2271
36763SOL     OW13819   3.882   3.732  10.880  0.4783 -1.5824 -0.2299
36763SOL    HW113820   3.879   3.650  10.929  2.4509 -1.3592  0.3169
36763SOL    HW213821   3.924   3.709  10.798 -0.8797 -1.5116 -0.9740
36764SOL     OW13822   8.570   5.705   4.310  0.1626  0.1039 -0.7857
36764SOL    HW113823   8.665   5.709   4.300  0.2118 -0.7131 -0.6881
36764SOL    HW213824   8.544   5.796   4.326  1.3342  0.0017  2.6109
36765SOL     OW13825   8.170   8.652   9.939 -0.0695 -0.7065 -0.1358
36765SOL    HW113826   8.211   8.566   9.936 -0.5563 -0.9182 -1.0799
36765SOL    HW213827   8.088   8.642   9.891 -0.3946  0.1537  0.1951
36766SOL     OW13828   5.089   4.032   8.637 -0.6222  0.0635  0.7334
36766SOL    HW113829   5.163   3.972   8.629 -0.7183  0.1450 -1.5408
36766SOL    HW213830   5.014   3.981   8.604 -1.5192  0.1303  2.5772
36767SOL     OW13831   9.434   6.461  10.123 -0.4566  0.2813  0.5762
36767SOL    HW113832   9.367   6.430  10.062 -0.1784 -2.2036  1.4197
36767SOL    HW213833   9.491   6.518  10.070 -0.7281 -1.0832 -1.2630
36768SOL     OW13834   5.144   9.392   7.321 -0.2347 -0.5162  0.2992
36768SOL    HW113835   5.132   9.333   7.246  1.8535 -0.6807  0.0087
36768SOL    HW213836   5.230   9.432   7.305 -0.5959  0.8680  1.6685
36769SOL     OW13837   2.873   2.302   7.206 -0.8007 -0.2557  0.1025
36769SOL    HW113838   2.850   2.383   7.252  0.9002 -0.4140  1.3559
36769SOL    HW213839   2.851   2.319   7.114 -1.2925  1.2986  0.4805
36770SOL     OW13840   8.550   8.853   4.901 -0.1771 -0.1573 -0.1116
36770SOL    HW113841   8.599   8.892   4.828 -0.7404 -0.7828 -0.8394
36770SOL    HW213842   8.483   8.801   4.859 -2.5384  1.9212  0.8363
36771SOL     OW13843  10.887   1.460   4.184 -0.1756 -0.0757  0.5732
36771SOL    HW113844  10.969   1.443   4.231 -0.7527 -0.0135  1.6333
36771SOL    HW213845  10.902   1.426   4.096  1.0629  0.1317  0.6890
36772SOL     OW13846   6.271   9.434   0.229 -0.3054 -0.0215 -0.2057
36772SOL    HW113847   6.356   9.463   0.262 -0.8309 -0.2163  1.4132
36772SOL    HW213848   6.210   9.502   0.258 -1.2609 -1.6616  1.9883
36773SOL     OW13849   1.160   3.184  10.584  0.0521 -0.4725 -0.3624
36773SOL    HW113850   1.222   3.230  10.528  1.6968  0.5905  2.1712
36773SOL    HW213851   1.194   3.094  10.587 -0.8223 -0.9062 -2.0387
36774SOL     OW13852   8.126   5.822   8.575 -0.8351 -0.0425 -0.0066
36774SOL    HW113853   8.104   5.729   8.582 -0.5798 -0.1785 -0.9109
36774SOL    HW213854   8.060   5.859   8.516  1.2543 -0.4712 -2.8125
36775SOL     OW13855  10.745   8.244   4.362  0.1301 -0.7699  0.2116
36775SOL    HW113856  10.811   8.177   4.342  0.6340 -1.6325  4.0077
36775SOL    HW213857  10.728   8.234   4.456 -1.2430  3.1810  0.5814
36776SOL     OW13858   9.431   9.748   0.752 -0.5174  0.2569 -0.8565
36776SOL    HW113859   9.337   9.738   0.767 -0.5717 -1.0546 -1.8637
36776SOL    HW213860   9.459   9.815   0.815 -2.1846  0.9632 -0.8199
36777SOL     OW13861   3.949   2.822   9.335  0.1735 -0.0963  0.5833
36777SOL    HW113862   3.956   2.889   9.403  0.7422  0.3432  0.0934
36777SOL    HW213863   3.896   2.754   9.375  1.6163 -0.4613  1.9738
36778SOL     OW13864   1.609   2.503   4.238 -0.4151  0.1370 -0.0329
36778SOL    HW113865   1.656   2.462   4.166 -0.6248  0.4035 -0.3192
36778SOL    HW213866   1.524   2.526   4.202 -0.0799  1.3961 -0.0521
36779SOL     OW13867   8.167   4.498   8.964 -0.0200  0.4340  0.6663
36779SOL    HW113868   8.255   4.533   8.951 -0.0267  0.6973  1.2994
36779SOL    HW213869   8.158   4.431   8.895  0.7569  0.2399  0.7349
36780SOL     OW13870   7.528   5.842   8.075 -0.0039 -0.2120  0.1805
36780SOL    HW113871   7.458   5.879   8.022 -0.2817 -0.1667  0.5765
36780SOL    HW213872   7.579   5.918   8.103  0.2437 -0.2496 -0.1549
36781SOL     OW13873   1.023   8.003   3.621  0.3887  0.7302 -0.1972
36781SOL    HW113874   1.084   8.017   3.693  0.5652  1.8154 -0.5322
36781SOL    HW213875   0.993   8.091   3.597  0.3712  0.4067 -1.4688
36782SOL     OW13876  10.210   1.654   1.486  0.4596 -0.0008  0.0901
36782SOL    HW113877  10.230   1.598   1.561  0.8967  0.5253  0.3766
36782SOL    HW213878  10.139   1.711   1.516 -0.2038 -0.5995 -0.3051
36783SOL     OW13879   2.482   3.050   0.057  0.1709  0.2189  0.1326
36783SOL    HW113880   2.419   3.118   0.080  1.7039  1.6442  0.2683
36783SOL    HW213881   2.481   3.047  -0.038  0.7610  1.1192  0.0860
36784SOL     OW13882   9.356   5.251   4.363 -0.3054 -0.1525  0.0025
36784SOL    HW113883   9.371   5.208   4.447  0.2053 -0.6209 -0.3237
36784SOL    HW213884   9.393   5.191   4.298  0.0313  0.5696 -0.4895
36785SOL     OW13885   1.785   0.661   9.986 -0.1049  0.1645  0.3551
36785SOL    HW113886   1.880   0.657   9.977 -0.2358 -0.9468 -0.8250
36785SOL    HW213887   1.756   0.717   9.915 -0.2863  1.2333  1.2510
36786SOL     OW13888   3.962   7.026   3.897 -0.4701 -0.4265 -0.1332
36786SOL    HW113889   3.936   6.934   3.896 -0.6776 -0.3700  0.0234
36786SOL    HW213890   3.955   7.054   3.806  0.2037 -0.7326 -0.2918
36787SOL     OW13891  10.702   3.761   2.878 -0.2636  0.3205  0.0053
36787SOL    HW113892  10.694   3.687   2.938 -0.0141 -0.0953 -0.4645
36787SOL    HW213893  10.706   3.838   2.935  1.1948 -0.1567  0.5876
36788SOL     OW13894   5.514   1.210   8.570  0.3722  0.5048  0.4927
36788SOL    HW113895   5.575   1.273   8.609 -0.5171  1.3352  0.5568
36788SOL    HW213896   5.560   1.176   8.493  0.7955  1.3368  0.3771
36789SOL     OW13897   6.761   0.084   8.791 -0.5184 -0.7677  0.7446
36789SOL    HW113898   6.818   0.160   8.782 -0.9815 -0.6379 -1.4857
36789SOL    HW213899   6.822   0.010   8.796  0.0436 -0.8472 -3.5740
36790SOL     OW13900   9.725   2.738   1.455 -0.1159  0.0828  0.0112
36790SOL    HW113901   9.746   2.775   1.541  0.5502 -1.1153  0.3996
36790SOL    HW213902   9.804   2.689   1.431 -0.9128 -0.9953 -0.4992
36791SOL     OW13903   5.962   9.010   8.901 -0.0523  0.5557  0.8992
36791SOL    HW113904   5.961   9.105   8.891  1.9704  0.5937  0.7774
36791SOL    HW213905   6.031   8.993   8.964 -0.3444 -0.8604  0.8773
36792SOL     OW13906   3.499   9.572   9.330 -0.3662  0.1499  0.4919
36792SOL    HW113907   3.536   9.605   9.249  1.8245 -2.5367  0.2526
36792SOL    HW213908   3.533   9.631   9.398  1.2107  0.0375 -0.1623
36793SOL     OW13909   9.704  10.312   9.284  0.7486  0.1257 -0.0096
36793SOL    HW113910   9.677  10.304   9.192 -1.7668  0.3336  0.6354
36793SOL    HW213911   9.718  10.406   9.296 -0.7976  0.3475  0.2515
36794SOL     OW13912  10.625   9.415   4.716 -0.1353  0.2066 -0.3254
36794SOL    HW113913  10.652   9.465   4.793 -3.3532  2.5820 -0.5085
36794SOL    HW213914  10.673   9.456   4.643  1.1770 -0.5244  0.0954
36795SOL     OW13915   1.874   7.178   7.833  0.1292 -0.4181  0.0310
36795SOL    HW113916   1.787   7.203   7.866  0.8859  0.8626  1.1830
36795SOL    HW213917   1.891   7.093   7.872 -0.1449 -0.1489  0.7638
36796SOL     OW13918   4.449   3.107   9.953  0.3766 -0.4220  0.3604
36796SOL    HW113919   4.470   3.019   9.923 -0.2043 -0.4131 -0.1024
36796SOL    HW213920   4.373   3.133   9.900 -0.8070 -0.4714  1.9632
36797SOL     OW13921   3.922  10.579   2.539 -0.1676 -0.4149 -0.4123
36797SOL    HW113922   3.930  10.484   2.526 -3.4679 -0.7305 -1.2602
36797SOL    HW213923   3.850  10.587   2.602  0.5781  1.5542  0.2386
36798SOL     OW13924   0.045   2.339   3.852 -0.1183  0.0308 -0.1558
36798SOL    HW113925   0.097   2.302   3.924  1.8226  0.3982 -1.2939
36798SOL    HW213926  -0.044   2.309   3.869  0.4082 -0.5167  1.9781
36799SOL     OW13927   6.820   8.972   5.586 -0.3161  0.1124 -0.6706
36799SOL    HW113928   6.805   9.000   5.676 -0.8421 -0.2457 -0.6438
36799SOL    HW213929   6.852   9.050   5.541 -1.3643  0.6675 -0.4944
36800SOL     OW13930   1.228   4.089   5.862 -0.0943  0.7684 -0.2569
36800SOL    HW113931   1.172   4.072   5.938  0.6474  0.8550  0.3156
36800SOL    HW213932   1.297   4.023   5.867 -0.5116  0.2216 -1.3531
36801SOL     OW13933   8.745   6.518   6.058 -0.6957  0.2225  0.5335
36801SOL    HW113934   8.784   6.461   5.992 -1.1469  0.6965 -0.1566
36801SOL    HW213935   8.766   6.476   6.142 -0.3428 -0.5253  0.0798
36802SOL     OW13936   7.553   4.085   9.183 -0.6282  0.1643  0.0273
36802SOL    HW113937   7.563   4.121   9.271 -1.9128 -1.3890  0.8569
36802SOL    HW213938   7.461   4.056   9.179 -0.7784  0.7395 -2.0437
36803SOL     OW13939   6.836   7.237   8.145 -0.3777 -0.4017  0.1305
36803SOL    HW113940   6.778   7.164   8.167 -1.1035  0.1331  0.0291
36803SOL    HW213941   6.880   7.209   8.065  2.0953 -2.2689  1.9486
36804SOL     OW13942   1.940   3.671   9.883 -0.0733  0.0195  0.0795
36804SOL    HW113943   2.021   3.624   9.860 -0.5292 -1.6753  1.6572
36804SOL    HW213944   1.938   3.745   9.823  1.9476 -0.6474 -0.9341
36805SOL     OW13945   4.111   3.993   8.088  0.4445 -0.6816 -0.0881
36805SOL    HW113946   4.047   3.924   8.101 -0.9271  0.3996 -0.7927
36805SOL    HW213947   4.196   3.949   8.094 -0.3487 -2.1923  0.6477
36806SOL     OW13948   4.082   8.031   5.349  0.2779  0.1050 -0.1165
36806SOL    HW113949   4.113   8.070   5.267  0.5599  0.1099 -0.0107
36806SOL    HW213950   4.010   7.974   5.324 -0.8885  1.5307 -0.1580
36807SOL     OW13951   8.869  10.185   0.212 -0.1872  0.2391 -0.1531
36807SOL    HW113952   8.859  10.090   0.214 -2.2767  0.2802 -2.7527
36807SOL    HW213953   8.947  10.200   0.160  0.4428 -0.0347  0.6991
36808SOL     OW13954   8.282  11.084  10.280 -0.4278 -0.3879 -0.2875
36808SOL    HW113955   8.309  11.160  10.229  0.0912 -0.9132 -0.8042
36808SOL    HW213956   8.198  11.110  10.320 -0.8626  0.0106 -1.4297
36809SOL     OW13957   1.199   1.116   2.723  0.4767  0.5358 -0.0159
36809SOL    HW113958   1.264   1.103   2.653  1.5379 -0.9372  1.1645
36809SOL    HW213959   1.115   1.110   2.679  1.1070  1.3388 -1.4199
36810SOL     OW13960   6.060   1.503  10.031 -0.1381 -0.0533  0.1287
36810SOL    HW113961   6.147   1.534  10.003 -0.1339 -0.4417 -0.3114
36810SOL    HW213962   6.057   1.412  10.001 -0.0999 -0.5263  1.5169
36811SOL     OW13963  10.109   7.411   5.249 -0.2296  0.5671  0.0907
36811SOL    HW113964  10.137   7.487   5.301  0.0593 -0.0743  0.8878
36811SOL    HW213965  10.147   7.427   5.162 -0.2956  1.4027  0.2071
36812SOL     OW13966   2.997   0.924   7.783  0.0025  0.6496  0.2601
36812SOL    HW113967   2.963   0.840   7.814  0.5519  0.1453 -0.4712
36812SOL    HW213968   3.006   0.977   7.862 -1.5894  0.4926  0.5879
36813SOL     OW13969   1.113   4.862   3.365  0.3569 -0.0111  0.2116
36813SOL    HW113970   1.095   4.889   3.275 -0.2605 -1.5426 -0.1457
36813SOL    HW213971   1.208   4.852   3.369  0.3423 -0.4107 -0.4164
36814SOL     OW13972   4.115  11.027   4.577  0.0664  0.1479  0.0113
36814SOL    HW113973   4.121  11.010   4.483  1.2183 -1.0152  0.2655
36814SOL    HW213974   4.023  11.050   4.591 -0.9831 -3.0141 -0.9057
36815SOL     OW13975  10.561   1.477  10.379  0.2819  0.5925  0.4371
36815SOL    HW113976  10.558   1.393  10.424 -0.9162  0.1672 -0.3965
36815SOL    HW213977  10.470   1.505  10.374  0.6385  1.8034  0.4318
36816SOL     OW13978   6.159   8.492   4.803  0.1195 -0.4227  0.2984
36816SOL    HW113979   6.195   8.403   4.800  1.0786 -0.0407  0.1028
36816SOL    HW213980   6.145   8.515   4.712  0.5001 -0.1302  0.3117
36817SOL     OW13981  10.766   6.340   8.838  0.1204 -0.6472  0.1565
36817SOL    HW113982  10.809   6.334   8.753  1.7481 -0.2315  0.9201
36817SOL    HW213983  10.826   6.299   8.899 -0.1023  0.7913  1.4194
36818SOL     OW13984   9.203   0.262   3.466 -0.0025 -0.0531 -0.2135
36818SOL    HW113985   9.227   0.170   3.458 -2.2808 -0.9406  1.9096
36818SOL    HW213986   9.280   0.303   3.506  0.6333 -1.2697 -0.1418
36819SOL     OW13987   8.286   5.177   4.864  0.3560 -0.0598  0.5337
36819SOL    HW113988   8.216   5.236   4.838 -0.3839 -0.8731  0.6377
36819SOL    HW213989   8.314   5.209   4.950 -1.1175 -0.7766  1.3154
36820SOL     OW13990  10.745  10.311   9.106 -0.6877 -0.2189  0.9604
36820SOL    HW113991  10.838  10.326   9.089 -1.1827  2.3744  0.0260
36820SOL    HW213992  10.737  10.312   9.201  0.2134 -0.2580  1.0424
36821SOL     OW13993   9.594   5.465  10.698  0.2866 -0.3279 -0.0758
36821SOL    HW113994   9.536   5.488  10.771 -0.1843  0.1785 -0.6008
36821SOL    HW213995   9.541   5.480  10.620  1.9199  2.7769 -0.7407
36822SOL     OW13996   4.604   9.263   4.935 -0.2605 -0.0012 -0.2111
36822SOL    HW113997   4.585   9.214   5.015  2.8895 -2.2637 -0.6282
36822SOL    HW213998   4.672   9.325   4.960 -0.7868  0.8095 -0.7330
36823SOL     OW13999   4.213   2.930   8.120 -0.3894 -0.2109 -0.4781
36823SOL    HW114000   4.166   2.997   8.169 -0.4113 -2.2047  2.4784
36823SOL    HW214001   4.226   2.968   8.033 -0.0031  3.7553  1.1169
36824SOL     OW14002   2.885   0.009   0.091  0.4457 -0.4601 -0.5849
36824SOL    HW114003   2.972   0.041   0.069  0.5211 -0.3135 -0.0656
36824SOL    HW214004   2.825   0.066   0.042  0.6529 -0.9773 -1.4740
36825SOL     OW14005   5.661   5.096   3.040  0.2076  0.1843 -0.2418
36825SOL    HW114006   5.605   5.110   3.116  0.7342  1.5366 -0.0705
36825SOL    HW214007   5.614   5.136   2.967 -0.4564 -1.4052 -0.7368
36826SOL     OW14008   2.912   7.207   9.427  0.4057  0.2961 -0.1295
36826SOL    HW114009   3.005   7.219   9.407  0.6322 -2.7983 -1.4728
36826SOL    HW214010   2.909   7.186   9.520  1.2853 -1.0556 -0.3794
36827SOL     OW14011  10.835   9.192   1.299  0.4617 -0.2951  0.0690
36827SOL    HW114012  10.756   9.196   1.246  0.2845 -0.7370  0.2977
36827SOL    HW214013  10.852   9.099   1.311  0.5244 -0.2016  0.7541
36828SOL     OW14014  11.012   3.741   0.922  0.1822 -0.3004 -0.0310
36828SOL    HW114015  11.009   3.792   0.841 -2.2615  0.2823  0.3440
36828SOL    HW214016  11.090   3.772   0.967 -0.2180  1.8008 -0.6705
36829SOL     OW14017   5.151  10.189   3.815 -0.6580  0.1547 -0.3528
36829SOL    HW114018   5.207  10.256   3.776  0.3082 -0.8273 -0.7001
36829SOL    HW214019   5.152  10.117   3.752 -1.7454 -0.1565 -0.0225
36830SOL     OW14020   9.030   9.970   3.481  0.3212 -0.5650  0.1559
36830SOL    HW114021   9.021   9.891   3.535 -0.1750  0.5507  1.7965
36830SOL    HW214022   8.950   9.974   3.430  1.0787 -1.9894 -1.2116
36831SOL     OW14023   0.039   1.626   3.076  0.0269  0.0684  0.1500
36831SOL    HW114024   0.032   1.635   2.980  1.7665 -1.2338 -0.1365
36831SOL    HW214025   0.034   1.532   3.091 -0.8540  0.2983  1.4418
36832SOL     OW14026   7.963  10.868   5.479  0.3534 -0.4421  0.3002
36832SOL    HW114027   8.059  10.868   5.480  0.4221 -3.0356  1.5370
36832SOL    HW214028   7.939  10.933   5.546  1.1653  1.1151 -0.8562
36833SOL     OW14029   6.211   3.103   9.342 -0.1924 -0.2866 -0.0354
36833SOL    HW114030   6.144   3.171   9.336  1.1032  1.1720  1.1141
36833SOL    HW214031   6.266   3.131   9.415  0.8134 -2.2128 -0.0062
36834SOL     OW14032   3.809   0.490  10.516  0.5378  0.5496 -0.3551
36834SOL    HW114033   3.745   0.441  10.567  0.5470  0.8720 -0.0341
36834SOL    HW214034   3.757   0.536  10.450  0.2864  1.8230  0.6960
36835SOL     OW14035   4.162   7.946   8.428  0.5189  0.1782 -0.4457
36835SOL    HW114036   4.075   7.915   8.404  0.4965  0.1827 -0.3719
36835SOL    HW214037   4.161   7.948   8.524  0.8553 -0.5575 -0.4233
36836SOL     OW14038   7.391   7.139   4.144 -0.3996  0.2314 -0.7135
36836SOL    HW114039   7.405   7.149   4.238 -0.7795 -0.4736 -0.5723
36836SOL    HW214040   7.450   7.068   4.119  0.3828  1.0423 -1.1886
36837SOL     OW14041   2.748   2.019   6.366  0.1188  0.6632  0.1263
36837SOL    HW114042   2.796   2.012   6.448  1.5862  0.1523 -0.7410
36837SOL    HW214043   2.730   2.112   6.356  2.1900  1.0688 -0.1900
36838SOL     OW14044   2.083   6.998   8.839 -0.0066  0.1434 -0.1800
36838SOL    HW114045   2.025   7.075   8.838 -0.1387  0.0851  1.1963
36838SOL    HW214046   2.055   6.946   8.764 -1.6378  0.2012  0.3535
36839SOL     OW14047   3.335   4.710   4.038 -0.0151  0.2308  0.0528
36839SOL    HW114048   3.319   4.785   4.095  1.6400  0.0844  0.7853
36839SOL    HW214049   3.258   4.654   4.050  0.5284 -0.1143  2.7230
36840SOL     OW14050   4.649   8.473   6.317  0.4621  0.7248 -0.5191
36840SOL    HW114051   4.643   8.531   6.394 -0.1417  1.2873 -0.9752
36840SOL    HW214052   4.692   8.526   6.250 -2.6352  1.7668 -1.8935
36841SOL     OW14053  10.605   2.312   4.443  0.3125  0.2914 -0.1333
36841SOL    HW114054  10.589   2.240   4.504 -0.0381  2.0377  1.9551
36841SOL    HW214055  10.589   2.274   4.356  0.6981 -2.2585  0.8276
36842SOL     OW14056   9.765   8.423   4.525  0.0429  0.2250 -0.5110
36842SOL    HW114057   9.837   8.386   4.576  0.3845 -0.4692 -1.4563
36842SOL    HW214058   9.710   8.468   4.590  0.3120 -0.8510  0.5090
36843SOL     OW14059   5.732   3.489  11.103  0.1706  0.0733  1.1921
36843SOL    HW114060   5.776   3.486  11.189  0.6198 -0.3019  0.9520
36843SOL    HW214061   5.727   3.398  11.075  1.3803  0.2899  0.1493
36844SOL     OW14062   3.281   4.639   8.260 -0.2602  0.1944 -0.0628
36844SOL    HW114063   3.243   4.589   8.187  2.0296 -3.2015  0.8283
36844SOL    HW214064   3.210   4.647   8.323 -1.2330 -0.2072 -1.0711
36845SOL     OW14065   1.820   1.555   4.795 -0.3457  0.2570 -0.2997
36845SOL    HW114066   1.778   1.491   4.851  1.0382 -0.3233  0.1287
36845SOL    HW214067   1.761   1.565   4.720 -0.8001 -1.1892 -0.1536
36846SOL     OW14068   9.484   9.845   7.562 -0.2754  0.3879 -0.3931
36846SOL    HW114069   9.535   9.925   7.549 -1.8412  1.3879 -0.6802
36846SOL    HW214070   9.534   9.794   7.626  0.4762  1.8510  0.2310
36847SOL     OW14071   5.616   7.314   1.681 -0.3470  0.3791  0.3220
36847SOL    HW114072   5.604   7.303   1.587  2.0031 -0.4279  0.0505
36847SOL    HW214073   5.702   7.356   1.690 -0.4751  0.3692  2.1118
36848SOL     OW14074   8.155   5.648   0.468  0.5265  0.2570 -0.3262
36848SOL    HW114075   8.223   5.594   0.508 -0.8558  0.2239  2.1792
36848SOL    HW214076   8.199   5.690   0.393  2.7683 -1.1028  0.1255
36849SOL     OW14077   8.127   3.678   0.679 -0.8475 -0.6512  0.5861
36849SOL    HW114078   8.205   3.623   0.694 -0.4584 -0.4770 -0.6323
36849SOL    HW214079   8.148   3.761   0.720  0.6609  0.1998 -1.6691
36850SOL     OW14080  10.213   4.813   1.843  0.1160  0.0958 -0.2340
36850SOL    HW114081  10.141   4.874   1.831 -0.0805 -0.3532 -1.5251
36850SOL    HW214082  10.288   4.869   1.865 -0.4776  0.6113  0.5301
36851SOL     OW14083   2.283   5.500   3.306 -0.4833 -0.5300 -0.2711
36851SOL    HW114084   2.197   5.461   3.290 -0.1861 -2.0145  1.4729
36851SOL    HW214085   2.344   5.442   3.261 -0.0919 -1.8722  1.8415
36852SOL     OW14086   8.893   0.206  10.071 -0.3657 -0.2860  0.9735
36852SOL    HW114087   8.918   0.212   9.979 -1.3078  0.3108  0.7448
36852SOL    HW214088   8.798   0.194  10.070 -0.5712  1.0375  1.8781
36853SOL     OW14089   8.534   0.443   3.217  0.1333  0.1690 -0.1529
36853SOL    HW114090   8.554   0.533   3.191  0.5295 -0.4292 -2.0786
36853SOL    HW214091   8.503   0.401   3.136  1.7593 -1.9191  0.2136
36854SOL     OW14092   3.132   6.172   6.915  0.6644 -0.5847 -0.3273
36854SOL    HW114093   3.117   6.203   7.004 -0.5862 -0.2346 -0.6363
36854SOL    HW214094   3.191   6.237   6.876 -1.7657  1.4248 -0.9135
36855SOL     OW14095   3.536   2.941   1.184  0.0826  0.1973  0.0956
36855SOL    HW114096   3.554   3.003   1.113 -0.7615  1.5597  1.0309
36855SOL    HW214097   3.614   2.885   1.187  1.3748  1.9031 -0.0618
36856SOL     OW14098   7.362  10.182   2.664 -0.2907  0.0880  0.3379
36856SOL    HW114099   7.424  10.249   2.694  0.4105 -0.2238 -0.3730
36856SOL    HW214100   7.288  10.233   2.629  1.3400  0.6619 -2.6249
36857SOL     OW14101   9.342   4.125   8.523 -0.0031 -0.7741 -0.2549
36857SOL    HW114102   9.259   4.077   8.525 -0.2743 -0.3144 -0.1587
36857SOL    HW214103   9.368   4.124   8.431 -1.4451  1.2821 -0.7604
36858SOL     OW14104   9.106   6.632   2.718 -0.2405 -0.8419  0.3494
36858SOL    HW114105   9.131   6.704   2.661  0.2925 -1.2890  0.0144
36858SOL    HW214106   9.058   6.674   2.790  0.2251 -0.1405  0.2543
36859SOL     OW14107   3.458   6.907   7.566  0.2248 -0.1088 -0.0897
36859SOL    HW114108   3.460   6.874   7.656 -2.6507  1.8984  0.8479
36859SOL    HW214109   3.485   6.999   7.574  0.0136  0.0758 -1.3012
36860SOL     OW14110  10.874   2.223  10.878 -0.3475  0.6580  0.3333
36860SOL    HW114111  10.830   2.153  10.830 -0.5179  0.6162  0.5513
36860SOL    HW214112  10.820   2.238  10.955 -1.2386  2.1853 -0.5388
36861SOL     OW14113   2.263   2.562   4.105  0.1339 -0.5560  0.5414
36861SOL    HW114114   2.276   2.473   4.139 -1.1531 -0.3512  1.7082
36861SOL    HW214115   2.257   2.616   4.184  2.4449  0.8498 -0.1750
36862SOL     OW14116   4.719   9.827   9.524  0.8787  0.3348 -0.5050
36862SOL    HW114117   4.693   9.894   9.461 -0.2612  1.6160  1.2369
36862SOL    HW214118   4.647   9.764   9.523  0.8810  0.3331 -0.5297
36863SOL     OW14119   3.278   2.733   1.621 -0.4734  0.1709 -0.7941
36863SOL    HW114120   3.313   2.771   1.540  1.4587 -2.2203 -1.1899
36863SOL    HW214121   3.226   2.658   1.593 -0.3285 -0.3012  0.1474
36864SOL     OW14122   6.856   4.784   3.311 -0.3200  0.3260  0.2189
36864SOL    HW114123   6.878   4.858   3.254 -1.2470  1.0707  0.7784
36864SOL    HW214124   6.848   4.824   3.398  0.0680 -0.6073  0.6902
36865SOL     OW14125   7.994   5.019   4.115  0.1206 -0.4104 -0.1677
36865SOL    HW114126   8.033   5.003   4.200  1.2947 -0.7454 -0.7585
36865SOL    HW214127   8.046   4.968   4.054  0.2971  1.0593 -1.3022
36866SOL     OW14128   5.931   9.231   0.895  0.0356  0.4658 -0.0420
36866SOL    HW114129   5.861   9.296   0.892  0.3343  0.7778 -0.2189
36866SOL    HW214130   5.999   9.266   0.838  0.5910  0.4563  0.6048
36867SOL     OW14131   0.859   2.115   0.341 -0.0358  0.3087 -0.3759
36867SOL    HW114132   0.914   2.112   0.420 -0.5006  0.8451 -0.0245
36867SOL    HW214133   0.806   2.194   0.352  0.7775  1.0830 -1.8280
36868SOL     OW14134   3.975   7.709   7.703 -0.5174  0.1735  0.3112
36868SOL    HW114135   3.978   7.784   7.762 -0.4680 -1.2566  2.2205
36868SOL    HW214136   4.067   7.694   7.679 -0.4498  0.2872  0.4976
36869SOL     OW14137  10.071   1.980   9.316 -0.3673 -0.8914 -0.4141
36869SOL    HW114138  10.034   2.021   9.394  1.1158 -3.5171  1.8813
36869SOL    HW214139  10.160   1.956   9.342  0.1736 -1.8909 -2.9296
36870SOL     OW14140   9.629   8.434   0.229 -0.1443 -0.3852  0.5711
36870SOL    HW114141   9.665   8.480   0.153  2.3303 -2.3466  0.4123
36870SOL    HW214142   9.649   8.491   0.303  0.3027  0.0937  0.0873
36871SOL     OW14143   4.536   0.284   6.382 -0.4620 -0.3305 -0.5382
36871SOL    HW114144   4.523   0.260   6.474  1.2110 -2.7608 -0.8228
36871SOL    HW214145   4.622   0.327   6.381 -0.4081 -0.4432 -0.9727
36872SOL     OW14146   3.196   6.609   9.986 -0.4104 -0.6026 -0.3650
36872SOL    HW114147   3.190   6.699  10.018 -1.5904 -1.6310  2.7781
36872SOL    HW214148   3.105   6.585   9.967 -0.0341 -0.9682 -1.7523
36873SOL     OW14149   7.569   3.589   3.421 -0.5496  0.1333  0.2770
36873SOL    HW114150   7.615   3.588   3.505 -0.6725 -0.1656  0.3408
36873SOL    HW214151   7.635   3.620   3.359  0.3424 -2.0561  0.0198
36874SOL     OW14152   4.834   9.270   7.496 -0.1504  0.2431 -0.5755
36874SOL    HW114153   4.890   9.233   7.564  1.2467  1.2445 -1.1395
36874SOL    HW214154   4.764   9.206   7.485 -0.1599 -0.1620  1.4657
36875SOL     OW14155   7.086   4.334   6.901 -0.3127  0.1137 -0.5334
36875SOL    HW114156   7.054   4.410   6.853  2.5227  2.4364  0.9039
36875SOL    HW214157   7.175   4.321   6.868  1.4149  1.2149  3.1072
36876SOL     OW14158   8.212   1.264   2.891 -0.1753  0.0129  0.0332
36876SOL    HW114159   8.118   1.271   2.876 -0.4777 -1.9396  0.6629
36876SOL    HW214160   8.245   1.216   2.814  0.5140  1.6158 -0.7095
36877SOL     OW14161   3.526   9.791   1.657 -0.1222  0.4172 -0.1494
36877SOL    HW114162   3.498   9.719   1.600 -0.4623  1.2568 -1.0685
36877SOL    HW214163   3.544   9.749   1.741 -1.7670 -0.5411 -0.2256
36878SOL     OW14164   1.182   1.688   2.398  0.2186 -0.4345  0.4178
36878SOL    HW114165   1.197   1.769   2.447 -0.9565  1.0517 -1.5441
36878SOL    HW214166   1.199   1.711   2.307 -1.1687 -2.0963 -0.3264
36879SOL     OW14167   3.221   3.140   3.349  0.0491  0.3407 -0.1946
36879SOL    HW114168   3.207   3.049   3.377  2.0882 -0.0766 -0.3912
36879SOL    HW214169   3.261   3.182   3.425  1.1632  0.4750 -0.8451
36880SOL     OW14170   6.309   5.877   1.240 -0.0442  0.2504  0.2600
36880SOL    HW114171   6.322   5.873   1.334 -0.1726 -0.2832  0.2558
36880SOL    HW214172   6.395   5.902   1.205  0.2570 -0.4921  0.4471
36881SOL     OW14173   4.412   9.515   0.163 -0.2301  0.0839 -0.3875
36881SOL    HW114174   4.327   9.485   0.195 -0.2798  0.1297 -0.4747
36881SOL    HW214175   4.391   9.590   0.107 -0.3890 -1.3100 -2.3332
36882SOL     OW14176   5.522   8.677   1.832 -0.0326 -0.0565 -0.5398
36882SOL    HW114177   5.488   8.729   1.759 -0.8010 -1.3768 -1.1524
36882SOL    HW214178   5.509   8.586   1.805 -0.0274 -0.5733  1.1159
36883SOL     OW14179   9.405   6.377   3.017  0.0283  0.1206  0.5359
36883SOL    HW114180   9.401   6.448   3.081  1.3073 -0.5109  1.3358
36883SOL    HW214181   9.373   6.417   2.936 -0.9839  1.1105  1.3837
36884SOL     OW14182   2.951  10.267   1.277  0.0301 -0.2121  0.2145
36884SOL    HW114183   3.008  10.344   1.268  0.5139 -0.6249 -0.2989
36884SOL    HW214184   2.882  10.280   1.212  0.3853 -0.4520 -0.2096
36885SOL     OW14185   8.216   3.539   7.690 -0.5641  1.0026  0.3064
36885SOL    HW114186   8.303   3.503   7.673 -1.2528  0.0156 -1.2572
36885SOL    HW214187   8.204   3.606   7.623 -1.5789  0.1013 -0.4428
36886SOL     OW14188   4.397   1.375   7.394 -0.1674 -0.0777 -0.3622
36886SOL    HW114189   4.394   1.279   7.390 -0.5671 -0.0465 -1.0871
36886SOL    HW214190   4.421   1.395   7.484 -1.2373 -0.8432  0.1236
36887SOL     OW14191  10.694   0.683   1.767  0.0555  0.1389 -0.1935
36887SOL    HW114192  10.633   0.718   1.702 -1.6110 -0.7080  0.8376
36887SOL    HW214193  10.780   0.709   1.735 -0.8735  2.5170 -1.0545
36888SOL     OW14194   4.483  10.953   7.590 -0.0640 -0.4993 -0.5645
36888SOL    HW114195   4.552  11.015   7.565  0.9692 -1.6433 -0.6667
36888SOL    HW214196   4.449  10.920   7.508  0.0376 -0.7407 -0.5122
36889SOL     OW14197   6.232   2.732   9.338 -0.3078  0.2775 -0.1383
36889SOL    HW114198   6.240   2.730   9.433 -0.0620 -1.1546 -0.1707
36889SOL    HW214199   6.186   2.814   9.320 -0.3679  0.5676  1.2068
36890SOL     OW14200   1.051   5.717   7.315  0.2503  0.0331 -0.0731
36890SOL    HW114201   1.129   5.695   7.264 -0.7260 -0.1823 -1.5301
36890SOL    HW214202   0.992   5.758   7.252 -0.3350  1.3297  1.2853
36891SOL     OW14203   4.726   7.161   1.914 -0.1034 -0.3873 -0.3567
36891SOL    HW114204   4.783   7.223   1.869  0.3994 -1.2072 -0.8631
36891SOL    HW214205   4.644   7.210   1.929  1.0670  1.1821  1.3688
36892SOL     OW14206   0.716   3.327   3.258  0.8776  0.2201  0.6278
36892SOL    HW114207   0.697   3.352   3.348  3.4719  0.2373  1.2370
36892SOL    HW214208   0.755   3.406   3.219  0.9610 -0.1877 -0.1419
36893SOL     OW14209   2.231   3.594   5.598  0.2427 -0.1342  0.5801
36893SOL    HW114210   2.171   3.565   5.529 -0.2887 -0.1281  1.0301
36893SOL    HW214211   2.318   3.570   5.566  0.0384  0.1857 -0.2497
36894SOL     OW14212   8.100   1.744  10.769 -0.0187  0.3305 -0.5246
36894SOL    HW114213   8.074   1.833  10.793 -1.0052 -0.1426  0.2453
36894SOL    HW214214   8.056   1.727  10.686 -0.0713  0.4547 -0.5218
36895SOL     OW14215   0.642   4.504   6.932  0.2954 -0.3448 -0.2360
36895SOL    HW114216   0.583   4.475   6.864 -0.0869 -1.3456  0.5035
36895SOL    HW214217   0.727   4.512   6.889 -0.3419  1.1801 -1.3273
36896SOL     OW14218  10.163   0.200  10.227 -0.7592 -1.5215  0.3028
36896SOL    HW114219  10.157   0.238  10.140  0.3870 -0.6176  0.5920
36896SOL    HW214220  10.218   0.123  10.216  2.6281  0.6144  0.7487
36897SOL     OW14221   7.000   0.593   8.862  0.1081  0.0346 -0.2069
36897SOL    HW114222   7.037   0.674   8.826  1.5599  0.2396  1.5857
36897SOL    HW214223   7.077   0.541   8.887 -0.8156 -1.3714 -0.1714
36898SOL     OW14224   4.689   8.113   8.936 -0.0219  0.0531  0.0690
36898SOL    HW114225   4.743   8.106   8.857 -0.8532  0.6958 -0.5736
36898SOL    HW214226   4.711   8.036   8.987  1.5227  0.3081 -0.1686
36899SOL     OW14227   6.714   6.240   6.723 -0.3592  0.0047  0.2978
36899SOL    HW114228   6.712   6.321   6.773 -0.0628  0.7001 -0.7825
36899SOL    HW214229   6.796   6.244   6.674  0.1148 -1.3834  0.9111
36900SOL     OW14230   7.647   7.912   8.863  0.3582  0.8601  0.6058
36900SOL    HW114231   7.690   7.849   8.805 -1.1484  0.7743 -0.4743
36900SOL    HW214232   7.602   7.858   8.928  0.3126  0.8649  0.5790
36901SOL     OW14233   2.438   0.160   5.802  0.3668  0.5210 -0.4160
36901SOL    HW114234   2.415   0.153   5.709  1.3261  2.3912 -0.8582
36901SOL    HW214235   2.383   0.231   5.835 -0.2492 -0.3850  0.5820
36902SOL     OW14236   5.246   4.542   2.260 -0.5866 -0.2402  0.0442
36902SOL    HW114237   5.303   4.465   2.260 -1.2940 -0.7835  0.1287
36902SOL    HW214238   5.216   4.549   2.170  0.0053  0.3516 -0.1120
36903SOL     OW14239   8.489   6.529   1.288 -0.0834  0.1781  0.4459
36903SOL    HW114240   8.512   6.584   1.363  0.0519  0.5494  0.1392
36903SOL    HW214241   8.498   6.587   1.212  1.3659 -0.6057 -0.0246
36904SOL     OW14242  11.124   2.212   1.934  0.3409  0.2490  0.0479
36904SOL    HW114243  11.182   2.218   1.859  0.4599 -0.0065  0.1169
36904SOL    HW214244  11.046   2.263   1.910 -0.5633 -1.5767 -1.1135
36905SOL     OW14245   6.126   6.230   3.342  0.1453 -0.6995 -0.4526
36905SOL    HW114246   6.195   6.193   3.398 -0.3621 -0.1772  0.5382
36905SOL    HW214247   6.044   6.203   3.383 -0.3149 -2.2026 -2.1934
36906SOL     OW14248   0.443   0.901   4.919 -0.5513  0.5151  0.4916
36906SOL    HW114249   0.463   0.819   4.874 -0.0470  1.0622 -0.3190
36906SOL    HW214250   0.502   0.965   4.879  0.1494  0.9712  2.1531
36907SOL     OW14251   3.059  11.012   3.260  0.5281 -0.4354 -0.1459
36907SOL    HW114252   3.136  10.962   3.234  0.0200 -1.9046  1.0876
36907SOL    HW214253   2.991  10.947   3.274 -0.3386  0.6440  0.8889
36908SOL     OW14254  10.825   2.891   8.576 -0.9352  0.0743 -0.3410
36908SOL    HW114255  10.868   2.842   8.506 -0.2256  0.6176 -0.2947
36908SOL    HW214256  10.830   2.983   8.547 -1.1478  0.2410  0.1522
36909SOL     OW14257   0.393   4.414   6.809  0.7406  0.0859 -0.1934
36909SOL    HW114258   0.359   4.385   6.725 -2.2041 -0.4549  1.0514
36909SOL    HW214259   0.354   4.354   6.873 -0.8486  3.1469  1.9541
36910SOL     OW14260   0.338   5.008   0.435  0.2250  1.1122 -0.3157
36910SOL    HW114261   0.409   5.059   0.474  1.0959 -1.5213  1.9074
36910SOL    HW214262   0.349   5.021   0.341  1.6037  3.3377  0.0647
36911SOL     OW14263   8.203   2.499   1.311  0.3780 -0.2389  0.0346
36911SOL    HW114264   8.228   2.582   1.352 -2.5827  0.6586  0.1962
36911SOL    HW214265   8.176   2.443   1.383  1.1731 -0.9400 -0.1911
36912SOL     OW14266   0.029   6.692   7.428  0.0225  0.2303 -0.1541
36912SOL    HW114267   0.057   6.759   7.366 -0.8330 -0.0916 -0.9180
36912SOL    HW214268  -0.066   6.700   7.431  0.0694  0.5189  1.4633
36913SOL     OW14269   4.842   3.317   4.489 -0.2175 -0.5007 -0.5568
36913SOL    HW114270   4.802   3.395   4.450  0.1638 -0.3205 -0.5941
36913SOL    HW214271   4.768   3.262   4.514 -0.4853 -0.2285 -0.7404
36914SOL     OW14272   8.270   0.129   8.012  0.0751  0.3223  0.0422
36914SOL    HW114273   8.350   0.121   8.064 -0.9073  0.0156  1.5245
36914SOL    HW214274   8.273   0.054   7.953  0.1269 -0.5643  1.1466
36915SOL     OW14275   6.671  10.807   7.787  0.3954 -0.4294  0.6711
36915SOL    HW114276   6.595  10.772   7.833 -0.0180  0.5606  0.7853
36915SOL    HW214277   6.667  10.768   7.700 -0.1673 -0.4911  0.7201
36916SOL     OW14278  10.774   2.974  10.259  0.1665 -0.2041 -0.5284
36916SOL    HW114279  10.834   2.976  10.334 -0.7864  0.1262  0.2405
36916SOL    HW214280  10.799   2.894  10.211  0.4638 -0.6917  0.4079
36917SOL     OW14281   2.223   7.153   7.934  0.1448 -0.1709 -0.1579
36917SOL    HW114282   2.218   7.067   7.975 -0.1665  0.6013  1.5385
36917SOL    HW214283   2.168   7.209   7.989 -0.8780  0.8199 -2.0822
36918SOL     OW14284   9.411   2.839   0.377  0.0865  0.0888 -0.1761
36918SOL    HW114285   9.416   2.906   0.308  3.6074  0.7511  0.5601
36918SOL    HW214286   9.500   2.807   0.386 -1.1678 -3.5341  0.7630
36919SOL     OW14287   8.754   6.212   1.803 -0.0444  0.3723  0.9338
36919SOL    HW114288   8.774   6.149   1.733  1.0995  2.0829 -0.3727
36919SOL    HW214289   8.757   6.161   1.883 -0.1762 -1.4251 -0.1442
36920SOL     OW14290   6.494   0.970   0.325 -0.5089  0.5503  0.2792
36920SOL    HW114291   6.476   1.041   0.386  1.6455  0.9685  0.5111
36920SOL    HW214292   6.408   0.935   0.302 -1.4613  1.2899  2.4636
36921SOL     OW14293   0.505   5.116   5.380  0.2238 -0.3236  0.0529
36921SOL    HW114294   0.475   5.146   5.294 -0.5637  1.7785  0.9855
36921SOL    HW214295   0.601   5.119   5.375  0.1778 -0.0255 -0.7036
36922SOL     OW14296   9.869   0.162  11.116  0.0938  0.0960 -0.6006
36922SOL    HW114297   9.916   0.242  11.090  0.5993 -0.7242 -2.2977
36922SOL    HW214298   9.913   0.092  11.069 -1.3805 -0.9965 -0.4027
36923SOL     OW14299   6.722   4.538   3.249  0.0260 -0.5028 -0.2974
36923SOL    HW114300   6.753   4.521   3.160 -0.5029 -0.6099 -0.4648
36923SOL    HW214301   6.759   4.623   3.271  0.0397 -0.4076 -0.6798
36924SOL     OW14302   0.371  10.699   1.436 -0.0079  0.2241 -0.0637
36924SOL    HW114303   0.285  10.740   1.449  0.5375  0.8428  1.8331
36924SOL    HW214304   0.360  10.610   1.468  0.5053  0.8409  1.9472
36925SOL     OW14305   6.488   4.784   0.116  0.3981 -0.4212  0.9225
36925SOL    HW114306   6.520   4.754   0.201 -0.2513 -0.5054  1.1452
36925SOL    HW214307   6.476   4.879   0.128 -0.9389 -0.6231  1.3538
36926SOL     OW14308   4.650   0.715   4.663 -0.0179 -0.4788 -0.0589
36926SOL    HW114309   4.712   0.770   4.614 -3.0824  2.7637 -0.6886
36926SOL    HW214310   4.706   0.656   4.714  3.5491  1.8220 -0.9184
36927SOL     OW14311   2.787   6.823  10.556 -0.2258 -0.0141  0.5321
36927SOL    HW114312   2.861   6.792  10.503 -0.6974  0.9411 -0.7071
36927SOL    HW214313   2.808   6.914  10.575 -1.4438  0.4968 -0.4925
36928SOL     OW14314   8.856  10.370   2.345 -0.5629 -0.1559 -0.1854
36928SOL    HW114315   8.824  10.437   2.286  0.8793  0.8080  0.0848
36928SOL    HW214316   8.899  10.418   2.416 -1.3483 -1.3092  1.1286
36929SOL     OW14317   5.621  10.108   0.377 -0.2528 -0.2985  0.4233
36929SOL    HW114318   5.682  10.182   0.386 -0.5981  0.0414  0.0293
36929SOL    HW214319   5.635  10.077   0.288 -1.1912  0.2745  0.0613
36930SOL     OW14320   9.214   1.031   7.903  0.5656 -0.1208 -0.1548
36930SOL    HW114321   9.193   0.939   7.916  1.2672  0.0303  2.7264
36930SOL    HW214322   9.306   1.039   7.928  0.6620  1.2867 -0.8260
36931SOL     OW14323   1.467   5.613   0.695 -0.1648 -0.3082  0.2284
36931SOL    HW114324   1.448   5.528   0.655 -1.1949  0.2639 -0.5360
36931SOL    HW214325   1.539   5.595   0.756  1.6441 -1.1967 -1.9942
36932SOL     OW14326   0.853   5.649   5.603 -0.1026  0.2227 -0.0586
36932SOL    HW114327   0.935   5.606   5.578  0.2770  1.0855 -0.3370
36932SOL    HW214328   0.873   5.743   5.597 -1.7131  0.4898 -2.2709
36933SOL     OW14329   7.373   6.859  10.966 -0.5325  0.2344  0.0918
36933SOL    HW114330   7.349   6.777  10.924 -1.1492  0.3570  0.2005
36933SOL    HW214331   7.293   6.912  10.964 -0.0465  0.9717 -0.3070
36934SOL     OW14332   0.774   4.881   7.720 -0.0559 -0.9260 -0.2079
36934SOL    HW114333   0.799   4.807   7.664  0.6931 -0.9904  0.2004
36934SOL    HW214334   0.833   4.875   7.795 -2.3310 -2.0391  1.6360
36935SOL     OW14335   5.974   9.915   8.307  0.1802 -0.4076  0.3399
36935SOL    HW114336   5.980  10.000   8.263  3.3769 -0.7659 -0.2166
36935SOL    HW214337   6.014   9.930   8.392  1.6476 -1.4887 -0.1138
36936SOL     OW14338   8.884   5.921   0.016 -0.2729  0.1261 -0.2220
36936SOL    HW114339   8.823   5.853  -0.012  0.5154 -1.0247  0.7522
36936SOL    HW214340   8.970   5.890  -0.015  0.4704 -0.6358  2.4031
36937SOL     OW14341   3.950  10.553   1.296 -0.6482 -0.1659  0.7218
36937SOL    HW114342   3.917  10.519   1.213 -1.2746 -0.9639  1.2901
36937SOL    HW214343   4.020  10.493   1.321 -0.3508  0.1665  0.6976
36938SOL     OW14344   7.051   6.109   8.842  0.0888  0.3385  0.3197
36938SOL    HW114345   7.136   6.076   8.813 -0.3676  0.2971 -1.0550
36938SOL    HW214346   7.070   6.195   8.880  0.6174  0.8773 -1.0931
36939SOL     OW14347   4.417   0.930   2.750 -0.4120  0.4244  0.3719
36939SOL    HW114348   4.322   0.914   2.745 -0.2286 -0.6754  0.2363
36939SOL    HW214349   4.449   0.863   2.811  0.2859  0.7638  0.3794
36940SOL     OW14350  10.987   3.622   2.397 -0.1550 -0.7575  0.2431
36940SOL    HW114351  11.080   3.605   2.413  0.3541  2.6585  1.8117
36940SOL    HW214352  10.948   3.628   2.485 -1.6221 -1.0614 -0.3601
36941SOL     OW14353   6.148   7.173  10.239  0.2186  0.6802 -0.4666
36941SOL    HW114354   6.117   7.252  10.284 -0.5439  1.2758 -1.9922
36941SOL    HW214355   6.096   7.102  10.278 -0.5077  1.2023 -0.4652
36942SOL     OW14356   3.811   6.606   6.209 -0.0625 -0.1960 -0.0089
36942SOL    HW114357   3.791   6.537   6.273 -1.0340 -0.2900 -0.3971
36942SOL    HW214358   3.772   6.685   6.246  0.1567 -0.0664 -0.0549
36943SOL     OW14359   7.919  10.467   0.277 -0.4809 -0.0492  0.0326
36943SOL    HW114360   7.884  10.543   0.324  0.8474  1.5469 -1.3830
36943SOL    HW214361   7.931  10.499   0.187  0.0397 -1.9808 -0.6224
36944SOL     OW14362   6.414   0.259   0.671 -0.1223  0.4465  0.2658
36944SOL    HW114363   6.351   0.292   0.735 -0.7100  0.4540 -0.3015
36944SOL    HW214364   6.452   0.182   0.712  2.0100  2.3056  2.0501
36945SOL     OW14365   6.880   5.651   3.832 -0.4629  0.6724 -0.2589
36945SOL    HW114366   6.832   5.719   3.784  1.0434 -0.0105 -2.9199
36945SOL    HW214367   6.972   5.675   3.823 -0.0463 -0.0548  1.5289
36946SOL     OW14368   5.614   6.967   1.479 -0.8152 -0.0067 -0.3627
36946SOL    HW114369   5.708   6.967   1.465 -0.9903  1.5715 -1.8831
36946SOL    HW214370   5.597   6.888   1.530  1.0258 -1.6462 -2.1141
36947SOL     OW14371   6.618   2.329   9.659  0.5053 -0.7378  0.8665
36947SOL    HW114372   6.538   2.356   9.614  1.0435 -0.4318  0.0795
36947SOL    HW214373   6.688   2.377   9.615  1.0516 -0.4311  2.0404
36948SOL     OW14374   7.106   2.973   7.886  0.6354  0.0690 -0.0648
36948SOL    HW114375   7.137   3.064   7.885  2.3302 -0.4711  0.1828
36948SOL    HW214376   7.011   2.980   7.876  0.9387  1.7526 -3.0024
36949SOL     OW14377   3.525   3.063   0.882  0.1911 -0.1197 -0.0367
36949SOL    HW114378   3.555   2.977   0.856  1.3967 -0.1401  1.2991
36949SOL    HW214379   3.519   3.113   0.800  3.7392 -0.1694 -0.4965
36950SOL     OW14380   4.745   5.488   6.491  0.3400  0.4078  0.4878
36950SOL    HW114381   4.832   5.453   6.506  0.4270 -0.0722 -1.0048
36950SOL    HW214382   4.753   5.582   6.510  1.9229  0.9220 -2.2307
36951SOL     OW14383   4.682   0.121   5.724  0.4897 -0.5582 -0.1750
36951SOL    HW114384   4.713   0.034   5.746 -0.0689 -0.3449  1.6326
36951SOL    HW214385   4.586   0.113   5.719  0.4495 -0.0975 -0.2605
36952SOL     OW14386   1.015   5.793   2.353 -0.6432 -0.2189 -0.3652
36952SOL    HW114387   1.076   5.762   2.286  1.5808 -0.9355  1.8445
36952SOL    HW214388   0.929   5.766   2.321  0.3717 -0.9824 -2.6484
36953SOL     OW14389   1.321   8.771   0.311  0.2573 -0.4539 -0.0125
36953SOL    HW114390   1.396   8.825   0.285  0.1028 -0.3562 -0.2571
36953SOL    HW214391   1.256   8.787   0.243  0.5596 -1.6800 -0.6255
36954SOL     OW14392   5.159   0.506   3.106  0.1164  0.1921 -0.1167
36954SOL    HW114393   5.156   0.441   3.177  0.3397  1.1773  0.8149
36954SOL    HW214394   5.069   0.512   3.075  0.2870 -1.4687 -1.0865
36955SOL     OW14395   8.504   8.365   4.347  0.0580  0.1627 -0.4575
36955SOL    HW114396   8.546   8.292   4.303 -0.9473 -0.4102 -0.5004
36955SOL    HW214397   8.517   8.347   4.440  0.3275  0.2489 -0.4771
36956SOL     OW14398  10.668   6.849   7.246 -0.1687 -0.5796  0.5201
36956SOL    HW114399  10.648   6.799   7.325 -0.1597 -0.6465  0.4805
36956SOL    HW214400  10.715   6.787   7.191  0.0338 -0.4605  0.5594
36957SOL     OW14401   0.953   9.569   4.237 -0.4312  0.1714  0.4866
36957SOL    HW114402   0.891   9.622   4.287 -0.4683 -0.0106  0.6381
36957SOL    HW214403   0.994   9.513   4.303  0.1939  0.5760  0.4526
36958SOL     OW14404   7.458   3.714   4.936  0.0875  0.2866  0.6036
36958SOL    HW114405   7.493   3.636   4.979  1.4081  0.7972  0.4953
36958SOL    HW214406   7.460   3.694   4.843 -1.7558 -0.4036  0.6694
36959SOL     OW14407  10.073   8.210   3.364  0.1886 -0.4570  0.2730
36959SOL    HW114408  10.097   8.118   3.356  0.1906 -0.3044 -2.8835
36959SOL    HW214409  10.149   8.257   3.329  0.0397  0.7549  1.4933
36960SOL     OW14410   7.059   3.598   5.139 -0.4052  0.3190  0.0433
36960SOL    HW114411   7.105   3.515   5.149  1.9044  1.5331  0.1098
36960SOL    HW214412   7.017   3.612   5.225  0.6002  0.0246  0.6018
36961SOL     OW14413   4.988   2.120   5.598  0.0163  0.3791 -0.3731
36961SOL    HW114414   4.945   2.082   5.521  1.7345  0.0395 -1.1944
36961SOL    HW214415   4.961   2.063   5.671 -0.5970 -0.0402 -0.9163
36962SOL     OW14416  10.852   8.609   0.153  0.2609  0.1798  0.2229
36962SOL    HW114417  10.848   8.514   0.138  1.5404 -0.1190  1.4400
36962SOL    HW214418  10.916   8.618   0.224  0.1220  1.9637  0.1548
36963SOL     OW14419   4.892   7.085   7.578 -0.4106  0.0493  0.4753
36963SOL    HW114420   4.975   7.083   7.625  0.0305  1.1882 -0.2081
36963SOL    HW214421   4.875   7.178   7.564 -2.5688 -0.0521  1.9079
36964SOL     OW14422   6.221   1.163   5.721 -0.2932 -0.1640 -0.8355
36964SOL    HW114423   6.165   1.176   5.644  0.5174  1.8986 -1.1579
36964SOL    HW214424   6.216   1.247   5.768  2.8397  0.3273 -1.1576
36965SOL     OW14425   1.245   1.806   6.765  0.5371 -0.0268 -0.0020
36965SOL    HW114426   1.222   1.898   6.756  0.0435 -0.2126 -0.6321
36965SOL    HW214427   1.290   1.784   6.684 -0.5513 -0.6929 -0.4446
36966SOL     OW14428   5.386   8.364  10.773  0.0737  0.3307 -0.6774
36966SOL    HW114429   5.411   8.351  10.865 -1.9561 -1.9452 -0.3482
36966SOL    HW214430   5.364   8.277  10.742  0.7299  1.0409 -3.4035
36967SOL     OW14431   9.755   6.174   1.149 -0.3287 -0.0371 -0.3097
36967SOL    HW114432   9.684   6.153   1.089 -1.6477 -1.1920  1.5630
36967SOL    HW214433   9.835   6.155   1.100 -1.3197  0.0055 -1.9974
36968SOL     OW14434  10.195   7.424   0.228  0.6209  0.2546  0.4604
36968SOL    HW114435  10.280   7.441   0.188  1.1210  0.2120  1.4770
36968SOL    HW214436  10.215   7.396   0.318 -0.4466 -0.0836  0.6124
36969SOL     OW14437   9.877   7.193  10.877  0.1070 -0.6940 -0.0489
36969SOL    HW114438   9.812   7.216  10.944 -0.5364 -0.5460 -0.7100
36969SOL    HW214439   9.940   7.264  10.879  0.5137 -1.0615  0.9163
36970SOL     OW14440  10.755  10.034   1.186  0.4082 -0.2460 -1.1040
36970SOL    HW114441  10.693  10.029   1.258 -0.4130 -1.9421 -1.8483
36970SOL    HW214442  10.744   9.951   1.139  1.5868  0.3910 -2.6259
36971SOL     OW14443   8.514  10.323   5.790  0.1727  0.1070  0.2219
36971SOL    HW114444   8.550  10.310   5.702  0.8113  1.2546  0.2940
36971SOL    HW214445   8.421  10.342   5.776  0.1033 -0.4753 -0.1407
36972SOL     OW14446   8.391   0.756   7.536 -0.7261  0.1121  0.2524
36972SOL    HW114447   8.391   0.795   7.623 -0.0926  0.0894  0.2731
36972SOL    HW214448   8.481   0.770   7.504 -0.6404 -0.8431  0.0466
36973SOL     OW14449   6.902   6.384   4.798  0.1638  0.1652 -0.4886
36973SOL    HW114450   6.815   6.349   4.814  0.6090 -0.5712  0.4157
36973SOL    HW214451   6.960   6.330   4.852  0.9873  1.7194  0.2501
36974SOL     OW14452   2.175   7.633   5.084  0.4434 -0.1189  0.3776
36974SOL    HW114453   2.149   7.637   4.992  0.1330  0.0043  0.4695
36974SOL    HW214454   2.117   7.696   5.128  1.0512  0.3273  0.5471
36975SOL     OW14455   0.170   1.603   5.764 -0.1159  0.1541  0.2171
36975SOL    HW114456   0.245   1.567   5.811 -1.0082  0.7730  2.2040
36975SOL    HW214457   0.108   1.530   5.758 -0.0326  0.0954  0.0736
36976SOL     OW14458   0.423   3.038   6.242  0.4460 -0.4622 -0.8199
36976SOL    HW114459   0.424   3.132   6.259  0.7874 -0.7804  1.1236
36976SOL    HW214460   0.345   3.025   6.187 -0.3769  0.7808  0.0032
36977SOL     OW14461   3.847   0.771   4.069  0.5425  0.1995  0.0694
36977SOL    HW114462   3.829   0.758   3.975  0.2857  0.3501  0.0950
36977SOL    HW214463   3.865   0.684   4.103 -3.8176 -0.6468  0.8038
36978SOL     OW14464   2.663   9.032   5.479 -0.3002 -0.1917  0.1763
36978SOL    HW114465   2.664   8.970   5.407  1.0784 -0.4588  0.4065
36978SOL    HW214466   2.687   9.116   5.439  0.0368 -0.2546  0.2438
36979SOL     OW14467   5.218   4.821   8.180  0.0110 -0.4199 -0.0678
36979SOL    HW114468   5.307   4.856   8.177  0.5272 -1.2631  2.5088
36979SOL    HW214469   5.229   4.728   8.200 -1.4477 -0.8644 -1.1229
36980SOL     OW14470  10.678   9.876   6.283  0.1453 -0.6061 -0.0560
36980SOL    HW114471  10.768   9.845   6.271  0.1164 -0.3752 -0.8856
36980SOL    HW214472  10.688   9.962   6.323  0.2698 -0.8808  0.5152
36981SOL     OW14473   2.942   2.048   6.558  0.0447  0.4467  0.7963
36981SOL    HW114474   2.967   1.972   6.610 -0.1879  0.0187  0.2992
36981SOL    HW214475   2.874   2.091   6.608 -2.1149 -1.4475 -0.3193
36982SOL     OW14476  10.141   7.304   7.047 -0.2948 -0.1280 -0.3253
36982SOL    HW114477  10.122   7.369   7.115 -1.0930  1.1572 -1.7009
36982SOL    HW214478  10.235   7.313   7.031  0.0087 -0.8347  0.9660
36983SOL     OW14479   8.111   5.784  10.145 -0.4491  0.1298 -0.4470
36983SOL    HW114480   8.110   5.691  10.121  0.6168 -0.2104  0.6979
36983SOL    HW214481   8.204   5.805  10.154 -0.7215  0.8212  1.0924
36984SOL     OW14482   4.484   4.678   2.861  0.0866 -0.2478 -0.2923
36984SOL    HW114483   4.544   4.611   2.828 -0.4934 -0.7975 -0.2638
36984SOL    HW214484   4.408   4.672   2.803  0.5467  1.2852 -1.0902
36985SOL     OW14485   6.293   9.916   0.343  0.1335  0.1932  0.9469
36985SOL    HW114486   6.218   9.869   0.307 -0.1264  0.1026  1.5989
36985SOL    HW214487   6.353   9.926   0.268 -1.5472  2.3911 -0.1969
36986SOL     OW14488   9.107   2.302   6.649 -0.1577 -0.7241 -0.0843
36986SOL    HW114489   9.121   2.386   6.605  0.5940 -0.5722  0.4304
36986SOL    HW214490   9.012   2.294   6.654 -0.2664  0.7986  1.1609
36987SOL     OW14491  10.379   2.446   1.543  0.7599 -0.4767  0.1178
36987SOL    HW114492  10.455   2.455   1.484  1.7188 -1.4128  1.1669
36987SOL    HW214493  10.417   2.423   1.627 -0.7748 -2.5289  0.3242
36988SOL     OW14494   3.761   7.471   6.554  0.1596  0.7714  0.6900
36988SOL    HW114495   3.704   7.418   6.609 -0.5851  2.0843  1.2395
36988SOL    HW214496   3.706   7.498   6.480  0.3065  1.3271  0.7744
36989SOL     OW14497   7.949   6.751   4.923 -0.5358  0.2740  0.3191
36989SOL    HW114498   7.982   6.839   4.939  0.5907 -0.1855  0.6318
36989SOL    HW214499   7.874   6.764   4.866  0.8632  1.3077 -1.3906
36990SOL     OW14500   6.738   8.302   4.339  0.1517  0.4015  0.5761
36990SOL    HW114501   6.677   8.320   4.267 -0.2738 -2.8279 -0.0182
36990SOL    HW214502   6.819   8.348   4.314  0.4364 -1.5425 -2.7160
36991SOL     OW14503   3.365   1.301   9.062  0.1321  0.3921  0.0556
36991SOL    HW114504   3.345   1.310   8.969  2.1246  2.3826 -0.2710
36991SOL    HW214505   3.389   1.209   9.074 -1.3458 -0.1702 -1.1043
36992SOL     OW14506   6.352   8.592   9.617  0.1618 -0.0351 -0.1426
36992SOL    HW114507   6.332   8.682   9.590  1.0867  0.1722 -0.1617
36992SOL    HW214508   6.415   8.602   9.688  0.2324 -0.6748 -0.1121
36993SOL     OW14509   6.875   3.271   6.224 -0.1492  0.2541 -0.3182
36993SOL    HW114510   6.947   3.335   6.220 -0.0441  0.4123  2.4682
36993SOL    HW214511   6.910   3.194   6.180  2.1081  0.0569  1.6239
36994SOL     OW14512   9.059   8.021   8.816  0.2557 -0.1155 -0.3710
36994SOL    HW114513   9.076   8.098   8.870 -0.6439 -0.4569  0.4174
36994SOL    HW214514   8.967   8.028   8.792  0.0093 -1.2355  0.1921
36995SOL     OW14515  10.902   6.515   4.581  0.6306  0.2996 -0.1471
36995SOL    HW114516  10.991   6.481   4.575  0.6190  0.0353  0.9383
36995SOL    HW214517  10.852   6.463   4.517  1.5221  1.4840 -1.9004
36996SOL     OW14518   0.584   4.688   6.593  0.4330 -0.3968  0.3338
36996SOL    HW114519   0.655   4.747   6.618  0.0123  1.5411 -2.6254
36996SOL    HW214520   0.509   4.716   6.646  0.8704  0.0844  0.7037
36997SOL     OW14521   6.280   3.433   9.263 -0.1186  0.1857 -0.4795
36997SOL    HW114522   6.273   3.400   9.173  0.0369  0.0985 -0.4602
36997SOL    HW214523   6.196   3.412   9.303  0.1966 -0.7625 -0.2751
36998SOL     OW14524  10.208   1.437   4.043  0.2612  0.2348  0.3679
36998SOL    HW114525  10.208   1.408   3.952 -0.9465  0.8358  0.1493
36998SOL    HW214526  10.284   1.395   4.083 -0.1559 -1.4020 -0.4837
36999SOL     OW14527   7.345   5.231   4.843 -0.0780 -0.4770  0.1714
36999SOL    HW114528   7.267   5.178   4.859  0.0023 -1.0771 -1.2461
36999SOL    HW214529   7.392   5.232   4.926  0.3685 -3.4364  0.0446
37000SOL     OW14530   8.100   4.443   0.556  0.4787  0.0341  0.8635
37000SOL    HW114531   8.142   4.404   0.479  1.4203  0.5497  1.0929
37000SOL    HW214532   8.163   4.508   0.587  0.1483 -0.2178  2.1236
37001SOL     OW14533   7.081   7.372   3.819  0.1743 -0.6084 -0.1922
37001SOL    HW114534   6.990   7.401   3.821  0.0295 -1.0358 -0.3385
37001SOL    HW214535   7.088   7.319   3.739  0.9044  0.5418 -0.9117
37002SOL     OW14536   6.505   8.613   7.898  0.5463 -0.2129 -0.5355
37002SOL    HW114537   6.520   8.522   7.875  1.0190 -0.1865 -0.3297
37002SOL    HW214538   6.480   8.655   7.815  0.8955 -0.4073 -0.7388
37003SOL     OW14539   3.392  10.203   9.288 -0.1759 -0.2136  0.1501
37003SOL    HW114540   3.329  10.190   9.217  1.0781  0.4020 -1.1263
37003SOL    HW214541   3.342  10.247   9.357 -1.1612  0.1645 -0.7788
37004SOL     OW14542   5.953  10.471   4.878  0.2097 -0.1825  0.2401
37004SOL    HW114543   5.941  10.376   4.873 -1.2318  0.0136 -0.6771
37004SOL    HW214544   5.966  10.489   4.972  0.5336 -1.2780  0.4148
37005SOL     OW14545   6.704   2.008   1.854  0.1784  0.0191 -0.1005
37005SOL    HW114546   6.757   2.014   1.774 -0.7667 -0.2534 -0.7700
37005SOL    HW214547   6.752   1.946   1.909 -0.2655 -1.5757 -1.3961
37006SOL     OW14548  10.747   3.449   0.711 -0.1490  0.7039 -0.4717
37006SOL    HW114549  10.841   3.439   0.700 -0.1118  1.0019 -0.4319
37006SOL    HW214550  10.729   3.540   0.689 -0.7093  0.1836 -2.3120
37007SOL     OW14551  10.888  10.010   6.942  0.3204  0.1150 -0.1079
37007SOL    HW114552  10.793  10.011   6.959 -0.3152 -0.5728 -3.1177
37007SOL    HW214553  10.904   9.923   6.904  1.8610  0.8124 -1.1161
37008SOL     OW14554   6.317   9.032   7.526  0.3592 -0.0739  0.0423
37008SOL    HW114555   6.343   8.955   7.577  0.9196  0.5611  0.7579
37008SOL    HW214556   6.366   9.104   7.567  0.4570  0.5285 -1.1120
37009SOL     OW14557   8.523   1.150  11.103 -0.3811 -0.4331 -0.6308
37009SOL    HW114558   8.450   1.100  11.140  0.4207 -1.0923  0.0782
37009SOL    HW214559   8.600   1.094  11.115  0.9013  1.6351  1.8324
37010SOL     OW14560   5.836   4.817   3.454 -0.2913 -0.3520  0.2145
37010SOL    HW114561   5.758   4.779   3.414  1.0201 -1.8408 -1.0359
37010SOL    HW214562   5.904   4.809   3.388  0.8256  1.4405  1.0585
37011SOL     OW14563   4.641   0.595   4.231  0.1310 -0.3349 -0.8326
37011SOL    HW114564   4.642   0.650   4.309  0.1969 -0.7684 -0.5277
37011SOL    HW214565   4.637   0.506   4.264 -2.0207 -0.4899 -1.3293
37012SOL     OW14566   1.205   2.722   8.760 -0.1700 -0.0849  0.2025
37012SOL    HW114567   1.151   2.679   8.694 -0.8289  0.2597  0.5052
37012SOL    HW214568   1.294   2.692   8.742 -0.2349  0.5450 -1.2843
37013SOL     OW14569   2.805   3.611   2.904  0.1017  0.0772  0.2298
37013SOL    HW114570   2.737   3.658   2.857  1.0144 -0.2860 -1.5791
37013SOL    HW214571   2.759   3.542   2.951 -0.8337  0.1093 -0.6027
37014SOL     OW14572   5.577  11.003   4.186  0.2702  0.2830 -0.4264
37014SOL    HW114573   5.582  10.924   4.239 -1.2699  1.0225  0.9158
37014SOL    HW214574   5.544  10.973   4.101 -0.5313 -0.4940  0.1441
37015SOL     OW14575   0.184  10.882   2.329 -0.4838 -0.5116  0.2304
37015SOL    HW114576   0.104  10.908   2.375 -0.4280 -0.6911  0.4267
37015SOL    HW214577   0.172  10.790   2.309  0.3769 -0.9806  1.7281
37016SOL     OW14578   9.875   0.213   6.676 -0.0536  0.4603 -1.1724
37016SOL    HW114579   9.893   0.146   6.742 -0.9370  1.5215  0.2027
37016SOL    HW214580   9.961   0.237   6.642  0.8567  2.2055  1.9644
37017SOL     OW14581   2.383   9.964  10.926 -0.1177  0.8663  0.2286
37017SOL    HW114582   2.349  10.013  10.851  1.3032  1.9861  0.2675
37017SOL    HW214583   2.309   9.955  10.986 -1.3724 -0.3471 -1.4233
37018SOL     OW14584  10.207   5.377  10.480  0.6788 -0.5200 -0.1176
37018SOL    HW114585  10.137   5.430  10.520  2.2702  1.7494 -0.1227
37018SOL    HW214586  10.161   5.317  10.422 -1.2892  0.7966 -0.0495
37019SOL     OW14587   7.090   4.295   0.472 -0.3137 -0.0144 -0.7199
37019SOL    HW114588   7.007   4.320   0.430  0.0937  0.6738 -1.1380
37019SOL    HW214589   7.118   4.374   0.518  0.5967  0.0620 -1.3916
37020SOL     OW14590   6.568   0.653   3.535  0.3270 -0.3719  0.8557
37020SOL    HW114591   6.566   0.749   3.539 -0.6932 -0.3649  0.4721
37020SOL    HW214592   6.639   0.633   3.474  1.3426  0.0933  1.8454
37021SOL     OW14593   1.882   7.420   9.435 -0.0690 -0.0795 -0.0912
37021SOL    HW114594   1.951   7.453   9.493  0.9409  0.1325 -1.3894
37021SOL    HW214595   1.807   7.406   9.494  1.3077 -1.1461  1.4950
37022SOL     OW14596   5.864   6.524   5.612  0.7216 -0.0976 -0.5437
37022SOL    HW114597   5.816   6.500   5.533 -0.9108 -0.6485  0.5463
37022SOL    HW214598   5.851   6.449   5.671  0.6303  0.9166  0.7775
37023SOL     OW14599   7.763   4.055   4.935 -0.6711 -0.1739  0.0998
37023SOL    HW114600   7.804   3.987   4.988 -3.3763  0.4426  3.3304
37023SOL    HW214601   7.836   4.102   4.895  1.4067 -2.7640  0.5405
37024SOL     OW14602   0.431   5.287   0.119 -0.1185  0.4446  0.0624
37024SOL    HW114603   0.422   5.199   0.155 -0.2111  0.3339 -0.2303
37024SOL    HW214604   0.344   5.325   0.124  0.0142  0.6830  0.6046
37025SOL     OW14605   6.070  10.510   7.197 -0.4520  0.3694 -0.3574
37025SOL    HW114606   6.096  10.424   7.165 -2.4688 -1.0684  1.5996
37025SOL    HW214607   5.981  10.522   7.164 -0.3468  1.5545 -0.2634
37026SOL     OW14608   1.343   4.081  10.965  0.1418  0.4493  0.4385
37026SOL    HW114609   1.404   4.137  10.916  1.8747 -0.4634  1.4662
37026SOL    HW214610   1.382   3.994  10.962  0.1092  0.2724  3.0531
37027SOL     OW14611   3.806   5.007   5.213 -0.2484  0.4731  0.0009
37027SOL    HW114612   3.826   4.956   5.135  1.1769  0.8570  0.0972
37027SOL    HW214613   3.754   4.948   5.268 -0.6240 -0.0550 -0.9000
37028SOL     OW14614   9.994   4.250   1.792  0.2564 -0.0880  0.5474
37028SOL    HW114615  10.041   4.331   1.809  1.4015 -0.3448 -1.0981
37028SOL    HW214616  10.060   4.181   1.804  0.5528 -0.4241 -2.2768
37029SOL     OW14617   5.463   4.328   5.814 -0.3104 -0.2324  0.3693
37029SOL    HW114618   5.445   4.234   5.816 -0.3708 -0.2241  0.2237
37029SOL    HW214619   5.443   4.358   5.902  0.6274 -0.5221  0.6994
37030SOL     OW14620   7.151   4.181   8.608 -0.0867 -0.0419 -0.5608
37030SOL    HW114621   7.195   4.098   8.626 -0.4594  0.1989  1.8063
37030SOL    HW214622   7.073   4.157   8.558 -0.6821 -1.2587  0.9044
37031SOL     OW14623  10.604   5.283   2.791  0.3326 -0.0842  0.0289
37031SOL    HW114624  10.647   5.346   2.732 -0.4551 -0.3289 -0.8399
37031SOL    HW214625  10.510   5.292   2.770 -0.2572  1.4893  2.8734
37032SOL     OW14626   3.515   0.074   4.699  0.4477  0.5843 -0.0630
37032SOL    HW114627   3.444   0.027   4.655  2.2026 -2.4593  0.0988
37032SOL    HW214628   3.496   0.063   4.792  1.0593 -0.1978 -0.0201
37033SOL     OW14629   2.253   1.751   0.994 -0.2012  0.2579 -0.0567
37033SOL    HW114630   2.299   1.689   0.937 -3.1564 -1.7318 -0.4786
37033SOL    HW214631   2.223   1.698   1.067 -3.2656  0.9643 -0.6704
37034SOL     OW14632   1.073   6.565   9.659  0.1529  0.0336 -0.2182
37034SOL    HW114633   1.026   6.484   9.636 -0.7410  0.6091 -0.4359
37034SOL    HW214634   1.067   6.569   9.755 -0.0871  0.0132 -0.2316
37035SOL     OW14635   6.252   9.298   6.587  0.5348  0.3426 -0.2961
37035SOL    HW114636   6.283   9.209   6.604  1.2972  0.6901  0.2064
37035SOL    HW214637   6.328   9.353   6.604 -0.4440  1.2704  1.3081
37036SOL     OW14638   5.702   4.063   2.997  0.2431 -0.0464  0.0099
37036SOL    HW114639   5.757   4.017   3.060  1.5316  0.8307 -0.4258
37036SOL    HW214640   5.619   4.075   3.042  1.2108  0.7799  1.6624
37037SOL     OW14641   6.984  10.488   4.130  0.2519  0.0709  0.0107
37037SOL    HW114642   7.019  10.533   4.053  1.8440  0.1858  0.7561
37037SOL    HW214643   6.966  10.558   4.192 -0.3712 -0.0769 -0.0008
37038SOL     OW14644   2.649   5.950   7.340 -0.3235 -0.0550 -0.0833
37038SOL    HW114645   2.633   5.857   7.321  0.5948  0.0177 -1.3173
37038SOL    HW214646   2.577   5.995   7.295 -0.2021 -0.1085 -0.3331
37039SOL     OW14647   0.689  10.677   2.612 -0.0574 -0.5331  0.5977
37039SOL    HW114648   0.695  10.763   2.570  0.3737 -0.9489 -0.2247
37039SOL    HW214649   0.695  10.695   2.706  0.0611  0.3283  0.4317
37040SOL     OW14650   8.410   6.411   8.931 -0.0397 -0.4659 -0.5840
37040SOL    HW114651   8.477   6.450   8.988  0.4740 -0.0454 -1.4580
37040SOL    HW214652   8.424   6.317   8.938  0.3471 -0.3965 -0.4053
37041SOL     OW14653   5.589  10.167   4.392  0.1916 -0.0238  0.3880
37041SOL    HW114654   5.598  10.188   4.298  1.4429 -0.7544  0.3176
37041SOL    HW214655   5.524  10.229   4.424 -1.9306 -1.1892 -1.4097
37042SOL     OW14656   2.856   3.268   0.247  0.4333  0.5954 -0.5621
37042SOL    HW114657   2.796   3.339   0.223 -2.2214 -1.1101  0.5538
37042SOL    HW214658   2.859   3.271   0.342 -0.4626 -1.2915 -0.4383
37043SOL     OW14659   0.468  10.717   3.222 -0.1145 -0.4485 -0.1798
37043SOL    HW114660   0.487  10.806   3.251  0.0402 -0.5369 -0.0128
37043SOL    HW214661   0.524  10.661   3.276  0.3037 -0.6039 -0.7667
37044SOL     OW14662   5.977   8.093   7.280 -0.5358  0.0529 -0.3173
37044SOL    HW114663   5.960   8.186   7.289  0.5139  0.3482 -1.2789
37044SOL    HW214664   5.890   8.053   7.280 -1.0203  1.0745 -0.4359
37045SOL     OW14665   9.353   5.974   9.059  0.4309  0.2105 -0.0261
37045SOL    HW114666   9.319   5.996   8.972  1.9392 -1.7397 -1.1903
37045SOL    HW214667   9.377   6.059   9.097 -0.9532  1.1806 -1.1657
37046SOL     OW14668   2.797  10.187   3.839  0.1750  0.1949 -0.1531
37046SOL    HW114669   2.852  10.262   3.816  1.3276 -0.6048 -0.1130
37046SOL    HW214670   2.843  10.146   3.912 -1.5955  0.6995  1.3316
37047SOL     OW14671   5.195   1.292   3.029 -0.2886 -0.4917 -0.5804
37047SOL    HW114672   5.104   1.263   3.034 -0.1753 -0.9416 -1.1349
37047SOL    HW214673   5.224   1.269   2.941  0.3365 -0.2678 -0.4443
37048SOL     OW14674   9.085   0.505   0.616 -0.2200 -0.1207 -0.1666
37048SOL    HW114675   9.135   0.512   0.697  0.2719  0.7053 -0.5315
37048SOL    HW214676   9.115   0.423   0.576  0.5717  0.1762 -0.1948
37049SOL     OW14677   0.104   7.831   3.812  0.0055  0.7134 -0.0091
37049SOL    HW114678   0.060   7.762   3.862 -0.5113  0.5368 -0.6816
37049SOL    HW214679   0.171   7.866   3.871  0.1538 -0.2450  0.4021
37050SOL     OW14680   7.623   0.792   5.662 -0.0977  0.0202 -0.2473
37050SOL    HW114681   7.579   0.867   5.622 -0.7456 -0.0591  0.2998
37050SOL    HW214682   7.661   0.744   5.588 -0.1319  0.5968 -0.6435
37051SOL     OW14683   9.615   5.655   8.167  0.3232 -0.2703  0.0120
37051SOL    HW114684   9.692   5.691   8.211  1.5272 -1.5257 -0.9845
37051SOL    HW214685   9.590   5.580   8.220 -0.7079  0.5419  0.7350
37052SOL     OW14686  10.568   7.215   5.584 -0.4582 -0.4027 -0.0248
37052SOL    HW114687  10.541   7.162   5.508 -1.4361 -0.4190  0.3110
37052SOL    HW214688  10.507   7.190   5.653 -0.9526  1.1565  0.1515
37053SOL     OW14689   6.684   3.970   6.981 -0.7534 -0.1605  0.5398
37053SOL    HW114690   6.686   3.877   6.959 -1.0823 -0.6209  2.2740
37053SOL    HW214691   6.601   3.981   7.028 -0.4564  0.8868  0.8450
37054SOL     OW14692   3.423   5.809   7.599 -0.3319  0.8538  0.3956
37054SOL    HW114693   3.376   5.777   7.676 -0.2342  0.8506  0.4546
37054SOL    HW214694   3.425   5.904   7.609  0.4291  0.8013  0.8374
37055SOL     OW14695   6.135   5.263   4.098  0.0164  0.2468  0.3706
37055SOL    HW114696   6.127   5.222   4.012 -0.7999  0.1067  0.5027
37055SOL    HW214697   6.120   5.192   4.160 -0.3592  0.5313  0.6124
37056SOL     OW14698   8.912   8.668  10.203  0.1250 -0.6229 -0.8545
37056SOL    HW114699   8.916   8.625  10.288  1.2331 -1.9070 -1.5256
37056SOL    HW214700   8.856   8.745  10.218  0.4371 -0.7142  1.0553
37057SOL     OW14701  10.573   3.184  10.998  0.2640 -0.2338 -0.0990
37057SOL    HW114702  10.602   3.095  10.977  1.1182 -0.2333  0.9842
37057SOL    HW214703  10.481   3.186  10.974  0.4165 -1.1788 -0.8236
37058SOL     OW14704  10.481   7.050   2.123  0.4910  0.4793  0.2234
37058SOL    HW114705  10.461   6.992   2.196 -0.9148 -0.1844 -0.6323
37058SOL    HW214706  10.434   7.132   2.144 -0.6810 -0.0251 -0.3345
37059SOL     OW14707   6.190   4.276   5.074  0.2610 -0.1563  0.6014
37059SOL    HW114708   6.281   4.250   5.085  0.2960  0.2145  1.2230
37059SOL    HW214709   6.143   4.228   5.142 -0.0496 -0.5167  0.1446
37060SOL     OW14710   1.570   7.541   3.627  0.1516 -0.1538  0.5121
37060SOL    HW114711   1.554   7.459   3.580  0.9396 -0.3467  0.5575
37060SOL    HW214712   1.650   7.576   3.588  0.3827  0.0801  1.1761
37061SOL     OW14713   2.845   9.983   0.308 -0.0669  0.4978  0.1596
37061SOL    HW114714   2.791  10.061   0.295 -2.1919 -0.6721  1.4394
37061SOL    HW214715   2.873   9.988   0.400  0.0113 -0.1066  0.1738
37062SOL     OW14716   5.943   3.740   5.774  0.1700  0.6480  0.5575
37062SOL    HW114717   5.903   3.653   5.771  1.6552 -0.0363 -0.1988
37062SOL    HW214718   5.871   3.800   5.752 -0.3471 -0.5802 -1.2920
37063SOL     OW14719   5.348   5.396   7.778  0.1103 -0.4505 -0.2773
37063SOL    HW114720   5.252   5.397   7.779  0.0241 -1.3575 -2.4034
37063SOL    HW214721   5.371   5.422   7.689  1.7233 -3.4067 -0.8424
37064SOL     OW14722   8.454   9.952  10.219  0.2179 -0.6789 -0.1456
37064SOL    HW114723   8.549   9.940  10.226  0.3570 -1.3447 -2.3540
37064SOL    HW214724   8.421   9.866  10.194 -0.7321 -0.0190 -1.2445
37065SOL     OW14725   1.811   9.898   1.395 -0.1467 -0.4185  0.0899
37065SOL    HW114726   1.735   9.956   1.394  1.4359  1.9304  2.3364
37065SOL    HW214727   1.842   9.899   1.304 -0.9890  1.1849 -0.2312
37066SOL     OW14728   3.044   6.593   2.899  0.3239  0.2086 -0.0019
37066SOL    HW114729   3.074   6.503   2.914 -0.8639 -0.9203 -3.4005
37066SOL    HW214730   3.067   6.640   2.979  0.6741 -3.1842  2.0804
37067SOL     OW14731   7.335   6.029   8.782 -0.0518  0.7218  0.0896
37067SOL    HW114732   7.411   6.009   8.727 -0.6337 -0.1453 -0.4131
37067SOL    HW214733   7.359   5.994   8.868 -0.3531 -0.6871 -0.3652
37068SOL     OW14734   0.787   7.092   3.536  0.2399  0.1553  0.1986
37068SOL    HW114735   0.747   7.007   3.518 -1.7368  0.7746  1.4464
37068SOL    HW214736   0.714   7.154   3.535  1.3501  1.5473  1.2456
37069SOL     OW14737   5.932   7.431   8.088  0.1915 -0.4285 -0.6007
37069SOL    HW114738   5.881   7.401   8.013 -0.0246 -0.7106 -0.3426
37069SOL    HW214739   6.008   7.372   8.090  1.7447  1.3816 -2.3455
37070SOL     OW14740   9.548   7.059   5.844  0.1960  0.2665  0.0865
37070SOL    HW114741   9.582   7.119   5.778 -1.8938  0.8841 -0.5313
37070SOL    HW214742   9.463   7.031   5.809 -0.5134 -0.2090  2.0375
37071SOL     OW14743   0.199   6.488   1.037 -0.3527 -0.2377 -0.0244
37071SOL    HW114744   0.215   6.561   0.978  1.5792  0.1174  0.8477
37071SOL    HW214745   0.222   6.522   1.124  2.6691 -2.4042  0.1753
37072SOL     OW14746   6.565   4.565   3.627 -0.1139  0.3190 -0.4395
37072SOL    HW114747   6.660   4.569   3.628  0.0798 -1.5010 -2.5411
37072SOL    HW214748   6.542   4.499   3.693  0.0964  0.6582 -0.0304
37073SOL     OW14749   8.743   9.509   4.867  0.4149 -0.3637 -0.7688
37073SOL    HW114750   8.767   9.422   4.901  0.1244 -0.9841 -2.0876
37073SOL    HW214751   8.709   9.555   4.943  0.4007 -1.4743 -0.0716
37074SOL     OW14752   6.326   3.646   7.660  0.2681  1.0100  0.1431
37074SOL    HW114753   6.352   3.630   7.750  0.3997  2.9289  0.4818
37074SOL    HW214754   6.232   3.664   7.665  0.3121  1.3079 -0.0799
37075SOL     OW14755   1.264  10.008   8.356 -0.2981  0.3642 -0.3716
37075SOL    HW114756   1.321  10.013   8.280  1.6686  1.0586  1.0507
37075SOL    HW214757   1.304   9.942   8.412 -1.9834 -0.4984 -0.0993
37076SOL     OW14758   1.373   8.902   4.309  0.1681  0.1184  0.1712
37076SOL    HW114759   1.457   8.943   4.331 -0.4030  2.0034 -0.9124
37076SOL    HW214760   1.347   8.945   4.227 -1.8842 -0.3869  0.5167
37077SOL     OW14761  10.074   0.562   8.512  0.0000 -0.1762  0.1337
37077SOL    HW114762  10.000   0.502   8.516 -0.6619  0.5837 -0.3672
37077SOL    HW214763  10.037   0.647   8.535  0.7790  0.1640  0.1565
37078SOL     OW14764   2.293   3.587  10.100 -0.5676 -0.6069 -0.3824
37078SOL    HW114765   2.283   3.533  10.178  1.4298  0.5892  0.7877
37078SOL    HW214766   2.363   3.544  10.050  0.2428  0.2232  0.0029
37079SOL     OW14767   9.426   4.008   3.554  0.0363 -0.1450 -0.2346
37079SOL    HW114768   9.396   4.040   3.639 -0.1873 -0.8419 -0.0414
37079SOL    HW214769   9.385   3.922   3.545 -4.2495  1.8435 -3.3400
37080SOL     OW14770   1.138   1.464   8.515  0.0266  0.4755  0.2798
37080SOL    HW114771   1.230   1.492   8.517  0.2544 -0.2381  2.7886
37080SOL    HW214772   1.088   1.546   8.506  0.8308  0.7679 -2.9375
37081SOL     OW14773   3.607   8.743  10.200  0.2236  0.2331  0.3299
37081SOL    HW114774   3.693   8.701  10.204  0.6326  1.0317  0.1141
37081SOL    HW214775   3.619   8.825  10.249 -0.5114  0.1827  0.5963
37082SOL     OW14776   0.756   1.227   5.932  0.8116  0.6269 -0.4330
37082SOL    HW114777   0.846   1.252   5.954  0.2348  2.6410 -0.1744
37082SOL    HW214778   0.733   1.283   5.858 -0.5745  0.8850  0.1699
37083SOL     OW14779   1.107   6.055   9.883  0.3420  0.7240  0.0069
37083SOL    HW114780   1.149   6.020   9.962 -0.0466 -0.9147 -0.4808
37083SOL    HW214781   1.180   6.089   9.831  0.5647  2.2457  1.2288
37084SOL     OW14782   9.234   0.583   2.296  0.4572  0.0114  0.2645
37084SOL    HW114783   9.320   0.564   2.259 -0.5996 -0.9132 -1.8347
37084SOL    HW214784   9.213   0.507   2.350 -0.0184 -0.8945 -1.1405
37085SOL     OW14785   5.970   4.031   5.930 -0.1127  0.1864 -0.3246
37085SOL    HW114786   6.035   3.970   5.896 -0.1750 -0.5353  0.8080
37085SOL    HW214787   5.919   4.057   5.853  0.6069 -0.3374 -0.9928
37086SOL     OW14788   5.640   5.612   9.566  0.0895 -0.4515  0.5012
37086SOL    HW114789   5.563   5.590   9.513 -1.2859 -0.4302  2.3869
37086SOL    HW214790   5.650   5.707   9.556  0.2938 -0.5537 -0.2859
37087SOL     OW14791   5.473   6.820  10.811  0.0191 -0.1497  0.0990
37087SOL    HW114792   5.472   6.733  10.849  1.7900  0.5381  1.8794
37087SOL    HW214793   5.386   6.831  10.772 -0.1644 -2.7460 -0.3543
37088SOL     OW14794   7.222   2.582   1.770  0.0354  0.2754  0.0152
37088SOL    HW114795   7.304   2.532   1.770  1.1229  1.9453  0.4992
37088SOL    HW214796   7.161   2.529   1.720  1.2474 -1.3035  0.1409
37089SOL     OW14797   7.658   6.065   3.002 -0.3935 -0.1882 -0.0402
37089SOL    HW114798   7.671   6.083   3.095  0.3719 -2.2774  0.3162
37089SOL    HW214799   7.563   6.072   2.989 -0.7145 -1.4272  1.3113
37090SOL     OW14800   6.341   9.141   9.797  0.4458 -0.2410 -0.4847
37090SOL    HW114801   6.257   9.098   9.780 -0.2037  0.4485  0.8735
37090SOL    HW214802   6.337   9.167   9.888  1.6378  0.9417 -0.7423
37091SOL     OW14803   5.568   9.119   1.911 -0.0562  0.2146 -0.1157
37091SOL    HW114804   5.490   9.111   1.967 -0.4959  0.1496 -0.7347
37091SOL    HW214805   5.635   9.069   1.958 -1.0321 -1.7986 -0.7539
37092SOL     OW14806   0.746   2.504   5.493 -0.2553 -0.5451 -0.0516
37092SOL    HW114807   0.705   2.480   5.576  0.1729  0.0633  0.3450
37092SOL    HW214808   0.673   2.508   5.431 -0.3286 -3.1806 -0.2567
37093SOL     OW14809   2.808   1.548  10.978 -0.4194 -0.3223  0.4437
37093SOL    HW114810   2.740   1.613  10.961  0.0765  0.5560  1.7304
37093SOL    HW214811   2.850   1.536  10.893 -1.0667  0.3898  0.0018
37094SOL     OW14812   7.979   8.059   5.192 -0.0234  0.4670  0.4451
37094SOL    HW114813   8.013   7.988   5.246 -1.2161 -0.2921  0.2432
37094SOL    HW214814   8.042   8.130   5.202 -0.2412  0.3813  2.8762
37095SOL     OW14815   7.746   4.361   7.494  0.1073 -0.0083 -0.1318
37095SOL    HW114816   7.678   4.426   7.511  0.3524  0.2358 -0.0724
37095SOL    HW214817   7.803   4.403   7.428  1.1225  0.4613  1.0106
37096SOL     OW14818   5.366   3.202   3.074  0.3227 -0.1343  0.4387
37096SOL    HW114819   5.283   3.170   3.039  0.8010  0.1882 -1.0981
37096SOL    HW214820   5.428   3.130   3.060  0.7427  0.3597 -0.3465
37097SOL     OW14821   7.144   0.684   3.695 -0.3028 -0.4631 -0.3094
37097SOL    HW114822   7.052   0.688   3.721  0.0001  0.2115  0.7309
37097SOL    HW214823   7.187   0.638   3.767  0.2488 -0.3436 -0.5568
37098SOL     OW14824   8.417   1.329   1.779 -0.3216  0.1278  0.3351
37098SOL    HW114825   8.432   1.340   1.685  0.5042  0.9783  0.5520
37098SOL    HW214826   8.498   1.290   1.811 -0.3190  0.5282  0.8123
37099SOL     OW14827   7.947   2.458   4.654  0.0120 -0.0157 -0.0581
37099SOL    HW114828   7.962   2.480   4.746 -0.4299 -0.0718  0.0304
37099SOL    HW214829   8.023   2.406   4.629 -1.3810 -2.9665  1.2680
37100SOL     OW14830   2.961  10.519   8.121  0.0694 -0.2043  0.1659
37100SOL    HW114831   2.952  10.614   8.134  0.4602 -0.1745  0.2365
37100SOL    HW214832   3.030  10.494   8.182  0.5839 -0.3860 -0.4826
37101SOL     OW14833   7.672   6.563   7.128 -0.3730  0.0799 -0.0454
37101SOL    HW114834   7.636   6.485   7.086 -0.5209 -0.4188  0.9904
37101SOL    HW214835   7.754   6.580   7.081  0.2794 -1.4152  0.4772
37102SOL     OW14836  11.079   5.114   4.498  0.0518  0.3390 -0.4532
37102SOL    HW114837  11.153   5.064   4.532  0.2476  0.3567 -0.8483
37102SOL    HW214838  11.004   5.086   4.551  0.3226  0.2501 -0.1179
37103SOL     OW14839   9.315   4.484   5.084  0.3548 -0.6257  0.4194
37103SOL    HW114840   9.274   4.410   5.128  1.5670 -2.7062 -1.7588
37103SOL    HW214841   9.407   4.459   5.075  0.9141  1.3687 -0.0069
37104SOL     OW14842   1.750   9.629   0.118 -0.4391 -0.4890 -0.3216
37104SOL    HW114843   1.687   9.614   0.188  0.3646  0.1561  0.5672
37104SOL    HW214844   1.700   9.673   0.049 -1.4197 -1.8041 -0.5046
37105SOL     OW14845   0.618   2.985   9.477 -0.4527 -0.7307 -0.4039
37105SOL    HW114846   0.548   3.048   9.461  1.2189  0.7891 -2.2695
37105SOL    HW214847   0.695   3.039   9.497  0.1654 -2.3367  2.0568
37106SOL     OW14848   7.209   8.799   3.095  0.0875 -0.2965 -0.1127
37106SOL    HW114849   7.153   8.743   3.148  2.2393 -1.4216  1.0988
37106SOL    HW214850   7.260   8.739   3.042 -0.6389  0.7553 -2.1144
37107SOL     OW14851   2.927   0.316   9.156 -0.4842 -0.5286  0.2654
37107SOL    HW114852   2.977   0.337   9.235 -0.4764 -1.8691  0.6403
37107SOL    HW214853   2.866   0.248   9.184 -0.4472 -1.0547 -0.9015
37108SOL     OW14854   3.125  10.814   4.663 -0.1154  0.4026  0.0474
37108SOL    HW114855   3.063  10.816   4.736  0.0258  1.0404  0.1563
37108SOL    HW214856   3.129  10.904   4.633 -0.0034  0.1794 -0.6131
37109SOL     OW14857   4.198   6.150   2.760  0.4892 -0.2439 -0.4728
37109SOL    HW114858   4.276   6.206   2.760  0.7398 -0.5874  0.2378
37109SOL    HW214859   4.226   6.070   2.715 -0.0462  0.4122 -2.0620
37110SOL     OW14860   2.632  10.771   8.747 -0.7451  0.1208 -0.1019
37110SOL    HW114861   2.685  10.705   8.701  1.9755  1.2899  1.1360
37110SOL    HW214862   2.604  10.831   8.678 -0.5092 -0.5450 -0.7957
37111SOL     OW14863   3.887   7.204   3.455  0.5471 -0.1684 -0.1245
37111SOL    HW114864   3.955   7.271   3.457  0.1508  0.4921 -3.0151
37111SOL    HW214865   3.824   7.231   3.522  3.3097 -1.1816  3.1284
37112SOL     OW14866   1.473   2.657  10.632 -0.2060  0.0526 -0.6528
37112SOL    HW114867   1.442   2.688  10.717 -1.3137 -0.5327 -0.8309
37112SOL    HW214868   1.395   2.621  10.590  0.4712 -0.2815 -1.6418
37113SOL     OW14869   5.993   6.826   3.922 -0.1124 -0.1988 -0.0762
37113SOL    HW114870   5.939   6.758   3.882  2.1407 -2.0757 -0.1881
37113SOL    HW214871   6.057   6.850   3.855 -0.1157  1.1875  0.3768
37114SOL     OW14872   8.118   7.465   3.909 -0.5755  0.3327 -0.3380
37114SOL    HW114873   8.145   7.550   3.875 -0.0909  0.2348 -0.1916
37114SOL    HW214874   8.188   7.405   3.884 -1.1257 -0.1222 -0.8492
37115SOL     OW14875   3.344   1.067   1.586  0.2937  0.4338 -0.3488
37115SOL    HW114876   3.404   1.128   1.630  0.5520  0.9037 -1.3282
37115SOL    HW214877   3.390   1.043   1.505  0.7151 -1.9738  0.5272
37116SOL     OW14878   6.128   5.031   7.746 -0.0296 -0.4757  1.1927
37116SOL    HW114879   6.051   5.009   7.798 -0.5610 -0.0833  0.5832
37116SOL    HW214880   6.098   5.026   7.655 -0.1669  2.5282  0.9813
37117SOL     OW14881   6.883   5.194  10.346  0.6860 -0.2203 -0.0695
37117SOL    HW114882   6.909   5.105  10.322  4.2458  0.5957  0.1918
37117SOL    HW214883   6.890   5.243  10.264 -0.5357  0.0181 -0.0522
37118SOL     OW14884   9.186   6.942   7.072 -0.1655  0.2467 -0.3082
37118SOL    HW114885   9.278   6.926   7.053 -0.1154  0.0938  0.0555
37118SOL    HW214886   9.170   7.030   7.037  0.0238  0.1361 -0.6854
37119SOL     OW14887   0.584   5.938   9.533  0.3732  0.1517  0.7394
37119SOL    HW114888   0.642   5.868   9.562  0.9331  0.3152  0.0359
37119SOL    HW214889   0.497   5.898   9.532  0.7674 -0.7328 -0.2555
37120SOL     OW14890   2.574   2.831   3.141  0.1418  0.2396 -0.2477
37120SOL    HW114891   2.495   2.866   3.101  0.1796  3.5099  2.0515
37120SOL    HW214892   2.645   2.883   3.102  0.5713  0.6532  1.0158
37121SOL     OW14893   9.775   4.395   2.341  0.4828  0.1880  0.1862
37121SOL    HW114894   9.762   4.373   2.433 -0.6699 -0.3853 -0.0957
37121SOL    HW214895   9.728   4.478   2.329  1.2199  0.6323  0.2547
37122SOL     OW14896   6.627   3.755   2.160  0.0267  0.4851  0.1951
37122SOL    HW114897   6.719   3.734   2.148  1.0541  3.8068  1.2115
37122SOL    HW214898   6.619   3.846   2.130 -2.8184  0.4608  0.6015
37123SOL     OW14899   0.689   3.020   6.741 -0.1449 -0.2256 -0.5881
37123SOL    HW114900   0.753   2.950   6.754  0.4379  0.4514  0.2791
37123SOL    HW214901   0.618   2.978   6.692  0.2231 -1.4089 -0.1516
37124SOL     OW14902   0.963   5.983   2.854  0.0051 -0.1854  0.4657
37124SOL    HW114903   0.916   5.929   2.790  2.4308 -0.2501 -1.4184
37124SOL    HW214904   1.022   5.922   2.897  1.7647  0.6251 -0.6800
37125SOL     OW14905   7.791   1.674   6.655  0.3695 -0.2964  0.3872
37125SOL    HW114906   7.697   1.659   6.662  0.6111 -1.1601  2.5049
37125SOL    HW214907   7.801   1.767   6.674 -0.0153 -0.2916  0.5766
37126SOL     OW14908   8.175   0.695   0.414 -0.2635 -0.6605 -0.0152
37126SOL    HW114909   8.199   0.714   0.505 -0.4365 -2.3999  0.4396
37126SOL    HW214910   8.094   0.645   0.421 -1.4141  0.9414 -1.2735
37127SOL     OW14911   0.470   7.058   3.801  0.7329 -0.0329  0.1185
37127SOL    HW114912   0.428   7.144   3.801  0.7262 -0.0359  0.0720
37127SOL    HW214913   0.564   7.077   3.797  0.8032  0.0120  1.4396
37128SOL     OW14914  10.653   7.012   7.963 -0.0635 -0.0396  0.1614
37128SOL    HW114915  10.558   7.026   7.963  0.0475  0.8910  1.0871
37128SOL    HW214916  10.690   7.100   7.955  0.7120 -0.2898  0.8730
37129SOL     OW14917   0.741   4.012   7.634 -0.6609 -0.1491 -0.2497
37129SOL    HW114918   0.810   3.973   7.688  0.5250  1.0711 -0.8484
37129SOL    HW214919   0.783   4.031   7.550 -2.0660 -0.5398 -1.0676
37130SOL     OW14920   0.803   3.207   9.550  0.4535  0.4601 -0.4566
37130SOL    HW114921   0.757   3.286   9.577  1.3445  0.6092  0.7251
37130SOL    HW214922   0.851   3.232   9.471  2.1335  1.6687  0.8669
37131SOL     OW14923   1.621   2.290   5.640 -0.2447  0.0216 -0.6427
37131SOL    HW114924   1.630   2.315   5.548  0.1277 -0.6398 -0.7994
37131SOL    HW214925   1.707   2.253   5.663 -0.5332 -0.4063 -0.2211
37132SOL     OW14926   1.096   1.475   6.581  0.0944  0.1135  0.0408
37132SOL    HW114927   1.041   1.495   6.656  0.1760  1.5123 -0.2532
37132SOL    HW214928   1.038   1.483   6.506 -0.1351 -1.8679 -0.0399
37133SOL     OW14929   4.273   8.216   4.111  0.4589  0.1117  0.0346
37133SOL    HW114930   4.249   8.301   4.146  0.5223 -0.4192  1.4188
37133SOL    HW214931   4.342   8.184   4.170 -0.4868 -1.4655  0.3401
37134SOL     OW14932   8.411   2.882   5.132  0.1633 -0.1677  0.3094
37134SOL    HW114933   8.320   2.891   5.161  0.0143  0.2977 -0.2785
37134SOL    HW214934   8.454   2.834   5.203 -0.4305  0.0293  0.8169
37135SOL     OW14935   1.674   5.764   7.054  0.1401 -0.2249  0.2891
37135SOL    HW114936   1.647   5.800   6.970 -2.2325 -0.5456  0.8259
37135SOL    HW214937   1.675   5.669   7.040  2.4260 -0.2083 -0.0478
37136SOL     OW14938   0.142   7.146   8.263  0.6396 -0.2614 -0.3450
37136SOL    HW114939   0.217   7.169   8.208 -0.2978  0.8514 -1.2312
37136SOL    HW214940   0.104   7.231   8.286 -0.6225 -0.8162 -0.3344
37137SOL     OW14941   0.322   6.487   7.812 -0.1695 -0.8246 -0.1021
37137SOL    HW114942   0.299   6.475   7.905 -1.0535 -0.5903 -0.2881
37137SOL    HW214943   0.414   6.513   7.814 -0.6864  1.1732  0.8625
37138SOL     OW14944   2.181   7.516   7.150  0.0825  0.4017 -0.4522
37138SOL    HW114945   2.167   7.489   7.240 -0.5301  0.5487 -0.4936
37138SOL    HW214946   2.094   7.510   7.109  0.0844  1.5481 -0.6879
37139SOL     OW14947   8.842   0.714   4.288  0.0066  0.0634 -0.6742
37139SOL    HW114948   8.872   0.678   4.371  1.0286  0.5506 -0.8176
37139SOL    HW214949   8.763   0.664   4.268  0.2853 -0.7255  0.1104
37140SOL     OW14950  10.712   8.907   8.726 -0.9464 -0.0962  0.5269
37140SOL    HW114951  10.731   8.975   8.792  1.7029 -0.6834  0.5024
37140SOL    HW214952  10.730   8.825   8.772  1.6797 -0.4905 -1.0412
37141SOL     OW14953  11.094  10.039   7.103 -0.6625  0.0232  0.8420
37141SOL    HW114954  11.022  10.027   7.042 -1.3086 -2.2557  1.9554
37141SOL    HW214955  11.053  10.073   7.182 -0.4570 -0.7254  1.2832
37142SOL     OW14956   2.924   6.982   8.110  0.2714  0.2610 -0.7756
37142SOL    HW114957   2.987   6.982   8.038 -0.9096  0.1360 -1.8382
37142SOL    HW214958   2.887   6.893   8.111  0.7431  0.0506  0.4307
37143SOL     OW14959   3.291   9.656   3.736 -0.2643  0.0408  0.0248
37143SOL    HW114960   3.253   9.569   3.731 -0.8756  0.3061 -0.0608
37143SOL    HW214961   3.297   9.685   3.645 -0.1537  0.1262  0.0589
37144SOL     OW14962   7.873   5.247   1.442  0.6093  0.2031  0.1061
37144SOL    HW114963   7.945   5.200   1.401 -0.2102  0.6172 -1.9477
37144SOL    HW214964   7.804   5.249   1.375 -1.1302  0.2737  1.7952
37145SOL     OW14965   3.970   5.650   5.949 -0.4308 -0.4280  0.2161
37145SOL    HW114966   3.881   5.652   5.982 -0.5705  0.0742 -0.1642
37145SOL    HW214967   3.978   5.566   5.905 -1.7104  0.7005 -2.3650
37146SOL     OW14968   9.231   1.125   8.358 -0.5321  0.1618  0.2687
37146SOL    HW114969   9.135   1.121   8.351 -0.6015  0.4886  0.8947
37146SOL    HW214970   9.247   1.144   8.451  0.0929  1.2985 -0.0420
37147SOL     OW14971  10.125   6.927  10.149 -1.0468  0.2228  0.0887
37147SOL    HW114972  10.188   6.867  10.109  0.9969  0.8082  2.2352
37147SOL    HW214973  10.161   7.014  10.135 -2.8451  0.8455 -1.0329
37148SOL     OW14974   8.426   0.449   5.473 -0.3376 -0.8487 -0.1822
37148SOL    HW114975   8.454   0.381   5.413 -2.0437 -0.4625 -1.4669
37148SOL    HW214976   8.384   0.402   5.545  1.6306 -1.3016  0.7699
37149SOL     OW14977   4.973   4.627  10.766  0.1546  0.4576 -0.1576
37149SOL    HW114978   4.882   4.599  10.751  0.0308  0.0363  1.1886
37149SOL    HW214979   4.965   4.714  10.805  0.1901 -0.3302  1.7331
37150SOL     OW14980   0.429   1.665   8.461  0.0107  0.0133  0.7403
37150SOL    HW114981   0.384   1.743   8.430 -0.9027 -0.5647  0.5699
37150SOL    HW214982   0.520   1.676   8.433 -0.2418  0.7321  0.1930
37151SOL     OW14983   8.508   5.247   0.596  0.1257  0.5134 -0.3288
37151SOL    HW114984   8.504   5.165   0.547  1.1727  0.3811 -0.2254
37151SOL    HW214985   8.543   5.223   0.682 -1.3240  0.8057  0.3738
37152SOL     OW14986  10.658   9.467   0.317 -0.4445 -0.0022 -0.7136
37152SOL    HW114987  10.725   9.401   0.336 -0.0265  0.6272  0.0524
37152SOL    HW214988  10.634   9.502   0.402 -1.1425  0.3763 -1.0593
37153SOL     OW14989   5.802   1.800   0.444 -0.9214 -0.2097  0.8451
37153SOL    HW114990   5.742   1.727   0.458 -0.3176 -1.0527 -0.7525
37153SOL    HW214991   5.883   1.760   0.411  0.0885  1.0177  1.7000
37154SOL     OW14992   3.893  10.560   6.234  0.5294  0.3143 -0.1811
37154SOL    HW114993   3.958  10.606   6.182  1.0259  0.6021  0.6676
37154SOL    HW214994   3.842  10.510   6.171  1.7312 -0.1165 -0.8382
37155SOL     OW14995   9.173   8.946  10.368 -0.5173  0.5799  0.0392
37155SOL    HW114996   9.122   9.023  10.341 -2.2382 -0.1871  0.9284
37155SOL    HW214997   9.175   8.890  10.291  0.6156  1.4259 -0.5675
37156SOL     OW14998   2.324   5.899   8.653  0.2775 -0.2593  0.5207
37156SOL    HW114999   2.356   5.866   8.569 -0.2458 -1.3837  0.7429
37156SOL    HW215000   2.309   5.992   8.637  1.5481 -0.1573 -0.2043
37157SOL     OW15001   8.047   7.314   6.103 -0.1829  0.4127  0.1552
37157SOL    HW115002   8.125   7.278   6.063  0.1319 -2.2851  2.8450
37157SOL    HW215003   7.976   7.289   6.044  0.5092 -1.1789 -0.0431
37158SOL     OW15004   8.326   0.862   0.931  0.1554 -0.2579 -0.0421
37158SOL    HW115005   8.266   0.830   0.999  0.5093  0.1563  0.4750
37158SOL    HW215006   8.311   0.956   0.928 -0.1833 -0.3260 -0.8742
37159SOL     OW15007   8.321   1.419   3.915 -0.0649 -0.0390 -0.7763
37159SOL    HW115008   8.260   1.466   3.858 -2.3887 -1.9662 -0.0718
37159SOL    HW215009   8.405   1.461   3.900 -1.2583  1.8313 -2.9314
37160SOL     OW15010   5.563   5.653   2.530 -0.0773 -0.8177 -0.4488
37160SOL    HW115011   5.574   5.559   2.548  0.9815 -1.1653 -2.6283
37160SOL    HW215012   5.493   5.656   2.464  0.7388 -0.2085 -1.3085
37161SOL     OW15013   3.061  10.578  10.977 -0.1852 -0.0494  0.4676
37161SOL    HW115014   3.025  10.616  11.057 -1.4876 -0.9855  0.3703
37161SOL    HW215015   3.135  10.526  11.007  1.8151  2.6721  0.5671
37162SOL     OW15016   5.627   7.972   7.587  0.0920  0.0785  0.0411
37162SOL    HW115017   5.631   7.878   7.573 -0.9453 -0.1146  0.8874
37162SOL    HW215018   5.561   8.003   7.525 -0.2723  0.0926  0.4303
37163SOL     OW15019   5.395   2.359   4.329  0.5090 -0.0031  0.0357
37163SOL    HW115020   5.303   2.355   4.358  0.6876  0.3547  0.6705
37163SOL    HW215021   5.440   2.295   4.384  0.6112 -0.3199 -0.4126
37164SOL     OW15022   9.182   5.907   2.108 -0.0823 -0.4053 -0.0440
37164SOL    HW115023   9.099   5.878   2.070 -0.4714 -0.6168  0.9558
37164SOL    HW215024   9.248   5.882   2.042 -1.0273  2.4033 -2.2706
37165SOL     OW15025   0.231  10.744   9.623  0.0866 -0.7241 -0.7109
37165SOL    HW115026   0.189  10.757   9.538  2.5092  0.5681 -1.7897
37165SOL    HW215027   0.247  10.649   9.628 -2.8527 -1.2946 -0.2067
37166SOL     OW15028   5.569   2.916   0.790 -0.1488  0.1970  0.0787
37166SOL    HW115029   5.551   2.822   0.798 -0.9006  0.3223 -0.0636
37166SOL    HW215030   5.644   2.921   0.731  0.5582 -0.3578  0.9029
37167SOL     OW15031   1.576   2.594  11.032  0.1987  0.0797  0.0692
37167SOL    HW115032   1.526   2.513  11.022  1.1558 -0.6367  0.9473
37167SOL    HW215033   1.510   2.661  11.050 -0.5964 -0.5008 -0.6309
37168SOL     OW15034  10.677   3.300   5.339 -0.6508  0.0748 -0.1680
37168SOL    HW115035  10.721   3.217   5.320 -2.8222 -0.8431 -1.6456
37168SOL    HW215036  10.689   3.352   5.260 -0.2806  0.7295  0.3108
37169SOL     OW15037   2.756   5.851   6.037  0.5264 -0.1787  0.2638
37169SOL    HW115038   2.724   5.766   6.010  1.5660 -0.7553  0.7818
37169SOL    HW215039   2.690   5.884   6.099  0.0759 -0.5553 -0.0129
37170SOL     OW15040   7.322   6.750   3.831  0.1701  0.2123  0.3312
37170SOL    HW115041   7.361   6.833   3.802 -0.4771  0.1966 -0.6475
37170SOL    HW215042   7.257   6.729   3.763  1.1290 -1.6924 -0.0867
37171SOL     OW15043   7.748   7.095   9.850 -0.1547  0.5564  0.1869
37171SOL    HW115044   7.786   7.175   9.887  0.3298  0.5338 -0.2391
37171SOL    HW215045   7.821   7.033   9.848 -0.9726 -0.5892  2.3911
37172SOL     OW15046   6.277  11.051   3.003 -0.1798  0.4867 -0.2689
37172SOL    HW115047   6.252  11.108   2.931  0.7419 -0.7861 -1.6542
37172SOL    HW215048   6.358  11.089   3.037 -0.3318  0.7884 -0.2397
37173SOL     OW15049   2.082   2.469   8.537  0.2941  0.3722 -0.5464
37173SOL    HW115050   2.037   2.388   8.562  0.4965 -0.6401 -3.1373
37173SOL    HW215051   2.172   2.440   8.516  0.1712  1.0771 -2.2071
37174SOL     OW15052   2.777   8.311   1.043  0.0929  0.3317  0.1530
37174SOL    HW115053   2.701   8.347   0.997 -0.2971 -0.3210  0.2829
37174SOL    HW215054   2.850   8.366   1.014 -0.6012  1.6943  0.8937
37175SOL     OW15055   3.615  10.022  10.106 -0.4723  0.5714 -0.2208
37175SOL    HW115056   3.608  10.081  10.031  0.3773  2.9403  1.4152
37175SOL    HW215057   3.709  10.005  10.114 -0.5203  0.5994  0.4625
37176SOL     OW15058   8.165   1.675   2.433 -0.3194 -0.7851  0.1039
37176SOL    HW115059   8.238   1.721   2.474 -0.3966  1.3860 -1.9733
37176SOL    HW215060   8.205   1.598   2.392  0.4039 -0.7991  0.8090
37177SOL     OW15061   1.199   5.190   2.221  0.1827  0.2913 -0.4986
37177SOL    HW115062   1.203   5.103   2.260  0.6351 -0.2160 -1.6503
37177SOL    HW215063   1.268   5.191   2.155  0.1478  1.5068 -0.5427
37178SOL     OW15064   6.316   4.731  10.310  0.1112 -0.1287  0.3075
37178SOL    HW115065   6.347   4.728  10.220  1.0391 -1.6328  0.6381
37178SOL    HW215066   6.388   4.693  10.361 -0.6922  0.0219  1.5973
37179SOL     OW15067  10.279   5.772   7.365 -0.1418 -0.1834 -0.6016
37179SOL    HW115068  10.244   5.684   7.374 -2.1795  0.6568  0.5537
37179SOL    HW215069  10.271   5.792   7.272  0.3296 -1.2067 -0.8704
37180SOL     OW15070   9.247   2.193   6.869  0.4610 -0.1026  0.2055
37180SOL    HW115071   9.170   2.231   6.826  0.1000  0.7566  1.5242
37180SOL    HW215072   9.219   2.104   6.894  0.3523 -0.2599 -0.4636
37181SOL     OW15073   5.170   4.822   1.015 -0.8252  0.5536  0.0331
37181SOL    HW115074   5.139   4.913   1.017  2.1735  1.6534  0.7721
37181SOL    HW215075   5.261   4.828   0.988 -1.3442 -2.5747 -3.1277
37182SOL     OW15076   6.376   8.468   5.412 -0.1807  0.2941 -0.1555
37182SOL    HW115077   6.374   8.538   5.477  0.4991 -0.4769  0.7231
37182SOL    HW215078   6.469   8.451   5.398 -0.3221 -1.2859  0.5990
37183SOL     OW15079   1.281   1.766   2.172  0.3130  0.3441  0.1519
37183SOL    HW115080   1.258   1.839   2.114  1.7210  1.0764  0.4752
37183SOL    HW215081   1.367   1.789   2.207  0.9260 -1.6002  0.0637
37184SOL     OW15082   3.288   4.614   1.322  0.0995  0.2729  0.1675
37184SOL    HW115083   3.242   4.634   1.403  1.1355  2.1574  0.3417
37184SOL    HW215084   3.230   4.553   1.277 -1.3875  0.6334  1.4789
37185SOL     OW15085   4.479   9.263   7.249 -0.2515  0.1745  0.6120
37185SOL    HW115086   4.551   9.211   7.287  0.7290  0.2798 -1.0067
37185SOL    HW215087   4.474   9.233   7.158 -2.1051  0.3707  0.6262
37186SOL     OW15088   8.133   6.426   4.384  0.3523  0.1738  0.4691
37186SOL    HW115089   8.220   6.449   4.351  0.1400  1.9798  1.0346
37186SOL    HW215090   8.147   6.409   4.478 -0.2822  3.6806  1.3516
37187SOL     OW15091   0.226   7.323  10.011  0.0341 -0.8746 -0.0821
37187SOL    HW115092   0.268   7.400  10.051 -0.0232 -1.0266  0.2661
37187SOL    HW215093   0.287   7.297   9.941 -0.4765  0.1638 -0.9494
37188SOL     OW15094   6.602   6.300   8.347  0.1226 -0.0188 -0.7116
37188SOL    HW115095   6.662   6.268   8.280 -0.3414  1.9365 -2.1870
37188SOL    HW215096   6.657   6.345   8.410  0.3123  2.3061 -2.3769
37189SOL     OW15097   2.155   5.810   0.033  0.2686 -0.1230  0.4538
37189SOL    HW115098   2.128   5.894   0.069  0.1177  0.1570 -0.2832
37189SOL    HW215099   2.201   5.766   0.104  0.1023  0.4669  0.9294
37190SOL     OW15100   1.485   6.130  10.642  0.5900  0.3619 -0.4817
37190SOL    HW115101   1.424   6.056  10.633  1.3756 -0.5146  0.9682
37190SOL    HW215102   1.542   6.123  10.565 -1.1262  1.2495 -1.9158
37191SOL     OW15103   4.702   1.469   8.043 -0.2585  0.0386  0.1425
37191SOL    HW115104   4.733   1.379   8.048  2.0359  0.7038 -0.9176
37191SOL    HW215105   4.620   1.464   7.995 -0.2252 -1.4941  0.2123
37192SOL     OW15106   9.423   1.519   1.215  0.1712 -0.3511 -0.1008
37192SOL    HW115107   9.345   1.527   1.160  1.3841  0.3195 -1.8249
37192SOL    HW215108   9.416   1.432   1.254 -0.7833 -0.8271 -1.2676
37193SOL     OW15109   6.341   3.196   5.932 -0.7632  0.3961  0.1998
37193SOL    HW115110   6.414   3.247   5.968 -2.1750  1.3675  1.8362
37193SOL    HW215111   6.340   3.116   5.985 -0.9291  0.4279  0.2455
37194SOL     OW15112   2.381  10.114   3.451  0.2597  0.1058 -0.2209
37194SOL    HW115113   2.447  10.146   3.389  0.5408  1.4055  0.7047
37194SOL    HW215114   2.297  10.130   3.408  0.2901  3.4841  0.6846
37195SOL     OW15115   8.836   0.422   6.558 -0.1662 -0.2575 -0.2315
37195SOL    HW115116   8.861   0.384   6.474 -0.7613  0.4816 -0.7522
37195SOL    HW215117   8.743   0.441   6.550 -0.5797 -1.5154  1.1219
37196SOL     OW15118   2.884   9.949   8.500  0.0160  0.2308 -0.2844
37196SOL    HW115119   2.866  10.043   8.500 -0.4357  0.1487  0.0194
37196SOL    HW215120   2.826   9.913   8.432  2.2402  0.5229 -2.4806
37197SOL     OW15121  10.189   6.678   6.272  0.7965 -0.3868  0.0748
37197SOL    HW115122  10.094   6.672   6.258  0.9547  1.0007 -2.2357
37197SOL    HW215123  10.201   6.759   6.323  0.7394 -0.6426  0.4975
37198SOL     OW15124   7.100   9.283   9.595  0.5287  0.1543  0.3330
37198SOL    HW115125   7.026   9.231   9.628 -1.4260  2.4807 -0.0862
37198SOL    HW215126   7.152   9.301   9.673 -0.2000 -0.2093  0.9291
37199SOL     OW15127   5.979   6.123   0.271 -0.3135 -0.5495  0.0549
37199SOL    HW115128   6.024   6.183   0.331 -0.2704  0.3186 -0.8126
37199SOL    HW215129   6.028   6.042   0.276 -0.5802 -0.6413  1.5298
37200SOL     OW15130   6.022   4.786   6.480  0.5409 -0.0067 -0.0397
37200SOL    HW115131   6.055   4.713   6.427  0.3587 -0.4901  0.5001
37200SOL    HW215132   6.038   4.759   6.571  2.5744  1.6254  0.1467
37201SOL     OW15133   3.290   2.874  10.380  0.3714  0.0619  0.4247
37201SOL    HW115134   3.220   2.846  10.322 -1.0619  1.8410  1.1644
37201SOL    HW215135   3.352   2.920  10.324  0.6758 -1.0283 -0.1507
37202SOL     OW15136  10.751  10.430   6.498 -0.0058 -0.3856  0.0133
37202SOL    HW115137  10.846  10.430   6.511  0.2840  1.0649 -1.7752
37202SOL    HW215138  10.737  10.367   6.427 -0.3841 -0.5429  0.2244
37203SOL     OW15139   4.356  10.204   1.397 -0.4708  0.1881  1.0459
37203SOL    HW115140   4.374  10.124   1.348 -1.1301  0.5429  0.1915
37203SOL    HW215141   4.275  10.185   1.445 -1.7842  0.9730 -0.7314
37204SOL     OW15142   8.241   8.539   0.630  0.3305 -0.3146  0.5140
37204SOL    HW115143   8.310   8.494   0.581  0.5476 -0.0751  0.5946
37204SOL    HW215144   8.284   8.567   0.711 -0.0560 -0.8123  0.8956
37205SOL     OW15145  10.446   2.891   7.203 -0.0694 -0.5652  0.3736
37205SOL    HW115146  10.377   2.944   7.165 -1.0858 -0.9022  1.6806
37205SOL    HW215147  10.499   2.863   7.128  0.2769  1.9168 -0.4066
37206SOL     OW15148   5.257   5.639   9.430  0.0116 -0.9059  0.6155
37206SOL    HW115149   5.288   5.572   9.491 -0.3493 -0.4925  1.2667
37206SOL    HW215150   5.255   5.719   9.482  0.8950 -0.2831 -0.2869
37207SOL     OW15151   2.662   4.094  10.547  0.0739 -0.3881  0.4702
37207SOL    HW115152   2.638   4.027  10.610 -0.9049  1.1422  1.7871
37207SOL    HW215153   2.583   4.147  10.536  0.4366 -0.1653 -1.5079
37208SOL     OW15154   2.540   7.796   0.261 -0.0983 -0.3449 -0.4711
37208SOL    HW115155   2.450   7.813   0.287  0.1800  4.6933 -1.8056
37208SOL    HW215156   2.591   7.806   0.341 -0.5035 -1.6030 -0.0251
37209SOL     OW15157   3.127   4.850   0.629  0.4873  0.1273 -0.4259
37209SOL    HW115158   3.197   4.808   0.680 -2.4214 -0.7375  3.2779
37209SOL    HW215159   3.096   4.780   0.571  0.9463 -0.3002 -0.1715
37210SOL     OW15160   1.718   4.054   9.393  0.1297  0.1485  0.4669
37210SOL    HW115161   1.678   4.038   9.478  2.0124 -2.0921  1.0461
37210SOL    HW215162   1.740   4.147   9.392 -1.0763  0.4738  1.8797
37211SOL     OW15163   2.312   5.681   2.976 -0.5761 -0.1082 -0.6192
37211SOL    HW115164   2.326   5.602   2.924  0.1455 -0.3690 -0.0590
37211SOL    HW215165   2.229   5.666   3.021  0.5576 -1.5192  1.1326
37212SOL     OW15166   8.660   1.249  10.025  0.1596 -0.0990  0.1389
37212SOL    HW115167   8.597   1.278  10.091  2.2236 -0.4426  2.4129
37212SOL    HW215168   8.695   1.330   9.988  0.3640  0.1557  0.8753
37213SOL     OW15169   2.721   6.899   6.728  0.0351 -0.1459  0.0753
37213SOL    HW115170   2.728   6.988   6.692 -0.0686 -0.4713 -0.7810
37213SOL    HW215171   2.633   6.870   6.702 -0.7491  0.2448  2.1242
37214SOL     OW15172   9.252   0.094  10.221  0.4796 -0.1370 -0.0407
37214SOL    HW115173   9.266   0.163  10.156  0.3252  1.4355  1.5072
37214SOL    HW215174   9.211   0.023  10.172  1.8257  0.3425 -1.9618
37215SOL     OW15175   4.548   9.443   5.626 -0.1603  0.7329  0.4213
37215SOL    HW115176   4.515   9.505   5.691 -0.4664  2.0996 -0.9699
37215SOL    HW215177   4.602   9.382   5.675  0.3556  2.2662  1.8163
37216SOL     OW15178   7.916  10.652   2.144 -0.5766  0.1857  0.2840
37216SOL    HW115179   7.895  10.664   2.236 -2.0653  2.3069 -0.2750
37216SOL    HW215180   7.950  10.737   2.115 -1.2060 -0.0734 -1.3673
37217SOL     OW15181   8.268   4.380   4.576 -0.5521 -0.2676 -0.6937
37217SOL    HW115182   8.296   4.292   4.552 -1.0989 -0.2006 -1.5876
37217SOL    HW215183   8.178   4.370   4.606  0.1970 -0.4038  1.7161
37218SOL     OW15184   5.384   6.777   1.059  0.0578  0.4020  0.1599
37218SOL    HW115185   5.426   6.748   1.140  0.3075 -1.0249 -0.4464
37218SOL    HW215186   5.401   6.871   1.055  0.1663  0.4652  1.6810
37219SOL     OW15187   5.317   7.421   5.890  0.5100  0.0631  0.4772
37219SOL    HW115188   5.321   7.378   5.804  2.1369  0.5482  0.2734
37219SOL    HW215189   5.230   7.460   5.893 -0.9125 -2.8323  0.4867
37220SOL     OW15190   6.435   3.093   7.758  0.1673 -0.1305 -0.1059
37220SOL    HW115191   6.409   3.088   7.666  0.3441 -0.2833 -0.1488
37220SOL    HW215192   6.422   3.185   7.782 -1.3223 -0.3881  0.1457
37221SOL     OW15193   7.659   2.615   1.536 -0.4140 -0.1135 -0.2572
37221SOL    HW115194   7.720   2.688   1.523 -0.9315 -0.1027 -3.6502
37221SOL    HW215195   7.674   2.558   1.460 -3.6847 -0.7805 -0.5402
37222SOL     OW15196   4.140   6.805   4.573 -0.2646  0.6071  0.1310
37222SOL    HW115197   4.219   6.751   4.576 -0.0157  0.6998 -2.4388
37222SOL    HW215198   4.164   6.879   4.516 -2.6080 -0.1439 -1.9756
37223SOL     OW15199   5.632   7.757   4.795 -0.1515  0.2611  0.0984
37223SOL    HW115200   5.701   7.690   4.802  0.0689  0.4111 -0.5503
37223SOL    HW215201   5.617   7.766   4.701  0.9357  2.2453  0.0574
37224SOL     OW15202   8.608   6.750   5.089  0.0042  0.3248  0.4976
37224SOL    HW115203   8.539   6.719   5.029  0.6360 -1.2931  0.5561
37224SOL    HW215204   8.629   6.838   5.058 -0.1408 -0.2229 -1.2693
37225SOL     OW15205   6.325   4.543   1.314 -0.1247  0.9449  0.1379
37225SOL    HW115206   6.248   4.591   1.343  0.4819  2.5674 -0.8529
37225SOL    HW215207   6.312   4.531   1.220  0.8380  1.2763 -0.0478
37226SOL     OW15208   1.457   7.336   8.487  0.1473  0.7638 -0.5868
37226SOL    HW115209   1.467   7.430   8.495 -0.3154  0.7970 -0.3888
37226SOL    HW215210   1.530   7.299   8.536 -1.4144  0.9836  2.1156
37227SOL     OW15211   2.543   2.275   9.710  0.4405 -0.3445  0.1198
37227SOL    HW115212   2.593   2.313   9.638 -0.4761  0.3945 -0.1455
37227SOL    HW215213   2.578   2.186   9.719  1.5025  0.0170 -0.3183
37228SOL     OW15214   8.695   0.212   0.242 -0.2853  0.1670  0.1625
37228SOL    HW115215   8.776   0.262   0.233 -0.6735  1.3170  2.3862
37228SOL    HW215216   8.626   0.270   0.209 -0.4781  0.1909  0.6038
37229SOL     OW15217   5.826   9.079  11.077 -0.1158  0.1898  0.1453
37229SOL    HW115218   5.848   8.986  11.081 -0.0619  0.1736 -0.4780
37229SOL    HW215219   5.749   9.084  11.021  0.1655  0.5624 -0.2192
37230SOL     OW15220   7.573   2.145   3.461 -0.2110 -0.2852  0.5200
37230SOL    HW115221   7.616   2.139   3.376 -1.0387 -2.3113  0.1653
37230SOL    HW215222   7.521   2.225   3.456  0.5389  0.1583 -0.4939
37231SOL     OW15223   6.206   6.480  11.006 -0.2534 -0.2762 -1.0645
37231SOL    HW115224   6.261   6.554  11.031 -0.3718 -0.2425 -0.8984
37231SOL    HW215225   6.241   6.406  11.054 -0.2743 -0.2801 -1.0550
37232SOL     OW15226   6.523   9.435   0.929  0.4666  0.4687  0.0168
37232SOL    HW115227   6.600   9.477   0.966  0.3116  0.3916  0.4315
37232SOL    HW215228   6.542   9.428   0.835  0.3052  1.8617 -0.1419
37233SOL     OW15229  10.260   7.799   5.643 -0.3233  0.4118  0.7133
37233SOL    HW115230  10.209   7.876   5.668  0.0277  0.4202  1.4148
37233SOL    HW215231  10.334   7.834   5.592 -0.8556  0.4216 -0.0741
37234SOL     OW15232   8.848  10.016   3.081 -0.6718  0.4516 -0.0430
37234SOL    HW115233   8.791  10.056   3.015 -0.0987  2.2986  0.5177
37234SOL    HW215234   8.933  10.058   3.067  0.1122 -0.9723  0.2654
37235SOL     OW15235   7.380   7.587   8.211 -0.1984 -0.2201 -0.0458
37235SOL    HW115236   7.415   7.525   8.275  1.0656  0.0776 -0.4227
37235SOL    HW215237   7.426   7.566   8.129 -1.7160 -0.5318 -0.8604
37236SOL     OW15238   0.842   9.614   7.098 -0.2341  0.3824 -0.0587
37236SOL    HW115239   0.879   9.699   7.121  0.6820 -0.7759  3.4419
37236SOL    HW215240   0.918   9.563   7.067 -0.6520  0.5787 -1.4763
37237SOL     OW15241   1.352   6.791   6.535 -1.0749  0.0861 -0.8054
37237SOL    HW115242   1.414   6.849   6.490 -0.1998  1.0637  1.5148
37237SOL    HW215243   1.266   6.824   6.510 -0.7226 -0.4288 -2.9747
37238SOL     OW15244   1.578   1.416   2.090  0.0657 -0.0275  0.4654
37238SOL    HW115245   1.645   1.398   2.156  0.9504  1.9556  0.1962
37238SOL    HW215246   1.496   1.412   2.137  0.3181 -2.5675  0.7973
37239SOL     OW15247   4.643   9.391   0.254 -0.3071 -0.0321  0.2474
37239SOL    HW115248   4.626   9.313   0.200 -0.8431 -0.1061  0.5230
37239SOL    HW215249   4.589   9.459   0.215  0.6336  0.3759 -0.3781
37240SOL     OW15250   0.735   1.618  10.605 -0.0813  0.2989  0.5554
37240SOL    HW115251   0.777   1.693  10.648 -1.9305  0.1139  2.9246
37240SOL    HW215252   0.642   1.632  10.619 -0.5613 -1.5500 -0.5340
37241SOL     OW15253   7.583   1.910   9.046  0.2707 -0.2547 -0.4682
37241SOL    HW115254   7.598   1.890   9.139 -1.2511 -1.7999 -0.4903
37241SOL    HW215255   7.655   1.867   9.000  0.8373  0.2182 -0.0360
37242SOL     OW15256   3.183   7.916   9.691 -0.3058  0.3504  0.1440
37242SOL    HW115257   3.253   7.974   9.720  2.2632 -2.3036 -0.2530
37242SOL    HW215258   3.130   7.902   9.768  0.8479  0.7874  1.0562
37243SOL     OW15259   8.009   8.869   1.286  0.0993 -0.0360  0.0701
37243SOL    HW115260   8.002   8.939   1.350 -0.0838 -1.5336  1.7650
37243SOL    HW215261   8.088   8.889   1.236 -0.7468  2.1267 -0.5057
37244SOL     OW15262   2.432   9.301   5.337  0.1908 -0.0846  0.2284
37244SOL    HW115263   2.490   9.369   5.304 -0.0887  0.0419 -0.0019
37244SOL    HW215264   2.458   9.222   5.289  1.6065 -0.5383  1.6253
37245SOL     OW15265   6.490  10.924   3.937  0.1897 -0.5524 -0.3216
37245SOL    HW115266   6.457  10.971   3.861  0.2557 -0.1001 -0.0723
37245SOL    HW215267   6.584  10.914   3.920  0.7375  1.8956  0.8957
37246SOL     OW15268   7.502   2.058  10.956  0.3008 -0.2879 -0.6411
37246SOL    HW115269   7.423   2.003  10.956 -1.6561  2.2254  1.5781
37246SOL    HW215270   7.570   2.002  10.994 -0.5626 -2.2536 -1.7956
37247SOL     OW15271   6.418   9.947   2.173 -0.1518 -0.1728  0.2167
37247SOL    HW115272   6.378   9.986   2.251  1.3182 -1.5899  1.7469
37247SOL    HW215273   6.459  10.022   2.128 -1.3671  0.7254  0.5441
37248SOL     OW15274   1.618   3.723   8.924 -0.5341 -0.2728 -0.5721
37248SOL    HW115275   1.606   3.634   8.958  2.8649 -1.1241 -1.2800
37248SOL    HW215276   1.685   3.761   8.980 -2.2794  2.1203  0.0338
37249SOL     OW15277   7.347   1.532   3.672 -0.3846  0.2640 -0.3129
37249SOL    HW115278   7.301   1.452   3.698 -1.2805  0.2940 -1.6661
37249SOL    HW215279   7.317   1.598   3.733  1.8627 -0.7583  2.1081
37250SOL     OW15280  10.042   3.141   1.654  0.2504  0.0911 -0.3460
37250SOL    HW115281  10.018   3.121   1.564 -0.0681 -0.4960 -0.1398
37250SOL    HW215282   9.968   3.191   1.688 -0.1274 -0.6180 -0.0950
37251SOL     OW15283   8.571   0.036   3.861 -0.2460  0.1582  0.2205
37251SOL    HW115284   8.515  -0.014   3.920 -1.0087 -0.2627 -0.8270
37251SOL    HW215285   8.510   0.092   3.812  0.3932  0.6804  0.0082
37252SOL     OW15286   5.479   9.360   6.997  0.0131  0.0742 -0.4080
37252SOL    HW115287   5.536   9.379   7.071  0.4568  0.0259 -0.7317
37252SOL    HW215288   5.522   9.402   6.923  0.2575 -0.9609 -0.8758
37253SOL     OW15289   8.100   0.037   8.653 -0.3733  0.4105  0.4283
37253SOL    HW115290   8.149  -0.029   8.604  0.4000  1.9759 -1.0063
37253SOL    HW215291   8.016   0.043   8.607 -0.2041  0.8578  0.1738
37254SOL     OW15292   7.437   2.381   1.423 -1.0049 -0.1037 -0.0132
37254SOL    HW115293   7.389   2.463   1.432  0.6972  1.0356 -0.7098
37254SOL    HW215294   7.457   2.354   1.513 -1.1361  0.5173  0.2039
37255SOL     OW15295  10.973   0.038   2.733  0.0080 -0.8933 -0.3999
37255SOL    HW115296  10.921  -0.042   2.737 -0.3494 -0.6124  1.0508
37255SOL    HW215297  10.909   0.108   2.721  0.1782 -0.6854 -0.1084
37256SOL     OW15298   4.283   1.291   5.473 -0.1050  0.2395 -0.0307
37256SOL    HW115299   4.216   1.289   5.404 -1.1858  0.8617  0.9580
37256SOL    HW215300   4.294   1.199   5.498 -0.7121  0.1372 -0.1102
37257SOL     OW15301   1.869   2.199   5.822  0.0576 -0.2876  0.1207
37257SOL    HW115302   1.848   2.126   5.880  0.4772 -0.7361 -0.2778
37257SOL    HW215303   1.902   2.158   5.742 -0.3344  0.3205 -0.3721
37258SOL     OW15304   3.910   1.382   5.962 -0.0323  0.3459 -0.6677
37258SOL    HW115305   3.837   1.443   5.954 -0.4959  0.2087  1.7658
37258SOL    HW215306   3.869   1.297   5.975  0.5516  0.0926 -0.4454
37259SOL     OW15307   4.184   0.964   1.149  0.1037  0.1672 -0.8442
37259SOL    HW115308   4.182   0.957   1.244 -0.1207  0.2203 -0.8439
37259SOL    HW215309   4.277   0.964   1.126  0.1526 -0.2342 -0.6543
37260SOL     OW15310   7.195   5.450   9.836  0.1349 -0.7750 -0.1464
37260SOL    HW115311   7.186   5.386   9.906  1.1156 -0.7151  0.0486
37260SOL    HW215312   7.289   5.470   9.833  0.3022 -1.5837 -2.1959
37261SOL     OW15313  10.916   7.839   6.213 -0.0635  0.3816 -0.1466
37261SOL    HW115314  10.902   7.926   6.175  1.5005  0.5053 -0.5266
37261SOL    HW215315  10.861   7.837   6.291  1.4533  2.5504  1.1032
37262SOL     OW15316   5.895   3.286   6.967 -0.3688 -0.4024  0.4960
37262SOL    HW115317   5.832   3.341   7.013  0.1486  0.8460 -0.2369
37262SOL    HW215318   5.903   3.326   6.880  0.5987 -1.1821  0.2131
37263SOL     OW15319   2.282   0.201   3.230  0.4493 -0.0026 -0.0306
37263SOL    HW115320   2.216   0.159   3.286  1.2983 -1.1160  0.1873
37263SOL    HW215321   2.320   0.269   3.286 -2.0237  2.2823 -0.8931
37264SOL     OW15322   3.683   9.847   0.289  0.3324  0.1122  0.1185
37264SOL    HW115323   3.654   9.769   0.336  0.8607  0.5742  1.2633
37264SOL    HW215324   3.699   9.817   0.200  0.8848 -1.1780  0.6210
37265SOL     OW15325   7.059   0.301   4.996  0.4777 -0.0882 -0.2176
37265SOL    HW115326   7.106   0.379   4.967  0.1967  0.1463 -0.0546
37265SOL    HW215327   7.074   0.236   4.928  3.2756 -0.9234  1.0424
37266SOL     OW15328   7.888   7.324   9.941 -0.0505  0.5534  0.1537
37266SOL    HW115329   7.896   7.414   9.908  2.1492  0.0737 -0.7944
37266SOL    HW215330   7.906   7.331  10.035  0.9433  1.0067 -0.0653
37267SOL     OW15331   0.353   3.542   7.210  0.2330 -0.2819  0.2354
37267SOL    HW115332   0.408   3.548   7.288 -0.7039 -2.1556  1.0949
37267SOL    HW215333   0.398   3.596   7.145  2.5240 -0.9115  1.2009
37268SOL     OW15334   8.509   6.995  10.045  0.2146  0.0479  0.0944
37268SOL    HW115335   8.506   6.956   9.958 -0.0026  0.1227  0.0669
37268SOL    HW215336   8.583   6.953  10.088  1.1078  0.9249 -0.5620
37269SOL     OW15337   9.641   4.900   5.800 -0.2262 -0.1168 -0.7047
37269SOL    HW115338   9.559   4.854   5.816 -0.2639 -1.1526 -3.4166
37269SOL    HW215339   9.633   4.981   5.851 -2.8996 -0.2098 -0.8218
37270SOL     OW15340   3.024   9.497   5.830 -0.0234  0.4134 -0.0513
37270SOL    HW115341   3.060   9.570   5.780  0.1747  1.1504  1.1174
37270SOL    HW215342   3.100   9.457   5.872 -0.2384  0.1355  0.0749
37271SOL     OW15343   9.205   3.314   6.861  0.4878  0.1777 -0.0245
37271SOL    HW115344   9.139   3.299   6.793  0.4225 -1.9634  0.4306
37271SOL    HW215345   9.231   3.226   6.889  1.3532  0.9854  1.9175
37272SOL     OW15346   9.162   6.636  10.205 -0.2455 -0.7429 -0.0749
37272SOL    HW115347   9.236   6.678  10.161  0.1604 -2.7683 -1.4479
37272SOL    HW215348   9.089   6.646  10.144 -0.1948 -1.8114 -0.3200
37273SOL     OW15349   7.955   3.642   4.482 -0.3200  0.2527  0.2216
37273SOL    HW115350   7.943   3.699   4.558  0.1309 -0.1047  0.5716
37273SOL    HW215351   7.998   3.564   4.518 -0.7162 -0.2099 -0.2850
37274SOL     OW15352   0.059   7.477   7.526  0.1714  0.0188 -0.5144
37274SOL    HW115353   0.056   7.508   7.617 -2.9486  1.0634 -0.8553
37274SOL    HW215354  -0.031   7.449   7.508  1.5828 -4.2955 -2.0066
37275SOL     OW15355   4.283   9.505   2.308  0.2485  0.6027 -0.4141
37275SOL    HW115356   4.291   9.427   2.253 -1.0103  0.2752 -0.1513
37275SOL    HW215357   4.366   9.552   2.295  1.4912 -1.2870  0.2355
37276SOL     OW15358   2.679  10.906   6.249 -0.2188  0.6451  0.1121
37276SOL    HW115359   2.668  10.889   6.342 -2.2751  0.7374 -0.0641
37276SOL    HW215360   2.600  10.869   6.208  1.4518 -1.0124 -1.8279
37277SOL     OW15361   7.006   7.398  10.610 -0.1613 -0.1861  0.4810
37277SOL    HW115362   6.921   7.413  10.568  0.0171  2.9966  1.0771
37277SOL    HW215363   7.070   7.414  10.542  0.0260  0.6486  0.8474
37278SOL     OW15364   4.928   7.331   9.118  0.0238  0.2532  0.2000
37278SOL    HW115365   4.869   7.326   9.043 -0.8339 -4.1486  0.9371
37278SOL    HW215366   5.001   7.273   9.095  1.2332  1.1201  1.6657
37279SOL     OW15367   4.396   3.027   7.229  0.7286  0.3833  0.0033
37279SOL    HW115368   4.441   3.086   7.290 -0.5839  0.2164  1.2084
37279SOL    HW215369   4.305   3.058   7.230  0.5599 -0.0254 -1.4082
37280SOL     OW15370   6.753   4.765   7.992  0.3140 -0.3856 -0.8843
37280SOL    HW115371   6.738   4.675   8.020 -0.1935  0.1452  0.6395
37280SOL    HW215372   6.811   4.802   8.059 -0.7528  0.8707 -0.6161
37281SOL     OW15373   3.919   1.626   6.513 -0.3883  0.1911  0.5487
37281SOL    HW115374   3.875   1.575   6.444 -0.1723  0.0546  0.5122
37281SOL    HW215375   4.005   1.646   6.476 -1.2973  2.6217 -0.4172
37282SOL     OW15376   0.397   4.525   5.315  0.4458  0.1494 -0.6076
37282SOL    HW115377   0.434   4.581   5.383  0.7919 -2.8611  1.9183
37282SOL    HW215378   0.466   4.461   5.297 -0.7489 -0.9146 -1.5600
37283SOL     OW15379   0.662   9.425   3.042  0.5254  0.6256 -0.2045
37283SOL    HW115380   0.715   9.492   3.087 -0.6597  0.9774  0.7268
37283SOL    HW215381   0.707   9.343   3.062  1.9397  1.0843 -1.2711
37284SOL     OW15382   9.702   8.596   0.014 -0.2401 -0.1327 -0.1500
37284SOL    HW115383   9.794   8.591  -0.014  0.1476  1.2627  0.7709
37284SOL    HW215384   9.655   8.619  -0.066  0.1731 -0.9630 -0.6565
37285SOL     OW15385   4.652   9.691   2.005  0.5699 -0.2837  0.7542
37285SOL    HW115386   4.703   9.723   1.931  0.8490 -2.0713  0.1370
37285SOL    HW215387   4.582   9.756   2.015  1.5053  0.8830  0.0296
37286SOL     OW15388   5.550   8.880   5.959 -0.0565  0.0670  0.2082
37286SOL    HW115389   5.516   8.936   6.029  0.9857  0.5921  0.3235
37286SOL    HW215390   5.519   8.793   5.980  1.0686  0.0350  1.9200
37287SOL     OW15391   8.611   4.309   2.680  0.1750  0.2120 -0.8006
37287SOL    HW115392   8.701   4.305   2.649  0.8533 -1.7780  1.1817
37287SOL    HW215393   8.615   4.360   2.761 -0.5475  0.3148 -0.8154
37288SOL     OW15394   6.978   1.278   9.220  0.3675 -0.6261  0.1260
37288SOL    HW115395   6.987   1.373   9.218 -0.7085 -0.5137 -0.2117
37288SOL    HW215396   7.049   1.248   9.276  1.8238  0.2178 -1.1926
37289SOL     OW15397   0.200   4.123   8.641  0.4646 -0.3170 -0.6645
37289SOL    HW115398   0.157   4.038   8.632 -1.9053  0.7310 -0.2102
37289SOL    HW215399   0.247   4.117   8.724 -0.1630 -0.9965 -0.3438
37290SOL     OW15400   5.396   2.411   2.007 -0.1951  0.7686 -0.9049
37290SOL    HW115401   5.411   2.492   1.960 -1.2353  1.8755  0.5819
37290SOL    HW215402   5.454   2.417   2.083 -1.9292  1.2241  0.4358
37291SOL     OW15403   8.675   6.659  10.526 -0.1295 -0.4171 -0.0661
37291SOL    HW115404   8.762   6.643  10.562  0.9085  1.2316 -1.6476
37291SOL    HW215405   8.622   6.687  10.600  0.9307 -0.5630  0.7620
37292SOL     OW15406   0.034   0.725   5.756  0.4677 -0.6185 -0.4669
37292SOL    HW115407   0.059   0.756   5.843 -0.7675 -0.7060 -0.0689
37292SOL    HW215408  -0.046   0.675   5.771 -1.1514  1.3848 -1.9568
37293SOL     OW15409   9.785   4.469   6.512 -0.0159  0.0409 -0.1727
37293SOL    HW115410   9.856   4.431   6.460 -0.5621 -1.2723  0.0081
37293SOL    HW215411   9.712   4.475   6.451  0.2089  1.3198 -0.3382
37294SOL     OW15412   1.725   9.833   0.713 -0.4431  0.3220  0.1101
37294SOL    HW115413   1.750   9.889   0.786  1.0372  2.6085 -1.9916
37294SOL    HW215414   1.636   9.862   0.690 -0.8404 -0.2803  0.8271
37295SOL     OW15415   5.211   9.340   4.539  0.3266  0.6096 -0.1964
37295SOL    HW115416   5.219   9.403   4.468  3.0818  0.7160  0.1033
37295SOL    HW215417   5.291   9.288   4.535  0.0546 -0.1284  2.1189
37296SOL     OW15418   9.809   8.787   6.489  0.7282 -0.0384 -0.0586
37296SOL    HW115419   9.771   8.700   6.489  0.0656  0.2423 -0.2466
37296SOL    HW215420   9.894   8.777   6.446  0.1616 -0.3910 -1.1283
37297SOL     OW15421   5.178   2.521  10.742 -0.6300  0.0808 -0.3884
37297SOL    HW115422   5.106   2.577  10.714  0.8741  1.6196 -1.3968
37297SOL    HW215423   5.205   2.557  10.826 -0.8867 -0.3642 -0.1112
37298SOL     OW15424   7.205   8.692   9.250 -0.6207 -0.5883  0.3004
37298SOL    HW115425   7.194   8.785   9.233  0.9041 -0.6760 -1.4138
37298SOL    HW215426   7.122   8.653   9.221 -0.0184 -0.1098 -2.2530
37299SOL     OW15427   8.451   3.219   5.366  0.1919  0.2449 -0.3070
37299SOL    HW115428   8.535   3.265   5.369  0.8765 -0.9981  1.3053
37299SOL    HW215429   8.453   3.172   5.282  0.9438  0.5393 -0.4665
37300SOL     OW15430   4.896   2.744   0.489 -0.0277 -0.0001 -0.2997
37300SOL    HW115431   4.902   2.782   0.401 -0.5809  3.4058  0.9695
37300SOL    HW215432   4.950   2.801   0.543  0.2082 -1.9497  1.6189
37301SOL     OW15433   5.460   5.491   2.865  0.2882 -0.3827 -1.2857
37301SOL    HW115434   5.536   5.481   2.808  0.8928 -1.0843 -0.3890
37301SOL    HW215435   5.482   5.441   2.944  0.3166  2.1655  0.4275
37302SOL     OW15436   0.096  10.141   4.281  0.1187  0.6403  0.0972
37302SOL    HW115437   0.111  10.057   4.324 -2.2346  0.1960  0.2100
37302SOL    HW215438   0.001  10.143   4.267  0.4606  1.9827 -2.5716
37303SOL     OW15439   1.279   7.387   3.492 -0.5845  0.1652 -0.2080
37303SOL    HW115440   1.266   7.314   3.553  0.9140  0.4802  0.5562
37303SOL    HW215441   1.332   7.350   3.422  0.3295  0.5342  0.2702
37304SOL     OW15442   7.918   2.537   9.235 -0.2733  0.3308 -0.2829
37304SOL    HW115443   7.908   2.474   9.164 -0.2336 -0.0512  0.0471
37304SOL    HW215444   8.011   2.557   9.237 -0.2189  0.0654 -0.1053
37305SOL     OW15445   1.057   7.580   7.368 -0.0053 -0.3467  0.2093
37305SOL    HW115446   1.128   7.537   7.321 -0.1692 -0.4429  0.0491
37305SOL    HW215447   1.002   7.617   7.299  0.0903  0.0478  0.3425
37306SOL     OW15448   2.735   4.360   4.369 -0.2108  0.5650  0.1692
37306SOL    HW115449   2.742   4.319   4.283 -1.2501  0.7828 -0.0295
37306SOL    HW215450   2.768   4.449   4.355 -0.0276  0.4849  0.0839
37307SOL     OW15451   9.804   0.358   1.065 -0.2654 -0.0462 -0.5692
37307SOL    HW115452   9.807   0.448   1.096 -1.7081  0.8912 -2.9105
37307SOL    HW215453   9.846   0.361   0.979 -0.7022 -1.5326 -0.8589
37308SOL     OW15454  10.317  10.038   5.873 -0.1045  1.1192  0.1989
37308SOL    HW115455  10.245   9.975   5.868  0.0193  1.0623 -1.5468
37308SOL    HW215456  10.394   9.984   5.892 -0.0305  0.7236 -1.1016
37309SOL     OW15457   1.031   2.383   4.928 -0.4972  0.5760  0.1245
37309SOL    HW115458   0.942   2.349   4.915 -0.1689 -0.4896  0.5946
37309SOL    HW215459   1.084   2.335   4.865  0.1159 -0.3922  1.3498
37310SOL     OW15460   9.456   5.362   0.727 -0.0577 -0.0391  0.5062
37310SOL    HW115461   9.392   5.291   0.723 -1.1184  0.9654 -2.3003
37310SOL    HW215462   9.429   5.414   0.803 -1.3917 -0.7024  0.5175
37311SOL     OW15463   1.741   7.305   1.228 -0.3112 -0.2459  0.4069
37311SOL    HW115464   1.742   7.371   1.297  0.1876 -0.6085  0.7547
37311SOL    HW215465   1.810   7.243   1.253  0.6362  0.1969 -0.9852
37312SOL     OW15466   1.066  11.101   8.849 -0.3524  0.0347  0.3432
37312SOL    HW115467   0.983  11.144   8.868 -1.2713 -1.3709 -0.3058
37312SOL    HW215468   1.052  11.009   8.873  1.4591  0.0020  1.4903
37313SOL     OW15469   8.574   6.773   0.385  0.8176  0.4206  0.1406
37313SOL    HW115470   8.606   6.689   0.418  0.5450 -0.1487 -1.0123
37313SOL    HW215471   8.646   6.808   0.334  0.4428  0.2205 -0.5399
37314SOL     OW15472   2.390   5.268   1.347  0.0919 -0.0349 -0.4112
37314SOL    HW115473   2.434   5.218   1.416  0.9237  0.8644 -0.2607
37314SOL    HW215474   2.409   5.219   1.266 -0.4846 -0.8306 -0.0784
37315SOL     OW15475   6.153   5.622   4.535 -0.0798 -0.0023  0.5679
37315SOL    HW115476   6.102   5.558   4.584  0.1661  1.9083  3.5883
37315SOL    HW215477   6.181   5.576   4.456 -1.4579 -2.9673  1.6867
37316SOL     OW15478   1.060   9.946   0.226 -0.0945 -0.3677  0.3513
37316SOL    HW115479   1.036  10.023   0.174  1.2369 -0.0029  0.2557
37316SOL    HW215480   1.049   9.872   0.167 -0.1637 -0.1246  0.0581
37317SOL     OW15481   0.555  11.092   9.396 -0.0710 -0.5454  0.3951
37317SOL    HW115482   0.529  11.014   9.347  1.1340 -0.4202 -0.4709
37317SOL    HW215483   0.576  11.157   9.329  1.3698 -0.2884  1.0612
37318SOL     OW15484   8.432   8.932   2.236  0.4252 -0.1652 -0.1533
37318SOL    HW115485   8.342   8.957   2.217  0.1964 -0.1915  0.8330
37318SOL    HW215486   8.437   8.839   2.212 -0.1407 -0.4651  0.8406
37319SOL     OW15487   0.607   1.460   7.439 -0.0534  0.6669  0.0663
37319SOL    HW115488   0.523   1.427   7.470 -0.8987  2.2906 -0.3654
37319SOL    HW215489   0.632   1.527   7.504  0.3969  0.8949 -0.3357
37320SOL     OW15490   3.059   7.032   9.720 -0.2172  0.1785  0.0564
37320SOL    HW115491   3.011   6.949   9.728 -0.1903  0.1861  0.2998
37320SOL    HW215492   2.991   7.099   9.722 -0.2012  0.1873  0.3646
37321SOL     OW15493   0.579  11.078   8.327  0.7563 -0.4609 -0.0889
37321SOL    HW115494   0.641  11.131   8.277  0.4175 -0.1352 -0.1703
37321SOL    HW215495   0.522  11.039   8.260  1.1907 -1.1729 -0.0500
37322SOL     OW15496   5.405   7.342   7.278 -0.4321 -0.0894  0.1083
37322SOL    HW115497   5.452   7.332   7.195 -1.2232 -0.0128 -0.3585
37322SOL    HW215498   5.313   7.352   7.252 -0.5021  1.6154  0.8820
37323SOL     OW15499   3.397   6.773   6.075  0.1535  0.0514  0.0370
37323SOL    HW115500   3.418   6.724   5.996  0.4306  0.3584 -0.0825
37323SOL    HW215501   3.387   6.706   6.143 -0.5033 -0.2450 -0.3414
37324SOL     OW15502   6.533   5.467  10.860 -0.2487 -0.1072  0.1469
37324SOL    HW115503   6.496   5.465  10.948 -0.1598 -1.0228  0.1817
37324SOL    HW215504   6.578   5.551  10.854 -1.6565  0.6823  0.3738
37325SOL     OW15505   3.067   0.264  10.666 -0.1372 -0.1545 -0.7300
37325SOL    HW115506   3.080   0.170  10.660 -0.4806 -0.2202 -0.4993
37325SOL    HW215507   3.133   0.302  10.608  2.1844 -0.3513  1.6046
37326SOL     OW15508   4.612   6.693   5.959  0.2993 -0.2102 -0.4229
37326SOL    HW115509   4.689   6.750   5.966 -0.9750  1.4105  1.2872
37326SOL    HW215510   4.537   6.751   5.969 -1.1062 -2.0806  0.6728
37327SOL     OW15511   1.783   6.911   3.983  0.3769 -0.0407 -0.3617
37327SOL    HW115512   1.733   6.830   3.967 -0.7817  0.6086 -0.1516
37327SOL    HW215513   1.794   6.949   3.896  2.8914 -1.4919 -0.7701
37328SOL     OW15514   6.307  10.262   0.276 -0.3198 -0.2952 -0.1755
37328SOL    HW115515   6.230  10.221   0.238 -0.8436  1.2008 -0.8159
37328SOL    HW215516   6.333  10.329   0.213  0.6466  0.1978  0.6911
37329SOL     OW15517   8.176  10.289   1.018 -0.1410  0.5361  0.4638
37329SOL    HW115518   8.209  10.355   1.078 -1.1540  1.7022 -0.2180
37329SOL    HW215519   8.081  10.289   1.033 -0.3728  0.6542 -0.9261
37330SOL     OW15520   7.635   5.769   2.420 -0.4437  0.1364  0.1429
37330SOL    HW115521   7.669   5.717   2.492 -0.0843 -0.8900 -0.7395
37330SOL    HW215522   7.673   5.856   2.434  1.3744 -0.5878  0.0269
37331SOL     OW15523  11.061   8.505   0.689 -0.7343 -0.4050 -0.8466
37331SOL    HW115524  11.086   8.414   0.704 -2.8712 -1.0990 -1.1535
37331SOL    HW215525  11.115   8.533   0.615 -0.4447 -1.5966 -1.1087
37332SOL     OW15526  11.101   3.735   5.972 -0.3422 -0.4341 -0.3359
37332SOL    HW115527  11.051   3.656   5.952 -0.3758 -0.1666 -1.3593
37332SOL    HW215528  11.039   3.807   5.958 -0.2917 -0.2163  0.5161
37333SOL     OW15529   2.078   9.479   1.723  0.5813 -0.5190 -0.6839
37333SOL    HW115530   2.083   9.443   1.812  1.2120  0.3614 -0.3496
37333SOL    HW215531   2.023   9.417   1.676 -1.0400 -0.2384  0.7232
37334SOL     OW15532   4.704   8.298   3.154 -0.3318  0.0819 -0.1089
37334SOL    HW115533   4.757   8.265   3.226 -0.1428  1.0448  0.1971
37334SOL    HW215534   4.629   8.340   3.196 -1.6674 -1.7275 -0.5411
37335SOL     OW15535   4.232   2.940   8.548 -0.0632 -0.1401  0.1118
37335SOL    HW115536   4.286   2.974   8.476 -1.3085  0.8820 -0.3828
37335SOL    HW215537   4.152   2.910   8.506  0.3394 -2.2868  0.7491
37336SOL     OW15538   6.426   2.135   9.509  0.2071 -0.3067  0.2635
37336SOL    HW115539   6.499   2.153   9.568  1.5939 -0.2257 -1.4255
37336SOL    HW215540   6.366   2.081   9.561  2.2280 -1.7685  1.1814
37337SOL     OW15541   5.924   6.997   2.917 -0.5629  0.4162  0.5762
37337SOL    HW115542   6.005   6.987   2.967 -0.7051 -1.5298  0.5208
37337SOL    HW215543   5.881   7.073   2.956  0.9782  1.1019  1.0198
37338SOL     OW15544   1.500   9.556   9.199 -0.0495  0.4462  0.2951
37338SOL    HW115545   1.439   9.521   9.264 -0.2714 -0.5376 -0.4149
37338SOL    HW215546   1.569   9.491   9.194  0.2883  0.8245  0.0019
37339SOL     OW15547   4.815   5.826   6.811 -0.3470 -0.4874  0.2015
37339SOL    HW115548   4.781   5.865   6.891 -1.5913 -0.5851 -0.2672
37339SOL    HW215549   4.909   5.846   6.813 -0.6338  0.9113  0.8765
37340SOL     OW15550   5.501   1.902   1.486  0.6642 -0.4616 -0.3627
37340SOL    HW115551   5.489   1.995   1.506  0.6792 -0.4674 -0.3261
37340SOL    HW215552   5.592   1.896   1.456  1.4735 -0.8458  1.9604
37341SOL     OW15553   1.654  10.869   2.654  0.1460  0.0442  0.8209
37341SOL    HW115554   1.681  10.961   2.649 -0.4034  0.1701 -0.1399
37341SOL    HW215555   1.736  10.821   2.667  0.5175  0.6185  0.6559
37342SOL     OW15556   2.316   9.609   8.353 -0.5364  0.1314  0.2665
37342SOL    HW115557   2.336   9.595   8.446 -1.4086  2.0274  0.8011
37342SOL    HW215558   2.269   9.692   8.352  1.7118  1.5118 -2.1734
37343SOL     OW15559   0.372   4.047   4.800  0.1655 -0.0121 -0.1309
37343SOL    HW115560   0.303   3.990   4.766 -0.0258 -1.0732  1.8951
37343SOL    HW215561   0.411   4.086   4.721 -0.3383 -2.1735 -1.5547
37344SOL     OW15562   1.894   2.957   9.651  0.1930 -0.0773  0.3984
37344SOL    HW115563   1.983   2.935   9.680  0.4548  0.5992  0.1448
37344SOL    HW215564   1.855   2.872   9.629  1.0470 -0.3372 -0.2267
37345SOL     OW15565  10.701   1.981   1.600  0.3255  0.1916 -0.4533
37345SOL    HW115566  10.741   2.031   1.529 -0.6718 -0.8438 -1.8189
37345SOL    HW215567  10.615   2.021   1.612  0.2385 -0.0429 -0.2819
37346SOL     OW15568   7.493   7.146   8.856 -0.1551 -0.0091 -0.3274
37346SOL    HW115569   7.561   7.211   8.872 -1.0059  0.8650 -0.2298
37346SOL    HW215570   7.460   7.124   8.943  0.6352 -1.1571 -0.2848
37347SOL     OW15571   7.454   0.445   1.912 -0.2386  0.5627 -0.1545
37347SOL    HW115572   7.369   0.411   1.883 -0.0055  0.2839 -0.5240
37347SOL    HW215573   7.438   0.478   2.000 -0.2002 -1.7558  0.8148
37348SOL     OW15574   9.714   1.389   1.609 -0.3745  0.4542 -0.4831
37348SOL    HW115575   9.631   1.432   1.628  0.3227  0.7688  2.2395
37348SOL    HW215576   9.712   1.308   1.661  1.1052  0.5808 -0.1827
37349SOL     OW15577   6.914   0.792   2.349  0.2851 -0.5006 -0.3631
37349SOL    HW115578   6.855   0.795   2.274 -2.1101  1.2139  1.4585
37349SOL    HW215579   7.002   0.789   2.310 -0.8796 -1.4830 -3.1839
37350SOL     OW15580   2.260   8.268   2.228  0.5931 -0.0896  0.1753
37350SOL    HW115581   2.281   8.239   2.316 -1.0487  0.2987  0.7299
37350SOL    HW215582   2.199   8.341   2.240  1.0104  0.5570 -1.2732
37351SOL     OW15583   9.602   0.636   2.473 -0.1098  0.4293  0.3624
37351SOL    HW115584   9.611   0.541   2.468  0.6189  0.4865  0.5972
37351SOL    HW215585   9.690   0.670   2.459 -0.3547  1.0714  0.3312
37352SOL     OW15586   1.549   7.246   2.550 -0.9861  0.1908  0.7313
37352SOL    HW115587   1.567   7.156   2.522 -1.4733  0.2080  0.3536
37352SOL    HW215588   1.630   7.293   2.531 -0.4547 -0.3263  1.6460
37353SOL     OW15589   9.433   4.890   1.577 -0.0196 -0.0494  0.2219
37353SOL    HW115590   9.492   4.815   1.568  1.1090  1.0508 -2.7633
37353SOL    HW215591   9.491   4.966   1.581 -1.1856  0.8761  0.0849
37354SOL     OW15592   8.182   3.763   1.214  0.4724 -0.2867  0.4613
37354SOL    HW115593   8.246   3.830   1.189 -1.4774  2.1045  1.3804
37354SOL    HW215594   8.129   3.749   1.136  0.7280 -0.5699  0.3386
37355SOL     OW15595   8.888   7.450   4.231 -0.4039  0.3437 -0.3009
37355SOL    HW115596   8.955   7.393   4.268  0.3008  1.7963  0.7504
37355SOL    HW215597   8.936   7.526   4.198 -1.5106  1.4463  0.5237
37356SOL     OW15598   0.556   4.708   7.749  0.5711  0.1399 -0.2298
37356SOL    HW115599   0.617   4.636   7.735  1.8774  1.2865 -0.6201
37356SOL    HW215600   0.612   4.786   7.757 -0.8509  1.2603 -0.8201
37357SOL     OW15601   5.895   1.719   8.027 -0.2220  0.3755 -0.5349
37357SOL    HW115602   5.955   1.657   7.985 -1.1354 -0.3339 -0.8226
37357SOL    HW215603   5.845   1.757   7.954 -0.8062  0.2161 -0.2244
37358SOL     OW15604   2.285   7.347   6.312 -0.5669 -0.3461 -0.4878
37358SOL    HW115605   2.211   7.355   6.253 -0.4586  1.9935 -0.3684
37358SOL    HW215606   2.257   7.391   6.392 -0.2584 -2.3944  0.8323
37359SOL     OW15607   2.737  10.623   8.958 -0.5786 -0.0418  0.9087
37359SOL    HW115608   2.662  10.621   9.016 -1.7105  0.0434 -0.4876
37359SOL    HW215609   2.707  10.671   8.880  1.1400  0.6390  0.5949
37360SOL     OW15610   3.677  10.580   8.128 -0.1209  0.2819  0.1215
37360SOL    HW115611   3.723  10.607   8.048  1.2852  0.4492  0.9564
37360SOL    HW215612   3.741  10.527   8.176 -1.3375 -0.7919  0.6105
37361SOL     OW15613   5.244   3.456   4.864 -0.2542 -0.0028  0.0964
37361SOL    HW115614   5.303   3.383   4.884 -1.8338 -0.8076  2.0793
37361SOL    HW215615   5.298   3.534   4.879  0.5674 -0.7197  1.0130
37362SOL     OW15616   3.416   5.591   6.059  0.1374 -0.2162 -0.5617
37362SOL    HW115617   3.336   5.635   6.030  0.4219 -0.0162 -1.0624
37362SOL    HW215618   3.448   5.644   6.132 -0.5220 -0.6548  0.0580
37363SOL     OW15619   7.158   3.225   0.228 -0.3596  0.4090  0.5140
37363SOL    HW115620   7.093   3.165   0.265  0.8623 -1.9243 -0.8693
37363SOL    HW215621   7.109   3.277   0.164 -1.4432  0.9196  1.7199
37364SOL     OW15622   6.545  10.169   5.491  0.3826 -0.0872  0.0926
37364SOL    HW115623   6.594  10.130   5.418  2.7037  0.3022  1.3529
37364SOL    HW215624   6.612  10.194   5.554 -1.5315 -0.3093  2.3507
37365SOL     OW15625   4.772   4.550   8.112 -0.1287 -0.5574  0.1677
37365SOL    HW115626   4.827   4.575   8.186 -0.7152  0.8638  0.1538
37365SOL    HW215627   4.769   4.628   8.057 -0.1582 -1.4148 -1.0838
37366SOL     OW15628   3.001   1.070   2.564 -0.6749  0.2131 -0.2919
37366SOL    HW115629   2.937   1.000   2.573 -0.3949  0.1319  1.7214
37366SOL    HW215630   3.061   1.057   2.638 -0.2689  2.1903 -0.1981
37367SOL     OW15631   8.090   3.626   4.896  0.3905 -0.3772  0.2559
37367SOL    HW115632   8.058   3.554   4.951 -1.2372  0.4753  0.5178
37367SOL    HW215633   8.093   3.590   4.808  0.5279 -1.0409  0.5300
37368SOL     OW15634  10.420   9.579   7.637  0.1051 -0.0608 -0.3254
37368SOL    HW115635  10.469   9.498   7.653 -1.1138 -0.9585 -0.9203
37368SOL    HW215636  10.434   9.597   7.544 -0.2690 -0.0382 -0.3795
37369SOL     OW15637   0.679   7.271   4.510 -0.2954 -0.4727 -0.0681
37369SOL    HW115638   0.717   7.275   4.598  1.6454 -1.1400 -0.8144
37369SOL    HW215639   0.644   7.359   4.495 -0.6921 -0.3656  1.3709
37370SOL     OW15640   9.236   4.220   5.157  0.2066 -0.4784  0.3865
37370SOL    HW115641   9.250   4.164   5.081 -2.0206 -2.0160  1.0175
37370SOL    HW215642   9.263   4.166   5.232 -0.2299 -0.0155  0.8882
37371SOL     OW15643  10.512   1.174   2.417 -0.0470  0.1361  0.2496
37371SOL    HW115644  10.593   1.132   2.389  0.6205  1.5242  0.0185
37371SOL    HW215645  10.458   1.176   2.338 -0.7695 -1.7132  0.6354
37372SOL     OW15646   8.188   1.553   3.346 -0.2230  0.0642 -0.1141
37372SOL    HW115647   8.191   1.568   3.252 -1.8171 -0.7414 -0.3114
37372SOL    HW215648   8.211   1.460   3.357  0.3584  0.2500  0.3374
37373SOL     OW15649   3.266   8.809   7.569 -0.7045 -0.3504 -0.3691
37373SOL    HW115650   3.231   8.778   7.653 -0.5454  1.5142  0.4298
37373SOL    HW215651   3.200   8.869   7.536  0.1103  0.4468 -0.6007
37374SOL     OW15652   6.970   1.811   4.172 -0.3196  0.5230 -0.1090
37374SOL    HW115653   6.948   1.882   4.112 -0.9902 -0.6129 -1.2737
37374SOL    HW215654   6.928   1.835   4.254 -2.0273  0.6791 -0.9755
37375SOL     OW15655   6.558   1.727   7.050 -0.4482 -0.5684  0.5311
37375SOL    HW115656   6.627   1.674   7.091 -0.5726 -0.5915  0.7137
37375SOL    HW215657   6.559   1.702   6.958 -0.0682 -0.4144  0.4931
37376SOL     OW15658   0.271   4.635  10.942 -0.1486  0.0200  0.1187
37376SOL    HW115659   0.290   4.546  10.910 -1.2700 -0.5774  1.0220
37376SOL    HW215660   0.312   4.638  11.028 -0.0068  0.4167  0.0355
37377SOL     OW15661   1.183  10.289   3.842  0.2025 -0.0205 -0.3637
37377SOL    HW115662   1.277  10.291   3.858  0.0842  0.5463  0.3080
37377SOL    HW215663   1.159  10.196   3.851  0.5343 -0.0348  0.4991
37378SOL     OW15664   7.119   8.249   6.098 -0.1775 -0.2050  0.3434
37378SOL    HW115665   7.213   8.235   6.095 -0.3677 -1.5782  0.2166
37378SOL    HW215666   7.095   8.234   6.189 -0.7168 -3.3922 -0.1930
37379SOL     OW15667   7.632   0.715   5.057 -0.0185 -0.0977  0.2510
37379SOL    HW115668   7.693   0.643   5.039  0.3532  0.5713 -1.3531
37379SOL    HW215669   7.688   0.792   5.061 -0.8569  0.9199 -3.6811
37380SOL     OW15670   4.500   7.114   8.445  0.0374  0.0177  0.8145
37380SOL    HW115671   4.464   7.063   8.372  0.6840  2.8996 -1.7192
37380SOL    HW215672   4.432   7.177   8.466  0.9542  1.0862  0.6756
37381SOL     OW15673   6.685  10.633   3.186  1.1394 -0.6713 -0.3356
37381SOL    HW115674   6.595  10.662   3.200  1.2962  0.8876 -2.0334
37381SOL    HW215675   6.687  10.602   3.095  2.3680 -0.3397 -0.4499
37382SOL     OW15676   1.776   6.023   2.169 -0.2656  0.1338  0.2070
37382SOL    HW115677   1.821   5.953   2.217 -0.6046  0.9345  1.7604
37382SOL    HW215678   1.710   6.055   2.229 -2.6780 -0.6845 -1.8454
37383SOL     OW15679   3.392   7.719   4.857 -0.2691 -0.1321  0.3471
37383SOL    HW115680   3.424   7.719   4.948 -1.9783  2.3143  1.0472
37383SOL    HW215681   3.372   7.810   4.839  1.8739 -0.1738 -3.2774
37384SOL     OW15682  10.411   6.501   9.837  0.0770 -0.0362 -0.2638
37384SOL    HW115683  10.463   6.577   9.810 -0.1544  0.3606  0.3860
37384SOL    HW215684  10.476   6.437   9.864  0.3131 -0.4472 -1.7468
37385SOL     OW15685   7.245   5.904   0.817  0.3421  0.8045 -0.4656
37385SOL    HW115686   7.296   5.903   0.736 -0.0211  1.0248 -0.7015
37385SOL    HW215687   7.251   5.994   0.849 -2.1807  1.6444 -1.9945
37386SOL     OW15688   3.223   8.499  10.074 -0.2546 -0.5689  0.5019
37386SOL    HW115689   3.271   8.445  10.011 -0.5727 -0.6274  0.3058
37386SOL    HW215690   3.184   8.569  10.021  0.5811  0.1627  0.8222
37387SOL     OW15691  10.959   9.672   1.827 -0.0583 -0.2584  0.2933
37387SOL    HW115692  11.022   9.724   1.877 -0.8446  0.3373  0.6794
37387SOL    HW215693  10.903   9.737   1.783  1.1106 -0.7280 -2.0597
37388SOL     OW15694   4.915  10.025   7.679  1.0665 -0.0951  0.2392
37388SOL    HW115695   4.842   9.992   7.731  0.9531  1.6409  1.2424
37388SOL    HW215696   4.968   9.948   7.660 -1.2650 -1.5001 -0.9599
37389SOL     OW15697   7.259   7.642   7.864 -0.2042  0.0606 -0.0372
37389SOL    HW115698   7.312   7.595   7.928  0.0272 -0.7748 -0.8366
37389SOL    HW215699   7.169   7.629   7.894 -0.0540  0.3894  0.5870
37390SOL     OW15700   8.823   6.255   9.268 -0.3292 -0.2296 -0.4090
37390SOL    HW115701   8.857   6.214   9.188  0.0807 -0.4779 -0.1086
37390SOL    HW215702   8.728   6.243   9.262 -0.3977  0.6116 -1.3286
37391SOL     OW15703   9.532   2.847   0.665  0.6411 -0.0868  0.4863
37391SOL    HW115704   9.459   2.889   0.620  1.3339  0.3803 -0.2208
37391SOL    HW215705   9.531   2.886   0.753  0.0285 -0.1144  0.5014
37392SOL     OW15706   1.772   0.611   9.657  0.2233 -0.3223 -0.4886
37392SOL    HW115707   1.706   0.675   9.683  0.5673 -0.1383 -0.0339
37392SOL    HW215708   1.852   0.663   9.645  0.9396 -0.8573  1.5744
37393SOL     OW15709  10.323   3.212   5.549 -0.2717 -0.3377  0.1872
37393SOL    HW115710  10.239   3.168   5.563  0.6080 -1.5363  2.2874
37393SOL    HW215711  10.352   3.181   5.463 -0.7632 -2.1051  0.6067
37394SOL     OW15712   1.404   3.908   6.926 -0.3587  0.4755 -0.4599
37394SOL    HW115713   1.488   3.905   6.879  0.8525 -0.0903  1.5823
37394SOL    HW215714   1.411   3.837   6.991 -2.2044  0.7874  0.1348
37395SOL     OW15715   7.459   7.788   1.565 -0.3113  0.5016 -0.2554
37395SOL    HW115716   7.541   7.771   1.518  0.4893  1.4986  0.7255
37395SOL    HW215717   7.427   7.870   1.526 -1.1632 -0.1713 -1.0234
37396SOL     OW15718   6.008   8.688   0.428 -0.3085 -0.0203 -0.0697
37396SOL    HW115719   6.068   8.751   0.468 -0.9695  1.7977 -1.7263
37396SOL    HW215720   5.924   8.703   0.473 -0.6588  0.9072 -0.9775
37397SOL     OW15721   8.764   0.011  10.442  0.3286 -0.5426 -0.1082
37397SOL    HW115722   8.843   0.038  10.394  0.0012  1.6772  0.4902
37397SOL    HW215723   8.692   0.049  10.392 -0.1628 -0.2265  0.8152
37398SOL     OW15724  10.405   4.300   2.247 -0.2527 -0.1039 -0.2284
37398SOL    HW115725  10.403   4.305   2.152 -1.2163 -0.1302 -0.2155
37398SOL    HW215726  10.339   4.235   2.270 -0.6433  0.5207  0.4899
37399SOL     OW15727   4.409   6.363   8.164  0.0368  0.1919 -0.2192
37399SOL    HW115728   4.505   6.360   8.157  0.0966  0.5572  0.3584
37399SOL    HW215729   4.393   6.418   8.241 -0.6326 -0.2020 -0.0763
37400SOL     OW15730   1.844   8.498   7.885 -0.1018  0.2548 -0.0366
37400SOL    HW115731   1.914   8.469   7.944 -0.4547  0.1436  0.3294
37400SOL    HW215732   1.858   8.593   7.877 -0.7892  0.4825  1.2208
37401SOL     OW15733   4.062   0.525   2.150  0.4174 -0.4542 -0.7526
37401SOL    HW115734   4.053   0.614   2.185 -0.0354 -1.0902  0.8696
37401SOL    HW215735   4.156   0.512   2.142  0.4737  0.3677 -1.5805
37402SOL     OW15736   5.685   4.405   3.429 -0.0462  0.4011  0.0359
37402SOL    HW115737   5.742   4.400   3.506 -0.2620  1.1090  0.2466
37402SOL    HW215738   5.613   4.344   3.449 -0.8069  1.5672  1.0022
37403SOL     OW15739  10.821  10.641   0.184  0.4061 -0.3889  0.0690
37403SOL    HW115740  10.792  10.555   0.212  1.1143 -0.5049  0.4709
37403SOL    HW215741  10.790  10.701   0.252  3.1056 -0.8061  1.8547
37404SOL     OW15742   0.917   8.053   6.183 -0.2679  0.2030 -0.6868
37404SOL    HW115743   0.837   8.103   6.203 -1.3726 -1.4490 -0.7336
37404SOL    HW215744   0.943   8.016   6.267 -0.2835 -0.2752 -0.8916
37405SOL     OW15745   7.615   2.990   8.433 -0.7010  0.3860 -0.0356
37405SOL    HW115746   7.589   2.914   8.486 -1.9148  0.1590 -0.8954
37405SOL    HW215747   7.688   2.959   8.380  0.9836  0.8159  1.9393
37406SOL     OW15748   9.142   9.622   7.263  0.6273  0.2833 -0.3502
37406SOL    HW115749   9.187   9.622   7.347 -0.4866 -0.0611  0.2582
37406SOL    HW215750   9.083   9.697   7.267  0.9586  0.5953 -1.0501
37407SOL     OW15751   0.905   5.449   8.546  0.2189  0.1052  0.0905
37407SOL    HW115752   0.845   5.388   8.502  0.9216  0.4463 -1.4067
37407SOL    HW215753   0.848   5.515   8.585 -0.4483 -0.3710 -0.0544
37408SOL     OW15754   7.229   3.818   5.037  0.4945 -0.4065 -0.5706
37408SOL    HW115755   7.154   3.761   5.051 -0.3128  1.0699  1.7792
37408SOL    HW215756   7.291   3.765   4.987 -1.8142 -1.8841 -2.0625
37409SOL     OW15757   2.505   9.665   2.351  0.0457  0.8192 -0.0636
37409SOL    HW115758   2.419   9.697   2.378  0.3475  1.1665  0.4918
37409SOL    HW215759   2.540   9.734   2.295  0.0657  0.7832 -0.0964
37410SOL     OW15760   2.470   0.692   2.643  0.0108 -0.3480  0.0752
37410SOL    HW115761   2.459   0.684   2.548  2.1352  0.4108 -0.2940
37410SOL    HW215762   2.506   0.608   2.671  2.7216  0.5274 -0.4421
37411SOL     OW15763   8.834   5.289   2.355 -0.0279 -0.5921 -0.0738
37411SOL    HW115764   8.753   5.338   2.345  0.0547 -0.2456  0.8260
37411SOL    HW215765   8.863   5.271   2.266  0.2367  1.5023 -0.4570
37412SOL     OW15766   4.361   6.123   0.476 -0.1634  0.1366  0.9826
37412SOL    HW115767   4.266   6.136   0.479 -0.2731 -0.5042  0.4858
37412SOL    HW215768   4.373   6.037   0.435  0.6712  0.8763 -0.3900
37413SOL     OW15769   9.973   9.571   0.169  0.0139  0.6473  0.7127
37413SOL    HW115770   9.996   9.594   0.259  2.5933 -1.1380  0.6127
37413SOL    HW215771  10.057   9.556   0.126 -1.2092  0.0673 -1.6176
37414SOL     OW15772  11.107   0.879   3.694 -0.0986  0.3508 -0.3295
37414SOL    HW115773  11.136   0.812   3.632  0.1400  0.0946  0.0496
37414SOL    HW215774  11.187   0.902   3.743 -0.7212 -1.2374  1.5520
37415SOL     OW15775   0.596   7.966   7.647 -0.6984 -0.4715 -0.2002
37415SOL    HW115776   0.629   7.890   7.694 -0.1612  0.8414  1.6644
37415SOL    HW215777   0.596   7.939   7.555  0.5236 -2.3248  0.2867
37416SOL     OW15778   5.974   9.388   8.099  0.2787  0.3780  0.2941
37416SOL    HW115779   6.030   9.373   8.023  0.3364 -0.2827  0.4602
37416SOL    HW215780   5.997   9.318   8.160  0.2269  0.8981  0.9171
37417SOL     OW15781  10.005   7.672   2.068 -0.4531  0.0481 -0.5318
37417SOL    HW115782   9.984   7.708   2.154 -2.8376 -0.5835 -0.7594
37417SOL    HW215783   9.922   7.637   2.036  0.8570 -1.8069 -2.1329
37418SOL     OW15784   8.691   3.242   1.720 -0.5412 -0.2404  0.2250
37418SOL    HW115785   8.658   3.232   1.809  2.3232 -0.5191  1.3532
37418SOL    HW215786   8.618   3.214   1.664 -2.7315  0.7559  2.3880
37419SOL     OW15787  10.940   0.827   0.288 -0.0259 -0.1367  0.6018
37419SOL    HW115788  11.035   0.816   0.289  0.1793  0.8229 -1.6574
37419SOL    HW215789  10.910   0.761   0.225 -0.5629  1.0251 -0.4072
37420SOL     OW15790   7.629   3.158   9.276  0.3189 -0.0439 -0.1552
37420SOL    HW115791   7.537   3.141   9.252 -0.0024  0.2740  0.8261
37420SOL    HW215792   7.665   3.072   9.296  0.1254 -0.1300 -0.1718
37421SOL     OW15793  10.602   1.207   6.649 -0.1362  0.4623 -0.1836
37421SOL    HW115794  10.643   1.284   6.611  0.1171 -0.0989 -1.0898
37421SOL    HW215795  10.615   1.138   6.584 -0.6640 -0.2600  0.4475
37422SOL     OW15796   4.498   8.328   9.624 -0.0498  0.3276  0.4416
37422SOL    HW115797   4.458   8.266   9.563 -1.1690  0.7649  0.7187
37422SOL    HW215798   4.425   8.364   9.674  0.8020  0.3235  1.7383
37423SOL     OW15799   3.322   6.845   4.771 -0.1642  0.2774 -0.2960
37423SOL    HW115800   3.338   6.939   4.764 -3.2873  0.9547  0.1492
37423SOL    HW215801   3.285   6.820   4.686  0.0548 -0.4318 -0.1953
37424SOL     OW15802   7.139  10.109   1.793 -0.7025 -0.7662  0.6371
37424SOL    HW115803   7.121  10.015   1.783 -0.2168 -0.7361 -0.8892
37424SOL    HW215804   7.105  10.147   1.712  1.8163 -0.0576 -0.1646
37425SOL     OW15805   7.420  10.067   5.648 -0.3405 -0.0957 -0.1631
37425SOL    HW115806   7.500  10.034   5.606 -1.6338 -1.1593 -1.9770
37425SOL    HW215807   7.446  10.149   5.689  1.5249 -0.0669 -1.2865
37426SOL     OW15808   0.740   2.426   8.846 -0.8310  0.0168  0.1048
37426SOL    HW115809   0.783   2.387   8.770  0.9514  0.1994  0.9477
37426SOL    HW215810   0.714   2.350   8.899 -0.8366 -0.0913 -0.0506
37427SOL     OW15811   8.572   9.692   1.125  0.2387 -0.5035 -0.0582
37427SOL    HW115812   8.495   9.742   1.096  0.5147 -0.3941 -0.6213
37427SOL    HW215813   8.583   9.625   1.057  0.6671 -0.4872 -0.0052
37428SOL     OW15814  10.040   6.987   0.505 -0.6155  0.3148 -0.1475
37428SOL    HW115815  10.007   6.997   0.595  0.7084  0.8472  0.3033
37428SOL    HW215816  10.062   7.076   0.478  0.0335  0.0278 -0.5874
37429SOL     OW15817   0.041   9.666   7.478 -0.1422 -0.3151 -0.2203
37429SOL    HW115818   0.036   9.707   7.391  0.9976  0.6982  0.1821
37429SOL    HW215819  -0.045   9.624   7.488 -1.4364  2.0559 -0.6024
37430SOL     OW15820   2.150   7.547   2.661  0.1151  0.0158  0.0877
37430SOL    HW115821   2.154   7.570   2.569 -1.9788 -1.2198 -0.3891
37430SOL    HW215822   2.075   7.597   2.695  0.1491 -0.4241  0.8431
37431SOL     OW15823   7.308   2.746   2.836  0.1257  0.3494  0.0728
37431SOL    HW115824   7.308   2.808   2.764  0.0130  0.7424  0.4075
37431SOL    HW215825   7.390   2.697   2.826 -0.4480 -0.4298 -1.0181
37432SOL     OW15826   7.803  10.048   9.284 -0.3897 -0.6238  0.0071
37432SOL    HW115827   7.791   9.973   9.343 -0.5085 -1.5891 -1.1863
37432SOL    HW215828   7.732  10.108   9.306  0.0683 -0.5550  1.4060
37433SOL     OW15829  10.658   0.401   5.694  0.1427 -0.1769 -0.1051
37433SOL    HW115830  10.629   0.492   5.684 -1.6078 -0.8855 -2.1573
37433SOL    HW215831  10.676   0.371   5.605  1.7063 -1.5617  0.6252
37434SOL     OW15832   6.567  10.952   5.995  0.6368 -0.2202  0.3715
37434SOL    HW115833   6.488  11.004   5.986  1.2675  0.7438  0.2704
37434SOL    HW215834   6.558  10.883   5.930 -0.0332 -0.0161  0.2420
37435SOL     OW15835   0.002   3.772   1.883 -0.1088 -0.1885  0.3201
37435SOL    HW115836  -0.043   3.705   1.832  0.3733  0.7291 -1.3983
37435SOL    HW215837   0.094   3.748   1.879 -0.0720 -0.1414  0.8285
37436SOL     OW15838   5.174   8.710   1.946 -0.5021 -0.2298 -0.3802
37436SOL    HW115839   5.238   8.774   1.916 -0.0376 -1.7804 -2.9940
37436SOL    HW215840   5.093   8.759   1.955  0.5225  1.3303  0.9059
37437SOL     OW15841   0.211   3.552   7.790  0.4745  0.3197 -0.3197
37437SOL    HW115842   0.303   3.578   7.794  0.1133  1.5295  1.0011
37437SOL    HW215843   0.167   3.612   7.851 -0.9307 -1.3368  0.3701
37438SOL     OW15844   9.483   8.035   7.083  0.5348 -0.0963  0.0280
37438SOL    HW115845   9.408   8.016   7.027  0.2679  1.7218 -0.2825
37438SOL    HW215846   9.558   8.033   7.024  0.4983 -0.0566 -0.0201
37439SOL     OW15847   9.493   5.085   9.185  0.7774 -0.0217  0.2824
37439SOL    HW115848   9.484   5.042   9.270  0.8484  1.5950  1.1464
37439SOL    HW215849   9.564   5.038   9.142 -0.7970 -2.4218  0.0789
37440SOL     OW15850   9.720   8.411   8.708 -0.0160 -0.2415  0.1648
37440SOL    HW115851   9.698   8.414   8.801  2.1359 -0.1579  0.7245
37440SOL    HW215852   9.658   8.348   8.671 -2.5096  1.4652  1.1183
37441SOL     OW15853   7.873   1.205   1.486 -0.4499  0.0148 -0.1191
37441SOL    HW115854   7.865   1.292   1.447 -0.2243 -0.5071 -1.3541
37441SOL    HW215855   7.828   1.147   1.426  2.8897 -1.3458 -1.5628
37442SOL     OW15856   7.532   1.358   3.883 -0.2217 -0.0950  0.5829
37442SOL    HW115857   7.494   1.420   3.946  1.6817  2.0915 -0.2633
37442SOL    HW215858   7.580   1.414   3.821 -0.1763 -2.3094 -1.5267
37443SOL     OW15859   8.412   8.128   0.848 -0.5429 -0.5608  0.4022
37443SOL    HW115860   8.404   8.122   0.752 -1.0258  0.2639  0.3821
37443SOL    HW215861   8.352   8.062   0.881 -1.8741  0.4847  0.1466
37444SOL     OW15862   0.661   9.354   4.106 -0.2636  0.1095 -0.0573
37444SOL    HW115863   0.676   9.292   4.034 -2.6680  0.3696 -0.8807
37444SOL    HW215864   0.737   9.344   4.162  1.0820 -1.0680 -1.9586
37445SOL     OW15865   2.838  10.093   9.172  0.2628 -0.1623 -0.1909
37445SOL    HW115866   2.789  10.173   9.191 -0.5048  0.0376 -2.6356
37445SOL    HW215867   2.817  10.035   9.244 -1.7406  0.7510  0.0479
37446SOL     OW15868   1.371   4.360   2.275  0.8267 -0.4166  0.1503
37446SOL    HW115869   1.324   4.328   2.353  2.0174 -0.6159  0.8195
37446SOL    HW215870   1.416   4.439   2.304 -1.5596  1.5969 -1.3278
37447SOL     OW15871   9.870   1.342   1.976  0.0561  0.2314  0.3495
37447SOL    HW115872   9.940   1.392   1.935  1.2330 -0.7942  1.0340
37447SOL    HW215873   9.901   1.327   2.065 -1.8150  1.2154  1.2352
37448SOL     OW15874   2.699   7.980   3.866 -0.0857  0.4326  0.0438
37448SOL    HW115875   2.608   8.004   3.883 -0.3745  0.8774 -1.9225
37448SOL    HW215876   2.725   7.931   3.944 -1.8768  0.6103  0.8164
37449SOL     OW15877  10.317  10.260   8.485 -0.4183 -0.4876 -0.7369
37449SOL    HW115878  10.361  10.202   8.547 -1.2547  1.2145  1.6040
37449SOL    HW215879  10.225  10.233   8.487 -0.7250  0.5280 -0.0002
37450SOL     OW15880   8.005   0.200   2.491  0.0224 -0.2469 -0.3472
37450SOL    HW115881   8.034   0.148   2.566  0.0513  0.8488  0.4262
37450SOL    HW215882   7.911   0.214   2.505 -0.3677 -1.5428 -1.4668
37451SOL     OW15883   1.563   6.956   5.971 -0.3228  0.1322 -0.3694
37451SOL    HW115884   1.526   6.905   6.043  1.6040 -0.9873 -0.1263
37451SOL    HW215885   1.558   7.047   6.001 -0.5288 -0.2220  0.7004
37452SOL     OW15886   3.663   7.493   1.134  0.4439  0.1837 -0.0426
37452SOL    HW115887   3.571   7.520   1.138  0.2486 -0.4761  0.1553
37452SOL    HW215888   3.670   7.425   1.201  0.9586 -0.1129 -0.3939
37453SOL     OW15889   7.314   8.120   4.228  1.0862  0.2643  0.2310
37453SOL    HW115890   7.359   8.126   4.143 -2.4403  1.9621 -1.7456
37453SOL    HW215891   7.260   8.041   4.221 -0.6987  1.4511 -0.0002
37454SOL     OW15892  10.485   2.522   3.518 -0.2737  0.2574 -0.4504
37454SOL    HW115893  10.498   2.616   3.529  0.4242  0.0474  0.7867
37454SOL    HW215894  10.431   2.496   3.593 -0.7402 -0.2734 -0.9589
37455SOL     OW15895   2.954   7.243   8.574 -0.1847 -0.3745 -0.2407
37455SOL    HW115896   2.957   7.337   8.557  2.6753 -0.4044 -0.3353
37455SOL    HW215897   2.919   7.205   8.494 -0.4556  0.5250 -0.5570
37456SOL     OW15898   0.422   2.151   4.460  0.9525 -0.0144  0.2685
37456SOL    HW115899   0.359   2.096   4.506 -2.9032  0.9821 -3.2325
37456SOL    HW215900   0.418   2.235   4.506 -0.8766  0.2226 -0.2358
37457SOL     OW15901   3.383   1.642   7.885 -0.3019  0.1768  0.0611
37457SOL    HW115902   3.446   1.714   7.881  0.2535 -0.2066  1.5660
37457SOL    HW215903   3.353   1.632   7.794  3.5348 -1.1791 -1.2372
37458SOL     OW15904   1.205  10.099   0.793  0.5332 -0.0570  0.0858
37458SOL    HW115905   1.134  10.108   0.729  0.9884  1.2058 -0.2679
37458SOL    HW215906   1.201  10.007   0.820  0.6157 -0.7411 -2.0679
37459SOL     OW15907   5.756   0.988   1.729  0.6170 -0.3394 -0.1147
37459SOL    HW115908   5.795   0.953   1.809  0.7444  0.4042  0.1645
37459SOL    HW215909   5.676   0.936   1.717  0.4869 -0.3286  0.6170
37460SOL     OW15910  10.790   3.257   2.785 -0.0140 -0.0155  0.2014
37460SOL    HW115911  10.816   3.329   2.842  0.6637 -0.1522  0.0743
37460SOL    HW215912  10.805   3.289   2.696  1.3108 -0.6680  0.1614
37461SOL     OW15913   3.520   5.416   7.511  0.4696 -0.8095  0.4915
37461SOL    HW115914   3.471   5.464   7.444  4.2272  0.5212 -1.6171
37461SOL    HW215915   3.553   5.338   7.466 -0.2467 -2.0685  2.0520
37462SOL     OW15916   1.405   3.138   1.943 -0.7988 -0.3242 -0.3082
37462SOL    HW115917   1.428   3.052   1.907  2.4721  0.1583  0.3424
37462SOL    HW215918   1.489   3.179   1.963 -2.2399  3.0362 -0.5129
37463SOL     OW15919   0.967   4.309  10.969  0.3490  0.2399  0.6906
37463SOL    HW115920   0.937   4.395  10.941  0.0144  0.1246  0.6821
37463SOL    HW215921   0.928   4.297  11.056 -2.4095 -1.2490 -0.6075
37464SOL     OW15922   3.602  11.011   1.947  0.5470 -0.0108  0.1827
37464SOL    HW115923   3.535  11.071   1.980 -1.1081 -1.1038 -1.0504
37464SOL    HW215924   3.682  11.063   1.943  0.1332  0.9823  2.9523
37465SOL     OW15925   3.425   0.365   8.736  0.1631  0.5693 -0.2162
37465SOL    HW115926   3.421   0.297   8.669 -0.6205  0.0913  0.3024
37465SOL    HW215927   3.446   0.319   8.817  0.1719  1.0222  0.0454
37466SOL     OW15928   8.346  11.057  11.082 -0.0666 -0.0450  0.2564
37466SOL    HW115929   8.353  11.040  10.988 -0.7937 -0.8467  0.3368
37466SOL    HW215930   8.426  11.106  11.104  0.3800 -0.3483 -0.6641
37467SOL     OW15931   2.737   7.278   3.179 -0.0698 -0.3903  0.2785
37467SOL    HW115932   2.807   7.243   3.235  0.7594  1.6913  0.6197
37467SOL    HW215933   2.664   7.292   3.238  0.6622  1.3935  0.8202
37468SOL     OW15934   0.997   6.282   9.764 -0.0030  0.0414  0.2022
37468SOL    HW115935   1.033   6.258   9.679  1.4988  1.0193  0.5305
37468SOL    HW215936   1.039   6.222   9.826 -1.3217 -0.8726  0.2455
37469SOL     OW15937   3.369   8.298   4.368 -0.7492  0.8868 -0.5365
37469SOL    HW115938   3.332   8.385   4.382  1.3870  1.8580 -0.4302
37469SOL    HW215939   3.359   8.254   4.453 -0.8595  1.4553 -0.2478
37470SOL     OW15940   3.243   3.935   1.940  0.1369  0.1010 -0.5537
37470SOL    HW115941   3.207   4.019   1.913  0.7875  0.8624  0.8223
37470SOL    HW215942   3.168   3.878   1.949 -0.3476  0.6204 -1.2037
37471SOL     OW15943  11.014   7.140   7.758 -0.2083 -0.4530  0.2869
37471SOL    HW115944  11.070   7.165   7.831 -0.0978 -1.6300  0.6219
37471SOL    HW215945  11.015   7.044   7.758  0.5677 -0.5059 -1.8441
37472SOL     OW15946   9.451   9.578   8.381  0.0240  0.3426  0.3565
37472SOL    HW115947   9.499   9.501   8.350 -1.3316 -0.2477 -0.3797
37472SOL    HW215948   9.517   9.647   8.385  1.4974 -1.0609  1.9933
37473SOL     OW15949   4.126   0.943   6.138 -0.2578  0.3807 -0.2137
37473SOL    HW115950   4.045   0.901   6.167  1.4316 -1.2164  2.6808
37473SOL    HW215951   4.138   0.913   6.048 -2.4170 -0.0132 -0.4248
37474SOL     OW15952   5.404   4.002   7.877 -0.1114 -0.5215 -0.3368
37474SOL    HW115953   5.310   4.018   7.882 -0.1684 -0.8500 -0.3583
37474SOL    HW215954   5.438   4.072   7.822 -0.1287  0.5001  0.9151
37475SOL     OW15955   8.145   1.210   3.305 -0.1295  0.3621 -0.1341
37475SOL    HW115956   8.224   1.214   3.358  1.1323  1.5413 -1.9611
37475SOL    HW215957   8.074   1.235   3.364  1.3252  2.5076  0.8140
37476SOL     OW15958   5.799   3.022   0.675  0.0927 -0.0378  0.6300
37476SOL    HW115959   5.874   2.966   0.695  0.4242  0.1819  0.0496
37476SOL    HW215960   5.816   3.102   0.724 -0.8904 -0.7983  2.2653
37477SOL     OW15961   2.324   7.318   7.446  0.0061  0.0923  0.1613
37477SOL    HW115962   2.306   7.321   7.540 -0.9552 -0.8289  0.0328
37477SOL    HW215963   2.387   7.247   7.436  0.6189  0.6268  0.1701
37478SOL     OW15964   9.679   4.565   9.210  0.6358 -0.2511 -0.6637
37478SOL    HW115965   9.591   4.558   9.245  0.3602  4.6396  0.3500
37478SOL    HW215966   9.692   4.484   9.160 -3.9927 -1.6158 -0.0944
37479SOL     OW15967   9.497   2.789   7.553  0.9546  0.4252  0.0897
37479SOL    HW115968   9.455   2.797   7.467  0.6545  2.3900  0.3803
37479SOL    HW215969   9.545   2.706   7.548 -0.5602 -0.4374 -1.2946
37480SOL     OW15970   5.809   2.916  10.042  0.1149  0.4484 -0.1884
37480SOL    HW115971   5.847   2.873   9.966 -0.9845  0.1605 -0.5910
37480SOL    HW215972   5.763   2.847  10.089  0.9904  0.5725  0.8882
37481SOL     OW15973   7.742   1.876   4.215 -0.2493  0.1620  0.7669
37481SOL    HW115974   7.712   1.866   4.305  0.3387  0.4104  0.9917
37481SOL    HW215975   7.693   1.810   4.166 -0.6231  0.0736  1.2507
37482SOL     OW15976  10.420   9.845   8.226  0.1205  0.4849  0.0571
37482SOL    HW115977  10.509   9.818   8.248  0.2273  2.3312  2.2365
37482SOL    HW215978  10.366   9.768   8.245  1.0371 -0.0065  0.7473
37483SOL     OW15979   9.682  10.858   0.473  0.3551 -0.1575 -0.0916
37483SOL    HW115980   9.633  10.847   0.392  0.2595  0.2809 -0.0934
37483SOL    HW215981   9.768  10.890   0.445  1.1931 -2.3467 -0.2154
37484SOL     OW15982   5.424   5.029  10.512  0.2506  0.3085 -0.0050
37484SOL    HW115983   5.503   5.017  10.459 -0.0439 -1.3209 -0.1261
37484SOL    HW215984   5.398   4.941  10.536  0.0016  0.9668  2.3472
37485SOL     OW15985   1.029   4.634   8.222  0.5657 -0.3728 -0.5389
37485SOL    HW115986   0.955   4.581   8.192  0.1724  0.2680 -0.7192
37485SOL    HW215987   1.078   4.576   8.281 -0.0426 -0.8258 -0.4698
37486SOL     OW15988   3.604  10.783   9.401  0.1262  0.2689  0.1263
37486SOL    HW115989   3.678  10.820   9.450  0.2814 -0.7645  0.7202
37486SOL    HW215990   3.594  10.840   9.325  0.9953  0.9180  0.4824
37487SOL     OW15991   9.265   2.328   0.353  0.3701  0.1900 -0.2519
37487SOL    HW115992   9.272   2.351   0.446  0.7504 -1.3593  0.1350
37487SOL    HW215993   9.189   2.377   0.322  1.0121  1.7656  0.5282
37488SOL     OW15994   4.847   4.043   2.226  0.2247  0.0373 -0.1026
37488SOL    HW115995   4.888   4.059   2.141  0.5869  0.3142  0.1218
37488SOL    HW215996   4.797   3.963   2.213 -1.7016  1.3590 -1.2738
37489SOL     OW15997   4.154   7.113   7.872 -0.3306 -0.4513  1.0590
37489SOL    HW115998   4.202   7.176   7.818  0.5008 -1.2758  0.8062
37489SOL    HW215999   4.097   7.067   7.811 -1.0257  0.1123  1.2632
37490SOL     OW16000  10.264   4.188   5.640  0.2885 -0.4176 -0.0464
37490SOL    HW116001  10.265   4.279   5.671  2.7584 -0.4251  0.0389
37490SOL    HW216002  10.355   4.167   5.621 -0.3752 -2.4820 -1.3447
37491SOL     OW16003   0.706   1.932   4.934  0.2584 -0.5967  0.0308
37491SOL    HW116004   0.697   1.837   4.927 -1.1461 -0.5038  0.3331
37491SOL    HW216005   0.634   1.959   4.990  0.6031  0.6605 -0.1071
37492SOL     OW16006   5.512   2.153   8.852  0.0754 -0.4355 -0.3349
37492SOL    HW116007   5.531   2.113   8.767  1.7274  0.7301 -0.5695
37492SOL    HW216008   5.492   2.245   8.831  0.1911 -0.2132  0.5066
37493SOL     OW16009   1.600   0.364   6.851 -0.2735 -0.3532  0.1575
37493SOL    HW116010   1.652   0.417   6.791  0.8667 -1.2502  0.3013
37493SOL    HW216011   1.607   0.275   6.817  2.2840 -1.3065  2.7435
37494SOL     OW16012   4.949   5.559   5.251  0.1301  0.0095 -0.1043
37494SOL    HW116013   4.921   5.493   5.314 -0.3311  0.0312 -0.2785
37494SOL    HW216014   5.009   5.513   5.193  0.3140 -0.0900  0.1647
37495SOL     OW16015   7.810   6.748   0.658  0.2347 -0.3656  0.3844
37495SOL    HW116016   7.868   6.770   0.584 -1.8007  2.0450 -0.6399
37495SOL    HW216017   7.757   6.675   0.625  1.2557 -1.2088  0.5653
37496SOL     OW16018   2.312   0.480   5.466 -0.4821  0.1006 -0.5751
37496SOL    HW116019   2.316   0.410   5.531  1.1243 -0.0072 -0.7497
37496SOL    HW216020   2.226   0.470   5.425 -1.0583 -0.5409  0.7305
37497SOL     OW16021   0.359   3.688  10.778  0.0765  0.4034 -0.2360
37497SOL    HW116022   0.423   3.739  10.829  0.0654 -0.0631  0.2464
37497SOL    HW216023   0.354   3.604  10.823 -0.7297  0.3644 -0.3925
37498SOL     OW16024  10.873   9.017   0.228  0.0811 -0.1576 -0.0633
37498SOL    HW116025  10.933   9.039   0.158  0.1849  1.6772  0.5423
37498SOL    HW216026  10.924   8.963   0.288  0.1787 -1.1845 -1.0276
37499SOL     OW16027   0.307   5.596   3.986  0.2938 -0.2402 -0.0282
37499SOL    HW116028   0.364   5.521   3.969  1.4859  0.6780 -0.2600
37499SOL    HW216029   0.318   5.614   4.079 -0.7054 -0.9086  0.2243
37500SOL     OW16030  10.455   2.427   9.924 -0.2767 -0.1392 -0.1686
37500SOL    HW116031  10.427   2.409   9.834  0.8467 -0.7092 -0.4188
37500SOL    HW216032  10.496   2.513   9.919 -0.1642 -0.1951 -0.2150
37501SOL     OW16033   7.853   6.018   8.688 -0.8547 -0.3337  0.2827
37501SOL    HW116034   7.869   5.990   8.598 -2.5582 -1.1742  0.2037
37501SOL    HW216035   7.832   5.937   8.735 -1.2091  0.2445  1.1466
37502SOL     OW16036   0.061   1.171   5.194 -0.2389  0.8702  0.0285
37502SOL    HW116037   0.134   1.222   5.161  0.5378  0.0878  0.4692
37502SOL    HW216038   0.102   1.093   5.232 -1.1905  1.0553  1.5128
37503SOL     OW16039   9.194   0.950   8.650  0.4420 -0.4453  0.0413
37503SOL    HW116040   9.229   0.966   8.738  0.2141  0.1869  0.0198
37503SOL    HW216041   9.152   0.864   8.656 -1.0920  0.3378  1.0226
37504SOL     OW16042   8.959   9.730   3.634 -0.0707 -0.0721  0.5222
37504SOL    HW116043   8.954   9.728   3.538 -0.6938  0.9416  0.5230
37504SOL    HW216044   8.915   9.649   3.661  1.2176 -1.0061 -0.0608
37505SOL     OW16045   9.553   4.470   3.542  0.2948  0.2674  0.1672
37505SOL    HW116046   9.475   4.439   3.497  0.2055 -0.3523  0.7329
37505SOL    HW216047   9.527   4.476   3.634  0.3673  1.8585  0.1028
37506SOL     OW16048   8.722  10.827   8.129  0.8259  0.0563  0.3694
37506SOL    HW116049   8.632  10.793   8.132 -0.0477  2.2327  1.6753
37506SOL    HW216050   8.777  10.751   8.146 -0.9945 -0.8364  3.0375
37507SOL     OW16051   0.619   4.273   7.422  0.1582  0.1595 -0.0642
37507SOL    HW116052   0.662   4.191   7.398  0.1358  1.0339 -3.7524
37507SOL    HW216053   0.691   4.334   7.441  0.3429  0.1787 -0.7958
37508SOL     OW16054   2.625   6.464   2.466 -0.3527 -0.4778 -0.4297
37508SOL    HW116055   2.582   6.548   2.481 -1.5405 -1.0321 -0.6519
37508SOL    HW216056   2.566   6.399   2.503  0.5548 -1.2314 -0.2525
37509SOL     OW16057   0.891   8.334   2.602  0.1988 -0.5270  0.3665
37509SOL    HW116058   0.836   8.274   2.550  1.5848 -1.9492  0.4761
37509SOL    HW216059   0.978   8.325   2.564  0.4143  1.6307  0.2520
37510SOL     OW16060   2.674   3.244  10.076  0.4746  0.6075 -0.5595
37510SOL    HW116061   2.712   3.329  10.099 -0.7815  0.9262  0.5033
37510SOL    HW216062   2.629   3.216  10.156 -1.0717  0.0315 -1.5740
37511SOL     OW16063   0.023   3.356   0.945 -0.1879 -0.2427 -0.1661
37511SOL    HW116064   0.047   3.316   0.861  1.9881 -0.0305  0.2814
37511SOL    HW216065   0.047   3.290   1.010 -1.4793 -0.2432  0.3291
37512SOL     OW16066   3.688   1.301   5.153  0.1282 -0.3026  0.0983
37512SOL    HW116067   3.746   1.266   5.086  0.7779 -1.1692  1.0716
37512SOL    HW216068   3.728   1.385   5.177  0.0320 -0.1079 -0.4190
37513SOL     OW16069   3.928   9.579  10.540 -0.1634 -0.0653  0.4424
37513SOL    HW116070   3.860   9.575  10.472  1.1448 -1.3957 -0.8376
37513SOL    HW216071   3.954   9.671  10.541 -1.5192  0.3429  0.5033
37514SOL     OW16072   8.365   3.779   7.034  1.1373 -0.2390 -0.2774
37514SOL    HW116073   8.352   3.872   7.019 -0.1767 -0.4645 -0.6272
37514SOL    HW216074   8.325   3.737   6.958 -1.9765 -1.2669  1.7515
37515SOL     OW16075   8.871   6.430   9.901  0.3864  0.0620  0.0243
37515SOL    HW116076   8.853   6.339   9.927 -1.9799  0.8589  1.5256
37515SOL    HW216077   8.844   6.434   9.809 -2.4976 -0.1418  0.7492
37516SOL     OW16078   5.431   3.922   9.758  0.0627  0.2215 -0.3912
37516SOL    HW116079   5.424   4.007   9.801  0.6707  0.8985 -1.5893
37516SOL    HW216080   5.400   3.938   9.669  0.9240 -0.6340 -0.8561
37517SOL     OW16081   5.515   8.395   7.062  0.0638  0.2403  0.9746
37517SOL    HW116082   5.423   8.421   7.066  0.4346  1.4650  1.9528
37517SOL    HW216083   5.518   8.311   7.109 -0.6245 -0.0783  0.4717
37518SOL     OW16084   5.490   7.452   8.552  0.1640 -0.1485 -0.0655
37518SOL    HW116085   5.538   7.452   8.469  0.5677  1.3939  0.1476
37518SOL    HW216086   5.456   7.540   8.560  0.2768 -0.2283  1.4978
37519SOL     OW16087  11.112   6.553   6.624  0.3174  0.1660  0.4912
37519SOL    HW116088  11.160   6.521   6.547 -0.2060  0.8206 -0.1204
37519SOL    HW216089  11.033   6.500   6.626  1.7832 -2.1202  2.5081
37520SOL     OW16090   2.715   8.051   2.907 -0.0129  0.4535 -0.0378
37520SOL    HW116091   2.672   8.080   2.827  1.1712  2.3063 -0.0568
37520SOL    HW216092   2.645   8.014   2.960 -1.5643  2.8654 -0.2692
37521SOL     OW16093   9.300   3.026   0.619  0.0744 -0.3654  0.7990
37521SOL    HW116094   9.265   2.961   0.558  0.2328 -0.5115  0.8626
37521SOL    HW216095   9.253   3.106   0.598 -0.3218 -0.5670  0.9095
37522SOL     OW16096   2.246   0.409   7.258 -0.2311 -0.3471 -0.2928
37522SOL    HW116097   2.324   0.437   7.211 -0.2175 -0.9611 -0.6531
37522SOL    HW216098   2.278   0.350   7.327 -0.2649  0.4246  0.4007
37523SOL     OW16099   7.899  10.510  10.083 -0.2589  0.6831  0.1600
37523SOL    HW116100   7.895  10.434  10.025  1.4955  0.9923 -0.4023
37523SOL    HW216101   7.814  10.552  10.072 -0.1551  0.4752 -1.8378
37524SOL     OW16102   5.641   1.592  10.991  0.3509 -0.0599  0.0245
37524SOL    HW116103   5.718   1.645  11.013 -1.8713  3.7094 -0.3283
37524SOL    HW216104   5.620   1.547  11.073  2.5229 -0.7168  0.2896
37525SOL     OW16105   8.387   3.361   2.545 -0.4814  0.3501  0.0376
37525SOL    HW116106   8.412   3.354   2.453 -1.1611 -3.8021 -0.0076
37525SOL    HW216107   8.299   3.399   2.543 -1.8511 -2.5544 -1.4543
37526SOL     OW16108   7.030   8.859   4.057  0.7687  0.6663  0.5204
37526SOL    HW116109   7.016   8.822   3.970  1.5559 -1.2493  1.1389
37526SOL    HW216110   6.943   8.873   4.092  0.4284  2.2472 -0.8521
37527SOL     OW16111   2.498   9.317   6.060  0.7465  0.1062  0.5460
37527SOL    HW116112   2.547   9.235   6.050 -0.6801 -0.7520  0.2832
37527SOL    HW216113   2.429   9.296   6.122  0.4350  1.1560  0.5644
37528SOL     OW16114   5.410  10.468   3.405 -0.0884 -0.0733  0.1649
37528SOL    HW116115   5.378  10.435   3.489 -0.6126 -0.9805 -0.3697
37528SOL    HW216116   5.499  10.499   3.424  0.5482 -2.0405  0.6848
37529SOL     OW16117   0.504   3.834   1.257 -0.1289 -0.2644 -0.4830
37529SOL    HW116118   0.573   3.789   1.209  0.8258  1.4738 -0.8136
37529SOL    HW216119   0.474   3.902   1.197 -0.6979  0.3195  0.4443
37530SOL     OW16120   8.431  10.057   5.926 -0.1293  0.5485 -0.2796
37530SOL    HW116121   8.348  10.010   5.918 -0.2529  0.4821  1.1874
37530SOL    HW216122   8.406  10.149   5.924 -0.4288  0.5435  1.5011
37531SOL     OW16123   0.015   9.052   7.715  0.7115 -0.0840  0.1828
37531SOL    HW116124   0.017   9.108   7.793 -0.0135  1.0742 -0.5851
37531SOL    HW216125   0.091   9.080   7.664  0.7430 -0.2934  0.1150
37532SOL     OW16126   1.579   5.021   1.783 -0.1566  0.0692 -0.8387
37532SOL    HW116127   1.554   4.975   1.703  0.2494  0.6169 -1.2935
37532SOL    HW216128   1.652   5.077   1.756 -1.3526  1.8317 -0.5887
37533SOL     OW16129   3.738   3.454   6.831  0.0508 -0.2342 -0.0687
37533SOL    HW116130   3.705   3.391   6.896 -0.7707  0.0306 -0.2253
37533SOL    HW216131   3.832   3.458   6.849 -0.2843  0.4957  1.7025
37534SOL     OW16132  10.708   2.251   1.304  0.8758 -0.1187 -0.3435
37534SOL    HW116133  10.760   2.253   1.224  0.3281 -1.0627 -0.7412
37534SOL    HW216134  10.647   2.179   1.291  0.6457 -0.1591  0.8459
37535SOL     OW16135   0.343  10.489   0.617 -0.1376  0.1187 -0.1741
37535SOL    HW116136   0.390  10.571   0.605 -0.9556  0.8541  1.3662
37535SOL    HW216137   0.384  10.428   0.555  1.7825  1.1362  0.0384
37536SOL     OW16138   2.511   2.194   2.115 -0.0328 -0.3328 -0.3176
37536SOL    HW116139   2.564   2.266   2.082 -0.9204  0.4149 -0.1567
37536SOL    HW216140   2.462   2.163   2.039 -1.1135  0.5384  0.0069
37537SOL     OW16141   8.571   2.395   9.290 -0.2449  0.5897 -0.1119
37537SOL    HW116142   8.621   2.314   9.291  0.1741  0.8461 -0.3053
37537SOL    HW216143   8.540   2.405   9.380 -2.3776 -1.0610 -0.5607
37538SOL     OW16144   5.647   9.148   3.136 -0.4893 -0.1766 -0.2119
37538SOL    HW116145   5.736   9.175   3.112 -1.4775  2.9632 -0.9065
37538SOL    HW216146   5.638   9.176   3.227 -0.7951 -0.3831 -0.1801
37539SOL     OW16147   3.066   8.874   7.077 -0.4277 -0.0723 -0.3302
37539SOL    HW116148   3.093   8.953   7.124 -0.5822  1.0718 -2.0913
37539SOL    HW216149   3.115   8.803   7.120 -1.1948  0.7402  2.0871
37540SOL     OW16150   8.378   5.345   1.068  0.1825 -0.0898  0.2747
37540SOL    HW116151   8.386   5.379   0.978  2.0388 -2.0684 -0.4097
37540SOL    HW216152   8.356   5.421   1.121 -0.2784  1.2746 -1.7626
37541SOL     OW16153   4.421   0.990   1.407  0.0790 -0.0972 -0.3814
37541SOL    HW116154   4.443   0.993   1.314  0.6059  0.9934 -0.2369
37541SOL    HW216155   4.343   1.045   1.415  0.7903  0.8835  0.0012
37542SOL     OW16156   5.460   5.136   3.268 -0.0498  0.1686  0.1454
37542SOL    HW116157   5.390   5.091   3.221  1.5877  0.0388 -2.3918
37542SOL    HW216158   5.493   5.072   3.330 -0.6123 -0.6043 -0.3348
37543SOL     OW16159   5.134   6.540   2.038 -0.1283 -0.1410 -0.4386
37543SOL    HW116160   5.112   6.483   1.965  0.8021 -0.0621 -0.7910
37543SOL    HW216161   5.183   6.612   1.998 -1.8903  1.3202 -0.1261
37544SOL     OW16162  11.089   3.011  10.298 -0.0445  0.1227 -0.2499
37544SOL    HW116163  11.054   3.093  10.264  1.0570  0.4171 -0.7194
37544SOL    HW216164  11.066   3.011  10.391 -1.1706  0.3441 -0.5127
37545SOL     OW16165   8.913   7.213   9.540 -0.1321 -0.6652  0.3858
37545SOL    HW116166   8.896   7.170   9.456  0.6820  0.6438 -0.4702
37545SOL    HW216167   8.849   7.173   9.600 -2.1129 -0.1891 -1.3003
37546SOL     OW16168   0.260   8.076   6.552 -0.2350 -0.5738  0.2652
37546SOL    HW116169   0.170   8.086   6.521  0.4659 -1.0128 -2.1240
37546SOL    HW216170   0.310   8.142   6.504  0.9810 -1.4524  0.2808
37547SOL     OW16171   0.712   9.415   0.343 -0.1152 -0.4650  0.1051
37547SOL    HW116172   0.736   9.484   0.281 -2.9031 -0.6089 -1.2514
37547SOL    HW216173   0.735   9.452   0.429 -0.6939  1.8132 -0.6386
37548SOL     OW16174   3.923   7.149   7.120 -0.0064  0.6070 -0.2238
37548SOL    HW116175   3.943   7.056   7.114 -0.0335  0.6670 -1.5140
37548SOL    HW216176   3.920   7.167   7.214 -0.4767 -0.7927  0.0499
37549SOL     OW16177   2.746   2.797   2.690 -0.5739 -0.0944 -0.2583
37549SOL    HW116178   2.684   2.851   2.641  0.9708  0.4445 -1.7123
37549SOL    HW216179   2.827   2.849   2.692 -0.3258 -0.4558  2.1985
37550SOL     OW16180   9.659   1.687   3.261  0.3260  0.1000  0.2556
37550SOL    HW116181   9.725   1.650   3.202  0.9422  0.8293  0.4809
37550SOL    HW216182   9.580   1.693   3.207  0.4261 -0.7715 -0.0186
37551SOL     OW16183   6.517   8.445   1.215  0.1768  0.1662  0.5427
37551SOL    HW116184   6.576   8.434   1.290  0.3389  1.6590  0.6619
37551SOL    HW216185   6.544   8.528   1.175 -0.9506  0.1859 -0.2284
37552SOL     OW16186   6.222   4.035   2.451  0.7675  0.2479  0.1647
37552SOL    HW116187   6.241   3.953   2.406 -0.6323 -0.8772  1.5360
37552SOL    HW216188   6.179   4.089   2.384 -1.1480 -1.3350  0.0299
37553SOL     OW16189   3.828   2.974   6.061  0.1565 -0.2831  0.4452
37553SOL    HW116190   3.752   2.987   6.117  1.4790 -0.4082  2.3784
37553SOL    HW216191   3.858   2.885   6.083  0.3653 -0.5634 -0.9306
37554SOL     OW16192   1.167   5.493   8.581 -0.3949  0.2889 -0.0474
37554SOL    HW116193   1.073   5.476   8.585 -0.3886  0.1119 -0.5615
37554SOL    HW216194   1.180   5.536   8.496  0.0195  0.1241 -0.0682
37555SOL     OW16195   1.376   2.975   4.777  0.3139  0.0141 -0.4324
37555SOL    HW116196   1.297   2.935   4.740  0.5111 -1.2938  0.5219
37555SOL    HW216197   1.378   3.063   4.739 -1.6783  0.1244 -0.3772
37556SOL     OW16198   4.066   8.617   3.587 -0.1578 -0.3326  0.0395
37556SOL    HW116199   4.119   8.694   3.565 -1.7473  0.3249 -1.8746
37556SOL    HW216200   4.104   8.547   3.534 -0.2230 -0.2329 -0.1444
37557SOL     OW16201   4.879   1.117   3.510 -0.1857 -0.2177  0.1036
37557SOL    HW116202   4.860   1.023   3.505 -0.7401 -0.3124  2.6235
37557SOL    HW216203   4.965   1.126   3.468  0.2927 -2.0176  0.5922
37558SOL     OW16204   1.400   5.138   7.887 -0.5151  0.2329 -0.3959
37558SOL    HW116205   1.393   5.218   7.835  0.9800  1.4981  1.2039
37558SOL    HW216206   1.461   5.082   7.837 -0.1101  0.8801 -0.6366
37559SOL     OW16207   9.697   8.482   4.093 -0.2544 -0.8081 -0.2339
37559SOL    HW116208   9.702   8.388   4.074  0.6980 -0.3644 -2.4314
37559SOL    HW216209   9.783   8.516   4.069 -1.0231  0.8198 -0.8053
37560SOL     OW16210   8.340  10.498   4.230 -0.2930 -0.0219 -0.4017
37560SOL    HW116211   8.279  10.563   4.196  1.4425  1.0572 -1.5628
37560SOL    HW216212   8.360  10.442   4.155  0.1609 -0.3582 -0.0351
37561SOL     OW16213   2.343   0.221   3.927 -0.2242  0.0295  0.0142
37561SOL    HW116214   2.274   0.287   3.930  0.2081  0.4905  0.0417
37561SOL    HW216215   2.336   0.182   3.840 -0.3301  0.2856 -0.0925
37562SOL     OW16216   3.479   7.082   2.482  0.5028 -0.0118  0.3820
37562SOL    HW116217   3.562   7.113   2.518  1.0715  0.5736 -1.3493
37562SOL    HW216218   3.416   7.096   2.553  1.5739  1.0620  1.1691
37563SOL     OW16219   9.669   9.589   0.804  0.0855  0.0326 -0.2021
37563SOL    HW116220   9.732   9.658   0.785  0.7363 -0.1655  1.1194
37563SOL    HW216221   9.583   9.630   0.793  0.4606  1.1439  0.8049
37564SOL     OW16222   8.943   3.564   6.847  0.0258 -0.4586  0.3742
37564SOL    HW116223   8.888   3.540   6.922 -1.4946 -1.5187 -1.0198
37564SOL    HW216224   8.949   3.483   6.796  1.5294  0.0962 -0.3599
37565SOL     OW16225  10.276   4.544   2.340 -0.1879 -0.3244 -0.1487
37565SOL    HW116226  10.220   4.611   2.299  0.1512 -0.7702 -1.3747
37565SOL    HW216227  10.346   4.530   2.277  0.7803 -0.4952  0.9391
37566SOL     OW16228  11.033   5.276  11.065  0.2343 -0.2330 -0.6078
37566SOL    HW116229  11.030   5.359  11.018  0.3063 -0.0561 -0.3039
37566SOL    HW216230  10.993   5.295  11.150  3.2843  0.4005  0.8268
37567SOL     OW16231   0.037   3.113   9.871  0.2983  0.0095  0.5290
37567SOL    HW116232   0.100   3.048   9.902  1.5242  0.2469 -1.3071
37567SOL    HW216233  -0.048   3.078   9.897  1.0127 -1.6523  0.7722
37568SOL     OW16234   0.790   2.275   7.941  0.0782 -0.6987 -0.5384
37568SOL    HW116235   0.785   2.318   7.855 -0.2576 -0.7247 -0.5340
37568SOL    HW216236   0.738   2.331   7.999  0.5989 -0.4913 -0.2699
37569SOL     OW16237   3.536   1.460   5.724  1.0092 -0.1646 -0.1780
37569SOL    HW116238   3.472   1.532   5.723  1.1139 -0.0715 -0.1491
37569SOL    HW216239   3.560   1.451   5.816  1.0821 -0.1606 -0.1965
37570SOL     OW16240   8.972   8.212   8.253  0.4165 -0.5778 -0.1580
37570SOL    HW116241   8.886   8.245   8.227  1.2777  3.4793  1.4143
37570SOL    HW216242   9.032   8.246   8.187  1.2361 -0.0207  0.8525
37571SOL     OW16243   4.034   7.391   9.686  0.0221  0.1600  0.9039
37571SOL    HW116244   4.028   7.352   9.773  0.6694  0.0748  0.9196
37571SOL    HW216245   4.128   7.388   9.665 -0.0329  0.8650  0.5194
37572SOL     OW16246   9.935   4.770   2.804  0.2986 -0.3559 -0.3371
37572SOL    HW116247  10.007   4.717   2.771  1.4811  0.2136  1.2102
37572SOL    HW216248   9.857   4.715   2.792  1.2620 -1.7818 -0.2493
37573SOL     OW16249   5.346  10.685   6.340 -0.7335  0.1013 -0.1070
37573SOL    HW116250   5.335  10.748   6.412 -0.3489  0.1597 -0.0969
37573SOL    HW216251   5.399  10.615   6.378 -1.5635 -0.4707  0.0227
37574SOL     OW16252   1.737   9.894   4.963  0.0494  0.6890  0.5517
37574SOL    HW116253   1.660   9.904   5.020  1.0394  1.2009  1.8660
37574SOL    HW216254   1.717   9.946   4.885 -0.6713  1.3630  1.1708
37575SOL     OW16255   0.192  10.777  10.809  0.1244 -0.2723 -0.1516
37575SOL    HW116256   0.273  10.815  10.776  0.0167  0.9979  0.9684
37575SOL    HW216257   0.142  10.754  10.731  2.1938 -2.6392 -0.9410
37576SOL     OW16258   6.055  10.457  10.696  0.0953 -0.0802 -0.3755
37576SOL    HW116259   5.961  10.472  10.706  0.2092  0.4247  0.0205
37576SOL    HW216260   6.065  10.362  10.696 -0.5181 -0.1609 -1.4844
37577SOL     OW16261   1.318   8.321   6.670 -0.4002  0.0406  0.5424
37577SOL    HW116262   1.309   8.302   6.763 -0.7129  0.6989  0.6486
37577SOL    HW216263   1.345   8.413   6.666  0.1298 -0.1258 -0.0015
37578SOL     OW16264   7.793   8.141   8.820  0.1010  0.2159 -0.4101
37578SOL    HW116265   7.875   8.093   8.813 -0.2433 -0.8324  1.8939
37578SOL    HW216266   7.726   8.074   8.828 -0.9718  1.0682 -1.6253
37579SOL     OW16267   2.987   0.247   8.892 -0.6576 -0.3727  0.1860
37579SOL    HW116268   2.989   0.154   8.913 -2.2769 -0.6208 -0.6194
37579SOL    HW216269   2.960   0.289   8.973 -0.7345 -0.6953  0.3309
37580SOL     OW16270   1.400   4.410   6.543  0.0830 -0.3123  0.4332
37580SOL    HW116271   1.369   4.319   6.539 -0.1595 -0.2389  0.6805
37580SOL    HW216272   1.490   4.403   6.575 -0.5234 -0.3394  2.2343
37581SOL     OW16273   6.998   8.591   2.782  0.2018 -0.4145 -0.3816
37581SOL    HW116274   6.937   8.656   2.817  1.6610  1.5333 -1.2764
37581SOL    HW216275   7.027   8.542   2.859 -1.7020 -0.7682  0.1729
37582SOL     OW16276   6.132   0.172   1.957  0.5082  0.0204  0.0941
37582SOL    HW116277   6.205   0.233   1.943  1.6223 -0.6742  2.4566
37582SOL    HW216278   6.150   0.131   2.041 -2.2350 -0.7667  0.4089
37583SOL     OW16279   2.766  10.573   8.622 -0.2545 -0.0204  0.3161
37583SOL    HW116280   2.808  10.562   8.536  1.1703 -0.6006  1.0475
37583SOL    HW216281   2.760  10.484   8.657 -2.3608  0.0123  0.1623
37584SOL     OW16282   3.893   9.164   6.159  0.2906  0.4132  0.1283
37584SOL    HW116283   3.942   9.151   6.241  1.1193 -1.8102 -0.6566
37584SOL    HW216284   3.803   9.139   6.181  0.0829  1.6652  0.8127
37585SOL     OW16285   9.932  10.279   0.746  0.3372 -0.5312 -0.2041
37585SOL    HW116286   9.852  10.297   0.796  0.7317  1.6865 -0.2722
37585SOL    HW216287   9.937  10.183   0.742 -1.6974 -0.7248  0.7654
37586SOL     OW16288   0.313   1.841  10.719  0.0571 -0.2087  0.4797
37586SOL    HW116289   0.234   1.802  10.683  1.0434 -1.0894 -0.8113
37586SOL    HW216290   0.314   1.813  10.811 -0.0210 -1.9900 -0.0388
37587SOL     OW16291   5.541  10.719   7.639  0.0779 -0.1660  0.1420
37587SOL    HW116292   5.479  10.760   7.579  0.1814 -0.2043  0.0108
37587SOL    HW216293   5.612  10.783   7.648 -0.8423  0.6897  1.7284
37588SOL     OW16294  10.114   1.552   5.567 -0.1668 -0.1836 -0.1299
37588SOL    HW116295  10.169   1.490   5.520 -0.1038  1.4070 -2.2994
37588SOL    HW216296  10.171   1.628   5.582 -0.9133  0.3079  0.2711
37589SOL     OW16297   6.204   3.734   5.314 -0.1004 -0.0843 -0.0140
37589SOL    HW116298   6.254   3.797   5.262  0.7181 -2.6026 -2.4944
37589SOL    HW216299   6.179   3.783   5.393  0.9513  3.1182 -1.4987
37590SOL     OW16300   5.242  10.588   3.657  0.0262  0.3261 -0.2048
37590SOL    HW116301   5.326  10.635   3.655 -0.0224  0.5166  1.1488
37590SOL    HW216302   5.263  10.500   3.626  0.7452  0.3575  0.1766
37591SOL     OW16303   4.429   4.655   8.985 -0.5141 -0.7009  0.1903
37591SOL    HW116304   4.468   4.630   9.068  0.0018 -0.8603 -0.0963
37591SOL    HW216305   4.493   4.714   8.944 -0.7087 -0.7131 -0.1432
37592SOL     OW16306   7.132   2.363   9.284 -0.2852  0.5744  0.2275
37592SOL    HW116307   7.169   2.445   9.249 -0.9005  1.7948  2.2393
37592SOL    HW216308   7.104   2.386   9.373 -2.0842 -1.3919  0.2446
37593SOL     OW16309   8.537   4.099   3.849  0.4583 -0.0060  0.4273
37593SOL    HW116310   8.572   4.187   3.833 -0.3774  0.2294 -0.1737
37593SOL    HW216311   8.442   4.111   3.852  0.3688 -0.7803  1.0701
37594SOL     OW16312   6.432   6.615   5.046 -0.3213 -0.2038  0.0491
37594SOL    HW116313   6.494   6.562   4.997  0.7401  0.6642  0.3945
37594SOL    HW216314   6.351   6.610   4.997  1.2524  2.5559 -3.2545
37595SOL     OW16315   5.231   9.056   1.832  0.1097  0.2816 -0.0346
37595SOL    HW116316   5.299   9.043   1.765  0.1765 -0.5185  0.1785
37595SOL    HW216317   5.256   8.997   1.903 -1.0939 -0.4286 -0.1738
37596SOL     OW16318   8.643   5.678   9.306 -0.7437 -0.2396 -0.2179
37596SOL    HW116319   8.616   5.619   9.377  1.0193 -1.9180 -0.8426
37596SOL    HW216320   8.733   5.652   9.287 -0.6376  1.2626 -2.0076
37597SOL     OW16321   0.409   0.718   3.449  0.0354  0.1536 -0.4236
37597SOL    HW116322   0.503   0.714   3.432  0.0583  0.9097 -0.5278
37597SOL    HW216323   0.370   0.726   3.361 -0.3391 -2.9986 -0.6289
37598SOL     OW16324   0.348   7.322   1.907 -0.2697  0.3314  0.8368
37598SOL    HW116325   0.268   7.273   1.924 -0.1595 -0.8846 -1.6815
37598SOL    HW216326   0.320   7.414   1.908 -1.4872 -0.0184  0.9503
37599SOL     OW16327   6.660   7.084   4.982 -0.5088 -0.4621 -0.2133
37599SOL    HW116328   6.669   7.046   4.894 -1.4498 -0.6390 -0.2404
37599SOL    HW216329   6.695   7.173   4.973  0.8807 -0.9971 -0.3669
37600SOL     OW16330   4.189   4.486   9.878  0.3785  0.0832 -0.3394
37600SOL    HW116331   4.223   4.479   9.789 -0.9949 -1.7788 -0.7887
37600SOL    HW216332   4.100   4.450   9.872  0.3211 -0.2498  1.8191
37601SOL     OW16333   3.175   9.903   5.509  0.1471  0.0028 -0.1613
37601SOL    HW116334   3.116   9.828   5.516 -1.5486  1.3125  0.4951
37601SOL    HW216335   3.137   9.956   5.439 -1.1216  2.1710  1.9942
37602SOL     OW16336   5.282   3.028   6.058  0.7619  0.4281  0.5266
37602SOL    HW116337   5.346   3.003   5.991 -0.2485 -0.9137  0.0181
37602SOL    HW216338   5.205   3.055   6.008  0.9591  2.2310  1.1317
37603SOL     OW16339  10.365   4.324   6.414 -0.1590  0.0623 -0.2186
37603SOL    HW116340  10.409   4.365   6.489 -1.1164 -0.3312  0.5875
37603SOL    HW216341  10.290   4.382   6.396 -0.3136 -0.2040 -0.4399
37604SOL     OW16342   0.308   7.902   3.967 -0.1575 -0.0939 -0.2880
37604SOL    HW116343   0.403   7.892   3.955 -0.0265  0.5149  0.1426
37604SOL    HW216344   0.299   7.987   4.012 -0.7877 -0.8619  1.1105
37605SOL     OW16345   4.658  10.104   9.409 -0.3720 -0.2317  0.4110
37605SOL    HW116346   4.605  10.148   9.476 -0.4566 -1.7987  1.4224
37605SOL    HW216347   4.603  10.105   9.331  0.4447  3.3105 -0.3340
37606SOL     OW16348   5.957   1.778  11.033 -0.2620 -0.2752  0.6041
37606SOL    HW116349   6.041   1.805  11.071 -0.8896  2.2498  0.3217
37606SOL    HW216350   5.917   1.723  11.100  0.9079 -0.1731  1.4145
37607SOL     OW16351   8.698   2.482   1.990 -0.0462 -0.2492  0.0035
37607SOL    HW116352   8.781   2.476   2.037  0.8767 -0.7904 -1.6091
37607SOL    HW216353   8.723   2.481   1.898 -1.8068  0.4749 -0.5162
37608SOL     OW16354   8.790   6.684   7.535 -0.1756  0.4723  0.4469
37608SOL    HW116355   8.867   6.678   7.591  0.0194  0.3092  0.1629
37608SOL    HW216356   8.825   6.685   7.446 -0.5857 -1.5729  0.2227
37609SOL     OW16357   9.892   6.634   2.135  0.1748 -0.0343  0.2391
37609SOL    HW116358   9.944   6.558   2.161  0.2917  0.0689  0.3104
37609SOL    HW216359   9.949   6.683   2.076  0.0506 -0.0715  0.0903
37610SOL     OW16360   4.829   8.313   3.893  0.3340  0.1248 -0.0757
37610SOL    HW116361   4.741   8.276   3.897  0.3450  0.1552  0.6849
37610SOL    HW216362   4.885   8.245   3.931  0.5666  0.2995 -0.1056
37611SOL     OW16363   9.792   0.666   5.113  0.2193 -0.5826 -0.5296
37611SOL    HW116364   9.720   0.603   5.123  1.0062 -1.3493  0.7130
37611SOL    HW216365   9.862   0.616   5.069 -0.4830  0.5943 -3.1757
37612SOL     OW16366   8.446   6.032  10.686 -0.0093 -0.0394  0.1661
37612SOL    HW116367   8.462   6.052  10.593  0.3101  0.6124  0.3553
37612SOL    HW216368   8.415   6.115  10.723 -1.8680 -0.7407  0.2721
37613SOL     OW16369   9.722   9.598   5.575 -0.5048  0.1567 -0.4009
37613SOL    HW116370   9.627   9.590   5.589 -0.4566 -0.0815 -0.2094
37613SOL    HW216371   9.731   9.675   5.519 -0.7886  0.3840 -0.1374
37614SOL     OW16372   5.225   0.651   1.682 -0.1912 -0.3410 -0.9126
37614SOL    HW116373   5.138   0.687   1.701 -0.4568 -0.8083 -1.2127
37614SOL    HW216374   5.215   0.557   1.697  1.0911 -0.0879  2.1321
37615SOL     OW16375   4.563   7.828  10.878 -0.3665 -0.4888 -0.3400
37615SOL    HW116376   4.496   7.807  10.812 -0.5218 -0.1683 -0.2899
37615SOL    HW216377   4.646   7.809  10.835 -0.4092  0.7486 -1.0376
37616SOL     OW16378   3.804   8.405   8.175 -0.1263 -0.2268 -0.0105
37616SOL    HW116379   3.846   8.490   8.191  1.7965 -0.5757 -2.5690
37616SOL    HW216380   3.852   8.343   8.230 -0.4873  0.0700  0.6558
37617SOL     OW16381   8.234   3.167   4.944  0.1571  0.1970 -0.2749
37617SOL    HW116382   8.220   3.100   4.877  0.6784  0.7314 -0.9341
37617SOL    HW216383   8.157   3.224   4.937 -0.6225 -0.6924  0.7467
37618SOL     OW16384   5.168   6.459   7.573  0.3197 -0.4220 -0.0036
37618SOL    HW116385   5.170   6.546   7.614  0.0789  0.1870 -1.2191
37618SOL    HW216386   5.213   6.402   7.635 -0.6235  0.3096  1.3961
37619SOL     OW16387   6.726   0.618   3.324  0.0219  0.7107 -0.1685
37619SOL    HW116388   6.680   0.543   3.287  2.2447 -0.6920 -0.3013
37619SOL    HW216389   6.741   0.677   3.249 -2.9823  2.1033  0.1840
37620SOL     OW16390   7.797   2.333   0.888 -0.5339  0.0114  0.0707
37620SOL    HW116391   7.823   2.392   0.818  1.6320 -0.7971  0.1153
37620SOL    HW216392   7.813   2.245   0.853 -0.9088 -0.4588  1.0239
37621SOL     OW16393   0.083   1.189   1.575 -0.3914 -0.0973 -0.2808
37621SOL    HW116394   0.097   1.282   1.596  0.5475 -0.9415  3.4916
37621SOL    HW216395   0.166   1.160   1.538 -0.5242  0.4369 -1.0135
37622SOL     OW16396   7.628   6.029   6.800 -0.0567 -0.5794 -0.4005
37622SOL    HW116397   7.622   5.976   6.879 -0.8602  1.7596  1.2225
37622SOL    HW216398   7.712   6.075   6.808 -0.6083  0.4533 -0.3344
37623SOL     OW16399   0.724   8.946   0.031  0.4216  0.0931 -0.0745
37623SOL    HW116400   0.741   9.004  -0.043  1.8681 -0.1568  0.0472
37623SOL    HW216401   0.805   8.898   0.044  0.7710  1.2184  2.6225
37624SOL     OW16402   6.302   9.171  10.387  0.6226  0.1696  0.0985
37624SOL    HW116403   6.233   9.235  10.407  0.8771  0.0281  1.4936
37624SOL    HW216404   6.381   9.208  10.427  1.1543 -0.1518 -0.6424
37625SOL     OW16405   8.429   4.857   8.373 -0.3086  0.3275 -0.1456
37625SOL    HW116406   8.388   4.782   8.330  0.0350  0.0133  0.0682
37625SOL    HW216407   8.519   4.857   8.342  0.2771 -0.5899  1.3966
37626SOL     OW16408  11.090   9.557   2.120 -0.2175  0.5531  0.0781
37626SOL    HW116409  11.019   9.613   2.154 -0.4816  0.7181 -0.7298
37626SOL    HW216410  11.045   9.486   2.075  0.0728 -1.1860  2.3268
37627SOL     OW16411   2.373   6.164   8.293  0.0931  0.4294 -0.6877
37627SOL    HW116412   2.397   6.239   8.238  0.0692 -0.1238 -1.4821
37627SOL    HW216413   2.355   6.094   8.230 -1.3074  0.1634 -0.0141
37628SOL     OW16414   3.990   3.841   9.280 -0.1645  0.5093 -0.2753
37628SOL    HW116415   4.073   3.865   9.321  0.6501  0.0125 -1.5789
37628SOL    HW216416   3.941   3.923   9.277  0.0886  0.7209  0.9082
37629SOL     OW16417   7.941   7.312   2.951  0.1196 -0.3407 -0.3858
37629SOL    HW116418   8.002   7.367   2.902 -0.8587  0.1117 -1.1179
37629SOL    HW216419   7.960   7.223   2.922 -1.0812 -0.0126 -2.3526
37630SOL     OW16420   5.581   6.211   1.327 -0.3243  0.4877  0.0592
37630SOL    HW116421   5.498   6.243   1.362  0.5076  1.3110  1.3752
37630SOL    HW216422   5.592   6.259   1.245 -1.8151 -0.7042 -0.8828
37631SOL     OW16423   7.067   4.420   7.581 -0.1254 -0.2132  0.0761
37631SOL    HW116424   7.058   4.324   7.578 -2.4841 -0.0070 -0.9540
37631SOL    HW216425   7.142   4.434   7.639  0.2240 -2.6736  0.3501
37632SOL     OW16426   5.332   6.018   1.342 -0.3716 -0.2631  0.2201
37632SOL    HW116427   5.262   5.988   1.400  0.2744 -0.1460  1.0647
37632SOL    HW216428   5.389   6.071   1.397  0.6862 -0.8064 -0.3138
37633SOL     OW16429   8.563   6.382   7.964 -0.1212  0.1611 -0.0660
37633SOL    HW116430   8.471   6.402   7.977  0.1679  1.5000  0.0736
37633SOL    HW216431   8.609   6.433   8.031  0.8126  0.6189 -1.0253
37634SOL     OW16432   4.337   0.058  10.620  0.4394  0.3220  0.3158
37634SOL    HW116433   4.416   0.074  10.568  0.6952  1.8674  1.1179
37634SOL    HW216434   4.368   0.058  10.711 -0.0516 -1.9642  0.5514
37635SOL     OW16435   3.771   8.273   8.590 -0.1098 -0.1763  0.2962
37635SOL    HW116436   3.690   8.324   8.590  0.1279  0.2634 -1.2788
37635SOL    HW216437   3.742   8.182   8.580 -0.4295  0.1246 -2.3601
37636SOL     OW16438   6.839   0.126   1.268 -0.2095 -0.1050  0.5165
37636SOL    HW116439   6.911   0.143   1.328 -0.2152 -0.7936  0.7300
37636SOL    HW216440   6.880   0.126   1.181 -0.3956  2.0875  0.3608
37637SOL     OW16441   6.957   7.839   5.474  0.4768  0.1111 -0.2403
37637SOL    HW116442   6.884   7.880   5.426  0.1456  0.0006  0.1618
37637SOL    HW216443   6.978   7.902   5.543 -0.4668 -0.6620  0.7886
37638SOL     OW16444  11.121   9.094   4.747 -0.3097  0.0816 -0.5376
37638SOL    HW116445  11.085   9.039   4.678  0.0533  0.2078 -0.8345
37638SOL    HW216446  11.047   9.113   4.804 -0.1365 -2.1509  0.5623
37639SOL     OW16447   1.105   1.389   5.694 -0.6454  0.8689 -0.2891
37639SOL    HW116448   1.172   1.417   5.757 -0.1918  1.1489 -0.8852
37639SOL    HW216449   1.154   1.369   5.615 -1.1078 -0.4358 -0.2622
37640SOL     OW16450   9.506   9.317   1.523  0.2396 -0.4540 -0.5385
37640SOL    HW116451   9.511   9.327   1.428 -0.4550  0.3798 -0.4998
37640SOL    HW216452   9.550   9.394   1.558 -1.1722  0.2533 -0.2111
37641SOL     OW16453  10.879   6.255   9.097  0.0652 -0.0341 -0.5312
37641SOL    HW116454  10.891   6.164   9.126 -0.9645 -0.8779 -2.5744
37641SOL    HW216455  10.963   6.297   9.114  0.5240 -1.3272  0.5652
37642SOL     OW16456   0.031   8.231   6.028  0.4100 -0.1962 -0.0274
37642SOL    HW116457   0.046   8.288   5.953  0.8501 -1.6630 -1.1122
37642SOL    HW216458   0.097   8.258   6.092 -0.1958  1.3029 -0.0214
37643SOL     OW16459   3.024   0.474   5.511  0.1086  0.4942 -0.1272
37643SOL    HW116460   3.055   0.562   5.531  0.0439  0.3231  0.7551
37643SOL    HW216461   3.045   0.461   5.418 -1.3823  2.0694 -0.7260
37644SOL     OW16462   5.036   6.921   2.185  1.1518 -0.3992  0.7235
37644SOL    HW116463   5.120   6.940   2.142  1.2340 -1.0502  0.5924
37644SOL    HW216464   4.982   6.998   2.166  1.9059  0.2890  1.3042
37645SOL     OW16465   2.251   7.651   6.210 -0.0302  0.1708 -0.0086
37645SOL    HW116466   2.181   7.600   6.168 -0.4540  1.2226 -0.6174
37645SOL    HW216467   2.211   7.687   6.288  0.1329 -0.0492  0.1772
37646SOL     OW16468   8.781   7.542   0.122 -0.0151 -0.6388 -0.0935
37646SOL    HW116469   8.751   7.624   0.161  0.1806 -0.2357 -0.7819
37646SOL    HW216470   8.705   7.508   0.076 -0.3804 -1.3474  0.9930
37647SOL     OW16471   7.736   5.874   5.928  0.0611 -0.0316  0.2290
37647SOL    HW116472   7.782   5.796   5.897  0.4589 -0.4085  1.6995
37647SOL    HW216473   7.704   5.916   5.848  0.0929 -1.5345 -0.6164
37648SOL     OW16474   4.791  10.272   2.819  0.0504  0.1396 -0.0605
37648SOL    HW116475   4.749  10.290   2.735  0.9141  0.8798 -0.3544
37648SOL    HW216476   4.867  10.219   2.797 -0.6232 -1.0791  0.4516
37649SOL     OW16477   0.214   9.926   6.098  0.0804 -0.1876  0.4953
37649SOL    HW116478   0.235   9.920   6.005 -0.7040 -0.7675  0.3485
37649SOL    HW216479   0.119   9.924   6.101  0.1161 -0.7509  1.3574
37650SOL     OW16480   7.383   7.076   1.306 -0.5762 -0.7552 -0.1111
37650SOL    HW116481   7.394   7.037   1.220 -2.6265  0.5818 -1.0550
37650SOL    HW216482   7.439   7.155   1.303 -0.7930 -0.6075 -0.2963
37651SOL     OW16483   1.095  10.677   7.336 -0.4103  1.0110 -0.2464
37651SOL    HW116484   1.076  10.584   7.341 -1.3624  1.2207  0.3597
37651SOL    HW216485   1.134  10.699   7.420 -0.4276  1.2094 -0.2883
37652SOL     OW16486   0.275   3.732   9.290  0.3342  0.1758 -0.1156
37652SOL    HW116487   0.246   3.757   9.378  0.0868  0.9189 -0.4003
37652SOL    HW216488   0.205   3.763   9.233  0.0545 -1.1179 -0.5026
37653SOL     OW16489   4.421   7.637   2.344  0.1593  0.2366 -0.0951
37653SOL    HW116490   4.492   7.693   2.311  1.7433 -0.7216  1.5204
37653SOL    HW216491   4.464   7.576   2.404 -2.0858 -0.2564  1.1270
37654SOL     OW16492   4.162   7.199   6.957 -0.0638 -0.3720 -0.6386
37654SOL    HW116493   4.094   7.231   7.017  0.0338  0.0709 -0.7587
37654SOL    HW216494   4.199   7.122   7.001 -1.1472 -1.0628 -0.9150
37655SOL     OW16495   0.294   0.324   2.036  0.3753 -0.5825 -0.2941
37655SOL    HW116496   0.234   0.396   2.015  0.3996 -0.7961 -1.1387
37655SOL    HW216497   0.327   0.295   1.951  1.9981 -0.2175  0.1721
37656SOL     OW16498   2.350   0.958   5.030 -0.2354  0.2228  0.1770
37656SOL    HW116499   2.440   0.957   4.999 -0.7303 -0.1308 -1.3466
37656SOL    HW216500   2.350   0.905   5.109  0.8984  0.3100  0.2454
37657SOL     OW16501   0.723   1.733   8.430  0.3670 -0.0298  0.4648
37657SOL    HW116502   0.727   1.802   8.364  0.4485  1.0549  1.5564
37657SOL    HW216503   0.757   1.655   8.387  0.1238  0.5774 -0.8510
37658SOL     OW16504   5.768   6.613   6.944 -0.0913 -0.0454 -0.1013
37658SOL    HW116505   5.700   6.679   6.958 -0.3570 -0.2086 -0.5838
37658SOL    HW216506   5.724   6.530   6.959  0.9095 -0.1060  3.3789
37659SOL     OW16507  11.006   7.742   9.927  0.0984 -0.4193  0.0460
37659SOL    HW116508  11.042   7.659   9.958  0.2305 -0.2036  0.4857
37659SOL    HW216509  10.937   7.763   9.990  1.1058  0.5749  0.8634
37660SOL     OW16510   0.893   5.966   6.272 -0.7239  0.1095 -0.1851
37660SOL    HW116511   0.893   6.045   6.327 -2.4472  0.7006 -0.9896
37660SOL    HW216512   0.893   5.999   6.183 -0.2239 -0.8371 -0.5483
37661SOL     OW16513   0.443   4.959   1.019 -0.0936 -0.0954 -0.8684
37661SOL    HW116514   0.454   4.976   0.926 -0.0667  0.6131 -0.7420
37661SOL    HW216515   0.473   4.869   1.031  0.6967  0.0895 -1.3972
37662SOL     OW16516   4.658   5.579   2.735 -0.3453  0.0352  0.7143
37662SOL    HW116517   4.659   5.563   2.830  0.9428 -1.0806  0.5474
37662SOL    HW216518   4.729   5.524   2.701 -0.7385  0.4774 -0.8953
37663SOL     OW16519   0.631   0.173   3.516 -0.0646  0.1291  0.0870
37663SOL    HW116520   0.661   0.212   3.597  0.4745  0.0473 -0.0707
37663SOL    HW216521   0.697   0.108   3.494 -0.0511  0.3506 -0.5666
37664SOL     OW16522   4.731   5.250   7.874 -0.2255 -0.5192  0.0060
37664SOL    HW116523   4.819   5.287   7.869 -0.3345 -0.3480 -0.7121
37664SOL    HW216524   4.735   5.171   7.821 -0.8345  0.1631 -1.0847
37665SOL     OW16525   3.911   6.138  10.862  0.6277  0.0466 -0.0982
37665SOL    HW116526   3.817   6.127  10.847  0.4715 -0.4699  1.1406
37665SOL    HW216527   3.950   6.128  10.775 -0.3742 -0.7478 -0.4855
37666SOL     OW16528   7.539  10.801   2.305 -0.4331 -0.6989  0.3094
37666SOL    HW116529   7.454  10.763   2.284 -0.1550 -1.1471 -0.0377
37666SOL    HW216530   7.549  10.873   2.244 -0.7494 -0.3694  0.6413
37667SOL     OW16531  10.818   7.298   0.054 -0.5777 -1.1789 -0.0916
37667SOL    HW116532  10.880   7.347   0.108  0.2653 -2.4202  0.0973
37667SOL    HW216533  10.758   7.257   0.116 -0.8943 -0.9254 -0.2213
37668SOL     OW16534   6.306   3.640   6.614  0.6593 -0.6943 -0.4153
37668SOL    HW116535   6.256   3.589   6.678  0.1682  0.4384  0.1483
37668SOL    HW216536   6.343   3.712   6.665  0.2041  0.2789 -1.3984
37669SOL     OW16537   0.964  10.761   9.833  0.1001 -0.0295 -0.0796
37669SOL    HW116538   0.882  10.729   9.869 -0.0884  0.7168  0.1714
37669SOL    HW216539   0.980  10.706   9.756 -0.2341 -0.6786  0.3084
37670SOL     OW16540   7.933   9.801  10.985  0.6594  0.4605  0.0517
37670SOL    HW116541   7.902   9.737  10.922  0.4607  1.0707 -0.4786
37670SOL    HW216542   7.968   9.749  11.057  0.0101 -0.2423 -0.1275
37671SOL     OW16543   9.950   0.237   9.596 -0.2921 -0.2692 -0.5594
37671SOL    HW116544  10.029   0.289   9.577  0.2875 -1.0822 -0.4375
37671SOL    HW216545   9.984   0.153   9.625 -1.2112 -0.1350  0.9764
37672SOL     OW16546   9.573   4.491   6.354  0.6246  0.3154 -0.0859
37672SOL    HW116547   9.512   4.543   6.405  1.2309 -0.1631  1.1674
37672SOL    HW216548   9.562   4.401   6.387 -0.2246 -0.3474 -2.0235
37673SOL     OW16549   9.979   0.308   3.131 -0.2227  0.3022 -0.0385
37673SOL    HW116550   9.947   0.395   3.154  1.5653  1.1217 -0.4310
37673SOL    HW216551   9.985   0.262   3.215 -0.7182  0.7153  0.2286
37674SOL     OW16552   1.211   3.722   6.306  0.2335 -0.0321  0.2657
37674SOL    HW116553   1.133   3.676   6.336 -0.6683  1.6444  0.5731
37674SOL    HW216554   1.234   3.678   6.224 -0.7894 -0.7973  0.3665
37675SOL     OW16555   9.285   3.457   2.897 -0.4037  0.0513  0.1967
37675SOL    HW116556   9.353   3.408   2.849  0.3810  1.4478 -0.1783
37675SOL    HW216557   9.335   3.515   2.954 -1.3281 -0.6811  1.8055
37676SOL     OW16558  10.453   8.817   2.798  0.0940  0.2092  0.2018
37676SOL    HW116559  10.510   8.893   2.811 -0.4533  0.6188  0.2404
37676SOL    HW216560  10.514   8.744   2.786  0.6314  0.5377  0.7947
37677SOL     OW16561   9.147   4.827   5.343  0.5984  0.4906 -0.1425
37677SOL    HW116562   9.101   4.910   5.333  1.0111  0.8991  1.1287
37677SOL    HW216563   9.226   4.838   5.290  2.6801  2.5517  3.0085
37678SOL     OW16564  11.104   5.799   7.609 -0.4387  0.4203  0.1932
37678SOL    HW116565  11.076   5.763   7.525 -1.4977 -0.6147  0.9563
37678SOL    HW216566  11.032   5.778   7.669  0.5177  0.6788  1.4693
37679SOL     OW16567   1.699   8.333   0.130 -0.0623 -0.5001 -0.3174
37679SOL    HW116568   1.680   8.374   0.214  1.0277  3.0318 -1.6403
37679SOL    HW216569   1.648   8.383   0.066  0.5374 -1.9248 -2.0079
37680SOL     OW16570   0.535   2.355   4.757  0.2677  0.3775  0.2330
37680SOL    HW116571   0.517   2.408   4.835  0.1204  0.5087  0.1091
37680SOL    HW216572   0.450   2.320   4.732  0.2288  0.7446 -0.1672
37681SOL     OW16573   4.012   2.380   1.102  0.2807 -0.0390  0.0193
37681SOL    HW116574   3.942   2.438   1.072 -0.2319 -0.9399 -0.5549
37681SOL    HW216575   4.085   2.398   1.042 -0.0155 -0.2779 -0.4180
37682SOL     OW16576   6.478   1.091   2.216  0.2266 -0.3054  0.0911
37682SOL    HW116577   6.517   1.141   2.144  0.8502  0.6501  1.0543
37682SOL    HW216578   6.541   1.100   2.288 -0.4534 -1.1008  0.8114
37683SOL     OW16579   5.634   9.012  10.854 -0.5768  0.1325  0.4371
37683SOL    HW116580   5.542   9.039  10.859 -1.4920 -2.7245  1.1397
37683SOL    HW216581   5.647   8.988  10.762 -0.2269  1.3835  0.1448
37684SOL     OW16582   9.692   9.484   1.103 -0.4305 -0.1593  0.5261
37684SOL    HW116583   9.760   9.548   1.123 -2.5048  1.8810  1.4411
37684SOL    HW216584   9.643   9.521   1.030 -1.0763 -1.1987  0.4033
37685SOL     OW16585   5.243   7.360  10.820 -0.8269  0.1326 -0.2256
37685SOL    HW116586   5.275   7.424  10.884 -1.3712  0.3303 -0.1460
37685SOL    HW216587   5.150   7.382  10.809 -1.0421 -0.6941 -0.1266
37686SOL     OW16588   4.061   3.148  10.161 -0.1660  0.4339 -0.2235
37686SOL    HW116589   3.992   3.204  10.198  0.6263  1.2685  0.0131
37686SOL    HW216590   4.023   3.115  10.080 -1.2969 -0.0817  0.4832
37687SOL     OW16591   9.494   9.535   4.969  0.1817  0.4323  0.1797
37687SOL    HW116592   9.407   9.574   4.980 -0.7738 -1.5033 -0.2205
37687SOL    HW216593   9.519   9.556   4.879 -0.1318  0.4791  0.1049
37688SOL     OW16594   9.087   8.268   8.938  0.0103  0.0389  0.2357
37688SOL    HW116595   9.100   8.243   9.030 -2.0737 -0.6162  0.4021
37688SOL    HW216596   9.018   8.334   8.941 -0.3724 -0.2936 -0.8957
37689SOL     OW16597   4.998   6.663   2.251 -0.0123 -0.6242  0.2638
37689SOL    HW116598   5.018   6.608   2.176 -0.3420 -0.1480 -0.1794
37689SOL    HW216599   5.026   6.751   2.226  0.4069 -0.5577  0.9231
37690SOL     OW16600   6.046   7.902   0.847 -0.0261 -0.6767 -0.4063
37690SOL    HW116601   6.080   7.977   0.799 -1.0558 -0.1699 -0.3872
37690SOL    HW216602   6.122   7.862   0.888  0.7837 -0.7384 -1.9220
37691SOL     OW16603   6.453   4.185   5.093 -0.5258 -0.0079 -0.1978
37691SOL    HW116604   6.487   4.238   5.165 -0.6333  3.0366 -2.2064
37691SOL    HW216605   6.530   4.161   5.042 -0.6168 -0.7038 -0.0231
37692SOL     OW16606   3.137   3.140   2.089  0.0979  0.3006  0.3272
37692SOL    HW116607   3.150   3.149   2.184  0.3985  2.0364  0.1676
37692SOL    HW216608   3.225   3.153   2.052  0.0946 -1.0214 -0.1674
37693SOL     OW16609   3.806   6.593   3.355 -0.0162 -0.0713  0.8805
37693SOL    HW116610   3.747   6.665   3.377 -0.1182  0.0168  0.3111
37693SOL    HW216611   3.886   6.612   3.404  0.6648  1.4520 -0.7551
37694SOL     OW16612   7.501   2.555  10.014 -0.4384 -0.0906 -0.2024
37694SOL    HW116613   7.434   2.536  10.080 -0.7919 -0.0610 -0.5517
37694SOL    HW216614   7.581   2.514  10.049 -1.3310 -3.0470 -1.2913
37695SOL     OW16615   6.282   8.018   8.239 -0.0495 -1.0425  0.0328
37695SOL    HW116616   6.222   8.036   8.166  0.2778  0.1940  0.0358
37695SOL    HW216617   6.362   7.986   8.197  0.8770  1.5721 -0.3858
37696SOL     OW16618   4.495   0.736   4.025  0.3626 -0.0400 -0.1540
37696SOL    HW116619   4.549   0.675   4.076 -1.6384 -1.6443  0.1667
37696SOL    HW216620   4.460   0.797   4.089 -0.2579 -0.5923  0.0353
37697SOL     OW16621  10.609   0.938   8.249 -0.5929 -0.0307 -0.4354
37697SOL    HW116622  10.526   0.901   8.280  0.6544 -1.6669  1.1674
37697SOL    HW216623  10.645   0.871   8.191  0.0765  0.1917 -0.2849
37698SOL     OW16624   7.926   4.939   1.970 -0.0489 -0.7290  0.3372
37698SOL    HW116625   7.930   4.880   2.045 -1.7407  0.7770  1.7152
37698SOL    HW216626   7.970   5.019   2.001 -2.7158  0.7331  0.6490
37699SOL     OW16627   1.204   5.046   4.413 -0.0552 -0.1541 -0.6782
37699SOL    HW116628   1.117   5.067   4.380 -1.2421 -1.4879  1.3655
37699SOL    HW216629   1.248   5.131   4.421 -1.0315  0.5146 -2.0479
37700SOL     OW16630   0.599   8.306  10.764  0.4854  0.1585  0.2583
37700SOL    HW116631   0.618   8.291  10.857  1.5388 -0.3239 -0.0202
37700SOL    HW216632   0.658   8.378  10.739  2.1800 -1.4736 -0.6635
37701SOL     OW16633   1.639   4.826   3.746 -0.4600 -0.2784  0.5774
37701SOL    HW116634   1.570   4.889   3.769  0.3225  0.3240  1.3332
37701SOL    HW216635   1.602   4.741   3.769 -1.4099 -0.0828 -0.1615
37702SOL     OW16636   7.713  11.049   9.720 -0.1313 -0.3661 -0.3917
37702SOL    HW116637   7.679  11.104   9.649 -0.7278 -1.5200 -1.0397
37702SOL    HW216638   7.794  11.092   9.747 -1.4488  1.7991  0.3627
37703SOL     OW16639   8.318   7.951   7.150  0.6565  0.4616  0.1778
37703SOL    HW116640   8.365   8.015   7.096  1.2123  0.7875  1.0259
37703SOL    HW216641   8.374   7.940   7.227  1.0235 -1.7180 -0.3339
37704SOL     OW16642   0.347   8.854   5.778  0.4244 -0.4023  0.1567
37704SOL    HW116643   0.430   8.876   5.821  0.8204  0.9912 -1.2595
37704SOL    HW216644   0.331   8.926   5.718 -2.0120 -0.4856  0.6145
37705SOL     OW16645   0.741   1.107  10.380 -0.6373  0.0179  0.0091
37705SOL    HW116646   0.802   1.108  10.454  0.5388  0.2041 -0.9136
37705SOL    HW216647   0.696   1.191  10.385  0.0180  0.3756  0.0735
37706SOL     OW16648   0.426   3.505   3.565  0.4212  0.4464 -0.6964
37706SOL    HW116649   0.387   3.579   3.518  2.0578  1.1891 -0.9723
37706SOL    HW216650   0.360   3.436   3.561 -1.4280  2.0644  0.1002
37707SOL     OW16651   4.985   1.659   1.895  0.1719 -0.3512  0.1095
37707SOL    HW116652   5.040   1.715   1.949 -1.0617 -0.3452  1.4030
37707SOL    HW216653   4.988   1.699   1.808 -0.1598  1.3438  0.8494
37708SOL     OW16654   4.364   9.928   7.015  0.0633  0.2901 -0.1089
37708SOL    HW116655   4.325   9.973   6.941 -1.6548  1.4442  1.4035
37708SOL    HW216656   4.447   9.973   7.030 -0.0186  0.6561 -0.7577
37709SOL     OW16657   2.046   8.963  10.648 -0.2653 -0.0722  0.1408
37709SOL    HW116658   2.089   8.896  10.701 -0.2959 -0.7680 -0.6898
37709SOL    HW216659   2.108   9.036  10.645 -0.7130  0.4349  2.0193
37710SOL     OW16660   5.355   7.416   7.635 -0.2090  0.1801 -0.3566
37710SOL    HW116661   5.278   7.405   7.580 -0.6331  0.5920  0.1401
37710SOL    HW216662   5.407   7.337   7.621  0.0869  0.6330 -1.9564
37711SOL     OW16663   9.338   1.681   9.299 -0.4018 -0.3869 -0.2606
37711SOL    HW116664   9.324   1.685   9.204 -0.0136  0.5154 -0.2939
37711SOL    HW216665   9.371   1.593   9.314  1.8117  0.1780 -1.3259
37712SOL     OW16666   2.269   2.530   1.590 -0.8188  0.1616  0.2494
37712SOL    HW116667   2.200   2.596   1.595 -0.7381  0.3245 -0.5536
37712SOL    HW216668   2.322   2.558   1.515 -0.1204 -0.1851  0.6072
37713SOL     OW16669   2.378   2.423   3.600 -0.5599 -0.0370  0.0614
37713SOL    HW116670   2.334   2.338   3.593 -1.6905  0.6102 -1.4863
37713SOL    HW216671   2.471   2.402   3.604 -0.8290 -1.3612 -0.1608
37714SOL     OW16672   1.443   1.718  10.205  0.8201 -0.5935 -0.1374
37714SOL    HW116673   1.480   1.631  10.218 -1.0772 -1.2804  1.0469
37714SOL    HW216674   1.461   1.765  10.286 -2.1851 -1.5048  1.2054
37715SOL     OW16675   0.323   8.469   9.729  0.2268  0.1666  0.3668
37715SOL    HW116676   0.330   8.543   9.668 -0.5662  0.5407  0.7155
37715SOL    HW216677   0.368   8.397   9.685 -0.8600  0.2453 -0.9461
37716SOL     OW16678   7.574   8.888   0.895  0.0407  0.2813 -0.1607
37716SOL    HW116679   7.642   8.868   0.830 -0.3133 -0.5863 -0.2886
37716SOL    HW216680   7.615   8.868   0.979 -0.6877 -2.4186 -0.3363
37717SOL     OW16681  10.765   1.746   7.454 -0.2120 -0.0703 -0.3438
37717SOL    HW116682  10.802   1.659   7.471 -1.5437 -1.0011 -1.9064
37717SOL    HW216683  10.808   1.775   7.374 -0.8136  0.0605 -0.6253
37718SOL     OW16684   2.268   4.131   8.241 -0.4814 -0.5362  0.1140
37718SOL    HW116685   2.264   4.226   8.239 -0.9184 -0.5529 -1.6963
37718SOL    HW216686   2.178   4.103   8.258 -0.4404 -0.6351  0.1726
37719SOL     OW16687   4.670   1.398  10.173  0.1025  0.1090 -0.0857
37719SOL    HW116688   4.764   1.417  10.164  0.5629 -2.4487 -1.4737
37719SOL    HW216689   4.666   1.306  10.198 -2.0560  0.0496 -0.4467
37720SOL     OW16690   5.147   0.905   8.426  0.3268  0.0775 -1.0089
37720SOL    HW116691   5.091   0.980   8.444  0.7943  0.3166 -0.5063
37720SOL    HW216692   5.226   0.943   8.389 -0.0303 -0.2970 -2.1944
37721SOL     OW16693   4.689   5.653  10.214  0.6962  0.6061  0.3484
37721SOL    HW116694   4.595   5.639  10.222  0.9469 -1.6948 -0.0134
37721SOL    HW216695   4.701   5.692  10.128  0.1112  0.6185  0.2695
37722SOL     OW16696   6.277   9.679   8.665  0.4373 -0.1788 -0.0759
37722SOL    HW116697   6.193   9.701   8.626  0.5880  1.0735  0.2340
37722SOL    HW216698   6.291   9.587   8.645 -0.1292  0.0725 -1.7510
37723SOL     OW16699   7.384   1.226   9.441  0.4234 -0.4059  0.0999
37723SOL    HW116700   7.376   1.264   9.354 -0.0236  0.2780  0.4258
37723SOL    HW216701   7.304   1.253   9.486  0.4825 -1.0623  0.6037
37724SOL     OW16702   4.929   7.370   7.667  0.3600 -0.1341 -0.0447
37724SOL    HW116703   4.998   7.436   7.666 -0.1819  0.4870  1.4372
37724SOL    HW216704   4.881   7.386   7.586  0.1991  1.3667  0.3067
37725SOL     OW16705   6.051   6.247  10.355  0.3897 -0.1575  0.8726
37725SOL    HW116706   6.067   6.156  10.378 -2.3266 -0.9068  0.0965
37725SOL    HW216707   6.085   6.296  10.431  1.2814 -1.8132  1.6071
37726SOL     OW16708   5.234   6.063   5.229 -0.1865 -0.3969 -0.0337
37726SOL    HW116709   5.238   6.096   5.319  0.5678 -3.3623  1.1443
37726SOL    HW216710   5.149   6.021   5.222  0.0152 -0.7388 -0.5025
37727SOL     OW16711  10.051   3.977   4.271  0.0973 -0.5198  0.3027
37727SOL    HW116712  10.097   4.042   4.323 -0.5718  0.2795 -0.0815
37727SOL    HW216713  10.057   4.009   4.181 -1.9347  0.0877  0.3279
37728SOL     OW16714   1.059   6.962   1.416  0.1572 -0.0983  0.1235
37728SOL    HW116715   1.135   6.973   1.473  0.4246  1.4389 -0.4653
37728SOL    HW216716   0.996   7.028   1.446 -0.3741 -0.4046 -0.2935
37729SOL     OW16717  10.440   0.770   2.845 -0.3412  0.7395 -0.0371
37729SOL    HW116718  10.412   0.716   2.919 -0.5865  2.2813  1.0457
37729SOL    HW216719  10.449   0.858   2.882 -0.2731  1.5155 -1.8114
37730SOL     OW16720   7.592   5.369   1.054  0.2597 -0.3237 -0.2549
37730SOL    HW116721   7.602   5.310   1.128  1.2386 -0.2995 -0.3569
37730SOL    HW216722   7.504   5.350   1.020  0.9924 -2.6005 -1.0429
37731SOL     OW16723   6.898   9.657   0.415  0.1672  0.7291 -0.0618
37731SOL    HW116724   6.981   9.611   0.432  0.0685  0.8406  0.7771
37731SOL    HW216725   6.838   9.588   0.387  0.1277  0.3852  0.8213
37732SOL     OW16726   1.930   9.151   5.709  0.1338 -0.4194  0.1630
37732SOL    HW116727   1.911   9.087   5.777  2.0542  0.6622  1.8108
37732SOL    HW216728   2.025   9.146   5.696 -0.0672  0.0040 -1.8677
37733SOL     OW16729   7.414   3.887   8.159  0.4108 -0.0565  0.0996
37733SOL    HW116730   7.434   3.821   8.224  1.0375  2.5144  2.7266
37733SOL    HW216731   7.335   3.931   8.192 -0.7018 -0.1802 -2.1802
37734SOL     OW16732   0.890   5.685   8.018 -0.0652  0.1404  0.3464
37734SOL    HW116733   0.827   5.663   8.087  0.1585 -0.4748  0.3592
37734SOL    HW216734   0.854   5.764   7.978 -0.7614 -0.1071  0.4661
37735SOL     OW16735   4.829   1.020   8.296  0.1727  0.0436 -0.5199
37735SOL    HW116736   4.889   1.033   8.369  1.0233  1.1816 -1.3916
37735SOL    HW216737   4.859   0.939   8.254  1.9952  1.2793 -1.7372
37736SOL     OW16738   2.072   7.777   6.927 -0.3735  0.2397 -0.2894
37736SOL    HW116739   2.071   7.694   6.879  3.0591  0.3495 -0.7826
37736SOL    HW216740   2.041   7.754   7.015  0.3235 -1.5741 -0.4762
37737SOL     OW16741   6.899  10.382  10.461  0.0908  0.3965 -0.7834
37737SOL    HW116742   6.926  10.455  10.406  0.8635  0.8406  0.1468
37737SOL    HW216743   6.862  10.423  10.539  1.2161 -0.1681  0.0853
37738SOL     OW16744   8.242   8.045   2.205 -0.3198 -0.1647  0.2272
37738SOL    HW116745   8.172   8.087   2.155  1.9464  1.2503 -2.0189
37738SOL    HW216746   8.303   8.116   2.226  2.7381 -1.8444 -2.0436
37739SOL     OW16747   9.479   9.365   3.759 -0.3290 -0.2510  0.8071
37739SOL    HW116748   9.428   9.355   3.679  0.3603 -2.9327  0.6270
37739SOL    HW216749   9.417   9.404   3.821 -1.0805  1.2147 -0.7604
37740SOL     OW16750   8.201   4.920   4.950  0.2830  0.4426 -0.5627
37740SOL    HW116751   8.284   4.871   4.946  0.3856  0.3077  1.8621
37740SOL    HW216752   8.224   5.009   4.925  0.8786  0.1103 -1.2314
37741SOL     OW16753   2.990   9.533   7.807 -0.2302 -0.3034  0.0136
37741SOL    HW116754   3.061   9.593   7.781  0.5983 -1.3066 -0.0995
37741SOL    HW216755   2.918   9.591   7.831 -0.8901  0.8220 -3.8663
37742SOL     OW16756   7.690   3.260   5.736 -0.1569 -0.6676 -0.1781
37742SOL    HW116757   7.598   3.287   5.729 -0.5208 -1.8521 -0.1585
37742SOL    HW216758   7.696   3.183   5.679  1.4042  0.7755 -2.1049
37743SOL     OW16759   9.966   0.151   8.892 -0.1517  0.2673  0.2996
37743SOL    HW116760   9.890   0.161   8.950  0.1731 -0.2187  0.8195
37743SOL    HW216761   9.938   0.084   8.828  0.2848 -0.8784  1.2774
37744SOL     OW16762   8.947   5.657   1.358  0.1898  1.2966 -0.2996
37744SOL    HW116763   9.013   5.640   1.425  1.7943  1.3828 -1.7742
37744SOL    HW216764   8.864   5.664   1.406  1.0088 -0.3013  1.4595
37745SOL     OW16765   9.905   4.755   7.625 -0.0067  0.3960  0.1076
37745SOL    HW116766   9.931   4.788   7.711  2.3389 -0.8355 -0.0582
37745SOL    HW216767   9.930   4.825   7.564 -0.0596  0.5456  0.2568
37746SOL     OW16768   6.174   2.386   7.239 -0.3350 -0.2996  0.3582
37746SOL    HW116769   6.092   2.417   7.276  0.9940  2.5167  1.2988
37746SOL    HW216770   6.226   2.360   7.314 -0.0910 -1.3310 -0.1596
37747SOL     OW16771   2.005   1.288   9.151  0.1053 -0.0180 -0.3170
37747SOL    HW116772   2.022   1.374   9.190  0.5878  0.0476 -0.6545
37747SOL    HW216773   2.089   1.243   9.156  0.4556  0.3367 -2.0910
37748SOL     OW16774  10.850   6.187   2.109 -0.0613 -0.3781 -1.1797
37748SOL    HW116775  10.886   6.202   2.022  0.5332  2.5931 -0.5450
37748SOL    HW216776  10.916   6.225   2.168 -0.1923 -2.7967  0.6394
37749SOL     OW16777   6.499   9.889   8.658  0.3817  0.4999  0.0257
37749SOL    HW116778   6.507   9.888   8.754  2.8820  0.0936 -0.1142
37749SOL    HW216779   6.435   9.820   8.639  1.6646 -1.1341  1.3347
37750SOL     OW16780  10.190   5.530   8.754  0.3084  0.3125  0.1455
37750SOL    HW116781  10.207   5.555   8.845  0.6611 -0.2462  0.2377
37750SOL    HW216782  10.187   5.434   8.756  0.4162  0.2936 -0.4513
37751SOL     OW16783   5.715   9.954   1.115 -0.1846  0.3273 -0.5088
37751SOL    HW116784   5.741   9.894   1.045  0.7540  1.6636 -1.3554
37751SOL    HW216785   5.620   9.958   1.108 -0.1567 -0.0795 -1.2715
37752SOL     OW16786   1.397   9.544   8.893 -0.2147  0.1783 -0.3816
37752SOL    HW116787   1.397   9.519   8.986 -0.7819  0.3441 -0.3294
37752SOL    HW216788   1.395   9.461   8.846  3.3733 -0.0640 -0.3498
37753SOL     OW16789   9.022   1.133  10.462 -0.5599  0.5703  0.7128
37753SOL    HW116790   9.045   1.109  10.372 -0.4397  0.5418  0.7509
37753SOL    HW216791   9.054   1.223  10.471 -1.4618  0.9281  0.4103
37754SOL     OW16792   8.744   1.559   3.349  0.2493 -0.2230  0.4145
37754SOL    HW116793   8.649   1.564   3.334  0.6693  0.8015 -2.5277
37754SOL    HW216794   8.772   1.650   3.357  0.9506 -0.5381  1.8519
37755SOL     OW16795   6.212   2.517   0.300  0.5415  0.7142  0.3953
37755SOL    HW116796   6.132   2.504   0.248  0.6132 -0.0421  0.4702
37755SOL    HW216797   6.283   2.491   0.241  0.4878 -3.1002  1.7320
37756SOL     OW16798   0.121   8.808   1.313 -0.1277  0.3222  0.0111
37756SOL    HW116799   0.099   8.894   1.276  0.5036  0.1658 -0.7518
37756SOL    HW216800   0.173   8.765   1.245 -1.4160 -1.1335 -0.1352
37757SOL     OW16801   7.238   8.224   0.844  0.1318  0.2756 -0.9701
37757SOL    HW116802   7.231   8.314   0.879 -2.4130 -0.0131 -0.5125
37757SOL    HW216803   7.147   8.194   0.838  0.8761 -1.9778 -1.9667
37758SOL     OW16804   3.897   4.594   2.661  0.2263 -0.3240  0.1713
37758SOL    HW116805   3.973   4.537   2.672  0.8104  0.2152 -0.8960
37758SOL    HW216806   3.860   4.570   2.576 -2.4293 -2.4044  1.7677
37759SOL     OW16807   6.798   3.225   4.250 -0.0194 -0.2197  0.5655
37759SOL    HW116808   6.843   3.274   4.181  1.1462  0.8127  1.9715
37759SOL    HW216809   6.720   3.277   4.269  0.5896  0.4900  1.2197
37760SOL     OW16810   5.746   3.256   6.177 -0.7486  0.3526  0.1231
37760SOL    HW116811   5.767   3.336   6.130 -0.1389 -0.3338 -0.8212
37760SOL    HW216812   5.831   3.214   6.193 -1.0201  0.0958  0.9849
37761SOL     OW16813   1.827   5.121   4.674 -0.2078  0.1979  0.1385
37761SOL    HW116814   1.790   5.054   4.617  0.0213 -1.0438  1.4242
37761SOL    HW216815   1.751   5.161   4.716 -0.2374 -0.7974  1.0573
37762SOL     OW16816  10.110   1.692  10.221 -0.1711  0.2119  0.9377
37762SOL    HW116817  10.037   1.656  10.272 -1.2716  1.0180 -0.0165
37762SOL    HW216818  10.131   1.775  10.264 -0.5727  0.5158  0.5513
37763SOL     OW16819   3.390   9.191   7.281 -0.2563 -0.2090  0.9044
37763SOL    HW116820   3.440   9.266   7.249  2.8837 -2.6827 -0.5751
37763SOL    HW216821   3.432   9.168   7.364  0.8601 -1.9891 -0.0872
37764SOL     OW16822   2.222   4.939   2.466  0.4900 -0.4423 -0.0856
37764SOL    HW116823   2.301   4.973   2.424 -0.2044  0.9761 -0.3022
37764SOL    HW216824   2.183   5.015   2.508 -1.4228 -0.8423 -1.0538
37765SOL     OW16825   4.917  10.512   8.217 -0.2530 -0.0032  0.0323
37765SOL    HW116826   4.998  10.563   8.211  0.0254 -0.5401 -1.1596
37765SOL    HW216827   4.857  10.556   8.156 -0.7397  0.1654  0.6197
37766SOL     OW16828   3.054   8.255   7.458 -0.3791 -0.2072 -0.2469
37766SOL    HW116829   2.972   8.208   7.445 -1.1693  0.8448  0.7383
37766SOL    HW216830   3.119   8.186   7.474 -1.2327 -1.0063 -0.1431
37767SOL     OW16831   4.805   1.103   1.590  0.0780 -0.3159 -0.1987
37767SOL    HW116832   4.713   1.116   1.567 -0.0258 -2.3016 -1.1352
37767SOL    HW216833   4.854   1.136   1.514  0.0355 -1.0044 -0.5313
37768SOL     OW16834   1.586  10.706   2.190 -0.8169 -0.0610 -0.7298
37768SOL    HW116835   1.514  10.762   2.218 -1.1255 -1.2983  1.1255
37768SOL    HW216836   1.543  10.631   2.148 -0.4935  0.2209 -1.5776
37769SOL     OW16837   7.094  10.174   0.607 -0.3443 -0.3528  0.0459
37769SOL    HW116838   7.176  10.224   0.606  0.4448 -1.4811  2.4304
37769SOL    HW216839   7.098  10.121   0.527  0.1395  1.1926 -1.0224
37770SOL     OW16840   8.959   3.847   2.683  0.0240 -0.2143 -0.7210
37770SOL    HW116841   8.933   3.927   2.728  1.6440  0.1185 -0.3313
37770SOL    HW216842   8.897   3.781   2.715 -0.8878  0.7202 -0.5186
37771SOL     OW16843   0.966   6.485   3.022 -0.0759 -0.0372  0.9759
37771SOL    HW116844   1.047   6.517   2.982  0.3970 -1.2577  0.9245
37771SOL    HW216845   0.898   6.544   2.989  0.7568  0.8913  0.8778
37772SOL     OW16846   3.442   9.684  10.559  0.1705 -0.2354 -0.1994
37772SOL    HW116847   3.464   9.596  10.526 -1.0050 -0.3736 -0.6701
37772SOL    HW216848   3.514   9.739  10.529  2.0348 -1.3875  1.9068
37773SOL     OW16849   6.886   2.164   3.035  0.1551  0.0755  0.0483
37773SOL    HW116850   6.950   2.181   3.105  1.9852  0.7625 -1.7140
37773SOL    HW216851   6.805   2.144   3.082  1.5582 -0.5404  2.3824
37774SOL     OW16852   4.617   9.747   3.379  0.1782  0.1676 -0.0565
37774SOL    HW116853   4.657   9.669   3.339 -0.4702  0.0156 -0.4134
37774SOL    HW216854   4.591   9.718   3.467 -0.8972 -0.2846 -0.5191
37775SOL     OW16855   2.643   2.539   4.424  0.1480  1.2002  0.5942
37775SOL    HW116856   2.703   2.524   4.498 -0.2819  0.5596  0.8226
37775SOL    HW216857   2.557   2.516   4.458  0.0596  0.0432 -0.3569
37776SOL     OW16858   6.245   0.760   9.197 -0.0489  0.4177  0.0221
37776SOL    HW116859   6.194   0.709   9.260  0.8113  1.8290  1.9751
37776SOL    HW216860   6.181   0.790   9.133 -1.1434 -0.2700  0.7543
37777SOL     OW16861  10.663   6.212   8.479  0.1203  0.3826  0.1801
37777SOL    HW116862  10.586   6.231   8.532  0.3369  1.0516  0.2756
37777SOL    HW216863  10.735   6.211   8.542  0.2106 -0.1198  0.0754
37778SOL     OW16864   1.283   2.780   2.663 -0.8699  0.1001  0.0453
37778SOL    HW116865   1.283   2.860   2.715  0.9597  0.0944  0.1189
37778SOL    HW216866   1.240   2.715   2.718 -0.5941  0.5466  0.8006
37779SOL     OW16867   8.348   6.635   0.321  0.1413  0.0470 -0.4446
37779SOL    HW116868   8.313   6.631   0.232 -0.1536  1.0434 -0.3796
37779SOL    HW216869   8.415   6.703   0.318  0.3273 -0.1082  0.0354
37780SOL     OW16870   0.932   6.867   6.394  0.1780  0.7932 -0.1272
37780SOL    HW116871   0.837   6.859   6.386 -0.1376  1.8658  1.8502
37780SOL    HW216872   0.945   6.957   6.424  1.8654  0.7592 -0.6859
37781SOL     OW16873   0.826   7.433   5.156 -0.4080  0.1673 -0.0037
37781SOL    HW116874   0.764   7.407   5.087 -0.1570 -1.0851  0.2375
37781SOL    HW216875   0.772   7.483   5.217 -0.5871  1.5387 -1.2053
37782SOL     OW16876  11.118   7.128   5.078  0.0925  0.1756 -0.3833
37782SOL    HW116877  11.074   7.043   5.076  0.6083 -0.0915 -0.4558
37782SOL    HW216878  11.063   7.183   5.134 -1.3833  0.4223 -1.9719
37783SOL     OW16879   8.890   8.186   6.336  0.4556  0.6918  1.0439
37783SOL    HW116880   8.841   8.108   6.311  2.0025 -0.2203  0.7170
37783SOL    HW216881   8.982   8.161   6.328  1.0235  1.8921  2.9459
37784SOL     OW16882   2.629   8.203   6.334  0.2237 -0.2875 -0.0515
37784SOL    HW116883   2.636   8.116   6.374  1.0351  0.2042  0.8985
37784SOL    HW216884   2.688   8.200   6.260  0.2830 -0.5289  0.0036
37785SOL     OW16885   9.000   3.646   1.804 -0.2394 -0.5684 -0.0779
37785SOL    HW116886   9.031   3.709   1.738  0.4215  2.1016  2.5649
37785SOL    HW216887   9.068   3.579   1.806  1.3617  0.9823  0.0138
37786SOL     OW16888   3.047   9.778   5.006 -0.0898  0.7782 -0.4108
37786SOL    HW116889   2.989   9.705   5.027 -0.8364  0.0713 -4.2146
37786SOL    HW216890   3.115   9.775   5.073 -3.0000  0.0903  2.7939
37787SOL     OW16891   0.571   2.137   6.632  0.2228  0.3514  0.2423
37787SOL    HW116892   0.520   2.088   6.697 -1.3588  1.4991 -0.0598
37787SOL    HW216893   0.590   2.073   6.563  0.9749 -0.6030  1.3047
37788SOL     OW16894  10.390  11.041   2.715 -0.3118 -0.3714  0.6435
37788SOL    HW116895  10.447  10.972   2.680 -2.0249 -1.6245  0.2356
37788SOL    HW216896  10.312  11.038   2.661 -1.2965  0.5095  1.9474
37789SOL     OW16897   9.055   4.692   8.321  0.4648 -0.1510 -0.4508
37789SOL    HW116898   9.107   4.768   8.346 -2.0560  1.7277 -0.5342
37789SOL    HW216899   8.982   4.728   8.270 -1.7160 -2.4135  0.8341
37790SOL     OW16900   3.090   8.451   1.314  0.3091 -0.0742 -0.1215
37790SOL    HW116901   3.062   8.530   1.268  1.4425  0.0776 -0.5973
37790SOL    HW216902   3.112   8.481   1.402  1.4110  0.2968 -0.5043
37791SOL     OW16903   9.398   9.888   0.491 -0.0823  0.2091  0.1258
37791SOL    HW116904   9.422   9.821   0.555  0.4928  0.2900 -0.0015
37791SOL    HW216905   9.365   9.839   0.416  0.1059  0.0737  0.1294
37792SOL     OW16906   5.911   6.133   3.726 -0.4973 -0.1771 -0.1768
37792SOL    HW116907   5.926   6.053   3.676  2.6677 -0.8535  1.6038
37792SOL    HW216908   5.846   6.108   3.791 -0.6641 -0.8401 -0.5837
37793SOL     OW16909   4.932   7.668   0.999 -0.3722 -0.1994  0.3620
37793SOL    HW116910   4.983   7.599   1.042  0.2497  0.0372  0.0126
37793SOL    HW216911   4.934   7.741   1.061 -0.8978 -0.4353  0.6629
37794SOL     OW16912   8.123   0.873   4.009 -0.0498  0.3808  0.5346
37794SOL    HW116913   8.170   0.924   3.943 -0.0501 -0.8115 -0.4033
37794SOL    HW216914   8.033   0.868   3.977 -0.1331  0.1014  0.8050
37795SOL     OW16915   3.265  10.589   4.204 -0.2794  0.4091  0.7263
37795SOL    HW116916   3.274  10.495   4.189 -0.5793  0.4284  0.3967
37795SOL    HW216917   3.173  10.608   4.183 -0.0373  0.8967  0.0722
37796SOL     OW16918   3.633  10.055   7.763 -0.3106 -0.2110 -0.1406
37796SOL    HW116919   3.655  10.011   7.681 -1.0487  0.6417 -0.8190
37796SOL    HW216920   3.550  10.014   7.790  0.6820 -1.5607  1.0127
37797SOL     OW16921   3.620   6.964   4.612  0.5369  0.0211  0.3257
37797SOL    HW116922   3.585   6.925   4.692  2.4451 -0.7833  0.8120
37797SOL    HW216923   3.704   6.921   4.599  0.6471  0.7405 -1.6744
37798SOL     OW16924   4.031   8.421   0.368  0.1995 -0.2443 -0.3947
37798SOL    HW116925   4.017   8.372   0.448 -0.2436 -2.5689 -1.8045
37798SOL    HW216926   3.948   8.465   0.351  1.1378  2.6998  1.8417
37799SOL     OW16927   2.923   4.594   3.829  0.0744  0.2626 -0.2318
37799SOL    HW116928   2.862   4.594   3.902 -1.9454 -1.7375 -1.7902
37799SOL    HW216929   2.945   4.501   3.817  2.2940  0.7936 -0.6680
37800SOL     OW16930  10.746   3.797   1.602  0.4030 -0.7049 -0.0104
37800SOL    HW116931  10.687   3.842   1.542  0.0605 -1.3376 -0.1632
37800SOL    HW216932  10.824   3.852   1.605 -0.7735  0.9700  1.4066
37801SOL     OW16933   9.276   8.736   0.020 -0.6590  0.5270  0.2451
37801SOL    HW116934   9.203   8.722   0.080 -0.8652  1.6950  0.2931
37801SOL    HW216935   9.235   8.769  -0.060 -0.3643 -0.8246 -0.4803
37802SOL     OW16936   5.463   1.166   6.678  0.4914 -0.0760  0.2728
37802SOL    HW116937   5.542   1.216   6.657  0.5795 -0.4953 -0.4128
37802SOL    HW216938   5.425   1.144   6.593 -0.3940  0.1608  0.5989
37803SOL     OW16939   6.411   8.888   8.446 -0.2791  0.2663  0.4849
37803SOL    HW116940   6.440   8.978   8.433 -0.8154  0.3106 -0.4625
37803SOL    HW216941   6.483   8.847   8.494 -0.0780  1.2240  1.0367
37804SOL     OW16942   3.100   1.559   6.012 -0.2666 -0.0643 -0.5519
37804SOL    HW116943   3.011   1.526   6.024  0.3603 -1.8005 -0.4805
37804SOL    HW216944   3.147   1.530   6.091  0.4220  0.6601 -0.6814
37805SOL     OW16945   3.188  11.059   9.801 -0.1360 -0.0319 -0.4559
37805SOL    HW116946   3.098  11.038   9.829 -0.9685  2.5962 -0.8365
37805SOL    HW216947   3.243  10.997   9.849 -1.9861 -0.1292  1.7298
37806SOL     OW16948   1.561   3.664   4.232  0.3796 -0.4943 -0.3785
37806SOL    HW116949   1.517   3.701   4.155 -0.3334  1.4102  0.8753
37806SOL    HW216950   1.652   3.695   4.224  0.7637 -1.7831 -1.3268
37807SOL     OW16951  10.138   4.897   7.553  0.5934  0.2682  0.2552
37807SOL    HW116952  10.060   4.952   7.553 -0.0180 -0.5718 -0.1017
37807SOL    HW216953  10.200   4.944   7.498  0.3776  0.9830  0.6015
37808SOL     OW16954  10.697  10.760   7.132 -0.0787 -0.5557 -0.1315
37808SOL    HW116955  10.609  10.737   7.162  0.0198 -1.4030 -0.4514
37808SOL    HW216956  10.742  10.676   7.123  0.9554 -0.1000  0.5697
37809SOL     OW16957   4.690   7.936   7.148 -0.4265  0.4758  0.3450
37809SOL    HW116958   4.681   7.917   7.242 -1.5074 -0.1341  0.1422
37809SOL    HW216959   4.724   7.855   7.111 -3.2330 -0.5622 -0.2469
37810SOL     OW16960   8.858   2.582   0.460 -1.1483 -0.0060 -0.0117
37810SOL    HW116961   8.897   2.506   0.503 -1.9796 -0.7738 -0.5846
37810SOL    HW216962   8.908   2.592   0.379 -0.7232  0.3640  0.2926
37811SOL     OW16963   8.045   9.564  10.644 -0.3614 -0.1691 -0.5185
37811SOL    HW116964   8.003   9.502  10.704  0.1962  0.5646  0.6619
37811SOL    HW216965   7.975   9.622  10.615 -0.5392 -0.2117 -0.1723
37812SOL     OW16966   7.011   5.603   1.336 -0.0365  0.0696  0.1074
37812SOL    HW116967   6.978   5.684   1.374  0.1352  1.3418 -2.2496
37812SOL    HW216968   7.106   5.608   1.347  0.0152  0.4475 -0.4602
37813SOL     OW16969   9.059   1.263   7.960  0.4218 -0.1663 -0.2871
37813SOL    HW116970   9.114   1.184   7.962 -1.4043 -1.5187 -0.4552
37813SOL    HW216971   9.119   1.333   7.934  2.0420 -1.5565 -0.5188
37814SOL     OW16972   6.555   4.091   4.356  0.3856  0.0358  0.0983
37814SOL    HW116973   6.479   4.097   4.299 -0.9605 -0.7237  1.7473
37814SOL    HW216974   6.547   4.166   4.415  1.0801  0.0895  0.1407
37815SOL     OW16975   4.324   2.261   3.842  0.0188  0.4340 -0.4322
37815SOL    HW116976   4.275   2.227   3.767  0.7904  1.9697 -1.6713
37815SOL    HW216977   4.313   2.356   3.837 -0.0927  0.5731  1.5574
37816SOL     OW16978   9.790   8.236   3.856  0.5306  0.3218 -0.2576
37816SOL    HW116979   9.711   8.236   3.801  2.1559 -0.9928 -2.7976
37816SOL    HW216980   9.785   8.153   3.904  0.2835  0.3095 -0.3016
37817SOL     OW16981   5.874   4.665   1.618 -0.1992 -0.0643  0.4658
37817SOL    HW116982   5.815   4.721   1.669 -0.4895  0.5039 -0.4565
37817SOL    HW216983   5.848   4.680   1.527 -1.2231 -2.7774  0.2193
37818SOL     OW16984   8.728   7.681  10.096  0.2667  0.3541  0.2836
37818SOL    HW116985   8.774   7.685  10.180  0.1950 -0.2778  0.3578
37818SOL    HW216986   8.733   7.589  10.070  0.7276  0.6304 -0.6542
37819SOL     OW16987   3.671   4.397   9.536 -0.0262 -0.3544  0.3891
37819SOL    HW116988   3.662   4.458   9.463 -0.2160 -1.6572 -0.7181
37819SOL    HW216989   3.738   4.436   9.592  1.2488 -0.0629 -1.2795
37820SOL     OW16990   3.291   8.408   7.741  0.3416 -0.4866 -0.2681
37820SOL    HW116991   3.348   8.423   7.666  1.4254 -3.4270 -0.1452
37820SOL    HW216992   3.347   8.368   7.807 -1.0444  0.1158  1.3506
37821SOL     OW16993   3.069   4.965   0.851  0.5436  0.0980 -0.3047
37821SOL    HW116994   3.080   4.882   0.897 -0.9213 -0.1317 -0.3341
37821SOL    HW216995   3.085   4.944   0.759  0.2541 -0.1343 -0.3025
37822SOL     OW16996   9.797   3.562   0.339 -0.4598  0.3680 -0.1356
37822SOL    HW116997   9.797   3.472   0.307  0.0026  0.1481  0.4631
37822SOL    HW216998   9.876   3.569   0.392 -0.4326  1.1656 -0.2733
37823SOL     OW16999   4.968   9.087   4.058 -0.4641  0.0400 -0.2827
37823SOL    HW117000   5.010   9.173   4.051  0.1431 -0.3612 -1.9917
37823SOL    HW217001   4.969   9.068   4.152  0.1332  1.5353  0.0461
37824SOL     OW17002   4.540   8.845   5.621  0.3721 -0.5796  0.4801
37824SOL    HW117003   4.494   8.770   5.658 -0.1035  0.2176  1.5846
37824SOL    HW217004   4.607   8.866   5.687 -0.1098  0.5201  0.6367
37825SOL     OW17005   2.779   7.834   4.880 -0.5846  0.5954  0.3851
37825SOL    HW117006   2.740   7.814   4.965 -2.1007 -0.7227 -0.5686
37825SOL    HW217007   2.849   7.769   4.869  0.7415  1.8100  1.2987
37826SOL     OW17008   1.350   3.771   9.171 -0.3164 -0.6206 -0.6097
37826SOL    HW117009   1.372   3.705   9.237 -0.4700 -2.4784 -2.2927
37826SOL    HW217010   1.406   3.846   9.192  0.1673 -1.4220  1.1509
37827SOL     OW17011   8.899   2.049  10.926  0.1374  0.3964  0.4385
37827SOL    HW117012   8.893   2.024  11.019 -0.3919 -1.0286  0.0514
37827SOL    HW217013   8.908   1.966  10.880 -0.0851  1.0583 -0.8272
37828SOL     OW17014   0.396   9.037   1.751 -0.3685 -0.0722 -0.3572
37828SOL    HW117015   0.460   9.056   1.820 -1.5118  1.4497  0.3574
37828SOL    HW217016   0.445   9.047   1.670  0.4084  0.6958  0.1823
37829SOL     OW17017   2.647  10.661   7.797  0.4366  0.0002  0.4172
37829SOL    HW117018   2.667  10.571   7.824 -0.4954  0.5323  3.3097
37829SOL    HW217019   2.552  10.662   7.786  0.6189  0.2582 -1.3988
37830SOL     OW17020   3.852  11.092   1.849  0.3180 -0.2994 -0.0411
37830SOL    HW117021   3.941  11.079   1.883  0.6839  1.3391 -0.2995
37830SOL    HW217022   3.847  11.034   1.773 -0.0535 -3.0051  1.8678
37831SOL     OW17023   5.269   9.331   8.700  0.2310  0.3503  0.0841
37831SOL    HW117024   5.235   9.420   8.690 -2.8803 -0.6056  1.1519
37831SOL    HW217025   5.282   9.320   8.794  0.2459 -0.4376 -0.0031
37832SOL     OW17026  10.396   9.912   3.759 -0.0759  0.0079 -0.4117
37832SOL    HW117027  10.329   9.968   3.799 -0.3256 -1.2058  0.9924
37832SOL    HW217028  10.346   9.840   3.719  0.2796  0.3054 -1.4080
37833SOL     OW17029   4.121  10.101   7.750  0.0006 -0.0823  0.2947
37833SOL    HW117030   4.051  10.080   7.812 -0.0176 -3.0147 -0.5862
37833SOL    HW217031   4.079  10.097   7.664  0.8189  0.1913 -0.1255
37834SOL     OW17032   6.936   5.798   0.532  0.0877  0.3229 -1.0272
37834SOL    HW117033   7.006   5.737   0.509 -0.0327 -0.3091  0.2066
37834SOL    HW217034   6.944   5.869   0.468  0.0588 -1.0833 -2.6732
37835SOL     OW17035   9.890   0.528   3.918 -0.0413 -0.8069  0.0578
37835SOL    HW117036   9.866   0.574   3.999  0.8170  2.4190 -1.3589
37835SOL    HW217037   9.810   0.483   3.892 -0.9736 -0.1225  1.5656
37836SOL     OW17038   7.587   5.611   3.451  0.7223 -0.0841  0.0113
37836SOL    HW117039   7.561   5.597   3.543  1.4002 -1.1068  0.0624
37836SOL    HW217040   7.621   5.526   3.423 -1.0309 -0.3001 -1.7198
37837SOL     OW17041   7.260   7.548   4.407  0.0047 -0.3461 -0.1123
37837SOL    HW117042   7.260   7.643   4.416  1.5247  0.0139 -2.9042
37837SOL    HW217043   7.329   7.530   4.344  0.2769 -3.4097  0.8995
37838SOL     OW17044   6.956  10.265   2.354 -0.0443 -0.2496  0.1383
37838SOL    HW117045   6.946  10.325   2.280 -1.4411 -1.0175 -0.3321
37838SOL    HW217046   6.977  10.181   2.313 -2.0321 -0.9721  0.4797
37839SOL     OW17047  10.904   7.725   1.824  0.2759 -0.3108 -0.3840
37839SOL    HW117048  10.940   7.638   1.840 -0.6806 -0.5456  0.7038
37839SOL    HW217049  10.869   7.752   1.909  0.0126  0.8801 -0.8500
37840SOL     OW17050  10.204   4.710   2.706 -0.2460  0.0928  0.1682
37840SOL    HW117051  10.193   4.802   2.730 -0.8463 -0.2793  1.4407
37840SOL    HW217052  10.292   4.704   2.671 -0.2091  1.1576  0.0601
37841SOL     OW17053   1.705   4.308   4.120 -0.5906  0.4371 -0.6769
37841SOL    HW117054   1.627   4.363   4.126 -0.0785  1.1941 -0.7664
37841SOL    HW217055   1.677   4.231   4.070 -1.5781  0.1273  0.3098
37842SOL     OW17056   1.124   3.198   4.192 -0.1018 -0.3442 -0.1194
37842SOL    HW117057   1.181   3.247   4.251  1.2859 -1.3515 -0.5466
37842SOL    HW217058   1.139   3.237   4.106  0.4937 -1.0360 -0.3459
37843SOL     OW17059   9.670   4.061   9.164  0.4246  0.3832  0.0309
37843SOL    HW117060   9.618   4.043   9.243 -1.0762  1.1774 -0.7305
37843SOL    HW217061   9.734   3.991   9.161 -1.0780 -1.0844  0.6355
37844SOL     OW17062   1.726   9.025   4.824 -0.3023 -0.1477  0.0722
37844SOL    HW117063   1.712   8.934   4.798 -1.1684  0.2601 -0.9952
37844SOL    HW217064   1.648   9.046   4.876 -0.3187  0.1068 -0.0554
37845SOL     OW17065   5.706  10.250   8.514  0.1256  0.3105 -0.0922
37845SOL    HW117066   5.721  10.329   8.565  2.1610  0.2774 -0.5679
37845SOL    HW217067   5.733  10.178   8.571  1.3847  0.2080 -0.7718
37846SOL     OW17068   4.701   1.418   4.279 -0.3205 -0.4652  0.6116
37846SOL    HW117069   4.763   1.346   4.266  1.3402  1.0168 -0.0314
37846SOL    HW217070   4.748   1.496   4.249 -2.2168  0.8446  0.8817
37847SOL     OW17071   7.625   4.568  10.585  0.6381  0.6949 -0.0647
37847SOL    HW117072   7.574   4.616  10.520  1.6080  0.2254 -1.2341
37847SOL    HW217073   7.715   4.572  10.552  0.8045 -1.6507 -0.0885
37848SOL     OW17074   4.175   9.219   4.970 -0.6896  0.4571 -0.1337
37848SOL    HW117075   4.244   9.284   4.985 -0.5179  0.3732 -0.5546
37848SOL    HW217076   4.209   9.139   5.010 -1.8865  1.1524  2.5099
37849SOL     OW17077   1.885   4.989   9.259  0.4337 -0.0481 -0.2766
37849SOL    HW117078   1.826   5.061   9.238 -0.4225  0.3858  3.0365
37849SOL    HW217079   1.970   5.016   9.226 -0.3695  1.2965 -1.3282
37850SOL     OW17080   3.909   2.227   5.856 -0.2514  0.5977  0.6635
37850SOL    HW117081   3.966   2.291   5.898 -0.7062  1.6723 -0.2985
37850SOL    HW217082   3.968   2.154   5.833  1.0328  2.1432 -1.3059
37851SOL     OW17083   1.027   0.679   8.152  0.3289  0.2323  0.0559
37851SOL    HW117084   1.029   0.637   8.066  0.4067  0.4163 -0.0326
37851SOL    HW217085   0.936   0.708   8.162  0.0198 -0.8474  0.5532
37852SOL     OW17086   4.003  10.771   3.312 -0.5238 -0.4004 -0.2999
37852SOL    HW117087   3.926  10.716   3.307  0.2043 -1.3625 -1.6732
37852SOL    HW217088   3.987  10.841   3.249 -0.3111 -0.5513 -0.5224
37853SOL     OW17089   3.045   1.906   2.538 -0.3944 -0.1970  0.2902
37853SOL    HW117090   3.017   1.912   2.447 -1.8636  2.3059  0.8050
37853SOL    HW217091   3.118   1.844   2.538 -0.7557 -0.7056 -2.4645
37854SOL     OW17092   1.864   1.452   2.639  0.5667  0.1929 -0.1762
37854SOL    HW117093   1.836   1.368   2.604  1.2952  0.2035 -0.7952
37854SOL    HW217094   1.783   1.493   2.670  0.3906 -1.3967  1.6272
37855SOL     OW17095   3.417   7.734   5.123 -0.2851 -0.2388 -1.0043
37855SOL    HW117096   3.395   7.660   5.181  1.8985 -0.3360 -0.2106
37855SOL    HW217097   3.365   7.807   5.158  0.4728 -0.4602  0.7267
37856SOL     OW17098   0.744   2.677   2.358 -0.8574  0.2407  0.3729
37856SOL    HW117099   0.691   2.679   2.278  1.3853  1.0648 -1.2034
37856SOL    HW217100   0.723   2.759   2.403 -1.4721  0.2019  0.1631
37857SOL     OW17101   3.996   8.701   2.352 -0.3178  0.1934  0.3188
37857SOL    HW117102   4.038   8.759   2.414  2.4751 -0.4304 -0.8232
37857SOL    HW217103   3.940   8.758   2.299 -0.1828  1.2627  1.3100
37858SOL     OW17104   4.828   2.431   4.167 -0.5915 -0.2528  0.2453
37858SOL    HW117105   4.902   2.469   4.215 -0.8410  0.1311  0.3324
37858SOL    HW217106   4.752   2.481   4.198 -1.0045 -1.1791  0.7668
37859SOL     OW17107   9.330   1.479   1.860 -0.2296 -0.6997 -0.4081
37859SOL    HW117108   9.238   1.480   1.832 -0.5676 -2.9045  0.4197
37859SOL    HW217109   9.335   1.548   1.926 -1.3615 -0.7012 -0.2912
37860SOL     OW17110   3.994   0.881   0.034  0.1605  0.4212 -0.2017
37860SOL    HW117111   3.964   0.825  -0.038  0.7272  1.4156 -1.2321
37860SOL    HW217112   3.973   0.831   0.113 -0.6462 -0.6121 -1.0403
37861SOL     OW17113   4.925   1.687   0.354  0.1208  0.3284  0.0741
37861SOL    HW117114   4.867   1.617   0.384  0.1514 -0.1809 -1.0229
37861SOL    HW217115   4.898   1.704   0.264  1.6670  0.0928 -0.4602
37862SOL     OW17116   6.737   1.806   9.346  0.1509  0.0235 -0.0071
37862SOL    HW117117   6.764   1.749   9.417  0.7880  0.0605 -0.2095
37862SOL    HW217118   6.646   1.828   9.365  0.3705  0.1838  0.8927
37863SOL     OW17119  10.719   1.011  10.260  0.9851 -0.1374  0.2530
37863SOL    HW117120  10.643   0.986  10.312  0.9938 -0.3882  0.1464
37863SOL    HW217121  10.712   1.106  10.251  0.7710 -0.1417  0.3760
37864SOL     OW17122   2.871   1.812   1.348 -0.1925  0.1029  0.2643
37864SOL    HW117123   2.811   1.791   1.276 -0.7610  0.5873  0.5825
37864SOL    HW217124   2.928   1.735   1.355 -0.0824  0.0680 -0.7370
37865SOL     OW17125   7.186   8.783  10.314  0.2891 -0.1501 -0.4103
37865SOL    HW117126   7.235   8.786  10.396 -0.4004  0.6243 -0.0202
37865SOL    HW217127   7.132   8.704  10.322  0.7359 -0.4655 -0.4310
37866SOL     OW17128   2.548   4.432   3.860  0.4573 -0.0931 -0.6197
37866SOL    HW117129   2.619   4.368   3.859 -1.2635 -2.1106  0.2337
37866SOL    HW217130   2.490   4.405   3.789 -1.0921 -0.4546  0.7496
37867SOL     OW17131   6.207   7.405   5.056 -0.0810 -0.1460  0.0633
37867SOL    HW117132   6.199   7.421   5.150 -0.2815  0.0211  0.0204
37867SOL    HW217133   6.232   7.490   5.020  3.4676 -0.9207  0.3454
37868SOL     OW17134   2.891   3.037   6.082 -0.1264 -0.0856 -0.3235
37868SOL    HW117135   2.882   2.955   6.131  1.3412 -0.6796 -0.9945
37868SOL    HW217136   2.834   3.025   6.005 -0.1260 -0.3627 -0.2828
37869SOL     OW17137   5.069   1.257   5.376  0.0705  0.2710  0.0684
37869SOL    HW117138   5.010   1.193   5.416 -2.6559  1.7818 -1.2349
37869SOL    HW217139   5.087   1.320   5.446 -0.1520 -0.0329  0.4004
37870SOL     OW17140   7.423   8.816   6.777  0.2799  0.6027 -0.3012
37870SOL    HW117141   7.379   8.732   6.792 -0.3451  0.9964  0.0713
37870SOL    HW217142   7.373   8.879   6.828  0.3871  1.3156 -1.0560
37871SOL     OW17143   7.914   2.088   7.875  0.2983 -0.8531  0.1326
37871SOL    HW117144   7.887   2.039   7.797 -0.5049  0.7455 -0.6422
37871SOL    HW217145   7.972   2.156   7.842 -0.1205 -0.1008  0.9156
37872SOL     OW17146   0.440  10.864   8.390 -0.0900 -0.1461 -0.1969
37872SOL    HW117147   0.497  10.939   8.407  0.0885 -0.0185 -1.3018
37872SOL    HW217148   0.499  10.791   8.376 -0.0469  0.2793 -2.8592
37873SOL     OW17149   5.800   1.810  10.302 -0.7683  0.2896  0.2084
37873SOL    HW117150   5.810   1.722  10.339 -1.4633  0.0732 -0.0964
37873SOL    HW217151   5.844   1.806  10.217 -1.7240 -0.0882 -0.2806
37874SOL     OW17152   0.236   3.228  10.163  0.0473  0.1696  0.3064
37874SOL    HW117153   0.284   3.213  10.081  0.5823  1.4013  0.3796
37874SOL    HW217154   0.230   3.323  10.171  1.4206  0.1451  2.4882
37875SOL     OW17155   9.367   2.880   4.033 -0.3795  0.5072 -0.2555
37875SOL    HW117156   9.399   2.825   3.961  0.2244  1.5774 -0.8321
37875SOL    HW217157   9.359   2.967   3.994  0.8882  1.3262  1.2289
37876SOL     OW17158   8.761   3.381   2.496  0.0493 -0.1814 -0.4588
37876SOL    HW117159   8.750   3.354   2.405 -0.4898  1.5572 -0.9435
37876SOL    HW217160   8.742   3.475   2.496  1.8090  0.2284  1.1399
37877SOL     OW17161  10.418   6.925   9.447 -0.3064 -0.2896 -0.1229
37877SOL    HW117162  10.389   7.011   9.416 -0.1295 -0.0556  0.3556
37877SOL    HW217163  10.505   6.940   9.484  1.0570 -1.1960 -2.6519
37878SOL     OW17164   7.182   9.574   4.793  0.2209 -0.1143  0.0310
37878SOL    HW117165   7.180   9.643   4.858  0.2581 -0.6025  0.5571
37878SOL    HW217166   7.275   9.561   4.775  0.2635 -0.6504  0.6111
37879SOL     OW17167   0.001   7.870   2.126 -0.5600  0.5966  0.0239
37879SOL    HW117168  -0.017   7.933   2.196 -2.5233  1.2689 -0.9918
37879SOL    HW217169  -0.023   7.916   2.045 -0.0460 -0.7445 -0.9397
37880SOL     OW17170   5.106   5.019   6.943  0.1582  0.3537  0.2119
37880SOL    HW117171   5.126   4.926   6.935 -0.7874  0.0972  0.6080
37880SOL    HW217172   5.191   5.061   6.955  0.6141 -0.4347 -0.1464
37881SOL     OW17173   4.797   7.354   0.708  0.5045 -0.1860 -0.1177
37881SOL    HW117174   4.798   7.259   0.708  1.4462 -0.1869 -0.0204
37881SOL    HW217175   4.877   7.379   0.754 -0.6957  0.6647  1.5954
37882SOL     OW17176   1.307   1.429   8.858 -0.5262  0.1369  1.0031
37882SOL    HW117177   1.285   1.409   8.948 -0.8044  0.4409  1.0051
37882SOL    HW217178   1.356   1.353   8.827 -2.0558 -0.7926  0.8275
37883SOL     OW17179   3.169   1.430   3.121 -0.1267 -0.2546 -0.0699
37883SOL    HW117180   3.188   1.397   3.209 -2.2495 -0.5802  0.3422
37883SOL    HW217181   3.074   1.445   3.122  0.2454  2.7797 -1.3145
37884SOL     OW17182   7.474   4.423   6.594  0.0707 -0.2921  0.6674
37884SOL    HW117183   7.408   4.386   6.535 -0.8387 -2.3554  2.8085
37884SOL    HW217184   7.496   4.351   6.654  0.8432  1.6741  2.9193
37885SOL     OW17185   0.196   7.240   7.427  0.1388  0.5067 -0.1007
37885SOL    HW117186   0.129   7.172   7.426  0.5365  0.0598  1.0970
37885SOL    HW217187   0.149   7.321   7.448 -0.2639  0.5371 -1.0592
37886SOL     OW17188   7.110   1.599   5.606  0.6255  0.0925 -0.1421
37886SOL    HW117189   7.046   1.643   5.662  1.0996  0.0200  0.4793
37886SOL    HW217190   7.072   1.601   5.519 -0.1744  0.1297  0.2012
37887SOL     OW17191  10.327   2.831   8.647 -1.0271 -0.3724  0.9225
37887SOL    HW117192  10.359   2.771   8.580 -0.2422 -1.6200  2.3616
37887SOL    HW217193  10.234   2.812   8.654 -1.2707  0.2772 -0.2870
37888SOL     OW17194   6.206  10.843   1.467  0.7559  0.2556 -0.4699
37888SOL    HW117195   6.160  10.824   1.549  0.8437  0.5940 -0.3408
37888SOL    HW217196   6.295  10.864   1.495  0.5622  1.2387 -0.5795
37889SOL     OW17197   2.313   9.949   7.650 -0.2011 -0.2100  0.4061
37889SOL    HW117198   2.255   9.948   7.574  0.8424 -0.7050 -0.4152
37889SOL    HW217199   2.341   9.858   7.659 -1.5329 -0.4736  2.3739
37890SOL     OW17200   1.448   2.627   0.595 -0.0867 -0.1286  0.0001
37890SOL    HW117201   1.460   2.535   0.619 -0.0011 -0.5538 -1.5936
37890SOL    HW217202   1.378   2.626   0.530  0.1424  0.9064 -0.2852
37891SOL     OW17203   6.927  10.220   8.108 -0.6070 -0.6745  0.6419
37891SOL    HW117204   6.911  10.186   8.196 -2.1797  0.6693  0.9382
37891SOL    HW217205   6.992  10.161   8.070 -0.7916 -1.9876  2.2699
37892SOL     OW17206  11.125   1.320   9.689 -0.0075 -0.1014 -0.1492
37892SOL    HW117207  11.079   1.404   9.693  0.1611 -0.0422  2.6168
37892SOL    HW217208  11.056   1.256   9.671 -0.4489  0.4168 -0.3389
37893SOL     OW17209   5.650   0.069   6.435  0.0536  0.0293  0.6101
37893SOL    HW117210   5.602   0.111   6.364  2.0255  1.0650 -0.1844
37893SOL    HW217211   5.584   0.054   6.503 -1.9610 -1.2577 -1.4851
37894SOL     OW17212   6.706   8.638   0.282  0.2553  0.1374  0.0920
37894SOL    HW117213   6.796   8.615   0.256 -0.1835 -0.5563 -0.8521
37894SOL    HW217214   6.705   8.734   0.280  1.4953  0.2418  1.9707
37895SOL     OW17215   9.865   6.159   5.839 -0.4408  0.1854 -0.1514
37895SOL    HW117216   9.934   6.221   5.862 -0.5157  0.6052 -1.0062
37895SOL    HW217217   9.847   6.176   5.746  0.3274 -1.8575 -0.7449
37896SOL     OW17218   5.302   5.202   9.455  0.1272  0.0860 -0.8941
37896SOL    HW117219   5.311   5.270   9.388  0.0798  0.8162 -0.1740
37896SOL    HW217220   5.340   5.124   9.415  0.2760  0.5560 -1.7001
37897SOL     OW17221   8.815   6.345   1.385 -0.1925  0.0407 -0.6456
37897SOL    HW117222   8.888   6.365   1.444 -1.4913 -0.2525  1.1328
37897SOL    HW217223   8.823   6.410   1.314  2.0041 -0.2567 -0.7324
37898SOL     OW17224   5.074   7.689   5.435 -0.1658  0.1906 -0.6502
37898SOL    HW117225   5.104   7.666   5.347 -4.2479  0.4159 -2.3136
37898SOL    HW217226   5.073   7.784   5.435  0.7147  0.2076  0.0278
37899SOL     OW17227   5.068   7.321   6.358  0.0564 -0.6433 -0.2852
37899SOL    HW117228   5.134   7.334   6.427  1.1271 -1.9429 -1.0220
37899SOL    HW217229   5.118   7.319   6.277 -0.9352 -1.3185 -0.8987
37900SOL     OW17230   8.378   5.848  10.150  0.3000  0.2983  0.1610
37900SOL    HW117231   8.422   5.926  10.183 -0.6781  0.3786  1.3760
37900SOL    HW217232   8.390   5.783  10.219  0.7232 -0.4928 -0.6430
37901SOL     OW17233   3.935   8.293  10.084  0.0325 -0.4144  0.2655
37901SOL    HW117234   3.875   8.366  10.073 -0.5291 -0.6705  1.5232
37901SOL    HW217235   3.933   8.274  10.178 -0.4886 -2.5969 -0.1380
37902SOL     OW17236   3.937   3.781   9.011 -0.0982  0.1883 -0.4144
37902SOL    HW117237   3.911   3.690   9.025  2.2301 -0.9297 -2.5870
37902SOL    HW217238   3.968   3.810   9.097  0.2554 -1.4970  0.0693
37903SOL     OW17239   0.151  10.611   2.843 -0.1344  0.0309 -0.0723
37903SOL    HW117240   0.209  10.573   2.777 -0.2226  1.2314 -0.8618
37903SOL    HW217241   0.200  10.603   2.925  0.4380 -0.4665 -0.4484
37904SOL     OW17242   0.475   2.733   3.813 -0.2945 -0.1893  0.4072
37904SOL    HW117243   0.493   2.706   3.903  1.0392 -0.6848  0.0100
37904SOL    HW217244   0.442   2.654   3.770  0.3586 -0.3164  0.1248
37905SOL     OW17245   2.415   9.075   8.889  0.0596 -0.6407  0.4836
37905SOL    HW117246   2.488   9.063   8.950 -0.2612 -0.3362  0.9318
37905SOL    HW217247   2.379   9.161   8.911  0.4842 -0.1346 -0.7200
37906SOL     OW17248   5.748   6.353   5.789 -0.0834 -0.3026  0.4396
37906SOL    HW117249   5.660   6.319   5.800  0.2262 -1.5900 -0.7942
37906SOL    HW217250   5.773   6.385   5.876 -2.0179  0.7884  0.6391
37907SOL     OW17251   3.410   3.810   3.367 -0.4320  0.6721 -0.2859
37907SOL    HW117252   3.321   3.813   3.331 -0.6133  3.1472  0.2040
37907SOL    HW217253   3.416   3.888   3.422  1.1976 -0.8057  1.7826
37908SOL     OW17254   7.881   6.108   6.801  0.2260 -0.1720 -0.4574
37908SOL    HW117255   7.950   6.112   6.735  0.9062  0.0018  0.2470
37908SOL    HW217256   7.916   6.050   6.869 -1.2869 -1.9844 -1.1526
37909SOL     OW17257   0.767   4.261   5.535 -0.3467  0.4045  0.2444
37909SOL    HW117258   0.707   4.282   5.607 -0.2117  2.1633 -0.1127
37909SOL    HW217259   0.839   4.215   5.577  0.4061  2.5881  1.5443
37910SOL     OW17260  10.531   3.277   0.571  0.0545 -0.4209  0.0905
37910SOL    HW117261  10.579   3.329   0.507 -2.0669  1.1709 -0.3008
37910SOL    HW217262  10.469   3.226   0.518 -0.9386  0.0582  0.7721
37911SOL     OW17263   6.628   3.021   6.787 -0.0810 -0.3916  0.1948
37911SOL    HW117264   6.676   3.101   6.808  0.7114 -0.6625 -0.5382
37911SOL    HW217265   6.554   3.050   6.734 -0.8772  0.0531  1.4958
37912SOL     OW17266   5.931   6.318   7.071  0.4649  0.5312 -0.1166
37912SOL    HW117267   5.885   6.376   7.131 -1.0810 -0.9979  0.2595
37912SOL    HW217268   5.865   6.292   7.007  0.9502 -1.2361  0.0582
37913SOL     OW17269   8.945   1.213   6.564 -0.4624 -0.2233 -0.5211
37913SOL    HW117270   8.971   1.163   6.487  1.0549  0.3311 -0.4033
37913SOL    HW217271   8.849   1.214   6.561 -0.4305  0.2175 -2.6805
37914SOL     OW17272   1.117   6.084   3.075 -0.3652 -0.1840 -0.0134
37914SOL    HW117273   1.146   5.996   3.050 -0.3077  0.4178 -2.3394
37914SOL    HW217274   1.117   6.133   2.992 -1.3570  1.7320  1.0594
37915SOL     OW17275   8.538   8.262   3.004 -0.1740 -0.1721  0.7079
37915SOL    HW117276   8.444   8.245   3.012 -0.6350  1.8993  0.2137
37915SOL    HW217277   8.574   8.240   3.089 -1.1565 -0.6456  1.0157
37916SOL     OW17278   9.225   1.114   9.864 -0.4206  0.1033 -0.2214
37916SOL    HW117279   9.279   1.088   9.789  1.5745  1.2046  0.7495
37916SOL    HW217280   9.244   1.048   9.930  0.1850  0.7962  0.3083
37917SOL     OW17281   5.389   1.331   2.444 -0.2466  0.2107 -0.3324
37917SOL    HW117282   5.432   1.246   2.445  0.2258  0.4454 -0.1270
37917SOL    HW217283   5.436   1.382   2.378 -0.0288  0.5523  0.0734
37918SOL     OW17284   1.574   0.266   9.205  0.0970 -0.0729 -0.6437
37918SOL    HW117285   1.513   0.228   9.142  1.5409 -1.7374 -1.1051
37918SOL    HW217286   1.556   0.219   9.286  0.5815 -0.3982 -0.7210
37919SOL     OW17287   2.093   2.809   2.187 -0.2933 -0.2251 -0.2935
37919SOL    HW117288   2.013   2.757   2.197  0.5115 -1.8073 -1.5535
37919SOL    HW217289   2.107   2.813   2.092  1.3001 -0.2927 -0.0851
37920SOL     OW17290   0.652   6.657   1.458 -0.1438 -0.1084 -0.4737
37920SOL    HW117291   0.566   6.687   1.485 -0.1830 -1.1515  0.6771
37920SOL    HW217292   0.640   6.564   1.440  1.0940 -0.7326  1.5816
37921SOL     OW17293   8.754   5.394   9.102 -0.0448  0.0148  0.0002
37921SOL    HW117294   8.665   5.378   9.135 -0.4711  0.2744 -0.9942
37921SOL    HW217295   8.802   5.427   9.178 -0.7360 -0.3475  0.6014
37922SOL     OW17296   7.726   2.877   5.917  1.0000 -0.0236  0.3815
37922SOL    HW117297   7.788   2.873   5.844 -0.3967 -0.4641 -0.8299
37922SOL    HW217298   7.700   2.969   5.920  0.3839 -0.1628 -0.2958
37923SOL     OW17299   8.783   6.919   4.915  0.3765  0.1015  0.3133
37923SOL    HW117300   8.717   6.867   4.869  0.3296  0.2436  0.2169
37923SOL    HW217301   8.864   6.905   4.866  0.2364  0.5823 -0.0633
37924SOL     OW17302  10.771   4.988   4.357  0.2027 -0.0233 -0.3124
37924SOL    HW117303  10.847   4.971   4.413  0.6609 -0.9718 -1.1899
37924SOL    HW217304  10.791   4.943   4.275 -0.8849  0.5268 -0.9039
37925SOL     OW17305   2.575   0.942   5.289  0.2757  0.3261  0.2737
37925SOL    HW117306   2.517   1.008   5.327 -1.1151  0.9330 -2.6742
37925SOL    HW217307   2.528   0.860   5.300  0.5695  0.2594  1.1248
37926SOL     OW17308   2.329   6.665  10.432 -0.1259 -0.8764  0.5358
37926SOL    HW117309   2.341   6.591  10.492 -2.1070 -2.2968 -0.7118
37926SOL    HW217310   2.285   6.628  10.356  0.0864  1.3540 -0.7627
37927SOL     OW17311  10.380   1.759   9.963  0.2494 -0.3428 -0.0650
37927SOL    HW117312  10.293   1.722   9.948  0.9894 -2.2811  0.1988
37927SOL    HW217313  10.432   1.686   9.995  2.0665  0.7171 -0.4794
37928SOL     OW17314   5.806   0.290   1.680  0.1944  0.2271 -0.2560
37928SOL    HW117315   5.725   0.285   1.731  0.1906  0.4421 -0.2386
37928SOL    HW217316   5.776   0.296   1.589  0.2024 -0.1985 -0.2867
37929SOL     OW17317   9.522   0.777   1.376 -0.0595  0.4149 -0.2392
37929SOL    HW117318   9.468   0.732   1.311 -1.6090  0.3731  1.0300
37929SOL    HW217319   9.460   0.823   1.432  0.9188 -1.7690  2.9294
37930SOL     OW17320   3.203   8.754   2.132 -0.4927  0.6089 -0.0053
37930SOL    HW117321   3.190   8.751   2.227 -1.7226 -0.3603 -0.1777
37930SOL    HW217322   3.131   8.701   2.096 -0.4932  1.5746 -1.5168
37931SOL     OW17323   6.700   1.584   1.784 -0.2454 -0.3181  0.4549
37931SOL    HW117324   6.775   1.572   1.843  0.2420 -2.2989 -0.4696
37931SOL    HW217325   6.626   1.545   1.831 -0.0100 -1.2335  0.0843
37932SOL     OW17326  10.136   1.125   6.156  0.2678  0.3300  0.0718
37932SOL    HW117327  10.068   1.188   6.181  0.1818  0.1462  0.2971
37932SOL    HW217328  10.103   1.084   6.076  1.3644  2.2367 -1.4496
37933SOL     OW17329   0.972   2.247   9.583  0.1541 -0.4382  0.6413
37933SOL    HW117330   0.894   2.267   9.532 -0.2307 -0.1597  1.3241
37933SOL    HW217331   1.036   2.313   9.555  0.4531 -1.2114 -0.5604
37934SOL     OW17332  11.085   0.503   1.270 -0.1076 -0.2797  0.0457
37934SOL    HW117333  11.035   0.584   1.256  2.6496  1.6806  0.5879
37934SOL    HW217334  11.108   0.504   1.363  0.7102 -1.1976 -0.1258
37935SOL     OW17335   7.917   2.512   4.041 -0.0137 -0.2604 -0.3304
37935SOL    HW117336   7.937   2.574   4.111 -0.9190 -1.0336  0.6575
37935SOL    HW217337   7.888   2.433   4.087 -1.1263 -0.6226 -1.5854
37936SOL     OW17338   6.183   7.345   7.592 -0.0106  0.3061 -0.0745
37936SOL    HW117339   6.243   7.271   7.605  1.0518  0.8964 -1.4625
37936SOL    HW217340   6.240   7.421   7.583 -1.0788  1.2501  0.8504
37937SOL     OW17341   9.989  10.313   8.092  0.9549  0.1294 -0.5635
37937SOL    HW117342   9.947  10.395   8.066  1.8083  0.5610 -0.6092
37937SOL    HW217343   9.922  10.267   8.143  0.5339  0.9479 -0.3573
37938SOL     OW17344   9.156   2.788   0.477  0.4029 -0.0611 -0.3946
37938SOL    HW117345   9.107   2.743   0.408 -0.4264  0.3161 -0.0697
37938SOL    HW217346   9.248   2.780   0.451  0.1059  0.0596 -1.5311
37939SOL     OW17347   2.035   3.186   9.315  0.4641  0.5015 -0.5941
37939SOL    HW117348   1.982   3.106   9.315  0.8580  0.1765  1.2193
37939SOL    HW217349   2.012   3.229   9.398  0.6021  2.0459 -1.3334
37940SOL     OW17350   2.324   1.786  10.158  0.4453  0.0910 -0.3449
37940SOL    HW117351   2.381   1.862  10.172 -0.7384  0.7218  1.3102
37940SOL    HW217352   2.373   1.712  10.193  0.3171  0.6155  1.0068
37941SOL     OW17353  10.247   0.919   7.617 -0.0384  0.8492 -0.5345
37941SOL    HW117354  10.158   0.933   7.587  0.0757  2.4917 -0.2457
37941SOL    HW217355  10.300   0.919   7.537 -0.2365  0.4876 -0.6635
37942SOL     OW17356   8.983   5.960   0.263 -0.0469  0.0226  0.3431
37942SOL    HW117357   8.952   5.935   0.176  1.9857 -0.4706 -0.2944
37942SOL    HW217358   8.987   6.055   0.261  0.0023  0.0138 -0.1108
37943SOL     OW17359  11.125   3.245   8.523 -0.2266 -0.3317  0.1663
37943SOL    HW117360  11.150   3.164   8.479  0.8665 -0.1898  0.5080
37943SOL    HW217361  11.196   3.307   8.503 -2.0585  1.2785 -1.9476
37944SOL     OW17362   2.736   4.873   8.798  0.5992 -0.4270  0.3121
37944SOL    HW117363   2.696   4.894   8.714  2.1255  0.5150 -0.2176
37944SOL    HW217364   2.778   4.787   8.784 -1.3842 -1.5645  0.9602
37945SOL     OW17365   4.723   7.034  10.072 -0.0448 -0.5375  0.2636
37945SOL    HW117366   4.791   7.030  10.139  0.0228  0.1706  0.2489
37945SOL    HW217367   4.674   6.952  10.082 -0.4287 -0.1627  1.5949
37946SOL     OW17368   6.555   3.550  10.336  0.4047  0.3193  0.7696
37946SOL    HW117369   6.463   3.524  10.327  0.1699  1.6202 -1.1746
37946SOL    HW217370   6.589   3.492  10.404 -1.3977 -1.4019  0.3177
37947SOL     OW17371   4.123  10.397   9.355 -0.2051  0.4723 -0.5072
37947SOL    HW117372   4.083  10.423   9.272  1.2258  1.8556 -0.8327
37947SOL    HW217373   4.196  10.458   9.366 -0.9852  1.0616  2.3204
37948SOL     OW17374   7.838   9.891   4.573  0.6133  0.0755 -0.1349
37948SOL    HW117375   7.898   9.895   4.499  0.4513 -1.3693 -0.3865
37948SOL    HW217376   7.894   9.900   4.650  1.1616 -1.0596 -0.3711
37949SOL     OW17377   5.391   7.664   1.952  0.8198  0.1006  0.1464
37949SOL    HW117378   5.484   7.681   1.964  0.9798  0.7326 -1.7130
37949SOL    HW217379   5.352   7.682   2.037  2.3242  0.2498  0.8356
37950SOL     OW17380   5.022   2.137   1.409  0.2206 -0.0961  0.4887
37950SOL    HW117381   5.018   2.227   1.375 -0.6872 -0.0549  0.6677
37950SOL    HW217382   5.114   2.123   1.430  0.3788  0.7765  0.4180
37951SOL     OW17383   0.654   2.240   8.453  0.1712  0.4767 -0.1795
37951SOL    HW117384   0.565   2.251   8.422  1.2507  2.2868 -3.0260
37951SOL    HW217385   0.706   2.224   8.374  2.3937 -0.5676  1.3584
37952SOL     OW17386   3.635  10.508   3.549 -0.2912  0.5512 -0.3199
37952SOL    HW117387   3.674  10.589   3.581  0.1294  0.0800  0.3910
37952SOL    HW217388   3.709  10.450   3.531 -0.6154 -0.3591  1.0654
37953SOL     OW17389   4.610   0.974   3.226 -0.1305  0.0750  0.0212
37953SOL    HW117390   4.657   0.984   3.143  1.8112 -0.0765  1.0412
37953SOL    HW217391   4.589   0.881   3.231 -0.6140  0.1527 -0.4693
37954SOL     OW17392   2.271   1.502   8.518  0.4408 -0.1940  0.0645
37954SOL    HW117393   2.268   1.528   8.426  0.9031  0.3507  0.2018
37954SOL    HW217394   2.324   1.569   8.561 -0.9858  0.3751  1.0110
37955SOL     OW17395   7.903   1.499   3.795 -0.0213  0.3279 -0.0467
37955SOL    HW117396   7.850   1.556   3.740  0.6176  1.3906  0.4200
37955SOL    HW217397   7.856   1.415   3.795 -1.0134  0.8715 -0.6679
37956SOL     OW17398   2.319   8.346   8.230  0.0091 -0.7469 -0.0079
37956SOL    HW117399   2.319   8.327   8.136  0.7144 -0.3265 -0.0986
37956SOL    HW217400   2.399   8.397   8.244  0.5330 -1.8103  1.0224
37957SOL     OW17401   9.762   0.576  11.011 -0.3684 -0.1122  0.1273
37957SOL    HW117402   9.783   0.580  11.104 -2.6484  2.1389  0.6540
37957SOL    HW217403   9.847   0.570  10.967  0.8313  0.0521  2.3023
37958SOL     OW17404   1.073   7.161   3.223  0.0358  0.0193 -0.0502
37958SOL    HW117405   0.992   7.111   3.209 -0.2096  0.4794 -0.2938
37958SOL    HW217406   1.051   7.222   3.293  0.1854  0.1256 -0.0973
37959SOL     OW17407   7.747   6.088  10.458  0.1766  0.3659 -0.6524
37959SOL    HW117408   7.838   6.117  10.449  0.1552  0.4438 -0.6189
37959SOL    HW217409   7.710   6.098  10.370  0.1048  0.6622 -0.5910
37960SOL     OW17410   2.260   3.550   2.045 -0.3766  0.0375 -0.6818
37960SOL    HW117411   2.194   3.498   2.092  0.7112  0.2910  1.2339
37960SOL    HW217412   2.332   3.489   2.028  1.1780  0.9095  2.1394
37961SOL     OW17413   7.282   3.152   5.091 -0.5420  0.1251  0.1239
37961SOL    HW117414   7.247   3.067   5.116  0.9631 -0.8564 -0.9112
37961SOL    HW217415   7.253   3.166   5.001  1.0082 -0.3779 -0.5002
37962SOL     OW17416   4.386   1.812   9.756  0.5947 -0.0456 -0.9801
37962SOL    HW117417   4.477   1.838   9.763  1.1122 -1.1390 -2.8514
37962SOL    HW217418   4.336   1.891   9.775  1.9606  0.8706 -1.1229
37963SOL     OW17419   2.823   4.746   1.195 -0.0424  0.6151 -0.4910
37963SOL    HW117420   2.865   4.670   1.156 -0.3663  0.1944 -0.0259
37963SOL    HW217421   2.867   4.821   1.154  0.2500  0.1848 -0.9784
37964SOL     OW17422   9.956   2.841   4.539  0.5503 -0.3323 -0.0486
37964SOL    HW117423  10.012   2.769   4.511 -0.6603 -0.8880 -1.1726
37964SOL    HW217424   9.912   2.808   4.618 -0.6454 -1.2063 -1.0415
37965SOL     OW17425   5.154   5.330   0.687 -0.2230 -0.3304 -0.0509
37965SOL    HW117426   5.191   5.416   0.666 -0.1012 -0.2873  0.3416
37965SOL    HW217427   5.094   5.311   0.614 -0.6397  0.3135  0.1175
37966SOL     OW17428   6.683   9.640   1.411 -0.4080 -0.2936  0.3204
37966SOL    HW117429   6.766   9.594   1.400 -0.3556 -0.0122 -0.5100
37966SOL    HW217430   6.624   9.599   1.349 -0.9984 -0.7183  1.1458
37967SOL     OW17431   9.958   1.635   7.650  0.2258 -0.5536  0.4333
37967SOL    HW117432   9.952   1.619   7.744 -0.2305  1.7347  0.8682
37967SOL    HW217433   9.871   1.614   7.616 -0.2995  0.6853  0.9384
37968SOL     OW17434   3.833  10.444   9.628 -0.1990  0.0338  0.2490
37968SOL    HW117435   3.753  10.486   9.598 -1.9629 -1.6778  2.2832
37968SOL    HW217436   3.812  10.409   9.714  2.7006 -0.6702  0.7953
37969SOL     OW17437   7.251   3.810   5.492 -0.1057 -0.8282 -0.2137
37969SOL    HW117438   7.304   3.785   5.416  0.7297 -1.4371  0.5566
37969SOL    HW217439   7.178   3.859   5.454  1.3586  0.6524 -1.2536
37970SOL     OW17440   1.441   9.227   2.714 -0.0666  0.4319  0.5452
37970SOL    HW117441   1.502   9.300   2.715 -0.1252  0.5224 -0.9595
37970SOL    HW217442   1.357   9.266   2.739 -0.2240  1.0185 -0.8382
37971SOL     OW17443   7.769   4.034   2.325 -0.2017 -0.0754 -0.6138
37971SOL    HW117444   7.853   4.077   2.316 -0.7728  1.5401  1.1879
37971SOL    HW217445   7.787   3.957   2.380 -0.1647  1.3291  1.4317
37972SOL     OW17446   8.240   4.141   1.032  0.0342  0.7940 -0.3540
37972SOL    HW117447   8.206   4.168   0.947  1.3579 -0.6887 -1.4034
37972SOL    HW217448   8.168   4.159   1.093 -0.5945  2.7911 -1.5919
37973SOL     OW17449   5.711   9.470   3.885 -0.8939 -0.4341  0.8520
37973SOL    HW117450   5.678   9.396   3.937 -0.7231  0.5790  2.4871
37973SOL    HW217451   5.804   9.452   3.875 -0.8760 -0.5096  1.1361
37974SOL     OW17452   7.896   7.570   9.822  0.5188  0.1862 -0.5196
37974SOL    HW117453   7.840   7.629   9.771 -0.3251  0.7600  1.0074
37974SOL    HW217454   7.976   7.620   9.838  0.0770  0.6702  0.1982
37975SOL     OW17455   6.268   6.286   9.302 -0.4303  0.3343  0.1285
37975SOL    HW117456   6.318   6.237   9.367  0.0028  0.3122 -0.2182
37975SOL    HW217457   6.254   6.223   9.231  0.8962  0.9453 -0.7174
37976SOL     OW17458   7.502  10.580   3.050  0.3577 -0.4041  0.4320
37976SOL    HW117459   7.567  10.641   3.013 -1.1163  1.6426  1.0053
37976SOL    HW217460   7.511  10.501   2.998  1.7339  0.6186 -1.0071
37977SOL     OW17461  11.103   3.943  10.800  0.4255  0.1741  1.3613
37977SOL    HW117462  11.077   3.952  10.892 -2.9917  0.4525  0.4873
37977SOL    HW217463  11.119   3.849  10.789 -1.2430 -0.1828  1.7847
37978SOL     OW17464   2.374   1.571   6.846 -0.5664  0.3019  0.5958
37978SOL    HW117465   2.339   1.637   6.786  0.0567  0.1159  0.0112
37978SOL    HW217466   2.398   1.621   6.925  0.7678  0.9588 -0.1873
37979SOL     OW17467  10.690   5.787   2.547  0.2514  0.0598 -0.1792
37979SOL    HW117468  10.660   5.795   2.637 -0.3948  1.2021 -0.4838
37979SOL    HW217469  10.710   5.877   2.520 -0.5468 -0.1432 -1.5065
37980SOL     OW17470  10.602   2.634   7.421 -0.5935 -0.1441  0.3659
37980SOL    HW117471  10.570   2.547   7.445  0.0831 -0.2302  0.9633
37980SOL    HW217472  10.530   2.694   7.445 -0.9099 -0.4924  0.2947
37981SOL     OW17473   5.684   3.194   9.758  0.5120  0.1674  0.5054
37981SOL    HW117474   5.733   3.272   9.785  0.9784 -0.1562  0.6045
37981SOL    HW217475   5.621   3.226   9.695  3.0298  0.1495 -2.2463
37982SOL     OW17476  10.260   5.687  10.030 -0.0096 -0.3621 -0.3632
37982SOL    HW117477  10.329   5.656  10.089 -0.7618 -0.7621  0.3227
37982SOL    HW217478  10.304   5.753   9.976  0.6261  0.2991  0.8900
37983SOL     OW17479   4.392   8.826   4.897  0.0706 -0.1950 -0.4412
37983SOL    HW117480   4.395   8.732   4.881  0.1919 -0.2746  0.0313
37983SOL    HW217481   4.476   8.859   4.865  0.8066 -0.5269  1.0567
37984SOL     OW17482   2.559   2.828   0.503  0.1455  0.1891  0.3967
37984SOL    HW117483   2.524   2.767   0.438  1.1120 -1.9874  1.7987
37984SOL    HW217484   2.499   2.903   0.500 -0.6444 -0.4483 -1.9618
37985SOL     OW17485   4.904   1.331   6.313 -0.0905 -0.1680  0.2366
37985SOL    HW117486   4.837   1.266   6.295 -0.7591  0.4277  0.5259
37985SOL    HW217487   4.923   1.371   6.229 -0.2860 -0.1596  0.1968
37986SOL     OW17488   5.926   1.697   3.115  0.3350 -0.2515  0.4723
37986SOL    HW117489   5.917   1.792   3.121  1.4635 -0.1759  1.1649
37986SOL    HW217490   5.934   1.679   3.021  1.3420  0.4723  0.4046
37987SOL     OW17491   0.851   8.422   7.234 -0.0685  0.0593  0.2680
37987SOL    HW117492   0.780   8.417   7.299  0.8832  1.5087  1.4854
37987SOL    HW217493   0.864   8.515   7.220  0.7298 -0.2142 -0.9534
37988SOL     OW17494   4.343   1.959   3.511  0.2898 -1.2933  0.2495
37988SOL    HW117495   4.423   1.945   3.563  0.5834  0.2410  0.2714
37988SOL    HW217496   4.282   2.000   3.572 -0.2559 -1.7490  0.0199
37989SOL     OW17497   9.940   6.847   2.760  0.0426 -0.0471  0.3234
37989SOL    HW117498   9.909   6.923   2.810 -0.4610 -0.7718  1.1577
37989SOL    HW217499   9.862   6.815   2.714  0.7717  1.4207 -2.1069
37990SOL     OW17500   4.030   9.001   7.391 -0.6035 -0.3774 -0.3200
37990SOL    HW117501   4.125   8.994   7.398 -0.5466 -1.9123 -1.9309
37990SOL    HW217502   4.009   9.083   7.435  1.4245 -0.1219  0.2946
37991SOL     OW17503  11.081   4.022  11.079 -0.3444 -0.1096 -0.0139
37991SOL    HW117504  11.136   3.962  11.130 -0.5345 -0.1918  0.0948
37991SOL    HW217505  11.142   4.087  11.045 -0.1661 -0.2460  0.0394
37992SOL     OW17506   9.508   7.022  10.391 -0.2601  0.4400  0.0033
37992SOL    HW117507   9.445   6.986  10.454  1.2262 -1.5061  0.4610
37992SOL    HW217508   9.571   7.070  10.445 -0.0241  0.3432 -0.1838
37993SOL     OW17509   6.674   8.263   1.873  0.1484 -0.0447 -0.1540
37993SOL    HW117510   6.661   8.215   1.792  1.1738  0.6269 -0.7461
37993SOL    HW217511   6.689   8.354   1.845  1.8138 -0.0249  0.6709
37994SOL     OW17512  10.902   6.622   4.229  0.2808 -0.2345 -0.4651
37994SOL    HW117513  10.978   6.586   4.183 -1.1491 -1.5201 -1.9939
37994SOL    HW217514  10.837   6.552   4.224 -1.1327  0.9674  0.4471
37995SOL     OW17515   4.945   7.998   7.017  0.0329  0.6194  0.0449
37995SOL    HW117516   4.935   7.905   7.037 -0.0031  0.2917 -1.3622
37995SOL    HW217517   4.869   8.040   7.057 -0.3527 -0.0648  0.0459
37996SOL     OW17518  10.395   4.752   1.046  0.2045 -0.0982  0.3629
37996SOL    HW117519  10.391   4.682   0.980  1.5040  1.4196 -1.4283
37996SOL    HW217520  10.451   4.819   1.007  0.0213  1.4303  2.5344
37997SOL     OW17521   8.428   0.075   0.412 -0.0783 -0.0302  0.3502
37997SOL    HW117522   8.502   0.038   0.365 -1.2541 -1.8314 -0.1946
37997SOL    HW217523   8.467   0.127   0.481  1.6863  0.1927 -0.7510
37998SOL     OW17524   0.280   8.719   2.008 -0.9391  0.0800  0.5635
37998SOL    HW117525   0.296   8.699   1.916  0.7339  0.2573  0.7906
37998SOL    HW217526   0.185   8.717   2.017 -1.0856 -0.7951 -0.9690
37999SOL     OW17527   5.684   4.103   5.450  0.1428  0.3741  0.0351
37999SOL    HW117528   5.701   4.031   5.389 -0.4569  0.0857  0.2019
37999SOL    HW217529   5.726   4.179   5.409  1.0049 -0.1120 -0.0195
38000SOL     OW17530   9.245   9.537   6.704  0.1568 -0.0250 -0.6387
38000SOL    HW117531   9.245   9.628   6.735  0.4820  0.0267 -0.7887
38000SOL    HW217532   9.171   9.533   6.644 -0.5286 -0.1445  0.1882
38001SOL     OW17533   1.453   3.091   2.627  0.6741  0.0950 -0.7975
38001SOL    HW117534   1.391   3.068   2.697  2.0995  2.9119  1.6689
38001SOL    HW217535   1.404   3.151   2.571  0.7713  1.6626  0.6753
38002SOL     OW17536   2.329   6.857   4.220 -0.1452 -0.3934  0.0377
38002SOL    HW117537   2.322   6.868   4.315 -0.1771 -0.3345  0.0289
38002SOL    HW217538   2.243   6.884   4.186  0.3553  1.0312 -0.1389
38003SOL     OW17539   1.332   5.830   0.852  0.3495 -0.3787 -0.0920
38003SOL    HW117540   1.350   5.750   0.803 -0.1630  0.4721 -1.7705
38003SOL    HW217541   1.406   5.887   0.832  0.1277 -0.0120  0.1157
38004SOL     OW17542   7.843   9.905   7.824 -0.0094 -0.5310  0.3684
38004SOL    HW117543   7.846   9.877   7.916  1.4466 -1.3942  0.0882
38004SOL    HW217544   7.911   9.853   7.781 -0.3811  0.1724 -1.1221
38005SOL     OW17545  10.372   3.768   6.723  0.2207 -0.5313 -0.2845
38005SOL    HW117546  10.318   3.816   6.660  0.8935 -0.9039 -1.1776
38005SOL    HW217547  10.394   3.833   6.789  0.0139  0.0471 -0.7700
38006SOL     OW17548   6.858   2.085   5.320  0.0312 -0.5627 -0.5582
38006SOL    HW117549   6.859   2.178   5.300  0.6263 -0.2479  0.8093
38006SOL    HW217550   6.775   2.071   5.365  0.9948 -0.1558  1.4397
38007SOL     OW17551   1.138  10.994   2.599  0.3957  0.4760  0.0689
38007SOL    HW117552   1.138  10.995   2.504  0.3423 -0.4888  0.0417
38007SOL    HW217553   1.046  10.981   2.623  0.6042 -1.0017  0.1840
38008SOL     OW17554   6.510   2.762   9.243  0.0518 -0.6258 -0.3207
38008SOL    HW117555   6.420   2.737   9.263 -0.5201  1.0308 -0.6924
38008SOL    HW217556   6.529   2.717   9.161 -0.8967  0.0027 -0.9045
38009SOL     OW17557  10.848   0.210   8.495 -0.0487  0.0350 -0.1419
38009SOL    HW117558  10.771   0.181   8.446 -0.4792 -0.3812  0.7625
38009SOL    HW217559  10.882   0.284   8.444 -1.2025  0.4004 -0.4129
38010SOL     OW17560   7.113   7.790   5.215  0.3183  0.3885 -0.1881
38010SOL    HW117561   7.038   7.794   5.155  0.5511  0.7864 -0.4589
38010SOL    HW217562   7.073   7.786   5.302 -0.0288  1.0980 -0.3003
38011SOL     OW17563   7.612   1.664   8.700 -0.5170 -0.5048  0.7872
38011SOL    HW117564   7.690   1.690   8.748  0.1994 -1.6208  0.2607
38011SOL    HW217565   7.560   1.614   8.763 -0.7989  0.2005  1.1251
38012SOL     OW17566   4.945  10.405   5.586 -0.8456 -0.5840  0.7070
38012SOL    HW117567   4.983  10.493   5.575  1.8221 -1.7103  0.0856
38012SOL    HW217568   5.020  10.349   5.607 -2.1462 -3.0700 -0.8102
38013SOL     OW17569   2.881   0.612   7.239  0.7674 -0.0292 -0.3777
38013SOL    HW117570   2.868   0.699   7.278  0.0148 -0.2496 -0.1018
38013SOL    HW217571   2.917   0.559   7.310 -0.6991 -0.4574  0.0956
38014SOL     OW17572   6.890  10.030   3.116 -0.0108  0.2564  0.2657
38014SOL    HW117573   6.824   9.966   3.143  0.0327 -0.1282 -0.5079
38014SOL    HW217574   6.859  10.060   3.031  0.5007  0.5241  0.1760
38015SOL     OW17575  10.752   7.576   8.015  0.2833  0.5083 -0.6855
38015SOL    HW117576  10.799   7.506   7.971 -0.1830 -1.3429  1.5684
38015SOL    HW217577  10.818   7.620   8.068 -0.0230 -0.6279  0.7071
38016SOL     OW17578   2.483   4.842   4.459  0.0168  0.5128 -0.5756
38016SOL    HW117579   2.461   4.820   4.550 -2.5694  1.6713 -0.8230
38016SOL    HW217580   2.489   4.757   4.415  2.7753 -0.1492  0.8794
38017SOL     OW17581  10.917   5.671   5.935 -0.4001  0.4536 -0.3061
38017SOL    HW117582  10.899   5.646   6.025 -1.4146 -1.0360 -0.8987
38017SOL    HW217583  10.832   5.696   5.899 -0.1086  0.3884 -1.0535
38018SOL     OW17584   1.717   5.880   8.673  0.4401  0.1105  0.4468
38018SOL    HW117585   1.791   5.940   8.678  0.6326 -0.0261 -0.6423
38018SOL    HW217586   1.719   5.845   8.584 -3.7594  3.8046 -1.4984
38019SOL     OW17587   3.765   1.361   3.993 -0.1654  0.4267 -0.4899
38019SOL    HW117588   3.754   1.275   3.951 -0.4092  0.1231  0.1835
38019SOL    HW217589   3.684   1.374   4.042  0.6216  0.1902  0.9191
38020SOL     OW17590   9.089   9.758   3.179  0.1635  0.6703  0.1161
38020SOL    HW117591   9.142   9.786   3.104 -0.1469 -0.9172 -0.7643
38020SOL    HW217592   9.128   9.801   3.255  2.5547 -0.2299 -0.5233
38021SOL     OW17593   2.434   3.165   2.403  0.6099 -0.0779 -0.8388
38021SOL    HW117594   2.359   3.120   2.363 -0.2197 -0.9101  1.4575
38021SOL    HW217595   2.404   3.255   2.415  0.5946 -0.0070 -1.3813
38022SOL     OW17596   2.884   0.714   2.763 -0.1734 -0.3680 -0.0546
38022SOL    HW117597   2.820   0.693   2.832 -2.2709  2.3472 -0.9818
38022SOL    HW217598   2.831   0.721   2.684  1.4468  1.0052 -1.0722
38023SOL     OW17599   9.142   5.251   5.259 -0.1939  0.0025  0.1783
38023SOL    HW117600   9.226   5.207   5.258 -0.2066 -0.0501  1.0834
38023SOL    HW217601   9.161   5.340   5.227  0.5206  0.5153  1.9267
38024SOL     OW17602   4.263   6.304  10.880  0.2322 -0.1760 -0.3052
38024SOL    HW117603   4.231   6.216  10.895 -0.1851 -0.3579 -2.0264
38024SOL    HW217604   4.301   6.301  10.792 -0.2799  1.4702 -0.6254
38025SOL     OW17605  10.830   3.638   4.203  0.0323  0.5430 -0.2740
38025SOL    HW117606  10.826   3.564   4.264  0.9203  1.1508  0.5649
38025SOL    HW217607  10.805   3.601   4.118 -0.6003 -0.4691  0.3347
38026SOL     OW17608   8.074   2.366   1.776 -0.0645  0.5939 -0.0721
38026SOL    HW117609   8.114   2.303   1.836  0.7720  1.3681  0.2133
38026SOL    HW217610   8.127   2.445   1.786  0.1833  0.7143 -1.9258
38027SOL     OW17611   8.268   3.026   5.515 -0.3058  0.2585 -1.0319
38027SOL    HW117612   8.320   2.948   5.531 -0.3102  0.6397  1.1344
38027SOL    HW217613   8.331   3.090   5.481  0.3573  0.2580  0.1649
38028SOL     OW17614  10.108  10.058   2.988  0.3736 -0.0014  0.2836
38028SOL    HW117615  10.050  10.109   3.044  1.1133  0.6636  0.4738
38028SOL    HW217616  10.050  10.014   2.926 -0.3113  0.7720  0.3632
38029SOL     OW17617   3.868   9.239   9.517 -0.2896 -0.2385  0.5030
38029SOL    HW117618   3.885   9.284   9.434  0.2079  0.6216  1.0531
38029SOL    HW217619   3.922   9.161   9.514  0.7227  0.4466  0.5449
38030SOL     OW17620   6.512   0.308   2.114  0.6378  0.0092 -0.6906
38030SOL    HW117621   6.594   0.331   2.157  0.8878  1.7308 -2.0047
38030SOL    HW217622   6.534   0.233   2.059  1.0126 -0.3248 -0.1001
38031SOL     OW17623   2.163   1.891   9.539  0.0020 -0.0156 -0.7632
38031SOL    HW117624   2.091   1.946   9.568  0.6014  0.6505 -0.5103
38031SOL    HW217625   2.233   1.952   9.517  0.3869 -0.6317 -1.3141
38032SOL     OW17626   7.811   4.640   6.722  0.4368 -0.3923  0.4899
38032SOL    HW117627   7.848   4.641   6.811  1.3131 -0.3906  0.1347
38032SOL    HW217628   7.885   4.661   6.665 -0.3042  0.4823 -0.1815
38033SOL     OW17629   3.838   8.854   4.819 -0.2226  0.2329  0.2172
38033SOL    HW117630   3.799   8.767   4.807  0.5738 -0.4899  2.3311
38033SOL    HW217631   3.920   8.851   4.770  0.4425 -0.7200  1.3323
38034SOL     OW17632  10.556   1.354   9.576  0.1352  0.6664 -0.3288
38034SOL    HW117633  10.475   1.303   9.575 -0.3184  1.3122 -2.6021
38034SOL    HW217634  10.527   1.445   9.583  0.4131  1.0884 -3.2407
38035SOL     OW17635   7.393  10.809   3.202 -0.2613 -0.4793  0.8190
38035SOL    HW117636   7.402  10.725   3.158  0.8019 -1.7389  3.2118
38035SOL    HW217637   7.374  10.785   3.293  0.1281  1.8711  1.5752
38036SOL     OW17638  10.778  10.177   0.482 -0.2657  0.2818 -0.2660
38036SOL    HW117639  10.825  10.223   0.552 -0.9206  1.7666 -0.7498
38036SOL    HW217640  10.686  10.183   0.509 -0.3420 -1.0499 -0.1944
38037SOL     OW17641   4.867   4.220   8.697  0.3850  0.0948 -0.3127
38037SOL    HW117642   4.865   4.309   8.731  1.4223 -1.2977  4.1179
38037SOL    HW217643   4.954   4.211   8.657 -0.0555  1.2320 -1.5969
38038SOL     OW17644   9.639   5.068   7.592  0.0509  0.1157  0.1100
38038SOL    HW117645   9.575   5.000   7.570 -0.7886 -0.3055  3.2622
38038SOL    HW217646   9.601   5.149   7.557 -0.9182 -0.5119 -0.3208
38039SOL     OW17647   6.592   8.298   2.995 -0.2832 -0.6300  0.6413
38039SOL    HW117648   6.595   8.366   3.062 -0.9161  0.1821 -0.1294
38039SOL    HW217649   6.501   8.269   2.994 -0.7272  0.6636 -1.0955
38040SOL     OW17650   2.933   1.872  10.582 -0.1331  0.0343  0.5112
38040SOL    HW117651   2.877   1.887  10.658 -1.6694  2.3224 -0.9337
38040SOL    HW217652   2.900   1.933  10.516  2.7848  0.0016 -1.1486
38041SOL     OW17653   8.066   9.288   6.204 -0.1667 -0.1167  0.3355
38041SOL    HW117654   8.000   9.327   6.147  0.8669  0.3608 -0.5557
38041SOL    HW217655   8.048   9.194   6.200 -0.7002 -0.0018 -0.0178
38042SOL     OW17656   4.988   5.121   4.343 -0.5139  0.6848 -0.0554
38042SOL    HW117657   4.938   5.171   4.407  1.3711  1.1517  1.1246
38042SOL    HW217658   5.055   5.183   4.312  0.6300 -0.4978 -0.0351
38043SOL     OW17659  10.073   8.547   4.850 -0.0741  0.4799  0.4701
38043SOL    HW117660  10.011   8.483   4.814 -0.4298  1.2888 -0.4069
38043SOL    HW217661  10.112   8.503   4.925 -1.4121 -0.2006  0.7964
38044SOL     OW17662   1.198   7.722   0.161  0.3755 -0.1554  0.0197
38044SOL    HW117663   1.255   7.645   0.156  2.9882  1.6772 -0.6652
38044SOL    HW217664   1.196   7.755   0.071  0.0189  1.0517  0.4641
38045SOL     OW17665   5.784   1.933   1.531 -0.5102  0.0994 -0.2174
38045SOL    HW117666   5.871   1.917   1.568 -0.5334 -1.3539 -0.7533
38045SOL    HW217667   5.798   1.937   1.436 -1.1221 -0.8304 -0.3559
38046SOL     OW17668  11.022   6.741   9.485 -0.0080 -0.4725 -0.6338
38046SOL    HW117669  11.081   6.718   9.413  0.0291  0.5515 -0.9464
38046SOL    HW217670  11.075   6.729   9.564  1.0907  1.6275 -0.9613
38047SOL     OW17671   7.812   9.773   3.632  0.0109 -0.2518  0.1311
38047SOL    HW117672   7.820   9.714   3.707 -0.2391  0.5748  0.8116
38047SOL    HW217673   7.787   9.857   3.669  0.4567  0.3246 -0.8219
38048SOL     OW17674  11.028   4.066   4.341 -0.4492 -0.4839  0.1110
38048SOL    HW117675  10.938   4.095   4.323 -0.2639 -0.9316 -1.7938
38048SOL    HW217676  11.051   4.014   4.264  1.8354  0.5153  0.0608
38049SOL     OW17677   1.133   1.214   7.967 -0.2405 -0.2997  0.0178
38049SOL    HW117678   1.163   1.126   7.989 -0.1578  0.4720  3.6509
38049SOL    HW217679   1.188   1.240   7.893  2.2140 -2.0454  1.0669
38050SOL     OW17680   1.663   7.240   8.620  0.3657 -0.0571  0.6252
38050SOL    HW117681   1.754   7.216   8.603  0.1697 -2.7081  2.6380
38050SOL    HW217682   1.668   7.301   8.694  0.5434  1.0634 -0.2869
38051SOL     OW17683   3.422   6.784  11.125  0.2966  0.3141 -0.1200
38051SOL    HW117684   3.460   6.742  11.047  0.0442 -2.8273  1.2873
38051SOL    HW217685   3.335   6.811  11.097  0.8205  0.8074 -1.3592
38052SOL     OW17686   8.988   2.739   0.911 -0.2403 -0.7055 -0.9945
38052SOL    HW117687   8.939   2.686   0.974  0.0563 -1.8052 -1.6527
38052SOL    HW217688   9.005   2.821   0.956 -1.5687 -0.7931 -0.2938
38053SOL     OW17689   8.845   6.436   0.952  0.3297  0.3710  0.1736
38053SOL    HW117690   8.786   6.400   1.018  1.7807 -0.1323  1.2468
38053SOL    HW217691   8.852   6.529   0.974 -1.3484  0.8294 -1.0030
38054SOL     OW17692   0.144   3.746  10.285 -0.5897 -0.7815 -0.0619
38054SOL    HW117693   0.109   3.833  10.304 -0.7320 -0.3449 -2.0167
38054SOL    HW217694   0.230   3.764  10.245  1.2105 -1.7591  3.0170
38055SOL     OW17695   2.804  10.142   8.080  0.2889  0.1486 -0.5222
38055SOL    HW117696   2.852  10.136   8.163  1.3467 -1.1255 -1.1917
38055SOL    HW217697   2.850  10.209   8.030 -0.6960  1.3357  0.0996
38056SOL     OW17698   2.202  10.290   7.062 -0.1132 -0.1949  0.4075
38056SOL    HW117699   2.259  10.356   7.022  1.1224  0.3806  2.9099
38056SOL    HW217700   2.262  10.221   7.090 -0.8686 -0.4497  1.4352
38057SOL     OW17701   3.528   9.121   8.562  0.6853  0.1036  0.3210
38057SOL    HW117702   3.470   9.181   8.609  0.1666 -0.1058 -0.0396
38057SOL    HW217703   3.535   9.045   8.620 -1.5614 -1.0127 -0.7457
38058SOL     OW17704   2.588   2.713   8.181  0.5521  0.2864  0.1240
38058SOL    HW117705   2.581   2.776   8.253  2.3641  1.1807 -0.4109
38058SOL    HW217706   2.663   2.658   8.204  1.3153  0.7479 -1.1465
38059SOL     OW17707   7.905  11.026   6.686 -0.2836 -0.5324  0.0296
38059SOL    HW117708   7.813  11.052   6.680 -0.0714  0.6186  1.2591
38059SOL    HW217709   7.927  11.038   6.778  1.2674 -0.2379 -0.3557
38060SOL     OW17710   1.760   0.342   1.581 -0.4494 -0.3141 -0.3358
38060SOL    HW117711   1.687   0.393   1.617  1.8543  0.6144  3.5981
38060SOL    HW217712   1.815   0.406   1.538  0.0423 -0.2843  0.3249
38061SOL     OW17713   4.015   0.161   7.196  0.4795  0.2695  0.3322
38061SOL    HW117714   3.968   0.188   7.275  0.2962 -0.2199  0.3949
38061SOL    HW217715   3.990   0.226   7.131 -0.1836  0.1000  0.4020
38062SOL     OW17716  10.461   6.662   8.251 -0.2624 -0.0485 -0.1865
38062SOL    HW117717  10.459   6.731   8.317  0.7814 -0.3451  0.1752
38062SOL    HW217718  10.410   6.591   8.288 -1.2819  0.4790 -0.5278
38063SOL     OW17719   2.722   8.078  10.592 -0.2723  0.1691 -0.0069
38063SOL    HW117720   2.787   8.038  10.534 -1.0609 -0.5709 -0.3930
38063SOL    HW217721   2.673   8.005  10.629 -0.6106  0.6946  0.6167
38064SOL     OW17722   5.973   5.637   4.229 -0.2297  0.3903  0.1038
38064SOL    HW117723   6.015   5.713   4.187  0.0682  0.5830  0.7431
38064SOL    HW217724   5.934   5.588   4.156 -0.6082  1.2682 -0.3019
38065SOL     OW17725   1.431   5.568   1.116 -0.6111  0.0104  0.4385
38065SOL    HW117726   1.441   5.658   1.084  1.2964 -0.5591 -0.7418
38065SOL    HW217727   1.390   5.521   1.044 -3.6233  0.2679  1.8101
38066SOL     OW17728  10.551   9.035   1.769  1.1592  0.1318  0.2508
38066SOL    HW117729  10.508   8.993   1.843  1.6557  1.3105  1.2549
38066SOL    HW217730  10.572   8.964   1.709  0.4916 -0.8199  1.1172
38067SOL     OW17731   6.350   0.290   5.809 -0.1228 -0.2674  0.3119
38067SOL    HW117732   6.279   0.254   5.757 -1.0905  0.1892  1.2652
38067SOL    HW217733   6.315   0.372   5.844  1.2266  0.4793  0.0067
38068SOL     OW17734   5.466   5.487   6.245 -0.1999 -0.1224 -0.1558
38068SOL    HW117735   5.381   5.529   6.251 -0.8673 -1.6152  2.5127
38068SOL    HW217736   5.509   5.505   6.329  1.0422 -1.5002 -0.4342
38069SOL     OW17737   0.202   9.894   5.054 -0.8564 -0.2725 -0.0753
38069SOL    HW117738   0.196   9.990   5.053 -0.5166 -0.2486 -0.8444
38069SOL    HW217739   0.158   9.867   4.974  0.0485 -0.6810 -0.4506
38070SOL     OW17740   9.345   7.876   8.990  0.1351 -0.2439 -0.3483
38070SOL    HW117741   9.257   7.912   8.976  0.4088  0.8071  0.4833
38070SOL    HW217742   9.357   7.878   9.085  1.0312 -0.4369 -0.4443
38071SOL     OW17743   9.904   6.797   2.392  0.2765 -0.4514 -0.6907
38071SOL    HW117744   9.962   6.870   2.369 -1.8309  1.1793 -1.1429
38071SOL    HW217745   9.869   6.767   2.309 -0.2878 -0.7304 -0.3602
38072SOL     OW17746   1.715   3.110   5.728  0.1540  0.5218 -0.4090
38072SOL    HW117747   1.760   3.170   5.669 -0.7355  0.5502 -1.0735
38072SOL    HW217748   1.629   3.150   5.743  0.1575  0.2353  0.4700
38073SOL     OW17749   1.600   9.868   2.925  0.3595  0.3047  0.3507
38073SOL    HW117750   1.633   9.790   2.881 -2.0006 -2.3907  3.0015
38073SOL    HW217751   1.670   9.895   2.984  1.8592  1.4005 -1.7741
38074SOL     OW17752   2.164   7.249   1.152 -0.7144 -0.5526 -0.5254
38074SOL    HW117753   2.092   7.312   1.150  0.1740  0.6689  1.9341
38074SOL    HW217754   2.123   7.167   1.179 -1.4559 -0.3637 -1.0373
38075SOL     OW17755   0.331   5.988   3.010 -0.2794  0.2369  0.0554
38075SOL    HW117756   0.315   5.918   3.072 -1.5629  0.4420 -0.0126
38075SOL    HW217757   0.335   5.945   2.925  0.0912  0.1125  0.1371
38076SOL     OW17758   0.895   0.027   9.200  0.0887  0.4388 -0.6964
38076SOL    HW117759   0.826   0.078   9.243 -1.4339  0.0352 -2.5365
38076SOL    HW217760   0.950   0.093   9.156  0.2238  0.6882 -0.1633
38077SOL     OW17761   1.403  10.986   9.445 -0.3361  0.5252 -0.2729
38077SOL    HW117762   1.437  11.063   9.491 -0.7461  0.7825 -0.3955
38077SOL    HW217763   1.477  10.955   9.393  0.6391 -0.6847  1.6929
38078SOL     OW17764   4.397   3.389   8.497 -0.5641 -0.0285  0.7075
38078SOL    HW117765   4.323   3.331   8.514 -2.4177  2.3243  1.1805
38078SOL    HW217766   4.422   3.423   8.583 -0.6965  1.1867  0.2939
38079SOL     OW17767  11.065   1.745   3.750 -0.1493  0.5043 -0.0799
38079SOL    HW117768  11.075   1.688   3.674  2.6477 -1.0036  1.2694
38079SOL    HW217769  11.087   1.833   3.718  1.6317 -0.2068 -0.8981
38080SOL     OW17770  10.203   2.973   3.306  0.0116  0.3912  0.4533
38080SOL    HW117771  10.206   3.064   3.335 -1.5687  0.5769  0.1090
38080SOL    HW217772  10.112   2.946   3.321  0.3101 -0.9465 -0.0136
38081SOL     OW17773   5.616   1.231   6.294  0.7762  0.2753 -0.4041
38081SOL    HW117774   5.527   1.209   6.323  1.3745 -1.1049  0.4669
38081SOL    HW217775   5.664   1.250   6.374  1.6399 -0.4428 -0.7356
38082SOL     OW17776   4.892   3.147   0.375 -0.0234 -0.1976 -0.1537
38082SOL    HW117777   4.824   3.080   0.378  0.9787 -1.2193  0.9354
38082SOL    HW217778   4.974   3.098   0.375  0.7291  1.0157  0.1185
38083SOL     OW17779   9.948   2.644  10.599 -0.7622 -0.1115 -0.3222
38083SOL    HW117780  10.014   2.581  10.568 -0.8268 -0.0400 -0.6110
38083SOL    HW217781   9.973   2.727  10.558 -1.6537 -0.3147 -1.3061
38084SOL     OW17782   3.850   9.583   1.020 -0.3870  0.4045  0.7897
38084SOL    HW117783   3.783   9.516   1.034 -0.0534  0.1829  1.3503
38084SOL    HW217784   3.915   9.567   1.089  0.4487  0.3611  0.0023
38085SOL     OW17785   1.299   9.310   7.065  0.3266 -0.1910 -0.4736
38085SOL    HW117786   1.263   9.244   7.124  0.6714 -0.4070 -0.4987
38085SOL    HW217787   1.310   9.388   7.120 -0.6040  0.0263 -0.5790
38086SOL     OW17788   0.897   4.597   0.096  0.1278 -0.0992 -0.7126
38086SOL    HW117789   0.818   4.568   0.140  1.2601 -0.4550  1.1763
38086SOL    HW217790   0.909   4.688   0.124 -0.0847  0.2498 -1.7122
38087SOL     OW17791   5.680   3.774   6.118 -0.6682 -0.1250 -0.0206
38087SOL    HW117792   5.663   3.865   6.094 -0.4319 -0.1138 -0.1424
38087SOL    HW217793   5.635   3.763   6.202 -0.4211  0.2013  0.1583
38088SOL     OW17794   6.621   5.171   5.303 -0.2170  0.3739  0.1468
38088SOL    HW117795   6.556   5.241   5.294 -1.5425 -1.0012 -2.2826
38088SOL    HW217796   6.571   5.097   5.337  0.4435 -0.2380 -0.1914
38089SOL     OW17797  10.819   5.745   4.405  0.1914 -0.0111 -0.1557
38089SOL    HW117798  10.755   5.674   4.403  1.6844 -1.3965 -0.2633
38089SOL    HW217799  10.837   5.759   4.498  2.2117 -1.9987 -0.1714
38090SOL     OW17800   9.050   8.805   2.276 -0.4124  0.2111  0.2591
38090SOL    HW117801   9.055   8.876   2.340 -2.4837  0.0915  0.6210
38090SOL    HW217802   9.140   8.796   2.243  1.0617 -0.4266  3.8806
38091SOL     OW17803  10.559   3.551   7.057 -0.0432 -0.3374 -0.0514
38091SOL    HW117804  10.478   3.586   7.022  0.1031 -0.1225 -0.1754
38091SOL    HW217805  10.548   3.554   7.152 -0.8581 -1.8857 -0.0634
38092SOL     OW17806   9.818   4.206   9.505  0.3630 -0.0589  0.3663
38092SOL    HW117807   9.854   4.156   9.431 -0.0701  0.9395 -0.5498
38092SOL    HW217808   9.812   4.142   9.576 -1.8495 -1.8637 -1.2670
38093SOL     OW17809   5.334   9.553   7.586  0.0993  0.3153 -0.2467
38093SOL    HW117810   5.324   9.613   7.660  0.3578 -0.2539  0.2564
38093SOL    HW217811   5.280   9.477   7.609  0.2951  0.0728 -0.5779
38094SOL     OW17812   3.027   7.376   5.085 -0.1915  0.0098 -0.1818
38094SOL    HW117813   3.107   7.330   5.060 -0.2950  0.0360 -0.5573
38094SOL    HW217814   3.057   7.463   5.113 -0.0584 -0.0826 -0.0318
38095SOL     OW17815   1.653   0.991   6.564 -0.4316  0.0140  0.6137
38095SOL    HW117816   1.725   1.048   6.537  0.4057 -1.2195  0.1424
38095SOL    HW217817   1.640   1.011   6.657  0.9064 -0.1198  0.8534
38096SOL     OW17818  10.212   4.175  10.091 -0.0780 -0.3671  0.3083
38096SOL    HW117819  10.288   4.232  10.081  0.4143 -0.8609  1.1179
38096SOL    HW217820  10.234   4.117  10.164 -0.5360 -1.6441 -0.5181
38097SOL     OW17821   1.210   9.658   1.019  0.4999 -0.2783 -0.1997
38097SOL    HW117822   1.217   9.668   0.924 -1.9097 -3.7219 -0.9220
38097SOL    HW217823   1.145   9.590   1.031 -1.4228  1.9372  4.0839
38098SOL     OW17824   1.430   4.707   9.971  0.1122  0.4624  0.3927
38098SOL    HW117825   1.397   4.788   9.934  0.3609  0.1164 -0.6069
38098SOL    HW217826   1.525   4.714   9.967  0.1412 -0.3573 -0.8129
38099SOL     OW17827   6.133   2.999   3.664 -0.5646  0.1452  0.0607
38099SOL    HW117828   6.039   2.989   3.654 -0.6275  1.9074 -1.8701
38099SOL    HW217829   6.165   2.913   3.691 -2.7125 -0.4400  0.8971
38100SOL     OW17830  10.590  10.171   2.710 -0.6870 -0.1566 -0.0663
38100SOL    HW117831  10.495  10.164   2.723 -0.8295  0.3346 -0.8052
38100SOL    HW217832  10.606  10.125   2.628 -0.5203  1.1553 -0.7847
38101SOL     OW17833   0.010   3.010   8.382 -0.2205 -0.1166  0.1338
38101SOL    HW117834   0.049   2.947   8.443 -1.7035 -0.1691  1.0643
38101SOL    HW217835   0.019   2.968   8.296  0.1065 -0.9467  0.5612
38102SOL     OW17836   2.452   0.067   8.515 -0.0174 -0.4721 -0.1694
38102SOL    HW117837   2.514   0.055   8.442 -1.2347  1.5197 -1.6294
38102SOL    HW217838   2.366   0.062   8.474 -0.9668 -3.3031  1.8493
38103SOL     OW17839   4.054   8.207   9.831  0.2155 -0.1263  0.0567
38103SOL    HW117840   4.146   8.211   9.859 -0.4887 -0.7130  2.7207
38103SOL    HW217841   4.004   8.208   9.913 -2.3459  3.2925 -1.3234
38104SOL     OW17842   9.863  10.144   3.798  0.2386  0.0506  0.0047
38104SOL    HW117843   9.953  10.163   3.771  0.2477 -0.3635 -0.2640
38104SOL    HW217844   9.815  10.133   3.716 -0.0308  0.1423  0.1486
38105SOL     OW17845   9.852   1.666   5.563  0.6171  0.1602 -0.1245
38105SOL    HW117846   9.940   1.634   5.581  0.5828 -0.5521 -1.1796
38105SOL    HW217847   9.851   1.754   5.602  2.1382  0.6053 -0.9928
38106SOL     OW17848   8.921   9.044   3.875 -0.2140 -0.2254 -0.7356
38106SOL    HW117849   8.893   8.960   3.912  1.9156 -0.9484 -0.6267
38106SOL    HW217850   8.988   9.020   3.810  1.1653  1.4154  0.0050
38107SOL     OW17851  10.360  10.604   4.856  0.1805  0.1689  0.0465
38107SOL    HW117852  10.283  10.597   4.913 -0.6936  0.7996 -1.0191
38107SOL    HW217853  10.381  10.513   4.834 -2.5888 -0.0113 -2.6069
38108SOL     OW17854  10.341   3.483   5.455 -0.3062  0.1788 -0.1391
38108SOL    HW117855  10.260   3.527   5.482 -0.3211  0.1076 -0.0649
38108SOL    HW217856  10.322   3.390   5.467  0.1006  0.1983  0.7796
38109SOL     OW17857   5.565   3.333   4.593 -0.2380  0.3163 -0.1595
38109SOL    HW117858   5.572   3.340   4.689 -3.2974 -0.0851  0.1997
38109SOL    HW217859   5.581   3.422   4.562  0.9959  0.4118  0.6632
38110SOL     OW17860   1.343   6.335   4.710  0.6381  0.9274  0.4487
38110SOL    HW117861   1.380   6.268   4.652  4.8661  1.1934  2.5218
38110SOL    HW217862   1.250   6.336   4.687  0.5315 -4.4407 -0.8589
38111SOL     OW17863   0.850   6.435   5.185  0.0847  0.2503 -0.2263
38111SOL    HW117864   0.943   6.415   5.172 -0.2232 -0.0730 -2.2911
38111SOL    HW217865   0.805   6.392   5.112 -1.5728  1.2668  0.1274
38112SOL     OW17866   9.272   7.219   1.920  0.1893 -0.3292  0.2398
38112SOL    HW117867   9.221   7.165   1.859 -0.6710  1.7359 -0.9799
38112SOL    HW217868   9.363   7.207   1.892 -0.0988 -0.2386 -0.7607
38113SOL     OW17869   5.899   9.201   2.885  0.0826  0.0733 -0.6807
38113SOL    HW117870   5.945   9.284   2.884 -0.5963  0.4511 -1.2786
38113SOL    HW217871   5.950   9.144   2.827  1.5473 -0.5069  1.0820
38114SOL     OW17872   6.938   0.328   7.556 -0.0990  0.2278 -0.2269
38114SOL    HW117873   6.918   0.269   7.628  0.6675  0.2704  0.0351
38114SOL    HW217874   7.034   0.327   7.551  0.1500  3.3757  1.4293
38115SOL     OW17875   8.599   1.637   7.920  0.7381 -0.5719  0.5431
38115SOL    HW117876   8.504   1.629   7.911  0.8097 -0.8148 -0.1225
38115SOL    HW217877   8.617   1.729   7.902  0.7977 -0.8984 -1.3187
38116SOL     OW17878   0.193   5.452   1.035  0.4623  0.0701  0.2634
38116SOL    HW117879   0.137   5.416   0.966  0.2380  0.0645  0.4476
38116SOL    HW217880   0.135   5.508   1.087  0.5580 -0.1660  0.6315
38117SOL     OW17881   1.965   4.035   0.677  0.2453 -0.2454 -0.7135
38117SOL    HW117882   2.011   3.951   0.684  0.0977 -0.4840 -2.2547
38117SOL    HW217883   2.014   4.094   0.735  0.1366 -1.4641  0.6866
38118SOL     OW17884  10.224   7.943   8.597  0.3404 -0.8124 -0.8425
38118SOL    HW117885  10.161   8.008   8.568  1.9440  1.1742 -0.1187
38118SOL    HW217886  10.179   7.894   8.666 -0.8495 -0.4001 -1.3111
38119SOL     OW17887   0.618   7.376   8.367  0.2537 -0.2367  0.3870
38119SOL    HW117888   0.617   7.471   8.377  0.2953 -0.0678 -1.0459
38119SOL    HW217889   0.684   7.346   8.430 -0.3802  0.5761  1.4932
38120SOL     OW17890   4.195   7.455   0.855 -0.0515 -0.1089 -0.3515
38120SOL    HW117891   4.187   7.541   0.896  1.8332  0.5710 -1.2782
38120SOL    HW217892   4.272   7.462   0.799 -0.1234 -2.2688 -0.8266
38121SOL     OW17893   7.834   0.119   1.346  0.5366  0.1103 -0.3234
38121SOL    HW117894   7.895   0.136   1.417  2.3758 -1.0258 -1.5660
38121SOL    HW217895   7.869   0.042   1.301 -1.6083 -0.3586 -1.3305
38122SOL     OW17896   1.885   4.392   7.444 -0.0360 -0.2237  0.0240
38122SOL    HW117897   1.964   4.431   7.481 -0.8435  0.0167  1.6009
38122SOL    HW217898   1.878   4.429   7.356  1.0134  0.5998  0.2673
38123SOL     OW17899   4.301   7.257   1.163 -0.3760 -0.0367 -0.0397
38123SOL    HW117900   4.264   7.344   1.180 -0.5716 -0.3485  1.1714
38123SOL    HW217901   4.228   7.208   1.122 -0.2108  0.4065 -0.8865
38124SOL     OW17902  10.559   3.987   5.920 -0.5775  0.6077  0.4662
38124SOL    HW117903  10.588   3.971   6.010  0.6350  1.1932  0.2113
38124SOL    HW217904  10.557   3.901   5.879  1.0790  0.5323  0.4560
38125SOL     OW17905  10.073   8.093   9.265  0.4356 -0.0392 -0.3519
38125SOL    HW117906   9.978   8.094   9.276  0.4233  0.8034 -0.4503
38125SOL    HW217907  10.092   8.173   9.215  1.2310 -0.0227 -0.0367
38126SOL     OW17908   4.357   2.240   4.313  0.1628 -0.0473  0.3644
38126SOL    HW117909   4.345   2.227   4.407 -0.0346 -0.2197  0.3138
38126SOL    HW217910   4.366   2.152   4.277 -0.4469 -0.0149  0.1250
38127SOL     OW17911   8.687   3.967   9.815 -0.4568  0.0023 -0.4219
38127SOL    HW117912   8.740   3.976   9.736 -1.4488  0.7007 -1.0230
38127SOL    HW217913   8.601   3.941   9.783 -0.0718 -3.0481  0.6457
38128SOL     OW17914   2.265   8.245  10.745 -0.0576 -0.0837  0.2989
38128SOL    HW117915   2.247   8.264  10.837  1.1257  0.3614  0.4526
38128SOL    HW217916   2.242   8.326  10.698 -1.5966 -0.6244  0.0443
38129SOL     OW17917   9.493   4.851   7.548  0.4885 -0.9118  0.5574
38129SOL    HW117918   9.499   4.800   7.628 -0.7617 -0.6614  0.8333
38129SOL    HW217919   9.550   4.805   7.486  1.0895 -1.3763  1.4448
38130SOL     OW17920   4.633   7.596   7.290  0.5291 -0.3686  0.7005
38130SOL    HW117921   4.673   7.674   7.330 -0.4076  0.1081  0.7288
38130SOL    HW217922   4.543   7.622   7.273  0.5478 -1.0185 -0.4855
38131SOL     OW17923   5.532   9.524   3.373 -0.1577  0.1058 -0.5095
38131SOL    HW117924   5.584   9.587   3.323  1.5805 -0.8934 -0.0497
38131SOL    HW217925   5.462   9.499   3.314 -0.1741  1.5295 -1.1548
38132SOL     OW17926   8.227   5.398   7.290 -0.5107  0.8089 -0.2320
38132SOL    HW117927   8.251   5.487   7.316 -0.3138  0.1020  2.3058
38132SOL    HW217928   8.310   5.350   7.288 -0.7280  0.4352 -0.5415
38133SOL     OW17929   1.094   3.847   5.240 -0.0218 -0.7361 -0.2541
38133SOL    HW117930   1.111   3.928   5.290 -0.5151 -0.3136 -0.7503
38133SOL    HW217931   1.030   3.800   5.293 -0.1786 -0.5178 -0.2477
38134SOL     OW17932   6.231   4.706   9.102  0.0827  0.2177 -0.0576
38134SOL    HW117933   6.148   4.740   9.137 -0.0668 -0.0660 -0.1359
38134SOL    HW217934   6.223   4.717   9.007 -0.0321 -0.1796 -0.0969
38135SOL     OW17935   7.462   7.358   1.339 -0.1832 -0.1367 -0.2939
38135SOL    HW117936   7.406   7.433   1.323 -0.2617 -0.0963  0.1828
38135SOL    HW217937   7.486   7.364   1.431  1.1747  0.2450 -0.6499
38136SOL     OW17938   3.324   8.338  10.948 -0.0463  0.2405 -0.0604
38136SOL    HW117939   3.279   8.420  10.965  1.7990  0.8718  2.2728
38136SOL    HW217940   3.395   8.361  10.889  0.4858  0.3793  0.6127
38137SOL     OW17941   3.284  10.006   3.253  0.2068 -0.1915 -0.6473
38137SOL    HW117942   3.245   9.922   3.229  1.0527 -0.5411 -0.8597
38137SOL    HW217943   3.343   9.985   3.326  0.0715  0.3045 -0.3885
38138SOL     OW17944   3.844   5.164   6.990  0.3769 -0.0471 -0.2625
38138SOL    HW117945   3.762   5.211   7.000  1.1766  1.6013 -1.1454
38138SOL    HW217946   3.818   5.073   6.971 -1.1944  0.1224  0.9363
38139SOL     OW17947   6.636   9.100   9.707 -0.2993  0.0694  0.0767
38139SOL    HW117948   6.645   9.048   9.787 -1.1151 -0.9477 -0.4706
38139SOL    HW217949   6.546   9.134   9.711  0.1227  1.1960  0.2717
38140SOL     OW17950   1.706   2.952   9.910  0.3382 -0.1085 -0.2860
38140SOL    HW117951   1.783   2.963   9.853  0.8389  0.9920  0.5815
38140SOL    HW217952   1.742   2.944   9.998 -0.5507  1.0438  0.2117
38141SOL     OW17953   9.994   3.295   4.737  0.1141  0.3083  0.1052
38141SOL    HW117954  10.053   3.365   4.708 -0.5008  1.5073  1.6108
38141SOL    HW217955  10.014   3.284   4.830 -2.7344  1.5483  0.9595
38142SOL     OW17956   3.627   3.762   6.480  0.5337  0.4271  0.0554
38142SOL    HW117957   3.722   3.768   6.490  0.8375  3.3381 -2.7538
38142SOL    HW217958   3.614   3.702   6.407  0.1406 -0.3567  0.7557
38143SOL     OW17959   4.718   8.706   2.627  0.8972 -0.2586  0.2079
38143SOL    HW117960   4.777   8.682   2.698 -1.2106 -1.7788  1.5358
38143SOL    HW217961   4.655   8.766   2.666 -0.2392 -1.0446 -0.3389
38144SOL     OW17962   1.995   6.650   9.020 -0.1809 -0.4995  0.3561
38144SOL    HW117963   1.919   6.598   9.045 -0.0006  0.1047  2.3412
38144SOL    HW217964   1.975   6.680   8.931 -1.1863 -2.2527 -0.0435
38145SOL     OW17965   9.101   5.863   2.972  0.0270  0.0593 -0.1029
38145SOL    HW117966   9.125   5.893   3.060 -2.0240  4.1158 -0.6798
38145SOL    HW217967   9.183   5.830   2.934  1.2583 -0.4155  2.7551
38146SOL     OW17968   4.260   7.854   4.417  0.4544  0.3158  0.3090
38146SOL    HW117969   4.349   7.822   4.400  0.4196 -0.2454  1.1428
38146SOL    HW217970   4.208   7.774   4.427 -0.1584  0.6412 -0.2015
38147SOL     OW17971   3.597   9.968   4.949  0.2641  0.0312  0.0207
38147SOL    HW117972   3.530   9.973   4.881  1.2097  0.8473 -0.8763
38147SOL    HW217973   3.600   9.875   4.973  0.4043 -0.4142 -1.5737
38148SOL     OW17974   4.973   4.976   0.264  0.6249 -0.1453  0.5221
38148SOL    HW117975   4.931   4.896   0.295 -0.8832  0.8555  1.1958
38148SOL    HW217976   5.061   4.973   0.302  0.6199 -1.4827  0.4968
38149SOL     OW17977   0.772   7.502   3.004  0.1192 -0.2094  0.4392
38149SOL    HW117978   0.752   7.548   3.086  0.6890  0.4194  0.2332
38149SOL    HW217979   0.735   7.414   3.016  2.1598 -0.9103  2.3003
38150SOL     OW17980   9.736   9.557   0.499 -0.3134 -0.3163  0.1046
38150SOL    HW117981   9.820   9.514   0.482 -1.9832 -3.5544 -0.8427
38150SOL    HW217982   9.717   9.535   0.591  0.3318  1.4552  0.7108
38151SOL     OW17983   6.454   9.005   0.327  0.7667  0.2932 -0.5310
38151SOL    HW117984   6.548   9.005   0.308  0.8776 -0.6297 -0.0154
38151SOL    HW217985   6.438   8.920   0.367 -0.1171  0.8097  0.2414
38152SOL     OW17986   7.409  10.318   4.364  0.3001 -0.5030 -0.8037
38152SOL    HW117987   7.404  10.350   4.274  0.5701 -0.5224 -0.8238
38152SOL    HW217988   7.324  10.342   4.401  1.3419  2.5129 -0.0720
38153SOL     OW17989   2.203   0.363  10.026  0.5238  0.2215 -0.0330
38153SOL    HW117990   2.286   0.333  10.062  0.3830 -0.4490 -0.2452
38153SOL    HW217991   2.187   0.448  10.068  1.3547  0.3968 -0.0585
38154SOL     OW17992   1.762   3.947   8.389 -0.7775  0.4514 -0.0816
38154SOL    HW117993   1.775   3.911   8.477 -0.1572 -0.3251 -0.4714
38154SOL    HW217994   1.693   3.892   8.351 -0.6110  0.3864 -0.2908
38155SOL     OW17995   9.604   7.724   8.361 -0.0899 -0.6836 -0.3120
38155SOL    HW117996   9.576   7.676   8.439 -3.6326  0.2215 -0.8711
38155SOL    HW217997   9.597   7.817   8.386 -1.6931 -0.3696 -1.7485
38156SOL     OW17998   7.608   9.419   0.700  0.2209 -0.2413  0.7477
38156SOL    HW117999   7.576   9.501   0.737 -0.8347 -0.3788  0.1709
38156SOL    HW218000   7.623   9.363   0.776 -0.6110 -0.0558  1.0601
38157SOL     OW18001  10.037  10.263   9.549  0.8374  0.6568 -0.0353
38157SOL    HW118002  10.028  10.223   9.635  0.6266  1.6796  0.4383
38157SOL    HW218003  10.007  10.353   9.562 -2.1533  0.0688 -1.8400
38158SOL     OW18004   0.370   0.346   1.276  0.5341  0.1464  0.0220
38158SOL    HW118005   0.435   0.284   1.242 -0.0974 -0.4808 -0.0656
38158SOL    HW218006   0.368   0.329   1.370  0.7749  0.4350  0.0798
38159SOL     OW18007   5.575   5.284   6.846  0.0564  0.6333  0.3988
38159SOL    HW118008   5.617   5.323   6.923 -0.9573  1.6648  0.4461
38159SOL    HW218009   5.648   5.262   6.789  0.7960  0.3573  1.4109
38160SOL     OW18010  10.724   4.314   1.946 -0.4956  0.0461  0.3488
38160SOL    HW118011  10.755   4.223   1.943  0.2654  0.2730  1.1032
38160SOL    HW218012  10.756   4.348   2.029 -0.2589  1.1931 -0.1887
38161SOL     OW18013   9.045   2.248  10.538  0.1593 -0.4009  0.3313
38161SOL    HW118014   8.959   2.226  10.574 -0.2679 -0.1184 -0.4874
38161SOL    HW218015   9.053   2.195  10.459 -0.4952  1.6053 -1.1700
38162SOL     OW18016   6.352   8.598   4.273 -0.6234  0.0980 -0.7784
38162SOL    HW118017   6.316   8.510   4.284  0.8089 -0.5730 -1.1774
38162SOL    HW218018   6.418   8.606   4.342 -0.9674  0.9869 -0.5415
38163SOL     OW18019   6.662   3.501   7.441  0.1291  0.1052 -0.6292
38163SOL    HW118020   6.571   3.474   7.450 -0.4029  1.7144 -0.8182
38163SOL    HW218021   6.680   3.552   7.520  1.0917 -0.7105 -0.2884
38164SOL     OW18022   2.248   4.537   3.413 -0.0328  0.2292 -0.0149
38164SOL    HW118023   2.211   4.618   3.379  0.0669 -0.2058 -1.1902
38164SOL    HW218024   2.189   4.512   3.484 -2.0193 -0.3987 -1.7691
38165SOL     OW18025   7.443   3.108   8.228 -0.0044 -0.3594 -0.4579
38165SOL    HW118026   7.472   3.071   8.144  1.2842 -1.1510  0.2948
38165SOL    HW218027   7.495   3.061   8.293 -0.6328  0.5920  0.7559
38166SOL     OW18028  10.721   3.722   9.210 -0.1298  0.1038  0.1259
38166SOL    HW118029  10.777   3.787   9.169  0.4255  0.6824  1.7181
38166SOL    HW218030  10.645   3.772   9.241 -0.2777 -0.2161  0.2916
38167SOL     OW18031   3.982   3.640   6.141 -0.3013  0.0041  0.0966
38167SOL    HW118032   3.996   3.647   6.047 -0.0553  1.6098  0.2225
38167SOL    HW218033   3.946   3.553   6.154 -0.0282 -0.3566 -1.4440
38168SOL     OW18034   9.698   3.503   9.816 -0.2879  0.0841  0.0412
38168SOL    HW118035   9.648   3.494   9.898 -0.9303 -0.5260 -0.4043
38168SOL    HW218036   9.653   3.445   9.755 -0.3032  1.1473 -0.9786
38169SOL     OW18037   0.405   0.524   9.914 -0.3876  0.3569  0.4831
38169SOL    HW118038   0.486   0.576   9.921  1.0034 -1.6268  0.0030
38169SOL    HW218039   0.401   0.500   9.821 -0.3973 -1.2387  0.8688
38170SOL     OW18040   8.222   5.981   3.578 -0.6823  0.3659 -0.3022
38170SOL    HW118041   8.276   5.936   3.643 -0.7440 -0.2978 -0.7024
38170SOL    HW218042   8.145   6.011   3.627 -0.3149  0.6563  0.1099
38171SOL     OW18043   4.618   5.224   4.938 -0.9003 -0.1648 -0.3139
38171SOL    HW118044   4.592   5.134   4.959 -2.2785  0.0818 -0.8242
38171SOL    HW218045   4.654   5.219   4.850 -0.1124 -0.3457  0.0072
38172SOL     OW18046   5.210   5.636   6.222 -0.2237  0.0213  0.8500
38172SOL    HW118047   5.285   5.694   6.239 -0.4520  0.4238  0.4976
38172SOL    HW218048   5.168   5.627   6.308  0.2578 -0.2541  1.0628
38173SOL     OW18049   6.573   2.472   9.289  0.3486 -0.4286  0.2470
38173SOL    HW118050   6.503   2.456   9.351 -0.5054  0.3476 -0.4781
38173SOL    HW218051   6.631   2.534   9.333  0.4805 -0.9113  0.7666
38174SOL     OW18052   4.503   7.722   0.435 -0.0714 -0.8432 -0.1763
38174SOL    HW118053   4.469   7.753   0.519  2.6293 -1.0994  1.1451
38174SOL    HW218054   4.479   7.629   0.432 -0.8917 -0.6406 -0.1003
38175SOL     OW18055   1.719   2.421   1.488 -0.1794 -0.4590  0.2899
38175SOL    HW118056   1.706   2.435   1.394 -1.7004 -2.5472  0.1152
38175SOL    HW218057   1.657   2.481   1.530  0.6645  0.6461  0.0049
38176SOL     OW18058   6.138   1.115   0.211  0.1192  0.6838 -0.5887
38176SOL    HW118059   6.178   1.172   0.146  0.1718  0.5861 -0.6414
38176SOL    HW218060   6.143   1.165   0.293 -1.2742  1.4279 -0.9276
38177SOL     OW18061   4.843   3.483   1.282  0.3526  0.2972  0.1760
38177SOL    HW118062   4.907   3.482   1.353 -0.1302 -0.6411  0.6230
38177SOL    HW218063   4.810   3.393   1.279 -0.9443  0.7672 -0.0480
38178SOL     OW18064   8.513   6.786  10.236 -1.2485 -0.5585 -0.1671
38178SOL    HW118065   8.601   6.757  10.260 -1.2487 -0.0089  0.4954
38178SOL    HW218066   8.497   6.744  10.151  0.3969  0.8408 -1.2411
38179SOL     OW18067   9.340   2.822   6.816  0.0323 -0.0057 -0.1919
38179SOL    HW118068   9.422   2.868   6.800  0.6764 -0.9676  0.2688
38179SOL    HW218069   9.291   2.831   6.734  0.7349  0.2904 -0.5830
38180SOL     OW18070   5.272   7.979   7.648  0.5311  0.1005  0.1759
38180SOL    HW118071   5.320   8.031   7.713  1.8861  0.0983 -0.7744
38180SOL    HW218072   5.182   8.010   7.653  0.9870  1.3737  0.7900
38181SOL     OW18073   0.627   7.162   9.917 -0.3480  0.2248  0.1553
38181SOL    HW118074   0.571   7.104   9.969  0.2462  1.0056  1.7473
38181SOL    HW218075   0.710   7.115   9.909 -0.5137  0.0037 -0.3195
38182SOL     OW18076   7.924   3.557   3.948  1.3628  0.4546 -0.3435
38182SOL    HW118077   7.927   3.466   3.979  0.2827  0.0439 -1.3553
38182SOL    HW218078   8.014   3.577   3.924  1.8042  0.0177  0.8551
38183SOL     OW18079   2.179   1.117   7.961 -0.0585 -0.3207 -0.7818
38183SOL    HW118080   2.093   1.144   7.928  0.1607 -1.2610 -2.2055
38183SOL    HW218081   2.239   1.141   7.891  0.9246  0.7047  0.3705
38184SOL     OW18082   9.121   6.903   0.106 -0.4134 -0.0225 -0.6092
38184SOL    HW118083   9.083   6.821   0.139  2.3800 -1.9694 -1.7793
38184SOL    HW218084   9.058   6.933   0.040 -2.1317 -0.4754  0.7418
38185SOL     OW18085   1.574   4.870   5.462  0.4560  0.2768  0.8469
38185SOL    HW118086   1.589   4.883   5.369  2.7442  1.3861  1.3114
38185SOL    HW218087   1.586   4.776   5.475  0.6714  0.1948  0.1092
38186SOL     OW18088   4.853   4.364   4.407  0.2549  0.0678  0.1601
38186SOL    HW118089   4.775   4.309   4.411  0.1436  0.0946 -1.0932
38186SOL    HW218090   4.923   4.305   4.379  0.2850  0.3955 -0.4896
38187SOL     OW18091   3.153   8.100   6.258 -0.1040  0.5631  0.4378
38187SOL    HW118092   3.153   8.077   6.351  1.6733  2.7251  1.0851
38187SOL    HW218093   3.114   8.025   6.214 -2.3250  0.0452  3.0306
38188SOL     OW18094   0.756   9.868   9.652  0.5307 -0.3432 -0.4084
38188SOL    HW118095   0.789   9.779   9.657  3.8851  0.7495 -0.7687
38188SOL    HW218096   0.834   9.923   9.651 -1.3907  2.6267 -0.2789
38189SOL     OW18097   6.616   8.175  10.682  0.1350  0.1734 -0.2804
38189SOL    HW118098   6.660   8.180  10.597  1.9210 -2.0157  0.4050
38189SOL    HW218099   6.524   8.191  10.662  1.0013  4.4260 -1.8708
38190SOL     OW18100   5.814   2.919   3.259  0.4041 -0.3087  0.1908
38190SOL    HW118101   5.724   2.909   3.228  0.1736 -0.0401  0.7496
38190SOL    HW218102   5.868   2.884   3.189 -0.0771  0.6533 -0.6937
38191SOL     OW18103   9.621  10.259   3.278 -0.3631  0.3180 -0.2200
38191SOL    HW118104   9.673  10.319   3.331 -0.1011 -1.0072  1.0807
38191SOL    HW218105   9.531  10.289   3.289 -0.2682  0.3071  0.6553
38192SOL     OW18106   6.156   8.293   5.397  0.3616 -0.0063 -0.5908
38192SOL    HW118107   6.238   8.336   5.422  0.4301 -0.6358  0.3382
38192SOL    HW218108   6.133   8.240   5.474  0.9455 -2.5919 -2.0648
38193SOL     OW18109   2.823   5.219   3.123 -0.2971  0.3561 -0.5035
38193SOL    HW118110   2.756   5.157   3.096 -1.6126  0.9648  1.1942
38193SOL    HW218111   2.799   5.301   3.080 -0.5290  0.5147 -0.0812
38194SOL     OW18112   3.976   9.864  10.591 -0.6655 -0.4492  0.0117
38194SOL    HW118113   3.986   9.892  10.682  2.5802 -0.2820 -0.2752
38194SOL    HW218114   3.940   9.940  10.546  0.2230  0.4165  0.7228
38195SOL     OW18115  10.201   4.723   6.943 -0.7174  0.1127 -0.0310
38195SOL    HW118116  10.133   4.758   6.886 -0.2617 -0.9693 -1.3091
38195SOL    HW218117  10.213   4.632   6.913  1.8252  0.4883 -0.4216
38196SOL     OW18118   4.223   0.097   3.236  0.3218  0.3578 -0.1342
38196SOL    HW118119   4.214   0.009   3.199 -2.0436  0.5702 -0.2370
38196SOL    HW218120   4.238   0.153   3.160  1.4221  0.1126 -0.1109
38197SOL     OW18121   0.360   7.004   2.188  0.0844 -0.6039 -0.0239
38197SOL    HW118122   0.326   7.000   2.278 -0.2027 -2.0095 -0.1727
38197SOL    HW218123   0.311   6.937   2.141 -1.1484  1.3621 -1.7432
38198SOL     OW18124   6.521  10.884   6.520 -0.0938  0.0885 -0.1213
38198SOL    HW118125   6.569  10.942   6.461 -2.0214  0.4920 -1.4105
38198SOL    HW218126   6.522  10.799   6.478  0.0340 -0.0531  0.1644
38199SOL     OW18127   7.817   1.018  10.228  0.0084  0.2502  0.4305
38199SOL    HW118128   7.868   0.940  10.248  0.8616  0.2109 -1.6630
38199SOL    HW218129   7.812   1.065  10.311  1.9001 -0.6465  1.1066
38200SOL     OW18130   1.872   3.020   2.150  0.9641  0.2084 -0.0139
38200SOL    HW118131   1.933   2.948   2.166  0.2475 -0.6117 -0.8214
38200SOL    HW218132   1.818   3.025   2.229  1.2731  0.1246  0.2030
38201SOL     OW18133   7.194   8.751   8.697 -0.1309 -0.3596 -0.4724
38201SOL    HW118134   7.276   8.797   8.680 -0.6801 -0.1284 -2.8512
38201SOL    HW218135   7.134   8.819   8.727  0.0229 -0.1765 -0.5809
38202SOL     OW18136   4.160   8.981   1.851 -0.6847  0.0494  0.5655
38202SOL    HW118137   4.205   8.902   1.820 -2.0778 -1.2136  1.6462
38202SOL    HW218138   4.228   9.030   1.898  0.1526 -0.5884  0.0477
38203SOL     OW18139   4.134   5.661   0.057  0.0158 -0.2273 -0.1008
38203SOL    HW118140   4.040   5.645   0.054 -0.1585  0.4927  0.9478
38203SOL    HW218141   4.172   5.573   0.070 -0.5968 -0.4027  0.6184
38204SOL     OW18142   2.330   5.157   2.997 -0.2036 -0.4827 -0.6859
38204SOL    HW118143   2.339   5.103   2.918 -0.0125 -1.3690 -0.0763
38204SOL    HW218144   2.241   5.139   3.028 -0.5708  0.5097 -1.1598
38205SOL     OW18145   2.203   9.524   6.733  0.1599  0.5091  0.1430
38205SOL    HW118146   2.199   9.429   6.730 -0.3857  0.4655  1.5427
38205SOL    HW218147   2.281   9.547   6.682 -0.1430 -0.6257 -0.8663
38206SOL     OW18148   1.117   6.204   0.165  0.7153  0.0797  0.4375
38206SOL    HW118149   1.067   6.279   0.131 -1.2739 -0.9047  0.9976
38206SOL    HW218150   1.126   6.146   0.089  0.0024 -0.2336  0.5848
38207SOL     OW18151   2.141   1.793   2.906  0.3833 -0.7362 -0.1204
38207SOL    HW118152   2.095   1.709   2.903 -1.2017  0.0811  0.3431
38207SOL    HW218153   2.232   1.770   2.927 -0.2306 -2.2686  1.0522
38208SOL     OW18154   7.768   2.300   3.342 -0.2335  0.3919  0.1000
38208SOL    HW118155   7.825   2.268   3.413  0.2004  0.3091 -0.2822
38208SOL    HW218156   7.827   2.311   3.267 -0.7617  0.1203 -0.3571
38209SOL     OW18157   3.327   5.937  10.524 -0.0655 -0.3052  0.4338
38209SOL    HW118158   3.322   6.031  10.508  0.1485 -0.0851  1.6082
38209SOL    HW218159   3.257   5.900  10.470 -0.1321  0.5127 -0.0588
38210SOL     OW18160   3.161   1.652   3.963 -0.2460 -0.5673  0.3990
38210SOL    HW118161   3.188   1.730   4.010 -0.4517 -0.6659  0.6798
38210SOL    HW218162   3.120   1.596   4.029  0.2739 -1.0921  0.2845
38211SOL     OW18163   8.446   8.426   0.489  0.3268 -0.5989 -0.1956
38211SOL    HW118164   8.490   8.455   0.409 -2.1481 -1.1886 -1.8876
38211SOL    HW218165   8.446   8.331   0.483 -0.9970 -0.6133 -0.1876
38212SOL     OW18166   2.161   6.752   5.748  0.4185  0.3293  0.0233
38212SOL    HW118167   2.065   6.752   5.744  0.3681  0.7019  0.9238
38212SOL    HW218168   2.181   6.739   5.841  1.2539 -0.2596 -0.2251
38213SOL     OW18169   1.557  10.836   4.361  0.0846 -0.1183  0.0761
38213SOL    HW118170   1.536  10.856   4.269  0.3347  0.7822  0.2095
38213SOL    HW218171   1.605  10.753   4.356 -0.5935 -0.4972 -0.5293
38214SOL     OW18172   0.081   6.863   0.005 -0.1861 -0.5596  0.1866
38214SOL    HW118173   0.099   6.771  -0.013 -1.9960 -0.4216 -3.0185
38214SOL    HW218174   0.017   6.862   0.077  0.2173 -1.7355  0.5475
38215SOL     OW18175   1.313   0.410   7.814  0.3967 -0.0855  0.6417
38215SOL    HW118176   1.281   0.393   7.726 -1.1048  0.7307  0.9919
38215SOL    HW218177   1.399   0.367   7.818  0.3287 -0.4303 -1.0823
38216SOL     OW18178   2.533   4.441   8.943 -1.1298  0.2530 -0.9144
38216SOL    HW118179   2.554   4.533   8.960  1.0121 -0.1135 -1.2287
38216SOL    HW218180   2.462   4.421   9.003 -0.2229  1.5640  0.6823
38217SOL     OW18181   9.769   2.492   6.625 -0.1228 -0.0012 -0.4799
38217SOL    HW118182   9.811   2.578   6.637 -0.7332  0.4780 -1.5944
38217SOL    HW218183   9.682   2.503   6.664 -1.0038  0.6144 -2.4838
38218SOL     OW18184   2.569   8.629  10.880  0.1792  0.4646  0.1364
38218SOL    HW118185   2.589   8.661  10.792  1.2914 -0.0514  0.1835
38218SOL    HW218186   2.609   8.542  10.884 -2.2235 -0.7219  0.2344
38219SOL     OW18187   1.311   5.579   1.919 -0.0530 -0.3857 -0.0316
38219SOL    HW118188   1.245   5.540   1.863  0.8517 -1.7603 -0.1826
38219SOL    HW218189   1.383   5.516   1.920  1.1002  0.8691  0.4449
38220SOL     OW18190   6.681   1.269   7.250  0.2854 -0.4956 -0.7452
38220SOL    HW118191   6.629   1.276   7.330 -1.3579  0.9382 -1.8572
38220SOL    HW218192   6.766   1.307   7.274  0.1257 -0.9142  0.5492
38221SOL     OW18193   7.388   8.310   1.782 -0.1235 -0.0539 -0.3069
38221SOL    HW118194   7.392   8.399   1.747 -0.6027 -0.4831 -1.4900
38221SOL    HW218195   7.312   8.310   1.841  0.1751  0.4396  0.0865
38222SOL     OW18196  11.000   5.869   9.652 -0.5133 -0.1168  0.0023
38222SOL    HW118197  11.003   5.784   9.696  2.4504 -1.1666 -1.9525
38222SOL    HW218198  10.946   5.853   9.574 -2.1975  0.6079  0.9566
38223SOL     OW18199   7.800   9.217   5.243 -0.3954  0.4280  0.0866
38223SOL    HW118200   7.766   9.302   5.214 -0.0957  0.3180 -0.6236
38223SOL    HW218201   7.752   9.198   5.323  1.0952  2.2913  1.5074
38224SOL     OW18202   1.936   9.541   5.968 -0.3379 -0.2553  0.1890
38224SOL    HW118203   1.899   9.591   6.040 -0.3816  0.1841 -0.1336
38224SOL    HW218204   2.006   9.489   6.008 -1.2955 -1.1073  0.8050
38225SOL     OW18205   2.964   8.811   6.648 -0.4325  0.5065 -0.3456
38225SOL    HW118206   2.960   8.845   6.559 -0.2977  0.3793 -0.3997
38225SOL    HW218207   2.922   8.879   6.701  2.5573  2.2257 -0.0182
38226SOL     OW18208   8.330   1.157   0.881  0.3888 -0.4356  1.0228
38226SOL    HW118209   8.316   1.235   0.827  0.7322  0.4343  2.1609
38226SOL    HW218210   8.424   1.157   0.899  0.4563 -1.3441  0.7149
38227SOL     OW18211   4.482   8.041   2.109  0.1045  0.1382  0.4759
38227SOL    HW118212   4.540   8.092   2.053  0.6453 -0.9280  0.0243
38227SOL    HW218213   4.401   8.034   2.059  1.1383 -2.2417 -1.0204
38228SOL     OW18214   5.792   1.368   2.841  0.6672 -0.5478  0.1445
38228SOL    HW118215   5.860   1.319   2.795  0.8172  0.5392 -0.8538
38228SOL    HW218216   5.714   1.313   2.837  0.9008 -0.8197 -0.7155
38229SOL     OW18217   9.953   3.626   7.454  0.6874  0.5009 -0.2516
38229SOL    HW118218   9.866   3.661   7.473  0.7137  0.5710 -0.2600
38229SOL    HW218219   9.965   3.644   7.360 -0.3552 -1.8281 -0.8959
38230SOL     OW18220   7.747   4.811   0.570 -0.4113  0.1532  0.6345
38230SOL    HW118221   7.811   4.775   0.508  0.1915 -1.6439  2.2156
38230SOL    HW218222   7.726   4.898   0.534  3.0691  0.9314  0.1140
38231SOL     OW18223   4.913  11.051   7.037  0.2810 -0.3045  0.3998
38231SOL    HW118224   4.962  10.972   7.060  0.0471 -0.7152 -0.4683
38231SOL    HW218225   4.863  11.072   7.116  0.6002 -0.8265  0.7480
38232SOL     OW18226   0.896   5.038   6.004  0.1458 -0.3549 -0.4900
38232SOL    HW118227   0.919   4.971   5.939 -0.2082  0.0506 -1.0482
38232SOL    HW218228   0.895   5.120   5.954 -2.4534 -0.3215 -0.5462
38233SOL     OW18229   8.032   7.970   0.760 -0.2138 -0.5047  0.4235
38233SOL    HW118230   7.940   7.944   0.762 -0.1258 -0.8177  0.3364
38233SOL    HW218231   8.031   8.059   0.723 -0.5776 -0.0877  1.4136
38234SOL     OW18232   2.995   2.971   6.370 -0.1588 -0.4876 -0.2891
38234SOL    HW118233   3.027   2.901   6.313  1.0423 -1.4232  1.4547
38234SOL    HW218234   3.067   3.034   6.373 -0.0267 -0.6649  0.5235
38235SOL     OW18235  10.795   6.287   5.747 -0.0219  0.2631 -0.3508
38235SOL    HW118236  10.819   6.281   5.840 -0.0440  0.6422 -0.3153
38235SOL    HW218237  10.805   6.199   5.713  1.6898  0.4354 -0.3951
38236SOL     OW18238   0.192   8.697   4.716  0.0551  0.6351 -0.1098
38236SOL    HW118239   0.211   8.789   4.733  0.8217  0.7938 -1.6492
38236SOL    HW218240   0.172   8.660   4.802 -0.0833  2.1863  0.5595
38237SOL     OW18241  10.653  10.552   9.043  0.1315 -0.0748 -0.1244
38237SOL    HW118242  10.673  10.467   9.082 -2.9402 -0.3411  1.2082
38237SOL    HW218243  10.582  10.533   8.981 -1.1423  1.5661  0.7726
38238SOL     OW18244   0.103   1.926   4.891 -0.2258 -0.2447  0.6163
38238SOL    HW118245   0.040   1.865   4.929 -0.0280  1.1361  3.4255
38238SOL    HW218246   0.050   1.998   4.857 -0.2903 -0.5234  0.1119
38239SOL     OW18247   1.841   5.578   7.242  0.1250  0.5063  0.0268
38239SOL    HW118248   1.858   5.589   7.149 -3.4729 -0.1152 -0.8710
38239SOL    HW218249   1.799   5.492   7.248 -0.0652  0.7045  2.1544
38240SOL     OW18250   8.414  10.339   1.389 -0.3640 -0.3053 -0.1188
38240SOL    HW118251   8.356  10.402   1.346 -1.0701 -0.9843 -0.1841
38240SOL    HW218252   8.486  10.326   1.327 -0.5270 -0.0287 -0.3663
38241SOL     OW18253   5.879   6.326  10.733  0.1580 -0.5801  0.0906
38241SOL    HW118254   5.944   6.380  10.688 -0.1857 -1.0629 -1.0131
38241SOL    HW218255   5.929   6.282  10.802  1.3507 -2.0330 -1.6086
38242SOL     OW18256   6.127   6.056   7.890 -0.1985  0.1424  0.0737
38242SOL    HW118257   6.039   6.078   7.860 -0.9642 -0.5181  1.7057
38242SOL    HW218258   6.123   6.064   7.986  0.7459 -2.4744  0.4175
38243SOL     OW18259   9.196   2.999   5.543  0.0289  0.0030  0.1126
38243SOL    HW118260   9.276   3.033   5.582 -0.4969  0.8292  0.5270
38243SOL    HW218261   9.190   2.909   5.574  0.3916  0.1830  0.7324
38244SOL     OW18262   9.315   1.446   0.155 -0.3304  0.0970 -0.4909
38244SOL    HW118263   9.235   1.474   0.200  0.2892  1.0401  0.0379
38244SOL    HW218264   9.316   1.351   0.165 -0.1051  0.2928  1.6987
38245SOL     OW18265   0.270   2.391   4.519  0.0662 -0.1101 -0.0785
38245SOL    HW118266   0.332   2.458   4.492  1.1949 -1.0060  0.1904
38245SOL    HW218267   0.186   2.437   4.527  0.3254  0.8006 -2.0443
38246SOL     OW18268   6.220   7.412   4.559  0.2478  0.3713 -0.2108
38246SOL    HW118269   6.185   7.425   4.647 -1.9236  0.5957 -1.0555
38246SOL    HW218270   6.260   7.325   4.562 -1.7236 -0.5722  0.4543
38247SOL     OW18271   2.694   4.782   1.712 -0.2036  0.9197 -0.0726
38247SOL    HW118272   2.721   4.713   1.771 -0.7241  0.2137 -0.6410
38247SOL    HW218273   2.755   4.854   1.728  1.7633 -0.4573 -1.0281
38248SOL     OW18274   8.587   8.356   2.092 -0.2247 -0.3593  0.2353
38248SOL    HW118275   8.523   8.391   2.031  0.5952  3.4219  1.2815
38248SOL    HW218276   8.670   8.360   2.045 -0.0616 -0.5257  0.5042
38249SOL     OW18277   2.748   9.927   9.761  0.0375  0.2108  0.1475
38249SOL    HW118278   2.675   9.938   9.699 -0.1547  2.0173  0.6303
38249SOL    HW218279   2.792   9.847   9.732 -0.9122  0.2019 -1.4168
38250SOL     OW18280   8.810   1.250   9.308  0.1812 -0.2097  0.1278
38250SOL    HW118281   8.858   1.257   9.226  0.2650  1.4912  0.2715
38250SOL    HW218282   8.734   1.307   9.295  0.5543  0.6336  1.4496
38251SOL     OW18283   5.286   7.603   5.208  0.2785  0.3026 -0.2824
38251SOL    HW118284   5.335   7.605   5.126 -0.6737  0.5379 -0.8698
38251SOL    HW218285   5.307   7.685   5.251 -0.6496  1.0452 -1.1890
38252SOL     OW18286   0.813   5.357   6.598  0.5635 -0.1539  0.0658
38252SOL    HW118287   0.815   5.450   6.618 -0.0123 -0.4902  1.9063
38252SOL    HW218288   0.889   5.321   6.644 -0.8283 -0.9692  1.8817
38253SOL     OW18289   9.662  10.330  10.786  0.7760  0.5488 -0.1565
38253SOL    HW118290   9.638  10.255  10.840  2.4545  0.9548  1.2168
38253SOL    HW218291   9.639  10.407  10.839 -0.3767  1.0269 -1.3007
38254SOL     OW18292   5.854  10.911   0.443 -0.0415 -0.3558  0.2589
38254SOL    HW118293   5.824  10.996   0.411  1.4083 -0.5925 -1.9342
38254SOL    HW218294   5.949  10.919   0.449  0.0791 -1.6807  0.4443
38255SOL     OW18295   0.683   7.741   2.622  0.1486 -0.2841 -0.4183
38255SOL    HW118296   0.654   7.832   2.611  0.3168 -0.3860 -1.7934
38255SOL    HW218297   0.708   7.713   2.535  3.6281 -0.4975  0.5142
38256SOL     OW18298   8.805   2.100   7.706  0.1285 -0.3853 -0.5566
38256SOL    HW118299   8.721   2.141   7.684 -0.2265 -0.3114  0.8161
38256SOL    HW218300   8.838   2.153   7.779  0.2781 -1.7348  0.3977
38257SOL     OW18301   5.636   9.652   2.549  0.5345 -0.1654 -0.1131
38257SOL    HW118302   5.657   9.559   2.557 -0.0100 -0.2581  0.2933
38257SOL    HW218303   5.621   9.682   2.639 -1.2875 -0.1720 -0.3763
38258SOL     OW18304   9.392   3.453   6.689  0.2979 -0.0325 -0.0241
38258SOL    HW118305   9.329   3.388   6.660 -1.1929  0.6506  1.4931
38258SOL    HW218306   9.430   3.415   6.768 -1.2776  1.2314  1.4322
38259SOL     OW18307   5.561  10.713   8.712  0.2321  0.1292  0.2192
38259SOL    HW118308   5.523  10.712   8.625  0.4664  0.8099  0.1035
38259SOL    HW218309   5.487  10.723   8.772  0.1406  0.4596  0.0512
38260SOL     OW18310   8.914   2.896   7.954 -0.3804 -0.0013 -0.6038
38260SOL    HW118311   8.983   2.898   8.021  0.9889 -0.6568 -1.9320
38260SOL    HW218312   8.905   2.986   7.926  0.1218  0.0493 -0.6053
38261SOL     OW18313  10.166   3.551   4.163  0.5235  0.0869  0.0651
38261SOL    HW118314  10.093   3.589   4.113 -0.3902 -2.1857 -0.5085
38261SOL    HW218315  10.212   3.626   4.200 -1.9129  1.6598  0.1739
38262SOL     OW18316   2.077   2.220   2.049  0.0499 -0.3996 -0.3863
38262SOL    HW118317   2.054   2.157   2.118 -0.0611  0.5059  0.4203
38262SOL    HW218318   2.162   2.255   2.076 -0.8069  1.2777  0.2868
38263SOL     OW18319  10.716   8.827   1.615  0.4631 -0.7225  0.1787
38263SOL    HW118320  10.683   8.884   1.546  1.3529  1.2575  1.2888
38263SOL    HW218321  10.802   8.799   1.584  0.5314 -0.4704  0.1352
38264SOL     OW18322   4.450   0.712   5.219  0.5151  0.0588 -0.0369
38264SOL    HW118323   4.386   0.714   5.147  0.5446 -1.7302 -0.1430
38264SOL    HW218324   4.397   0.716   5.298  0.3811  0.2147 -0.1326
38265SOL     OW18325   4.582   1.733   3.372 -0.4079  0.0665 -0.1045
38265SOL    HW118326   4.596   1.640   3.390 -0.5105 -0.3648 -2.0690
38265SOL    HW218327   4.501   1.736   3.321  0.3747  1.0491 -1.3648
38266SOL     OW18328   7.547   7.762   9.055 -0.1662  0.4040 -0.2769
38266SOL    HW118329   7.590   7.802   9.131 -0.0166  0.8555 -0.5937
38266SOL    HW218330   7.553   7.668   9.071  0.8183  0.4620 -0.2363
38267SOL     OW18331   9.240   2.597   3.394 -0.6420 -0.0840 -0.1936
38267SOL    HW118332   9.154   2.555   3.405 -0.8759 -0.0887 -1.8204
38267SOL    HW218333   9.233   2.678   3.446 -2.2879  0.7905 -1.6621
38268SOL     OW18334   2.026   5.948   7.318  0.5966  0.3199  0.2346
38268SOL    HW118335   1.958   5.982   7.375  2.2959  1.0982  1.8740
38268SOL    HW218336   2.061   6.025   7.273 -0.3996 -0.2228 -1.5951
38269SOL     OW18337  10.870   3.850   5.895 -0.5124  0.3724  0.1918
38269SOL    HW118338  10.799   3.825   5.955 -1.2949  1.8956 -0.0438
38269SOL    HW218339  10.860   3.790   5.821 -1.0453  0.0318  0.5249
38270SOL     OW18340   8.826   4.902   1.786 -0.1847 -0.1799  0.2682
38270SOL    HW118341   8.811   4.875   1.877 -1.4081  0.2860  0.2287
38270SOL    HW218342   8.850   4.822   1.741  1.7174 -0.2089  1.2375
38271SOL     OW18343   6.544   5.291   8.514  0.4727 -0.2894  0.0263
38271SOL    HW118344   6.494   5.210   8.503 -2.9070  1.5941  0.1301
38271SOL    HW218345   6.530   5.315   8.605  1.1809  0.5744 -0.0817
38272SOL     OW18346   1.831   1.927   9.249 -0.3326  0.0860  0.1785
38272SOL    HW118347   1.813   1.849   9.197 -0.5105 -0.8154  1.5469
38272SOL    HW218348   1.756   1.934   9.309  0.5408  0.2413  1.2848
38273SOL     OW18349   5.595   4.985   6.954 -0.2219  0.2618  0.2961
38273SOL    HW118350   5.666   4.974   7.017  1.2371  0.8765 -1.1823
38273SOL    HW218351   5.600   4.907   6.899  0.8453  1.3385 -1.2296
38274SOL     OW18352   6.160   1.054  10.139  0.4577 -0.7978  0.4257
38274SOL    HW118353   6.077   1.007  10.129 -0.4841  0.6244  1.1754
38274SOL    HW218354   6.227   0.989  10.118 -0.8579 -1.6829 -1.3085
38275SOL     OW18355   1.067   1.248   2.139  0.2414 -0.0240  0.9123
38275SOL    HW118356   1.110   1.241   2.054 -1.5086 -2.1301  0.0973
38275SOL    HW218357   1.126   1.202   2.199  0.1567 -1.1025  0.2168
38276SOL     OW18358   8.053   2.318   0.487  0.3472  0.4903 -0.0146
38276SOL    HW118359   8.033   2.388   0.550  2.5101  1.5411 -0.4084
38276SOL    HW218360   7.967   2.287   0.458 -0.6898  2.6204  0.5724
38277SOL     OW18361  10.533  10.920   3.538  0.2385 -0.1886 -0.1442
38277SOL    HW118362  10.582  10.997   3.510 -0.8682  0.8198  0.5903
38277SOL    HW218363  10.587  10.846   3.512  0.6659  0.7699 -2.1540
38278SOL     OW18364   2.126   1.426   5.103  0.0267 -0.3439 -0.5925
38278SOL    HW118365   2.102   1.418   5.011  2.7141  2.4297 -1.6925
38278SOL    HW218366   2.218   1.401   5.106  0.4063  1.0985  1.0236
38279SOL     OW18367   9.113  10.485   3.340 -0.6730  1.0454 -0.0267
38279SOL    HW118368   9.140  10.454   3.426  0.4270 -0.8201 -0.9793
38279SOL    HW218369   9.025  10.448   3.327 -0.6584  0.9635  0.1062
38280SOL     OW18370   3.263  10.248   5.256 -0.0290 -0.2030 -0.0263
38280SOL    HW118371   3.252  10.161   5.295  2.5899  0.1829  1.8472
38280SOL    HW218372   3.314  10.233   5.177  0.1263 -0.3973  0.1104
38281SOL     OW18373   2.184   5.474   2.479  0.4525  0.1671  0.1841
38281SOL    HW118374   2.224   5.560   2.493 -2.5728  2.2233 -2.4203
38281SOL    HW218375   2.162   5.443   2.567  0.3740  2.7130  1.1322
38282SOL     OW18376   8.354   9.503   5.750 -0.1723  0.0468  0.7101
38282SOL    HW118377   8.295   9.460   5.689 -0.5570  0.3285  0.8784
38282SOL    HW218378   8.440   9.463   5.734  0.0713  1.1763 -1.1061
38283SOL     OW18379   2.508   1.287   7.480 -0.0469 -0.0676 -0.2483
38283SOL    HW118380   2.470   1.370   7.510  1.6743  0.6759  0.0026
38283SOL    HW218381   2.433   1.234   7.454 -1.8140 -0.6070  4.8358
38284SOL     OW18382   8.759   8.772   5.320  0.0817 -0.3979 -0.1316
38284SOL    HW118383   8.726   8.745   5.234 -1.1053  1.1603 -0.2175
38284SOL    HW218384   8.691   8.830   5.354  1.5302  0.7676  0.8969
38285SOL     OW18385   8.776   0.625   3.989  0.6103 -0.1821 -0.0462
38285SOL    HW118386   8.853   0.573   4.013  1.2481  0.9067  0.3075
38285SOL    HW218387   8.791   0.649   3.897  0.8462  0.2760  0.1082
38286SOL     OW18388   4.497   8.251   2.799 -0.1408  0.8419  0.3172
38286SOL    HW118389   4.457   8.265   2.714 -2.1547  1.3586  1.2916
38286SOL    HW218390   4.499   8.155   2.809  2.5138  0.6281 -1.3198
38287SOL     OW18391   9.852   2.122   8.146 -0.2128  0.2246  0.4826
38287SOL    HW118392   9.807   2.067   8.210  1.6897 -0.1603  1.5720
38287SOL    HW218393   9.803   2.109   8.065 -0.1789 -2.7421  0.8044
38288SOL     OW18394   9.409   6.290   8.425  0.6135 -0.1788  0.4077
38288SOL    HW118395   9.339   6.355   8.417  1.2969  0.7618  1.6627
38288SOL    HW218396   9.364   6.208   8.441 -0.2152  0.7296  3.1819
38289SOL     OW18397   6.249   7.793   4.958 -0.1641 -0.1301  0.0128
38289SOL    HW118398   6.212   7.740   4.888 -1.1354  1.2741 -0.5829
38289SOL    HW218399   6.258   7.881   4.920  1.9316  0.0558  0.7796
38290SOL     OW18400   4.387   4.350   7.032 -0.2186  0.3181  0.0769
38290SOL    HW118401   4.393   4.280   6.966  1.0571  0.8184 -0.3659
38290SOL    HW218402   4.463   4.406   7.015 -0.7230  1.3265  0.9956
38291SOL     OW18403   8.057   6.708   4.139 -0.4119 -0.1350 -0.0693
38291SOL    HW118404   8.087   6.778   4.082 -0.9039 -0.9409 -1.3558
38291SOL    HW218405   8.110   6.632   4.116 -1.0816 -0.6561  0.0449
38292SOL     OW18406   6.874   4.584   5.895  0.1693 -0.0291  0.4291
38292SOL    HW118407   6.912   4.585   5.808  0.5018 -1.7260  0.5255
38292SOL    HW218408   6.849   4.675   5.911  2.9250  0.9386 -0.1829
38293SOL     OW18409   1.265   7.604   0.890 -0.2140 -0.1906  0.2474
38293SOL    HW118410   1.203   7.539   0.857  1.3348 -2.3444  1.3573
38293SOL    HW218411   1.212   7.684   0.899 -2.7470 -1.7909  0.7638
38294SOL     OW18412   5.618  10.427   3.768  0.7821 -0.0408 -0.2242
38294SOL    HW118413   5.673  10.435   3.690  0.8945  0.8504 -0.0661
38294SOL    HW218414   5.634  10.338   3.799  0.5939 -0.4751 -1.3131
38295SOL     OW18415   8.789   6.376   2.152  0.0397  1.0774  0.9186
38295SOL    HW118416   8.746   6.441   2.096  0.5043  0.3095 -0.3948
38295SOL    HW218417   8.880   6.407   2.158 -0.1065  1.3802  1.6114
38296SOL     OW18418   9.489   8.106  10.650 -0.1831  0.0644 -0.1246
38296SOL    HW118419   9.406   8.154  10.652  0.1993  0.8206 -1.4492
38296SOL    HW218420   9.556   8.173  10.638  0.5710 -0.5990  0.2771
38297SOL     OW18421   0.765   6.605   0.736 -0.2026 -0.3082 -0.1557
38297SOL    HW118422   0.772   6.699   0.720 -0.6448 -0.2430  0.0072
38297SOL    HW218423   0.784   6.595   0.829 -0.5216 -0.3292 -0.0894
38298SOL     OW18424   2.792   5.891   5.219 -0.7981  0.2665 -0.0810
38298SOL    HW118425   2.814   5.972   5.173 -1.2565 -0.1919 -1.1487
38298SOL    HW218426   2.713   5.860   5.176  0.1841 -1.5236 -0.7353
38299SOL     OW18427   6.056   2.869   6.138 -0.2011  0.2304 -0.2872
38299SOL    HW118428   5.962   2.858   6.121 -0.7955  2.1205  1.3771
38299SOL    HW218429   6.071   2.822   6.220  0.1337  0.5082 -0.1862
38300SOL     OW18430   6.005   1.186   2.710  0.0418  0.3494 -0.2392
38300SOL    HW118431   6.066   1.219   2.777 -0.4331 -1.3537  1.1021
38300SOL    HW218432   6.058   1.178   2.631  0.7585  1.8912  0.0467
38301SOL     OW18433   9.129   2.885   0.140  0.0048  0.0617 -0.0326
38301SOL    HW118434   9.202   2.878   0.078 -1.3705 -1.8558 -1.5533
38301SOL    HW218435   9.111   2.795   0.166 -1.2043  0.5939  1.0999
38302SOL     OW18436   6.092   0.851   5.864 -0.5536 -0.3985 -0.1149
38302SOL    HW118437   6.125   0.854   5.954 -0.6337 -0.8620 -0.0660
38302SOL    HW218438   6.171   0.853   5.810 -0.5086 -0.0359 -0.0386
38303SOL     OW18439  11.024   1.340   4.402 -0.0035  0.2779  0.4018
38303SOL    HW118440  11.068   1.269   4.357  1.9728  1.7542 -0.1405
38303SOL    HW218441  11.050   1.331   4.494  2.2718  1.5781 -0.0186
38304SOL     OW18442   2.268  10.667   0.636 -0.4474 -0.0270  0.5230
38304SOL    HW118443   2.229  10.586   0.669  0.9156 -0.8074  0.2606
38304SOL    HW218444   2.319  10.641   0.560 -1.5127  1.3835 -0.7479
38305SOL     OW18445   2.288   0.382   5.904 -0.1042  0.3916  0.2313
38305SOL    HW118446   2.232   0.446   5.861  0.1783  1.4036  1.3278
38305SOL    HW218447   2.236   0.350   5.978  0.0559 -0.0856  0.1444
38306SOL     OW18448   8.995   1.485   5.294  0.6066  0.0932  0.6866
38306SOL    HW118449   9.090   1.478   5.297  0.7870  2.0670  1.3437
38306SOL    HW218450   8.976   1.573   5.328 -1.5432 -0.7961  2.0769
38307SOL     OW18451   7.465   1.035   2.818 -0.0869  0.0537  0.1103
38307SOL    HW118452   7.557   1.011   2.804 -0.2356 -0.3427 -0.2160
38307SOL    HW218453   7.449   1.016   2.910 -0.4806 -2.1159 -0.3532
38308SOL     OW18454   7.095  11.048   1.390  0.0098 -0.8109  0.1080
38308SOL    HW118455   7.118  11.127   1.439 -0.9581 -0.0061 -0.6760
38308SOL    HW218456   7.171  10.991   1.398  0.4647 -0.0683  1.2417
38309SOL     OW18457   7.133   3.830  11.009 -0.6223  0.4833 -0.4498
38309SOL    HW118458   7.162   3.818  11.099 -1.8446  1.4191  0.0997
38309SOL    HW218459   7.086   3.750  10.987  0.5757 -0.1895 -0.6452
38310SOL     OW18460   6.285   1.294   3.385  0.3220  0.2854 -0.1226
38310SOL    HW118461   6.241   1.300   3.470  0.3789 -0.4262 -0.0393
38310SOL    HW218462   6.307   1.385   3.363  1.3711  0.3851  1.1810
38311SOL     OW18463   2.047   8.035   6.250  0.2276 -0.4675 -0.0360
38311SOL    HW118464   2.135   8.001   6.231  0.1245 -0.7706  0.0298
38311SOL    HW218465   2.054   8.069   6.339  0.3666 -0.1920 -0.1508
38312SOL     OW18466  10.809   9.011   8.469  0.5575  0.0777  0.1784
38312SOL    HW118467  10.899   9.044   8.468  0.4807  0.2860 -0.4700
38312SOL    HW218468  10.798   8.975   8.557  0.3954  2.5472  1.2807
38313SOL     OW18469   0.410   7.003   3.547 -0.0130 -0.0734  0.5583
38313SOL    HW118470   0.392   6.923   3.498 -1.2521  0.1770  0.5616
38313SOL    HW218471   0.408   6.975   3.639  1.3357 -0.3584  0.5173
38314SOL     OW18472   9.613   2.413   7.984 -0.7505 -0.6643  0.3495
38314SOL    HW118473   9.656   2.334   7.951  0.5057  1.2265 -2.9965
38314SOL    HW218474   9.526   2.411   7.945 -0.8182 -0.5118  0.4929
38315SOL     OW18475   6.542   7.683   8.329 -0.6166 -0.0208  0.4848
38315SOL    HW118476   6.495   7.762   8.357 -0.8102  0.7646 -1.8662
38315SOL    HW218477   6.631   7.712   8.312 -0.0615 -0.8391  1.7876
38316SOL     OW18478   9.409   7.819   9.700 -0.1779  0.4514  0.7949
38316SOL    HW118479   9.481   7.787   9.755  0.3915 -0.9536 -0.7195
38316SOL    HW218480   9.353   7.743   9.686  0.6261  0.2672 -1.9692
38317SOL     OW18481   0.600   0.958   2.468 -0.2687 -0.5849  0.0979
38317SOL    HW118482   0.687   0.920   2.458  0.3245  0.5781  0.5633
38317SOL    HW218483   0.575   0.984   2.379  0.1387 -0.3820  0.0362
38318SOL     OW18484   1.029   3.919   4.700 -0.5826 -0.1657  0.0481
38318SOL    HW118485   0.983   3.878   4.627 -1.6054  0.8686  0.0753
38318SOL    HW218486   1.117   3.935   4.666 -1.4228  1.5727 -1.5086
38319SOL     OW18487   1.619   0.608   7.317  0.0866  0.0488  0.8041
38319SOL    HW118488   1.653   0.521   7.338  0.2174  0.0569  0.6303
38319SOL    HW218489   1.527   0.605   7.343  0.0134 -0.2388  0.5262
38320SOL     OW18490   4.483   2.774   5.978 -1.2118 -0.2737 -0.2033
38320SOL    HW118491   4.525   2.818   6.051  0.5548 -3.0495  0.6305
38320SOL    HW218492   4.435   2.701   6.018  0.2561 -2.1966 -1.7372
38321SOL     OW18493   6.303   3.835   7.364 -0.1271 -0.0244 -0.0011
38321SOL    HW118494   6.229   3.789   7.402 -0.0284  0.7141  1.1334
38321SOL    HW218495   6.304   3.920   7.408  1.6325 -0.1649  0.3162
38322SOL     OW18496   0.179   1.205   0.797 -0.5589  0.4842 -0.0015
38322SOL    HW118497   0.102   1.154   0.821 -0.6118  0.6049  0.0898
38322SOL    HW218498   0.150   1.296   0.802 -0.6408  0.5050 -0.7736
38323SOL     OW18499   1.760   9.596   1.047 -0.0883 -0.5830 -0.2417
38323SOL    HW118500   1.782   9.506   1.025 -0.4218 -0.4735 -1.0523
38323SOL    HW218501   1.845   9.641   1.051  0.0719 -0.9196  0.1111
38324SOL     OW18502   8.017  10.194   0.259 -1.1193 -0.6286  0.1714
38324SOL    HW118503   8.004  10.288   0.272 -0.6777 -0.3841 -1.0225
38324SOL    HW218504   7.999  10.180   0.166 -0.1645 -1.5360  0.1010
38325SOL     OW18505   8.061   8.066   5.699 -0.2553 -0.0304 -0.3249
38325SOL    HW118506   8.078   8.112   5.617  1.0873  0.4739  0.2147
38325SOL    HW218507   7.965   8.068   5.708 -0.6019 -1.6738 -2.7436
38326SOL     OW18508   6.150   8.882   1.922 -1.5931  0.5107 -0.7323
38326SOL    HW118509   6.084   8.910   1.985 -1.4386 -0.8169  0.0508
38326SOL    HW218510   6.144   8.786   1.921  0.5479  0.3260 -0.3747
38327SOL     OW18511   6.209   3.972  11.080  0.1733 -0.1711  0.1621
38327SOL    HW118512   6.254   3.977  10.995  1.2312 -1.0506  0.6565
38327SOL    HW218513   6.243   4.047  11.129 -0.2571  0.1956 -0.0824
38328SOL     OW18514   9.812  10.146   8.447  0.1441  0.4480 -0.1566
38328SOL    HW118515   9.745  10.124   8.383 -0.7574 -0.9146  1.1863
38328SOL    HW218516   9.889  10.166   8.395 -0.2047 -1.7458 -1.6709
38329SOL     OW18517   4.197  10.322   9.902  0.1509 -0.4307  0.0697
38329SOL    HW118518   4.288  10.352   9.905 -0.1410  0.5577 -0.4877
38329SOL    HW218519   4.194  10.267   9.824 -0.1052  0.9348 -0.9307
38330SOL     OW18520   6.249   1.874   5.701 -0.0214  0.4386  0.3471
38330SOL    HW118521   6.154   1.872   5.691  0.1614 -0.2795 -1.9074
38330SOL    HW218522   6.268   1.962   5.732 -1.3705  0.7847  0.2578
38331SOL     OW18523  10.493  10.488   5.435 -0.6005 -0.5798  0.2753
38331SOL    HW118524  10.443  10.457   5.360 -0.5783  0.7993 -0.3522
38331SOL    HW218525  10.453  10.573   5.456 -1.5774 -1.5840  2.7855
38332SOL     OW18526   1.295   2.734   9.192  0.2504 -0.0986 -0.4023
38332SOL    HW118527   1.328   2.783   9.116 -0.7535  0.4755 -0.4825
38332SOL    HW218528   1.328   2.645   9.178  1.1625  0.2906 -0.8338
38333SOL     OW18529   6.644   6.965   3.794  0.1454 -0.1917  0.2801
38333SOL    HW118530   6.557   6.998   3.818  1.3099  2.0082  1.8335
38333SOL    HW218531   6.671   6.912   3.870  0.3578 -0.5225 -0.0212
38334SOL     OW18532   6.717   7.722   2.791 -0.0907  0.1143  0.0246
38334SOL    HW118533   6.721   7.772   2.710  2.9782  2.3775  1.3725
38334SOL    HW218534   6.650   7.765   2.844  0.2000  0.6991 -0.0821
38335SOL     OW18535   4.209   9.529   7.834 -0.4484  0.1715 -0.6706
38335SOL    HW118536   4.153   9.604   7.853  0.2764  0.4528  0.4717
38335SOL    HW218537   4.267   9.559   7.764 -0.0372  0.7551 -0.0897
38336SOL     OW18538   7.838   1.412   8.733  0.1250  0.1277  0.2672
38336SOL    HW118539   7.792   1.337   8.695 -1.0106  1.1317 -0.4253
38336SOL    HW218540   7.795   1.488   8.695  2.5664  1.1585 -0.6121
38337SOL     OW18541   0.685   1.880   4.527  0.4965  0.7124 -0.2971
38337SOL    HW118542   0.606   1.924   4.557 -0.3374 -0.8127 -0.1228
38337SOL    HW218543   0.702   1.917   4.440 -1.1223  0.2547 -0.8521
38338SOL     OW18544   0.882   9.849   6.332 -0.6304  0.1224  0.2036
38338SOL    HW118545   0.964   9.803   6.355 -0.9634  0.4936  2.3952
38338SOL    HW218546   0.882   9.927   6.388 -2.0839  0.5717 -0.3825
38339SOL     OW18547   5.089   5.834   1.349 -0.2542  0.0668  0.2811
38339SOL    HW118548   5.046   5.918   1.339 -0.6449 -0.1600  0.0278
38339SOL    HW218549   5.092   5.798   1.260 -1.1646 -0.7067  0.5453
38340SOL     OW18550   8.191   3.758   1.775  0.2844  0.5221  0.4238
38340SOL    HW118551   8.117   3.815   1.756  0.2705 -0.0367 -1.4665
38340SOL    HW218552   8.158   3.670   1.757  0.7931  0.0513  1.6744
38341SOL     OW18553   5.324   2.532   9.206  0.1467  0.1498  0.0708
38341SOL    HW118554   5.281   2.574   9.131 -2.8770 -1.4299  0.7595
38341SOL    HW218555   5.387   2.472   9.167 -1.3698 -0.6522 -1.2833
38342SOL     OW18556   3.098   8.773   9.948  0.3138  0.4678  0.3940
38342SOL    HW118557   3.143   8.729   9.876  0.8231  0.0087  0.9858
38342SOL    HW218558   3.150   8.852   9.963  0.0552  0.6984  0.0879
38343SOL     OW18559  10.485   8.319   8.234 -0.0013 -0.7265  0.6324
38343SOL    HW118560  10.403   8.280   8.204 -0.4139 -0.8319  1.8314
38343SOL    HW218561  10.465   8.352   8.322  0.6186  1.2945  0.0548
38344SOL     OW18562   1.015   2.413   8.140  0.3496 -0.1826 -0.0027
38344SOL    HW118563   1.096   2.387   8.183  0.6929  0.8247 -0.0154
38344SOL    HW218564   1.031   2.394   8.047  1.3533  1.8450 -0.2849
38345SOL     OW18565   3.993   7.769   3.340 -0.1803 -0.9922  0.3946
38345SOL    HW118566   3.992   7.767   3.436  1.4935  0.0047  0.4616
38345SOL    HW218567   3.990   7.677   3.314  0.6691 -1.3272  1.4405
38346SOL     OW18568   7.441   1.310   6.957  0.0785  0.2709 -0.1512
38346SOL    HW118569   7.503   1.257   7.008 -1.7910 -1.5891  0.3478
38346SOL    HW218570   7.429   1.261   6.876 -1.7766 -0.1742  0.3591
38347SOL     OW18571   5.381  11.028   3.722 -0.2397 -0.2196  0.8591
38347SOL    HW118572   5.390  11.119   3.694 -2.2638  0.1834  1.3114
38347SOL    HW218573   5.373  10.979   3.640 -2.1458  0.4387  0.5941
38348SOL     OW18574  10.490   6.762   7.963 -0.5589  0.2549  0.1920
38348SOL    HW118575  10.414   6.819   7.978  0.8922  1.5752  3.6032
38348SOL    HW218576  10.482   6.695   8.030  0.3709 -0.6452 -0.5768
38349SOL     OW18577   5.804   1.591   0.749 -0.1982  0.5496 -0.3699
38349SOL    HW118578   5.767   1.538   0.679 -1.0834  1.3877 -0.5712
38349SOL    HW218579   5.875   1.538   0.786  0.3094  0.1184 -1.9163
38350SOL     OW18580   0.696   0.750   3.810  0.0162  0.0446 -0.0010
38350SOL    HW118581   0.679   0.718   3.721 -0.5584 -3.0817  1.1094
38350SOL    HW218582   0.791   0.757   3.816  0.0210  3.7710 -1.8479
38351SOL     OW18583   4.574  10.996   8.496  0.6755 -0.6580 -0.1877
38351SOL    HW118584   4.605  10.944   8.570  0.5927 -0.7150 -0.1933
38351SOL    HW218585   4.569  10.934   8.424 -0.4994 -0.8937  0.0795
38352SOL     OW18586   3.382   0.585  10.569  0.4483  0.1509  0.7479
38352SOL    HW118587   3.459   0.624  10.527  0.8374 -0.5853  0.7621
38352SOL    HW218588   3.328   0.660  10.593  2.0317  0.8473  2.4477
38353SOL     OW18589   0.221   5.318   6.220 -0.1418 -0.2132 -0.4283
38353SOL    HW118590   0.314   5.330   6.204  0.4016 -1.5502  1.3094
38353SOL    HW218591   0.201   5.230   6.186 -0.6249 -0.1737 -0.2655
38354SOL     OW18592  11.098   8.032  10.549 -0.0147  0.0517  0.7375
38354SOL    HW118593  11.147   8.113  10.552  1.6505 -0.8395 -0.8376
38354SOL    HW218594  11.146   7.976  10.488 -2.5571 -1.1812 -0.2862
38355SOL     OW18595   9.015   2.700   3.702  0.1534  0.0503  0.3590
38355SOL    HW118596   8.997   2.608   3.724 -0.1521 -0.4187 -1.6913
38355SOL    HW218597   8.997   2.747   3.784 -0.1258 -1.6434  1.3382
38356SOL     OW18598   9.059   6.248   3.090 -0.2399  0.3652 -0.4993
38356SOL    HW118599   9.114   6.198   3.030 -1.3654  0.4254 -1.6099
38356SOL    HW218600   9.077   6.210   3.176  0.8891 -0.1718 -0.9508
38357SOL     OW18601   3.107   4.394  10.999  0.5127 -0.0861 -0.3486
38357SOL    HW118602   3.158   4.438  11.068 -0.5337  1.0117 -0.2448
38357SOL    HW218603   3.064   4.465  10.952  1.3783 -0.8072 -2.3093
38358SOL     OW18604  10.247   4.896   8.755  0.6622 -0.3464 -0.2708
38358SOL    HW118605  10.318   4.915   8.695 -0.3138  1.6593 -0.8722
38358SOL    HW218606  10.216   4.981   8.785  1.3391 -1.2154  3.4581
38359SOL     OW18607   2.667   5.259   8.159 -0.6910 -0.0253  0.3489
38359SOL    HW118608   2.692   5.342   8.198 -1.6128 -0.0236  0.9595
38359SOL    HW218609   2.750   5.216   8.138 -0.2075  0.7679  0.6133
38360SOL     OW18610   1.677   3.965   5.431  0.0704  0.1937 -0.0481
38360SOL    HW118611   1.677   3.881   5.477 -1.2676 -1.2872 -2.4625
38360SOL    HW218612   1.728   4.024   5.486  0.5936 -2.0489  2.0251
38361SOL     OW18613   9.962   6.439   1.197 -0.3216 -0.0531 -0.2769
38361SOL    HW118614   9.908   6.504   1.241  0.1305  0.7177 -0.8499
38361SOL    HW218615  10.048   6.480   1.188  0.1678 -0.9816 -0.0461
38362SOL     OW18616   1.474   8.592   9.711 -0.1601 -0.0652 -0.2888
38362SOL    HW118617   1.421   8.513   9.715  0.8038 -0.6971  0.2192
38362SOL    HW218618   1.538   8.575   9.642 -0.2170  0.4477 -0.4766
38363SOL     OW18619   7.512   2.260   7.449 -0.2029  0.5643  0.0887
38363SOL    HW118620   7.550   2.345   7.470 -0.6611  0.8892 -0.3714
38363SOL    HW218621   7.464   2.235   7.528  0.5657  0.3664  0.5051
38364SOL     OW18622   3.423   9.737   4.328  0.2203 -0.3271 -0.0096
38364SOL    HW118623   3.446   9.819   4.285 -0.7753 -0.0042  0.0505
38364SOL    HW218624   3.343   9.708   4.283  0.6784 -1.3831 -0.1853
38365SOL     OW18625   6.014   0.968   6.475  0.9377  0.1316  0.0638
38365SOL    HW118626   5.962   0.956   6.554  1.0553 -0.0043  0.1215
38365SOL    HW218627   6.104   0.974   6.507  1.1707 -1.6253 -0.1916
38366SOL     OW18628   4.718   0.283   3.374  0.0513  0.2814 -0.0977
38366SOL    HW118629   4.692   0.239   3.293 -0.1380  0.2478 -0.0186
38366SOL    HW218630   4.799   0.239   3.400 -0.2260 -0.1263  0.0684
38367SOL     OW18631  10.268   7.149   6.605  0.0681  0.1608 -0.1233
38367SOL    HW118632  10.216   7.222   6.574  0.2792  0.2098 -0.3609
38367SOL    HW218633  10.298   7.176   6.692  1.0696  0.8225 -0.6645
38368SOL     OW18634   0.213   9.890   8.122  0.3612 -0.1555 -0.8180
38368SOL    HW118635   0.242   9.844   8.044 -0.0533  0.4323 -1.3235
38368SOL    HW218636   0.285   9.950   8.143  0.7643 -0.8035 -0.3457
38369SOL     OW18637   5.800   3.624   0.584  0.7944  0.3997 -0.1111
38369SOL    HW118638   5.888   3.630   0.622  0.4011 -2.1880  1.4811
38369SOL    HW218639   5.803   3.547   0.528 -0.3376  0.5747 -0.4467
38370SOL     OW18640   4.867   4.725   0.263 -0.2693 -0.8064 -0.5753
38370SOL    HW118641   4.884   4.737   0.169 -0.8199 -2.9955 -1.0294
38370SOL    HW218642   4.775   4.699   0.267 -0.4594 -0.0041  0.6692
38371SOL     OW18643   9.820   5.000   2.265 -0.1983 -0.1766  0.4126
38371SOL    HW118644   9.841   5.078   2.213  0.0488 -0.5042  0.0057
38371SOL    HW218645   9.795   4.934   2.200 -0.8902 -0.2895  0.7891
38372SOL     OW18646   2.897   3.501   8.095 -0.0315 -0.1888  0.4268
38372SOL    HW118647   2.945   3.418   8.099 -1.0918 -0.9928 -2.0707
38372SOL    HW218648   2.817   3.484   8.145  0.5151 -0.0912  1.3574
38373SOL     OW18649   8.103  10.971  10.815  0.1589 -0.1835  0.4462
38373SOL    HW118650   8.172  10.941  10.755  1.6471  2.0571  0.8934
38373SOL    HW218651   8.033  11.001  10.758 -0.0259 -1.5061 -0.0518
38374SOL     OW18652   7.175   0.620   4.303 -0.0174 -0.6771 -0.1131
38374SOL    HW118653   7.172   0.697   4.246  1.4309 -0.2070  0.4216
38374SOL    HW218654   7.221   0.554   4.253  0.4967 -0.5453  0.1840
38375SOL     OW18655   1.449   8.271   0.347  0.1735  0.2884 -0.8363
38375SOL    HW118656   1.483   8.360   0.353 -2.5717  1.3834  0.1632
38375SOL    HW218657   1.481   8.227   0.426 -1.0415  1.4484  0.3623
38376SOL     OW18658   5.671   6.892   7.837  0.3660 -0.2890 -0.4389
38376SOL    HW118659   5.675   6.856   7.749  3.5345 -0.3248 -0.4181
38376SOL    HW218660   5.742   6.848   7.885 -0.3978  0.6689  1.7428
38377SOL     OW18661   1.618   0.503   9.348 -0.4100 -0.2134 -0.0915
38377SOL    HW118662   1.651   0.454   9.423 -1.9132  0.9870  1.4453
38377SOL    HW218663   1.571   0.439   9.296 -0.6885 -0.8007  0.8528
38378SOL     OW18664   2.002   0.595   4.582  0.2236  0.5454  0.1914
38378SOL    HW118665   2.080   0.609   4.635  2.5106 -0.7500 -2.5751
38378SOL    HW218666   1.950   0.532   4.631  1.9141 -0.1224  1.2182
38379SOL     OW18667   9.341   6.719   4.453  0.3331  0.2932  0.2541
38379SOL    HW118668   9.257   6.763   4.446  0.0326 -0.2602  0.2924
38379SOL    HW218669   9.384   6.758   4.529  0.4549  1.1431 -0.2476
38380SOL     OW18670   2.797   6.948   3.290  0.1038 -0.2005  0.4412
38380SOL    HW118671   2.750   6.907   3.363  0.2787  0.0100  0.6750
38380SOL    HW218672   2.841   7.024   3.330  0.0769  0.0016  0.0860
38381SOL     OW18673   5.157   2.542   2.336 -0.1103 -0.0442  0.2184
38381SOL    HW118674   5.242   2.519   2.299 -0.2438  0.5333 -0.4751
38381SOL    HW218675   5.157   2.638   2.339 -1.1865  0.0128 -0.9056
38382SOL     OW18676   5.011   8.317   9.620  0.4337 -0.3756  0.0026
38382SOL    HW118677   5.058   8.280   9.695  2.0447 -0.4455 -0.9886
38382SOL    HW218678   4.923   8.334   9.653  0.6924 -1.7031  1.5098
38383SOL     OW18679   4.845   1.389   5.585  0.3487 -1.0369  0.5700
38383SOL    HW118680   4.838   1.436   5.502  0.6036 -0.5542  0.8194
38383SOL    HW218681   4.785   1.434   5.644  1.1329 -0.5664  1.0163
38384SOL     OW18682   8.166   7.011   7.472  0.1666 -0.0508 -0.6072
38384SOL    HW118683   8.171   6.916   7.476  0.6243 -0.0328  3.2438
38384SOL    HW218684   8.085   7.032   7.517  1.5971  1.3813  1.4544
38385SOL     OW18685   3.254   9.099   2.970  0.3951  0.0481  0.1470
38385SOL    HW118686   3.169   9.098   2.926 -0.5819  0.5670  1.8988
38385SOL    HW218687   3.262   9.011   3.007  0.9386 -0.2017 -0.5393
38386SOL     OW18688   8.767   3.016   4.173 -0.8268  0.2625 -0.4458
38386SOL    HW118689   8.774   2.930   4.214 -1.8359  0.8725  1.0933
38386SOL    HW218690   8.705   3.003   4.101  0.7148 -0.7488 -1.6570
38387SOL     OW18691   1.258   6.444   5.542  0.0346  0.0125  0.3725
38387SOL    HW118692   1.315   6.519   5.560  1.5152 -0.9222 -0.2394
38387SOL    HW218693   1.242   6.448   5.447 -1.9026  0.8894  0.6726
38388SOL     OW18694   3.279   1.967   8.028  0.1019 -0.1056  0.7039
38388SOL    HW118695   3.227   1.948   7.950 -0.3279  0.3736  0.8653
38388SOL    HW218696   3.329   2.045   8.006  1.4763 -1.0963  0.2220
38389SOL     OW18697   0.196   9.695  10.134 -0.1799 -0.0344  0.6935
38389SOL    HW118698   0.103   9.710  10.149 -0.2083 -1.8562  2.7739
38389SOL    HW218699   0.218   9.620  10.189  2.0044 -1.2057 -1.5791
38390SOL     OW18700   0.850   8.647   1.813 -0.5429  0.6341  0.4929
38390SOL    HW118701   0.932   8.611   1.782 -0.7799  1.0635 -0.6951
38390SOL    HW218702   0.874   8.699   1.890 -0.3640 -3.0392  3.2006
38391SOL     OW18703  10.600   5.449   5.763  0.3210 -0.3430  0.0734
38391SOL    HW118704  10.679   5.403   5.735  0.9131  0.2336  0.7669
38391SOL    HW218705  10.606   5.535   5.722 -0.4823 -0.6389 -0.7192
38392SOL     OW18706   2.016   0.988   1.615 -0.3727  0.1189  0.2608
38392SOL    HW118707   1.936   0.936   1.610  0.1477 -0.8079  1.1584
38392SOL    HW218708   2.086   0.927   1.593  0.2431  0.4362  1.2516
38393SOL     OW18709   6.129   1.017   7.024 -0.1718  0.4761  0.1456
38393SOL    HW118710   6.125   1.109   7.049  0.1981 -0.1729  2.9112
38393SOL    HW218711   6.203   1.012   6.963  1.3936  1.6915  1.8202
38394SOL     OW18712   0.010   2.415   6.920  0.0128  0.1452  0.2444
38394SOL    HW118713   0.022   2.468   6.841 -2.6313  0.4367 -0.0569
38394SOL    HW218714   0.092   2.423   6.968  0.8069  1.9507 -1.3188
38395SOL     OW18715   9.707   6.135   4.645  0.4576 -0.3939 -0.2956
38395SOL    HW118716   9.746   6.197   4.707 -0.1341 -0.4571  0.1462
38395SOL    HW218717   9.613   6.137   4.665  0.5285 -2.1188  0.3337
38396SOL     OW18718   3.405   6.422   9.740  0.0722  0.3114 -0.3420
38396SOL    HW118719   3.405   6.517   9.752 -1.6632  0.4925 -1.4953
38396SOL    HW218720   3.314   6.396   9.752  0.2508 -0.9901 -1.5704
38397SOL     OW18721   7.797   0.508   4.987 -0.8478  0.5416 -0.2358
38397SOL    HW118722   7.805   0.413   4.985 -0.2862  0.3719  3.5861
38397SOL    HW218723   7.887   0.540   4.989 -1.0382  1.0918 -0.1712
38398SOL     OW18724   1.001   6.274   9.101 -0.5867  0.9707  0.1203
38398SOL    HW118725   0.919   6.280   9.053 -1.1520 -1.1583  0.7073
38398SOL    HW218726   0.975   6.273   9.193 -0.0589 -0.8607  0.2898
38399SOL     OW18727   6.073   3.696   0.293 -0.8932 -0.4224  0.4138
38399SOL    HW118728   6.133   3.622   0.302  0.1381  0.1965 -1.0068
38399SOL    HW218729   6.076   3.740   0.377  1.4968  0.1846  0.0755
38400SOL     OW18730   6.534  10.152   4.124  0.2852 -0.0032  0.0801
38400SOL    HW118731   6.592  10.210   4.074  0.4135 -0.6649 -0.5583
38400SOL    HW218732   6.488  10.102   4.057 -1.5556  0.9947  0.5379
38401SOL     OW18733   2.064   5.269   9.482  0.4324  0.1694  0.4552
38401SOL    HW118734   2.012   5.240   9.557 -0.0202  0.0825  0.1076
38401SOL    HW218735   2.085   5.188   9.435  0.4860  0.2525  0.3351
38402SOL     OW18736  10.227   2.384  10.114  0.0354  0.2946 -0.0926
38402SOL    HW118737  10.294   2.399  10.180 -0.3365  1.2348  0.0791
38402SOL    HW218738  10.276   2.361  10.035  0.5198  0.1408  0.2474
38403SOL     OW18739   8.706   8.707   5.057 -0.3028  0.2330 -0.2366
38403SOL    HW118740   8.800   8.704   5.038  0.4003  0.0535  2.8276
38403SOL    HW218741   8.668   8.753   4.982  2.2171  0.4115 -1.5139
38404SOL     OW18742   5.131   5.531   8.676 -0.3458  0.3315  0.7926
38404SOL    HW118743   5.134   5.611   8.728 -0.4922  0.0190  1.2924
38404SOL    HW218744   5.101   5.464   8.737 -1.6989  0.1844  0.0143
38405SOL     OW18745   6.114   7.537  10.051  0.5131 -0.4349 -0.3773
38405SOL    HW118746   6.064   7.524   9.971  1.9089 -1.3217 -1.1401
38405SOL    HW218747   6.159   7.621  10.038 -0.0733 -0.0648 -0.0613
38406SOL     OW18748   1.712   3.099   1.698 -0.0085  0.2853  0.1760
38406SOL    HW118749   1.653   3.172   1.714 -0.7733  0.0345 -1.3121
38406SOL    HW218750   1.710   3.087   1.603  1.6510 -0.3944  0.1927
38407SOL     OW18751   7.961   6.922   1.316  0.3104 -0.0307 -0.0091
38407SOL    HW118752   7.988   6.909   1.225 -1.9080  0.1560 -0.7614
38407SOL    HW218753   7.866   6.932   1.312  0.1315 -0.0588  2.3531
38408SOL     OW18754   4.075   5.785   3.030  0.0832 -0.9281  0.1966
38408SOL    HW118755   4.113   5.721   3.091  1.2703 -0.5100 -0.0717
38408SOL    HW218756   4.146   5.803   2.968 -0.1673  0.8218  0.3950
38409SOL     OW18757   9.427   7.741   8.600  0.0334 -0.5771  0.3079
38409SOL    HW118758   9.427   7.697   8.685  0.0220 -0.3166  0.4439
38409SOL    HW218759   9.341   7.783   8.595 -0.6181 -1.9749 -0.5549
38410SOL     OW18760   9.873   3.040   0.764 -0.1925 -0.0624  0.0517
38410SOL    HW118761   9.854   2.948   0.782 -1.1066 -0.2871 -1.8227
38410SOL    HW218762   9.934   3.038   0.690 -1.8886  0.8162 -1.4375
38411SOL     OW18763   6.689   4.630  10.647  0.1636 -0.2724 -0.3567
38411SOL    HW118764   6.785   4.634  10.641  0.3377 -2.4266  0.3498
38411SOL    HW218765   6.672   4.593  10.734 -1.3046 -0.4864 -0.7092
38412SOL     OW18766   5.101   0.563   1.336 -0.3595  0.4792  0.0748
38412SOL    HW118767   5.011   0.555   1.367 -0.8776  0.5437 -1.3520
38412SOL    HW218768   5.095   0.555   1.241  1.3640 -1.4572  0.0576
38413SOL     OW18769   1.581   7.432   7.154 -0.1137 -0.5148  0.1327
38413SOL    HW118770   1.496   7.447   7.196 -0.5584  1.0960 -1.2277
38413SOL    HW218771   1.646   7.451   7.221 -0.8245 -0.2507  0.7498
38414SOL     OW18772   5.938   9.071   2.021 -0.3863  0.6191 -0.3166
38414SOL    HW118773   5.914   9.042   1.933  0.7388  0.0842 -0.4591
38414SOL    HW218774   5.870   9.034   2.077 -1.8341  2.0016 -1.0651
38415SOL     OW18775   1.692   2.696   9.047  0.0116  0.1378 -0.4220
38415SOL    HW118776   1.706   2.791   9.046 -1.5510  0.4115  0.0582
38415SOL    HW218777   1.752   2.662   8.980  1.3791  1.3243  0.1614
38416SOL     OW18778   8.746   0.847   0.698 -0.1006 -0.0281 -0.0035
38416SOL    HW118779   8.681   0.895   0.647 -1.7095 -1.6059  0.4374
38416SOL    HW218780   8.696   0.811   0.772  1.5066 -0.4515  0.9287
38417SOL     OW18781   4.583   3.822  10.924 -0.1622 -0.3777 -0.2933
38417SOL    HW118782   4.527   3.752  10.956  0.0575  0.3068  1.7619
38417SOL    HW218783   4.654   3.828  10.989  0.7377  0.6341 -1.3218
38418SOL     OW18784   1.115   9.856   6.561  0.2369 -0.0383 -0.1757
38418SOL    HW118785   1.078   9.772   6.587 -1.6501  0.6220 -0.5702
38418SOL    HW218786   1.171   9.881   6.634  1.0883 -1.7688 -0.1927
38419SOL     OW18787  10.124   3.252   7.185 -0.1104 -0.3410 -0.0534
38419SOL    HW118788  10.146   3.185   7.250  1.4409  2.1657  2.2157
38419SOL    HW218789  10.035   3.280   7.208  0.3998  0.4740  1.0107
38420SOL     OW18790   0.563   3.404   1.556  0.1818 -0.4014 -0.2081
38420SOL    HW118791   0.646   3.445   1.581  0.4481 -1.4646  0.7079
38420SOL    HW218792   0.509   3.477   1.524  1.6407  0.2258 -1.3274
38421SOL     OW18793   2.037   5.925  10.290  0.2692 -0.0762  0.0295
38421SOL    HW118794   1.947   5.923  10.258  0.4756 -1.2655 -0.5093
38421SOL    HW218795   2.029   5.952  10.382 -0.7042 -0.9317  0.2165
38422SOL     OW18796   1.914   3.342   6.628  0.2027 -0.2108 -0.3862
38422SOL    HW118797   1.849   3.352   6.559  0.2800 -0.3229 -0.4770
38422SOL    HW218798   1.935   3.431   6.655  0.9593 -0.1112 -1.2546
38423SOL     OW18799   2.711   1.546   4.452  0.0299 -0.2448 -0.1339
38423SOL    HW118800   2.731   1.586   4.368  0.0328 -2.0107 -1.0289
38423SOL    HW218801   2.713   1.618   4.515  1.3272  0.8980 -1.4293
38424SOL     OW18802   4.051   4.240   9.245  0.1520 -0.7701  0.4724
38424SOL    HW118803   4.142   4.214   9.260  0.3884 -0.6256 -0.5960
38424SOL    HW218804   4.057   4.312   9.182 -0.7473 -1.7249 -0.7748
38425SOL     OW18805   3.409   6.987   5.121 -0.1334  0.1620  0.2624
38425SOL    HW118806   3.443   6.970   5.209 -0.2173 -0.6130  0.1543
38425SOL    HW218807   3.487   7.003   5.068 -0.0625  0.3338  0.4167
38426SOL     OW18808   7.721   6.106   3.284  0.0667 -0.6778  0.2914
38426SOL    HW118809   7.729   6.200   3.270  0.6587 -0.9235 -1.2102
38426SOL    HW218810   7.811   6.077   3.302  0.1928 -1.2103 -1.1005
38427SOL     OW18811   9.870   9.812   1.557 -0.1600  0.0347  0.2673
38427SOL    HW118812   9.858   9.896   1.601  2.0801  0.9469 -0.7170
38427SOL    HW218813   9.860   9.747   1.627  2.0602  1.3535  1.9608
38428SOL     OW18814  10.958   1.447  10.477 -0.1561  0.6009 -0.4552
38428SOL    HW118815  10.992   1.480  10.560 -0.1915 -2.6334  0.9627
38428SOL    HW218816  10.865   1.472  10.477 -0.2712  0.2144  0.7335
38429SOL     OW18817   8.217   2.459   8.879  0.4191 -0.2315  0.4045
38429SOL    HW118818   8.219   2.422   8.791  1.3557 -1.9523  1.1061
38429SOL    HW218819   8.182   2.548   8.867 -0.3552 -0.7527 -1.5583
38430SOL     OW18820   5.913   9.557  11.051  0.0623 -0.3214  0.2847
38430SOL    HW118821   5.993   9.513  11.081  0.9632 -0.2896 -1.8898
38430SOL    HW218822   5.869   9.491  10.998  0.6006  0.7893 -1.6589
38431SOL     OW18823   9.027   5.548   0.471  0.0156  0.7306  0.0843
38431SOL    HW118824   9.018   5.453   0.477 -0.5642  0.6938 -1.0930
38431SOL    HW218825   8.952   5.583   0.518  0.6090  0.6388  1.1358
38432SOL     OW18826   7.664   4.276   8.349  0.2979  0.8823  0.2567
38432SOL    HW118827   7.702   4.219   8.416  3.1144  1.7723 -0.4384
38432SOL    HW218828   7.650   4.218   8.274  0.1849  0.5089  0.5617
38433SOL     OW18829   9.234   9.351   6.917 -0.1255  0.0581  0.0114
38433SOL    HW118830   9.164   9.374   6.979  1.5023  1.8147  1.3088
38433SOL    HW218831   9.249   9.431   6.866  0.0352 -0.7167 -1.1956
38434SOL     OW18832   5.347   5.774   2.934 -0.0056  0.3813 -0.4996
38434SOL    HW118833   5.355   5.810   2.846 -1.6102 -1.0491 -1.2999
38434SOL    HW218834   5.391   5.689   2.929  1.2554  0.9308  0.5561
38435SOL     OW18835   7.755   7.957   4.105  0.5047 -0.4422 -0.1967
38435SOL    HW118836   7.767   7.955   4.200  0.2732 -0.9297 -0.1773
38435SOL    HW218837   7.796   7.877   4.073 -1.8487 -1.7516 -0.2073
38436SOL     OW18838   7.378   4.278   1.804 -0.0805 -0.5108 -0.3666
38436SOL    HW118839   7.393   4.198   1.752 -0.7550 -0.6441 -0.3689
38436SOL    HW218840   7.297   4.260   1.851  1.1996 -0.9416  1.8112
38437SOL     OW18841   6.132   5.113   5.638  0.2344  0.3216  0.5040
38437SOL    HW118842   6.075   5.036   5.640  1.1978 -0.3931  1.2365
38437SOL    HW218843   6.076   5.185   5.667 -0.5159 -0.2143  0.4164
38438SOL     OW18844   4.590   8.562   4.216  0.1155  0.2614  0.3490
38438SOL    HW118845   4.604   8.651   4.250 -1.6347  0.1658  1.4443
38438SOL    HW218846   4.550   8.515   4.289  2.5808 -1.9867  0.4246
38439SOL     OW18847   4.209  10.694   0.415  0.1553  0.3293 -0.1684
38439SOL    HW118848   4.232  10.713   0.324  0.1117 -0.2502 -0.3017
38439SOL    HW218849   4.197  10.780   0.455  1.8831  0.6486 -0.2704
38440SOL     OW18850   1.921   9.491   8.843 -0.7513 -0.4062 -0.3643
38440SOL    HW118851   1.872   9.485   8.761 -1.6181  1.1865  0.0041
38440SOL    HW218852   1.946   9.583   8.850  0.1207 -0.7006  0.7067
38441SOL     OW18853   5.735   6.043   7.299  0.5857 -0.4136 -0.0854
38441SOL    HW118854   5.782   6.106   7.354  1.2111 -1.7444  0.9581
38441SOL    HW218855   5.802   6.005   7.243  0.2674 -0.4032 -0.4794
38442SOL     OW18856   4.461   6.867   9.084 -0.0180 -0.1939  0.5423
38442SOL    HW118857   4.386   6.926   9.092 -1.2695 -1.8444  2.0922
38442SOL    HW218858   4.424   6.780   9.102  2.0952 -1.2079  0.2704
38443SOL     OW18859  10.003   7.663   3.519  0.1722 -0.3639 -0.1426
38443SOL    HW118860  10.003   7.575   3.556  1.1748  0.1435  1.1495
38443SOL    HW218861   9.915   7.697   3.537  0.1545 -0.6906  0.4103
38444SOL     OW18862  10.020   9.666   4.766  0.3956 -0.3784  0.3769
38444SOL    HW118863   9.957   9.735   4.746 -0.4020 -1.0839  0.4248
38444SOL    HW218864   9.984   9.622   4.843  1.2145 -0.4612  0.7233
38445SOL     OW18865   5.288   1.237   1.287  0.0851 -0.0472  0.1121
38445SOL    HW118866   5.276   1.239   1.192 -0.4512 -2.4416  0.0668
38445SOL    HW218867   5.208   1.197   1.320  1.1288 -1.1841  1.3673
38446SOL     OW18868   8.426  10.960   9.506  0.2704 -0.1103  0.3896
38446SOL    HW118869   8.338  10.990   9.482  0.6954  1.2541  0.4244
38446SOL    HW218870   8.479  11.041   9.508  1.2523 -0.7519  1.5146
38447SOL     OW18871   0.474   1.845  10.470 -0.0607 -0.1043 -0.2979
38447SOL    HW118872   0.566   1.868  10.474 -0.2158  0.6131 -0.7190
38447SOL    HW218873   0.446   1.841  10.562 -0.0790  1.6727 -0.1886
38448SOL     OW18874   1.901   4.841   3.675 -0.2257  0.0292  0.1618
38448SOL    HW118875   1.810   4.815   3.687  0.2447 -1.4929  0.5977
38448SOL    HW218876   1.923   4.814   3.586  0.4686 -1.8115  0.8495
38449SOL     OW18877   1.755   1.440   1.591  0.3561  0.0444 -0.3433
38449SOL    HW118878   1.709   1.517   1.558  0.0539  0.3759  0.7859
38449SOL    HW218879   1.704   1.366   1.560 -0.5704  0.3858  0.3256
38450SOL     OW18880  10.995   3.180   6.104  0.0628  0.4246 -0.0480
38450SOL    HW118881  11.086   3.190   6.130 -0.3427 -0.1102  1.7472
38450SOL    HW218882  10.960   3.270   6.104  0.3242  0.5275  0.2801
38451SOL     OW18883  10.211   4.883   3.518  0.3239 -0.8093  0.6395
38451SOL    HW118884  10.264   4.852   3.591  0.3064 -2.3063  0.0460
38451SOL    HW218885  10.263   4.864   3.440  0.0846  0.2209  0.2148
38452SOL     OW18886   7.420   3.339   8.630  0.0239 -0.0101 -0.3693
38452SOL    HW118887   7.359   3.327   8.557 -0.0583 -3.7329  0.1103
38452SOL    HW218888   7.504   3.310   8.596 -0.0857 -2.1508  0.9499
38453SOL     OW18889   4.335   7.279   9.818  0.3995  0.0651  0.2399
38453SOL    HW118890   4.420   7.251   9.785 -0.1962 -2.0004  0.3432
38453SOL    HW218891   4.298   7.332   9.747  1.1911 -0.1494 -0.3481
38454SOL     OW18892   5.683   5.798   2.719 -0.0740  0.4387  0.5277
38454SOL    HW118893   5.740   5.740   2.770  1.3841  1.4381  0.0708
38454SOL    HW218894   5.644   5.741   2.652  1.3445 -0.0308  0.0777
38455SOL     OW18895   1.347   4.259   4.674 -0.1063  0.1253 -0.0875
38455SOL    HW118896   1.392   4.262   4.759 -0.3233  0.0109  0.0320
38455SOL    HW218897   1.311   4.347   4.662 -0.1161  0.1281 -0.0382
38456SOL     OW18898   2.645   3.016   4.027  0.3263 -0.2283  0.1868
38456SOL    HW118899   2.712   2.950   4.009 -0.2413 -0.3950 -1.4827
38456SOL    HW218900   2.595   3.022   3.946 -1.9585 -0.4161  1.4911
38457SOL     OW18901   7.836   4.044   0.861 -0.6377  0.1582  0.5302
38457SOL    HW118902   7.896   4.093   0.805 -0.3829 -0.6033  0.1313
38457SOL    HW218903   7.877   4.047   0.948  0.4208 -1.0408  0.1082
38458SOL     OW18904   1.533   1.956   0.133  0.5257 -0.1312  0.4051
38458SOL    HW118905   1.453   1.968   0.184 -0.7523 -0.8185 -1.3559
38458SOL    HW218906   1.589   1.902   0.189  0.2850  1.3496  2.1571
38459SOL     OW18907   2.463   6.945   1.367  0.0573  0.3973  0.9172
38459SOL    HW118908   2.384   6.891   1.377  0.7806 -0.8744  0.0653
38459SOL    HW218909   2.496   6.923   1.280 -0.5646  3.5842 -0.2878
38460SOL     OW18910   5.626   3.647   2.927  0.1350 -0.2766  0.0358
38460SOL    HW118911   5.576   3.707   2.982  0.3165 -0.6852  0.6594
38460SOL    HW218912   5.633   3.567   2.979 -0.3176 -0.9287 -0.8911
38461SOL     OW18913  10.100   1.449   0.928  0.2120 -0.1898  0.2217
38461SOL    HW118914  10.138   1.429   1.014 -0.2066  0.7869  0.6520
38461SOL    HW218915  10.006   1.449   0.942  0.1659  0.9096 -0.0085
38462SOL     OW18916   6.428   8.793   6.980 -0.3974  0.1599 -0.1714
38462SOL    HW118917   6.404   8.763   6.892  0.0625 -0.1000 -0.2144
38462SOL    HW218918   6.346   8.791   7.029 -0.5211 -0.4326 -0.3872
38463SOL     OW18919   3.589   8.132   1.116 -0.0411  0.0541  0.6816
38463SOL    HW118920   3.539   8.188   1.174  0.1984  1.5218 -0.4816
38463SOL    HW218921   3.679   8.166   1.121  0.0063  0.1259 -0.4241
38464SOL     OW18922   7.800  10.289   4.553  0.3029  0.0617 -0.0160
38464SOL    HW118923   7.768  10.219   4.496  0.3381  0.1244 -0.1135
38464SOL    HW218924   7.751  10.366   4.526 -1.2046 -0.3279  1.4313
38465SOL     OW18925   6.658   8.143   2.385  0.3725 -0.0411  0.0821
38465SOL    HW118926   6.565   8.128   2.402  0.5875 -1.5869 -0.0002
38465SOL    HW218927   6.667   8.133   2.290  0.6846 -0.2639  0.1333
38466SOL     OW18928   5.370   5.123   6.254  0.7649 -0.1683 -0.6607
38466SOL    HW118929   5.309   5.180   6.207 -1.2595 -2.4763 -1.1038
38466SOL    HW218930   5.456   5.146   6.220 -0.1966  1.1004 -2.4061
38467SOL     OW18931   2.057   8.825   1.357  0.0736  0.3154 -0.3628
38467SOL    HW118932   2.014   8.773   1.289 -0.9447 -1.0866  1.2812
38467SOL    HW218933   2.147   8.793   1.358 -0.0383 -0.0213 -0.7098
38468SOL     OW18934   8.031   1.640   4.428 -0.1319 -0.2445  0.3324
38468SOL    HW118935   8.019   1.723   4.382  0.8954  0.1996  0.8247
38468SOL    HW218936   8.043   1.665   4.520 -1.8307 -1.0883  0.8175
38469SOL     OW18937   0.676   2.871   1.428 -0.0713  0.0321  0.2959
38469SOL    HW118938   0.748   2.887   1.366  0.3221  3.0899  1.3368
38469SOL    HW218939   0.677   2.948   1.485 -2.7385 -0.9370  1.8148
38470SOL     OW18940   3.232   8.286   0.441 -0.0413 -0.1252 -0.1326
38470SOL    HW118941   3.227   8.373   0.481 -0.4739 -1.2032  2.3605
38470SOL    HW218942   3.172   8.233   0.493 -0.4268 -1.7629 -2.1281
38471SOL     OW18943  10.222   9.637   5.094 -0.5186 -0.2134  0.0272
38471SOL    HW118944  10.209   9.731   5.109  1.1742  0.1458 -0.5609
38471SOL    HW218945  10.261   9.632   5.007 -0.7081 -1.4802  0.0038
38472SOL     OW18946   9.883   6.687   4.627 -0.5364  0.2211  0.4562
38472SOL    HW118947   9.871   6.618   4.692  0.2982 -2.0896 -1.6933
38472SOL    HW218948   9.965   6.666   4.583 -1.3615  1.2863 -1.7836
38473SOL     OW18949   6.987  10.110   5.567  0.1038 -0.5494 -0.0104
38473SOL    HW118950   7.073  10.124   5.530  0.0475 -0.6568 -0.1792
38473SOL    HW218951   6.931  10.087   5.493 -0.6456  1.9623 -0.3410
38474SOL     OW18952   3.194   5.240   7.228 -0.3797 -0.1185  0.4016
38474SOL    HW118953   3.159   5.184   7.159 -1.8125  1.9993 -0.7150
38474SOL    HW218954   3.142   5.217   7.306 -0.3959 -0.8856  0.1703
38475SOL     OW18955  10.911   5.551   5.596 -0.3008  0.5579  0.4575
38475SOL    HW118956  10.878   5.613   5.662 -0.2440  0.7415  0.3154
38475SOL    HW218957  10.880   5.466   5.626  0.0465  0.5933  0.9237
38476SOL     OW18958   0.499   1.671   1.791 -0.6965 -0.8190  0.1009
38476SOL    HW118959   0.473   1.625   1.711  1.0617  2.2952 -2.4926
38476SOL    HW218960   0.443   1.748   1.794  0.9042  0.3781  0.4336
38477SOL     OW18961   1.723   4.897   3.077  0.0799  0.1370 -0.3535
38477SOL    HW118962   1.776   4.844   3.137 -0.3911  0.2687  0.1939
38477SOL    HW218963   1.780   4.914   3.003  0.4061 -0.7173 -0.3120
38478SOL     OW18964   3.244   8.637   3.885 -0.4234  0.2339 -0.1812
38478SOL    HW118965   3.273   8.652   3.975 -1.1248  1.8378 -0.1834
38478SOL    HW218966   3.325   8.625   3.835  0.0373  0.6457  0.4516
38479SOL     OW18967   7.464   4.823   2.367 -0.0817  0.3399 -0.1252
38479SOL    HW118968   7.426   4.909   2.351 -1.4667 -0.3550 -0.7828
38479SOL    HW218969   7.544   4.840   2.416  1.0396  2.1922 -2.4253
38480SOL     OW18970   7.578   6.532   6.796 -0.2209  0.0328 -0.1913
38480SOL    HW118971   7.659   6.522   6.746 -0.0076  2.4332 -0.4677
38480SOL    HW218972   7.537   6.610   6.759 -0.8078  1.0309  2.3504
38481SOL     OW18973   4.425   0.654   2.435 -0.2170  0.4101  0.1008
38481SOL    HW118974   4.418   0.613   2.521  1.0884 -0.3782 -0.1436
38481SOL    HW218975   4.337   0.690   2.419 -0.2954  1.1855  2.0319
38482SOL     OW18976   5.776  10.602   7.802 -0.3730  0.5006  0.9060
38482SOL    HW118977   5.856  10.621   7.753 -1.1398  2.9458  0.4772
38482SOL    HW218978   5.705  10.626   7.742 -1.4679 -1.2664  1.4191
38483SOL     OW18979  10.836   4.711   9.063 -0.0854 -0.0443  0.0744
38483SOL    HW118980  10.924   4.707   9.100  0.4403  1.1025 -0.9833
38483SOL    HW218981  10.786   4.761   9.126 -0.1446 -1.1605  0.9454
38484SOL     OW18982   2.248   6.989   7.676 -0.3714 -0.2100  0.1425
38484SOL    HW118983   2.251   7.050   7.750 -0.9683  1.9179 -1.4876
38484SOL    HW218984   2.336   6.954   7.670  0.5840  2.0036  0.0137
38485SOL     OW18985   7.826   9.093   9.560 -0.0323 -0.2753  0.7478
38485SOL    HW118986   7.882   9.126   9.489 -0.0655  0.8730  1.2416
38485SOL    HW218987   7.737   9.095   9.523 -0.2342  1.6219  1.2325
38486SOL     OW18988   4.719   5.518   2.995  0.2461 -0.5971 -0.0367
38486SOL    HW118989   4.632   5.544   3.026 -0.2485 -2.1134 -0.0695
38486SOL    HW218990   4.761   5.480   3.072 -0.3227 -2.7366 -0.7184
38487SOL     OW18991  10.743   0.127  10.291 -0.2588  0.2913 -0.1373
38487SOL    HW118992  10.783   0.208  10.323 -1.2268  0.6025  0.3205
38487SOL    HW218993  10.679   0.157  10.227  0.0678 -0.1866 -0.6942
38488SOL     OW18994  10.426   4.909   3.002 -0.2323  0.3842  0.0063
38488SOL    HW118995  10.406   4.828   3.049 -0.5252 -1.5096 -3.0681
38488SOL    HW218996  10.522   4.910   2.996 -0.1070  1.2901  1.5523
38489SOL     OW18997   9.713   6.527   0.453 -0.0959  0.0753  0.3636
38489SOL    HW118998   9.686   6.474   0.378 -0.5835 -0.2811  0.7807
38489SOL    HW218999   9.808   6.518   0.455  0.3602  2.7845 -2.1918
38490SOL     OW19000   1.874   0.627   3.811  0.7264 -0.0417  0.0942
38490SOL    HW119001   1.949   0.588   3.766 -0.6560 -0.8079 -1.6630
38490SOL    HW219002   1.825   0.553   3.847  0.3037  0.3748  0.4011
38491SOL     OW19003   7.698   8.913   7.387  0.4549  0.0570 -0.0906
38491SOL    HW119004   7.632   8.895   7.453  0.2955  0.1028 -0.2375
38491SOL    HW219005   7.650   8.917   7.305  0.5648  0.6288 -0.1297
38492SOL     OW19006   0.476   1.010   1.866 -0.0422  0.4523 -0.4292
38492SOL    HW119007   0.469   0.942   1.798 -0.5067  1.2304 -1.1800
38492SOL    HW219008   0.388   1.048   1.871  0.4173  1.5931 -0.6717
38493SOL     OW19009   6.692   9.449   3.875 -0.0865  0.5127 -0.2701
38493SOL    HW119010   6.787   9.445   3.872 -0.1148 -0.8120  0.1635
38493SOL    HW219011   6.672   9.510   3.945  0.4616 -0.8184  1.0982
38494SOL     OW19012   3.438   3.738   1.595  0.3532  0.9721  0.3006
38494SOL    HW119013   3.531   3.759   1.601  0.5719  0.2318 -0.2545
38494SOL    HW219014   3.435   3.642   1.605 -0.4962  1.1275  1.8102
38495SOL     OW19015   4.049   7.521   4.758 -0.4393 -0.5649 -0.5530
38495SOL    HW119016   4.082   7.477   4.680  0.5619 -1.8666  0.5552
38495SOL    HW219017   4.008   7.600   4.725  0.7159 -0.6459 -2.3326
38496SOL     OW19018   8.053   9.832   2.942  0.5697 -0.0825 -0.1211
38496SOL    HW119019   8.049   9.865   3.032 -0.5280  0.0294 -0.1946
38496SOL    HW219020   8.009   9.899   2.890 -1.8541 -1.6516 -0.2541
38497SOL     OW19021   4.887  10.236   2.388  0.3616  0.3151  0.3190
38497SOL    HW119022   4.800  10.235   2.429 -0.1607 -0.6922 -0.7301
38497SOL    HW219023   4.920  10.147   2.401  0.9497  0.5087  0.1411
38498SOL     OW19024   7.001  11.080   8.850  0.1273  0.7761 -0.0889
38498SOL    HW119025   7.035  11.034   8.927 -1.3665  1.9435  1.3621
38498SOL    HW219026   7.078  11.101   8.798  1.2799  0.6884  1.5276
38499SOL     OW19027   8.760   3.911   3.906  0.2415  0.3864 -0.0395
38499SOL    HW119028   8.796   3.880   3.823  3.9207  0.3368  1.3820
38499SOL    HW219029   8.765   4.007   3.900  0.2860  0.3889  0.0340
38500SOL     OW19030   3.556   5.535  10.601  0.6336  0.2503 -0.4747
38500SOL    HW119031   3.526   5.482  10.674 -0.1279 -1.1929 -1.8078
38500SOL    HW219032   3.648   5.554  10.623  0.4911 -0.3292  0.7378
38501SOL     OW19033  10.313   5.697   1.136  0.2269 -0.4896 -0.0943
38501SOL    HW119034  10.319   5.742   1.221 -0.3730 -1.0629  0.2540
38501SOL    HW219035  10.374   5.746   1.080  0.2636  0.2020  0.5235
38502SOL     OW19036  11.094   0.269   3.386  0.0018  0.1424 -0.2166
38502SOL    HW119037  11.062   0.292   3.473 -0.6641 -2.3055  0.2790
38502SOL    HW219038  11.015   0.251   3.335  0.4273 -0.4846 -0.6782
38503SOL     OW19039   6.389   9.131   4.241 -0.2306  0.4405  0.9019
38503SOL    HW119040   6.361   9.083   4.163  0.7301  0.5417  0.4709
38503SOL    HW219041   6.424   9.213   4.207  1.5967 -0.1343  1.2665
38504SOL     OW19042  10.247   3.854   4.009 -0.5081  0.0251  0.4686
38504SOL    HW119043  10.266   3.834   3.918 -1.4607  0.0646  0.2492
38504SOL    HW219044  10.333   3.867   4.050  0.0121 -1.6795 -0.0175
38505SOL     OW19045   5.852  10.492   5.526  0.1029  0.3822 -0.2657
38505SOL    HW119046   5.886  10.575   5.493  4.2293 -0.2743  1.6489
38505SOL    HW219047   5.920  10.428   5.507 -1.6688 -2.0021  0.8029
38506SOL     OW19048   5.266   0.793   2.395  0.1905 -0.5499 -0.2485
38506SOL    HW119049   5.298   0.719   2.448 -1.8598 -0.5619  1.0844
38506SOL    HW219050   5.217   0.752   2.325 -0.0316 -0.4742 -0.1374
38507SOL     OW19051   9.862   9.011   4.473 -0.2788 -0.2668 -0.1534
38507SOL    HW119052   9.915   9.089   4.457  0.8781 -1.2112 -1.0635
38507SOL    HW219053   9.783   9.045   4.514  0.7656  1.2507  0.7257
38508SOL     OW19054   8.400   8.958   0.808 -0.5683  0.2417 -0.5798
38508SOL    HW119055   8.487   8.918   0.814 -1.6310 -1.9946  2.0815
38508SOL    HW219056   8.380   8.986   0.897 -2.5654  0.8030 -1.1561
38509SOL     OW19057   1.521  10.894   3.876  0.8919  0.2105 -0.1028
38509SOL    HW119058   1.598  10.864   3.827  0.5969  0.0307 -0.4578
38509SOL    HW219059   1.466  10.816   3.884 -0.8095  1.0006 -2.7247
38510SOL     OW19060   7.088   2.541  10.673  0.2127  0.0193 -0.0799
38510SOL    HW119061   7.033   2.467  10.699  0.7433 -0.3622 -0.0184
38510SOL    HW219062   7.143   2.557  10.750  3.1131 -2.3168 -1.4838
38511SOL     OW19063   1.446   2.091   0.526 -0.3832 -0.5978  0.3441
38511SOL    HW119064   1.391   2.015   0.548  0.6759 -1.4188  0.2379
38511SOL    HW219065   1.485   2.068   0.442 -0.8826  0.5482 -0.2150
38512SOL     OW19066   7.810   9.471   4.513  0.0037 -0.2646 -0.1529
38512SOL    HW119067   7.858   9.427   4.583 -1.2463  0.9151  1.5331
38512SOL    HW219068   7.751   9.404   4.478 -1.4839 -0.2035  1.9998
38513SOL     OW19069   5.607   6.541   2.519  0.3555  0.0602 -0.1623
38513SOL    HW119070   5.580   6.596   2.445  2.9475  1.6090 -0.0596
38513SOL    HW219071   5.643   6.462   2.478  0.1811  0.1446 -0.4828
38514SOL     OW19072   5.262   7.202   9.094  0.1266  0.4683  0.0218
38514SOL    HW119073   5.269   7.206   8.999 -0.9187 -1.1641 -0.1630
38514SOL    HW219074   5.177   7.162   9.110 -0.0362  1.3861  1.6729
38515SOL     OW19075   9.286   8.741   3.992  0.3761  0.0424  0.1041
38515SOL    HW119076   9.379   8.718   3.983 -0.0601 -1.9342  0.1798
38515SOL    HW219077   9.245   8.703   3.915 -0.3277  1.3677 -0.2064
38516SOL     OW19078   5.868  10.663   3.065 -0.4072 -0.5375  0.4960
38516SOL    HW119079   5.906  10.734   3.117  0.8685 -0.8447  0.0259
38516SOL    HW219080   5.903  10.583   3.104 -0.8735 -0.8554  0.2699
38517SOL     OW19081   6.429   7.096   0.695  0.1502 -0.2199 -0.6184
38517SOL    HW119082   6.410   7.177   0.648 -0.2412 -0.1148 -0.2964
38517SOL    HW219083   6.363   7.034   0.664 -0.4472  0.0029  0.1571
38518SOL     OW19084   0.763   3.376   4.184  0.1748 -0.0609  0.0809
38518SOL    HW119085   0.836   3.432   4.212  0.5374 -0.4057 -0.1478
38518SOL    HW219086   0.774   3.296   4.236 -1.0276  0.5136  1.2631
38519SOL     OW19087   7.351   5.031   3.275 -0.1196  0.5033  0.0133
38519SOL    HW119088   7.411   5.014   3.203 -0.0491 -0.6075  0.3155
38519SOL    HW219089   7.408   5.048   3.350 -0.1281 -1.3246  0.4844
38520SOL     OW19090   1.048   9.384   0.025  0.4088 -0.3067  0.2927
38520SOL    HW119091   1.032   9.418  -0.063  1.8105 -0.0159  0.1204
38520SOL    HW219092   1.051   9.289   0.014 -0.5308 -0.3349  0.2346
38521SOL     OW19093   6.595   6.963   2.610 -0.0251 -0.4376 -0.1070
38521SOL    HW119094   6.645   6.887   2.580  2.1990  0.2049  1.6572
38521SOL    HW219095   6.564   6.938   2.697  1.0884  0.7742  0.6663
38522SOL     OW19096   6.575   1.461   7.714 -0.2100  0.2303 -0.0436
38522SOL    HW119097   6.546   1.466   7.623 -1.2505 -0.0441  0.2587
38522SOL    HW219098   6.620   1.544   7.730 -0.2406  0.3824 -0.7322
38523SOL     OW19099   8.686   4.918   4.703 -0.2653  0.4957 -0.0436
38523SOL    HW119100   8.644   4.996   4.739 -1.0909 -0.0723  0.2651
38523SOL    HW219101   8.754   4.951   4.645 -1.3191  1.4580 -0.7655
38524SOL     OW19102  11.007   8.823   6.545  0.2704  0.0972  0.1025
38524SOL    HW119103  10.933   8.762   6.554 -0.3179  0.7098 -0.4610
38524SOL    HW219104  11.083   8.771   6.570 -0.0650 -1.2577 -1.4653
38525SOL     OW19105   8.268   4.491   2.517 -0.1295 -0.4103 -0.5419
38525SOL    HW119106   8.316   4.469   2.438 -0.1779 -1.1613 -0.3645
38525SOL    HW219107   8.227   4.576   2.498  1.1612  0.1869 -0.7281
38526SOL     OW19108   3.117   7.008   1.211 -0.7782 -0.1781 -0.3128
38526SOL    HW119109   3.174   7.012   1.288 -0.4170 -0.7565 -0.5398
38526SOL    HW219110   3.172   6.970   1.143 -1.0733  0.4133 -0.8835
38527SOL     OW19111   5.078   7.693   4.028  0.4762  0.1828 -0.6007
38527SOL    HW119112   5.128   7.752   4.085 -0.9592  0.3172  0.5563
38527SOL    HW219113   5.004   7.664   4.081 -0.6733 -0.0391 -2.2319
38528SOL     OW19114  10.488   5.683   7.645 -0.4666 -0.2963 -0.2279
38528SOL    HW119115  10.566   5.687   7.589 -0.9961  0.5491 -0.9405
38528SOL    HW219116  10.415   5.684   7.583 -1.0428 -1.1637  0.4344
38529SOL     OW19117   3.385   7.939   2.202  0.7046  0.1444 -0.2257
38529SOL    HW119118   3.299   7.905   2.179  1.0400 -0.9704  0.0950
38529SOL    HW219119   3.404   7.901   2.288  0.3647  2.5467  0.9872
38530SOL     OW19120   3.238  11.098   4.517  0.4918 -0.0202 -0.7419
38530SOL    HW119121   3.143  11.099   4.508  0.5222 -0.9392 -1.2978
38530SOL    HW219122   3.265  11.187   4.494 -0.1308 -0.1182 -1.9271
38531SOL     OW19123   5.063  10.166   3.489 -0.3695  0.0389  0.1255
38531SOL    HW119124   5.003  10.123   3.550 -1.0604 -0.4155 -0.8489
38531SOL    HW219125   5.007  10.217   3.431  0.2398  0.1175 -0.4140
38532SOL     OW19126   9.882   8.829   4.270 -0.0640  0.4710  0.2054
38532SOL    HW119127   9.822   8.852   4.198  1.5597  1.4648 -0.9133
38532SOL    HW219128   9.874   8.902   4.332 -0.5768  0.2187  0.4355
38533SOL     OW19129   9.413  10.896   2.525 -0.2544  0.6106 -0.0418
38533SOL    HW119130   9.391  10.808   2.556 -0.2010  0.4156 -0.5544
38533SOL    HW219131   9.328  10.937   2.507 -0.3691  1.2104  1.6325
38534SOL     OW19132   9.343   0.366   0.886 -0.0252 -0.2928  0.0302
38534SOL    HW119133   9.355   0.458   0.907 -1.4439  0.0049 -0.3782
38534SOL    HW219134   9.431   0.335   0.864  0.0829  1.7991 -3.1629
38535SOL     OW19135  10.014   0.567  10.865 -0.4053  0.1423 -0.1629
38535SOL    HW119136  10.071   0.491  10.874 -0.3769  0.3409  1.8552
38535SOL    HW219137  10.064   0.639  10.904 -0.7187  1.0592 -1.3833
38536SOL     OW19138   3.957   7.157   0.575 -0.1316 -0.6395  0.1786
38536SOL    HW119139   3.919   7.244   0.571 -1.7248 -1.2844  0.6253
38536SOL    HW219140   3.970   7.141   0.669  0.6729 -0.6770  0.0684
38537SOL     OW19141   2.422  10.257   0.542  0.0383  0.8672 -0.0366
38537SOL    HW119142   2.503  10.292   0.580  0.3643  0.4743 -0.3582
38537SOL    HW219143   2.439  10.163   0.532 -0.4884  0.7708 -0.0304
38538SOL     OW19144   1.103   4.577  10.217 -0.2385 -0.1039  0.0817
38538SOL    HW119145   1.011   4.592  10.240 -0.7533  0.4276 -2.0480
38538SOL    HW219146   1.144   4.549  10.298 -1.9432  1.1523  1.4569
38539SOL     OW19147   2.374   4.676   8.711 -0.5266 -0.1409  0.2705
38539SOL    HW119148   2.437   4.605   8.711  0.4696  0.7186  0.1699
38539SOL    HW219149   2.293   4.636   8.680  0.6397 -0.7148 -2.3161
38540SOL     OW19150   9.726  10.881  10.969 -0.0211 -0.2909  0.6614
38540SOL    HW119151   9.750  10.817  11.036 -0.1234 -0.3997  0.5926
38540SOL    HW219152   9.658  10.934  11.011  1.0334  0.6602  1.2240
38541SOL     OW19153   8.405  10.602   0.931 -0.6249 -0.1930  0.3220
38541SOL    HW119154   8.463  10.554   0.871 -1.4809  1.0808 -1.6139
38541SOL    HW219155   8.328  10.623   0.878 -2.1747 -0.4194  2.3792
38542SOL     OW19156   4.086   3.266   9.566 -0.1998 -0.1469  0.4453
38542SOL    HW119157   4.153   3.328   9.594 -0.2133  1.9253 -3.3629
38542SOL    HW219158   4.003   3.304   9.595 -0.0627  0.5840 -0.0875
38543SOL     OW19159   2.492   9.477   0.570  0.1448  0.4593 -0.0202
38543SOL    HW119160   2.547   9.485   0.493 -1.4010  0.3888 -1.1829
38543SOL    HW219161   2.447   9.393   0.559  0.2950  0.1971  1.2300
38544SOL     OW19162   3.402  10.351   6.634  0.3678  0.4569  0.4636
38544SOL    HW119163   3.354  10.389   6.560  1.2603  0.1376 -0.3191
38544SOL    HW219164   3.336  10.332   6.699 -0.5429  0.1259 -0.5314
38545SOL     OW19165   5.335   9.888   9.615  0.4109 -0.1285 -0.5733
38545SOL    HW119166   5.328   9.918   9.525  0.4421  1.5283 -0.0614
38545SOL    HW219167   5.410   9.936   9.650  0.9634 -1.4312  0.0952
38546SOL     OW19168   6.455   3.590   0.122  0.0466 -0.2295 -0.1452
38546SOL    HW119169   6.394   3.541   0.176  0.0103 -0.9957 -0.8500
38546SOL    HW219170   6.419   3.584   0.033 -0.2551  1.5573 -0.1867
38547SOL     OW19171   8.181   5.909   3.015 -0.0216  0.4200  0.0139
38547SOL    HW119172   8.237   5.835   3.038  1.5582  0.8646 -2.0830
38547SOL    HW219173   8.242   5.978   2.987 -1.5262  1.8926  0.1644
38548SOL     OW19174   2.969  10.144  10.962 -0.4694 -0.1156 -1.0107
38548SOL    HW119175   2.981  10.238  10.978 -0.8382  0.0835 -1.8121
38548SOL    HW219176   2.985  10.103  11.046 -0.1524  0.6579 -0.6806
38549SOL     OW19177   9.145   7.839   7.217 -0.0229  0.1012  0.4415
38549SOL    HW119178   9.219   7.895   7.192 -0.0394 -0.5558 -1.2011
38549SOL    HW219179   9.186   7.762   7.257  0.2861 -0.6955 -1.3201
38550SOL     OW19180   0.860   5.352   3.466 -0.9185 -0.6116 -0.2516
38550SOL    HW119181   0.953   5.344   3.485 -0.3102 -1.0965 -2.9678
38550SOL    HW219182   0.841   5.445   3.472 -0.0778 -0.4277 -0.4185
38551SOL     OW19183   8.090   6.878   3.919  0.7418  0.4505 -0.0887
38551SOL    HW119184   8.108   6.796   3.872 -0.4998  0.1321 -0.0337
38551SOL    HW219185   8.174   6.902   3.958  1.1936 -0.6383 -0.3532
38552SOL     OW19186   3.118   4.244   4.173 -0.3715 -0.1344 -0.6079
38552SOL    HW119187   3.058   4.172   4.189 -1.0880  0.2507 -1.4682
38552SOL    HW219188   3.100   4.307   4.242  1.5387 -1.5081  1.2868
38553SOL     OW19189   4.809   4.278   1.807 -0.3964  0.1722  0.0404
38553SOL    HW119190   4.855   4.347   1.760  0.7437 -0.2377  0.5052
38553SOL    HW219191   4.877   4.213   1.826 -1.5203 -1.2884 -0.7560
38554SOL     OW19192   0.444   2.123   7.996  0.4921 -0.5119  0.2150
38554SOL    HW119193   0.350   2.140   7.988  0.3069 -0.2454  2.3116
38554SOL    HW219194   0.485   2.196   7.952 -0.3091  0.4216  0.9673
38555SOL     OW19195   3.785   3.102   1.495  0.3219 -0.2356  0.0502
38555SOL    HW119196   3.707   3.133   1.449  0.0412 -1.5370 -0.4061
38555SOL    HW219197   3.858   3.126   1.438 -0.1460 -3.5788 -2.2334
38556SOL     OW19198   2.949  10.775   4.850  0.4667 -0.2945 -0.1180
38556SOL    HW119199   3.013  10.723   4.899  0.9338 -0.4293 -0.8619
38556SOL    HW219200   2.864  10.739   4.876  0.6070  0.4564  1.5661
38557SOL     OW19201   1.689   1.431   6.544 -0.6003  0.4598 -0.0002
38557SOL    HW119202   1.748   1.363   6.576  0.2214  1.5237  0.8602
38557SOL    HW219203   1.615   1.429   6.604  0.0685  1.2118  0.8792
38558SOL     OW19204   7.389   7.371   9.934 -0.0624 -0.1667 -0.4562
38558SOL    HW119205   7.343   7.323  10.002  0.6988  1.0718  0.9843
38558SOL    HW219206   7.442   7.305   9.889  0.4341 -0.8062  1.0144
38559SOL     OW19207   5.737   1.919  10.654  0.5012 -0.4109  0.0007
38559SOL    HW119208   5.691   1.838  10.632  0.9022 -0.8514  0.7506
38559SOL    HW219209   5.819   1.915  10.603 -0.6674  0.8590 -2.1564
38560SOL     OW19210   1.038   7.456  10.657  0.3030 -0.2710  0.2282
38560SOL    HW119211   1.117   7.402  10.657 -0.4070 -1.3601  1.1203
38560SOL    HW219212   0.973   7.402  10.701 -0.8581  0.7370 -0.2162
38561SOL     OW19213   6.001   7.551   4.463 -0.7534  0.0072 -0.2519
38561SOL    HW119214   6.080   7.501   4.482 -0.6347 -0.0443 -0.8680
38561SOL    HW219215   5.930   7.487   4.470 -0.9323  0.3688  1.8303
38562SOL     OW19216   1.105   1.383  10.816 -0.0506 -0.0552 -0.1018
38562SOL    HW119217   1.071   1.407  10.730  0.4566 -0.9038 -0.5489
38562SOL    HW219218   1.057   1.304  10.840 -0.2714  0.2449  0.4465
38563SOL     OW19219   6.344   5.336   3.394 -0.3119 -0.0782 -0.4544
38563SOL    HW119220   6.439   5.338   3.378 -0.1344 -0.7227  0.4219
38563SOL    HW219221   6.337   5.320   3.488 -1.2877  1.9347 -0.1391
38564SOL     OW19222   3.533  11.027   8.913 -0.0541  0.9384 -0.0232
38564SOL    HW119223   3.502  10.998   8.828  0.3543 -0.8237  0.3900
38564SOL    HW219224   3.499  10.962   8.975  0.0382  1.9258  1.1057
38565SOL     OW19225  10.046   0.354   9.283 -0.1368 -0.0520  0.1710
38565SOL    HW119226  10.117   0.369   9.221  1.8273 -0.7823  2.1182
38565SOL    HW219227   9.985   0.425   9.266  2.0697  1.8827 -0.2206
38566SOL     OW19228  10.777   9.137   8.914  0.2639  0.3385  0.2026
38566SOL    HW119229  10.752   9.165   9.001  1.9173 -0.0662  0.8514
38566SOL    HW219230  10.793   9.218   8.866 -1.5331  0.5864 -0.0510
38567SOL     OW19231   1.338  10.154  10.985 -0.7686  0.4849  0.8719
38567SOL    HW119232   1.316  10.127  11.074 -0.4863  0.7176  1.0146
38567SOL    HW219233   1.331  10.249  10.986  1.1966  0.6611  1.2064
38568SOL     OW19234   5.698   8.504   2.206  0.6185 -0.1869  0.1846
38568SOL    HW119235   5.693   8.466   2.119 -2.1272 -0.6753  0.4772
38568SOL    HW219236   5.641   8.581   2.202  0.0812 -0.4798  1.6522
38569SOL     OW19237   9.687   3.645   9.444 -0.0237  0.4971  0.9117
38569SOL    HW119238   9.618   3.693   9.490  1.0495  2.2426  0.7811
38569SOL    HW219239   9.681   3.676   9.354 -1.2648 -1.9248  0.0913
38570SOL     OW19240   6.524   2.024   1.358  0.1854 -0.2916  0.0996
38570SOL    HW119241   6.532   1.937   1.398 -0.9221  0.2365  1.5448
38570SOL    HW219242   6.443   2.060   1.394  0.2657  1.0855 -1.0015
38571SOL     OW19243   6.006   9.169   0.169  0.1116 -0.1166  0.3547
38571SOL    HW119244   6.096   9.171   0.137  0.5935 -3.0106  1.2347
38571SOL    HW219245   5.956   9.129   0.097 -0.1779 -0.0043  0.4905
38572SOL     OW19246   5.009   7.579  10.093 -0.5709 -0.5224  0.3327
38572SOL    HW119247   5.025   7.533  10.175 -2.0672 -0.1902  0.8337
38572SOL    HW219248   5.004   7.671  10.118  3.5658  0.2126 -0.8128
38573SOL     OW19249   7.914   8.178  10.422  0.3334  0.3123  0.1341
38573SOL    HW119250   7.842   8.232  10.390 -0.8309 -1.3636 -0.1895
38573SOL    HW219251   7.953   8.141  10.343  0.6798  0.1314  0.3893
38574SOL     OW19252  10.407   5.791   9.273 -0.2801 -0.1213 -0.0490
38574SOL    HW119253  10.325   5.741   9.272  0.1230 -0.8244  0.5939
38574SOL    HW219254  10.461   5.749   9.205  0.5125 -1.3944  1.3053
38575SOL     OW19255   3.158   9.571   4.144 -0.0126  0.3070 -0.6879
38575SOL    HW119256   3.251   9.547   4.137 -0.2165 -0.1277 -2.6517
38575SOL    HW219257   3.130   9.582   4.053 -1.7443  1.0479 -0.1019
38576SOL     OW19258   4.739   7.885   6.529  0.1270  0.0754 -0.3470
38576SOL    HW119259   4.718   7.817   6.592  2.7699  0.4785  1.1081
38576SOL    HW219260   4.655   7.904   6.486 -1.3277 -1.7866  1.4335
38577SOL     OW19261   6.598   7.881   4.780 -0.3657  0.1973  0.1804
38577SOL    HW119262   6.542   7.901   4.855 -1.4754  1.0642 -0.8275
38577SOL    HW219263   6.680   7.929   4.798 -0.6066  0.3741  0.8368
38578SOL     OW19264   5.345   4.485   4.259 -0.0684 -0.4549 -0.2060
38578SOL    HW119265   5.374   4.405   4.301  0.0828  0.2999  1.2032
38578SOL    HW219266   5.391   4.555   4.306 -2.5010  0.6474  0.7295
38579SOL     OW19267   6.942   8.960   7.094  0.0406 -0.2849  0.2356
38579SOL    HW119268   7.022   8.923   7.130  0.1843  0.2002  0.4158
38579SOL    HW219269   6.873   8.901   7.125  0.4724 -1.6706 -1.2804
38580SOL     OW19270   7.438   2.333   9.417  0.7805 -0.2260  0.2628
38580SOL    HW119271   7.356   2.310   9.374 -0.2124 -0.5778  2.2149
38580SOL    HW219272   7.503   2.333   9.347 -1.0943  1.4661 -1.6433
38581SOL     OW19273   3.592   0.238   7.490 -0.3295  0.1799 -0.8109
38581SOL    HW119274   3.548   0.161   7.525  0.6467 -0.7920 -1.6488
38581SOL    HW219275   3.583   0.304   7.559  0.1646 -1.1667  0.6008
38582SOL     OW19276   1.307  11.028   8.490  0.2468  0.3198  0.0480
38582SOL    HW119277   1.291  11.031   8.584  1.2329 -1.0671  0.2809
38582SOL    HW219278   1.380  11.090   8.477 -0.5693  1.3014  0.0188
38583SOL     OW19279   5.885   9.743   4.374 -0.6531 -0.6380 -0.4600
38583SOL    HW119280   5.825   9.786   4.313  0.1382  0.2672 -0.6348
38583SOL    HW219281   5.834   9.732   4.454 -0.9431  0.5024 -0.4654
38584SOL     OW19282   1.237   3.472   5.802  0.2949 -0.5719  0.0424
38584SOL    HW119283   1.235   3.475   5.707 -0.1749  1.9921  0.0514
38584SOL    HW219284   1.216   3.381   5.825  0.6901 -1.2973 -2.2643
38585SOL     OW19285   4.272   4.259   6.479 -0.0892 -0.0515  0.3219
38585SOL    HW119286   4.242   4.222   6.396  2.6993 -1.1886 -0.2649
38585SOL    HW219287   4.220   4.214   6.545 -0.0619 -1.5859 -0.6479
38586SOL     OW19288   7.431   5.518   5.431 -0.5840  0.0465  0.4689
38586SOL    HW119289   7.382   5.454   5.481 -2.0210  1.3722  0.8448
38586SOL    HW219290   7.383   5.527   5.349  1.3934 -1.6342 -0.9855
38587SOL     OW19291   0.437  11.010   3.366 -0.3724 -0.3655 -0.7518
38587SOL    HW119292   0.407  10.925   3.399  1.2855 -0.0465  1.8647
38587SOL    HW219293   0.357  11.058   3.347 -1.4882 -1.0595  1.7777
38588SOL     OW19294  10.149   7.811   8.124 -0.5206  0.1621 -0.1476
38588SOL    HW119295  10.225   7.762   8.091 -0.3813 -0.0208  0.4285
38588SOL    HW219296  10.092   7.820   8.048 -0.3808 -0.5873 -0.3548
38589SOL     OW19297   2.314   9.637   2.030  0.0522  0.1795  0.1473
38589SOL    HW119298   2.406   9.661   2.020 -0.2099  0.8765 -0.7857
38589SOL    HW219299   2.294   9.584   1.953 -1.1095  2.6618 -1.3820
38590SOL     OW19300  10.664   4.892  11.077  0.0024 -0.0708 -0.1593
38590SOL    HW119301  10.642   4.984  11.087 -0.3106 -0.0558 -0.8914
38590SOL    HW219302  10.759   4.888  11.082 -0.0711  0.0316  1.8374
38591SOL     OW19303   8.067   2.299   7.804 -0.6765  0.0922  0.0716
38591SOL    HW119304   8.134   2.298   7.736 -0.6961  0.8973  0.0223
38591SOL    HW219305   8.115   2.310   7.886 -0.6562 -0.8326  0.1862
38592SOL     OW19306   1.273  10.513   8.575 -0.1117 -0.1326 -0.4175
38592SOL    HW119307   1.303  10.430   8.538  0.8972  0.0786 -0.1212
38592SOL    HW219308   1.321  10.521   8.657 -2.3985 -0.6545  1.0517
38593SOL     OW19309   0.892   3.531   8.682 -0.0376 -0.2332  0.0928
38593SOL    HW119310   0.895   3.474   8.759 -2.3474 -1.5320 -0.6831
38593SOL    HW219311   0.971   3.508   8.633  0.9667 -0.0651  1.5687
38594SOL     OW19312   6.692   7.038   8.272  0.3365  0.4413  0.1882
38594SOL    HW119313   6.605   7.078   8.280  0.8103  1.4315  0.4540
38594SOL    HW219314   6.698   6.980   8.347 -0.7705 -0.9746 -0.7602
38595SOL     OW19315   1.157  10.309   2.755 -0.6283 -0.0486 -0.3107
38595SOL    HW119316   1.182  10.402   2.754 -0.0113 -0.1972  0.6218
38595SOL    HW219317   1.222  10.267   2.697  0.2496 -0.1661  0.7284
38596SOL     OW19318   3.979  10.713   7.419 -0.4892 -0.1432  0.8403
38596SOL    HW119319   3.960  10.805   7.400 -0.2937 -0.4286 -0.9068
38596SOL    HW219320   4.036  10.716   7.496 -0.1515  1.2072  0.5734
38597SOL     OW19321   7.403   4.284   7.251  0.3724 -0.1507 -0.2435
38597SOL    HW119322   7.337   4.349   7.225  1.4220  0.9268 -0.2994
38597SOL    HW219323   7.374   4.255   7.337  0.0693  0.6633 -0.0574
38598SOL     OW19324   7.415   3.069   9.022  0.0710 -0.4423 -0.2400
38598SOL    HW119325   7.479   3.045   8.954 -0.4975 -0.2738 -0.8443
38598SOL    HW219326   7.408   3.164   9.016  1.3102 -0.2370  1.2411
38599SOL     OW19327   8.659   6.688   4.777 -0.2672  0.1182 -0.5611
38599SOL    HW119328   8.657   6.596   4.801 -0.6705  0.5010  1.0012
38599SOL    HW219329   8.596   6.695   4.705  0.3494 -0.9388 -1.2320
38600SOL     OW19330   9.512   6.640  10.720 -0.3441  0.1715 -0.6294
38600SOL    HW119331   9.467   6.709  10.672 -1.3525 -0.6287 -0.8905
38600SOL    HW219332   9.546   6.582  10.652 -2.1473 -1.1978 -0.4510
38601SOL     OW19333   8.905   3.470   5.128 -0.0540  0.3264 -0.1295
38601SOL    HW119334   8.957   3.393   5.152 -2.8792 -1.4055  0.8637
38601SOL    HW219335   8.817   3.435   5.112 -1.3796  3.3256  0.0750
38602SOL     OW19336   8.024   5.656   1.405 -0.5401 -0.8129 -0.0401
38602SOL    HW119337   8.041   5.594   1.476 -0.8983 -3.1675 -1.8989
38602SOL    HW219338   7.929   5.667   1.404 -0.3845  1.0692  1.2549
38603SOL     OW19339   5.222   2.812   2.325  0.4446 -0.3142 -0.1544
38603SOL    HW119340   5.302   2.864   2.342 -0.1936  0.5958  0.1855
38603SOL    HW219341   5.151   2.874   2.341 -0.3515 -1.3127  0.2538
38604SOL     OW19342   0.388  10.734   2.207  0.0299 -0.5348 -0.3561
38604SOL    HW119343   0.428  10.744   2.121 -1.3143 -0.8172 -1.0487
38604SOL    HW219344   0.407  10.815   2.253 -1.4061  0.7414 -1.8776
38605SOL     OW19345   0.395   5.408   4.251  0.6506 -0.8159  0.2465
38605SOL    HW119346   0.442   5.346   4.197  1.7909  2.5815 -3.1076
38605SOL    HW219347   0.462   5.453   4.302 -0.0493 -1.5914  1.9444
38606SOL     OW19348   6.407   5.649   1.736  0.0074  0.2935  0.2277
38606SOL    HW119349   6.380   5.566   1.698  0.1790 -0.3674  1.4758
38606SOL    HW219350   6.489   5.670   1.691  0.6049 -0.8480  0.7197
38607SOL     OW19351   4.399   8.557   8.566 -0.3442 -0.2984 -0.0216
38607SOL    HW119352   4.366   8.472   8.596  0.8316 -0.1925  1.7290
38607SOL    HW219353   4.492   8.542   8.549 -0.6179  0.0863 -2.1043
38608SOL     OW19354   4.830   8.537   9.895  0.0707  0.5786 -0.2649
38608SOL    HW119355   4.753   8.586   9.926  0.9687  1.5958  0.4359
38608SOL    HW219356   4.807   8.510   9.806  0.7962  5.3929 -2.2198
38609SOL     OW19357   0.184   7.979   1.760  0.2288  0.2866 -0.1911
38609SOL    HW119358   0.162   7.904   1.705  0.9077 -0.0405 -0.0278
38609SOL    HW219359   0.244   8.032   1.708 -0.8632  1.1411 -0.6094
38610SOL     OW19360   5.212   3.247   4.503 -0.5836 -0.0681  0.0359
38610SOL    HW119361   5.300   3.253   4.467  0.9917  1.0762  3.6728
38610SOL    HW219362   5.180   3.337   4.502 -0.2090  0.1123  2.0222
38611SOL     OW19363  10.836   6.361  10.829  0.4756 -0.6585 -0.3728
38611SOL    HW119364  10.906   6.425  10.838 -1.5859  1.7178 -0.3771
38611SOL    HW219365  10.756   6.413  10.822 -1.5691 -3.2477  1.6601
38612SOL     OW19366   7.973   5.219  10.766 -0.4175  0.4948  0.2176
38612SOL    HW119367   7.961   5.314  10.758 -1.5613  0.3172 -0.4331
38612SOL    HW219368   8.067   5.207  10.767 -0.2517  1.5830 -0.4174
38613SOL     OW19369   6.230   8.336   7.482  0.1354  0.0364 -0.4312
38613SOL    HW119370   6.227   8.241   7.470  0.5275 -0.0994  0.4923
38613SOL    HW219371   6.322   8.358   7.469 -0.2279  0.5668 -2.4978
38614SOL     OW19372  10.669   3.603   6.261  0.1954 -0.2319 -0.0537
38614SOL    HW119373  10.591   3.627   6.311 -1.2061 -2.1931 -1.1700
38614SOL    HW219374  10.665   3.659   6.183 -0.5068 -0.8257 -0.4510
38615SOL     OW19375   0.527  10.009   5.848  0.4744  0.1012 -0.0425
38615SOL    HW119376   0.565   9.922   5.861 -0.2563 -0.1422  0.5519
38615SOL    HW219377   0.501  10.010   5.756 -2.7639 -1.7032  0.6922
38616SOL     OW19378  10.879   7.741   3.417 -0.1295 -0.2096  0.6020
38616SOL    HW119379  10.788   7.745   3.389 -0.2374  0.3357  1.0123
38616SOL    HW219380  10.876   7.755   3.512  0.2916 -1.2418  0.7847
38617SOL     OW19381   1.745   2.340   4.036 -0.6710  0.1053  0.4434
38617SOL    HW119382   1.795   2.298   3.966 -1.2740 -0.0436  0.0852
38617SOL    HW219383   1.689   2.270   4.070 -2.4070  0.7791 -0.8156
38618SOL     OW19384   1.653   8.769   2.791 -0.2081 -0.5430 -0.6739
38618SOL    HW119385   1.711   8.836   2.826  0.0332 -0.8629 -0.4596
38618SOL    HW219386   1.604   8.737   2.866 -0.4073 -0.5264 -0.7955
38619SOL     OW19387   7.135   8.774   7.203  0.0395  0.0902 -0.3677
38619SOL    HW119388   7.104   8.683   7.202  1.1605 -0.3036 -0.3624
38619SOL    HW219389   7.138   8.797   7.295 -0.7100  0.3044 -0.3911
38620SOL     OW19390   5.174   5.367   4.671 -0.2207  0.7462  0.2648
38620SOL    HW119391   5.215   5.298   4.619  0.2291 -0.3161  1.9633
38620SOL    HW219392   5.233   5.442   4.660  1.5248 -0.3654  1.5972
38621SOL     OW19393   7.080   0.963   0.729 -0.2539  0.0711  0.0997
38621SOL    HW119394   7.098   0.871   0.707 -0.6772  0.4738 -2.2076
38621SOL    HW219395   7.030   0.996   0.654  0.6192  2.4165  0.4649
38622SOL     OW19396   4.255   3.939   9.336  0.4878 -0.0638 -0.5753
38622SOL    HW119397   4.282   4.031   9.334  0.6242 -0.1204 -1.5798
38622SOL    HW219398   4.291   3.901   9.256 -1.0120 -0.5801 -1.0450
38623SOL     OW19399   5.458  10.114   4.969 -0.3690  0.2052 -0.2964
38623SOL    HW119400   5.502  10.164   4.900 -2.0103  0.8370 -0.9516
38623SOL    HW219401   5.488  10.153   5.051  0.7229  0.2067 -0.6815
38624SOL     OW19402   9.656   5.036  10.047  0.7213  0.2290 -0.1320
38624SOL    HW119403   9.654   5.049   9.952  0.4990  0.5144 -0.0899
38624SOL    HW219404   9.747   5.051  10.071  0.6697  0.7074 -0.2254
38625SOL     OW19405   7.730   1.096   8.034 -0.0594 -0.2711  0.0123
38625SOL    HW119406   7.676   1.163   7.993  1.2790 -0.2018 -1.7565
38625SOL    HW219407   7.745   1.031   7.965  1.2947 -0.7596  0.7221
38626SOL     OW19408   0.995   2.745   9.710  0.3965  0.2021 -0.3264
38626SOL    HW119409   0.965   2.836   9.709 -0.9324 -0.1925  0.6328
38626SOL    HW219410   0.999   2.719   9.618  0.8900  1.2466 -0.6135
38627SOL     OW19411   3.206   1.065  10.900  0.9307 -0.1148 -0.2635
38627SOL    HW119412   3.165   1.057  10.986  0.0251  4.8259  0.0113
38627SOL    HW219413   3.200   0.977  10.863 -1.8050 -1.6794  3.3096
38628SOL     OW19414   9.393   3.069   4.756 -0.1766 -0.0600  0.1705
38628SOL    HW119415   9.451   3.086   4.830 -1.5175  0.4437  1.1508
38628SOL    HW219416   9.359   3.155   4.731  1.7406  0.0737 -2.3817
38629SOL     OW19417   1.923   3.694   2.085 -0.0116  0.6365 -0.7225
38629SOL    HW119418   2.009   3.679   2.047 -0.0059 -0.3206 -0.3424
38629SOL    HW219419   1.885   3.764   2.031  1.1620  1.3808 -0.6284
38630SOL     OW19420  10.545   0.832   7.852 -0.2278 -0.3567 -0.0540
38630SOL    HW119421  10.612   0.796   7.909  1.7616  0.5569 -1.6923
38630SOL    HW219422  10.522   0.916   7.891  1.4803  0.4910 -0.7890
38631SOL     OW19423   5.080   7.213   5.527  0.4962 -0.1682  0.8790
38631SOL    HW119424   5.024   7.176   5.595  0.1996  0.5023  1.0129
38631SOL    HW219425   5.042   7.299   5.510 -0.0648 -0.7338 -0.8796
38632SOL     OW19426   2.252   1.651   7.521 -0.0068  0.1430  0.3270
38632SOL    HW119427   2.336   1.606   7.525 -0.9715 -1.7850  0.1254
38632SOL    HW219428   2.187   1.581   7.517 -1.6063  1.5718 -0.2020
38633SOL     OW19429  10.066   9.959   4.469  0.8608  0.1761 -0.0231
38633SOL    HW119430  10.109  10.009   4.401  1.6068 -0.9816 -0.4273
38633SOL    HW219431  10.135   9.939   4.533  0.9351 -1.5147 -0.5757
38634SOL     OW19432   7.670  10.945   3.197  0.0500  0.8215 -0.4591
38634SOL    HW119433   7.584  10.911   3.171  0.0919  0.4008 -0.0639
38634SOL    HW219434   7.671  11.035   3.165 -0.7736  1.0219  0.0511
38635SOL     OW19435   8.267   0.040   3.749 -0.0595  0.2942 -0.2414
38635SOL    HW119436   8.298  -0.050   3.746  1.1860  0.6910  0.3310
38635SOL    HW219437   8.194   0.039   3.811 -0.5601 -0.4486 -0.8222
38636SOL     OW19438   3.760   9.662   2.692  0.2649  0.2525  0.1455
38636SOL    HW119439   3.797   9.746   2.663  1.6468 -0.0217  1.0085
38636SOL    HW219440   3.757   9.669   2.788  0.3003 -0.6440  0.2189
38637SOL     OW19441   9.989   3.306   3.083 -0.0961  0.1173 -0.5358
38637SOL    HW119442   9.943   3.290   3.165  0.3781 -1.1151 -0.4833
38637SOL    HW219443  10.053   3.373   3.104 -0.0732 -0.0884  0.0697
38638SOL     OW19444   0.248   7.542   4.585 -0.1244  0.2104  0.2272
38638SOL    HW119445   0.194   7.621   4.581 -0.6860 -0.2031 -2.3116
38638SOL    HW219446   0.191   7.475   4.621 -0.5182  0.3699 -0.0922
38639SOL     OW19447   2.120   2.840   9.791 -0.2409  0.0859 -0.7263
38639SOL    HW119448   2.137   2.747   9.776  0.7693  0.3350 -1.2504
38639SOL    HW219449   2.110   2.848   9.886 -1.2641 -0.6894 -0.7560
38640SOL     OW19450   2.172   7.899   5.426 -0.0271 -0.1600 -0.3351
38640SOL    HW119451   2.110   7.834   5.460 -0.3092 -0.8523 -2.0546
38640SOL    HW219452   2.226   7.850   5.364 -0.2801  1.2160 -1.7198
38641SOL     OW19453  10.255  10.028   4.222  0.4170 -0.2149 -0.5297
38641SOL    HW119454  10.273   9.938   4.195  1.1921 -0.0845 -0.4679
38641SOL    HW219455  10.175  10.052   4.175  0.8003 -0.5710 -1.3814
38642SOL     OW19456   4.711   2.949   0.544 -0.3593 -0.2486 -0.0568
38642SOL    HW119457   4.677   2.955   0.633 -1.4936 -0.2394 -0.4784
38642SOL    HW219458   4.767   2.871   0.545 -1.7645 -1.2939  0.2335
38643SOL     OW19459  10.344   1.847   4.436  0.0772  0.0758 -0.2883
38643SOL    HW119460  10.335   1.768   4.489 -0.4138 -0.2428 -0.8323
38643SOL    HW219461  10.420   1.830   4.380  0.6972  0.4790  0.4077
38644SOL     OW19462   8.322   9.273   1.936 -0.6163 -0.3202 -0.1311
38644SOL    HW119463   8.377   9.350   1.924  0.3430 -1.0851 -0.9068
38644SOL    HW219464   8.300   9.273   2.029 -1.1907  1.2295 -0.2396
38645SOL     OW19465   8.564   7.381   2.519  0.5819  0.0326  0.7559
38645SOL    HW119466   8.538   7.461   2.474 -0.9477 -0.2660  1.0427
38645SOL    HW219467   8.652   7.399   2.551  1.0840  0.8230 -0.9519
38646SOL     OW19468   2.565   0.613   6.859 -0.3835  0.4685 -0.7118
38646SOL    HW119469   2.536   0.702   6.876 -2.6061 -0.2008 -0.7020
38646SOL    HW219470   2.529   0.591   6.773 -0.9262 -0.7901 -0.1977
38647SOL     OW19471   2.207   7.545   8.857 -0.4479 -0.6012  0.5094
38647SOL    HW119472   2.276   7.604   8.888 -0.9433 -0.7609  1.9930
38647SOL    HW219473   2.253   7.484   8.799  0.3531  0.2834  0.1803
38648SOL     OW19474   0.868   8.048   5.231  0.8348 -0.4816 -0.1804
38648SOL    HW119475   0.849   8.064   5.139  0.2165 -0.0320  0.0190
38648SOL    HW219476   0.797   8.092   5.278  1.4550 -0.2197  0.5309
38649SOL     OW19477   7.712   8.086   9.916 -0.4397  0.4030 -0.2628
38649SOL    HW119478   7.791   8.062   9.868  0.2306  0.8475  0.5948
38649SOL    HW219479   7.661   8.140   9.855  0.1155  0.4658 -0.6711
38650SOL     OW19480   3.209   1.097   3.759 -0.0078 -0.4386  0.2431
38650SOL    HW119481   3.290   1.055   3.789  0.2164 -0.4262 -0.3280
38650SOL    HW219482   3.177   1.145   3.835 -1.0319 -2.7566  1.3530
38651SOL     OW19483   6.352   5.012   0.955 -0.0362  0.5065  0.2011
38651SOL    HW119484   6.302   5.077   0.907 -0.7417 -0.4965 -0.4722
38651SOL    HW219485   6.441   5.020   0.922 -0.1761  0.9494 -0.0665
38652SOL     OW19486   3.640   8.232   4.283  0.2497  0.3775 -0.3528
38652SOL    HW119487   3.658   8.303   4.221 -0.5666  1.5348  0.6849
38652SOL    HW219488   3.546   8.239   4.300  0.0046 -1.4139 -0.7363
38653SOL     OW19489   9.582  10.173   7.848 -0.5972 -0.6885 -0.4487
38653SOL    HW119490   9.675  10.194   7.843 -0.6620 -0.5059 -0.9529
38653SOL    HW219491   9.578  10.088   7.893 -0.2681 -0.1359  0.6766
38654SOL     OW19492   9.876   1.730   3.412  0.2249  0.5915 -0.1669
38654SOL    HW119493   9.787   1.728   3.376 -0.3459  1.9807  1.0204
38654SOL    HW219494   9.900   1.823   3.408  1.4455  0.2912 -0.0433
38655SOL     OW19495   3.635   0.466   6.912 -0.1664  0.0200  0.4148
38655SOL    HW119496   3.561   0.431   6.961  0.7476 -1.0574  1.0579
38655SOL    HW219497   3.629   0.561   6.924 -0.8582 -0.1254  1.2963
38656SOL     OW19498   0.043   9.920  10.410  0.3262 -0.5581  0.1654
38656SOL    HW119499  -0.026   9.944  10.349  0.7141 -0.3142 -0.1832
38656SOL    HW219500   0.123   9.954  10.370  0.6006 -0.5243  0.7390
38657SOL     OW19501   2.600  11.047   2.323  0.0131  0.4122  0.6745
38657SOL    HW119502   2.648  10.975   2.283 -0.6889  0.9662 -1.2825
38657SOL    HW219503   2.538  11.005   2.382  0.8556 -0.4718  0.9398
38658SOL     OW19504   9.970   0.142   3.722  0.0465  0.6975  0.2395
38658SOL    HW119505  10.038   0.118   3.659  1.8319  0.1575  2.2634
38658SOL    HW219506   9.902   0.076   3.711  1.3667 -0.7248  0.3783
38659SOL     OW19507   8.679   6.724   9.698 -0.2274 -0.0498 -0.0608
38659SOL    HW119508   8.700   6.779   9.622  1.1779  0.2396  0.4927
38659SOL    HW219509   8.739   6.650   9.691  0.1495  0.1450  0.9256
38660SOL     OW19510   2.872  10.270   2.720 -0.1132 -0.1485  0.1778
38660SOL    HW119511   2.967  10.273   2.704 -0.2750 -0.2151 -0.8638
38660SOL    HW219512   2.839  10.211   2.652 -1.0640  0.8558 -0.2384
38661SOL     OW19513   7.143   0.392   8.516 -1.3038 -0.1854 -0.1199
38661SOL    HW119514   7.144   0.484   8.488 -1.5870 -0.5875 -1.5518
38661SOL    HW219515   7.054   0.377   8.547 -1.5696 -0.2380 -0.8825
38662SOL     OW19516   4.141  10.929   0.697  0.0672 -0.0260 -0.4790
38662SOL    HW119517   4.117  10.838   0.717 -1.0357  0.3247 -0.1356
38662SOL    HW219518   4.234  10.924   0.675  0.2171 -1.1283  0.2691
38663SOL     OW19519   6.602   1.003   5.904 -0.1059 -0.0671 -0.7102
38663SOL    HW119520   6.674   0.993   5.842  1.1054  0.6497  0.5298
38663SOL    HW219521   6.604   0.923   5.956  0.9758  0.7080  0.4875
38664SOL     OW19522   0.005  10.312   3.387 -0.1496  0.3070 -0.2413
38664SOL    HW119523   0.024  10.225   3.352 -0.4256  0.0956  0.1208
38664SOL    HW219524   0.069  10.324   3.457 -1.2305 -0.3635  0.9095
38665SOL     OW19525   9.679  10.126   3.579 -0.1689 -0.7281  0.0584
38665SOL    HW119526   9.649  10.113   3.490  0.3928  0.4802 -0.3320
38665SOL    HW219527   9.603  10.161   3.625  0.2098  1.0523 -0.5951
38666SOL     OW19528   4.171   2.241   2.998 -0.0699  0.1554  0.4364
38666SOL    HW119529   4.262   2.258   2.973 -0.1313  1.0788  0.8000
38666SOL    HW219530   4.121   2.254   2.917 -0.1207  1.8612  0.7063
38667SOL     OW19531   3.401   2.217   6.664  0.0150 -0.0754 -0.1587
38667SOL    HW119532   3.335   2.255   6.605  0.1926 -0.7147 -0.7827
38667SOL    HW219533   3.443   2.149   6.612  1.1190  0.2613  0.2603
38668SOL     OW19534   3.884   9.962   8.153 -0.2554 -0.2077 -0.3595
38668SOL    HW119535   3.905  10.044   8.199 -0.0217 -0.3898 -0.1344
38668SOL    HW219536   3.952   9.901   8.182 -0.5856 -0.5596 -0.3162
38669SOL     OW19537   3.094   7.719   0.491 -0.1688  0.0275  0.3488
38669SOL    HW119538   3.040   7.730   0.569  0.2884 -1.1957  0.8656
38669SOL    HW219539   3.178   7.759   0.514 -0.5295  1.0917 -0.1163
38670SOL     OW19540   3.031   2.421   0.799  0.2373 -0.1267  0.3120
38670SOL    HW119541   2.959   2.472   0.760 -0.0324 -1.0349 -0.4050
38670SOL    HW219542   3.077   2.385   0.724  0.0574 -1.4366  0.8167
38671SOL     OW19543   2.021   2.034   0.780  0.4008  0.1349  0.2719
38671SOL    HW119544   1.984   1.982   0.709 -0.9296  0.2864  0.8313
38671SOL    HW219545   2.066   2.106   0.736  0.2918 -0.2282 -0.4413
38672SOL     OW19546   2.838   2.656   0.345 -0.9730  0.2916 -0.9198
38672SOL    HW119547   2.859   2.749   0.335  1.1083  0.5110  3.2679
38672SOL    HW219548   2.778   2.653   0.420 -0.6032 -1.7359 -0.6437
38673SOL     OW19549   4.701   9.873   7.815  0.0604 -0.4156  0.2961
38673SOL    HW119550   4.751   9.800   7.849  1.2133  0.5857  0.8310
38673SOL    HW219551   4.646   9.901   7.888 -0.2786 -0.6560  0.1348
38674SOL     OW19552   6.019  10.005   1.728 -0.2319  0.4647 -0.4220
38674SOL    HW119553   6.005  10.096   1.754 -0.3481  0.1415  0.6896
38674SOL    HW219554   6.014  10.007   1.632 -0.1640  1.6328 -0.4243
38675SOL     OW19555   9.980   0.735   0.804  0.1915 -0.9980  0.4886
38675SOL    HW119556   9.983   0.812   0.747 -0.7173  0.2110  2.0149
38675SOL    HW219557  10.067   0.696   0.795  0.5236 -0.0758 -0.6584
38676SOL     OW19558   3.047   6.421   8.633 -0.4487  0.0722 -0.0124
38676SOL    HW119559   2.968   6.367   8.634 -0.6307  0.3195 -0.5547
38676SOL    HW219560   3.049   6.462   8.719 -0.8727  0.0027  0.0322
38677SOL     OW19561   5.093   8.452   8.121  0.3866  0.0448 -0.1816
38677SOL    HW119562   5.177   8.471   8.079  0.3505 -0.6017 -0.5624
38677SOL    HW219563   5.104   8.364   8.157  0.1625  0.3013  0.5313
38678SOL     OW19564   9.163   1.423   9.560 -0.7622  0.4369  0.3299
38678SOL    HW119565   9.214   1.375   9.494  1.4978  2.4594  0.4368
38678SOL    HW219566   9.104   1.478   9.508  0.3103  1.2844 -0.0588
38679SOL     OW19567   0.895   1.200   6.402 -0.1062  0.2774  0.0425
38679SOL    HW119568   0.810   1.158   6.385 -1.1956  2.3993 -0.1240
38679SOL    HW219569   0.943   1.136   6.453 -0.3575 -2.5228 -2.8757
38680SOL     OW19570   9.707   7.791   0.562 -0.0365  0.1794 -0.0274
38680SOL    HW119571   9.777   7.850   0.534  0.2154  0.0105  0.2399
38680SOL    HW219572   9.644   7.792   0.489  1.1992 -1.2257 -1.2025
38681SOL     OW19573   9.722   4.456   8.069  0.0422  0.1646  0.0529
38681SOL    HW119574   9.665   4.460   8.146  1.0110 -0.8144  0.8530
38681SOL    HW219575   9.712   4.541   8.027  2.7617  2.5074  3.6356
38682SOL     OW19576   2.390   5.480   8.543  0.0822 -0.2227 -0.4961
38682SOL    HW119577   2.401   5.426   8.622 -0.3253  1.0185  0.4464
38682SOL    HW219578   2.450   5.554   8.556  1.3548 -0.8947 -2.2201
38683SOL     OW19579   4.281   6.562  10.355 -0.6049 -0.1479 -0.0514
38683SOL    HW119580   4.311   6.473  10.371 -0.3099  0.1452  1.1401
38683SOL    HW219581   4.358   6.609  10.325 -0.5871 -0.1230  0.0332
38684SOL     OW19582   8.673   0.126   3.490 -0.1511 -0.0952 -0.4212
38684SOL    HW119583   8.711   0.050   3.533 -0.4161 -0.4994 -0.8986
38684SOL    HW219584   8.743   0.157   3.432  0.2085  0.4546  0.2918
38685SOL     OW19585  10.348   1.579   0.351 -0.0427 -0.1837  0.1647
38685SOL    HW119586  10.442   1.574   0.336 -0.0577 -0.5920  0.1839
38685SOL    HW219587  10.336   1.657   0.404  0.1542  0.5516 -0.8477
38686SOL     OW19588   7.426   5.873   3.653  0.1696  0.3001 -0.0552
38686SOL    HW119589   7.504   5.871   3.597 -0.6067 -1.3524 -1.1411
38686SOL    HW219590   7.375   5.946   3.619  0.2024 -0.0270 -0.8183
38687SOL     OW19591   0.213   4.998   3.429 -0.5774  0.9122 -0.5908
38687SOL    HW119592   0.192   4.908   3.405 -1.3032  0.7906  0.3945
38687SOL    HW219593   0.237   4.993   3.522 -2.3940  1.9497 -0.0036
38688SOL     OW19594   9.330   9.361   3.991 -0.5969  0.0469  0.0247
38688SOL    HW119595   9.324   9.446   4.036  1.2455  1.1114 -1.6184
38688SOL    HW219596   9.257   9.362   3.929 -0.2442  0.6981 -0.3910
38689SOL     OW19597   3.177   4.166   1.811  0.4592  0.0925  0.5575
38689SOL    HW119598   3.095   4.179   1.858  1.4474  2.3745  1.8153
38689SOL    HW219599   3.198   4.252   1.774  2.0664 -0.5333 -0.1060
38690SOL     OW19600   0.372   6.646   1.560 -0.0347 -0.3125 -0.1302
38690SOL    HW119601   0.367   6.729   1.607  1.3915  0.5150 -1.3132
38690SOL    HW219602   0.420   6.588   1.619 -0.6035 -0.1368  0.5087
38691SOL     OW19603   4.597   0.273   7.241  0.0853 -0.3932  0.2367
38691SOL    HW119604   4.617   0.355   7.287  0.8019 -0.6231  0.3538
38691SOL    HW219605   4.502   0.266   7.245  0.1185 -0.3834  1.6695
38692SOL     OW19606   2.390  10.139   4.242 -0.4904  0.1457 -0.4615
38692SOL    HW119607   2.462  10.163   4.184 -0.8227  0.6557 -0.6684
38692SOL    HW219608   2.432  10.098   4.317 -0.1493 -2.1123 -1.8152
38693SOL     OW19609   2.461   9.800   7.908 -0.1637  0.2598  0.0442
38693SOL    HW119610   2.458   9.729   7.972  0.0245 -0.5658 -0.8363
38693SOL    HW219611   2.443   9.757   7.825 -0.0683  1.2603 -0.5033
38694SOL     OW19612  10.133   2.527   9.532  0.1163 -0.0357 -0.0170
38694SOL    HW119613  10.068   2.577   9.580 -0.5943 -0.8499 -0.1148
38694SOL    HW219614  10.134   2.565   9.445  0.4939  0.6143  0.2616
38695SOL     OW19615   6.750   1.486   3.503 -0.3410  0.0528  0.4622
38695SOL    HW119616   6.716   1.566   3.462  2.1490  1.6842  1.3074
38695SOL    HW219617   6.808   1.518   3.572  0.2249 -2.5350  1.2990
38696SOL     OW19618  10.641   7.534  10.756  0.4506 -0.3750 -0.2357
38696SOL    HW119619  10.546   7.529  10.746  0.0077  2.5629  1.3859
38696SOL    HW219620  10.675   7.486  10.681 -2.2712 -1.5433 -0.8740
38697SOL     OW19621   4.930   2.276   3.153 -0.1896 -0.1310  0.0875
38697SOL    HW119622   4.875   2.344   3.192 -1.4232 -0.0550 -1.6809
38697SOL    HW219623   4.975   2.320   3.081  1.1255 -0.5521  0.6275
38698SOL     OW19624   7.356   9.700  10.106 -0.2850  0.4587 -0.0599
38698SOL    HW119625   7.418   9.752  10.056  0.4965  0.1502  0.5727
38698SOL    HW219626   7.375   9.610  10.084  1.1866  0.2007  1.9762
38699SOL     OW19627   8.084   7.367   4.386  0.5202 -0.2685  0.0746
38699SOL    HW119628   8.016   7.314   4.344  0.2599  1.0131 -1.1728
38699SOL    HW219629   8.165   7.343   4.341  0.8115 -1.2354  1.0523
38700SOL     OW19630   7.768   1.611   2.648  0.4764  0.6922 -0.0994
38700SOL    HW119631   7.795   1.657   2.569 -2.0242  2.0662 -0.2612
38700SOL    HW219632   7.725   1.531   2.617  0.1059  0.8890 -0.0937
38701SOL     OW19633   7.876   8.607   0.957  0.1945  0.5398 -0.7658
38701SOL    HW119634   7.822   8.546   0.906 -0.8446  0.7844 -0.0004
38701SOL    HW219635   7.856   8.585   1.049  0.6574  1.2898 -0.4784
38702SOL     OW19636   3.394   9.269   8.713 -0.2154 -0.3436 -0.6367
38702SOL    HW119637   3.306   9.292   8.682 -0.4375 -1.9668 -1.3114
38702SOL    HW219638   3.420   9.342   8.769 -2.5793 -0.4684  0.7538
38703SOL     OW19639  10.598   4.942   8.947 -0.2280  0.2961 -0.1628
38703SOL    HW119640  10.571   5.025   8.984  1.4542  0.9706 -0.3332
38703SOL    HW219641  10.557   4.876   9.002 -0.5625  1.2546  0.7611
38704SOL     OW19642   0.257   9.725   3.381 -0.6916 -0.4972  0.3391
38704SOL    HW119643   0.303   9.658   3.432  1.3536  0.9000  0.4611
38704SOL    HW219644   0.250   9.799   3.440 -0.1688  0.4275 -0.7117
38705SOL     OW19645  10.312   1.655   4.635  0.0579 -0.4030 -0.1642
38705SOL    HW119646  10.270   1.573   4.610 -0.3773  0.0063 -0.7963
38705SOL    HW219647  10.306   1.657   4.730  0.5429 -1.3507 -0.1015
38706SOL     OW19648   5.082   9.280   1.052  0.2986 -0.1883 -0.4776
38706SOL    HW119649   5.087   9.336   1.128 -1.3257 -0.0534 -0.4291
38706SOL    HW219650   4.993   9.243   1.055  0.6836 -1.2773 -1.5253
38707SOL     OW19651   0.810   9.354   6.436 -0.0544 -0.4410 -0.1965
38707SOL    HW119652   0.783   9.399   6.356  0.5560 -0.0573 -0.2019
38707SOL    HW219653   0.738   9.296   6.457 -1.0554  0.8412  0.0327
38708SOL     OW19654   1.035   1.458   7.417  0.0595  0.0427  0.3464
38708SOL    HW119655   1.129   1.441   7.417  0.2447  0.9631 -0.2789
38708SOL    HW219656   1.025   1.537   7.364 -1.1115 -0.2651  0.0738
38709SOL     OW19657   7.459   8.182   6.253  0.0848  0.2718 -0.5145
38709SOL    HW119658   7.436   8.180   6.160 -1.4639  0.7442 -0.1765
38709SOL    HW219659   7.430   8.097   6.286  0.4313  0.1924 -0.4112
38710SOL     OW19660   2.369   6.509   5.708  0.2599  0.1365 -0.3805
38710SOL    HW119661   2.316   6.586   5.729 -0.5619 -0.3000 -0.8130
38710SOL    HW219662   2.306   6.444   5.679  0.8352 -1.0289  0.8564
38711SOL     OW19663   9.511   3.918   8.919  0.4878  0.1363  0.6449
38711SOL    HW119664   9.591   3.967   8.937  0.6391 -0.1733  0.8092
38711SOL    HW219665   9.518   3.895   8.826 -0.4913  2.1001  0.0227
38712SOL     OW19666   2.532   7.401  10.855 -0.1495 -0.1234 -0.1831
38712SOL    HW119667   2.544   7.496  10.851  1.3778 -0.3214 -1.9959
38712SOL    HW219668   2.607   7.366  10.806 -0.9434 -2.2523  0.0306
38713SOL     OW19669   1.806   7.520  10.101  0.2901  0.0586  0.3717
38713SOL    HW119670   1.814   7.613  10.124  0.4917 -0.0210  0.6179
38713SOL    HW219671   1.870   7.507  10.032 -0.2411  0.2729 -0.1693
38714SOL     OW19672   7.430   2.641   6.123  0.3834 -0.0650 -0.2791
38714SOL    HW119673   7.427   2.558   6.075  0.5013 -0.4620  0.3769
38714SOL    HW219674   7.409   2.708   6.058  1.2834 -0.5117 -1.0582
38715SOL     OW19675   8.616   8.114   1.830  0.6526  0.1805  0.4019
38715SOL    HW119676   8.522   8.126   1.815  0.0922 -2.4028  1.3491
38715SOL    HW219677   8.623   8.097   1.924  2.0560  0.0891  0.2923
38716SOL     OW19678   2.000   0.100  10.476 -0.4135 -0.0595  0.1868
38716SOL    HW119679   2.032   0.018  10.438 -0.5895 -1.6391  3.1713
38716SOL    HW219680   1.961   0.074  10.560 -1.6810  2.9364  0.6385
38717SOL     OW19681   8.471   1.804   9.583  0.5512 -0.3802 -0.0445
38717SOL    HW119682   8.485   1.737   9.650  0.1972  0.7944  1.2479
38717SOL    HW219683   8.413   1.868   9.625  0.2696  0.3600 -1.5012
38718SOL     OW19684   6.125   4.759   8.850  0.5672  0.3633 -0.2666
38718SOL    HW119685   6.130   4.685   8.790 -2.1350 -0.4067  0.3262
38718SOL    HW219686   6.131   4.836   8.794  0.5995 -0.3147 -1.2182
38719SOL     OW19687   9.835   0.649   0.151  0.8826 -0.2652  0.3980
38719SOL    HW119688   9.848   0.586   0.221  1.4634 -0.1062  0.4348
38719SOL    HW219689   9.765   0.706   0.183  1.0045 -0.3177  0.7556
38720SOL     OW19690   4.344   4.907   0.403  0.3877 -0.5269  0.3217
38720SOL    HW119691   4.322   4.908   0.309 -2.0677  0.3561  0.8131
38720SOL    HW219692   4.289   4.838   0.439 -0.3658  0.6014  1.4121
38721SOL     OW19693   0.100   1.737   7.094  0.3419 -0.3245 -0.3118
38721SOL    HW119694   0.016   1.691   7.092  0.3541 -0.3065 -1.3884
38721SOL    HW219695   0.165   1.671   7.070  0.0954  0.7449 -4.7862
38722SOL     OW19696   4.258   6.983   0.236  0.1479  0.3336 -0.0142
38722SOL    HW119697   4.166   6.994   0.259  0.0414 -0.5393 -0.0140
38722SOL    HW219698   4.303   7.055   0.281 -0.2677 -0.4250  1.6738
38723SOL     OW19699   7.487   6.288   0.242  0.0041 -0.5120  0.1686
38723SOL    HW119700   7.447   6.202   0.250  0.9687 -1.0698 -0.6846
38723SOL    HW219701   7.498   6.301   0.148  1.9326 -0.4815  0.3423
38724SOL     OW19702   2.775   2.043   2.306 -0.3727  0.0049 -0.9101
38724SOL    HW119703   2.731   2.034   2.222  0.3260 -1.4899 -1.1297
38724SOL    HW219704   2.852   1.987   2.300  0.7275  1.3308  0.0534
38725SOL     OW19705   6.527   9.626   7.971 -0.1669 -0.1194 -0.4589
38725SOL    HW119706   6.457   9.690   7.966 -0.3512 -0.2990 -0.2277
38725SOL    HW219707   6.582   9.655   8.044  0.4533  0.4617 -1.1343
38726SOL     OW19708  10.155   9.967   0.857  0.5151  0.2468  0.2717
38726SOL    HW119709  10.216   9.904   0.895  1.0848  0.8414  0.3582
38726SOL    HW219710  10.148  10.037   0.922  1.5342  1.2955 -0.6920
38727SOL     OW19711   6.670   3.185   7.558 -0.4016 -0.4776  0.2467
38727SOL    HW119712   6.688   3.279   7.559  0.8440 -0.7062  0.0858
38727SOL    HW219713   6.718   3.151   7.633  0.3945 -1.2046 -0.5854
38728SOL     OW19714   9.529   5.240   3.403  0.0344  0.1768 -0.1742
38728SOL    HW119715   9.478   5.285   3.336 -2.7606 -2.1049  0.2184
38728SOL    HW219716   9.486   5.263   3.485 -0.0873 -1.3943  0.2371
38729SOL     OW19717  10.873   6.067   8.807 -0.0027  0.3713 -0.2140
38729SOL    HW119718  10.875   6.121   8.728  0.7335 -1.5363 -1.5799
38729SOL    HW219719  10.964   6.060   8.834 -0.3056  1.5138  1.2218
38730SOL     OW19720   5.447   3.082   7.150 -0.0707  0.2434 -0.3352
38730SOL    HW119721   5.365   3.079   7.100 -0.6496 -0.3461  0.6212
38730SOL    HW219722   5.503   3.016   7.108  0.0521  0.8698 -1.1922
38731SOL     OW19723   7.107   1.482   0.409  0.4900 -0.4784 -0.3521
38731SOL    HW119724   7.082   1.545   0.341 -2.0178  0.5540  1.3937
38731SOL    HW219725   7.069   1.399   0.380 -0.3302 -0.1019 -0.3818
38732SOL     OW19726   8.320   6.704   7.551 -0.2854 -0.1947 -0.0554
38732SOL    HW119727   8.276   6.636   7.602  0.7979 -1.0200 -0.1710
38732SOL    HW219728   8.402   6.719   7.597 -0.1145  0.3950 -0.5370
38733SOL     OW19729   0.226   6.756   4.937  0.6114 -0.2333  0.4085
38733SOL    HW119730   0.315   6.791   4.942  0.9609 -0.9773 -0.2921
38733SOL    HW219731   0.235   6.675   4.887 -0.4978 -0.1957  0.1147
38734SOL     OW19732   1.685   3.187   2.022 -0.4210 -0.0434 -0.0483
38734SOL    HW119733   1.722   3.238   1.950 -1.1914  2.2509  1.0785
38734SOL    HW219734   1.761   3.158   2.073  0.0452 -0.1674 -0.8068
38735SOL     OW19735   9.951   0.447   0.338  0.1659 -0.1589  0.1764
38735SOL    HW119736  10.025   0.427   0.280  0.4294 -0.1615  0.5141
38735SOL    HW219737   9.991   0.466   0.423 -0.2207 -0.1519  0.3583
38736SOL     OW19738   1.670   2.837   5.991  0.0532  0.0910  0.0355
38736SOL    HW119739   1.685   2.873   6.078  0.8263 -0.8282  0.2912
38736SOL    HW219740   1.575   2.832   5.983 -0.2219 -4.4919  2.8385
38737SOL     OW19741   1.126   6.788  10.607 -0.4378  0.0579  0.5127
38737SOL    HW119742   1.217   6.760  10.599 -0.6190 -0.9203  1.5283
38737SOL    HW219743   1.119   6.866  10.553  0.6347 -0.7006 -0.7542
38738SOL     OW19744   0.131   4.727   4.095 -0.0735  0.2560 -0.1830
38738SOL    HW119745   0.046   4.767   4.076 -0.6703 -0.2137  1.3320
38738SOL    HW219746   0.177   4.793   4.147 -0.6257 -0.5200  1.3670
38739SOL     OW19747   7.986   5.217   9.696  0.0366  0.2349  0.4533
38739SOL    HW119748   8.005   5.154   9.626  2.3804 -0.0975  1.2898
38739SOL    HW219749   7.906   5.261   9.668 -0.6909 -1.8649 -1.0314
38740SOL     OW19750   3.385   3.279   3.542 -0.0207  0.1360  0.5233
38740SOL    HW119751   3.466   3.242   3.576  0.0168  1.0795  1.5133
38740SOL    HW219752   3.413   3.339   3.472  0.1583  0.5582  0.9507
38741SOL     OW19753   2.991   7.864   8.679  0.2916 -0.0918 -0.7993
38741SOL    HW119754   3.014   7.951   8.711 -0.1022  0.3021 -1.5557
38741SOL    HW219755   3.062   7.841   8.620 -0.3253  0.3441 -1.7229
38742SOL     OW19756   5.011   6.725   0.641 -0.4426  0.6216  0.8979
38742SOL    HW119757   4.933   6.754   0.594 -1.2595 -1.7443  0.6756
38742SOL    HW219758   4.979   6.690   0.724  0.4187  0.0189  0.9991
38743SOL     OW19759   2.058   7.165   9.910 -0.0787 -0.3564 -0.1591
38743SOL    HW119760   2.116   7.149   9.836  0.1908 -0.7513  0.1338
38743SOL    HW219761   1.975   7.123   9.884 -0.2004  0.0993 -0.5222
38744SOL     OW19762   0.299   6.816   7.040  0.5634 -0.5895  0.2400
38744SOL    HW119763   0.383   6.783   7.008  0.3594  0.1090 -1.0618
38744SOL    HW219764   0.277   6.888   6.981 -0.9486 -0.7581  0.5569
38745SOL     OW19765   8.462   1.845   5.176  0.3945 -0.1464 -0.3466
38745SOL    HW119766   8.485   1.831   5.084  0.4981 -1.5937 -0.1247
38745SOL    HW219767   8.492   1.934   5.195 -2.3910  1.4282 -2.5199
38746SOL     OW19768   5.965  10.001  10.590  0.3510  0.0548 -0.1441
38746SOL    HW119769   5.903  10.046  10.647 -1.4793 -2.2344 -0.1846
38746SOL    HW219770   5.913   9.976  10.514  1.9547  0.1775 -1.3137
38747SOL     OW19771   3.930   6.846   5.795 -0.2375  0.4352  0.3267
38747SOL    HW119772   3.972   6.910   5.738  0.0631  0.3617  0.4629
38747SOL    HW219773   3.900   6.777   5.736  0.7665 -0.0239  0.3235
38748SOL     OW19774   3.873   1.541   5.591  0.7213 -0.1256 -0.0331
38748SOL    HW119775   3.798   1.544   5.650 -0.0115  0.1887 -0.9480
38748SOL    HW219776   3.854   1.608   5.525  1.9105  0.0994 -0.1626
38749SOL     OW19777   1.608   2.192   2.427 -0.0432 -0.0377 -0.3478
38749SOL    HW119778   1.577   2.230   2.509  0.1194 -0.2346 -0.1956
38749SOL    HW219779   1.691   2.151   2.448  0.4304  0.6691 -0.8057
38750SOL     OW19780   2.455   1.232   8.324  0.2975 -0.1676  0.8438
38750SOL    HW119781   2.488   1.154   8.368 -0.9221 -2.9036 -2.6637
38750SOL    HW219782   2.360   1.230   8.339  0.4001  1.6727  2.0768
38751SOL     OW19783   0.879   5.636   9.159 -0.3491  0.0191  0.2873
38751SOL    HW119784   0.933   5.714   9.150  3.5233 -2.5237 -0.7690
38751SOL    HW219785   0.877   5.619   9.253  0.4938  0.3317  0.3678
38752SOL     OW19786   3.313   4.107   7.109 -0.0052  0.2858  0.1902
38752SOL    HW119787   3.241   4.059   7.150  0.6567 -0.2443  0.7508
38752SOL    HW219788   3.352   4.043   7.049  0.2382  0.4475  0.1766
38753SOL     OW19789   2.074   8.723   6.801 -0.0139  0.4888  0.1136
38753SOL    HW119790   2.029   8.642   6.826 -0.4794  1.0158  1.0509
38753SOL    HW219791   2.158   8.718   6.846 -0.1059  0.5858  0.3008
38754SOL     OW19792   0.279   6.262   1.670  0.0123 -0.2089 -0.0845
38754SOL    HW119793   0.193   6.304   1.669 -1.1157 -2.3748 -0.1902
38754SOL    HW219794   0.337   6.326   1.710 -1.3247  1.8776 -1.3403
38755SOL     OW19795   7.616   2.935   0.222 -0.4514 -0.2435 -0.0004
38755SOL    HW119796   7.563   3.005   0.260 -0.6722 -0.5132  0.1984
38755SOL    HW219797   7.553   2.866   0.202 -0.4468  0.1557 -1.5191
38756SOL     OW19798  11.057   1.654   5.585  0.1999  0.0099 -0.4298
38756SOL    HW119799  11.143   1.669   5.547  1.3008 -2.0637  1.0819
38756SOL    HW219800  11.062   1.568   5.625 -1.8532  0.7652  1.7116
38757SOL     OW19801   6.420   1.301   7.470  0.2983  0.0625 -0.3498
38757SOL    HW119802   6.387   1.212   7.456 -0.3588 -0.2614  2.5372
38757SOL    HW219803   6.502   1.289   7.519  0.2059  1.0380  0.0700
38758SOL     OW19804   9.413   2.056   2.859 -0.2364 -0.0418 -0.2721
38758SOL    HW119805   9.384   1.966   2.842 -0.5827  0.0023  0.0655
38758SOL    HW219806   9.508   2.051   2.865 -0.2580 -0.3907 -0.2285
38759SOL     OW19807   1.877   1.189   5.233  0.2274  0.3906 -0.3618
38759SOL    HW119808   1.831   1.120   5.186 -4.3509  0.4458  3.2619
38759SOL    HW219809   1.949   1.144   5.277 -0.3328 -1.2823 -1.0850
38760SOL     OW19810   2.494  10.162   7.660  0.1122  0.3295 -0.3624
38760SOL    HW119811   2.434  10.088   7.664 -2.7816  2.5515  1.3870
38760SOL    HW219812   2.474  10.204   7.576  1.0172 -0.2255 -0.8772
38761SOL     OW19813   1.800  10.791   0.869  0.4108 -0.0459 -0.3622
38761SOL    HW119814   1.779  10.698   0.868  2.1936 -0.5207  0.9393
38761SOL    HW219815   1.843  10.807   0.785  0.2510 -0.4274 -0.5191
38762SOL     OW19816   1.085   4.613   5.907 -0.4965  0.5515 -0.3519
38762SOL    HW119817   1.078   4.558   5.985 -0.1550 -0.2153 -0.8544
38762SOL    HW219818   1.057   4.556   5.835 -0.4965  1.1530 -0.8318
38763SOL     OW19819   2.276   3.362   7.788 -0.1259 -0.3320  0.2598
38763SOL    HW119820   2.227   3.357   7.870  0.1444  1.6505  0.5897
38763SOL    HW219821   2.358   3.407   7.811  0.1323 -0.1182 -0.9989
38764SOL     OW19822   5.513   3.784   7.985  0.0302  0.0837  0.3278
38764SOL    HW119823   5.467   3.868   7.978  0.9277  0.7966  2.3716
38764SOL    HW219824   5.592   3.796   7.933 -0.5723 -0.0569 -0.6426
38765SOL     OW19825   1.242   9.539   5.658 -0.2583 -0.0889 -0.4909
38765SOL    HW119826   1.190   9.604   5.610 -1.0548 -0.3016  0.0661
38765SOL    HW219827   1.181   9.500   5.720  0.3159 -1.0830 -0.5226
38766SOL     OW19828   1.920   0.458   8.177 -0.1307 -0.4134  0.0542
38766SOL    HW119829   1.877   0.443   8.261 -1.0319  0.2974 -0.2596
38766SOL    HW219830   1.962   0.543   8.186 -0.2268 -0.3361 -0.2047
38767SOL     OW19831   6.927   2.767   9.829 -0.4273 -0.5244 -0.3369
38767SOL    HW119832   7.005   2.731   9.786  1.2242 -0.6932  2.5643
38767SOL    HW219833   6.961   2.815   9.904 -3.0689  0.8566  0.0767
38768SOL     OW19834   2.063   5.477   1.549 -0.2116  0.1066  0.6361
38768SOL    HW119835   2.044   5.444   1.636  0.0588 -1.5141  0.1181
38768SOL    HW219836   2.138   5.425   1.519 -1.1286 -0.3413 -1.0626
38769SOL     OW19837   9.769   8.521   1.297  0.2063 -0.0711 -0.5422
38769SOL    HW119838   9.861   8.533   1.275  1.1508 -1.2544  2.2802
38769SOL    HW219839   9.755   8.426   1.292 -0.1462 -0.1586  1.2871
38770SOL     OW19840  10.783   9.395   7.495 -0.4707  0.2116 -0.0790
38770SOL    HW119841  10.868   9.385   7.537  0.2340 -2.4997 -1.8319
38770SOL    HW219842  10.736   9.457   7.549  2.3105  1.1740  1.4383
38771SOL     OW19843   3.191   6.297   7.560  0.0139 -0.7649  0.2675
38771SOL    HW119844   3.170   6.387   7.538  0.8665 -0.7428 -0.5102
38771SOL    HW219845   3.108   6.250   7.553 -0.0762 -0.4202 -1.3079
38772SOL     OW19846   5.923   8.345   5.267  0.2394  0.4198 -0.1453
38772SOL    HW119847   5.940   8.364   5.175  0.5852 -1.7445 -0.5589
38772SOL    HW219848   6.009   8.326   5.304 -0.0792 -0.2332  0.2619
38773SOL     OW19849  10.338   9.048   1.507 -0.5593 -0.2569 -0.0918
38773SOL    HW119850  10.292   9.131   1.494  0.3462  0.3878  0.6589
38773SOL    HW219851  10.333   9.032   1.601 -1.0259 -1.2448 -0.2746
38774SOL     OW19852   9.243   8.888   3.529  0.2854 -0.4678 -0.0336
38774SOL    HW119853   9.311   8.864   3.592  0.8546  1.1161  0.0031
38774SOL    HW219854   9.238   8.813   3.470  1.8965 -0.7400  0.1130
38775SOL     OW19855   3.181   9.648  10.623  0.0718 -0.2673  0.0988
38775SOL    HW119856   3.142   9.615  10.542 -0.6527 -1.4737  0.9058
38775SOL    HW219857   3.261   9.692  10.594  0.2625 -1.3796 -1.2140
38776SOL     OW19858   7.298   1.459   1.585  0.1339  0.3836  0.3225
38776SOL    HW119859   7.221   1.406   1.566  1.0201 -0.0005 -2.5867
38776SOL    HW219860   7.355   1.401   1.636 -1.3081  0.6141  2.3332
38777SOL     OW19861   8.409  10.797   3.255 -0.0087 -0.7073  0.3989
38777SOL    HW119862   8.476  10.829   3.314  0.3036 -0.1898 -0.2230
38777SOL    HW219863   8.448  10.721   3.213  0.4413 -0.0447 -0.4178
38778SOL     OW19864   2.922  10.716  10.485  0.3559  0.6707 -0.3932
38778SOL    HW119865   3.007  10.697  10.444 -0.3927 -1.6320 -1.0272
38778SOL    HW219866   2.860  10.661  10.437 -1.3577  1.5822  0.6959
38779SOL     OW19867   0.740   1.147  11.065 -0.5587 -0.4829 -0.0684
38779SOL    HW119868   0.759   1.093  11.142 -0.9142 -1.3032 -0.5406
38779SOL    HW219869   0.773   1.234  11.087  2.3517 -1.4445 -0.2714
38780SOL     OW19870   2.014   9.399   0.918 -0.0032  0.3808  0.2395
38780SOL    HW119871   2.039   9.311   0.889 -0.0050 -0.0694  1.5237
38780SOL    HW219872   2.029   9.455   0.842 -1.5788 -0.9790 -1.1442
38781SOL     OW19873   0.070   0.736  10.991  0.7620  0.1566 -0.5392
38781SOL    HW119874   0.141   0.679  11.022 -0.7475 -0.6173  1.7425
38781SOL    HW219875   0.115   0.815  10.960  2.7881 -1.5448 -2.1883
38782SOL     OW19876   0.140   9.957   2.915  0.4225  0.0279  0.0375
38782SOL    HW119877   0.189  10.022   2.965 -1.2021  0.4244  1.2051
38782SOL    HW219878   0.176   9.962   2.826  0.5991  2.2788  0.1774
38783SOL     OW19879   2.424   5.096   4.904 -0.3312 -0.3365 -1.1359
38783SOL    HW119880   2.391   5.092   4.994 -0.3191  0.5236 -1.0894
38783SOL    HW219881   2.468   5.012   4.892 -1.4100 -0.9863 -0.7678
38784SOL     OW19882  10.601   6.064   8.949  0.3510  0.2097  0.0630
38784SOL    HW119883  10.678   6.070   8.892 -0.0514 -1.5624 -0.7415
38784SOL    HW219884  10.527   6.063   8.888 -0.1527 -0.5416  0.6705
38785SOL     OW19885   2.784   2.542   8.254 -0.3102  0.0745 -0.1851
38785SOL    HW119886   2.753   2.458   8.220 -1.4366  0.6129 -0.5283
38785SOL    HW219887   2.862   2.519   8.305 -1.1232 -1.3117  0.5149
38786SOL     OW19888   0.839   0.126   5.150 -0.6755  0.2405 -0.0814
38786SOL    HW119889   0.765   0.100   5.094 -1.9919 -0.2692  1.7839
38786SOL    HW219890   0.917   0.098   5.102 -1.6965  0.5396 -1.9985
38787SOL     OW19891   4.940   9.426   7.770 -0.2886  0.1615 -0.2092
38787SOL    HW119892   4.995   9.398   7.698  0.9076  0.1404  0.6892
38787SOL    HW219893   4.918   9.346   7.817 -3.4651 -0.2418 -2.1032
38788SOL     OW19894   0.112   2.031   9.451 -0.5912 -0.1137 -0.3530
38788SOL    HW119895   0.019   2.051   9.449 -0.3437  1.3249  0.6558
38788SOL    HW219896   0.152   2.095   9.393 -0.2589 -0.9984 -1.1179
38789SOL     OW19897   8.056   9.811   0.150 -0.2796 -0.1937  0.2478
38789SOL    HW119898   8.129   9.790   0.208  0.8979 -0.9808 -1.4390
38789SOL    HW219899   8.097   9.853   0.074 -1.6680 -0.0362 -0.4451
38790SOL     OW19900   0.763   2.276   1.201  0.1424  0.0259  0.3850
38790SOL    HW119901   0.728   2.265   1.112 -1.1314 -1.1431  0.9772
38790SOL    HW219902   0.847   2.230   1.199 -0.7278 -1.6775  0.2264
38791SOL     OW19903   4.052   0.566   7.965  0.7658  0.4206 -0.9522
38791SOL    HW119904   4.072   0.639   8.024  1.4350 -0.3131 -0.2482
38791SOL    HW219905   3.979   0.520   8.008  0.5286  0.5174 -1.2513
38792SOL     OW19906   7.862   1.150   9.570 -0.1004  0.1551 -0.1726
38792SOL    HW119907   7.792   1.200   9.526 -2.0732 -1.0132  1.4819
38792SOL    HW219908   7.864   1.066   9.524  0.6759  0.3872 -0.5909
38793SOL     OW19909   0.183   5.933   7.024 -0.0177 -0.8365  0.2551
38793SOL    HW119910   0.181   5.901   7.115 -0.8492 -0.7060  0.2868
38793SOL    HW219911   0.229   6.017   7.030 -0.2074 -0.7543  0.5768
38794SOL     OW19912   3.092   2.018   0.623 -0.1594  0.0753  0.0972
38794SOL    HW119913   3.066   2.099   0.579 -1.4043 -0.6028 -0.4833
38794SOL    HW219914   3.130   2.046   0.706  0.5078  1.2982 -0.5935
38795SOL     OW19915   0.643   0.962  10.075 -0.0301 -0.6255  0.2796
38795SOL    HW119916   0.630   1.030  10.141 -0.4124 -0.1312 -0.2855
38795SOL    HW219917   0.632   1.008   9.991 -1.6910 -1.6313 -0.1094
38796SOL     OW19918   1.454  10.651   9.514 -0.2241  0.1071 -0.1705
38796SOL    HW119919   1.425  10.649   9.423  0.2111  0.6421 -0.3291
38796SOL    HW219920   1.401  10.719   9.554 -0.2362  0.0493 -0.0892
38797SOL     OW19921   1.266   7.071   4.795 -0.1176 -0.4320 -0.3700
38797SOL    HW119922   1.272   7.157   4.837 -0.7645 -1.5736  2.3183
38797SOL    HW219923   1.176   7.043   4.811  0.0841 -1.6106 -1.2048
38798SOL     OW19924   8.353   7.299   0.075  0.1201 -0.0505 -0.0659
38798SOL    HW119925   8.293   7.364   0.112 -1.7618 -1.2019 -0.9280
38798SOL    HW219926   8.338   7.220   0.126 -1.9484 -1.4458 -2.5681
38799SOL     OW19927   5.719   5.514   0.068  0.2864  0.3189  0.0524
38799SOL    HW119928   5.757   5.533  -0.018  0.2315 -0.4091 -0.1361
38799SOL    HW219929   5.690   5.423   0.062 -1.8075  0.9351  0.0716
38800SOL     OW19930   3.873   3.252   5.197 -0.0385  0.2953  0.1387
38800SOL    HW119931   3.879   3.233   5.291  1.8960  0.5293  0.1083
38800SOL    HW219932   3.880   3.166   5.155 -1.5619  0.1219  0.1971
38801SOL     OW19933   2.818  10.395  10.121 -0.2894 -0.1991 -0.2459
38801SOL    HW119934   2.870  10.367  10.045 -1.0898  2.0725 -1.7590
38801SOL    HW219935   2.875  10.458  10.166 -0.9945  0.9689 -0.9166
38802SOL     OW19936  10.600   6.130   0.754  0.0911  0.3230  0.1304
38802SOL    HW119937  10.668   6.175   0.804 -0.7904  0.6649  1.0522
38802SOL    HW219938  10.521   6.180   0.771 -0.5133 -0.4088 -0.4541
38803SOL     OW19939   7.241   6.115   4.330  0.1367 -0.7565 -0.1633
38803SOL    HW119940   7.203   6.027   4.329 -0.0587 -0.6952  0.9469
38803SOL    HW219941   7.166   6.174   4.325  0.2275 -0.6466 -0.2287
38804SOL     OW19942  10.528   1.725   2.866  0.0763 -0.2469 -0.6443
38804SOL    HW119943  10.450   1.692   2.822 -0.0287  0.0370 -0.6773
38804SOL    HW219944  10.497   1.803   2.912 -0.1397 -1.2997  1.0828
38805SOL     OW19945   6.692   3.701   0.598  0.3118 -0.4147  0.1905
38805SOL    HW119946   6.598   3.680   0.599  0.1759  0.0831 -0.6546
38805SOL    HW219947   6.730   3.637   0.538  0.6372 -1.0387  1.0387
38806SOL     OW19948   0.756   4.093   7.122 -0.0461  0.0087 -0.0267
38806SOL    HW119949   0.765   4.006   7.083 -0.5035 -0.1652  0.2446
38806SOL    HW219950   0.784   4.081   7.213  0.0302  0.1780 -0.0276
38807SOL     OW19951   8.705   6.851   1.686 -0.8431 -0.0604  0.0088
38807SOL    HW119952   8.779   6.847   1.626 -0.4275 -0.3199  0.5229
38807SOL    HW219953   8.631   6.879   1.632 -0.3032  0.5137 -0.4495
38808SOL     OW19954   1.237   3.508   4.036 -0.3351 -0.6547  0.4301
38808SOL    HW119955   1.163   3.484   3.981 -0.6040  0.2222  0.3991
38808SOL    HW219956   1.308   3.450   4.007 -0.3328  0.0934 -1.1670
38809SOL     OW19957   4.400   5.930   9.723  0.0048  0.3170  0.0710
38809SOL    HW119958   4.315   5.911   9.761  0.7002 -1.5434  0.7815
38809SOL    HW219959   4.394   5.900   9.633 -0.1655  0.4524  0.0364
38810SOL     OW19960   4.920   4.944   7.147  0.5224  0.5817 -0.2851
38810SOL    HW119961   4.972   4.988   7.081  2.0565 -0.0405  0.4451
38810SOL    HW219962   4.954   4.854   7.148  1.9979  1.0225  2.6386
38811SOL     OW19963   5.845   7.352   1.082 -0.1923 -0.1975  0.1446
38811SOL    HW119964   5.768   7.397   1.046  0.4324  0.7442 -0.0412
38811SOL    HW219965   5.861   7.395   1.166  0.6292  0.1841 -0.1996
38812SOL     OW19966   8.533   7.506   7.522 -0.2539 -0.0238  0.5685
38812SOL    HW119967   8.541   7.493   7.616  0.3979  0.5924  0.6073
38812SOL    HW219968   8.505   7.597   7.512 -3.3885 -0.9111  0.2545
38813SOL     OW19969   2.899  11.124  10.174 -0.0375  0.2510 -0.2475
38813SOL    HW119970   2.835  11.191  10.197 -2.0454 -1.6209 -0.0408
38813SOL    HW219971   2.925  11.085  10.257  1.7130  1.1977 -0.2968
38814SOL     OW19972   7.347   0.081   6.910 -0.2637 -0.2057 -0.2788
38814SOL    HW119973   7.374  -0.010   6.921 -1.5935 -0.6077 -0.2399
38814SOL    HW219974   7.422   0.132   6.941  1.2278 -1.2505 -1.9761
38815SOL     OW19975   2.465  10.429   1.991 -0.1674 -0.7160 -0.2498
38815SOL    HW119976   2.406  10.498   1.961  1.0702  0.0169 -1.0920
38815SOL    HW219977   2.458  10.361   1.924 -0.3035 -0.7773 -0.1741
38816SOL     OW19978   8.417   0.905   7.767 -0.2907 -0.4155 -0.0916
38816SOL    HW119979   8.347   0.901   7.832 -0.4666  0.5887 -0.2007
38816SOL    HW219980   8.493   0.936   7.816 -0.4557  0.4698 -0.3633
38817SOL     OW19981   6.824  10.311   9.980  0.3391  0.2203  0.5256
38817SOL    HW119982   6.918  10.323   9.998  0.2741  2.1857 -0.2945
38817SOL    HW219983   6.818  10.308   9.885 -0.5470  1.3066  0.5273
38818SOL     OW19984   7.276   7.869   9.213  0.8803 -0.0538 -0.5050
38818SOL    HW119985   7.366   7.899   9.202  0.6738  0.8045  0.0146
38818SOL    HW219986   7.228   7.947   9.241 -0.3460 -0.1170 -2.2696
38819SOL     OW19987   8.656   1.108   3.332  0.5857  0.3075  0.6629
38819SOL    HW119988   8.563   1.124   3.350  0.6175  0.8035  0.3968
38819SOL    HW219989   8.698   1.110   3.418  0.3012 -0.2745  0.8221
38820SOL     OW19990   0.731  10.570   7.192 -0.1655 -0.7541  0.1071
38820SOL    HW119991   0.660  10.506   7.186  0.8378 -1.8914 -0.1158
38820SOL    HW219992   0.809  10.521   7.164  0.9232  0.0869  1.5408
38821SOL     OW19993   8.439   2.860  10.451  0.2301  0.5325 -0.3982
38821SOL    HW119994   8.404   2.815  10.528  1.7091  0.5537  0.3278
38821SOL    HW219995   8.446   2.791  10.384  1.3564 -0.1035  0.3289
38822SOL     OW19996   0.357   2.367   2.607 -0.5039 -0.0576  0.1452
38822SOL    HW119997   0.376   2.330   2.521 -2.9545 -0.4265 -0.2902
38822SOL    HW219998   0.322   2.454   2.589 -0.7156 -0.0046  0.7901
38823SOL     OW19999   2.651   7.518   6.609  0.1923 -0.1763  0.0824
38823SOL    HW120000   2.619   7.542   6.522 -0.7850 -1.8394 -0.0684
38823SOL    HW220001   2.658   7.601   6.656 -0.9318  0.5928 -1.0395
38824SOL     OW20002   1.523   0.696   0.201  0.1739  0.1607  0.0612
38824SOL    HW120003   1.444   0.691   0.256  1.5169 -1.6252  1.9858
38824SOL    HW220004   1.573   0.768   0.239  1.1270 -1.1080  1.3082
38825SOL     OW20005   5.163   8.938   3.648  0.0008 -0.1017  0.2148
38825SOL    HW120006   5.201   8.851   3.636 -0.0962 -0.1439  0.2089
38825SOL    HW220007   5.114   8.931   3.730 -0.7170 -0.3061 -0.2221
38826SOL     OW20008   2.750   6.961   4.075  0.2581 -0.1542 -0.6757
38826SOL    HW120009   2.656   6.983   4.075 -0.0185 -1.0741  1.5945
38826SOL    HW220010   2.792   7.039   4.039 -1.3120  0.6046 -0.9823
38827SOL     OW20011   6.463   6.065  10.843 -0.2097  0.5764  0.1734
38827SOL    HW120012   6.532   6.126  10.871 -0.0604  0.6316 -0.3024
38827SOL    HW220013   6.469   6.065  10.747 -0.6705  0.3454  0.1438
38828SOL     OW20014   8.185   5.352   2.973  0.0307  0.1566 -0.4442
38828SOL    HW120015   8.158   5.303   2.896  1.0192  0.8968 -1.2777
38828SOL    HW220016   8.263   5.306   3.004  1.9460  2.0363 -2.1757
38829SOL     OW20017   5.252   0.780   7.308 -0.4568  0.4034 -0.8391
38829SOL    HW120018   5.227   0.873   7.304 -1.9109  0.0958  0.2089
38829SOL    HW220019   5.194   0.737   7.246 -0.4378  0.0832 -0.6364
38830SOL     OW20020   7.212   9.038   5.061  0.2017  0.6623  0.3098
38830SOL    HW120021   7.206   9.116   5.007  1.8654  0.3468 -0.3641
38830SOL    HW220022   7.196   9.069   5.150  3.0137  2.2350  0.3740
38831SOL     OW20023   1.877  10.042   1.761 -0.3681 -0.1008 -0.1715
38831SOL    HW120024   1.783  10.036   1.744 -0.1107 -1.9598 -1.2321
38831SOL    HW220025   1.883  10.077   1.850 -1.9930  1.6134 -0.6495
38832SOL     OW20026   6.407   9.258   2.442 -0.1125 -0.6169  0.2689
38832SOL    HW120027   6.375   9.203   2.370 -1.7590  0.6454 -0.0233
38832SOL    HW220028   6.458   9.198   2.497  0.5759 -1.7756 -1.5270
38833SOL     OW20029   4.683   3.439   8.923  0.3524 -0.5009  0.2354
38833SOL    HW120030   4.709   3.386   8.997 -0.6085 -1.6285 -0.2075
38833SOL    HW220031   4.666   3.376   8.853  0.0195  0.4490 -0.5624
38834SOL     OW20032  10.592   1.255   7.472 -0.5022  0.5109 -0.5841
38834SOL    HW120033  10.665   1.219   7.422  0.0432  1.1870 -0.2946
38834SOL    HW220034  10.602   1.219   7.560 -0.4646  0.6728 -0.5212
38835SOL     OW20035   5.672   5.140   2.669  0.7435 -0.3641  0.6803
38835SOL    HW120036   5.646   5.114   2.581 -1.5072  1.4987  0.6980
38835SOL    HW220037   5.600   5.111   2.725  0.2940  1.7641  1.3058
38836SOL     OW20038   0.158   2.622   7.369  0.4049 -0.5162  0.0849
38836SOL    HW120039   0.236   2.676   7.375  0.8415 -0.9907 -0.9976
38836SOL    HW220040   0.086   2.681   7.392  1.1744 -0.4915  2.7084
38837SOL     OW20041   7.581   4.875  10.639 -0.1503  0.4378 -0.3425
38837SOL    HW120042   7.653   4.878  10.576  0.0318  0.0604 -0.1535
38837SOL    HW220043   7.549   4.965  10.642 -1.5116  0.1020 -2.5187
38838SOL     OW20044   4.515   6.801   9.537  0.2917 -0.8260 -0.1439
38838SOL    HW120045   4.601   6.837   9.560 -0.2013 -0.4071  1.1202
38838SOL    HW220046   4.454   6.875   9.547 -0.4082 -1.4507  0.3454
38839SOL     OW20047   0.863   2.846   7.330  0.1866  0.8284  0.3150
38839SOL    HW120048   0.891   2.760   7.300  1.0652  2.2174 -3.4389
38839SOL    HW220049   0.895   2.906   7.263 -1.0972  4.0202  2.3250
38840SOL     OW20050   0.299   8.171   4.825 -0.1053  0.5577  0.3989
38840SOL    HW120051   0.207   8.181   4.801  0.0222 -1.0819 -0.9777
38840SOL    HW220052   0.334   8.260   4.828 -1.3751  1.1113 -0.5928
38841SOL     OW20053   8.305   0.258   1.558  0.1367  0.1093 -0.2080
38841SOL    HW120054   8.325   0.218   1.642  0.3845  0.2131 -0.2137
38841SOL    HW220055   8.305   0.186   1.496 -2.9689 -0.4522  0.2974
38842SOL     OW20056  10.878   3.967   0.481 -0.2397  0.4843  0.1823
38842SOL    HW120057  10.901   3.918   0.402 -0.0482  0.9883 -0.0773
38842SOL    HW220058  10.783   3.960   0.486 -0.3907  1.5149 -0.8129
38843SOL     OW20059   0.867   8.679   5.745 -0.5332  0.2050 -0.2191
38843SOL    HW120060   0.869   8.631   5.829 -0.6814  0.9557  0.2225
38843SOL    HW220061   0.847   8.611   5.680 -0.3511 -0.4030  0.3402
38844SOL     OW20062   8.408   7.204   2.286  0.0052 -0.3394 -0.4071
38844SOL    HW120063   8.400   7.181   2.194  1.8086  1.0220 -0.9518
38844SOL    HW220064   8.459   7.285   2.287  0.9699 -0.8898  1.8257
38845SOL     OW20065  10.263   8.234   7.939  0.3184 -0.0165 -0.1082
38845SOL    HW120066  10.277   8.177   8.014  1.5050  0.3562 -0.0350
38845SOL    HW220067  10.203   8.185   7.882 -1.2729  0.0420  1.4285
38846SOL     OW20068   2.988   6.402   5.584 -0.3970 -0.5478 -0.2510
38846SOL    HW120069   3.020   6.444   5.663  2.1342 -0.6000 -1.1497
38846SOL    HW220070   2.957   6.316   5.613 -3.4995  0.9130  1.2441
38847SOL     OW20071   7.528   0.403   8.438 -0.7235 -0.1408  0.1416
38847SOL    HW120072   7.534   0.491   8.400  0.7070 -1.2021 -2.3306
38847SOL    HW220073   7.610   0.393   8.488  0.4839 -0.9837 -1.8900
38848SOL     OW20074   1.934   4.559   9.700 -0.1561 -0.3030 -0.6498
38848SOL    HW120075   1.948   4.628   9.635  1.6445 -0.4500 -0.4671
38848SOL    HW220076   1.865   4.593   9.757 -0.8564  0.3744 -1.8629
38849SOL     OW20077   6.313   1.245  10.910 -0.1119 -0.7122  0.5588
38849SOL    HW120078   6.373   1.278  10.843  0.5140 -1.3593  0.7992
38849SOL    HW220079   6.235   1.300  10.901  0.2933 -0.2421 -0.1361
38850SOL     OW20080   7.422   0.722   1.779 -0.2546  0.0655 -0.3216
38850SOL    HW120081   7.344   0.764   1.815 -0.3118 -0.4208  0.1371
38850SOL    HW220082   7.401   0.629   1.780 -0.2736  0.0435 -1.6758
38851SOL     OW20083   4.144   8.614   8.747  0.3022  0.2627  0.3049
38851SOL    HW120084   4.237   8.632   8.748  0.2687  0.4264  0.5625
38851SOL    HW220085   4.128   8.565   8.828  0.3060 -0.4900 -0.1410
38852SOL     OW20086   9.000   3.450   8.553 -0.5007 -0.5401  0.4781
38852SOL    HW120087   8.938   3.476   8.621  1.5924 -0.3323  2.4144
38852SOL    HW220088   9.067   3.518   8.555  0.5564 -1.5050 -0.5474
38853SOL     OW20089   0.646   0.631   2.310  0.2042 -0.0169 -0.0082
38853SOL    HW120090   0.665   0.541   2.282  1.7085 -0.2708  1.6052
38853SOL    HW220091   0.554   0.630   2.334  0.3159 -1.2845  0.4539
38854SOL     OW20092   0.231   9.299   9.361  0.5763 -0.0091  0.0221
38854SOL    HW120093   0.213   9.255   9.445 -1.1433  0.1349 -0.2263
38854SOL    HW220094   0.324   9.285   9.346  0.5793 -1.4552  1.1541
38855SOL     OW20095   6.627   6.929   0.091  0.2029  0.8981  0.1853
38855SOL    HW120096   6.642   6.840   0.125 -1.9075  0.9393  1.3693
38855SOL    HW220097   6.579   6.974   0.160  0.9973  2.9265 -0.4979
38856SOL     OW20098   1.679   7.968  10.335  0.4845  0.3057 -0.4504
38856SOL    HW120099   1.667   7.895  10.395 -0.4455 -0.8461 -1.9621
38856SOL    HW220100   1.748   7.939  10.275  1.4196  1.4431  0.0204
38857SOL     OW20101   9.587   6.682   7.259 -0.1022  0.1692 -0.6868
38857SOL    HW120102   9.583   6.764   7.308 -0.9500 -0.7541  0.8745
38857SOL    HW220103   9.678   6.675   7.232  0.7534  0.1234  1.9085
38858SOL     OW20104   2.711   8.620   8.595  0.3959  0.1122  0.1621
38858SOL    HW120105   2.635   8.561   8.590  0.5794 -0.0329 -1.7145
38858SOL    HW220106   2.787   8.563   8.584  0.6285  0.5599 -0.6481
38859SOL     OW20107   5.048   1.771   5.683 -0.0484 -0.5544  0.3888
38859SOL    HW120108   5.075   1.682   5.707 -1.6111 -0.9455  0.8240
38859SOL    HW220109   5.019   1.764   5.592 -1.2878 -0.7657  0.7914
38860SOL     OW20110   9.751  10.592   3.915 -0.2392  0.1068 -0.2812
38860SOL    HW120111   9.688  10.659   3.943 -0.8402 -1.0446  1.2296
38860SOL    HW220112   9.721  10.511   3.957  2.5725 -0.3920  1.0084
38861SOL     OW20113   0.015   8.933   3.251  0.5850 -0.0460  0.2839
38861SOL    HW120114   0.034   8.855   3.304  0.7467 -0.3172 -0.1714
38861SOL    HW220115   0.094   8.986   3.258  0.4243  0.1472  0.7054
38862SOL     OW20116   9.156   1.054   4.928 -0.3368 -0.3186 -0.6441
38862SOL    HW120117   9.117   1.141   4.920  1.5299  0.8077  1.4521
38862SOL    HW220118   9.139   1.029   5.019  0.3254 -1.5598 -0.8465
38863SOL     OW20119   0.891   7.558   5.624 -0.1233  0.0702 -0.6657
38863SOL    HW120120   0.837   7.511   5.688  0.0112  0.4494 -0.2796
38863SOL    HW220121   0.884   7.504   5.544 -0.2887 -0.3993 -0.3393
38864SOL     OW20122   0.521   6.548   5.008 -0.2843  0.2177  0.2969
38864SOL    HW120123   0.453   6.532   4.943  2.3446 -1.9170 -2.1835
38864SOL    HW220124   0.599   6.572   4.957  2.1008 -2.1034  2.4833
38865SOL     OW20125   9.837   7.474   1.410 -0.7650 -0.3283  0.0011
38865SOL    HW120126   9.927   7.444   1.406 -0.3392  0.6976  1.3854
38865SOL    HW220127   9.830   7.539   1.339 -0.4047 -0.3606 -0.0623
38866SOL     OW20128   4.782   4.771   7.928 -0.1928 -0.6725  0.2865
38866SOL    HW120129   4.870   4.807   7.941  0.8983 -2.5727 -1.3431
38866SOL    HW220130   4.733   4.843   7.888  0.6090  0.3676  1.0875
38867SOL     OW20131   0.184   2.534  10.813  0.4948  0.7157 -0.3326
38867SOL    HW120132   0.253   2.470  10.828  0.2732  0.5824  0.1275
38867SOL    HW220133   0.103   2.484  10.822  0.1838 -0.5632 -6.2678
38868SOL     OW20134   5.424   7.822   5.897 -0.0159  0.3788 -0.2232
38868SOL    HW120135   5.430   7.891   5.831 -1.6728  1.0443  0.2855
38868SOL    HW220136   5.374   7.753   5.855 -0.4676  0.5136  0.0859
38869SOL     OW20137   1.949   8.804   8.222  0.0650  0.1570 -0.5360
38869SOL    HW120138   2.017   8.791   8.156  0.6373 -1.0430  0.2382
38869SOL    HW220139   1.970   8.887   8.264  1.6364 -0.6278  0.3135
38870SOL     OW20140  10.062   6.324   7.637 -0.3401 -0.3644 -0.0401
38870SOL    HW120141  10.073   6.409   7.680 -0.2783 -0.3390 -0.1061
38870SOL    HW220142   9.982   6.288   7.675 -0.1918 -0.4160  0.2202
38871SOL     OW20143   8.735   6.364   5.402  0.4635  0.2558  0.6398
38871SOL    HW120144   8.679   6.413   5.341  2.5104  1.8781 -0.0683
38871SOL    HW220145   8.748   6.279   5.359 -1.6585 -0.3055  0.9931
38872SOL     OW20146   5.682   4.606   7.853  0.5334  0.2912 -0.4227
38872SOL    HW120147   5.652   4.527   7.898  0.6915  0.6184  0.2669
38872SOL    HW220148   5.776   4.607   7.865  0.8803 -0.7209 -2.5737
38873SOL     OW20149   1.466   7.461   6.303  0.2121  0.4748  0.7054
38873SOL    HW120150   1.409   7.484   6.376 -0.4704  0.1754  0.2700
38873SOL    HW220151   1.419   7.492   6.225 -0.2369 -1.3971  0.1872
38874SOL     OW20152   8.681   4.502   9.127 -0.9120 -0.5948  0.2123
38874SOL    HW120153   8.691   4.439   9.055  1.1820  1.1017 -1.0969
38874SOL    HW220154   8.723   4.461   9.202 -0.0050 -0.9660 -0.4889
38875SOL     OW20155   7.419   5.810  10.628 -0.0547 -0.0422 -0.5226
38875SOL    HW120156   7.514   5.797  10.638 -0.1668  0.2993  1.4474
38875SOL    HW220157   7.410   5.896  10.589  0.4673  0.9826  1.4755
38876SOL     OW20158   9.133   4.726   1.932 -0.0088  0.5681 -0.0668
38876SOL    HW120159   9.199   4.669   1.970 -0.2562  1.1856  1.3462
38876SOL    HW220160   9.116   4.689   1.845  0.6104 -0.8553  0.3943
38877SOL     OW20161  10.744   1.423   6.521  0.0012  0.5031 -0.0398
38877SOL    HW120162  10.753   1.514   6.494  1.3521  1.0680  2.0547
38877SOL    HW220163  10.830   1.384   6.504 -0.6666 -0.5137 -1.2582
38878SOL     OW20164   8.431   2.330   3.538  0.5640 -0.4059 -0.3483
38878SOL    HW120165   8.336   2.327   3.540  0.2225  3.4231 -2.0340
38878SOL    HW220166   8.457   2.249   3.493 -1.8155 -1.5971  0.2763
38879SOL     OW20167   6.206   1.819   1.749 -0.3799 -0.2353 -0.0931
38879SOL    HW120168   6.274   1.872   1.791 -0.2512 -1.7810  1.8380
38879SOL    HW220169   6.252   1.769   1.681 -0.6176  2.4424 -2.3795
38880SOL     OW20170   9.959   1.883   1.576  0.2607 -0.0352 -0.0312
38880SOL    HW120171   9.928   1.798   1.608  0.8422  0.1609  1.1268
38880SOL    HW220172   9.908   1.899   1.497 -1.6854 -0.3220  1.0851
38881SOL     OW20173   0.734   4.448   1.600  0.2100 -0.1163 -0.3919
38881SOL    HW120174   0.804   4.484   1.547 -0.9102  0.6390 -1.4121
38881SOL    HW220175   0.768   4.449   1.690  0.8551  1.8832 -0.6198
38882SOL     OW20176   9.427  10.392   3.428 -0.3142 -0.2658  0.6690
38882SOL    HW120177   9.341  10.398   3.386  0.6501  0.8868 -1.3032
38882SOL    HW220178   9.408  10.398   3.521 -2.3233  0.9277  0.2525
38883SOL     OW20179  11.052   4.951   5.643  0.4384 -0.1159  0.4785
38883SOL    HW120180  11.131   5.000   5.620  0.0015  0.7831  0.8557
38883SOL    HW220181  11.074   4.860   5.622  1.4561  0.1595  0.2767
38884SOL     OW20182   6.627   6.066   6.408  0.3062  0.0439  0.4227
38884SOL    HW120183   6.561   6.077   6.477 -0.2191  0.3648 -0.1266
38884SOL    HW220184   6.679   5.991   6.437 -0.4317 -0.3554  0.7572
38885SOL     OW20185   1.566   7.801   9.428 -0.7851 -0.4540  0.4029
38885SOL    HW120186   1.581   7.739   9.500 -0.7728 -0.0396  0.7639
38885SOL    HW220187   1.484   7.844   9.451 -0.9575 -0.5563 -0.0095
38886SOL     OW20188   9.453   9.366   1.262 -0.1018 -0.2263 -0.1732
38886SOL    HW120189   9.452   9.286   1.210 -0.3364 -0.0996 -0.3628
38886SOL    HW220190   9.504   9.428   1.210 -1.8931  0.4943 -1.1486
38887SOL     OW20191   1.139   5.896   9.550  0.5730  0.0620  0.6100
38887SOL    HW120192   1.216   5.853   9.512 -1.5826 -2.0369 -1.7505
38887SOL    HW220193   1.115   5.840   9.625 -0.5589 -1.3627 -0.7393
38888SOL     OW20194   5.267   9.336   4.978 -0.0664  0.7094  0.7834
38888SOL    HW120195   5.321   9.365   4.904  1.5048 -1.3389  1.0417
38888SOL    HW220196   5.251   9.416   5.028 -1.0339  2.1514 -1.6126
38889SOL     OW20197   9.707   4.308   8.861  0.1298  0.1554 -0.3565
38889SOL    HW120198   9.616   4.304   8.831 -0.2687  1.7473  0.5351
38889SOL    HW220199   9.743   4.386   8.817  1.2926 -0.8483 -1.2485
38890SOL     OW20200   9.899   2.049   6.442 -0.6567  0.3447 -0.7720
38890SOL    HW120201   9.897   1.959   6.408 -1.2114  0.0258  0.0745
38890SOL    HW220202   9.922   2.039   6.534 -3.6415  0.7971  0.1181
38891SOL     OW20203   7.361   2.364   5.653  0.6107  0.0272  0.3453
38891SOL    HW120204   7.320   2.313   5.723  0.3818 -1.1093 -0.5742
38891SOL    HW220205   7.299   2.358   5.580  0.7307  1.3809  0.1065
38892SOL     OW20206   8.432   9.255   9.919  0.1785  0.3834  1.3216
38892SOL    HW120207   8.412   9.340   9.881 -1.3541 -0.3719  0.3305
38892SOL    HW220208   8.520   9.234   9.888  0.3967  1.4130  1.2314
38893SOL     OW20209   4.907   4.317   8.086  0.1038  0.2170  0.1703
38893SOL    HW120210   4.947   4.334   8.001 -1.0901 -1.9463 -0.9162
38893SOL    HW220211   4.847   4.391   8.098  1.5055  1.4333 -0.0217
38894SOL     OW20212  10.685  10.791   4.698  0.0024  0.6577  0.5390
38894SOL    HW120213  10.685  10.811   4.604 -1.6897 -0.7102  0.1947
38894SOL    HW220214  10.685  10.695   4.702 -1.4727  0.6683  1.8874
38895SOL     OW20215   8.053   6.728   8.380 -0.5958 -0.3245  0.6386
38895SOL    HW120216   8.050   6.764   8.468  0.4431 -0.0587  0.5747
38895SOL    HW220217   8.054   6.633   8.392  0.4833 -0.2812  0.9550
38896SOL     OW20218   9.902   8.924  10.641 -0.0600 -0.8905 -0.2877
38896SOL    HW120219   9.920   8.910  10.548 -1.1721  0.8293 -0.8007
38896SOL    HW220220   9.810   8.947  10.644  0.2741  0.3822  1.0894
38897SOL     OW20221   1.298   0.887   4.846 -0.6065 -0.0178 -0.0968
38897SOL    HW120222   1.230   0.820   4.856 -0.3063 -0.2383  0.5313
38897SOL    HW220223   1.374   0.839   4.813  0.3411 -0.4812  2.4744
38898SOL     OW20224   2.267   3.663   1.482  0.2324  0.1123  0.4691
38898SOL    HW120225   2.266   3.728   1.553  2.3332  0.2764  0.3956
38898SOL    HW220226   2.342   3.607   1.502  0.3145 -0.3868 -1.1489
38899SOL     OW20227   7.388  10.577   1.092  0.1758 -0.5697  0.2686
38899SOL    HW120228   7.299  10.612   1.087  0.0215 -0.9593  0.1785
38899SOL    HW220229   7.383  10.495   1.042  0.7111 -0.3435 -0.1583
38900SOL     OW20230   6.512   3.944   5.441 -0.1889 -0.5040 -0.6329
38900SOL    HW120231   6.478   3.952   5.352  1.2840  0.4589 -1.1329
38900SOL    HW220232   6.465   4.012   5.490 -2.0091 -1.9148 -0.2963
38901SOL     OW20233   6.304   5.946   5.410 -0.5041  0.4077 -0.0331
38901SOL    HW120234   6.301   5.977   5.500 -0.4250  0.3528 -0.0121
38901SOL    HW220235   6.227   5.889   5.401 -0.4605  0.3408  0.0249
38902SOL     OW20236   9.689   4.327   4.760 -0.2579  0.2017 -0.2955
38902SOL    HW120237   9.668   4.247   4.714 -0.5149  0.1589 -0.1095
38902SOL    HW220238   9.646   4.396   4.710 -0.0945  0.2143 -0.4172
38903SOL     OW20239   1.589   9.457   8.422 -0.0830 -0.5381 -0.1554
38903SOL    HW120240   1.643   9.416   8.355  1.3422  0.0684  0.5903
38903SOL    HW220241   1.638   9.445   8.503 -1.5134 -0.7734  0.7085
38904SOL     OW20242   5.274   6.885   3.173  0.0708 -0.0886  0.7429
38904SOL    HW120243   5.206   6.821   3.152 -0.5877  0.2692  1.7043
38904SOL    HW220244   5.277   6.886   3.269 -0.0382  1.4261  0.7489
38905SOL     OW20245   7.927   3.059   3.688  0.3065  0.0822 -0.7655
38905SOL    HW120246   7.920   2.967   3.716  2.1371 -0.0220 -0.5273
38905SOL    HW220247   7.878   3.108   3.754  1.8830 -0.4712  0.9090
38906SOL     OW20248   3.816   6.882   4.300  0.4614  0.0545 -0.5760
38906SOL    HW120249   3.807   6.859   4.392 -0.3954  0.1507 -0.6292
38906SOL    HW220250   3.877   6.817   4.265 -0.0742 -0.6612 -0.1912
38907SOL     OW20251   7.383   7.449   3.089  0.1755 -0.4598  0.1259
38907SOL    HW120252   7.417   7.510   3.024  2.5627  0.3028  1.9309
38907SOL    HW220253   7.301   7.488   3.118 -0.0571  0.0587 -1.1597
38908SOL     OW20254   7.332   7.859   4.847  0.2535  0.2760  0.2656
38908SOL    HW120255   7.320   7.923   4.776  0.6003  1.9855  1.6709
38908SOL    HW220256   7.295   7.778   4.813 -0.4158  1.2779 -1.5223
38909SOL     OW20257   0.892   8.049   2.280  0.0759 -0.0975  0.1159
38909SOL    HW120258   0.849   8.045   2.365  0.8853 -1.1527  0.5100
38909SOL    HW220259   0.895   8.142   2.258 -0.7873  0.1239  0.8930
38910SOL     OW20260   4.902   1.960   5.816  0.3490 -0.0855  0.4834
38910SOL    HW120261   4.820   1.921   5.848  0.4632 -0.5479  0.2176
38910SOL    HW220262   4.957   1.885   5.794 -0.1552  0.1694 -1.9056
38911SOL     OW20263   8.221   7.213   3.593  0.7042  0.0215 -0.3719
38911SOL    HW120264   8.130   7.184   3.602 -0.1323  2.4792 -0.2445
38911SOL    HW220265   8.272   7.141   3.630 -1.3400 -0.2592  2.2296
38912SOL     OW20266   3.680   1.257   6.965  0.1826  0.0412 -0.2493
38912SOL    HW120267   3.692   1.180   6.910  2.8302  1.9422 -2.6343
38912SOL    HW220268   3.618   1.312   6.916 -0.7111  0.0180  0.8120
38913SOL     OW20269   9.980  10.601   8.307 -0.2530  0.4719  0.4767
38913SOL    HW120270   9.973  10.538   8.235  0.6832  1.0036 -0.0873
38913SOL    HW220271   9.891  10.605   8.342 -0.7321  0.1983 -0.6432
38914SOL     OW20272   6.962   8.569   2.202 -0.0050 -0.3750 -0.0569
38914SOL    HW120273   6.999   8.481   2.215  0.2711 -0.4240 -1.0787
38914SOL    HW220274   7.009   8.624   2.264  1.1283 -0.6171 -0.6771
38915SOL     OW20275   7.487  10.086   8.649 -0.2973 -0.5770 -0.1037
38915SOL    HW120276   7.424  10.121   8.586 -1.7668 -1.7880  0.6272
38915SOL    HW220277   7.437  10.073   8.729  1.2876 -0.0476  1.0371
38916SOL     OW20278  10.247   7.737   3.653  0.1057 -0.9971 -0.3517
38916SOL    HW120279  10.154   7.746   3.633 -0.4925  0.0389  2.4313
38916SOL    HW220280  10.258   7.643   3.671 -0.8574 -0.9019  0.9441
38917SOL     OW20281   9.044  11.011   8.471  0.0876  0.2775 -0.3537
38917SOL    HW120282   9.126  10.979   8.434  0.6456  0.7908  0.4239
38917SOL    HW220283   9.069  11.055   8.552 -0.8987  0.9013 -0.3719
38918SOL     OW20284   7.898   4.764   6.983 -0.0259 -0.1462 -0.0198
38918SOL    HW120285   7.841   4.828   7.026 -0.9724 -0.0691 -1.3550
38918SOL    HW220286   7.972   4.755   7.043 -0.6351  1.0027  0.9534
38919SOL     OW20287   5.573   6.711   9.394 -0.5379 -0.8625 -0.1196
38919SOL    HW120288   5.652   6.764   9.387 -0.9814 -0.2536 -0.6564
38919SOL    HW220289   5.502   6.770   9.369 -1.1471 -1.4457  0.1963
38920SOL     OW20290   3.321   5.275   5.531 -0.0342 -0.1835 -0.4343
38920SOL    HW120291   3.415   5.276   5.548 -0.1185  1.0522  0.0775
38920SOL    HW220292   3.291   5.192   5.566  0.5563  0.2843  1.3050
38921SOL     OW20293   0.006   4.819   1.364 -0.2110 -0.2907 -0.6669
38921SOL    HW120294   0.081   4.866   1.326  2.1873 -4.0008 -1.0160
38921SOL    HW220295  -0.059   4.820   1.294  1.6240 -1.3849 -2.5351
38922SOL     OW20296   9.399   3.603   3.082  0.1922 -0.1245 -0.1940
38922SOL    HW120297   9.451   3.562   3.151  2.7647  1.5490 -0.9626
38922SOL    HW220298   9.382   3.692   3.114  1.8891  0.8593 -1.8073
38923SOL     OW20299   2.406   5.476   0.204  0.0266 -0.0243 -0.3227
38923SOL    HW120300   2.387   5.457   0.112 -0.6895  0.6838 -0.3303
38923SOL    HW220301   2.499   5.499   0.205 -0.3575  1.7569 -1.1977
38924SOL     OW20302   7.811   1.877   2.836  0.1923 -0.4493  0.3862
38924SOL    HW120303   7.717   1.898   2.836  0.0167 -0.6502 -2.8773
38924SOL    HW220304   7.814   1.783   2.852  0.0226 -0.1378  2.4117
38925SOL     OW20305  10.065   0.349   8.047 -0.7804  0.2184 -0.0874
38925SOL    HW120306  10.007   0.405   8.099  0.7581  2.3668 -0.5595
38925SOL    HW220307  10.083   0.400   7.968  0.7800 -0.9224 -0.5093
38926SOL     OW20308   3.028   2.022   1.507 -0.5974 -0.0575  0.1999
38926SOL    HW120309   2.990   1.973   1.434 -0.4775  0.9257 -0.5381
38926SOL    HW220310   2.992   2.110   1.498  2.9818  1.4108 -1.5040
38927SOL     OW20311   2.422   9.633   1.318 -0.0053 -0.1250  0.5039
38927SOL    HW120312   2.371   9.589   1.251  2.2813 -1.6977 -0.3378
38927SOL    HW220313   2.358   9.681   1.371 -2.2018 -1.4712 -0.8300
38928SOL     OW20314   2.333   7.346   3.901 -0.1464  0.3910  0.2421
38928SOL    HW120315   2.253   7.329   3.851  0.7903  0.1048 -1.2129
38928SOL    HW220316   2.366   7.429   3.867  0.9409 -0.2125 -0.2454
38929SOL     OW20317   2.502   6.696   6.958  0.1546  0.3193  0.0243
38929SOL    HW120318   2.452   6.666   7.034 -1.2665  0.8105 -0.6948
38929SOL    HW220319   2.592   6.671   6.978 -0.4061 -0.8748  1.2090
38930SOL     OW20320  10.888   8.612  10.261  0.0837  0.2713 -0.4664
38930SOL    HW120321  10.849   8.689  10.221  0.2780  0.3513 -0.5022
38930SOL    HW220322  10.897   8.549  10.189 -2.2199 -0.6742 -0.0220
38931SOL     OW20323  11.047  10.656  10.711  0.3884 -0.0994 -0.0372
38931SOL    HW120324  11.109  10.588  10.688  0.0478 -0.3704 -0.1651
38931SOL    HW220325  10.982  10.655  10.641 -0.2531 -0.4296  0.5364
38932SOL     OW20326   6.953   8.806   5.023 -0.6926  0.7949 -0.2058
38932SOL    HW120327   6.880   8.750   5.049 -1.6102  1.6376 -0.8944
38932SOL    HW220328   7.030   8.763   5.060 -1.1732 -1.6646 -1.7522
38933SOL     OW20329   8.768   6.123   8.880  0.1101  0.6417 -0.8426
38933SOL    HW120330   8.765   6.081   8.794 -0.3307  0.0634 -0.5451
38933SOL    HW220331   8.855   6.102   8.914 -0.2763 -0.4047 -0.5015
38934SOL     OW20332  10.039   9.469   3.009 -0.2238 -0.2061 -0.3913
38934SOL    HW120333  10.090   9.421   2.943 -0.6613 -0.2186 -0.7282
38934SOL    HW220334  10.018   9.403   3.075  0.3701 -0.1536 -0.1405
38935SOL     OW20335   4.824   3.933   0.312  0.3799  0.1174 -0.2490
38935SOL    HW120336   4.858   3.992   0.379  1.4922  0.6179 -1.2246
38935SOL    HW220337   4.872   3.852   0.325  0.0580 -0.0274  0.0330
38936SOL     OW20338   8.855   2.545   5.005 -0.0701 -0.8001  0.0902
38936SOL    HW120339   8.808   2.514   4.928 -2.5685  0.1821  1.1172
38936SOL    HW220340   8.908   2.619   4.974 -1.7913  0.2106 -0.5362
38937SOL     OW20341   4.678   4.487   5.833  0.5204  0.6432 -0.1787
38937SOL    HW120342   4.713   4.537   5.906  0.7497  0.4165 -0.1283
38937SOL    HW220343   4.684   4.396   5.862  0.9732  0.5260 -0.6276
38938SOL     OW20344   5.836   6.933   3.310  0.2874 -0.0583  0.0894
38938SOL    HW120345   5.929   6.950   3.296  0.5642 -1.5810 -0.0506
38938SOL    HW220346   5.791   6.994   3.251  1.2590 -0.8881 -1.5763
38939SOL     OW20347   9.401   3.149   5.690  0.1421  0.1007 -0.1600
38939SOL    HW120348   9.412   3.208   5.765 -1.0541 -0.1427  0.2334
38939SOL    HW220349   9.485   3.151   5.644 -0.1737  2.9126 -0.7577
38940SOL     OW20350   6.913   1.847   9.778  0.6398  0.0752 -0.6130
38940SOL    HW120351   6.853   1.780   9.810  1.7359  0.2311  1.9780
38940SOL    HW220352   6.868   1.930   9.794  0.4939  0.0808 -1.0549
38941SOL     OW20353  11.029   4.555  10.365  0.5102  0.5941 -0.3589
38941SOL    HW120354  10.958   4.491  10.374  0.5775  0.2230 -2.1958
38941SOL    HW220355  11.003   4.626  10.424 -1.1541  0.2418 -0.5940
38942SOL     OW20356   1.028   9.560   2.137 -0.1413  0.1294  0.0464
38942SOL    HW120357   1.064   9.647   2.123  0.7030  0.2709  2.4605
38942SOL    HW220358   0.942   9.575   2.175 -0.9685 -0.1581 -1.6470
38943SOL     OW20359   6.486   3.851   4.520  0.3317 -0.0069 -0.0005
38943SOL    HW120360   6.484   3.931   4.468  0.7079 -0.7300 -1.1638
38943SOL    HW220361   6.566   3.806   4.492  1.5838  0.4410  2.5637
38944SOL     OW20362   2.634   9.703   2.596  0.5167  0.0615 -0.4640
38944SOL    HW120363   2.607   9.620   2.635  1.6775 -0.1984 -0.1784
38944SOL    HW220364   2.592   9.703   2.510 -0.5618 -0.2093  0.0469
38945SOL     OW20365   4.020   5.463  10.399  0.0677 -0.1094 -0.4989
38945SOL    HW120366   4.030   5.540  10.342 -0.1494 -0.8448 -1.5569
38945SOL    HW220367   3.959   5.492  10.467 -0.9867  0.3181 -1.5659
38946SOL     OW20368   6.816   2.862  11.018 -0.0613  0.0577  0.1614
38946SOL    HW120369   6.824   2.768  11.034 -0.4900  0.1518  0.9776
38946SOL    HW220370   6.738   2.871  10.963  1.7246 -0.3179 -2.6659
38947SOL     OW20371   5.098   8.797   7.733  0.6185 -0.1694 -0.3349
38947SOL    HW120372   5.031   8.785   7.800 -0.9916  1.5171 -1.5181
38947SOL    HW220373   5.146   8.715   7.730  0.2268 -0.5550  2.3004
38948SOL     OW20374   1.667   6.472   2.582 -0.0820 -0.6416  0.0764
38948SOL    HW120375   1.674   6.529   2.659 -0.7193 -0.3085 -0.1028
38948SOL    HW220376   1.616   6.523   2.519  0.2254 -1.0097 -0.4774
38949SOL     OW20377   9.607   9.478   6.402  0.2618 -0.4676 -0.5738
38949SOL    HW120378   9.622   9.533   6.325  1.8838 -1.4090 -0.9943
38949SOL    HW220379   9.694   9.441   6.422 -0.3412 -1.0994  1.0409
38950SOL     OW20380   9.462   2.343   6.306  0.4537  0.1576 -0.3181
38950SOL    HW120381   9.509   2.335   6.389  1.3431 -1.1870 -0.9220
38950SOL    HW220382   9.523   2.309   6.241 -1.5392 -2.2179 -1.0716
38951SOL     OW20383   9.073   5.522   8.081 -0.0421 -0.1197  0.7270
38951SOL    HW120384   8.982   5.536   8.108  0.3248  1.9542  1.0959
38951SOL    HW220385   9.075   5.549   7.989  0.3060  0.3995  0.8830
38952SOL     OW20386   0.667   8.415   3.220 -0.1527 -0.3376 -0.6861
38952SOL    HW120387   0.750   8.366   3.217 -0.1977 -0.4533 -0.1582
38952SOL    HW220388   0.661   8.457   3.135  0.4213 -0.3841 -0.7540
38953SOL     OW20389   8.440  10.290   6.212 -0.7453  0.3306  0.2901
38953SOL    HW120390   8.482  10.316   6.294 -1.2226  2.3168 -0.0594
38953SOL    HW220391   8.381  10.362   6.191 -0.0259  0.2461 -2.2492
38954SOL     OW20392   3.217   0.515   8.850  0.6159 -0.4724  0.1697
38954SOL    HW120393   3.280   0.488   8.783  1.0427  0.2614  0.2576
38954SOL    HW220394   3.132   0.505   8.808  0.8835  0.0881 -0.5357
38955SOL     OW20395  10.857   0.010   7.909 -0.5556  0.5957 -0.0966
38955SOL    HW120396  10.906   0.093   7.903 -1.0464  0.8606 -0.5794
38955SOL    HW220397  10.860  -0.013   8.002  0.2109  0.7715 -0.0698
38956SOL     OW20398  11.052   9.597   4.056 -0.4723 -0.4239  0.2441
38956SOL    HW120399  11.036   9.597   3.962 -4.4210  1.4683  0.6677
38956SOL    HW220400  11.078   9.507   4.076  1.6348 -0.6114 -2.6893
38957SOL     OW20401   7.665   7.910   4.892 -0.0502 -0.0331 -0.0993
38957SOL    HW120402   7.629   7.829   4.855  0.0931  0.2087 -0.7860
38957SOL    HW220403   7.597   7.975   4.875  0.2113  0.1759 -0.3569
38958SOL     OW20404   4.233   2.439   1.375  0.1404 -1.0064  0.5684
38958SOL    HW120405   4.202   2.518   1.331  0.6604 -0.6825  0.7783
38958SOL    HW220406   4.300   2.404   1.316  0.4232 -0.8928  0.8197
38959SOL     OW20407   0.709   0.212   3.093 -0.0494  0.2096  0.0500
38959SOL    HW120408   0.709   0.285   3.031  1.9906 -0.4506 -0.8108
38959SOL    HW220409   0.801   0.189   3.103 -0.6453 -2.6130 -0.1505
38960SOL     OW20410   8.308   6.211   9.521 -0.6754  0.3236 -0.3149
38960SOL    HW120411   8.277   6.276   9.458 -0.5930  1.7846  1.0780
38960SOL    HW220412   8.230   6.162   9.545 -0.4781 -1.2461 -2.5537
38961SOL     OW20413   0.060   0.110   1.161  0.3326 -0.3566 -0.9054
38961SOL    HW120414   0.021   0.141   1.243  0.5500 -2.1273 -0.0866
38961SOL    HW220415   0.096   0.188   1.120  0.7380  0.4909  0.9864
38962SOL     OW20416   5.475  10.625   8.477  0.1150 -0.0509 -0.3560
38962SOL    HW120417   5.395  10.628   8.424 -0.0210 -1.4893 -0.2926
38962SOL    HW220418   5.530  10.561   8.431 -0.1623 -1.6370  1.3954
38963SOL     OW20419  10.998   0.950   9.836  0.4758  0.4248  0.1799
38963SOL    HW120420  10.924   0.899   9.871  0.6339  0.0916  0.0275
38963SOL    HW220421  11.075   0.898   9.857  0.7774  1.2683  1.2734
38964SOL     OW20422   2.627   4.099   4.829  0.3959 -0.2810  0.2703
38964SOL    HW120423   2.647   4.007   4.813  1.3197 -0.1018  0.3286
38964SOL    HW220424   2.589   4.130   4.747  2.1215 -0.1818 -0.5480
38965SOL     OW20425   2.086   1.532  10.797  0.2832  0.0315  0.6532
38965SOL    HW120426   2.129   1.599  10.744  1.0760  0.8384  2.2817
38965SOL    HW220427   2.050   1.579  10.871 -3.4320 -0.5980 -0.5337
38966SOL     OW20428   2.127   5.626   6.682  0.0887 -0.3426  0.7160
38966SOL    HW120429   2.137   5.564   6.754  1.3970 -0.0672  0.8069
38966SOL    HW220430   2.138   5.712   6.723  1.3564 -0.2037  0.1356
38967SOL     OW20431   9.759   8.886   0.427 -0.2168  0.1307 -0.6081
38967SOL    HW120432   9.775   8.857   0.517 -0.7656  0.6931 -0.3168
38967SOL    HW220433   9.683   8.836   0.398  0.0856 -0.1991 -0.8335
38968SOL     OW20434   6.257   5.888   1.829  0.3959  0.3025  0.4313
38968SOL    HW120435   6.340   5.846   1.807  0.1163 -1.0895  1.9276
38968SOL    HW220436   6.231   5.849   1.912 -0.9916  1.8582  0.7745
38969SOL     OW20437   1.945   8.158   7.834  0.1868 -0.4063  0.1476
38969SOL    HW120438   1.957   8.103   7.757 -1.4163 -0.3798 -0.1597
38969SOL    HW220439   1.925   8.245   7.799 -0.3051 -0.3364  0.5847
38970SOL     OW20440   1.732   9.746   7.096 -0.0900  0.1384 -0.4334
38970SOL    HW120441   1.733   9.759   7.191 -2.8958  0.2514 -0.3191
38970SOL    HW220442   1.655   9.690   7.081 -0.1944  0.8074 -2.6890
38971SOL     OW20443   8.229   0.416   3.571  0.1229  0.9401 -0.1415
38971SOL    HW120444   8.220   0.397   3.665  1.1241  0.3547 -0.1522
38971SOL    HW220445   8.290   0.350   3.539  0.9557  2.0440 -0.9029
38972SOL     OW20446   3.661   9.987   5.337  0.0457 -0.3199 -0.1795
38972SOL    HW120447   3.714  10.031   5.403  1.0514 -2.1871  0.3558
38972SOL    HW220448   3.714   9.912   5.311 -1.0257 -0.5168 -1.9568
38973SOL     OW20449   7.436   2.418   5.981 -0.0688 -0.5771 -0.3374
38973SOL    HW120450   7.389   2.349   5.935 -2.0950  0.7318 -0.3667
38973SOL    HW220451   7.513   2.435   5.926 -1.3642 -0.4449 -2.2060
38974SOL     OW20452   6.377   7.623   9.754  0.3235 -0.2680  0.5678
38974SOL    HW120453   6.366   7.645   9.847 -2.0104 -0.8292  0.4893
38974SOL    HW220454   6.300   7.571   9.733  0.0753  1.0093 -2.0539
38975SOL     OW20455   4.137   0.522   3.326 -0.0047  0.1634 -0.1450
38975SOL    HW120456   4.205   0.520   3.394 -0.6681 -0.2558  0.5175
38975SOL    HW220457   4.102   0.433   3.325  0.1776  0.0864 -1.2384
38976SOL     OW20458   2.134   9.390   6.050  0.1049  0.4533 -0.5177
38976SOL    HW120459   2.199   9.356   6.112  1.5775 -0.0721 -2.2251
38976SOL    HW220460   2.187   9.433   5.983 -1.4725  1.7539 -0.9720
38977SOL     OW20461   3.402   1.718   4.235  0.3046  0.0848 -0.3727
38977SOL    HW120462   3.339   1.779   4.198 -0.0827  0.4097  0.7815
38977SOL    HW220463   3.459   1.695   4.162 -1.1457 -0.2240 -1.4453
38978SOL     OW20464   7.157   5.678   0.427 -0.1825  0.2576 -0.0783
38978SOL    HW120465   7.246   5.713   0.432  1.1026 -2.7134 -0.0375
38978SOL    HW220466   7.168   5.583   0.434 -3.4279 -0.1950  0.5580
38979SOL     OW20467   8.264  10.361   7.955  0.6390  0.4367  0.0391
38979SOL    HW120468   8.325  10.294   7.987  0.1189 -0.1226 -0.1226
38979SOL    HW220469   8.258  10.345   7.861  1.1786  1.2691 -0.1507
38980SOL     OW20470   6.949  10.479   2.137  0.4680 -0.3208 -0.1137
38980SOL    HW120471   6.933  10.566   2.175 -0.3269  0.4176 -1.9747
38980SOL    HW220472   7.043  10.480   2.115  1.2067 -1.1664  2.6140
38981SOL     OW20473   8.226   1.634   0.741  0.0886  0.1978  0.0684
38981SOL    HW120474   8.166   1.630   0.816  1.3432  1.1934  1.1592
38981SOL    HW220475   8.277   1.554   0.747 -1.7978 -1.2366 -1.5263
38982SOL     OW20476   7.952   0.803   5.797 -0.0221  0.2867 -0.0409
38982SOL    HW120477   7.908   0.871   5.746 -1.3231  0.0221  0.6951
38982SOL    HW220478   7.932   0.722   5.751  0.6154  0.2677 -0.3009
38983SOL     OW20479   0.211   2.090   7.747  0.7431  0.0495  0.0056
38983SOL    HW120480   0.256   2.021   7.795  2.3566  1.3380  0.4384
38983SOL    HW220481   0.139   2.116   7.804 -1.6616 -3.0627 -1.3442
38984SOL     OW20482  10.039   4.382   9.077 -0.5844  0.1444  0.1250
38984SOL    HW120483   9.958   4.378   9.128 -0.8500  0.0977 -0.2961
38984SOL    HW220484  10.109   4.386   9.143 -0.8970 -0.3598  0.4904
38985SOL     OW20485   2.192   3.595   4.853  0.2582 -0.7296  0.3909
38985SOL    HW120486   2.266   3.557   4.805  0.7539  0.4643  0.1944
38985SOL    HW220487   2.115   3.553   4.814  0.5740  0.7347 -2.0065
38986SOL     OW20488   4.244   0.569   5.869  0.4185 -0.1137 -0.5733
38986SOL    HW120489   4.305   0.537   5.803  0.9967  1.2029 -0.6968
38986SOL    HW220490   4.288   0.553   5.953 -0.7331 -2.7116 -0.3657
38987SOL     OW20491   6.171   9.976   4.264 -0.2096 -0.2982  0.0264
38987SOL    HW120492   6.206   9.890   4.289  0.1044 -0.3400 -0.5417
38987SOL    HW220493   6.132   9.961   4.178  0.5023  0.2986 -0.4076
38988SOL     OW20494   6.261   9.751   5.481  0.2608 -0.2651 -0.0018
38988SOL    HW120495   6.280   9.838   5.515 -1.7888 -0.0356  0.6849
38988SOL    HW220496   6.330   9.696   5.516  0.8608  0.8538  0.6218
38989SOL     OW20497   0.298   7.498   0.829  0.0041  0.7435  0.0046
38989SOL    HW120498   0.306   7.409   0.793  0.2390  0.2349  1.2578
38989SOL    HW220499   0.387   7.521   0.856  0.1990  1.9055 -1.4580
38990SOL     OW20500   3.418   5.244   8.411  0.0318  0.9987  0.8229
38990SOL    HW120501   3.374   5.321   8.446  1.3263  2.2993 -0.3333
38990SOL    HW220502   3.511   5.263   8.419  0.3722 -0.1436 -0.1240
38991SOL     OW20503   5.356   4.130   4.798  0.1816 -0.1422 -0.4662
38991SOL    HW120504   5.348   4.049   4.748 -0.2709 -0.3642 -0.0343
38991SOL    HW220505   5.442   4.124   4.839 -0.8454 -1.5945  1.6170
38992SOL     OW20506   4.334   5.442   9.427 -0.0750 -0.3251  0.1981
38992SOL    HW120507   4.308   5.514   9.369  2.1241 -0.9474 -1.7309
38992SOL    HW220508   4.306   5.470   9.514 -0.9111  2.0166 -0.7270
38993SOL     OW20509   5.806   4.596   2.476 -0.1892 -0.1522  0.9097
38993SOL    HW120510   5.869   4.580   2.546 -0.4719 -1.1167  0.9503
38993SOL    HW220511   5.784   4.689   2.485  0.9267  0.1023  1.1375
38994SOL     OW20512   7.604   3.277   6.188 -0.4540  0.6389 -0.0274
38994SOL    HW120513   7.559   3.356   6.218 -0.5344  0.5359  0.1213
38994SOL    HW220514   7.605   3.219   6.264  2.4986  1.7434  0.9589
38995SOL     OW20515   9.946   1.904   7.612 -0.1695  0.5853 -0.9824
38995SOL    HW120516   9.983   1.817   7.623  0.7132  1.0219 -0.2175
38995SOL    HW220517   9.852   1.891   7.603 -0.0600 -0.4287 -0.6933
38996SOL     OW20518   2.908   4.052   1.683 -0.0821  0.5607  0.1831
38996SOL    HW120519   2.882   3.966   1.717 -0.1907  0.7366  0.5484
38996SOL    HW220520   2.909   4.109   1.760 -0.1237  0.9142 -0.0776
38997SOL     OW20521  10.185   5.638   2.419 -0.6462 -0.0174  0.0666
38997SOL    HW120522  10.104   5.683   2.445 -1.1204 -0.6104 -0.3608
38997SOL    HW220523  10.200   5.665   2.329  0.3831  1.1508  0.5580
38998SOL     OW20524   4.259  10.899   8.874 -0.1838  0.2084  0.5519
38998SOL    HW120525   4.168  10.871   8.885  0.2324 -1.7316 -0.5404
38998SOL    HW220526   4.267  10.918   8.780  0.7262 -0.4655  0.4771
38999SOL     OW20527   7.423   0.367   1.079  0.7262  0.3240 -0.2152
38999SOL    HW120528   7.470   0.446   1.103  0.1444  0.9044 -0.9643
38999SOL    HW220529   7.490   0.298   1.079  1.0950  0.6413  1.1973
39000SOL     OW20530   5.903   6.977   9.531 -0.1900 -0.1764  0.4136
39000SOL    HW120531   5.991   6.979   9.493 -0.7196 -0.9392 -0.9393
39000SOL    HW220532   5.892   6.886   9.561 -1.3356 -0.7681 -1.5855
39001SOL     OW20533   4.076   6.595   8.362 -0.0968 -0.6159  0.3798
39001SOL    HW120534   4.018   6.578   8.288  0.9654  0.4898 -0.7389
39001SOL    HW220535   4.040   6.674   8.403  1.1269  0.6474 -0.9013
39002SOL     OW20536   1.905   7.745   9.705  0.2988 -0.5942  0.0269
39002SOL    HW120537   1.987   7.699   9.721  0.7082  0.6072  1.7210
39002SOL    HW220538   1.931   7.835   9.688 -0.6502 -0.2056  0.5416
39003SOL     OW20539   8.699   8.165   0.546 -0.0429  0.0457  0.3849
39003SOL    HW120540   8.754   8.239   0.569  0.0327  0.0953  0.0508
39003SOL    HW220541   8.759   8.090   0.541  0.0213  0.1246 -0.1132
39004SOL     OW20542   7.492   0.606   1.448  0.4743  0.1846 -0.0716
39004SOL    HW120543   7.447   0.530   1.411 -0.7840  1.0515 -0.4042
39004SOL    HW220544   7.543   0.571   1.520  0.8547 -1.1441 -0.9476
39005SOL     OW20545   6.644   5.463   6.036 -0.3027 -0.1061  0.1090
39005SOL    HW120546   6.739   5.468   6.033 -0.3220  0.0783 -0.3154
39005SOL    HW220547   6.615   5.551   6.011 -0.6037 -0.6900 -1.7599
39006SOL     OW20548   5.617   6.666   8.352 -0.5366  0.4539 -0.3487
39006SOL    HW120549   5.576   6.734   8.298 -2.5950  0.4609  1.0952
39006SOL    HW220550   5.562   6.589   8.340  0.2500 -0.1904  0.0797
39007SOL     OW20551   5.651  10.266   7.491 -0.3922 -0.1439  0.1956
39007SOL    HW120552   5.621  10.175   7.490 -2.5641  0.4827 -1.8321
39007SOL    HW220553   5.643  10.293   7.583  0.7200 -2.0646  0.9191
39008SOL     OW20554   8.488   5.218  10.524  0.3576 -0.8340  0.7638
39008SOL    HW120555   8.533   5.230  10.440  0.4011 -3.0189  0.4382
39008SOL    HW220556   8.549   5.166  10.576  0.0616 -0.0149  1.9653
39009SOL     OW20557   8.609   8.875   6.910 -0.0630 -0.5230 -0.6155
39009SOL    HW120558   8.533   8.873   6.968  0.4106  2.4254  0.2717
39009SOL    HW220559   8.651   8.789   6.921 -2.1932 -1.5108  0.2851
39010SOL     OW20560   0.071   0.186  10.448 -0.7039 -0.5081  0.3887
39010SOL    HW120561   0.081   0.160  10.357 -0.8443  1.3427 -0.1920
39010SOL    HW220562   0.130   0.128  10.496  1.6771  0.4312 -1.2344
39011SOL     OW20563   5.551   2.538   9.704 -0.2848 -0.1797 -0.1950
39011SOL    HW120564   5.558   2.510   9.795  1.2941  0.0282 -0.2199
39011SOL    HW220565   5.541   2.456   9.654  1.3345 -0.5174 -0.0193
39012SOL     OW20566   2.394   3.115   1.099 -0.1282  0.4461 -0.0803
39012SOL    HW120567   2.484   3.117   1.132 -0.0514  0.0209 -0.2574
39012SOL    HW220568   2.396   3.050   1.029 -0.1449  1.7882 -1.3496
39013SOL     OW20569   8.655   7.227   5.730 -0.1718  0.0242  0.1543
39013SOL    HW120570   8.680   7.314   5.761  0.6564 -0.0610 -0.2537
39013SOL    HW220571   8.736   7.177   5.728 -0.6940 -0.8822  0.7355
39014SOL     OW20572   6.747   0.258   5.050  0.4568  0.7797  0.3900
39014SOL    HW120573   6.707   0.301   5.125  1.9529  2.2867  0.3867
39014SOL    HW220574   6.841   0.262   5.067  1.0122  2.9214 -2.3898
39015SOL     OW20575   5.214   9.380   6.902 -0.1022  0.2355 -0.4092
39015SOL    HW120576   5.238   9.420   6.818 -1.4501 -1.7798 -1.8770
39015SOL    HW220577   5.296   9.376   6.951  0.4159  2.9720 -0.8939
39016SOL     OW20578   1.817   8.117   5.321  0.1899 -0.1308 -0.0168
39016SOL    HW120579   1.777   8.193   5.277 -2.1565 -2.6058 -2.5806
39016SOL    HW220580   1.753   8.094   5.389  0.4324 -0.3333  0.1402
39017SOL     OW20581  10.538   2.706   9.963 -0.4547  0.4233 -0.1917
39017SOL    HW120582  10.444   2.696   9.948 -0.2141  0.0526 -1.5357
39017SOL    HW220583  10.571   2.746   9.883  0.6158  0.1076  0.0775
39018SOL     OW20584   0.544   6.152   4.367  0.9312 -0.1079 -0.3031
39018SOL    HW120585   0.505   6.102   4.439 -0.3003  2.0391  0.6195
39018SOL    HW220586   0.544   6.242   4.398 -2.0336  1.4047 -3.8624
39019SOL     OW20587   1.905   6.714   5.293 -0.0698  0.0782 -0.0141
39019SOL    HW120588   1.815   6.684   5.290 -0.3401  0.4956  2.2269
39019SOL    HW220589   1.900   6.809   5.281 -0.0338  0.1990  0.8343
39020SOL     OW20590   9.146   4.776   3.632  0.0217 -0.0380 -0.2298
39020SOL    HW120591   9.205   4.782   3.707 -0.2823 -0.0355  0.0126
39020SOL    HW220592   9.062   4.809   3.665  0.1861  1.0827 -0.9009
39021SOL     OW20593   2.244   7.661   1.911  0.3396  0.2362 -0.0699
39021SOL    HW120594   2.283   7.638   1.826  0.1440  1.0850 -0.3904
39021SOL    HW220595   2.154   7.630   1.905  0.3938  0.0743 -0.0717
39022SOL     OW20596   5.477   0.773   6.011 -0.6839  0.2822  0.2048
39022SOL    HW120597   5.564   0.799   5.980  0.0546 -1.6390  0.5272
39022SOL    HW220598   5.493   0.696   6.066 -2.4441  0.7687  1.5015
39023SOL     OW20599  11.057   1.874   7.621  0.3708  0.0413  0.0283
39023SOL    HW120600  11.056   1.854   7.527  2.2682  0.2256 -0.0716
39023SOL    HW220601  11.090   1.964   7.626 -1.6313  0.8085  0.8187
39024SOL     OW20602   6.584   0.509   6.531  0.4663  0.1364 -0.5776
39024SOL    HW120603   6.520   0.577   6.550 -0.2539 -0.5582 -0.4447
39024SOL    HW220604   6.649   0.517   6.600  0.9502  1.3400 -1.1420
39025SOL     OW20605   8.519   0.822  10.833 -0.0194  0.2257 -0.6180
39025SOL    HW120606   8.569   0.753  10.789 -0.4294 -0.0194 -0.7056
39025SOL    HW220607   8.569   0.902  10.817  1.0353 -0.2005  0.3714
39026SOL     OW20608  10.442   7.018  10.014 -0.1832 -0.2394 -0.4026
39026SOL    HW120609  10.377   6.951   9.993 -0.9499  0.6100 -0.7893
39026SOL    HW220610  10.436   7.081   9.943 -0.0718  0.6853  0.3897
39027SOL     OW20611   9.814   2.836   2.680 -0.7791  0.0874 -0.1373
39027SOL    HW120612   9.778   2.924   2.668  2.4899  1.6054  0.1132
39027SOL    HW220613   9.869   2.822   2.603  0.7924 -0.6073  1.0550
39028SOL     OW20614   4.710   3.191   5.965 -0.3853 -0.6139  0.0499
39028SOL    HW120615   4.666   3.107   5.955  0.0196 -1.1743  2.3958
39028SOL    HW220616   4.782   3.188   5.902 -1.2782 -1.3533 -0.9779
39029SOL     OW20617   0.190   2.102   6.523 -1.0827 -0.0547  0.2963
39029SOL    HW120618   0.166   2.009   6.521 -2.1004  0.1984 -0.2020
39029SOL    HW220619   0.147   2.135   6.602  0.3790 -0.2589  1.2250
39030SOL     OW20620   0.862   4.660   0.995 -0.0599 -0.2728 -0.2088
39030SOL    HW120621   0.854   4.582   0.940  0.8607 -0.0227 -0.7270
39030SOL    HW220622   0.868   4.626   1.084 -1.2888 -0.7005 -0.2723
39031SOL     OW20623   8.884   3.377   7.566  0.7022  0.3384  0.5574
39031SOL    HW120624   8.847   3.294   7.537 -0.7077  1.0412  0.2765
39031SOL    HW220625   8.927   3.412   7.488 -1.9977  1.6296 -0.4584
39032SOL     OW20626   5.278   1.057   1.824  0.0286  0.0201  0.0044
39032SOL    HW120627   5.215   1.057   1.753  0.4212  0.2275 -0.3519
39032SOL    HW220628   5.262   0.975   1.872  0.6312 -0.7795 -1.1118
39033SOL     OW20629   9.439   4.976   3.822  0.2515 -0.2941 -0.1141
39033SOL    HW120630   9.492   4.924   3.761 -0.0884  0.5947 -1.1877
39033SOL    HW220631   9.503   5.031   3.868  0.3749  0.0463 -0.6825
39034SOL     OW20632   4.132   4.924   8.022 -0.1986  0.0964  0.2737
39034SOL    HW120633   4.149   5.012   8.056 -0.1822  0.1331  0.1718
39034SOL    HW220634   4.147   4.931   7.927  1.2093 -0.3536  0.4372
39035SOL     OW20635   2.816   7.857   9.883 -0.4270 -0.3220 -0.0784
39035SOL    HW120636   2.887   7.917   9.903 -0.8094 -0.2645  1.1566
39035SOL    HW220637   2.830   7.834   9.791  1.1049 -0.2216  0.1044
39036SOL     OW20638   8.863   9.898   9.106 -0.0064  0.0903  0.0772
39036SOL    HW120639   8.939   9.840   9.111 -1.3259 -2.0136 -2.3536
39036SOL    HW220640   8.881   9.955   9.032 -0.3029  0.3770  0.2224
39037SOL     OW20641   1.375   4.827   4.690 -0.0638  0.1932  0.1450
39037SOL    HW120642   1.343   4.803   4.603 -0.2649  0.8615  0.0206
39037SOL    HW220643   1.323   4.905   4.713 -0.8321 -0.6371  1.3528
39038SOL     OW20644   9.599   1.730   9.057 -0.2420 -0.4937  0.4574
39038SOL    HW120645   9.644   1.771   9.130  2.5824 -0.2374 -1.2520
39038SOL    HW220646   9.532   1.793   9.031  0.8277  0.8515  0.8790
39039SOL     OW20647  10.445   1.638   7.278  0.6064 -0.5128 -0.1403
39039SOL    HW120648  10.392   1.596   7.347  1.4497 -0.4272  0.5841
39039SOL    HW220649  10.507   1.570   7.252  0.9745 -0.2106 -0.0597
39040SOL     OW20650   6.920   7.258   4.546  0.0669 -0.3201  0.0869
39040SOL    HW120651   6.956   7.255   4.457  0.0757 -0.2088  0.0863
39040SOL    HW220652   6.907   7.166   4.570 -1.2613 -0.3340 -0.5718
39041SOL     OW20653   6.367   7.856   8.467  0.2681 -1.0033 -0.3502
39041SOL    HW120654   6.325   7.921   8.412  2.4005  0.4634 -0.3609
39041SOL    HW220655   6.297   7.797   8.493 -1.3781  0.1779 -1.9259
39042SOL     OW20656   6.329   6.197  10.619  0.0107 -0.1476  0.1332
39042SOL    HW120657   6.291   6.274  10.663  0.9983  0.5175 -0.1487
39042SOL    HW220658   6.423   6.216  10.615  0.0327 -0.4646 -1.7111
39043SOL     OW20659  10.236   2.651   5.436 -0.1460 -0.5351  0.3136
39043SOL    HW120660  10.274   2.593   5.502  0.3851  0.2657  0.7269
39043SOL    HW220661  10.260   2.739   5.465 -0.5215 -0.1358 -0.5639
39044SOL     OW20662   9.333   9.448   5.272  0.1628 -0.1443 -0.7405
39044SOL    HW120663   9.238   9.434   5.275  0.0158  0.7386 -1.0493
39044SOL    HW220664   9.363   9.429   5.361 -0.2508 -0.7413 -0.7220
39045SOL     OW20665   7.350   4.152   9.678  0.2067  0.2924 -0.2912
39045SOL    HW120666   7.255   4.157   9.690  0.0194 -0.7170 -1.1903
39045SOL    HW220667   7.370   4.059   9.690  0.7688  0.1224 -2.2261
39046SOL     OW20668   9.376   0.313  10.845 -0.3098  0.4208  0.2083
39046SOL    HW120669   9.371   0.388  10.904  0.9196  1.7931 -1.3290
39046SOL    HW220670   9.442   0.338  10.780 -1.4175 -1.0904 -1.6020
39047SOL     OW20671   6.697   4.037   6.070 -0.1158 -0.2400  0.0746
39047SOL    HW120672   6.663   4.116   6.028 -1.0627 -1.8945 -2.5354
39047SOL    HW220673   6.792   4.044   6.061 -0.2409  0.1099 -1.2171
39048SOL     OW20674   6.068   0.442   7.602  0.1529  0.1379 -0.0210
39048SOL    HW120675   6.094   0.534   7.613  0.5137  0.0097  0.1969
39048SOL    HW220676   5.983   0.436   7.646 -0.1301  0.4934 -0.5059
39049SOL     OW20677   2.153   1.146   5.421  0.4379 -0.4148  0.1056
39049SOL    HW120678   2.137   1.224   5.474  0.7027 -1.4982  1.8760
39049SOL    HW220679   2.094   1.080   5.459  0.4999 -1.1785 -1.0926
39050SOL     OW20680   5.474   0.144   4.435  0.1609  0.0538  0.1475
39050SOL    HW120681   5.483   0.196   4.515  1.2954 -0.4626  0.3862
39050SOL    HW220682   5.453   0.055   4.466  1.6056 -0.3835 -0.0303
39051SOL     OW20683   0.597   8.558   1.019  0.0407 -0.1146 -0.6266
39051SOL    HW120684   0.585   8.562   0.924  2.0494  1.5279 -0.8727
39051SOL    HW220685   0.649   8.636   1.040  0.6693 -1.0783  1.6605
39052SOL     OW20686   7.574   2.308   8.415 -0.5051 -0.2502 -0.0326
39052SOL    HW120687   7.487   2.324   8.377 -1.5683  0.1832  2.3660
39052SOL    HW220688   7.590   2.215   8.399 -0.0883  0.2506 -2.9420
39053SOL     OW20689  11.088   0.128   7.743  0.2188  0.1976 -0.4372
39053SOL    HW120690  11.087   0.079   7.825 -2.1942 -0.3058 -0.6805
39053SOL    HW220691  11.077   0.062   7.675  0.8274  0.7337 -1.0688
39054SOL     OW20692   2.958   9.276   7.917  0.1107  0.3559  0.2001
39054SOL    HW120693   3.029   9.221   7.952  0.7202  0.2092 -1.2091
39054SOL    HW220694   3.003   9.352   7.880 -0.5298  0.6056 -0.0700
39055SOL     OW20695   3.163  10.046   7.394 -0.1742 -0.0730  0.5202
39055SOL    HW120696   3.234  10.057   7.457  0.5135 -1.0039 -0.0699
39055SOL    HW220697   3.160   9.952   7.378 -2.2386 -0.2038  1.3064
39056SOL     OW20698   1.684   6.999   1.321 -0.1879 -0.3107 -0.1746
39056SOL    HW120699   1.597   7.030   1.296 -1.1262 -1.1933  1.7894
39056SOL    HW220700   1.704   7.045   1.403 -1.2581 -3.9117  2.3758
39057SOL     OW20701   9.262   3.808   8.373  0.2262  0.2054 -0.1082
39057SOL    HW120702   9.231   3.738   8.315 -0.3884 -0.0377  0.4982
39057SOL    HW220703   9.232   3.889   8.331  0.2960  0.0704 -0.4259
39058SOL     OW20704   6.103   5.642   1.757  0.4100 -0.0431  0.1295
39058SOL    HW120705   6.099   5.723   1.808  1.6618 -0.2028  0.5171
39058SOL    HW220706   6.158   5.663   1.681  0.2322 -0.3586 -0.0920
39059SOL     OW20707   2.500   8.249   4.151 -0.0928 -0.1209  0.3273
39059SOL    HW120708   2.563   8.268   4.221  0.2973  0.3054 -0.1336
39059SOL    HW220709   2.507   8.323   4.091 -2.4016  0.8898  1.1973
39060SOL     OW20710   3.752   3.164   3.973  0.3225 -0.0324  0.5519
39060SOL    HW120711   3.809   3.092   3.944  0.7796  0.9936 -1.2442
39060SOL    HW220712   3.666   3.124   3.982  0.5848 -0.8386 -0.3296
39061SOL     OW20713   6.473   2.157   4.379 -0.0724  0.0000 -0.4134
39061SOL    HW120714   6.557   2.124   4.410 -0.3634 -0.6488 -0.2796
39061SOL    HW220715   6.430   2.080   4.340 -1.1145  0.0086  0.6478
39062SOL     OW20716   1.634   5.632   2.496 -0.3393 -0.2407 -0.1546
39062SOL    HW120717   1.685   5.640   2.415 -0.4710 -1.4576 -0.3833
39062SOL    HW220718   1.611   5.722   2.519  1.5434  0.2991 -0.2619
39063SOL     OW20719   9.643   7.632   0.781 -0.9924 -0.3666  0.5884
39063SOL    HW120720   9.615   7.702   0.840 -0.9588 -0.6467  0.9424
39063SOL    HW220721   9.680   7.677   0.705  0.9883  0.0427  1.7138
39064SOL     OW20722   7.536   9.670   0.818  0.1736 -0.1772  0.1398
39064SOL    HW120723   7.544   9.680   0.913  0.9116 -0.8773  0.1677
39064SOL    HW220724   7.573   9.750   0.782 -1.6832  0.8653  0.4553
39065SOL     OW20725   3.564   2.093   6.274  0.2712  0.4853  0.3195
39065SOL    HW120726   3.474   2.103   6.242  0.1030 -0.2317  0.5692
39065SOL    HW220727   3.617   2.089   6.195  0.1194  1.1916  0.1729
39066SOL     OW20728   1.545  10.412   6.568 -0.1831  0.2287  0.2528
39066SOL    HW120729   1.498  10.349   6.622  0.3172  0.0948  0.5360
39066SOL    HW220730   1.599  10.462   6.630 -0.7277  1.0752  0.0575
39067SOL     OW20731   7.492   7.796   5.652  0.0526  0.1720  0.2189
39067SOL    HW120732   7.458   7.764   5.568  0.0614  0.8180 -0.0361
39067SOL    HW220733   7.587   7.794   5.642  0.1347 -1.9027  1.0321
39068SOL     OW20734   0.972   7.629   1.619  0.0966  0.3573 -0.3299
39068SOL    HW120735   0.954   7.570   1.691  2.2930  1.5636  1.3438
39068SOL    HW220736   1.041   7.586   1.569  0.5031  0.7356 -0.0988
39069SOL     OW20737   1.934  10.796   5.124 -0.6919  0.3758 -0.1588
39069SOL    HW120738   1.998  10.846   5.073 -0.0608 -1.0970 -0.8616
39069SOL    HW220739   1.987  10.735   5.175 -1.4097  0.8222  1.1966
39070SOL     OW20740   4.878   3.391   7.040 -0.0527  0.0204  0.2050
39070SOL    HW120741   4.885   3.315   6.983 -1.4939 -1.3319  1.7021
39070SOL    HW220742   4.917   3.363   7.123  0.5276  1.3620  0.4217
39071SOL     OW20743   8.301   3.028   2.131  0.6719  0.2603  0.3289
39071SOL    HW120744   8.217   2.999   2.096  0.1606  1.3140  0.6400
39071SOL    HW220745   8.304   3.122   2.111  1.1628  0.5156  1.5179
39072SOL     OW20746   0.233   9.788   2.369  0.1426 -0.1404 -0.2071
39072SOL    HW120747   0.317   9.822   2.399  0.1664  2.1341 -2.4732
39072SOL    HW220748   0.255   9.732   2.294 -0.3024  0.1229 -0.5410
39073SOL     OW20749   0.231   7.181   6.101  0.1146 -0.4838 -0.2524
39073SOL    HW120750   0.228   7.157   6.194 -0.2430  0.4378 -0.0119
39073SOL    HW220751   0.315   7.147   6.070 -0.0985 -1.4678  0.2136
39074SOL     OW20752   5.707   9.795   1.656 -0.1143  0.3506  0.0757
39074SOL    HW120753   5.783   9.774   1.601  1.8079 -1.5678  3.1513
39074SOL    HW220754   5.738   9.866   1.712 -0.1204 -1.0956  2.0281
39075SOL     OW20755  10.644   6.596   3.182 -0.1581  0.2619  0.1858
39075SOL    HW120756  10.658   6.646   3.102 -1.2139 -0.2384 -0.3268
39075SOL    HW220757  10.668   6.656   3.253 -0.1746  1.0459 -0.4607
39076SOL     OW20758   8.779   9.753   0.852 -0.1584  1.0167  0.3153
39076SOL    HW120759   8.699   9.699   0.854  0.7494 -0.4094 -0.0162
39076SOL    HW220760   8.814   9.740   0.764  1.2458  0.3375  0.9379
39077SOL     OW20761   3.472   6.235   1.534 -0.1728  0.1202 -0.1123
39077SOL    HW120762   3.431   6.251   1.619 -0.5337  0.0498 -0.2693
39077SOL    HW220763   3.533   6.308   1.522  1.9634 -1.2769  1.4487
39078SOL     OW20764   7.365   1.131   7.518 -0.8049  0.3582 -0.0802
39078SOL    HW120765   7.315   1.050   7.529 -0.5943 -0.0488 -1.8241
39078SOL    HW220766   7.403   1.124   7.430  4.1669 -0.4052  1.8152
39079SOL     OW20767   5.744   7.925   7.231  0.4805  0.1539  0.1479
39079SOL    HW120768   5.745   7.830   7.248  0.3299  0.5275  2.5839
39079SOL    HW220769   5.767   7.932   7.138 -3.9641 -2.4805 -1.4792
39080SOL     OW20770   2.052   5.213   3.160 -0.0511 -0.3743  0.5024
39080SOL    HW120771   2.132   5.172   3.194 -0.6267 -1.0032  1.1352
39080SOL    HW220772   2.024   5.273   3.229 -1.0205 -1.3827  1.0182
39081SOL     OW20773   8.205   1.994   0.742 -0.9082 -0.3569  0.0951
39081SOL    HW120774   8.252   2.025   0.820 -0.6013  0.2806 -0.3332
39081SOL    HW220775   8.242   1.907   0.725 -1.1089 -0.5814  0.7604
39082SOL     OW20776   6.515   9.527   6.999  0.3609 -0.3950  0.1249
39082SOL    HW120777   6.491   9.434   6.998  3.0005 -1.1515 -1.9310
39082SOL    HW220778   6.500   9.558   6.910  2.0731  0.3794  0.0557
39083SOL     OW20779   7.065   7.983   5.670  0.3226 -0.0361  0.0752
39083SOL    HW120780   7.083   8.002   5.762  0.5338  1.6677 -0.2718
39083SOL    HW220781   7.151   7.972   5.630  0.2596 -0.0722 -0.0525
39084SOL     OW20782   6.787   1.236   3.398 -0.0681 -0.0975 -0.0820
39084SOL    HW120783   6.821   1.220   3.486  0.1200 -1.0330 -0.3167
39084SOL    HW220784   6.762   1.329   3.398  1.4156  0.3239  0.4535
39085SOL     OW20785   8.985   7.366   8.290 -0.3343  0.2127 -0.0907
39085SOL    HW120786   9.005   7.424   8.217 -2.0332 -0.3780 -1.0775
39085SOL    HW220787   8.997   7.420   8.368  2.0106  0.7109 -0.7209
39086SOL     OW20788   8.553   7.483   7.027 -0.0736  0.3742  0.2483
39086SOL    HW120789   8.463   7.501   7.054 -0.2404  1.3584 -0.8537
39086SOL    HW220790   8.601   7.469   7.108 -0.9434  1.2461  0.9369
39087SOL     OW20791   7.863  11.115   6.018  0.3941 -0.4987  0.4889
39087SOL    HW120792   7.779  11.069   6.014 -2.7099  4.5554 -2.9247
39087SOL    HW220793   7.856  11.169   6.097  0.1106  0.3059 -0.0733
39088SOL     OW20794   0.767   0.965   3.983  0.1345 -0.4738 -0.0817
39088SOL    HW120795   0.752   0.906   3.909  1.0908 -0.4934 -0.2744
39088SOL    HW220796   0.697   1.029   3.977  1.1249  0.5118 -2.0219
39089SOL     OW20797   5.045   9.416   3.805  0.3104  0.3341  0.3061
39089SOL    HW120798   5.100   9.386   3.878 -0.8083  2.1701  1.9969
39089SOL    HW220799   4.959   9.428   3.843 -0.0228  2.5620 -0.9970
39090SOL     OW20800   3.315   1.166   8.182 -0.0221 -0.0554  0.0819
39090SOL    HW120801   3.350   1.255   8.178 -2.2151  0.8796  0.0996
39090SOL    HW220802   3.224   1.175   8.154 -0.9282 -1.9222  2.0845
39091SOL     OW20803   6.921   2.391   0.304  0.5189 -0.6186 -0.9074
39091SOL    HW120804   6.989   2.369   0.368  0.4216  0.9205 -0.2374
39091SOL    HW220805   6.899   2.483   0.322 -2.0083 -1.1505 -0.8571
39092SOL     OW20806   7.573   8.268   1.997  0.2121  0.3469  0.4101
39092SOL    HW120807   7.586   8.173   2.004  2.4355  0.6277  0.8301
39092SOL    HW220808   7.518   8.279   1.919 -1.7762 -1.3489  1.4491
39093SOL     OW20809   7.638   1.133   6.183  0.6205 -0.0094  0.1566
39093SOL    HW120810   7.644   1.080   6.262  0.8635 -0.3451 -0.0834
39093SOL    HW220811   7.724   1.126   6.142  0.4428  0.0132 -0.2298
39094SOL     OW20812   8.331   1.795   0.996 -0.1147  0.4679 -0.5826
39094SOL    HW120813   8.382   1.770   0.919 -0.2548  1.5488 -1.0508
39094SOL    HW220814   8.337   1.891   0.998  0.0398  0.4510  0.8640
39095SOL     OW20815   1.334   5.311   1.719 -0.0478 -0.2215  0.0713
39095SOL    HW120816   1.428   5.318   1.737  0.2083  0.1870 -1.2945
39095SOL    HW220817   1.330   5.286   1.626 -1.2777 -0.8922  0.2961
39096SOL     OW20818   5.733   7.453   5.004 -0.0228 -0.5833 -0.1195
39096SOL    HW120819   5.791   7.511   5.053  0.1486 -0.9198  0.0805
39096SOL    HW220820   5.791   7.388   4.966 -0.2728 -0.9490  0.1188
39097SOL     OW20821  10.460   4.584   3.107 -0.1063  0.0224 -0.0636
39097SOL    HW120822  10.373   4.614   3.134  0.3459  1.2322  0.1041
39097SOL    HW220823  10.512   4.582   3.187  0.6299  1.5003 -0.4623
39098SOL     OW20824   2.404   7.815  10.139 -0.1684 -0.1999 -0.3501
39098SOL    HW120825   2.403   7.898  10.091  0.0368 -1.5687 -2.8987
39098SOL    HW220826   2.316   7.779  10.126 -0.3998 -0.2158  1.1174
39099SOL     OW20827   6.341   3.108   0.948 -0.1016  0.1292  0.2574
39099SOL    HW120828   6.259   3.136   0.988  0.8510  0.3466  2.2050
39099SOL    HW220829   6.401   3.098   1.022  1.0531 -2.0492 -0.8773
39100SOL     OW20830   3.539   0.931   4.339  0.0415  0.3661  0.7431
39100SOL    HW120831   3.623   0.976   4.327  0.0364  0.2957  0.4491
39100SOL    HW220832   3.530   0.924   4.434  0.8336 -0.4688  0.7813
39101SOL     OW20833   8.670   3.348   4.709 -0.5031 -0.3326  0.3560
39101SOL    HW120834   8.592   3.302   4.679  0.5899 -0.3912 -2.7520
39101SOL    HW220835   8.665   3.434   4.667  2.0844 -1.1211 -1.9262
39102SOL     OW20836   0.110   8.016   8.643  0.7741 -0.1884 -0.2877
39102SOL    HW120837   0.019   8.036   8.663  1.1883  3.2660 -1.0691
39102SOL    HW220838   0.118   8.032   8.549  2.6255  2.4006  0.1585
39103SOL     OW20839  10.844   1.999   4.243  0.4795 -0.3451  0.1994
39103SOL    HW120840  10.821   1.906   4.244  1.2307 -0.5434 -0.3715
39103SOL    HW220841  10.833   2.027   4.334  0.7331 -1.1176  0.4766
39104SOL     OW20842   3.691   9.548   8.308  0.2706 -0.0057 -0.4011
39104SOL    HW120843   3.608   9.592   8.286  0.1371  0.1006  0.2940
39104SOL    HW220844   3.712   9.496   8.230 -0.0124  0.6247 -0.9058
39105SOL     OW20845   1.796   7.339   2.471 -0.3981 -0.3739  0.0512
39105SOL    HW120846   1.804   7.278   2.397 -2.0885  0.4801 -0.8833
39105SOL    HW220847   1.862   7.308   2.533 -0.0446 -2.1292 -1.0955
39106SOL     OW20848   5.254   7.055   6.859 -0.0973  0.4847  0.1521
39106SOL    HW120849   5.199   7.130   6.837 -1.1783 -0.4129 -0.3464
39106SOL    HW220850   5.209   7.013   6.933  0.2912  0.1254  0.1901
39107SOL     OW20851   4.989   9.405   2.350  0.5671  0.5029 -0.1807
39107SOL    HW120852   4.913   9.407   2.408  0.4465  1.1688 -0.3521
39107SOL    HW220853   4.954   9.374   2.266  0.4434  0.9959 -0.3135
39108SOL     OW20854   7.490  10.553   4.995 -0.3983 -0.3795  0.0232
39108SOL    HW120855   7.401  10.534   4.965  0.0175  0.4221 -1.8808
39108SOL    HW220856   7.496  10.649   4.991  0.3076 -0.3734  0.9416
39109SOL     OW20857   6.297   2.779   6.006  0.1222  0.6517  0.1926
39109SOL    HW120858   6.228   2.822   6.056 -0.8315 -0.3949 -0.1983
39109SOL    HW220859   6.255   2.750   5.926  0.6095 -1.3687  0.6078
39110SOL     OW20860   1.860   9.690   5.504 -0.3205  0.0958  0.2062
39110SOL    HW120861   1.937   9.666   5.555 -1.4399 -2.4187  0.8245
39110SOL    HW220862   1.791   9.703   5.568 -1.0023 -0.0620 -0.4752
39111SOL     OW20863   3.283   1.543   4.395  0.0663  0.0531 -0.6521
39111SOL    HW120864   3.195   1.579   4.401 -0.6337 -1.4803 -1.1086
39111SOL    HW220865   3.333   1.610   4.348 -0.2900  1.8481  1.4051
39112SOL     OW20866   3.707   9.660   3.337  0.0011 -0.4415 -0.9922
39112SOL    HW120867   3.761   9.739   3.327 -0.9042  0.3410  0.0314
39112SOL    HW220868   3.623   9.683   3.297 -1.1208  0.0692  1.4732
39113SOL     OW20869   5.515   5.890  10.013 -0.3102 -0.2377 -0.3443
39113SOL    HW120870   5.585   5.952  10.032 -1.3478  0.7957  0.2409
39113SOL    HW220871   5.542   5.809  10.056  0.8559 -0.0771 -0.7366
39114SOL     OW20872   8.771   0.247   3.256  0.4964 -0.5597 -0.3244
39114SOL    HW120873   8.750   0.333   3.217  0.1301 -1.1815 -1.5569
39114SOL    HW220874   8.830   0.268   3.328 -0.4204  0.8244  0.0869
39115SOL     OW20875   2.000   1.846   7.039 -0.2338  0.8238 -0.2496
39115SOL    HW120876   1.950   1.783   7.091  0.7328 -0.0586 -0.3462
39115SOL    HW220877   2.071   1.874   7.098 -0.1913  1.2106 -0.4806
39116SOL     OW20878   8.990  10.441   0.716  0.0458 -0.2759  0.1335
39116SOL    HW120879   8.902  10.405   0.719  0.2475 -0.8198 -0.1763
39116SOL    HW220880   8.982  10.530   0.749 -0.7286 -0.0998 -0.5246
39117SOL     OW20881   7.354   5.004   1.585 -0.2056 -0.1379 -0.0691
39117SOL    HW120882   7.346   5.069   1.515  0.3967 -0.7345 -0.6997
39117SOL    HW220883   7.290   4.937   1.563 -2.2519  1.1261  1.6256
39118SOL     OW20884  10.338   2.521   2.180 -0.4886 -0.2903 -0.0836
39118SOL    HW120885  10.377   2.438   2.154  1.3586  0.8644 -1.2227
39118SOL    HW220886  10.263   2.532   2.122 -1.9836 -2.0179  1.3868
39119SOL     OW20887   5.012   6.379   7.867  0.4239 -0.1926 -0.3031
39119SOL    HW120888   5.101   6.381   7.832 -0.1569  1.2963 -1.8199
39119SOL    HW220889   5.018   6.425   7.950  1.0772 -0.1836 -0.3488
39120SOL     OW20890  10.450   9.378   9.259 -0.2262 -0.5744  0.0871
39120SOL    HW120891  10.387   9.357   9.329  1.4638 -1.2049  1.5033
39120SOL    HW220892  10.411   9.452   9.213 -0.5835  1.1279  2.8921
39121SOL     OW20893   0.313   4.781   5.637 -0.5624 -0.0074 -0.0491
39121SOL    HW120894   0.317   4.844   5.565  0.9676 -1.3276 -1.2107
39121SOL    HW220895   0.221   4.754   5.640 -0.5533 -0.4855 -2.0943
39122SOL     OW20896   7.740   1.104   0.329 -0.0307  0.2927  0.3876
39122SOL    HW120897   7.801   1.108   0.255 -2.3355  1.3357 -1.6125
39122SOL    HW220898   7.673   1.041   0.302 -1.2497  1.1360  1.2901
39123SOL     OW20899   4.978  10.973   2.222 -0.2228 -0.2629 -0.3352
39123SOL    HW120900   4.994  10.999   2.131 -1.0239 -1.1943 -0.7475
39123SOL    HW220901   4.929  10.892   2.216 -0.9514  0.0637  0.9377
39124SOL     OW20902   3.609   3.801   7.062 -1.1077  0.3302  0.1404
39124SOL    HW120903   3.558   3.749   7.125 -2.3396 -0.5217 -1.4603
39124SOL    HW220904   3.682   3.744   7.037 -1.2390  0.2193  0.0025
39125SOL     OW20905  10.610   8.589   5.403 -0.1500  0.1310 -0.1519
39125SOL    HW120906  10.592   8.504   5.443 -0.5666  0.1107 -0.3759
39125SOL    HW220907  10.543   8.647   5.438 -0.0278  0.3045 -0.2025
39126SOL     OW20908   5.007   9.169  10.733 -0.0887 -0.1441 -0.0338
39126SOL    HW120909   4.920   9.133  10.716  0.3174 -1.0286 -0.2915
39126SOL    HW220910   5.023   9.150  10.825  0.2287 -0.8567 -0.2329
39127SOL     OW20911   6.231  11.098   8.111 -0.1664 -0.0760  0.2229
39127SOL    HW120912   6.152  11.055   8.144 -0.8143  0.6482 -0.3481
39127SOL    HW220913   6.276  11.130   8.189  0.3666 -1.7927  0.6781
39128SOL     OW20914   8.056   5.043   9.510  0.4096  0.4489 -0.3546
39128SOL    HW120915   8.099   4.963   9.482 -1.4157 -0.6158 -0.2857
39128SOL    HW220916   8.022   5.082   9.429 -0.5937 -0.0251 -0.1757
39129SOL     OW20917   9.175   2.522   1.763 -0.5646  0.1084 -0.0831
39129SOL    HW120918   9.120   2.462   1.713  0.4788 -0.1591 -0.9380
39129SOL    HW220919   9.156   2.608   1.727 -3.0850  0.5892  2.0420
39130SOL     OW20920   2.900   0.387   3.271 -0.6113  0.4206 -0.4541
39130SOL    HW120921   2.958   0.314   3.252 -0.1252  1.2556 -2.4289
39130SOL    HW220922   2.959   0.458   3.296 -1.0029  0.4668  0.3662
39131SOL     OW20923   8.999   7.966   9.485  0.6798 -0.6745 -1.0914
39131SOL    HW120924   9.032   7.956   9.395 -1.7102 -1.1855 -1.9976
39131SOL    HW220925   9.003   7.878   9.522 -1.5858 -1.2079 -1.9821
39132SOL     OW20926   3.946   3.859  10.186  0.6683 -0.8602 -0.4538
39132SOL    HW120927   3.991   3.817  10.259  0.7987 -0.0943 -0.0862
39132SOL    HW220928   3.854   3.833  10.197  0.0083  1.9515  2.0341
39133SOL     OW20929   5.986   2.652   0.461  0.2547 -0.0486  0.1325
39133SOL    HW120930   6.048   2.638   0.389  1.3798  1.1513  0.8298
39133SOL    HW220931   6.041   2.665   0.538 -0.9033  0.0115  0.9778
39134SOL     OW20932   4.308  10.795   3.754  0.3295  0.0535 -0.3062
39134SOL    HW120933   4.380  10.818   3.812 -0.8883 -0.3220  1.4171
39134SOL    HW220934   4.302  10.700   3.760 -0.0485  0.0443 -0.7672
39135SOL     OW20935   6.462   7.678   8.672 -0.1150 -0.5540  0.5564
39135SOL    HW120936   6.397   7.612   8.645 -0.3061  0.0711 -0.6028
39135SOL    HW220937   6.442   7.754   8.618  0.7657  0.1009  1.1301
39136SOL     OW20938   4.923  10.651   4.698 -0.1879  0.1929  0.3599
39136SOL    HW120939   4.922  10.594   4.622 -0.2732  1.6772 -0.7946
39136SOL    HW220940   4.852  10.714   4.683  0.7978  1.4898  0.8674
39137SOL     OW20941   0.564   3.790   4.633 -0.7653  0.8783  0.3612
39137SOL    HW120942   0.628   3.737   4.587 -1.1252 -0.2422  1.0998
39137SOL    HW220943   0.616   3.851   4.685 -0.0908 -1.4668  2.7157
39138SOL     OW20944   4.122   9.938   0.246 -0.2795  0.2202 -0.2189
39138SOL    HW120945   4.033   9.958   0.276 -0.4547  0.5859 -0.9607
39138SOL    HW220946   4.140  10.003   0.179  0.7024  0.3869  0.1879
39139SOL     OW20947   8.286   7.150   9.025  0.5236 -0.4115 -0.3191
39139SOL    HW120948   8.280   7.193   9.110 -1.3046 -1.7526  0.2923
39139SOL    HW220949   8.374   7.112   9.023  0.7681  0.0758  0.7168
39140SOL     OW20950   3.175  10.619   3.552  0.1338  0.3827  0.3658
39140SOL    HW120951   3.216  10.536   3.578  1.8966  1.7185  2.0984
39140SOL    HW220952   3.177  10.617   3.456  0.0582 -1.5887  0.3464
39141SOL     OW20953   5.911   8.287   0.812 -0.6881  0.0590  0.5360
39141SOL    HW120954   5.871   8.317   0.731  0.6177 -0.8492 -0.4980
39141SOL    HW220955   5.978   8.353   0.832  0.0429 -0.4932 -0.0098
39142SOL     OW20956   6.589   0.151   6.175  0.1819 -0.4743  0.3716
39142SOL    HW120957   6.651   0.206   6.222  0.3914 -1.5869  1.4467
39142SOL    HW220958   6.578   0.194   6.091  1.0837  0.6720  0.8109
39143SOL     OW20959   2.865   5.246   9.803  0.4330  0.1327 -0.0312
39143SOL    HW120960   2.834   5.279   9.887 -0.0917  0.1638 -0.2314
39143SOL    HW220961   2.785   5.236   9.750  0.6119 -1.0954 -0.1021
39144SOL     OW20962   3.528   5.467   6.373 -0.0555  0.0094  0.3987
39144SOL    HW120963   3.515   5.417   6.293 -0.4503  0.2761  0.2914
39144SOL    HW220964   3.453   5.527   6.376  1.7386  2.5026 -0.8987
39145SOL     OW20965   6.930   4.904   6.035  0.2430  0.0793  0.1077
39145SOL    HW120966   6.949   4.992   6.066  1.5844  0.6377 -2.0753
39145SOL    HW220967   7.007   4.852   6.060  0.1298 -0.0975  0.0914
39146SOL     OW20968   2.834   1.559   1.959 -0.5102  0.0288  0.1329
39146SOL    HW120969   2.857   1.493   1.893 -1.9186 -0.3330 -0.0313
39146SOL    HW220970   2.820   1.509   2.039  1.0036  0.4479  0.6864
39147SOL     OW20971   5.051   0.348   9.406  0.1983  0.4102 -0.0143
39147SOL    HW120972   5.057   0.266   9.358 -0.8590 -0.4558  1.2412
39147SOL    HW220973   5.068   0.323   9.497 -0.4976  1.5105  0.4372
39148SOL     OW20974   6.042   4.778   4.841  0.1843  0.0235 -0.2776
39148SOL    HW120975   6.101   4.848   4.813  1.0507 -1.0550 -1.2053
39148SOL    HW220976   6.100   4.710   4.875 -0.6507 -0.2601  0.6234
39149SOL     OW20977   1.846   4.025  10.766  0.2604 -0.4433 -0.5085
39149SOL    HW120978   1.837   3.997  10.675  1.8422  0.4470 -0.9657
39149SOL    HW220979   1.911   3.966  10.803 -1.1348 -1.4907  0.3947
39150SOL     OW20980   0.179   1.657   0.161 -0.1872  0.5874 -0.3722
39150SOL    HW120981   0.112   1.676   0.227 -1.7106  0.3713 -1.7665
39150SOL    HW220982   0.182   1.561   0.158 -0.6652  0.5872 -1.1026
39151SOL     OW20983   3.892   7.094   5.240  0.7955 -0.4297 -0.0401
39151SOL    HW120984   3.851   7.121   5.322  0.1607  0.4508 -0.6329
39151SOL    HW220985   3.973   7.050   5.267  0.8337  0.2718  1.0470
39152SOL     OW20986   7.696   8.130   2.682  0.5466 -0.0304  0.4416
39152SOL    HW120987   7.749   8.070   2.630  0.1481 -0.7089  0.8161
39152SOL    HW220988   7.677   8.202   2.622  2.2815  0.4753  0.4297
39153SOL     OW20989  10.436   3.759  10.951  0.2223  0.2822 -0.4194
39153SOL    HW120990  10.498   3.707  10.900 -0.3230 -0.8274  0.0057
39153SOL    HW220991  10.366   3.781  10.890  0.4601  0.5335 -0.6027
39154SOL     OW20992   7.873   6.144   7.273 -0.1643  0.0205  0.1948
39154SOL    HW120993   7.948   6.153   7.332 -0.3188  1.0819  0.2572
39154SOL    HW220994   7.813   6.213   7.301 -0.0396  0.8572 -1.4705
39155SOL     OW20995   2.087   0.532   0.361 -0.4789  0.2863 -0.3678
39155SOL    HW120996   2.069   0.493   0.447 -2.6928  1.6121 -0.1701
39155SOL    HW220997   2.183   0.529   0.354 -0.2798 -0.6695  1.7356
39156SOL     OW20998   1.576   1.080  10.030  0.0288 -0.1681  0.4132
39156SOL    HW120999   1.580   1.172  10.057  0.5686 -0.3245  0.8819
39156SOL    HW221000   1.657   1.042  10.062 -0.0876 -0.7618  0.0214
39157SOL     OW21001   8.997   9.164   9.993 -0.1035 -0.0117  0.1689
39157SOL    HW121002   9.062   9.133   9.931  0.2695 -0.5042  0.7867
39157SOL    HW221003   8.955   9.238   9.950  0.0822 -0.4013 -0.6961
39158SOL     OW21004   9.833   3.705   1.041  0.2516  0.0597  0.8392
39158SOL    HW121005   9.892   3.670   1.108  1.5615 -0.2853 -0.4462
39158SOL    HW221006   9.807   3.791   1.074 -0.1545 -0.6171  2.3631
39159SOL     OW21007  10.436   3.203   9.717 -0.0961 -0.3744 -0.2740
39159SOL    HW121008  10.449   3.271   9.652  1.0675 -1.6806 -1.4619
39159SOL    HW221009  10.465   3.122   9.675 -2.3750 -1.8278  0.6984
39160SOL     OW21010   6.373   4.967   3.268 -0.0159  0.5409 -0.0987
39160SOL    HW121011   6.396   4.955   3.360 -1.0329 -0.5778  0.0297
39160SOL    HW221012   6.457   4.967   3.222  0.4150 -0.9089  0.6167
39161SOL     OW21013   2.010   9.150   2.052  0.2282  0.8323  0.4928
39161SOL    HW121014   2.072   9.223   2.043  0.3784  0.7509  0.8587
39161SOL    HW221015   2.064   9.076   2.078  0.1363  0.4774 -0.2931
39162SOL     OW21016   3.535   1.286   4.172  0.3227 -0.2734  0.3316
39162SOL    HW121017   3.596   1.298   4.244 -0.1938 -0.6603  0.8401
39162SOL    HW221018   3.491   1.203   4.191 -0.4220  0.0399  0.0093
39163SOL     OW21019   3.409  10.837  10.745 -0.4670 -0.5652 -0.4199
39163SOL    HW121020   3.330  10.797  10.781 -0.6415 -0.6108 -0.8413
39163SOL    HW221021   3.461  10.762  10.715  0.5869 -0.6625  1.5115
39164SOL     OW21022   2.236   8.346   9.635  0.5710 -0.4435  0.2372
39164SOL    HW121023   2.319   8.344   9.587 -0.7487 -1.8447 -2.2040
39164SOL    HW221024   2.206   8.255   9.637 -1.5947  0.1721 -0.3503
39165SOL     OW21025   0.420   4.570   1.675 -0.5725 -0.9669  0.1469
39165SOL    HW121026   0.325   4.585   1.672 -0.0932  3.3938  0.1600
39165SOL    HW221027   0.448   4.575   1.584 -0.2025 -1.1918  0.2465
39166SOL     OW21028   7.079   4.798   7.699 -0.0515  0.6349  0.0460
39166SOL    HW121029   7.029   4.716   7.703 -1.1937  1.1894 -1.8055
39166SOL    HW221030   7.164   4.776   7.735 -0.4780 -1.2555 -0.0020
39167SOL     OW21031   8.974   8.484   0.084 -0.1235  0.0611  0.1244
39167SOL    HW121032   8.999   8.576   0.072 -1.8532  0.9887  2.8609
39167SOL    HW221033   9.050   8.443   0.125 -0.1162  0.8392  0.9092
39168SOL     OW21034   7.610   5.974   2.701  0.0126 -0.0708 -0.2730
39168SOL    HW121035   7.685   5.985   2.759 -0.1210 -2.3788  0.4248
39168SOL    HW221036   7.648   5.966   2.613  0.5857 -0.8450  0.0336
39169SOL     OW21037   7.642   7.385  10.140 -0.4725  0.8145 -0.0239
39169SOL    HW121038   7.725   7.365  10.182 -0.7964  1.0287  0.7211
39169SOL    HW221039   7.619   7.305  10.093  0.0384  0.6810 -0.0532
39170SOL     OW21040   9.066   2.267   6.260  0.7127  0.1970  0.3628
39170SOL    HW121041   9.090   2.213   6.335  1.8678  2.3037  1.5938
39170SOL    HW221042   9.093   2.216   6.184  3.4758 -0.2184  1.5055
39171SOL     OW21043   5.409   4.846   1.310  0.0735 -0.3093 -0.2510
39171SOL    HW121044   5.387   4.808   1.395 -1.4448 -2.1316 -1.3830
39171SOL    HW221045   5.329   4.839   1.258  0.7096  1.5359 -1.6017
39172SOL     OW21046   8.734   1.901   0.216 -0.0425 -0.0562 -0.0392
39172SOL    HW121047   8.675   1.977   0.217 -0.3216 -0.2641 -0.4093
39172SOL    HW221048   8.794   1.916   0.289  0.9816  1.3747 -1.1112
39173SOL     OW21049   6.397   4.051   6.752 -0.2411 -0.6483 -0.2414
39173SOL    HW121050   6.448   4.118   6.707 -0.4730  0.4628  1.0757
39173SOL    HW221051   6.335   4.020   6.686 -0.4267  0.7589 -0.7667
39174SOL     OW21052  10.772   4.195   3.351 -0.5644 -0.0728 -0.1841
39174SOL    HW121053  10.796   4.112   3.311 -0.4156 -0.4089  0.5742
39174SOL    HW221054  10.706   4.232   3.292 -1.9795 -1.5748  0.3703
39175SOL     OW21055   5.848   0.463   9.960 -0.4549 -0.3855 -0.3660
39175SOL    HW121056   5.850   0.555   9.985 -0.6753 -0.3509 -0.4777
39175SOL    HW221057   5.848   0.416  10.043  0.6351 -0.3059 -0.3086
39176SOL     OW21058   6.674   4.407   6.421  0.5902  1.2176 -0.7966
39176SOL    HW121059   6.640   4.417   6.332  1.0007 -1.9830 -1.4290
39176SOL    HW221060   6.766   4.381   6.408  0.5633  0.3723  0.5084
39177SOL     OW21061   6.945   8.214   4.990  0.1582  0.1159  0.3995
39177SOL    HW121062   6.997   8.146   4.947 -2.5818 -0.9638 -1.5253
39177SOL    HW221063   6.977   8.296   4.952  0.0020 -0.5771 -1.3188
39178SOL     OW21064   8.592   1.784   3.446  0.1171  0.5516 -0.1471
39178SOL    HW121065   8.571   1.848   3.514  0.2818  1.0590 -0.5696
39178SOL    HW221066   8.513   1.730   3.439 -0.1259  0.8812  0.0184
39179SOL     OW21067  10.352   2.232   3.556 -0.4584  0.3944  0.3551
39179SOL    HW121068  10.371   2.241   3.649  2.1003 -1.9916  0.2017
39179SOL    HW221069  10.422   2.280   3.512 -0.3292 -0.3544 -0.2982
39180SOL     OW21070  10.753   1.410   1.867  0.2505  0.1623  0.4689
39180SOL    HW121071  10.737   1.398   1.960 -0.4944  0.4841  0.3881
39180SOL    HW221072  10.719   1.330   1.826 -1.2469  0.8586  0.2944
39181SOL     OW21073  11.024   6.305   3.219  0.0459 -0.0839  0.4722
39181SOL    HW121074  11.050   6.214   3.205  0.5433  0.3873 -2.0911
39181SOL    HW221075  10.930   6.307   3.199  0.1805  0.0871 -0.1530
39182SOL     OW21076   8.401   0.150   6.516  0.3082  0.2700  0.1885
39182SOL    HW121077   8.339   0.218   6.489 -1.4380 -0.3936  2.2298
39182SOL    HW221078   8.401   0.154   6.612 -1.2847 -3.6398  0.5649
39183SOL     OW21079   4.320   2.045   5.117 -0.2711 -0.0892  0.5737
39183SOL    HW121080   4.258   2.018   5.049  0.6281 -0.8262  0.0182
39183SOL    HW221081   4.268   2.098   5.177 -1.1105  0.5005 -0.6315
39184SOL     OW21082   2.067   7.681   0.489  0.3012 -0.4220 -0.2666
39184SOL    HW121083   1.990   7.730   0.516  1.3124  0.8532  0.4446
39184SOL    HW221084   2.050   7.591   0.516 -0.8344 -0.1135  0.0736
39185SOL     OW21085   6.886   5.367   8.655  0.5356  0.8751 -0.0784
39185SOL    HW121086   6.898   5.461   8.643 -0.3176  0.8991 -0.7980
39185SOL    HW221087   6.883   5.332   8.566 -1.3937  0.4596  0.1264
39186SOL     OW21088   8.296   1.498   2.949  0.4433  0.2854  0.3112
39186SOL    HW121089   8.267   1.406   2.952 -0.5076  0.5340 -0.7061
39186SOL    HW221090   8.235   1.543   3.008 -0.6893  0.6504 -1.0909
39187SOL     OW21091   9.244   2.686   1.308 -0.3054 -0.1413 -0.5580
39187SOL    HW121092   9.159   2.644   1.322 -0.2813  0.2644  0.9785
39187SOL    HW221093   9.294   2.666   1.387  1.4509 -1.2765 -1.8637
39188SOL     OW21094  10.276   6.021  10.148 -0.2659  0.6063 -0.1872
39188SOL    HW121095  10.368   6.040  10.166  0.0849 -1.4982  0.5849
39188SOL    HW221096  10.277   5.979  10.062 -0.5343  0.8674 -0.3156
39189SOL     OW21097  10.824   2.791   7.271  0.0878 -0.2418  0.3600
39189SOL    HW121098  10.749   2.762   7.323  0.3046  0.2900  0.9850
39189SOL    HW221099  10.889   2.722   7.282  0.0008 -0.3020  0.4965
39190SOL     OW21100   7.338   2.706   7.550  0.5957  0.5839 -0.1562
39190SOL    HW121101   7.274   2.652   7.596  2.6513 -4.0757 -2.1407
39190SOL    HW221102   7.423   2.674   7.581  1.9766  1.4322 -2.7728
39191SOL     OW21103   6.633  10.624   2.033 -0.7611  0.2262  0.7121
39191SOL    HW121104   6.638  10.531   2.052  0.5686 -0.1583 -1.2069
39191SOL    HW221105   6.575  10.660   2.100 -1.0808 -1.9221  1.6452
39192SOL     OW21106   3.511   4.517   6.667  0.3939 -0.1320  0.5326
39192SOL    HW121107   3.571   4.554   6.732  0.5589 -0.0239  0.3224
39192SOL    HW221108   3.473   4.593   6.623  0.6445 -0.2040  0.1785
39193SOL     OW21109   4.229   6.264   3.002  0.0774 -0.0572  0.3276
39193SOL    HW121110   4.230   6.359   2.987  2.1803 -0.1205 -0.4067
39193SOL    HW221111   4.189   6.228   2.923  0.1194  0.1954  0.1885
39194SOL     OW21112   1.926   5.277   4.077  0.9892  0.4766 -0.0409
39194SOL    HW121113   1.914   5.281   3.983 -1.9151 -1.9294  0.0414
39194SOL    HW221114   1.861   5.339   4.112 -0.1629 -0.8887  0.3367
39195SOL     OW21115   3.915   0.629   9.213 -0.0856  0.2609 -0.1898
39195SOL    HW121116   3.982   0.651   9.278  0.8535 -2.1234 -0.2450
39195SOL    HW221117   3.962   0.581   9.145 -1.7784 -1.3962 -0.3015
39196SOL     OW21118   0.650   0.446   2.921 -0.1653 -0.0583 -0.7294
39196SOL    HW121119   0.554   0.452   2.922 -0.2008 -0.6539 -0.5903
39196SOL    HW221120   0.679   0.530   2.956 -0.6465 -0.1930  0.0128
39197SOL     OW21121   9.820   9.197  11.114 -0.6474 -0.3708  0.5251
39197SOL    HW121122   9.916   9.200  11.116 -0.6684  0.9795  0.5486
39197SOL    HW221123   9.797   9.123  11.170  0.3437  0.1514  1.6499
39198SOL     OW21124  10.521   9.311   7.680 -0.2395  0.7117  0.2213
39198SOL    HW121125  10.569   9.304   7.763 -0.9363 -2.5291  0.4656
39198SOL    HW221126  10.566   9.251   7.621 -0.0934  2.5643 -1.6716
39199SOL     OW21127   8.143   6.894   2.371  0.3427 -0.2953 -0.7852
39199SOL    HW121128   8.078   6.884   2.302 -0.1885 -0.0367 -0.3364
39199SOL    HW221129   8.112   6.837   2.441  0.5438 -0.0938 -0.5292
39200SOL     OW21130   6.009   4.884   5.602  0.4115 -0.3224  0.0561
39200SOL    HW121131   6.011   4.814   5.667 -1.9260 -0.3183  0.1963
39200SOL    HW221132   5.996   4.840   5.519 -3.0651 -0.0966  0.3380
39201SOL     OW21133   9.415   2.120  10.038 -0.3055  0.1066 -0.6857
39201SOL    HW121134   9.472   2.191  10.067  0.6215 -0.9428  0.1715
39201SOL    HW221135   9.458   2.084   9.961  0.0470 -0.4739 -0.2321
39202SOL     OW21136   3.211   3.777   5.783  0.1595  0.6848  0.0768
39202SOL    HW121137   3.161   3.810   5.858  0.7866 -2.7755  2.2441
39202SOL    HW221138   3.156   3.708   5.746  1.9054 -0.9641  0.4567
39203SOL     OW21139   2.418   1.461   9.630  0.0309  0.4784  0.3852
39203SOL    HW121140   2.385   1.398   9.566 -0.7416 -0.9721  2.1202
39203SOL    HW221141   2.347   1.523   9.642 -0.4901 -0.2113  1.0091
39204SOL     OW21142   6.205   5.157   2.192 -0.1387 -0.4365 -0.2177
39204SOL    HW121143   6.159   5.164   2.275 -1.5782  0.0858 -1.0310
39204SOL    HW221144   6.138   5.174   2.126  0.8747 -1.2717 -1.5072
39205SOL     OW21145   2.560  11.098   0.168 -0.5803 -0.3120 -0.0053
39205SOL    HW121146   2.563  11.190   0.140  1.0201 -0.6410 -1.0340
39205SOL    HW221147   2.575  11.101   0.262 -1.2269  0.5239  0.0839
39206SOL     OW21148   0.273   0.627   0.013  0.6018 -0.1781  0.0676
39206SOL    HW121149   0.352   0.629   0.068 -0.2919 -1.7467  1.4994
39206SOL    HW221150   0.304   0.645  -0.075  2.5757 -0.8248  0.5873
39207SOL     OW21151   4.057   1.529   0.887 -0.1857 -0.2850  0.1603
39207SOL    HW121152   4.131   1.586   0.907  1.1808 -1.8144 -0.3194
39207SOL    HW221153   4.092   1.466   0.824 -2.3019 -0.1788 -1.2022
39208SOL     OW21154   5.790   8.249   8.421  0.4142 -0.2442 -0.1307
39208SOL    HW121155   5.834   8.328   8.451  0.5556 -0.4738  0.2623
39208SOL    HW221156   5.707   8.280   8.384  0.5837  0.1116 -0.2144
39209SOL     OW21157   8.776   5.482   0.798  0.2506  0.1674  0.0408
39209SOL    HW121158   8.858   5.434   0.783  0.1668 -0.4655  1.4119
39209SOL    HW221159   8.729   5.429   0.862 -0.7587  1.0741  0.0779
39210SOL     OW21160   9.403  10.498   9.546 -0.2155 -0.0262 -0.5558
39210SOL    HW121161   9.408  10.541   9.460  0.5273  1.9682  0.4196
39210SOL    HW221162   9.455  10.554   9.603  1.5554 -2.7206  0.6734
39211SOL     OW21163   3.294   1.618   2.899  0.1881 -0.5653 -0.2827
39211SOL    HW121164   3.206   1.598   2.865  0.1883  1.6925 -1.8942
39211SOL    HW221165   3.353   1.580   2.835  0.3589 -1.0308  0.1502
39212SOL     OW21166   3.986   6.440   7.272 -0.2764  0.4386  1.2931
39212SOL    HW121167   4.018   6.448   7.182  1.0399 -2.0981  1.4471
39212SOL    HW221168   4.041   6.501   7.322  0.0730  0.6997  0.6123
39213SOL     OW21169  10.851   0.457   0.526 -0.3030 -0.2981 -0.2561
39213SOL    HW121170  10.832   0.528   0.587 -1.1979 -0.5665 -0.2085
39213SOL    HW221171  10.790   0.470   0.454  1.1289  0.3552 -1.4115
39214SOL     OW21172   3.382   7.344   2.397  1.0779 -0.1902 -0.1346
39214SOL    HW121173   3.439   7.370   2.325  0.0036  0.1688 -0.8895
39214SOL    HW221174   3.406   7.254   2.415  0.1541 -0.9106 -2.1989
39215SOL     OW21175   2.700   7.906  10.149 -0.1149 -0.2636  0.7838
39215SOL    HW121176   2.748   7.882  10.070  2.1781 -0.1582  2.0632
39215SOL    HW221177   2.608   7.893  10.126  0.5369 -1.3510 -1.5000
39216SOL     OW21178   8.076   2.985  10.227 -0.2563 -0.4743  0.3378
39216SOL    HW121179   8.087   2.971  10.133 -0.1162 -2.2307  0.5799
39216SOL    HW221180   8.140   3.052  10.249  0.6643 -1.0210 -0.5860
39217SOL     OW21181   2.660   5.289   6.006 -0.4761 -0.3467  0.2667
39217SOL    HW121182   2.657   5.341   5.926  0.6422 -1.0063 -0.2107
39217SOL    HW221183   2.586   5.228   5.998 -0.8067  0.0688  0.0938
39218SOL     OW21184   0.540   4.772   9.737  0.3821 -0.0700  0.4684
39218SOL    HW121185   0.531   4.731   9.651  0.3027 -0.3202  0.5956
39218SOL    HW221186   0.461   4.825   9.747 -0.0475 -0.7530  0.7689
39219SOL     OW21187  10.770  11.126   2.287 -0.3257 -0.3188 -0.2207
39219SOL    HW121188  10.703  11.172   2.338  1.4148  2.6417 -0.4164
39219SOL    HW221189  10.720  11.080   2.220 -2.2611  2.8332 -1.1910
39220SOL     OW21190  10.493   6.248   9.939  0.2092  0.0552 -0.2062
39220SOL    HW121191  10.541   6.211   9.865 -0.9156 -0.4733 -0.6957
39220SOL    HW221192  10.402   6.219   9.926  0.0651 -0.4787  1.6458
39221SOL     OW21193   8.937   2.998   3.414 -0.3821 -0.7645  0.4214
39221SOL    HW121194   8.959   2.995   3.321  0.1429  2.0423  0.3576
39221SOL    HW221195   9.021   3.007   3.459 -0.7085 -0.9510  1.0928
39222SOL     OW21196   9.961   6.699   6.029 -0.4354  0.0329  0.0429
39222SOL    HW121197   9.970   6.622   5.972 -2.0649  0.1659 -0.4330
39222SOL    HW221198  10.020   6.763   5.990  0.1680 -0.6256 -0.1634
39223SOL     OW21199   4.791   5.456   5.883 -0.2061 -0.2812 -0.1744
39223SOL    HW121200   4.699   5.476   5.899 -0.1057  0.3529 -0.3279
39223SOL    HW221201   4.837   5.496   5.957  0.0098  0.1495 -0.5318
39224SOL     OW21202   6.848   0.532   9.168 -0.1312 -0.6929 -0.0134
39224SOL    HW121203   6.844   0.628   9.176 -0.4283 -0.7610  0.7336
39224SOL    HW221204   6.762   0.508   9.133  1.0439 -0.4264 -3.4971
39225SOL     OW21205  10.517  10.610   2.426  0.0506 -0.0420 -0.3458
39225SOL    HW121206  10.482  10.530   2.386  0.2963 -1.0665  1.4108
39225SOL    HW221207  10.601  10.583   2.464  0.1958  1.0826  0.1621
39226SOL     OW21208  10.907   8.286   1.998 -0.2962  0.0398  0.2167
39226SOL    HW121209  10.967   8.226   1.955 -1.1733 -0.5673 -0.1950
39226SOL    HW221210  10.940   8.373   1.976 -1.1089 -0.2215 -2.3145
39227SOL     OW21211   3.159   8.375   6.225  0.1978  0.0617  0.3785
39227SOL    HW121212   3.065   8.379   6.242 -0.3750  0.3987 -2.4156
39227SOL    HW221213   3.180   8.282   6.223 -0.1605 -0.0238  0.5881
39228SOL     OW21214   9.003   6.996   3.467  0.5073 -0.0065 -0.2388
39228SOL    HW121215   8.909   6.980   3.471  0.3973  0.1269 -1.6340
39228SOL    HW221216   9.043   6.921   3.512 -0.2763  0.4835  1.3337
39229SOL     OW21217   1.390   6.779   3.073  0.3223 -0.3374 -0.3066
39229SOL    HW121218   1.313   6.835   3.077  1.0982  0.7879 -0.7102
39229SOL    HW221219   1.356   6.691   3.090 -0.9052  0.2491  0.4465
39230SOL     OW21220   6.026   5.987   6.385 -0.2495 -0.5677 -0.2629
39230SOL    HW121221   5.960   6.056   6.386 -1.5063 -1.7145  1.4555
39230SOL    HW221222   6.084   6.008   6.458  0.5629 -0.2640 -0.9808
39231SOL     OW21223   3.770   6.196   1.207  0.2106  0.2596 -0.6385
39231SOL    HW121224   3.808   6.253   1.273 -2.0008  0.6780  0.3395
39231SOL    HW221225   3.771   6.109   1.247  0.7722  0.1249 -0.9226
39232SOL     OW21226   9.831   1.822   0.716 -0.2600 -0.5725  0.0061
39232SOL    HW121227   9.868   1.854   0.799  1.9629 -3.2025  0.1790
39232SOL    HW221228   9.739   1.804   0.736 -0.0214 -0.1810  1.6026
39233SOL     OW21229   1.875   5.625   1.362 -0.0438  0.0088  0.2767
39233SOL    HW121230   1.856   5.590   1.275 -0.1434 -0.2552  0.4032
39233SOL    HW221231   1.970   5.617   1.371  0.0001  0.2937  0.0847
39234SOL     OW21232   2.578   5.696   9.656 -0.2304  0.7533  0.2123
39234SOL    HW121233   2.610   5.707   9.745 -0.6387 -0.5871  0.5461
39234SOL    HW221234   2.534   5.611   9.656 -0.5255  0.8729 -1.1847
39235SOL     OW21235  10.770   0.629   3.197  0.0731 -0.1139 -0.7370
39235SOL    HW121236  10.856   0.615   3.237 -0.9027 -0.2896  1.4251
39235SOL    HW221237  10.770   0.573   3.120  2.2550  0.6680 -1.3875
39236SOL     OW21238   4.048  10.209   1.216 -0.2602  0.2299 -0.3566
39236SOL    HW121239   3.953  10.198   1.212 -0.6509  2.6108  0.5221
39236SOL    HW221240   4.062  10.263   1.294  1.7417  0.6918 -0.9805
39237SOL     OW21241   9.409   1.822   4.011 -0.0811 -0.1567 -0.5209
39237SOL    HW121242   9.318   1.851   4.007 -0.4105 -1.1681 -0.4984
39237SOL    HW221243   9.448   1.855   3.930 -0.7147 -0.5404 -0.9839
39238SOL     OW21244   0.438   8.161   9.318  0.4905  0.2039 -0.5110
39238SOL    HW121245   0.523   8.198   9.296  2.2576 -0.7255  3.8710
39238SOL    HW221246   0.439   8.073   9.279  2.3060 -0.3899  0.7507
39239SOL     OW21247   1.349   4.968   2.788 -0.4407  0.0655  0.3533
39239SOL    HW121248   1.279   4.909   2.760 -0.9811  0.9587 -0.2362
39239SOL    HW221249   1.425   4.911   2.802  0.0222 -0.4532 -3.3156
39240SOL     OW21250   0.685   9.163   5.136  0.2880 -0.0405  0.6192
39240SOL    HW121251   0.641   9.191   5.216  0.8401 -1.3891  1.4216
39240SOL    HW221252   0.766   9.122   5.165  0.0699 -1.3950 -0.5613
39241SOL     OW21253   1.188   5.589   7.120  0.2241  0.4863 -0.2559
39241SOL    HW121254   1.165   5.512   7.067  1.1336 -0.9569  1.3311
39241SOL    HW221255   1.210   5.657   7.057  1.3685 -1.1898 -1.7540
39242SOL     OW21256  10.982   1.392   0.540  0.2244  0.0748  0.8271
39242SOL    HW121257  10.893   1.421   0.526 -1.0483 -2.1526  3.2827
39242SOL    HW221258  10.985   1.304   0.502  1.4415  0.1930  0.6108
39243SOL     OW21259   9.239   5.638   8.326 -0.2028  0.3621  0.4067
39243SOL    HW121260   9.152   5.614   8.297 -0.1548  2.8356 -2.3023
39243SOL    HW221261   9.298   5.587   8.270 -0.0627  2.0166 -1.0546
39244SOL     OW21262   1.232   1.054  10.470  0.1268  0.0947  0.2810
39244SOL    HW121263   1.250   0.971  10.425 -1.2105  0.5437 -1.1341
39244SOL    HW221264   1.314   1.074  10.515  0.8433 -1.4200 -0.2655
39245SOL     OW21265   0.641   0.712  10.173 -0.0908 -0.5008 -0.5225
39245SOL    HW121266   0.670   0.709  10.264  1.2618 -1.6791 -0.9569
39245SOL    HW221267   0.655   0.803  10.147 -0.6432 -0.1076  0.4673
39246SOL     OW21268   6.329   1.267  10.213 -0.2160  0.1276 -0.2699
39246SOL    HW121269   6.264   1.200  10.193 -0.3567  0.5881 -1.4667
39246SOL    HW221270   6.373   1.282  10.130 -0.7890  2.1480 -0.2534
39247SOL     OW21271   1.321   1.104   0.704 -0.5268 -0.2148 -0.5252
39247SOL    HW121272   1.377   1.027   0.693  0.0942 -0.5052  3.2895
39247SOL    HW221273   1.233   1.072   0.684  0.0226 -1.1949 -1.4889
39248SOL     OW21274   4.904   6.463   1.717 -0.3508  0.0945  0.3123
39248SOL    HW121275   4.846   6.476   1.642 -0.6783 -0.4168  0.4769
39248SOL    HW221276   4.853   6.492   1.792 -0.3087 -0.1355  0.4292
39249SOL     OW21277   8.472   4.885   9.270  0.2110  0.3313 -0.4889
39249SOL    HW121278   8.521   4.837   9.202  0.8299 -0.1601  0.2892
39249SOL    HW221279   8.389   4.906   9.228 -0.6226 -2.5631 -0.5033
39250SOL     OW21280   3.920   8.544   2.960  0.2685 -0.0467 -0.1612
39250SOL    HW121281   4.005   8.556   2.917 -0.6208 -0.1195 -2.0356
39250SOL    HW221282   3.902   8.450   2.954 -0.0352 -0.0049  0.0417
39251SOL     OW21283   5.157   6.964  10.255 -0.5873  0.1962  0.7167
39251SOL    HW121284   5.144   6.962  10.160 -0.1003 -0.0250  0.6547
39251SOL    HW221285   5.212   7.041  10.270 -1.6852  0.9549  0.9504
39252SOL     OW21286   1.692   2.045   4.635 -0.3402  0.2719  0.5367
39252SOL    HW121287   1.643   2.080   4.709  1.1106  2.9861  0.3294
39252SOL    HW221288   1.768   2.002   4.673 -0.9504 -0.6763  0.7038
39253SOL     OW21289   4.166   2.695   5.290  0.3482  0.1324  0.0485
39253SOL    HW121290   4.106   2.763   5.258  1.5595  0.8550 -0.7438
39253SOL    HW221291   4.170   2.710   5.384  0.7541  1.2983 -0.1425
39254SOL     OW21292   8.937   5.373   1.587  0.1850 -0.1795 -0.1603
39254SOL    HW121293   8.992   5.333   1.521  0.6096  2.1193 -1.2760
39254SOL    HW221294   8.987   5.448   1.619  0.6076 -1.9121  3.8258
39255SOL     OW21295   7.527   2.790   8.091 -0.4702 -0.1842 -0.5179
39255SOL    HW121296   7.540   2.874   8.047 -1.4602 -1.1599 -2.8532
39255SOL    HW221297   7.616   2.758   8.108 -0.0571  1.7134  1.3574
39256SOL     OW21298   6.510   6.340   5.475 -0.5805 -0.0785  0.1069
39256SOL    HW121299   6.586   6.290   5.502  0.7137  2.3854  1.3507
39256SOL    HW221300   6.540   6.391   5.399 -1.6763 -0.6597 -0.7635
39257SOL     OW21301  10.461   5.666   6.284 -0.3059 -0.1997 -0.1628
39257SOL    HW121302  10.402   5.716   6.228 -0.2876 -1.4308 -1.3300
39257SOL    HW221303  10.438   5.575   6.267  0.0611 -0.6287  1.4687
39258SOL     OW21304   0.654   3.479   7.251  0.4401 -0.0952 -0.2897
39258SOL    HW121305   0.652   3.569   7.284  0.0022 -0.3515  0.3964
39258SOL    HW221306   0.699   3.486   7.167 -0.3560  0.9001 -0.6611
39259SOL     OW21307   6.178   2.847   2.413  0.1039  0.5180 -0.2141
39259SOL    HW121308   6.196   2.885   2.327  0.9401 -0.4622 -0.4980
39259SOL    HW221309   6.255   2.792   2.431 -0.8544 -0.6718  0.3750
39260SOL     OW21310   4.963  10.703   8.874  0.2326  0.1771 -0.3316
39260SOL    HW121311   5.016  10.628   8.849  0.6879 -0.0074  1.1063
39260SOL    HW221312   4.889  10.665   8.922  0.5489  0.6361  0.5388
39261SOL     OW21313   0.584   6.412   5.468 -0.3490  0.4808  0.3877
39261SOL    HW121314   0.551   6.422   5.378 -1.0601  0.4442  0.6351
39261SOL    HW221315   0.523   6.464   5.521  1.2524  2.2358  0.6273
39262SOL     OW21316   6.164   9.375   7.926  0.2548  0.6409 -0.9880
39262SOL    HW121317   6.153   9.316   7.851  0.6864 -0.8319  0.0621
39262SOL    HW221318   6.256   9.365   7.951  0.0256  0.8152 -0.0269
39263SOL     OW21319   1.120   1.692   9.355 -0.3258 -0.2309 -0.2654
39263SOL    HW121320   1.027   1.673   9.369  0.4585 -2.2068  3.7953
39263SOL    HW221321   1.121   1.780   9.317 -3.8040 -0.5859 -1.5765
39264SOL     OW21322   9.622  10.797   4.005  0.5525 -0.4770 -0.0354
39264SOL    HW121323   9.707  10.837   4.023  0.6894 -0.3417 -0.9340
39264SOL    HW221324   9.562  10.840   4.066  0.9197  0.2445 -0.1743
39265SOL     OW21325  10.986   2.178   8.680  0.1671  0.1608 -0.0157
39265SOL    HW121326  10.948   2.118   8.616  1.5664 -1.1324  0.3060
39265SOL    HW221327  10.934   2.258   8.671 -0.5946 -0.4641 -1.7479
39266SOL     OW21328  10.600   6.129   3.687 -0.3583 -0.0896  0.3612
39266SOL    HW121329  10.610   6.075   3.764  1.9989 -0.7136 -0.3031
39266SOL    HW221330  10.663   6.200   3.699 -0.3372  0.0996 -0.7382
39267SOL     OW21331   7.681   9.254   6.775 -0.1116  0.1589 -0.2483
39267SOL    HW121332   7.692   9.276   6.868 -0.0144 -0.6816 -0.0470
39267SOL    HW221333   7.632   9.327   6.738  3.1183  2.4034 -0.4349
39268SOL     OW21334   4.999  10.091   2.763 -0.4427 -1.0425 -0.0099
39268SOL    HW121335   5.056  10.090   2.686 -0.4750 -0.8251 -0.0371
39268SOL    HW221336   5.057  10.072   2.837 -0.4856 -1.6746 -0.1354
39269SOL     OW21337   7.235   5.654  10.883  0.0666 -0.8707  0.1152
39269SOL    HW121338   7.279   5.692  10.806 -1.4505  0.1208 -0.3014
39269SOL    HW221339   7.221   5.727  10.942 -1.8794 -0.9168 -0.2027
39270SOL     OW21340   2.181   3.021   3.593 -0.2996 -0.3945 -0.4574
39270SOL    HW121341   2.213   2.949   3.537 -2.4187 -1.3733 -0.5222
39270SOL    HW221342   2.159   3.091   3.531  2.5168  0.7381 -0.3408
39271SOL     OW21343   1.258   0.065   4.865 -0.0769 -0.6863  0.4949
39271SOL    HW121344   1.195   0.126   4.827  0.2136 -0.8521 -0.2651
39271SOL    HW221345   1.277   0.003   4.795  1.6360 -0.0931  0.3901
39272SOL     OW21346   6.663   6.852   7.219  0.4677 -0.2766 -0.4010
39272SOL    HW121347   6.624   6.790   7.156  2.3476 -1.9856  0.0236
39272SOL    HW221348   6.740   6.886   7.174  1.4188 -0.9590  0.6759
39273SOL     OW21349   2.105   9.337   9.508  0.4851  0.0094 -0.0827
39273SOL    HW121350   2.070   9.424   9.528  1.2994  0.3495 -0.1053
39273SOL    HW221351   2.142   9.346   9.420  3.3374  0.5470  1.0639
39274SOL     OW21352   0.474  10.519   4.460 -0.3790  0.0663  0.3467
39274SOL    HW121353   0.463  10.613   4.442 -2.2026 -0.2833 -0.5319
39274SOL    HW221354   0.539  10.491   4.396 -0.6064  0.5285 -0.1004
39275SOL     OW21355   1.202  11.046   1.366 -0.3220  0.0704  0.1276
39275SOL    HW121356   1.180  11.066   1.457 -1.4416  0.4487 -0.2016
39275SOL    HW221357   1.127  10.996   1.334  0.6939 -1.2867 -0.1973
39276SOL     OW21358   4.786   2.086   7.926 -0.0261 -0.0060 -0.1805
39276SOL    HW121359   4.843   2.110   7.999  1.6985  0.4036 -1.5684
39276SOL    HW221360   4.780   2.165   7.873 -0.8620 -0.4196 -0.7291
39277SOL     OW21361   1.855   6.372   0.217 -0.2541  0.0247  0.4590
39277SOL    HW121362   1.772   6.403   0.180  0.3192  0.5338 -0.4258
39277SOL    HW221363   1.922   6.422   0.171  0.5754 -0.7039  0.8504
39278SOL     OW21364   9.031   0.810   2.622  0.0653 -0.1396 -0.5296
39278SOL    HW121365   9.038   0.798   2.528  0.0546 -1.5724 -0.3718
39278SOL    HW221366   9.016   0.904   2.634 -0.5014 -0.0286 -1.9777
39279SOL     OW21367   0.191  10.800   4.862 -0.5569 -0.1150 -0.2280
39279SOL    HW121368   0.098  10.795   4.840 -0.6371 -0.1411  0.1172
39279SOL    HW221369   0.203  10.731   4.928 -0.1673 -0.5216 -0.7179
39280SOL     OW21370   6.549  10.186   2.086 -0.1664  0.2564 -0.4506
39280SOL    HW121371   6.494  10.197   2.009 -0.4956  0.7921 -0.1506
39280SOL    HW221372   6.635  10.218   2.059 -0.2480  0.3227 -0.6325
39281SOL     OW21373   1.930   1.753   7.703  0.3216 -0.0751 -0.5358
39281SOL    HW121374   1.851   1.743   7.650 -0.7203  1.3646  0.6348
39281SOL    HW221375   1.943   1.848   7.708  2.1846 -0.2821 -0.7501
39282SOL     OW21376   7.917   0.366   9.942  0.5900  0.5679 -0.0520
39282SOL    HW121377   7.845   0.361   9.880  0.9199  0.9110 -0.4737
39282SOL    HW221378   7.945   0.457   9.938 -0.8313  1.1734  2.2898
39283SOL     OW21379   0.315  11.003   6.337  0.5376 -0.5752 -0.1007
39283SOL    HW121380   0.232  10.961   6.314  0.2899 -0.7716  1.0556
39283SOL    HW221381   0.341  10.959   6.418  1.4867 -0.1234 -0.1535
39284SOL     OW21382   6.340   1.012  10.638  0.1926 -0.0222  0.1408
39284SOL    HW121383   6.307   1.013  10.728  0.5808 -2.0271  0.3670
39284SOL    HW221384   6.275   1.062  10.588 -0.7724 -0.0446  1.3195
39285SOL     OW21385   7.850   6.373   3.562 -0.7858  0.3746  0.7139
39285SOL    HW121386   7.872   6.412   3.647  1.5911 -0.9690  0.8123
39285SOL    HW221387   7.796   6.438   3.518  2.1708  3.4194  1.2203
39286SOL     OW21388   9.741   1.120   7.214  0.4347 -0.1518  0.2015
39286SOL    HW121389   9.659   1.072   7.209 -0.0339  0.6111  0.4338
39286SOL    HW221390   9.719   1.201   7.262  0.6842  1.4015 -2.1454
39287SOL     OW21391   8.660   4.598   4.905  0.5614  0.2834 -0.0577
39287SOL    HW121392   8.599   4.668   4.885 -0.9494 -0.7327  0.7540
39287SOL    HW221393   8.740   4.642   4.934 -0.4612  1.6676  0.7551
39288SOL     OW21394  10.008   2.278   0.184 -0.1742  0.0802  0.5047
39288SOL    HW121395   9.916   2.257   0.202  0.2059 -2.2820  0.0263
39288SOL    HW221396  10.016   2.267   0.089  0.2867  1.7612  0.3275
39289SOL     OW21397   0.535   2.147   5.640 -0.5657  0.0217 -0.3274
39289SOL    HW121398   0.624   2.150   5.605 -0.3130  0.0664  0.2953
39289SOL    HW221399   0.542   2.092   5.719 -1.3227 -0.9465 -0.9110
39290SOL     OW21400   1.435  10.088   4.737 -0.0603 -0.2589  0.0543
39290SOL    HW121401   1.410  10.096   4.829 -0.0970 -0.1906  0.0385
39290SOL    HW221402   1.393  10.162   4.694 -0.9097 -0.8720 -0.2037
39291SOL     OW21403   1.780   6.294   2.413  0.1676 -0.0043  0.0618
39291SOL    HW121404   1.755   6.368   2.468 -0.1933  2.4006 -3.0395
39291SOL    HW221405   1.698   6.251   2.392  0.2497 -0.5972  0.9009
39292SOL     OW21406  10.790   2.133   7.296 -0.1511  0.3331  0.5605
39292SOL    HW121407  10.770   2.095   7.381 -0.9933 -0.0911  0.1840
39292SOL    HW221408  10.735   2.085   7.235 -0.2163  1.2388 -0.1086
39293SOL     OW21409  10.973  10.179   9.591 -0.2138 -0.2130  0.2977
39293SOL    HW121410  11.033  10.104   9.596 -0.4052 -0.4072 -0.2190
39293SOL    HW221411  10.886  10.141   9.602 -0.2165  0.1598  1.7879
39294SOL     OW21412   0.059   4.451   0.430 -0.2693 -0.2568 -0.2343
39294SOL    HW121413   0.011   4.380   0.388  0.7065 -0.5105 -0.9400
39294SOL    HW221414   0.004   4.476   0.505 -2.9094  1.3418 -2.5179
39295SOL     OW21415   0.238   4.849   4.512 -0.5271 -0.1229 -0.8782
39295SOL    HW121416   0.166   4.868   4.573  0.5747 -0.5354  0.6134
39295SOL    HW221417   0.241   4.753   4.507  0.6373 -0.1578  0.0177
39296SOL     OW21418  10.117   5.471   1.146  0.1520 -0.3960  0.1242
39296SOL    HW121419  10.179   5.544   1.142 -0.4348  0.1561  0.8368
39296SOL    HW221420  10.149   5.417   1.218 -0.0043 -0.2897  0.2734
39297SOL     OW21421   2.497   3.348   3.680  0.1946 -0.0722  0.0217
39297SOL    HW121422   2.533   3.429   3.717 -0.5262  0.2070  0.1409
39297SOL    HW221423   2.461   3.374   3.595 -0.7349 -0.0827  0.3932
39298SOL     OW21424   7.442   7.766   6.040 -0.1210  0.3378  0.4162
39298SOL    HW121425   7.487   7.826   5.981  2.6438 -1.3376  0.6800
39298SOL    HW221426   7.400   7.702   5.981 -0.0205  0.4583  0.2128
39299SOL     OW21427  10.269   4.859   5.964 -0.4113  0.1345 -0.2013
39299SOL    HW121428  10.176   4.846   5.982 -0.6119  3.1501  1.6213
39299SOL    HW221429  10.273   4.937   5.909  1.0566  1.2300  1.3385
39300SOL     OW21430   6.565   3.434   9.715  0.2331  0.1918  0.0011
39300SOL    HW121431   6.654   3.465   9.730  0.0552  0.1928  1.1743
39300SOL    HW221432   6.566   3.343   9.744 -0.3912  0.4959  1.0406
39301SOL     OW21433   5.275   7.428   4.035 -0.0992 -0.1559  0.4476
39301SOL    HW121434   5.253   7.345   4.075 -1.9079 -0.0135 -0.1790
39301SOL    HW221435   5.350   7.408   3.978  0.0563 -1.1486  0.9890
39302SOL     OW21436   4.636   9.802   8.886 -0.4301  0.2051  0.3441
39302SOL    HW121437   4.686   9.725   8.913 -0.7540 -0.1548 -0.0625
39302SOL    HW221438   4.545   9.780   8.907 -0.5350  0.4247  0.1246
39303SOL     OW21439   7.097  10.630   3.283 -0.1093 -0.1708  0.4701
39303SOL    HW121440   7.104  10.601   3.374 -1.1279 -2.0327  0.0119
39303SOL    HW221441   7.125  10.554   3.232 -0.7472  0.4166 -0.7813
39304SOL     OW21442   2.749   9.667   4.887  0.0938  0.2957  0.5902
39304SOL    HW121443   2.675   9.726   4.900  0.2664  0.2193  2.0648
39304SOL    HW221444   2.754   9.655   4.792 -1.1642  1.0738  0.4090
39305SOL     OW21445  10.883   3.501   6.769  0.6632 -0.2029 -0.2238
39305SOL    HW121446  10.864   3.457   6.685  1.7408 -0.7006 -0.2280
39305SOL    HW221447  10.844   3.588   6.760  1.3509 -0.0058 -1.5209
39306SOL     OW21448   6.550   1.963   0.143 -0.9604 -0.5785 -0.4477
39306SOL    HW121449   6.499   1.882   0.136  0.3522 -1.4017 -0.9235
39306SOL    HW221450   6.625   1.940   0.198 -0.9983  0.5607  0.1106
39307SOL     OW21451   2.519   6.370   2.121 -0.1346 -0.3204  0.2656
39307SOL    HW121452   2.484   6.445   2.169 -1.6467 -1.1816  0.5787
39307SOL    HW221453   2.536   6.304   2.188 -0.0035 -0.6986 -0.1330
39308SOL     OW21454   0.041   8.751  10.499 -0.3335  0.3326 -0.0071
39308SOL    HW121455  -0.051   8.738  10.476 -0.3050 -0.7299  0.4508
39308SOL    HW221456   0.039   8.814  10.571 -0.7803 -0.4411  0.6747
39309SOL     OW21457   5.423   1.040   4.454  0.4744 -0.0115  0.3848
39309SOL    HW121458   5.347   0.987   4.476 -0.7260  1.6257  0.3609
39309SOL    HW221459   5.435   1.097   4.531  1.2320  0.2363  0.0926
39310SOL     OW21460   2.414   3.103   3.827  0.1583  0.4009  0.1281
39310SOL    HW121461   2.438   3.169   3.761 -0.2424  1.4939  1.0342
39310SOL    HW221462   2.354   3.045   3.781  1.0701  0.2311 -0.8995
39311SOL     OW21463   6.270   1.068   8.281 -0.1283  0.1488  0.3119
39311SOL    HW121464   6.247   1.006   8.351  0.4612 -0.6881 -0.2244
39311SOL    HW221465   6.365   1.063   8.274 -0.0017  1.5549  0.6381
39312SOL     OW21466   3.221   9.193   9.392 -0.5198 -0.2437 -0.1691
39312SOL    HW121467   3.305   9.240   9.388 -0.3963 -0.5310 -1.3075
39312SOL    HW221468   3.229   9.125   9.325 -2.2977  0.7729 -1.4932
39313SOL     OW21469   4.343  10.481   6.422  0.4897  0.1822  0.6615
39313SOL    HW121470   4.250  10.508   6.423  0.4726  0.1597  0.0689
39313SOL    HW221471   4.359  10.448   6.510 -0.3647 -0.8218  0.4622
39314SOL     OW21472   1.352   5.296  10.529  0.1801  0.3563  0.2869
39314SOL    HW121473   1.448   5.302  10.528  0.1720  0.4949 -0.1235
39314SOL    HW221474   1.323   5.371  10.580  0.3253 -0.3542  1.4499
39315SOL     OW21475   0.184   1.286   6.799 -0.1010  0.2554 -0.3098
39315SOL    HW121476   0.249   1.326   6.742 -0.9960  0.0348 -1.5134
39315SOL    HW221477   0.115   1.255   6.740 -1.7414  1.2677  0.9861
39316SOL     OW21478   0.275   0.068  10.918 -0.5954  0.0756  0.4190
39316SOL    HW121479   0.185   0.074  10.885 -0.1699 -0.1246 -0.8480
39316SOL    HW221480   0.276   0.123  10.996 -1.2440  1.9414 -0.8275
39317SOL     OW21481   3.716  10.194   6.395 -0.2526 -0.0815  0.1764
39317SOL    HW121482   3.683  10.115   6.438 -0.3750 -1.1919 -1.7896
39317SOL    HW221483   3.640  10.230   6.349  0.4831 -0.8308 -1.7478
39318SOL     OW21484   9.059   2.514   6.943  0.1730 -0.2342 -0.2640
39318SOL    HW121485   9.090   2.531   6.854 -0.2988  0.1221 -0.3593
39318SOL    HW221486   8.972   2.477   6.932  0.2316 -0.4755  0.0423
39319SOL     OW21487   3.248  10.454  10.641  0.5889  0.6330 -0.5172
39319SOL    HW121488   3.176  10.412  10.687 -0.1333  0.9188 -1.3702
39319SOL    HW221489   3.324  10.398  10.660  0.4439  1.0262  1.4287
39320SOL     OW21490   5.306   0.555   8.747  0.2353  0.0172  0.0766
39320SOL    HW121491   5.245   0.619   8.710  0.0196 -0.7143 -0.8771
39320SOL    HW221492   5.308   0.484   8.682  1.5688 -0.2839  0.4256
39321SOL     OW21493   3.048  10.537   9.800 -0.8689  0.0074  0.0369
39321SOL    HW121494   3.075  10.608   9.858 -1.2330 -0.9688  1.4519
39321SOL    HW221495   3.025  10.581   9.718 -0.5025  1.4519  0.6732
39322SOL     OW21496   9.815   5.502  10.859 -0.0509  0.3388  0.1252
39322SOL    HW121497   9.745   5.493  10.794 -0.1461 -0.3141  0.3141
39322SOL    HW221498   9.835   5.595  10.859 -0.2468  0.3897 -0.6414
39323SOL     OW21499  10.333   4.766  10.262 -0.9095 -0.2696  0.2492
39323SOL    HW121500  10.312   4.852  10.227  0.7145  0.8920  1.9524
39323SOL    HW221501  10.360   4.716  10.185  2.0939  2.0520 -0.4030
39324SOL     OW21502   4.001   3.328   1.874  0.3885  0.2781 -0.4703
39324SOL    HW121503   4.022   3.384   1.799 -0.5678 -0.3278 -1.2139
39324SOL    HW221504   3.916   3.289   1.852  0.0489  0.1519  0.9695
39325SOL     OW21505   3.133   2.824   5.149 -0.2847 -0.4212  0.3620
39325SOL    HW121506   3.093   2.738   5.152  1.4972 -1.3653 -1.0704
39325SOL    HW221507   3.212   2.817   5.203 -0.4948  0.5420  0.8288
39326SOL     OW21508   5.894   8.160   9.795 -0.1921 -0.1345  0.8847
39326SOL    HW121509   5.859   8.072   9.781 -0.5461 -0.1170  1.6284
39326SOL    HW221510   5.935   8.183   9.712 -1.4882 -0.3562  0.1717
39327SOL     OW21511   6.625   8.949   4.547 -0.2470  0.0232  0.4729
39327SOL    HW121512   6.707   8.911   4.517  1.0846  2.2884  1.0015
39327SOL    HW221513   6.621   8.927   4.640  0.3389  0.7940  0.6936
39328SOL     OW21514   0.698   0.024   5.382  0.8288  0.3931  0.8656
39328SOL    HW121515   0.750   0.047   5.305 -0.2754 -0.3303 -0.1313
39328SOL    HW221516   0.635   0.096   5.392  0.2533 -0.0393  0.4134
39329SOL     OW21517   6.774   3.373   7.242  0.0390 -0.0660  0.1549
39329SOL    HW121518   6.735   3.418   7.317 -0.9244 -1.6174  0.6332
39329SOL    HW221519   6.810   3.443   7.188  0.8422  1.0967  2.0874
39330SOL     OW21520   5.025  10.001   1.766  0.0756  0.6212  0.0481
39330SOL    HW121521   5.056  10.011   1.856  0.1002 -0.8102  0.2327
39330SOL    HW221522   5.104   9.984   1.715 -0.0366  0.4628 -0.0736
39331SOL     OW21523   0.210   0.409   3.288 -0.1654  0.3529  0.5098
39331SOL    HW121524   0.248   0.370   3.210  0.9582 -1.0875  1.7045
39331SOL    HW221525   0.117   0.385   3.286 -0.3434  1.0858 -0.7842
39332SOL     OW21526   7.178   9.435   2.192  0.9891  0.1480  0.1613
39332SOL    HW121527   7.153   9.499   2.258  3.9951  2.9401 -1.1616
39332SOL    HW221528   7.104   9.433   2.132 -0.0534  0.7007  1.3611
39333SOL     OW21529   0.922   0.889   1.634 -0.6271  0.1679 -0.4382
39333SOL    HW121530   0.860   0.940   1.686 -0.6607  0.9163 -1.1864
39333SOL    HW221531   0.940   0.811   1.687 -1.1450  0.6041  0.3980
39334SOL     OW21532   6.731   3.437   0.099  0.0941 -0.4536 -0.1804
39334SOL    HW121533   6.715   3.351   0.061 -0.8637 -0.5882  0.4840
39334SOL    HW221534   6.644   3.477   0.104  0.4395  0.2690  0.1627
39335SOL     OW21535   1.178   2.998   8.250 -0.3692 -0.6292 -0.6821
39335SOL    HW121536   1.245   3.027   8.188 -0.0366  0.2386  0.0762
39335SOL    HW221537   1.225   2.941   8.311 -0.4892 -0.6358 -0.5966
39336SOL     OW21538   4.203   7.437  10.040  0.0484  0.2624  0.1820
39336SOL    HW121539   4.248   7.361  10.003 -0.1829 -0.0592  0.5591
39336SOL    HW221540   4.254   7.512  10.011 -0.3994  0.0560 -1.2187
39337SOL     OW21541   1.327   6.854  10.962  0.4491 -0.4290 -0.3055
39337SOL    HW121542   1.388   6.808  10.904  1.4016  0.8568 -0.3688
39337SOL    HW221543   1.378   6.928  10.995 -1.4928  1.5053 -1.4368
39338SOL     OW21544   4.924   3.284   2.577 -0.1672  0.5733 -0.0029
39338SOL    HW121545   4.994   3.309   2.637  0.5447 -0.8511 -0.1712
39338SOL    HW221546   4.878   3.213   2.623  0.0789 -0.1923 -0.8943
39339SOL     OW21547   7.834   5.879   0.228  0.2888  0.4823 -0.8871
39339SOL    HW121548   7.922   5.906   0.202  2.5150 -1.6458  3.3536
39339SOL    HW221549   7.832   5.785   0.211  1.2498 -0.6877  4.0037
39340SOL     OW21550   7.249   2.455   4.048 -0.0886  0.7218  0.5758
39340SOL    HW121551   7.258   2.437   3.955 -2.0082  0.2265  0.4313
39340SOL    HW221552   7.334   2.488   4.075  0.5787  0.6409 -1.2967
39341SOL     OW21553  10.527   4.143  10.248  0.1284  0.4598  0.3918
39341SOL    HW121554  10.548   4.206  10.179  0.6382 -0.8019 -0.6600
39341SOL    HW221555  10.606   4.089  10.255 -0.9719 -1.3128 -0.1613
39342SOL     OW21556   2.456   7.139  10.929  0.1391 -0.0843 -0.1721
39342SOL    HW121557   2.488   7.099  11.010 -1.1740 -1.8547 -0.4616
39342SOL    HW221558   2.475   7.232  10.939  0.4400 -0.3213  1.9624
39343SOL     OW21559   1.701   9.768   8.575  0.3157 -0.1840 -0.8115
39343SOL    HW121560   1.662   9.782   8.662  1.2448 -1.8017 -0.0995
39343SOL    HW221561   1.625   9.756   8.517 -0.3307  1.3859 -0.3666
39344SOL     OW21562   9.649   6.068   2.409 -0.5229  1.0275 -0.1596
39344SOL    HW121563   9.565   6.037   2.375 -0.3092 -0.7708  0.8143
39344SOL    HW221564   9.678   6.133   2.345 -1.9057  0.5475 -1.3407
39345SOL     OW21565   7.358   2.966   4.298  0.5099  0.0361 -0.9784
39345SOL    HW121566   7.451   2.977   4.317  0.0913  0.5309  0.9399
39345SOL    HW221567   7.327   3.055   4.278  0.3147 -0.0463 -1.0438
39346SOL     OW21568  10.146   7.015  11.102  0.1715  0.1900 -0.4497
39346SOL    HW121569  10.071   7.071  11.121  0.7454  0.7551  0.2039
39346SOL    HW221570  10.128   6.934  11.150  1.0500  1.1728  1.6651
39347SOL     OW21571   9.031   1.830   9.026  0.2465 -0.2626 -0.4469
39347SOL    HW121572   8.991   1.832   9.112  0.3182  0.1039 -0.4191
39347SOL    HW221573   9.101   1.766   9.033  0.7009  0.2743 -0.0291
39348SOL     OW21574   0.945   1.706   5.403  0.0933 -0.4603 -0.2442
39348SOL    HW121575   1.012   1.755   5.451  1.5168 -0.8295 -1.7563
39348SOL    HW221576   0.894   1.773   5.357  0.7944 -0.2573 -0.7533
39349SOL     OW21577   9.839  10.769   9.562 -1.0883 -0.0623 -0.1896
39349SOL    HW121578   9.786  10.792   9.638 -0.2642  0.2400  0.3062
39349SOL    HW221579   9.922  10.814   9.575 -0.1004 -1.7936 -0.1190
39350SOL     OW21580   5.239   0.616   9.179  0.4340  0.6445 -0.4900
39350SOL    HW121581   5.268   0.539   9.129  0.1616  0.4204 -0.3047
39350SOL    HW221582   5.144   0.606   9.184  0.5018  0.4166  0.4776
39351SOL     OW21583   5.127   3.888   5.743  0.3160  0.3613 -0.8611
39351SOL    HW121584   5.091   3.800   5.751  0.6489  0.3526  0.8090
39351SOL    HW221585   5.177   3.886   5.661 -0.8551 -0.5530 -1.5866
39352SOL     OW21586   9.836   7.871   6.756 -0.6724 -0.6398  0.0026
39352SOL    HW121587   9.908   7.844   6.699 -0.5914 -0.2041 -0.1063
39352SOL    HW221588   9.759   7.827   6.720 -1.0767  1.5024 -1.9500
39353SOL     OW21589   8.124   4.774   7.146  0.2389 -0.4135  0.5468
39353SOL    HW121590   8.177   4.751   7.070  1.8921 -0.1342  1.5829
39353SOL    HW221591   8.182   4.826   7.202 -1.4395  0.8092  1.2493
39354SOL     OW21592   6.956   5.505   7.445  0.0951 -0.7154  0.2562
39354SOL    HW121593   6.889   5.453   7.490 -0.8287  1.5276  1.6057
39354SOL    HW221594   7.020   5.525   7.513  1.6091 -1.8799 -0.7651
39355SOL     OW21595   5.591   7.291  10.258  0.2892  0.5696  0.5610
39355SOL    HW121596   5.648   7.354  10.303  2.7236 -1.2755  0.2436
39355SOL    HW221597   5.600   7.314  10.165  1.6545 -0.5529  0.3922
39356SOL     OW21598   8.380   2.146   0.160 -0.1505 -0.6766 -0.6622
39356SOL    HW121599   8.293   2.161   0.122 -0.0380 -2.1298 -1.5810
39356SOL    HW221600   8.395   2.052   0.148  2.1321 -0.2382 -1.8157
39357SOL     OW21601  10.237   8.959   3.390 -0.5910 -0.5209  0.5205
39357SOL    HW121602  10.170   8.902   3.429 -1.6108  0.4592  0.2773
39357SOL    HW221603  10.238   9.037   3.446  0.5108 -0.6194  0.6400
39358SOL     OW21604   3.478   4.369   0.866 -0.0488  0.1766  0.1007
39358SOL    HW121605   3.415   4.338   0.800 -1.5996  0.1565  1.5294
39358SOL    HW221606   3.484   4.298   0.929  1.2538  0.2881  0.1285
39359SOL     OW21607   3.406   2.302   0.594 -0.8082  0.4849 -0.1426
39359SOL    HW121608   3.399   2.286   0.688  0.7388 -1.2021 -0.2386
39359SOL    HW221609   3.317   2.295   0.561 -1.1670 -0.5983  0.9906
39360SOL     OW21610   2.999   3.993   2.074 -0.6955 -0.1450  0.2857
39360SOL    HW121611   3.067   3.973   2.139  0.1352  0.3528 -0.3986
39360SOL    HW221612   2.993   3.913   2.021  1.5986  0.7807 -1.5593
39361SOL     OW21613   8.433   4.086   6.007 -0.4965 -0.2159 -0.3320
39361SOL    HW121614   8.423   4.119   5.918  0.1578 -0.0022 -0.3281
39361SOL    HW221615   8.457   4.162   6.059  0.2510 -0.5418 -0.1850
39362SOL     OW21616   3.103   6.213   6.179  0.2798 -0.2051  0.1360
39362SOL    HW121617   3.184   6.177   6.143  0.5736  0.7395 -0.1861
39362SOL    HW221618   3.081   6.286   6.120  0.3399  0.8810  1.3948
39363SOL     OW21619   2.120  10.637   8.622 -0.0609  0.2475  0.3902
39363SOL    HW121620   2.185  10.567   8.615 -0.7050 -0.3414  0.1929
39363SOL    HW221621   2.099  10.642   8.715  0.7482  0.8957  0.5483
39364SOL     OW21622   3.257  10.463   3.028  0.3628 -0.1882 -0.0462
39364SOL    HW121623   3.223  10.376   3.050 -0.9603  1.0162  3.3765
39364SOL    HW221624   3.347  10.463   3.061  0.3029 -0.2080  0.1176
39365SOL     OW21625   4.788   6.758   6.661 -0.4869  0.4762 -0.3942
39365SOL    HW121626   4.868   6.809   6.665  1.1328 -1.9082  0.1478
39365SOL    HW221627   4.776   6.739   6.568 -0.2277  0.5781 -0.4484
39366SOL     OW21628   6.861   2.533   8.617  0.1578 -0.0402 -0.0203
39366SOL    HW121629   6.869   2.441   8.641  1.4327 -0.1012 -0.5697
39366SOL    HW221630   6.945   2.554   8.575 -0.2769  1.2526 -0.2932
39367SOL     OW21631  10.320   0.209   2.108  0.0794 -0.1932  0.6771
39367SOL    HW121632  10.400   0.261   2.103  0.5325 -0.8788  0.5531
39367SOL    HW221633  10.350   0.120   2.128 -0.5772 -0.6424 -0.2353
39368SOL     OW21634   9.409   2.797   1.821 -0.3009  0.0946  0.1989
39368SOL    HW121635   9.334   2.823   1.873  0.0630  0.1720  0.6917
39368SOL    HW221636   9.484   2.839   1.863 -0.2937  2.7375 -2.1359
39369SOL     OW21637   1.802   1.936   6.339 -0.4641 -0.1900  0.2849
39369SOL    HW121638   1.754   1.870   6.388 -0.8835 -1.3879 -1.6249
39369SOL    HW221639   1.741   2.009   6.331 -1.0282 -0.6735  0.0941
39370SOL     OW21640   5.703   7.464   5.337 -0.1956  0.1988 -0.6086
39370SOL    HW121641   5.729   7.373   5.320  0.7654  0.4590 -0.5875
39370SOL    HW221642   5.749   7.515   5.271  1.2617  0.9105  0.8813
39371SOL     OW21643   5.945   7.842   0.027 -0.5357  0.3277 -0.0311
39371SOL    HW121644   5.905   7.766   0.070  3.0020 -2.5938 -1.3473
39371SOL    HW221645   5.909   7.841  -0.061 -1.6023  1.1902  0.3714
39372SOL     OW21646  10.197   8.911   7.826  0.1374  0.2174 -0.0464
39372SOL    HW121647  10.114   8.958   7.819  0.1144  0.1526 -0.2330
39372SOL    HW221648  10.227   8.902   7.735 -1.0173 -2.2029 -0.2667
39373SOL     OW21649  10.070   9.987   0.567  0.0272  0.3048 -0.2795
39373SOL    HW121650  10.114   9.997   0.651  0.3280  1.1224 -0.5224
39373SOL    HW221651  10.138   9.955   0.507 -0.5048 -1.6404  0.0723
39374SOL     OW21652   2.416   2.718   2.885  0.1696 -0.3922 -0.2621
39374SOL    HW121653   2.360   2.721   2.963  0.6005  0.0652  0.0331
39374SOL    HW221654   2.468   2.798   2.890  0.3074 -0.4348 -0.9420
39375SOL     OW21655   7.009   4.239   9.021 -0.3462  0.0297 -0.1014
39375SOL    HW121656   7.078   4.172   9.016  0.6413  1.0121 -0.0581
39375SOL    HW221657   7.030   4.301   8.952 -1.2367  0.3209 -0.1284
39376SOL     OW21658   6.548   9.536   7.691 -0.6141  0.2259 -0.0531
39376SOL    HW121659   6.536   9.542   7.786 -1.7260  1.4337 -0.2375
39376SOL    HW221660   6.593   9.617   7.667  1.5176 -0.9844 -0.3340
39377SOL     OW21661   8.935   3.148   8.957 -0.2148  0.3021  0.2477
39377SOL    HW121662   8.963   3.150   8.866 -0.7132 -1.1172  0.0463
39377SOL    HW221663   9.005   3.193   9.005 -0.3735  1.8533 -0.9173
39378SOL     OW21664   0.410   7.242   1.593  0.3601 -0.1503 -0.3917
39378SOL    HW121665   0.424   7.148   1.606  1.7248 -0.0233 -0.7809
39378SOL    HW221666   0.417   7.279   1.681  1.6183 -0.2290 -0.4290
39379SOL     OW21667   8.960   7.974   2.448 -0.2708 -0.1808 -0.0257
39379SOL    HW121668   8.892   7.921   2.407  0.2073 -1.3343  0.6174
39379SOL    HW221669   8.953   7.953   2.541  1.0816 -0.4820  0.0269
39380SOL     OW21670   5.415   3.207   9.220  0.2894  0.7338 -0.0637
39380SOL    HW121671   5.418   3.138   9.153 -1.8319  0.4621  0.0511
39380SOL    HW221672   5.412   3.159   9.303 -1.2082  0.9483  0.0182
39381SOL     OW21673   3.028   9.318   2.746  0.4827  0.0220  0.1276
39381SOL    HW121674   3.091   9.347   2.679  0.0631 -0.8978 -0.6894
39381SOL    HW221675   3.042   9.224   2.752 -0.0764 -0.0259  0.7307
39382SOL     OW21676   5.893  10.184   7.136 -0.1622  0.5485 -0.0173
39382SOL    HW121677   5.921  10.115   7.075  0.6162  0.2558  0.6501
39382SOL    HW221678   5.895  10.142   7.222 -0.9144  1.0552  0.2614
39383SOL     OW21679   0.900   5.923   5.553  0.3012 -0.5109 -0.4343
39383SOL    HW121680   0.881   6.007   5.595  0.4015 -0.9304  0.4725
39383SOL    HW221681   0.977   5.940   5.499 -0.5587  0.3394 -1.4233
39384SOL     OW21682   3.652   4.971   8.046  0.6854  0.4902 -0.0765
39384SOL    HW121683   3.714   4.924   8.102  0.0521 -0.1099  0.1389
39384SOL    HW221684   3.566   4.941   8.076  0.1840  2.5886  0.8154
39385SOL     OW21685   9.072   9.405   4.899 -0.4132 -0.1751  0.2088
39385SOL    HW121686   9.071   9.394   4.994 -1.5068  0.5090  0.3069
39385SOL    HW221687   9.134   9.476   4.884 -0.9903  0.4086  0.5207
39386SOL     OW21688   2.958   5.478   3.822 -0.1194 -0.2138 -0.0760
39386SOL    HW121689   2.916   5.508   3.741  0.3257 -1.6153 -0.8765
39386SOL    HW221690   2.930   5.540   3.889  0.9063  2.0702 -1.6250
39387SOL     OW21691   8.549   7.210   7.160 -0.7333  0.2053 -0.2586
39387SOL    HW121692   8.516   7.120   7.158 -0.2966 -0.0283  1.3279
39387SOL    HW221693   8.491   7.255   7.222 -0.4152  0.7848 -0.3728
39388SOL     OW21694   3.189   8.255   3.782 -0.8395 -0.6169  0.2260
39388SOL    HW121695   3.126   8.313   3.824 -0.8159 -1.5613  1.6478
39388SOL    HW221696   3.140   8.175   3.764 -0.4799 -0.7334 -0.2642
39389SOL     OW21697   9.598   8.304   3.262 -0.2081  0.0725 -0.0180
39389SOL    HW121698   9.548   8.385   3.273  0.6336  0.3688  2.5579
39389SOL    HW221699   9.689   8.331   3.276  0.0888 -1.2834  0.8425
39390SOL     OW21700   9.258  10.960   6.696  0.2146  0.1919  0.1023
39390SOL    HW121701   9.177  10.956   6.645 -1.4271  1.0815  2.4512
39390SOL    HW221702   9.319  11.010   6.642 -1.1646  0.4437 -1.2765
39391SOL     OW21703   6.233   5.733   2.063 -0.0435  0.3293  0.1204
39391SOL    HW121704   6.242   5.638   2.064  2.0551  0.4636 -0.8363
39391SOL    HW221705   6.235   5.758   2.155 -0.9054 -0.5516  0.3971
39392SOL     OW21706   7.674   1.293   9.083  0.1448  0.1850  0.0821
39392SOL    HW121707   7.758   1.250   9.063  0.3178  0.6637 -0.2345
39392SOL    HW221708   7.618   1.272   9.009 -0.2330 -0.6844  0.6024
39393SOL     OW21709   2.206   4.940  10.992 -0.3922  0.6631 -0.0959
39393SOL    HW121710   2.278   4.938  11.054  0.2079 -0.1219 -0.7922
39393SOL    HW221711   2.192   4.848  10.967 -1.2838  0.8562 -0.3654
39394SOL     OW21712   8.117   6.209   7.381  0.0968  0.0166  0.6850
39394SOL    HW121713   8.095   6.268   7.453 -3.5227 -0.7060  0.3776
39394SOL    HW221714   8.175   6.259   7.325  0.2767  1.8292  2.3898
39395SOL     OW21715   5.200   3.570   1.383  0.6808 -0.2925 -1.0470
39395SOL    HW121716   5.166   3.551   1.470  1.8898  1.3582 -0.1508
39395SOL    HW221717   5.179   3.493   1.331 -1.9020 -0.4636  0.1324
39396SOL     OW21718  10.970   1.860   6.002 -0.3010 -0.9729  0.2449
39396SOL    HW121719  10.926   1.867   5.917 -1.0587 -2.7348  0.4403
39396SOL    HW221720  11.055   1.820   5.982 -0.5150 -1.4697  0.3119
39397SOL     OW21721   5.566   4.882   4.179 -0.3472 -0.1429 -0.2685
39397SOL    HW121722   5.639   4.943   4.181 -0.9194  0.5429  0.0874
39397SOL    HW221723   5.500   4.925   4.124  0.5042 -1.9254 -2.8818
39398SOL     OW21724   1.938  10.045   5.283 -0.3185 -0.0262  0.2151
39398SOL    HW121725   1.910  10.107   5.216 -1.2351  0.2599  0.8467
39398SOL    HW221726   1.904   9.961   5.253  0.7053 -0.2102 -0.5102
39399SOL     OW21727   5.061   8.125   9.435  0.5492  0.1813  0.0074
39399SOL    HW121728   5.044   8.205   9.484 -1.9019  0.1021 -0.5971
39399SOL    HW221729   5.149   8.099   9.462  0.0142  1.0734  3.0086
39400SOL     OW21730  11.047   6.511   4.869 -0.3716 -0.4921 -0.7916
39400SOL    HW121731  11.003   6.481   4.790  0.1959 -0.0550 -1.2847
39400SOL    HW221732  11.001   6.592   4.893  1.0649  0.8356 -2.1947
39401SOL     OW21733   1.527   8.479   6.361 -0.5919  0.1507  0.0818
39401SOL    HW121734   1.444   8.433   6.371 -0.2149 -0.4819  0.3792
39401SOL    HW221735   1.511   8.566   6.399 -0.6850 -0.4842  1.5808
39402SOL     OW21736   6.127   7.662   0.334 -0.1733 -0.3685  0.0290
39402SOL    HW121737   6.170   7.695   0.413  1.3196 -1.1371 -0.4191
39402SOL    HW221738   6.194   7.608   0.292 -0.9322  0.0415 -1.7698
39403SOL     OW21739   5.782   0.319   5.775  0.1190  0.5268  0.6415
39403SOL    HW121740   5.716   0.265   5.732 -0.2222 -0.0490  1.8489
39403SOL    HW221741   5.865   0.293   5.735 -0.3402  1.1168 -0.7515
39404SOL     OW21742   7.647   4.157   9.829  0.8256  0.3161  0.1710
39404SOL    HW121743   7.613   4.173   9.741  2.1439  0.8374 -0.2735
39404SOL    HW221744   7.723   4.216   9.837  1.3608 -0.4717  1.2670
39405SOL     OW21745   1.561   7.637   2.894 -0.2041 -0.3652  0.0821
39405SOL    HW121746   1.540   7.606   2.806  0.4116 -2.2284  0.5340
39405SOL    HW221747   1.515   7.720   2.902 -1.5717 -0.9156 -1.4392
39406SOL     OW21748   1.309   0.631   3.181  0.3949  0.5074 -0.1318
39406SOL    HW121749   1.294   0.544   3.219  1.3965  0.9257  1.3267
39406SOL    HW221750   1.233   0.682   3.208 -1.0133 -0.2735 -2.3519
39407SOL     OW21751   6.383   1.768   6.019 -0.2637  0.6155  0.0329
39407SOL    HW121752   6.315   1.757   5.953  0.7504  0.2911 -0.9739
39407SOL    HW221753   6.408   1.679   6.044  0.0081  0.7309  0.1804
39408SOL     OW21754   6.209   2.677   1.379 -0.4548 -0.0165  0.4203
39408SOL    HW121755   6.198   2.603   1.439  2.0213 -0.4605  0.4141
39408SOL    HW221756   6.252   2.745   1.431  0.5723  0.0581 -0.4887
39409SOL     OW21757   9.294  10.982   5.636  0.1965  0.3375 -0.0394
39409SOL    HW121758   9.341  11.060   5.666 -0.7031  0.8133  0.1594
39409SOL    HW221759   9.209  11.015   5.608 -0.4481 -0.6595  0.6814
39410SOL     OW21760   9.711   6.423   3.002 -0.3214  0.1459 -0.3269
39410SOL    HW121761   9.701   6.496   3.064  0.9471  0.2933 -0.2615
39410SOL    HW221762   9.682   6.459   2.918 -0.8154  0.3569 -0.0689
39411SOL     OW21763   3.465   8.091   8.514  0.0890 -0.4069  0.0662
39411SOL    HW121764   3.481   8.170   8.462 -1.2401  0.2744  0.6515
39411SOL    HW221765   3.426   8.029   8.453 -3.4740  1.1054  0.5500
39412SOL     OW21766   4.926   7.947   3.713  0.4666  0.0924 -0.3063
39412SOL    HW121767   4.981   7.961   3.636  0.5809 -0.6829 -0.3726
39412SOL    HW221768   4.939   7.855   3.736 -0.6533 -0.0522 -0.2028
39413SOL     OW21769   2.597   8.242   7.249 -1.1357 -0.4250 -0.1875
39413SOL    HW121770   2.567   8.333   7.245 -0.1109 -0.0564  0.0265
39413SOL    HW221771   2.572   8.204   7.165 -2.2357 -0.1664  0.0135
39414SOL     OW21772   2.233  10.606   9.233  0.0737 -0.5803 -0.5675
39414SOL    HW121773   2.269  10.645   9.154  1.1324  0.7314  0.5099
39414SOL    HW221774   2.138  10.616   9.224  0.2891  2.8127 -0.1280
39415SOL     OW21775   4.299   0.842   5.579  0.0830 -0.4404 -0.0912
39415SOL    HW121776   4.228   0.884   5.628  0.2616 -1.5986  1.2137
39415SOL    HW221777   4.356   0.914   5.553 -2.2592  0.7220 -2.4505
39416SOL     OW21778   8.594   5.825   3.140 -0.0871  0.3146 -0.2210
39416SOL    HW121779   8.558   5.914   3.135 -0.4857  0.1705 -0.0019
39416SOL    HW221780   8.647   5.825   3.220 -1.1104  0.0018  0.4802
39417SOL     OW21781  10.864   3.674   9.434  0.1020  0.3410 -0.4805
39417SOL    HW121782  10.845   3.690   9.342  2.0258 -0.9711 -1.1750
39417SOL    HW221783  10.944   3.724   9.451  1.0422 -1.1860 -0.1919
39418SOL     OW21784   0.241   2.747   5.120  0.1534  0.2018  0.5696
39418SOL    HW121785   0.158   2.715   5.085  0.0687  1.3694 -0.3731
39418SOL    HW221786   0.216   2.814   5.183  0.3633 -0.4794  1.3984
39419SOL     OW21787   2.266   5.532  10.738 -0.1357  0.2948 -0.3488
39419SOL    HW121788   2.354   5.508  10.766  0.5745  0.7057 -2.0657
39419SOL    HW221789   2.216   5.544  10.819  0.9291 -1.5698  0.6395
39420SOL     OW21790   1.962   6.392   7.019  0.1909 -0.1173  0.6020
39420SOL    HW121791   1.925   6.306   6.997  0.6311 -1.4488  4.3985
39420SOL    HW221792   2.044   6.395   6.970 -1.3000 -0.3465 -2.1148
39421SOL     OW21793   6.443   4.700   8.898 -0.0537 -0.0340 -0.2103
39421SOL    HW121794   6.510   4.647   8.854  1.4322  0.0710  1.8197
39421SOL    HW221795   6.363   4.647   8.891  0.2285 -0.2886 -2.4388
39422SOL     OW21796   4.685   1.564   8.545 -0.1576 -0.1374  0.4493
39422SOL    HW121797   4.712   1.581   8.635  0.3307 -0.6979  0.4159
39422SOL    HW221798   4.752   1.608   8.492  0.2643 -0.8734  0.3640
39423SOL     OW21799   6.080  11.104   5.692 -0.2374  0.2770 -0.0175
39423SOL    HW121800   6.016  11.054   5.743 -0.4983 -1.4025 -1.8729
39423SOL    HW221801   6.129  11.038   5.644  1.1286  1.7087 -0.6624
39424SOL     OW21802   1.836   8.811  10.738  0.0080  0.2409  0.0540
39424SOL    HW121803   1.850   8.739  10.676  0.5588 -0.1103  0.5749
39424SOL    HW221804   1.869   8.888  10.693  2.9606 -0.4148  0.8890
39425SOL     OW21805   4.432   9.871   2.062  0.1029  0.4411  0.1919
39425SOL    HW121806   4.342   9.867   2.029 -0.5799  1.6506  1.7547
39425SOL    HW221807   4.423   9.870   2.157  1.8553 -0.7608  0.4050
39426SOL     OW21808   4.170   0.768   2.431  0.4941  0.0202  0.2769
39426SOL    HW121809   4.210   0.814   2.505  1.7645 -0.3665 -0.1570
39426SOL    HW221810   4.105   0.710   2.472  1.0239 -0.0216  1.0773
39427SOL     OW21811   1.837   0.241   1.867 -0.0049 -0.5942  0.3065
39427SOL    HW121812   1.802   0.153   1.853 -1.0342 -0.1278 -0.2403
39427SOL    HW221813   1.878   0.264   1.784 -0.7293 -0.1530  0.0528
39428SOL     OW21814   9.083   2.978   8.159  0.2388  0.2662 -0.1659
39428SOL    HW121815   9.099   3.025   8.241 -0.6508  0.3761 -0.0467
39428SOL    HW221816   9.118   2.890   8.175  0.6804  0.4807  0.0868
39429SOL     OW21817   1.056   2.504   2.576 -0.7147  0.6180  0.3285
39429SOL    HW121818   0.976   2.454   2.564  0.6706 -1.7443  0.4417
39429SOL    HW221819   1.038   2.561   2.651 -2.4169  0.4565  0.0676
39430SOL     OW21820  10.811  10.999   4.882 -0.5487  0.3154  0.6317
39430SOL    HW121821  10.798  11.060   4.809  1.9814  0.1116 -0.0769
39430SOL    HW221822  10.760  10.922   4.857  0.2271  0.2651 -0.9452
39431SOL     OW21823   6.124   2.558   2.644  0.0486 -0.1287  0.3777
39431SOL    HW121824   6.076   2.581   2.723 -0.3588 -1.6351  0.6040
39431SOL    HW221825   6.214   2.543   2.674  0.3886  1.3785  0.1770
39432SOL     OW21826   1.530  10.107   3.973 -0.2987 -0.2245 -0.1619
39432SOL    HW121827   1.508  10.151   3.891 -1.3015 -1.3683 -0.5236
39432SOL    HW221828   1.590  10.168   4.017  0.8649  0.1034 -2.0603
39433SOL     OW21829   9.307   4.902   5.649 -0.6449 -0.1571  0.0364
39433SOL    HW121830   9.357   4.882   5.727 -0.9867 -0.2387  0.2385
39433SOL    HW221831   9.365   4.880   5.576  0.3187  1.5440  0.2536
39434SOL     OW21832   1.449   7.148   4.002 -0.0693 -0.4548 -0.3652
39434SOL    HW121833   1.433   7.232   3.959  0.6770 -0.5274 -0.7978
39434SOL    HW221834   1.527   7.163   4.055 -0.2977 -0.7012  0.0410
39435SOL     OW21835   2.029   0.969   1.296 -0.4687 -0.5918  0.1618
39435SOL    HW121836   2.064   1.055   1.272 -1.0637 -0.3943 -0.0231
39435SOL    HW221837   1.947   0.963   1.247 -1.0372 -0.7550  1.1132
39436SOL     OW21838   7.640   3.019   5.284  0.0589  0.1048 -0.6205
39436SOL    HW121839   7.614   3.092   5.228  0.1788  0.4275 -0.2589
39436SOL    HW221840   7.715   3.053   5.334 -0.6123  0.1273  0.4027
39437SOL     OW21841   0.376   7.168   0.145  0.7352 -0.4862 -0.1878
39437SOL    HW121842   0.365   7.251   0.099 -0.0870 -0.8225 -0.6170
39437SOL    HW221843   0.302   7.165   0.206  1.0290 -0.6888  0.1600
39438SOL     OW21844   9.728   7.673   4.288 -0.0540  0.8466 -0.4292
39438SOL    HW121845   9.722   7.743   4.223 -2.3673  0.8195 -0.3023
39438SOL    HW221846   9.720   7.718   4.372 -1.6428  0.4604 -0.3512
39439SOL     OW21847   0.236   3.184   4.496  0.2432 -0.1869  0.0174
39439SOL    HW121848   0.156   3.221   4.535  1.7256  2.0220  1.1846
39439SOL    HW221849   0.250   3.236   4.417  0.6208 -0.4144 -0.0669
39440SOL     OW21850   2.340   3.545   1.145  0.1925  0.2299  0.2398
39440SOL    HW121851   2.356   3.485   1.072 -1.2291  0.0270  0.0542
39440SOL    HW221852   2.309   3.488   1.216 -1.1448  0.6933  0.0706
39441SOL     OW21853   4.115   1.066   2.316 -0.0268  0.2780 -0.5774
39441SOL    HW121854   4.070   1.055   2.232  1.5273 -0.6963 -1.3148
39441SOL    HW221855   4.075   1.001   2.373 -0.6792  0.5397 -0.7202
39442SOL     OW21856   4.643   1.166   2.944 -0.6624  0.1247 -0.2228
39442SOL    HW121857   4.703   1.092   2.930  0.5729  1.2300 -0.9236
39442SOL    HW221858   4.557   1.131   2.922  0.0696 -0.7514 -1.8754
39443SOL     OW21859  10.061   5.619   5.788  0.3132 -0.5824  0.5866
39443SOL    HW121860  10.150   5.598   5.762  0.1799 -1.5348  0.8579
39443SOL    HW221861  10.048   5.709   5.758  0.6522 -1.1224 -1.3190
39444SOL     OW21862   6.650   8.815   3.560 -0.0659 -0.9518  0.3905
39444SOL    HW121863   6.685   8.894   3.601 -3.6995  0.6896  0.7205
39444SOL    HW221864   6.643   8.753   3.632 -0.2462 -0.4108  0.8510
39445SOL     OW21865   3.120   7.178   4.058 -0.2773  0.4649  0.2529
39445SOL    HW121866   3.166   7.202   3.978  0.0025 -2.0925 -0.4521
39445SOL    HW221867   3.177   7.206   4.129  1.0387 -0.1110 -0.5431
39446SOL     OW21868   4.481   6.029   0.709  0.2611  0.0992  0.4402
39446SOL    HW121869   4.535   6.059   0.635 -0.3290 -0.5096 -0.2587
39446SOL    HW221870   4.415   6.097   0.719 -1.2085 -0.9704 -1.2868
39447SOL     OW21871   1.672   3.872   6.853  0.0145  0.1907  0.2686
39447SOL    HW121872   1.716   3.857   6.770  0.1185  0.4584  0.2739
39447SOL    HW221873   1.702   3.958   6.882 -0.5400  0.3979  0.2528
39448SOL     OW21874   3.811   2.935   7.400 -0.1101 -0.2920 -0.1657
39448SOL    HW121875   3.717   2.933   7.418 -0.0787  1.7302  0.4901
39448SOL    HW221876   3.818   2.924   7.305 -1.0988  0.7474 -0.3729
39449SOL     OW21877   2.203   6.214   9.379  0.1613 -0.1827  0.2466
39449SOL    HW121878   2.297   6.199   9.394  0.0804  0.8630  1.9986
39449SOL    HW221879   2.198   6.238   9.286  1.5363 -0.8453 -0.0355
39450SOL     OW21880   4.561   3.799   8.494  0.4959  0.2618  0.1511
39450SOL    HW121881   4.546   3.851   8.573  2.2863 -0.1903  0.8350
39450SOL    HW221882   4.540   3.859   8.422 -2.6470  0.2390  0.8665
39451SOL     OW21883   6.023   0.620  10.621 -0.7049  0.4711 -0.2278
39451SOL    HW121884   6.020   0.670  10.703 -1.6443 -0.2337  0.1850
39451SOL    HW221885   6.040   0.686  10.553 -0.0020  1.0768  0.5148
39452SOL     OW21886   6.946   8.422   6.601  0.3072 -0.3840  0.0228
39452SOL    HW121887   6.925   8.473   6.679  1.4423 -0.9981  0.7576
39452SOL    HW221888   7.039   8.399   6.611  0.6828  0.1033 -1.8502
39453SOL     OW21889   7.130   1.821   2.773  0.5585 -0.5976  0.1717
39453SOL    HW121890   7.063   1.884   2.801  1.5689 -0.0518  1.4961
39453SOL    HW221891   7.085   1.737   2.771  0.1129 -0.4931  2.4673
39454SOL     OW21892   9.705  10.573   6.985 -1.3315  0.5552  0.5828
39454SOL    HW121893   9.779  10.513   6.994  0.2809  2.2181 -0.8756
39454SOL    HW221894   9.640  10.525   6.934 -0.8253 -0.5348  0.9409
39455SOL     OW21895   6.030   3.551  10.611  0.1720  0.0197  0.6265
39455SOL    HW121896   5.994   3.556  10.700 -1.5861  1.9006 -0.1061
39455SOL    HW221897   5.960   3.585  10.555  2.2756  1.7126 -1.1560
39456SOL     OW21898   8.955   4.684   5.110 -0.4343  0.3137  0.1194
39456SOL    HW121899   8.861   4.705   5.104 -0.3778  0.5823  0.1659
39456SOL    HW221900   8.998   4.754   5.061 -0.1827  0.7346  0.9421
39457SOL     OW21901  10.801  10.502   7.063  0.7355  0.5877  0.0770
39457SOL    HW121902  10.744  10.434   7.099 -1.1088  2.1092  0.1913
39457SOL    HW221903  10.861  10.455   7.005 -0.1667 -1.1741  0.5104
39458SOL     OW21904   7.157   9.695   6.736 -0.7180  0.0884 -0.3920
39458SOL    HW121905   7.253   9.694   6.743 -0.6191 -2.0614 -1.3613
39458SOL    HW221906   7.140   9.756   6.664 -0.1653  1.2835  0.4551
39459SOL     OW21907   8.020   7.351   0.151  0.1430  0.4161 -0.2067
39459SOL    HW121908   8.057   7.382   0.069 -0.2860  0.5347 -0.3588
39459SOL    HW221909   8.042   7.258   0.155  0.3591  0.4628 -0.3476
39460SOL     OW21910   5.780   2.654   9.500 -0.3763  0.0691 -0.1103
39460SOL    HW121911   5.801   2.578   9.555 -0.6130 -1.7056 -2.3476
39460SOL    HW221912   5.710   2.699   9.548 -0.2139 -1.0862  1.2863
39461SOL     OW21913   5.848   3.468   5.770 -0.7561 -0.4836 -0.3261
39461SOL    HW121914   5.832   3.468   5.864 -0.6230  0.0324 -0.3018
39461SOL    HW221915   5.762   3.456   5.731 -0.6964 -1.7650 -0.1304
39462SOL     OW21916   7.077   2.024   7.401 -0.6625 -1.0224  0.0419
39462SOL    HW121917   7.096   2.060   7.488 -2.1121 -0.3091  0.0961
39462SOL    HW221918   7.155   2.043   7.349  1.1491 -3.3295  1.6885
39463SOL     OW21919   0.675   0.646   6.277 -0.2239 -0.2589  0.2976
39463SOL    HW121920   0.588   0.671   6.307  0.4193 -1.5673  3.6284
39463SOL    HW221921   0.659   0.581   6.209 -1.8045  0.5319 -0.1434
39464SOL     OW21922   3.668   6.814   3.436  0.7513  0.2946 -0.6026
39464SOL    HW121923   3.660   6.855   3.522  1.0001 -0.4436 -0.2194
39464SOL    HW221924   3.673   6.887   3.375 -1.7704  0.8357 -0.2394
39465SOL     OW21925   5.416   1.420   2.701  0.4725  0.2765  0.5423
39465SOL    HW121926   5.419   1.403   2.607 -1.5252  1.0298  0.2788
39465SOL    HW221927   5.399   1.514   2.708  1.0980  0.3278  1.6776
39466SOL     OW21928   1.799   5.669   2.862 -0.1917 -0.3766  0.1589
39466SOL    HW121929   1.794   5.580   2.827  2.8410 -0.2442 -0.9477
39466SOL    HW221930   1.845   5.719   2.795  0.6510  1.3248  1.8924
39467SOL     OW21931   8.734   2.606   4.761  0.6008 -0.7276  0.3277
39467SOL    HW121932   8.668   2.639   4.700  1.0412 -1.6512 -0.6866
39467SOL    HW221933   8.742   2.675   4.827 -0.3837  0.0029 -0.2872
39468SOL     OW21934   8.935  11.021   1.079 -0.3112  0.3405  0.2869
39468SOL    HW121935   9.030  11.022   1.073 -0.2920  0.8333  0.6347
39468SOL    HW221936   8.905  11.061   0.997 -0.2423 -0.4953 -0.1561
39469SOL     OW21937   5.010  10.520   3.473  0.6009  0.1985  0.6589
39469SOL    HW121938   5.033  10.605   3.512  0.8107 -0.1235  1.2617
39469SOL    HW221939   4.940  10.486   3.529 -0.5694  0.6535 -0.4901
39470SOL     OW21940   6.732   5.301  11.103  0.1419  0.4825  0.1929
39470SOL    HW121941   6.818   5.335  11.076  0.3588  0.6728  1.1017
39470SOL    HW221942   6.682   5.379  11.127 -0.0161  0.3131  0.4188
39471SOL     OW21943   0.054   4.075   5.615 -0.5888 -0.2551  0.2731
39471SOL    HW121944   0.032   3.982   5.610  2.4131 -1.1821  1.7917
39471SOL    HW221945   0.023   4.103   5.701  1.7473 -0.9477  1.4229
39472SOL     OW21946   8.348   0.934  10.259 -0.5780 -0.0823  0.2832
39472SOL    HW121947   8.277   0.878  10.290 -1.5986  0.6807 -0.5987
39472SOL    HW221948   8.386   0.971  10.339 -0.6595 -1.0833  0.8020
39473SOL     OW21949   1.884   1.678   3.060  0.0536 -0.5592  0.1699
39473SOL    HW121950   1.951   1.649   3.122 -0.2206  1.1972  1.3390
39473SOL    HW221951   1.811   1.706   3.115 -0.0083  1.5380 -0.8962
39474SOL     OW21952  10.489   6.186   1.629  0.5376 -0.6928 -0.2789
39474SOL    HW121953  10.417   6.141   1.674  1.1126 -1.4504 -0.1085
39474SOL    HW221954  10.551   6.208   1.699 -0.6766  2.3466  0.0292
39475SOL     OW21955   9.289  10.140   8.563 -0.6263  0.1187 -0.2481
39475SOL    HW121956   9.360  10.139   8.499 -1.2246  0.4646 -0.9346
39475SOL    HW221957   9.266  10.047   8.574 -0.4156  0.0460 -0.4209
39476SOL     OW21958   6.200   1.574   1.898  0.1707 -0.9027 -0.2529
39476SOL    HW121959   6.134   1.523   1.945 -0.0548 -0.1974  0.2199
39476SOL    HW221960   6.159   1.660   1.886  1.0037 -0.4480  0.0632
39477SOL     OW21961   1.804  10.278   4.472  0.4238  0.6266  0.2979
39477SOL    HW121962   1.893  10.311   4.462  0.3354  0.2165 -2.8683
39477SOL    HW221963   1.811  10.184   4.460 -0.4817  0.6745 -0.8102
39478SOL     OW21964   8.187   3.963   7.264 -0.6911 -0.0821  0.2175
39478SOL    HW121965   8.112   3.965   7.324 -0.4413 -0.0477  0.5302
39478SOL    HW221966   8.151   3.926   7.183 -0.8059 -1.0886  0.7044
39479SOL     OW21967   3.049   6.142  10.762 -0.0619 -0.0483  0.3594
39479SOL    HW121968   3.046   6.196  10.841 -2.4975 -0.5428  0.6900
39479SOL    HW221969   3.100   6.065  10.787  0.3964  0.4549  0.9962
39480SOL     OW21970  10.967  10.774   4.096 -0.0781  0.0927  0.1906
39480SOL    HW121971  10.916  10.838   4.146 -2.7563  0.5768 -2.8773
39480SOL    HW221972  10.942  10.689   4.133 -0.4762  0.5290  0.9406
39481SOL     OW21973   0.545   0.113   4.000 -0.0990  0.7725  0.4586
39481SOL    HW121974   0.486   0.046   3.966  1.3834 -0.6964  0.6232
39481SOL    HW221975   0.513   0.133   4.087  0.5199 -1.2141  1.1989
39482SOL     OW21976   3.699   4.735   4.528 -0.1657  0.4473  0.8601
39482SOL    HW121977   3.658   4.807   4.576  0.5097  0.5415  1.3180
39482SOL    HW221978   3.760   4.696   4.591  0.6891  0.5243  0.1135
39483SOL     OW21979   9.668   8.285   2.304  0.1913 -0.0594  0.1567
39483SOL    HW121980   9.700   8.373   2.285 -0.2910 -0.1372 -1.0846
39483SOL    HW221981   9.591   8.299   2.359  1.9141  0.1460  2.7064
39484SOL     OW21982   7.963   4.208   5.505 -0.1429  0.8391 -0.0112
39484SOL    HW121983   7.898   4.221   5.436  1.8848 -0.5800 -2.3914
39484SOL    HW221984   7.919   4.155   5.571 -2.3895  2.8610  0.2391
39485SOL     OW21985   0.629   5.348   3.614 -0.3690 -0.1126  0.1736
39485SOL    HW121986   0.691   5.337   3.541  1.1323  0.7987  1.2482
39485SOL    HW221987   0.574   5.269   3.610  0.0052 -0.3474 -1.5927
39486SOL     OW21988   4.689   4.500   0.934  0.3572 -0.2492 -0.1171
39486SOL    HW121989   4.773   4.456   0.943  0.7492  0.4504 -0.2367
39486SOL    HW221990   4.627   4.446   0.982  0.5154 -1.7246 -1.4906
39487SOL     OW21991   2.184   3.200   8.261  0.4065 -0.0580  0.3159
39487SOL    HW121992   2.176   3.224   8.168  0.0558  0.0930  0.3823
39487SOL    HW221993   2.205   3.107   8.260  0.7182  0.0104  0.0778
39488SOL     OW21994   4.980   8.009  10.460 -0.6758 -0.5550 -0.1030
39488SOL    HW121995   4.907   8.067  10.483 -0.3262 -0.8555  1.8878
39488SOL    HW221996   4.956   7.974  10.374 -3.2728 -1.2529  0.8073
39489SOL     OW21997   4.563  10.161   2.261 -0.4318 -0.0619  0.2256
39489SOL    HW121998   4.652  10.140   2.233  0.0967  0.2073  1.6330
39489SOL    HW221999   4.559  10.134   2.353 -0.8053  2.6749  1.1155
39490SOL     OW22000   5.147   3.489   8.361 -0.0006 -0.6031 -1.0654
39490SOL    HW122001   5.099   3.568   8.337 -1.5732 -1.0614  0.3629
39490SOL    HW222002   5.156   3.440   8.280 -1.0410 -0.0060 -1.5483
39491SOL     OW22003   2.957   5.962   9.187 -0.2013  0.2520 -0.6661
39491SOL    HW122004   3.016   6.035   9.204  0.2078 -0.2943  0.3633
39491SOL    HW222005   2.933   5.971   9.095  3.1166 -0.6288 -1.7976
39492SOL     OW22006   8.864   3.394  10.444  0.0038  0.2249  0.0354
39492SOL    HW122007   8.795   3.361  10.502  1.2937 -2.2235  0.3281
39492SOL    HW222008   8.902   3.468  10.491 -1.5144  0.7553  0.4709
39493SOL     OW22009   3.573  10.676   9.869  0.5050  0.3021 -0.1023
39493SOL    HW122010   3.659  10.634   9.875  0.0542 -0.5666  0.3960
39493SOL    HW222011   3.511  10.610   9.901 -0.3590  0.8915 -0.5135
39494SOL     OW22012   2.231   1.027   5.822  0.0905  0.1443  0.0679
39494SOL    HW122013   2.257   1.094   5.885  0.9437  0.5636 -0.6959
39494SOL    HW222014   2.312   0.980   5.802 -0.1095  0.1674 -0.8666
39495SOL     OW22015  10.181   4.835   4.471  0.1075  0.0684 -0.1373
39495SOL    HW122016  10.242   4.773   4.512  0.7122  0.2617 -0.7212
39495SOL    HW222017  10.231   4.917   4.466 -0.8225  0.7412  1.0173
39496SOL     OW22018   6.380   1.223   2.536  0.8230 -0.1263 -0.1423
39496SOL    HW122019   6.352   1.311   2.561  0.0549 -0.3686 -0.0997
39496SOL    HW222020   6.298   1.178   2.513  1.2629 -0.6566 -0.7052
39497SOL     OW22021   7.611  10.985   5.938  0.1694 -0.3855 -0.0617
39497SOL    HW122022   7.523  10.950   5.954 -0.0563 -0.5298 -1.4661
39497SOL    HW222023   7.666  10.907   5.927 -0.0992 -0.3607 -1.9705
39498SOL     OW22024   0.784   9.596   3.400 -0.0551 -0.3899  0.3041
39498SOL    HW122025   0.774   9.684   3.438 -0.9393  0.0629 -0.8966
39498SOL    HW222026   0.813   9.612   3.310 -0.5383 -1.3127 -0.0295
39499SOL     OW22027  10.582  10.517   0.551 -0.0670  0.1401  0.0594
39499SOL    HW122028  10.493  10.540   0.579 -0.6640 -1.7246 -0.1670
39499SOL    HW222029  10.579  10.520   0.456  0.5262  1.4476  0.0692
39500SOL     OW22030   7.060   9.045  10.945 -0.1639 -0.4063 -0.1942
39500SOL    HW122031   7.064   9.113  10.878 -1.7410 -0.3040 -0.2234
39500SOL    HW222032   6.991   8.986  10.916  0.6084 -1.5666  0.2631
39501SOL     OW22033  10.287   4.309   1.172 -0.1027 -0.1037 -0.3077
39501SOL    HW122034  10.350   4.342   1.235 -0.2436 -1.3228  0.5217
39501SOL    HW222035  10.201   4.328   1.210 -0.1870 -1.2789  0.1461
39502SOL     OW22036   3.961   5.468   5.114 -0.5314 -0.0558 -0.0630
39502SOL    HW122037   3.958   5.379   5.149 -2.5640 -0.0488 -0.0753
39502SOL    HW222038   3.919   5.521   5.182 -2.2553  0.3438 -1.3530
39503SOL     OW22039   3.335   4.529   7.226 -0.1973 -0.0047 -1.2063
39503SOL    HW122040   3.331   4.587   7.150  4.2230  0.7971 -1.0877
39503SOL    HW222041   3.358   4.443   7.189 -1.4123 -0.4583 -0.9572
39504SOL     OW22042   9.936   4.298   5.900 -0.2901  0.2172  0.0111
39504SOL    HW122043   9.879   4.262   5.968  0.5116 -0.1536  0.5162
39504SOL    HW222044   9.894   4.379   5.873 -1.0507 -0.0537  0.3619
39505SOL     OW22045   7.511   2.937   5.737  0.0138  0.5362 -0.3370
39505SOL    HW122046   7.479   2.900   5.655 -1.2136 -0.1154  0.4025
39505SOL    HW222047   7.594   2.892   5.753 -0.5176 -0.4995 -0.4297
39506SOL     OW22048   3.690  10.597   2.729  0.2989  0.0202  0.0206
39506SOL    HW122049   3.692  10.509   2.766 -2.5053 -0.0658  0.1917
39506SOL    HW222050   3.597  10.621   2.729  0.9622  3.0823  0.2252
39507SOL     OW22051   8.705   0.926   5.305  0.1093  0.6163  0.4501
39507SOL    HW122052   8.669   1.004   5.263  0.7403  0.1890 -0.9198
39507SOL    HW222053   8.712   0.950   5.398 -0.2130  1.9864  0.1388
39508SOL     OW22054   4.939   0.641   9.299  0.3994 -0.1313 -0.0145
39508SOL    HW122055   4.891   0.712   9.341 -1.9510 -2.2350  1.1768
39508SOL    HW222056   4.949   0.668   9.208 -0.6462  1.5842  0.3382
39509SOL     OW22057   6.441   4.777   7.864 -0.3363  0.4973  0.3521
39509SOL    HW122058   6.513   4.828   7.826 -0.0305 -1.1731 -1.4718
39509SOL    HW222059   6.380   4.843   7.897  1.3989  1.9709  0.7581
39510SOL     OW22060   3.111   0.877   7.083  0.6908  0.5652  0.0145
39510SOL    HW122061   3.083   0.934   7.011  0.0376  0.9825  0.5860
39510SOL    HW222062   3.160   0.806   7.040 -0.0288  0.5895 -0.8729
39511SOL     OW22063   6.582   0.214   0.379 -0.1605  0.9399 -0.2736
39511SOL    HW122064   6.562   0.217   0.473 -0.4099 -0.6826 -0.2543
39511SOL    HW222065   6.635   0.135   0.368 -1.3959  0.2637 -1.7295
39512SOL     OW22066   0.482   4.655   2.771  0.1088  0.2343 -0.0966
39512SOL    HW122067   0.420   4.727   2.760 -0.7963 -0.3232  1.1276
39512SOL    HW222068   0.535   4.656   2.691  0.1745  2.2939 -0.0911
39513SOL     OW22069   7.429   2.206   2.973 -0.0945  0.1225  0.0359
39513SOL    HW122070   7.423   2.287   3.023  2.0941  0.6443 -0.4090
39513SOL    HW222071   7.399   2.137   3.032 -2.1458  1.2263  0.3696
39514SOL     OW22072   8.766   5.346   9.864 -0.5674  0.4484 -0.5338
39514SOL    HW122073   8.826   5.284   9.905 -0.2281  0.4702 -0.9909
39514SOL    HW222074   8.823   5.409   9.819 -0.8493  1.9078  1.0459
39515SOL     OW22075   7.858   9.622   2.614  0.2248  0.8287 -0.1358
39515SOL    HW122076   7.897   9.567   2.545 -0.9596  0.2685 -0.3859
39515SOL    HW222077   7.842   9.706   2.572 -2.3154 -0.0866 -1.2123
39516SOL     OW22078  10.809   0.610   8.294 -0.1733 -0.2258 -0.5649
39516SOL    HW122079  10.903   0.593   8.297 -0.3110 -0.9319 -0.1751
39516SOL    HW222080  10.792   0.666   8.369  0.2850  1.7706 -1.8667
39517SOL     OW22081   8.748   2.739   8.613 -0.2512 -0.1926  0.6262
39517SOL    HW122082   8.778   2.687   8.687 -0.1292  0.8203  1.3096
39517SOL    HW222083   8.739   2.676   8.541  1.8930 -0.8386  0.8534
39518SOL     OW22084   3.388  11.124   7.816  0.5610 -0.5539  0.7050
39518SOL    HW122085   3.346  11.191   7.761  1.3343 -0.2395  0.4683
39518SOL    HW222086   3.330  11.049   7.811  0.4850 -0.4505 -0.3729
39519SOL     OW22087  10.774   0.746   0.634 -0.1669 -0.2303  0.4395
39519SOL    HW122088  10.789   0.818   0.695 -1.7757 -0.6894  1.4495
39519SOL    HW222089  10.775   0.787   0.547 -1.0708  1.0399  1.0006
39520SOL     OW22090   2.419   1.102   5.486 -0.1718 -0.0841 -0.0057
39520SOL    HW122091   2.451   1.053   5.562 -0.0153 -0.4012 -0.2772
39520SOL    HW222092   2.323   1.098   5.494 -0.1567 -0.2255  0.1061
39521SOL     OW22093   3.065  10.800   6.362  0.5873  0.1735 -0.5136
39521SOL    HW122094   3.122  10.731   6.395 -1.0071 -0.9682 -0.0484
39521SOL    HW222095   3.008  10.822   6.436 -0.2080  0.5928 -1.2277
39522SOL     OW22096   6.798   8.344   0.351 -0.2544  0.1408  0.5102
39522SOL    HW122097   6.737   8.279   0.314  0.5700 -0.8151  0.7915
39522SOL    HW222098   6.742   8.402   0.403 -1.1609  0.3371 -0.6559
39523SOL     OW22099   4.639   4.353   4.840 -0.2530 -0.4448 -0.0776
39523SOL    HW122100   4.677   4.429   4.882 -0.1435 -1.1155  1.0668
39523SOL    HW222101   4.555   4.340   4.884 -1.2705  0.2464 -1.6927
39524SOL     OW22102   6.326   6.445   6.202  0.0830 -0.4441  0.0628
39524SOL    HW122103   6.385   6.370   6.214  0.3238 -0.4824 -1.1837
39524SOL    HW222104   6.355   6.509   6.267 -0.7374 -1.7741  1.7999
39525SOL     OW22105   9.540   4.830   4.756 -0.5226 -0.1274  0.2721
39525SOL    HW122106   9.593   4.810   4.679  0.8850 -1.7639  1.5703
39525SOL    HW222107   9.491   4.750   4.772 -1.5237  0.5282  0.5391
39526SOL     OW22108   2.988   1.029   5.679  0.6739  0.1897 -0.2754
39526SOL    HW122109   3.020   0.966   5.744 -0.6571 -1.0604 -0.7897
39526SOL    HW222110   2.900   0.999   5.657  0.5852  1.3622 -1.6757
39527SOL     OW22111   7.529   1.778   8.049  0.2551  0.4350 -0.4537
39527SOL    HW122112   7.607   1.742   8.006 -0.7175 -0.4943 -1.5103
39527SOL    HW222113   7.465   1.786   7.979 -1.8025 -2.2957  0.9320
39528SOL     OW22114   3.498   4.053   1.306 -0.5909  0.3887  0.0582
39528SOL    HW122115   3.415   4.008   1.319  0.3956 -1.0616  2.0501
39528SOL    HW222116   3.564   3.987   1.327  1.0824  1.5443 -1.2763
39529SOL     OW22117   3.900   6.270   9.662 -0.4124 -0.5624  0.7756
39529SOL    HW122118   3.975   6.311   9.704 -1.0245  1.1545  0.2938
39529SOL    HW222119   3.824   6.306   9.708 -1.0840  1.0421 -1.3915
39530SOL     OW22120   2.965   3.158   3.577  0.3655 -0.3156 -0.3383
39530SOL    HW122121   2.970   3.241   3.529 -1.4463  0.9194  1.4472
39530SOL    HW222122   3.057   3.132   3.588  0.9452  1.0558 -1.5610
39531SOL     OW22123   2.620   4.159   6.954 -0.0559  0.1170  0.3631
39531SOL    HW122124   2.676   4.153   7.032  2.2384 -1.2730 -1.2554
39531SOL    HW222125   2.674   4.205   6.890 -1.4293  0.1644 -0.7825
39532SOL     OW22126   1.016   6.697   4.880  0.4600  0.1487  0.0610
39532SOL    HW122127   1.056   6.749   4.949  0.2611  1.4851 -0.8000
39532SOL    HW222128   1.090   6.652   4.838  0.6376 -0.2430  0.7842
39533SOL     OW22129  11.037   7.874   7.946  0.1466  0.1131 -0.6959
39533SOL    HW122130  10.972   7.855   7.878  1.5913 -0.4784 -1.9712
39533SOL    HW222131  11.010   7.821   8.021 -1.4149  0.6893 -0.8093
39534SOL     OW22132   0.612   0.978   9.464  0.7485  0.2315  0.5127
39534SOL    HW122133   0.629   0.990   9.371  0.1617  1.9728  0.5931
39534SOL    HW222134   0.538   1.035   9.483  0.3091 -0.7257  1.8942
39535SOL     OW22135   8.817   6.003   3.279  0.3928  0.2379 -0.5866
39535SOL    HW122136   8.839   5.996   3.186  0.3600  0.4481 -0.6097
39535SOL    HW222137   8.788   6.093   3.290 -1.6934 -0.3540 -0.8321
39536SOL     OW22138   8.215   4.708   2.219 -0.0973  0.0004  0.3141
39536SOL    HW122139   8.247   4.621   2.194 -0.6333  0.0229 -0.4695
39536SOL    HW222140   8.122   4.706   2.199 -0.2965  0.4505  1.1616
39537SOL     OW22141   5.271   4.675   7.154 -0.2422  0.1716  0.0368
39537SOL    HW122142   5.258   4.770   7.163 -0.6742  0.4496 -2.6181
39537SOL    HW222143   5.182   4.640   7.148 -0.0712 -0.3817  0.6277
39538SOL     OW22144   8.738   1.193   6.075  0.2670 -0.3177  0.4748
39538SOL    HW122145   8.787   1.207   5.995  0.2123 -0.9042  0.3288
39538SOL    HW222146   8.649   1.173   6.046  0.7018 -2.6294  0.5426
39539SOL     OW22147   7.376   2.281   6.228 -0.1176 -0.0999  0.5076
39539SOL    HW122148   7.298   2.226   6.218 -0.4585  0.0830  1.9692
39539SOL    HW222149   7.408   2.294   6.138 -0.5328 -1.9338  0.0579
39540SOL     OW22150   7.248   0.109   4.028 -0.0887 -0.0930  0.4358
39540SOL    HW122151   7.193   0.100   4.105  0.1758  1.7867  0.9051
39540SOL    HW222152   7.338   0.106   4.063  0.0280  1.1015  0.2772
39541SOL     OW22153  10.192   0.772   5.816  0.4723  0.1722  0.2809
39541SOL    HW122154  10.277   0.812   5.831 -1.0406  3.1833  1.7203
39541SOL    HW222155  10.173   0.788   5.724  0.7212  1.1114  0.3883
39542SOL     OW22156  10.456   3.353   7.426  0.4980 -0.3002  0.0105
39542SOL    HW122157  10.551   3.354   7.440  0.4948 -0.1553  0.0123
39542SOL    HW222158  10.445   3.328   7.334  0.6030  2.1646 -0.7271
39543SOL     OW22159   1.348   5.192   2.631  0.6040 -0.1103 -0.2887
39543SOL    HW122160   1.416   5.250   2.666  0.3887 -1.1430  1.9939
39543SOL    HW222161   1.345   5.118   2.692 -0.5696 -1.5368 -1.9478
39544SOL     OW22162   1.950   6.934   8.595 -0.7198  0.9129  0.5187
39544SOL    HW122163   1.865   6.974   8.615 -0.1004  2.7489 -0.2458
39544SOL    HW222164   1.940   6.901   8.506 -0.4796  1.6793  0.1948
39545SOL     OW22165   7.923   4.709   4.698  0.0187 -0.7508 -0.1392
39545SOL    HW122166   7.833   4.725   4.668 -0.9248 -1.3000  2.1414
39545SOL    HW222167   7.951   4.793   4.734 -0.4141 -1.0946  1.0488
39546SOL     OW22168   0.337   5.806   0.556 -0.1061  0.5443 -0.2557
39546SOL    HW122169   0.395   5.787   0.629  0.4872  0.4033 -0.7554
39546SOL    HW222170   0.374   5.758   0.482 -1.5815 -0.6180 -0.3037
39547SOL     OW22171   1.561  10.829   9.736  0.3047  0.3248 -0.1545
39547SOL    HW122172   1.570  10.922   9.714  1.5465  0.0900 -0.7814
39547SOL    HW222173   1.468  10.816   9.751  0.2656  1.9414  1.2369
39548SOL     OW22174   9.879   3.577   8.786  0.1332 -0.3397  0.5029
39548SOL    HW122175   9.938   3.636   8.833 -0.1348  1.3259 -1.1386
39548SOL    HW222176   9.792   3.611   8.805  0.0189  0.3570 -1.1217
39549SOL     OW22177   8.469   1.897  11.023 -0.4808  0.1404 -0.1352
39549SOL    HW122178   8.400   1.919  11.085 -0.6196  0.0070 -0.2431
39549SOL    HW222179   8.531   1.844  11.073 -2.3387 -3.0574 -0.9670
39550SOL     OW22180   6.816   0.310   2.932  0.3783  0.2245  0.3772
39550SOL    HW122181   6.756   0.260   2.878  1.7878 -1.0440 -0.1051
39550SOL    HW222182   6.797   0.282   3.022 -1.2943  1.5983  0.4953
39551SOL     OW22183   7.924   0.338   5.487  0.3247  0.0340  0.3229
39551SOL    HW122184   7.967   0.253   5.491  0.1789 -0.1437 -1.2206
39551SOL    HW222185   7.842   0.321   5.439 -0.2666  0.8265  1.0264
39552SOL     OW22186   3.809   6.583   9.219 -0.0618 -0.2374 -0.0083
39552SOL    HW122187   3.829   6.623   9.135  0.2112 -0.9549 -0.2923
39552SOL    HW222188   3.760   6.504   9.198 -0.0565 -0.3837  0.5094
39553SOL     OW22189   6.349   6.146   1.941  0.4286 -0.3539 -0.3047
39553SOL    HW122190   6.415   6.136   1.873  1.0579 -0.3461  0.2934
39553SOL    HW222191   6.314   6.058   1.955 -2.6300  0.1424 -3.4494
39554SOL     OW22192   5.484   0.634   2.146  0.3828 -0.3267 -0.8594
39554SOL    HW122193   5.420   0.588   2.201 -0.7252  1.6986 -0.3537
39554SOL    HW222194   5.496   0.576   2.070 -0.1854 -1.8800  0.1816
39555SOL     OW22195   7.337   9.792   1.852 -0.2064 -0.6054  0.3578
39555SOL    HW122196   7.252   9.827   1.827 -0.1220  0.0634  0.9645
39555SOL    HW222197   7.329   9.772   1.945  0.1009 -1.1591  0.2716
39556SOL     OW22198   8.661   1.316   0.183  0.4148 -0.5842  0.1042
39556SOL    HW122199   8.684   1.235   0.229  2.8050 -0.4553 -0.7764
39556SOL    HW222200   8.594   1.289   0.120 -0.7141 -1.3350  1.5595
39557SOL     OW22201   3.939   9.235   7.511  0.2312  0.1381 -0.1121
39557SOL    HW122202   3.951   9.294   7.585  3.9348  1.3148 -1.4507
39557SOL    HW222203   3.954   9.290   7.434 -2.4959 -1.2584 -1.8204
39558SOL     OW22204   6.342   3.361  10.586  0.0763  0.2560 -0.3531
39558SOL    HW122205   6.432   3.387  10.606 -0.9144  1.1223  3.9880
39558SOL    HW222206   6.304   3.436  10.540  1.3368  0.1557 -1.5969
39559SOL     OW22207   3.289   1.894   2.840  0.1504  0.3369 -0.3695
39559SOL    HW122208   3.316   1.804   2.858  3.3066  1.5551  1.9926
39559SOL    HW222209   3.319   1.911   2.751 -0.9082 -0.9907 -1.0274
39560SOL     OW22210   5.167   3.152  10.424  0.2291  0.1728 -0.1690
39560SOL    HW122211   5.089   3.181  10.377 -0.0047  0.5427  0.4328
39560SOL    HW222212   5.167   3.202  10.505 -0.0680 -1.3473  0.8228
39561SOL     OW22213   4.866   9.572   0.848 -0.4212  0.1008  0.1429
39561SOL    HW122214   4.813   9.589   0.926 -0.5974 -0.9355  0.2740
39561SOL    HW222215   4.942   9.523   0.882 -0.1055  0.3228 -0.2347
39562SOL     OW22216   2.696   3.662   9.841 -0.4731 -0.3476  0.3129
39562SOL    HW122217   2.690   3.600   9.769  0.0347  0.5395 -0.5184
39562SOL    HW222218   2.785   3.653   9.875 -0.1418  0.4600 -0.3185
39563SOL     OW22219   0.853   2.430   1.411 -0.1206  0.2768 -0.0541
39563SOL    HW122220   0.858   2.381   1.328  0.3943  0.6572 -0.2600
39563SOL    HW222221   0.835   2.364   1.477  1.1254 -0.2894 -0.2499
39564SOL     OW22222   1.897   2.878   6.659 -0.1186  0.3786 -0.0511
39564SOL    HW122223   1.934   2.927   6.586 -0.3634  0.6566  0.0109
39564SOL    HW222224   1.959   2.891   6.731 -0.1778  0.5868 -0.0384
39565SOL     OW22225   7.794   0.647   8.200 -0.3503 -0.0436 -0.1616
39565SOL    HW122226   7.869   0.591   8.216  0.4991  1.1732  0.3030
39565SOL    HW222227   7.813   0.689   8.115 -0.4044  0.3977  0.0390
39566SOL     OW22228   9.113   6.605   1.259 -0.4007 -0.1319 -0.1988
39566SOL    HW122229   9.132   6.611   1.165  0.4001 -2.3172 -0.2310
39566SOL    HW222230   9.018   6.613   1.265 -0.3947  0.7807 -1.1047
39567SOL     OW22231   1.288   6.341   6.455 -0.4405 -0.2479 -0.3022
39567SOL    HW122232   1.284   6.340   6.550  1.7053 -0.6493 -0.1668
39567SOL    HW222233   1.340   6.264   6.432  1.4919  1.3120 -1.5818
39568SOL     OW22234  10.734   1.242   5.891 -0.2391 -0.0056 -0.5577
39568SOL    HW122235  10.827   1.260   5.903  0.1377 -2.1569  0.1180
39568SOL    HW222236  10.693   1.280   5.969  0.2020  0.0301 -0.3370
39569SOL     OW22237   4.792   9.927   2.364 -0.0191  0.1134  0.0313
39569SOL    HW122238   4.846   9.849   2.376 -0.1084  0.1196  0.5041
39569SOL    HW222239   4.801   9.949   2.271  0.7840  0.1185  0.1083
39570SOL     OW22240   8.687   8.880   8.720 -0.1277 -0.5639 -0.2620
39570SOL    HW122241   8.729   8.796   8.704 -0.4234 -0.6779 -0.4473
39570SOL    HW222242   8.594   8.860   8.728 -0.3159 -0.1440 -1.2029
39571SOL     OW22243   2.646   1.120   5.774 -0.2823 -1.0825  0.2124
39571SOL    HW122244   2.623   1.050   5.835  0.0906 -1.0090  0.4362
39571SOL    HW222245   2.674   1.074   5.695  0.8915 -1.2058  0.6864
39572SOL     OW22246   0.025   6.465   1.667  0.1744 -0.3133  0.2567
39572SOL    HW122247  -0.066   6.438   1.654  0.4190 -1.3551  0.6289
39572SOL    HW222248   0.024   6.511   1.751 -0.0614  0.0010  0.0881
39573SOL     OW22249  10.705   9.004   0.632  0.3229 -0.0348  0.0849
39573SOL    HW122250  10.721   8.915   0.601  0.2900 -0.3462  0.9445
39573SOL    HW222251  10.724   9.001   0.726 -1.7713  0.3050  0.5792
39574SOL     OW22252   7.980   5.348   7.809  0.4603 -0.7513  0.3492
39574SOL    HW122253   7.947   5.319   7.724  0.7048 -1.4978  0.5005
39574SOL    HW222254   8.036   5.277   7.839  2.5138  0.6009 -0.0508
39575SOL     OW22255   1.352  11.003   9.124 -0.4434 -0.2644 -0.4960
39575SOL    HW122256   1.312  10.995   9.037 -1.0252 -0.6963 -0.1944
39575SOL    HW222257   1.279  11.025   9.182 -0.1500 -0.5271 -0.0224
39576SOL     OW22258  10.824   5.445   6.137  0.0429 -0.2697  0.2354
39576SOL    HW122259  10.794   5.400   6.216  0.1537 -0.9753 -0.1121
39576SOL    HW222260  10.886   5.384   6.097 -0.8660 -0.4288 -0.9837
39577SOL     OW22261   2.477   9.406   7.809 -0.0152 -0.2054 -0.1647
39577SOL    HW122262   2.492   9.325   7.859  3.3709  0.2293 -0.2937
39577SOL    HW222263   2.447   9.469   7.874 -0.1337 -0.8426  0.4168
39578SOL     OW22264   8.517  10.064   7.183  0.0851 -0.6006 -0.0839
39578SOL    HW122265   8.549   9.997   7.243 -0.9375 -2.5082 -1.5792
39578SOL    HW222266   8.424  10.074   7.207 -0.0867 -0.6749 -0.7152
39579SOL     OW22267   9.012   6.243   0.569  0.1883  0.2641 -0.1956
39579SOL    HW122268   9.106   6.240   0.551 -0.1031  0.7254 -2.0218
39579SOL    HW222269   8.992   6.156   0.603  0.9695 -0.5318 -1.6422
39580SOL     OW22270   5.414   3.226   1.204  0.6537 -0.2379  0.3336
39580SOL    HW122271   5.474   3.181   1.264  1.3364 -1.6402 -1.2983
39580SOL    HW222272   5.438   3.192   1.118 -0.6093  1.3457 -0.6827
39581SOL     OW22273   3.632   8.962   5.007  0.1361  0.2905 -0.4290
39581SOL    HW122274   3.716   8.936   4.969 -0.7086 -0.7556 -1.6909
39581SOL    HW222275   3.626   9.056   4.990  1.1329  0.4289 -0.1087
39582SOL     OW22276   6.752   6.977   5.556 -0.2897  1.1953 -0.1029
39582SOL    HW122277   6.769   6.891   5.518 -1.8400  0.8916 -0.1802
39582SOL    HW222278   6.675   7.009   5.509 -0.4532  2.1025  0.7488
39583SOL     OW22279   9.546   1.356   5.832 -0.1652 -0.6859 -0.0922
39583SOL    HW122280   9.495   1.286   5.792  0.2797 -0.3425 -1.2846
39583SOL    HW222281   9.543   1.428   5.769  0.9385 -0.2975  0.2702
39584SOL     OW22282   9.846   3.679   5.417 -0.1980 -0.2315  0.3425
39584SOL    HW122283   9.759   3.647   5.391 -0.1822 -1.6053  1.7856
39584SOL    HW222284   9.840   3.774   5.410 -0.9323 -0.3874 -2.1906
39585SOL     OW22285   2.594   1.599  10.227  0.2802  0.4149 -0.1274
39585SOL    HW122286   2.514   1.547  10.217  0.6519 -0.0929 -0.5167
39585SOL    HW222287   2.624   1.614  10.138  0.7749  0.3571  0.0281
39586SOL     OW22288   8.891   6.881   2.618 -0.1590 -0.2204  0.5812
39586SOL    HW122289   8.904   6.841   2.704 -1.0206 -0.7464  0.4761
39586SOL    HW222290   8.979   6.890   2.583  0.2839  0.7401  1.8403
39587SOL     OW22291   0.281  10.975   6.949 -0.0404 -0.4347 -0.0452
39587SOL    HW122292   0.300  10.925   7.029 -0.3121 -1.8950 -0.8553
39587SOL    HW222293   0.225  11.047   6.979  0.6434 -0.3911  1.2153
39588SOL     OW22294   0.387   3.108   2.084 -0.7507 -0.2791  0.3446
39588SOL    HW122295   0.399   3.102   2.179 -0.3391 -0.8497  0.2540
39588SOL    HW222296   0.392   3.202   2.066  1.6209 -0.3168  0.5654
39589SOL     OW22297   9.604   0.080   4.298 -0.3073 -0.3908 -0.3029
39589SOL    HW122298   9.649   0.164   4.305  0.7462 -1.0481  1.7900
39589SOL    HW222299   9.529   0.097   4.242  0.5277  1.6474 -0.8845
39590SOL     OW22300   2.689   8.953   1.482  0.2868  0.2300 -0.1227
39590SOL    HW122301   2.634   8.980   1.409 -0.7724 -1.4584 -0.0060
39590SOL    HW222302   2.778   8.956   1.446 -0.1096  0.4502 -1.1458
39591SOL     OW22303  10.036   4.749   1.241 -0.6182  0.7368 -0.0116
39591SOL    HW122304   9.968   4.683   1.231 -1.6005  1.5535  1.0602
39591SOL    HW222305  10.022   4.811   1.170  0.7116 -0.4980 -1.4230
39592SOL     OW22306   1.517   0.403   1.349  0.5043  1.0978 -0.2759
39592SOL    HW122307   1.543   0.351   1.272 -1.1307  0.8250 -0.6779
39592SOL    HW222308   1.598   0.412   1.399  1.1775 -0.5034 -0.9841
39593SOL     OW22309   6.824   6.646   8.151  0.0662  0.5757  0.6496
39593SOL    HW122310   6.799   6.734   8.120 -3.3447 -1.2539 -2.6456
39593SOL    HW222311   6.777   6.636   8.234 -1.9444  0.9519 -0.3704
39594SOL     OW22312   3.961  10.856   5.546  0.1800  0.3940 -0.1899
39594SOL    HW122313   3.920  10.938   5.521 -0.4570 -0.0503 -0.6424
39594SOL    HW222314   3.891  10.806   5.589  0.3984 -0.1476 -0.4580
39595SOL     OW22315   1.121   3.431   8.567 -0.2535  0.0864  0.3442
39595SOL    HW122316   1.104   3.348   8.523 -0.8436  0.9386 -1.0817
39595SOL    HW222317   1.179   3.407   8.640  0.8166 -1.3598 -0.9134
39596SOL     OW22318   6.436   8.687   3.050  0.2400 -0.8812  0.2916
39596SOL    HW122319   6.486   8.607   3.068  0.2466 -0.6069  1.5872
39596SOL    HW222320   6.353   8.655   3.014 -0.2645 -1.5682  1.9643
39597SOL     OW22321   8.685   9.024   5.911 -0.3041 -0.0624 -0.1530
39597SOL    HW122322   8.595   9.054   5.922 -0.2807 -0.3969  1.0605
39597SOL    HW222323   8.728   9.046   5.993  0.5069 -0.6656 -0.4048
39598SOL     OW22324  10.071   4.833   0.133 -0.0853  0.4818  0.1916
39598SOL    HW122325   9.993   4.784   0.160  0.9772 -1.2664  0.2432
39598SOL    HW222326  10.038   4.896   0.068 -1.2262 -1.8269 -1.6030
39599SOL     OW22327   3.013   5.745   8.853 -0.1473 -0.1204  0.5108
39599SOL    HW122328   3.088   5.779   8.806 -0.2892 -0.0187  0.3557
39599SOL    HW222329   2.963   5.823   8.879 -0.3152 -0.1958  0.4180
39600SOL     OW22330   4.938   0.528   3.760  0.0126  0.4200  0.1257
39600SOL    HW122331   4.985   0.607   3.734 -1.0016  1.3737  1.0890
39600SOL    HW222332   4.986   0.456   3.718  2.5185  1.3050  1.3019
39601SOL     OW22333   8.174  10.570   7.448 -0.4364 -0.6487 -0.2900
39601SOL    HW122334   8.129  10.508   7.390  0.0309 -0.5534 -0.7506
39601SOL    HW222335   8.125  10.563   7.531  0.6105 -2.8920  0.2239
39602SOL     OW22336   8.961   0.443   8.034  0.9464  0.4525  0.4183
39602SOL    HW122337   8.913   0.469   8.113  0.6124 -0.9856  0.7225
39602SOL    HW222338   9.044   0.491   8.040  1.4682 -0.5618  2.3251
39603SOL     OW22339   8.501   7.654   6.827  0.1336 -0.5194  0.1605
39603SOL    HW122340   8.522   7.596   6.900  0.8132  0.6012  0.8872
39603SOL    HW222341   8.508   7.598   6.750 -0.3691 -1.6681  0.9209
39604SOL     OW22342   7.832   8.955   3.775 -0.2127  0.0268 -0.1259
39604SOL    HW122343   7.909   9.001   3.742  1.2428 -2.5177 -0.5206
39604SOL    HW222344   7.762   8.979   3.714  0.4662  1.6277 -0.3277
39605SOL     OW22345   6.940   0.557   5.744 -0.4834  0.1764 -0.1972
39605SOL    HW122346   6.978   0.608   5.816  1.7047  0.8226 -1.7221
39605SOL    HW222347   6.858   0.602   5.725  0.1429  1.5691  0.2238
39606SOL     OW22348   8.471   9.708   0.711  0.4021 -0.3672  0.0617
39606SOL    HW122349   8.433   9.794   0.729  1.5484  0.4266 -1.0912
39606SOL    HW222350   8.537   9.725   0.643  0.9406 -2.0958  0.1050
39607SOL     OW22351   5.559   9.291   2.492 -0.4585 -0.2389 -0.0350
39607SOL    HW122352   5.586   9.263   2.580 -2.2061  0.2331  0.6925
39607SOL    HW222353   5.612   9.369   2.474 -0.5984  0.0966  0.9393
39608SOL     OW22354  10.340   4.176   4.667 -0.6577 -0.3952  0.6565
39608SOL    HW122355  10.329   4.082   4.682  0.7122 -0.7135 -0.1790
39608SOL    HW222356  10.311   4.189   4.577  1.0927 -0.4164  0.0557
39609SOL     OW22357   6.279   0.737   6.339 -0.0336 -0.0584  0.8226
39609SOL    HW122358   6.371   0.725   6.361  0.5100  0.6656 -0.8317
39609SOL    HW222359   6.238   0.766   6.420  1.1498 -0.6066  1.6395
39610SOL     OW22360  10.096   1.990   8.255 -0.2238  0.0363 -0.3894
39610SOL    HW122361  10.020   2.048   8.245  0.6030  0.9309 -1.9214
39610SOL    HW222362  10.058   1.904   8.273 -1.5292  0.7760  0.5272
39611SOL     OW22363   1.600   9.388   1.234  0.1915 -0.4392 -0.2126
39611SOL    HW122364   1.657   9.361   1.162  0.6009 -1.2588  0.3942
39611SOL    HW222365   1.646   9.461   1.275  1.2843 -1.6245  0.7942
39612SOL     OW22366   2.233   3.280   1.532 -0.0504  0.3760  0.1862
39612SOL    HW122367   2.232   3.335   1.454  0.3735 -0.5860 -0.5145
39612SOL    HW222368   2.144   3.285   1.567  0.0153  1.6053  0.2217
39613SOL     OW22369   0.325   4.726   9.136  0.2400  0.0488 -0.0489
39613SOL    HW122370   0.261   4.778   9.185 -0.4633 -0.9057  0.0562
39613SOL    HW222371   0.405   4.779   9.138 -0.3463  0.9394  0.4048
39614SOL     OW22372   4.911   9.421   0.325  0.2222 -0.0987  0.0945
39614SOL    HW122373   4.823   9.437   0.291  0.1876  1.1921  0.7465
39614SOL    HW222374   4.897   9.391   0.415  0.4382 -0.4727  0.0065
39615SOL     OW22375   4.249   4.445   2.987  0.6976  0.4211  0.8298
39615SOL    HW122376   4.215   4.432   2.899  0.9912 -0.7876  0.8745
39615SOL    HW222377   4.218   4.369   3.036  1.5905  0.4398  1.4462
39616SOL     OW22378   1.558  10.390   7.373  0.1977 -0.4808  0.2178
39616SOL    HW122379   1.560  10.317   7.436 -1.3159 -0.5791  0.1766
39616SOL    HW222380   1.579  10.349   7.289 -0.4710 -0.8443  0.2240
39617SOL     OW22381   5.843   5.202   1.374  0.2783  0.4985 -0.0671
39617SOL    HW122382   5.791   5.228   1.298 -1.5836  0.2130  1.0331
39617SOL    HW222383   5.873   5.285   1.413 -3.4352  1.1134  1.9461
39618SOL     OW22384   9.243   7.578   6.481  0.2075 -0.1150 -0.8028
39618SOL    HW122385   9.242   7.671   6.461  0.8488 -0.1047 -0.8128
39618SOL    HW222386   9.154   7.558   6.510 -0.5920  0.0151 -2.9866
39619SOL     OW22387   8.086   5.639   8.118  0.8301  0.3515 -0.5365
39619SOL    HW122388   8.017   5.576   8.102  1.8976 -0.7408 -1.0093
39619SOL    HW222389   8.144   5.632   8.042  0.6445  2.3944 -0.9301
39620SOL     OW22390   8.342   7.124   0.324 -0.2203 -0.2609 -1.0381
39620SOL    HW122391   8.293   7.109   0.404  2.3709 -2.0626  0.3646
39620SOL    HW222392   8.347   7.039   0.282  1.5563 -0.1379 -1.1528
39621SOL     OW22393   4.318   0.670   4.241  0.1347  0.7332 -0.3196
39621SOL    HW122394   4.300   0.593   4.186  3.2878 -0.2492 -0.1669
39621SOL    HW222395   4.273   0.742   4.196 -0.0198 -0.5940 -2.4424
39622SOL     OW22396   2.860   3.216   5.355  0.2998 -0.0448  0.2108
39622SOL    HW122397   2.929   3.157   5.325  2.0450  1.7662  0.3793
39622SOL    HW222398   2.815   3.243   5.275 -0.6642 -1.7319  0.1604
39623SOL     OW22399   4.565   2.166   8.289 -0.1063  0.1525 -0.5852
39623SOL    HW122400   4.476   2.132   8.299 -0.0664  0.5508  1.7463
39623SOL    HW222401   4.604   2.112   8.220 -0.8830 -2.7547  1.0823
39624SOL     OW22402   2.538   8.130   6.988  0.4841  0.2658  0.0904
39624SOL    HW122403   2.541   8.085   6.904 -0.2767  0.9542 -0.3194
39624SOL    HW222404   2.531   8.223   6.965 -0.5993  0.4075  0.8875
39625SOL     OW22405   7.551   3.220   5.046 -0.3436  0.4790  0.6821
39625SOL    HW122406   7.586   3.157   4.983 -0.1925 -0.8104  2.0027
39625SOL    HW222407   7.465   3.185   5.070 -0.0589  0.5024  1.7884
39626SOL     OW22408   6.030   3.246  10.627  0.5739 -0.0250 -0.1274
39626SOL    HW122409   6.109   3.212  10.668 -1.0763 -0.1109  3.3524
39626SOL    HW222410   6.043   3.341  10.624  1.4671 -0.1707 -1.1871
39627SOL     OW22411   3.927   1.105   6.819  0.5397  0.0207 -0.2577
39627SOL    HW122412   3.964   1.179   6.771  0.6250  0.6497  0.7525
39627SOL    HW222413   3.833   1.111   6.804  0.5534  0.2930 -0.2269
39628SOL     OW22414   4.006   6.301   0.988  0.6838  0.1848 -0.6690
39628SOL    HW122415   3.943   6.291   1.059  0.5342  1.1031 -0.6515
39628SOL    HW222416   4.039   6.213   0.971 -1.4306 -0.5279 -1.4454
39629SOL     OW22417   0.091   5.611   8.948 -0.1963 -0.3151  0.0626
39629SOL    HW122418   0.071   5.523   8.917 -1.2792 -0.6144  1.4973
39629SOL    HW222419   0.124   5.599   9.037  1.3641  0.6192 -0.3399
39630SOL     OW22420   5.914  10.400   5.818  0.1963 -0.0560 -0.2070
39630SOL    HW122421   5.894  10.394   5.725  0.0163 -0.1130 -0.1666
39630SOL    HW222422   5.923  10.493   5.835 -1.9266  0.1294  0.1482
39631SOL     OW22423   4.166   4.610   7.713  0.4463 -0.1740  0.0857
39631SOL    HW122424   4.142   4.524   7.747  2.4687 -0.6499  0.3930
39631SOL    HW222425   4.087   4.663   7.726 -0.2794 -1.5162  1.4520
39632SOL     OW22426   4.084   6.888  10.544  0.2155  0.1304  0.2436
39632SOL    HW122427   4.173   6.910  10.571  0.6358 -1.4777  0.2517
39632SOL    HW222428   4.078   6.793  10.556 -1.1364  0.0509 -0.8349
39633SOL     OW22429   8.570   8.367   2.369  0.2318 -0.3533  0.5483
39633SOL    HW122430   8.654   8.327   2.391  1.2718  1.8203  0.7633
39633SOL    HW222431   8.571   8.375   2.274  1.1994  1.5086  0.6840
39634SOL     OW22432   8.296   5.346  10.706 -0.4890  0.3545 -0.3244
39634SOL    HW122433   8.316   5.438  10.728 -0.3639 -0.0213  1.2686
39634SOL    HW222434   8.371   5.318  10.653  0.1345  0.7953  0.3011
39635SOL     OW22435   3.771   4.345   6.078 -0.8126 -0.1762 -0.3154
39635SOL    HW122436   3.781   4.281   6.007  1.5314 -2.3347  1.7570
39635SOL    HW222437   3.680   4.375   6.070 -0.5010  0.3151 -4.6009
39636SOL     OW22438   0.794   8.138   7.481  0.1070 -0.0662  0.1064
39636SOL    HW122439   0.749   8.161   7.562 -1.2930 -0.1482 -0.6210
39636SOL    HW222440   0.854   8.210   7.466 -0.3789  0.4629  0.6630
39637SOL     OW22441   6.350   0.090   6.915  0.2838  0.4648  0.3762
39637SOL    HW122442   6.309   0.109   6.999  0.3677  0.2614  0.4652
39637SOL    HW222443   6.326  -0.001   6.896  1.6369 -0.0526  0.9932
39638SOL     OW22444   1.654   4.983   7.552  0.4391  0.4995  0.0280
39638SOL    HW122445   1.633   5.064   7.506  0.3023  0.6174  0.2956
39638SOL    HW222446   1.718   4.939   7.496 -0.5954  0.0773 -0.8451
39639SOL     OW22447  10.729   3.995   4.561 -0.0541 -0.2810 -0.4140
39639SOL    HW122448  10.734   4.065   4.496 -0.1531  0.9659  0.8697
39639SOL    HW222449  10.713   3.916   4.510 -0.4703  0.7051 -1.8700
39640SOL     OW22450   5.702   5.579   7.089 -0.3432 -0.3520 -0.4374
39640SOL    HW122451   5.620   5.627   7.075  0.3424  1.7811  2.1212
39640SOL    HW222452   5.674   5.496   7.128 -1.3225  1.1268  2.2585
39641SOL     OW22453  10.877   4.899   8.076  0.3905  0.3823  0.0519
39641SOL    HW122454  10.827   4.922   7.998 -0.3636 -0.4806  0.2713
39641SOL    HW222455  10.926   4.820   8.052  0.3765  0.2767  0.3616
39642SOL     OW22456   4.049   8.251   8.831  0.1870  0.0348 -0.1515
39642SOL    HW122457   4.039   8.250   8.927 -0.2722 -0.4780 -0.2001
39642SOL    HW222458   3.979   8.308   8.801  0.2744  0.1223 -0.1883
39643SOL     OW22459   3.947   3.020   1.769 -0.5979  0.5370  0.5437
39643SOL    HW122460   3.855   3.033   1.748 -0.5494  2.3186  1.2119
39643SOL    HW222461   3.960   3.069   1.850  1.1428  1.1266 -0.0464
39644SOL     OW22462   5.612   8.720  10.991  0.3241 -0.2616  0.5220
39644SOL    HW122463   5.609   8.726  10.895 -0.5022  0.1755  0.5715
39644SOL    HW222464   5.687   8.774  11.015 -0.4595  1.0067  0.2175
39645SOL     OW22465   4.952   6.005   5.288  0.4690  0.5046 -0.4470
39645SOL    HW122466   4.921   6.072   5.348  1.4707 -0.5284  1.2973
39645SOL    HW222467   4.905   6.022   5.206 -3.0287  0.2843  1.3693
39646SOL     OW22468   5.010   0.276  10.130  0.0520  0.3429  0.2786
39646SOL    HW122469   4.974   0.222  10.060  0.3797  0.6671 -0.1371
39646SOL    HW222470   4.991   0.227  10.210  1.1024 -0.8130 -0.1571
39647SOL     OW22471   1.802   8.436   2.847 -0.0490  0.5196 -0.3994
39647SOL    HW122472   1.753   8.477   2.919 -0.5750 -1.8204  0.6850
39647SOL    HW222473   1.880   8.490   2.837 -0.5851  1.6456  1.0634
39648SOL     OW22474   9.297   9.887  10.654 -0.2311 -0.1036  0.1321
39648SOL    HW122475   9.222   9.903  10.597  0.4579  1.4338 -0.3970
39648SOL    HW222476   9.275   9.807  10.701 -2.2410  0.3610  0.0635
39649SOL     OW22477   1.140   7.396   9.101  0.0497 -0.1275  0.2396
39649SOL    HW122478   1.089   7.410   9.181 -0.4515 -2.7022  0.4655
39649SOL    HW222479   1.231   7.393   9.130 -0.1014 -0.6609  0.6779
39650SOL     OW22480   6.108   1.741   4.847  0.2215 -0.0933 -0.5971
39650SOL    HW122481   6.094   1.646   4.841  1.6106 -0.3583  0.0727
39650SOL    HW222482   6.100   1.772   4.757  2.8254 -1.3173 -1.3248
39651SOL     OW22483   9.709  10.235   4.486  0.1093 -0.1619  0.3055
39651SOL    HW122484   9.683  10.146   4.509 -3.8755  0.3264 -1.3954
39651SOL    HW222485   9.675  10.289   4.558  3.7059  0.0742  2.0424
39652SOL     OW22486  10.042   3.722   1.243 -0.9067 -0.5830  0.1334
39652SOL    HW122487  10.044   3.808   1.284  1.6118 -0.9687  0.9648
39652SOL    HW222488   9.984   3.670   1.298 -1.7703  0.3242  0.1048
39653SOL     OW22489   8.363   3.748  10.608  0.4150  0.1664 -0.2570
39653SOL    HW122490   8.436   3.691  10.585  0.4880  0.5815 -1.0906
39653SOL    HW222491   8.391   3.790  10.690  1.1252  0.3350 -0.5770
39654SOL     OW22492   6.863   6.953   0.560  0.0305 -0.0840  0.1883
39654SOL    HW122493   6.912   6.952   0.642  0.3791  0.5475  0.0002
39654SOL    HW222494   6.922   6.996   0.498 -1.4185  2.4526  0.4025
39655SOL     OW22495  10.742   8.661   7.173 -0.3255 -0.6925  0.7065
39655SOL    HW122496  10.834   8.658   7.150  0.0236 -1.6252  2.0863
39655SOL    HW222497  10.697   8.618   7.100  0.4759 -1.4491  0.6453
39656SOL     OW22498   7.805   4.348   9.225  0.0199  0.3700 -0.6628
39656SOL    HW122499   7.761   4.353   9.310 -2.0935  0.2652 -1.6961
39656SOL    HW222500   7.844   4.261   9.224  0.0611  0.3646  0.1893
39657SOL     OW22501   9.642   5.797   8.879  0.1383 -0.4529 -0.2335
39657SOL    HW122502   9.551   5.768   8.886  0.4225 -1.7601 -1.5732
39657SOL    HW222503   9.641   5.887   8.911 -1.0901 -1.3168  2.5245
39658SOL     OW22504   7.711   6.133   2.080  0.4336 -0.0218 -0.1062
39658SOL    HW122505   7.740   6.049   2.115  1.3609  1.0728  1.9321
39658SOL    HW222506   7.792   6.178   2.055  0.0258  0.5858 -0.3656
39659SOL     OW22507   2.972   7.218  10.626  0.3545 -0.3122 -1.0167
39659SOL    HW122508   3.014   7.246  10.544  3.1666  0.5280  0.5991
39659SOL    HW222509   2.977   7.122  10.622 -0.4997 -0.3363 -2.2544
39660SOL     OW22510   3.484   6.757   8.771  0.3020  0.1279 -0.3008
39660SOL    HW122511   3.408   6.709   8.804  1.7170 -1.4078  0.8781
39660SOL    HW222512   3.448   6.842   8.743 -1.7946 -0.4694  0.3634
39661SOL     OW22513   1.053   0.389   3.107  0.1237 -0.1075  0.2692
39661SOL    HW122514   1.129   0.403   3.165  0.5466 -1.1479 -0.0100
39661SOL    HW222515   1.047   0.470   3.056  0.3585  0.4292  1.0738
39662SOL     OW22516   6.842   8.544   6.371  0.1231  0.5657 -0.2019
39662SOL    HW122517   6.756   8.501   6.367 -0.7313  2.2830 -1.4313
39662SOL    HW222518   6.892   8.491   6.433 -1.5675 -0.9203 -0.0221
39663SOL     OW22519   0.906   8.260   3.155 -0.7472  0.1500 -0.2457
39663SOL    HW122520   0.990   8.225   3.125 -1.0202 -0.1526 -0.6591
39663SOL    HW222521   0.840   8.206   3.111 -1.1771 -1.5410  2.2506
39664SOL     OW22522   9.500   4.311   1.464 -0.3708 -0.3000 -0.2866
39664SOL    HW122523   9.404   4.316   1.473 -0.3220  2.7134 -0.6287
39664SOL    HW222524   9.531   4.291   1.552 -1.2263  1.4468  0.4559
39665SOL     OW22525   2.354   0.808   3.883  0.1405  0.0247  0.1835
39665SOL    HW122526   2.410   0.744   3.925 -2.1280 -2.2813 -0.0815
39665SOL    HW222527   2.335   0.770   3.797 -0.8633  1.3009 -0.1867
39666SOL     OW22528   3.409   7.095   3.944  0.3069 -0.3576 -0.3657
39666SOL    HW122529   3.416   7.183   3.980 -0.1694 -0.3778 -0.2175
39666SOL    HW222530   3.497   7.059   3.950  0.5861  0.2406 -0.7692
39667SOL     OW22531   9.646   6.958   0.098 -0.5064  0.4918  0.3042
39667SOL    HW122532   9.600   6.874   0.097  0.1711  0.0712  1.5095
39667SOL    HW222533   9.669   6.971   0.190 -1.1132  2.2991  0.2311
39668SOL     OW22534   0.926   6.135   6.034  0.1353 -0.5750 -0.6366
39668SOL    HW122535   0.887   6.170   5.954  0.3160  1.1739  0.0165
39668SOL    HW222536   1.020   6.144   6.021  0.1520  0.6339  0.1337
39669SOL     OW22537   2.758   4.875   4.417  0.1544 -0.0328  0.2188
39669SOL    HW122538   2.765   4.969   4.399  0.7050  0.0493  0.8298
39669SOL    HW222539   2.664   4.858   4.421 -0.0775 -0.0997 -2.9090
39670SOL     OW22540   9.606   1.115   4.639  0.0642 -0.0074  0.6813
39670SOL    HW122541   9.540   1.116   4.707  1.0161  1.5230  1.6384
39670SOL    HW222542   9.689   1.107   4.686  0.6564 -0.5351 -0.4064
39671SOL     OW22543   3.451   2.902   8.267 -0.0848 -0.0858 -0.4726
39671SOL    HW122544   3.506   2.852   8.327 -0.2977 -0.0389 -0.2397
39671SOL    HW222545   3.506   2.975   8.239 -0.8073  1.3570  1.6480
39672SOL     OW22546   5.730   5.980   0.296  0.2858 -0.3869  0.1377
39672SOL    HW122547   5.719   5.939   0.211 -1.2011  1.0290 -0.4131
39672SOL    HW222548   5.822   6.005   0.299  0.3722 -0.5046 -1.0282
39673SOL     OW22549   6.922   5.509   7.868  0.0311  0.1786  0.8473
39673SOL    HW122550   6.937   5.497   7.775 -2.4475 -0.5489  0.4668
39673SOL    HW222551   6.860   5.582   7.873  0.0586  0.1510  1.9197
39674SOL     OW22552   6.308   5.553   0.045 -0.2694  0.1134  0.6585
39674SOL    HW122553   6.325   5.647   0.042 -0.2502  0.1000  0.2354
39674SOL    HW222554   6.326   5.528   0.136 -0.5536  0.5682  0.8407
39675SOL     OW22555   7.122   8.878   1.639  0.0569  0.8238  0.0064
39675SOL    HW122556   7.110   8.823   1.716 -0.3761 -1.7542 -1.7812
39675SOL    HW222557   7.206   8.921   1.653 -0.0498  0.4947  1.9187
39676SOL     OW22558  10.707   1.827   5.345 -0.0852  0.0278  0.3864
39676SOL    HW122559  10.667   1.912   5.363 -0.2760 -0.0574  0.3678
39676SOL    HW222560  10.782   1.847   5.289 -1.3038  0.0010 -1.3179
39677SOL     OW22561   1.992   3.445   9.195 -0.2469  0.4603  0.2287
39677SOL    HW122562   2.035   3.359   9.203  0.0347  0.5497 -0.2692
39677SOL    HW222563   1.924   3.432   9.130  0.6371  0.9201 -0.8276
39678SOL     OW22564   4.787   7.404   5.324 -0.2471 -0.2102  0.2576
39678SOL    HW122565   4.807   7.326   5.271 -0.9474 -0.4668  0.3520
39678SOL    HW222566   4.721   7.451   5.272 -2.1765 -1.2930  1.5772
39679SOL     OW22567   9.135   6.123  10.768 -0.6593 -0.3205  0.0282
39679SOL    HW122568   9.195   6.106  10.840 -1.9677  1.5288  1.6596
39679SOL    HW222569   9.175   6.194  10.719 -0.6528 -0.2975  0.0664
39680SOL     OW22570   2.113   5.430   2.745 -0.5074  0.1836 -0.2422
39680SOL    HW122571   2.045   5.390   2.799  0.2231 -1.3186 -0.4035
39680SOL    HW222572   2.191   5.429   2.799 -0.2078  0.3563 -0.6698
39681SOL     OW22573   3.256   1.541   8.444  0.1689  0.4998  0.2468
39681SOL    HW122574   3.316   1.516   8.374 -2.7788 -2.1682 -1.6183
39681SOL    HW222575   3.200   1.608   8.405 -0.7381 -0.1409  0.4097
39682SOL     OW22576   1.178   5.870   8.568 -0.8840  0.2172 -0.1046
39682SOL    HW122577   1.156   5.796   8.625 -1.7195  1.7150  1.5872
39682SOL    HW222578   1.268   5.853   8.540 -0.7874 -1.0395  0.8790
39683SOL     OW22579   9.136  10.019   2.745  0.0316  0.6052  0.5100
39683SOL    HW122580   9.210  10.079   2.738  0.4151  0.2590  1.5150
39683SOL    HW222581   9.175   9.935   2.772 -0.3415 -0.4536 -1.9384
39684SOL     OW22582   4.853   5.650   4.985 -0.0933  0.1021 -0.0036
39684SOL    HW122583   4.896   5.659   5.070 -0.5541 -0.0730  0.2490
39684SOL    HW222584   4.818   5.737   4.966  2.0541  0.7950 -1.1387
39685SOL     OW22585   4.595   2.403   3.887  0.1756  0.0800  0.9278
39685SOL    HW122586   4.506   2.428   3.908  0.1937  1.0766 -0.0622
39685SOL    HW222587   4.588   2.314   3.853 -0.5709  0.4490  0.0717
39686SOL     OW22588   9.932   5.018   8.924  0.4125 -0.3900 -0.1284
39686SOL    HW122589   9.978   4.975   8.996 -1.3886 -0.3081  1.1343
39686SOL    HW222590   9.906   4.947   8.865 -0.2513 -0.7488  0.5881
39687SOL     OW22591   4.860   3.620   5.726 -0.3346  0.1113  0.2737
39687SOL    HW122592   4.939   3.640   5.776 -0.5292  1.3327  0.1413
39687SOL    HW222593   4.799   3.584   5.790  0.4339 -1.1716  0.3078
39688SOL     OW22594   0.148   6.607   0.019  0.6945 -0.2314  0.5583
39688SOL    HW122595   0.187   6.554  -0.051 -0.5708 -0.7113  0.1958
39688SOL    HW222596   0.129   6.545   0.089  1.6695  0.1998  1.2186
39689SOL     OW22597   2.774   2.366   1.737 -0.1503  0.3683 -0.0464
39689SOL    HW122598   2.855   2.372   1.686 -0.3306  1.0690 -0.2618
39689SOL    HW222599   2.705   2.387   1.675 -0.6048 -1.1922 -0.1124
39690SOL     OW22600   5.199   9.755   3.256 -0.0440 -0.3104  0.1985
39690SOL    HW122601   5.232   9.665   3.260 -0.8740 -0.6103  0.7685
39690SOL    HW222602   5.183   9.778   3.348 -2.3705 -0.5831 -0.0682
39691SOL     OW22603   2.049   9.630   2.694  0.5777  0.6113  0.4120
39691SOL    HW122604   2.041   9.615   2.789  0.6965 -1.9364  0.0959
39691SOL    HW222605   2.142   9.644   2.680  0.7693 -0.4269  0.5451
39692SOL     OW22606   4.839   0.785   2.736 -0.3299  0.2981  0.0996
39692SOL    HW122607   4.787   0.709   2.710  0.3775 -0.1548 -0.0287
39692SOL    HW222608   4.911   0.788   2.674 -1.8359  2.7899 -1.7171
39693SOL     OW22609   1.288   7.374  10.992  0.3780 -0.2369 -0.4951
39693SOL    HW122610   1.378   7.356  10.967  0.6630  0.7039 -0.1737
39693SOL    HW222611   1.246   7.405  10.912 -0.0237 -1.8983 -0.9668
39694SOL     OW22612   7.126   9.850   1.010  0.1421  0.3933 -0.2063
39694SOL    HW122613   7.089   9.782   0.954  3.0951 -0.1245 -1.7162
39694SOL    HW222614   7.106   9.932   0.964 -0.0842  0.2335 -0.3970
39695SOL     OW22615   1.621  11.031   9.083  0.1430  0.0589  0.3626
39695SOL    HW122616   1.529  11.042   9.105 -0.3679 -0.2581 -1.4225
39695SOL    HW222617   1.636  10.937   9.090  0.1016  0.0122 -0.1468
39696SOL     OW22618   5.334   0.714  10.403  0.3937  0.2397  0.1439
39696SOL    HW122619   5.248   0.671  10.407  1.4113 -2.0001 -0.5322
39696SOL    HW222620   5.384   0.674  10.474  1.3676  0.2910 -0.4886
39697SOL     OW22621   1.133   6.658   8.787 -0.2873  0.3122  0.3150
39697SOL    HW122622   1.165   6.682   8.874  0.9823 -0.5518  0.1044
39697SOL    HW222623   1.205   6.678   8.728  1.6416 -5.1801  0.2623
39698SOL     OW22624   4.819  10.894   3.266 -0.1198  0.6447  0.2945
39698SOL    HW122625   4.788  10.970   3.217  0.1519  0.1563 -0.6580
39698SOL    HW222626   4.840  10.829   3.199  1.0390  0.2392  1.0166
39699SOL     OW22627  10.894   1.725   2.480 -0.4045  0.1594 -0.0271
39699SOL    HW122628  10.887   1.767   2.566  1.9037 -4.6333  2.8737
39699SOL    HW222629  10.979   1.753   2.446 -0.4767  0.5782  0.1354
39700SOL     OW22630   7.346   0.097   9.658 -0.1379 -0.4105  0.2542
39700SOL    HW122631   7.399   0.136   9.588 -1.1557  0.3001 -0.1505
39700SOL    HW222632   7.334   0.006   9.631 -0.9204 -0.0280 -0.7676
39701SOL     OW22633   6.180   7.182   8.455  0.7816 -0.4897 -0.0470
39701SOL    HW122634   6.105   7.138   8.414 -0.0234  0.9568 -0.1794
39701SOL    HW222635   6.143   7.227   8.531  1.2477  1.2915 -0.8347
39702SOL     OW22636   1.885   0.191   4.441 -0.2788 -0.1530 -0.0543
39702SOL    HW122637   1.963   0.139   4.419 -0.8047 -1.0718  0.2063
39702SOL    HW222638   1.813   0.129   4.436 -1.0662  0.7874 -0.6974
39703SOL     OW22639   8.522   3.637   8.951  0.0251  0.5095  0.4415
39703SOL    HW122640   8.555   3.720   8.985 -0.8925  0.7433  0.7985
39703SOL    HW222641   8.460   3.606   9.018 -0.0615 -0.1809  0.0568
39704SOL     OW22642   5.991   8.556   5.433  0.5035 -0.0746 -0.1936
39704SOL    HW122643   5.987   8.556   5.528 -2.0225  1.5193 -0.1749
39704SOL    HW222644   5.966   8.467   5.408 -2.0047  0.2854  0.7049
39705SOL     OW22645   4.856   1.212   4.437  0.0844  0.1575 -0.0240
39705SOL    HW122646   4.918   1.180   4.503 -0.0542 -1.0698 -0.4638
39705SOL    HW222647   4.911   1.246   4.366  0.3695 -2.6655 -1.2724
39706SOL     OW22648   7.768   6.580   9.453 -0.1478  0.4556 -0.3630
39706SOL    HW122649   7.815   6.542   9.379 -2.0734 -1.6333 -0.5943
39706SOL    HW222650   7.688   6.616   9.415 -0.8821 -0.1126  0.6074
39707SOL     OW22651   2.307   1.972  10.447 -0.5673  0.0081 -0.2637
39707SOL    HW122652   2.228   1.990  10.396  0.0536  1.4885 -0.7497
39707SOL    HW222653   2.338   1.887  10.415 -2.3867 -1.0186  0.5291
39708SOL     OW22654   8.786  10.670   8.925 -0.0380 -0.1678  0.5171
39708SOL    HW122655   8.852  10.710   8.982 -0.2624  2.4246 -0.8929
39708SOL    HW222656   8.719  10.638   8.985  0.0269  1.8989  1.7905
39709SOL     OW22657   6.417   8.489   8.943 -0.0723 -0.3611 -0.7561
39709SOL    HW122658   6.367   8.416   8.979  0.4055  0.5447  1.9242
39709SOL    HW222659   6.427   8.551   9.015  2.3227  0.8971 -2.0125
39710SOL     OW22660   8.470   7.653   5.612 -0.0176 -0.1088 -0.3398
39710SOL    HW122661   8.424   7.708   5.549 -2.0922 -0.7367  0.5488
39710SOL    HW222662   8.532   7.602   5.560 -2.6110 -1.6167 -2.1559
39711SOL     OW22663   9.226   3.535   6.269 -0.0768  0.6404 -0.4283
39711SOL    HW122664   9.154   3.571   6.320 -1.3713 -2.1993 -0.0463
39711SOL    HW222665   9.209   3.441   6.266  2.3714  0.1349 -2.3467
39712SOL     OW22666   6.174  10.041   3.025  0.4240  0.2728  0.1777
39712SOL    HW122667   6.137   9.974   3.083  0.5673  2.2019  2.6941
39712SOL    HW222668   6.251  10.073   3.073  0.3613  2.1971 -0.9296
39713SOL     OW22669   1.540   6.884   5.199 -0.3322 -0.4763 -0.3006
39713SOL    HW122670   1.601   6.956   5.181 -0.3675 -0.4376 -0.2659
39713SOL    HW222671   1.584   6.832   5.266 -1.2699  0.7565  1.3639
39714SOL     OW22672   2.746   3.510   5.343  0.3476 -0.0056  0.6058
39714SOL    HW122673   2.825   3.476   5.385 -0.0523  0.0069  1.3943
39714SOL    HW222674   2.723   3.444   5.277  1.3631  0.2999 -0.0758
39715SOL     OW22675   6.932   5.067   4.684 -0.0285 -0.3563  0.3526
39715SOL    HW122676   6.891   4.980   4.682 -1.2783  0.2213  0.0644
39715SOL    HW222677   6.874   5.119   4.739  1.0796  0.1366  1.0798
39716SOL     OW22678   9.232   5.514   2.351 -0.2659 -0.0957 -0.0047
39716SOL    HW122679   9.223   5.607   2.327 -0.2374 -0.4095 -1.3052
39716SOL    HW222680   9.314   5.487   2.310 -0.4852 -0.8087  0.0199
39717SOL     OW22681   5.222   4.848   2.280 -0.3225  0.0283  0.0701
39717SOL    HW122682   5.127   4.850   2.291 -0.1368  1.0329  1.7789
39717SOL    HW222683   5.244   4.755   2.274 -1.2504 -0.2934  1.3349
39718SOL     OW22684   9.941   9.018   3.443 -0.5157  0.1140  0.2546
39718SOL    HW122685  10.005   9.077   3.483  0.2159 -0.5913  0.1686
39718SOL    HW222686   9.896   8.978   3.517  1.1926 -1.5759  0.4543
39719SOL     OW22687   0.932   3.580   5.113  0.0162 -0.0792 -0.5358
39719SOL    HW122688   0.852   3.560   5.162  1.1338  0.8076  1.8195
39719SOL    HW222689   0.963   3.495   5.083 -1.5081 -0.4915 -1.0334
39720SOL     OW22690   7.095   9.887   8.909  0.1983 -0.2312 -0.4361
39720SOL    HW122691   7.147   9.877   8.988  1.9437 -0.2024 -1.5225
39720SOL    HW222692   7.159   9.889   8.838 -1.0481  2.5814 -1.6478
39721SOL     OW22693   2.368  10.429   1.305  0.6355 -0.6734 -0.2319
39721SOL    HW122694   2.284  10.472   1.292  0.8372 -0.5247 -1.1384
39721SOL    HW222695   2.415  10.487   1.365  0.8096  0.2838 -1.2423
39722SOL     OW22696   9.276   1.382   6.820 -0.6121  0.3550  0.2025
39722SOL    HW122697   9.211   1.435   6.865  0.1307  1.2955  0.2063
39722SOL    HW222698   9.348   1.443   6.801 -0.0634 -0.4742 -0.4836
39723SOL     OW22699   4.985   1.689   5.402 -0.2677  0.0427 -0.0085
39723SOL    HW122700   4.923   1.617   5.388  0.1342 -0.1848 -0.7162
39723SOL    HW222701   5.070   1.651   5.378  0.1282  0.3899  0.8040
39724SOL     OW22702   8.272   3.542   2.845  0.3947  0.3308  0.6794
39724SOL    HW122703   8.298   3.457   2.881  0.4007 -0.3158 -0.7859
39724SOL    HW222704   8.338   3.562   2.779 -1.3553 -0.1576 -1.3512
39725SOL     OW22705   7.302   7.810   8.949  0.1703  0.1874 -0.3973
39725SOL    HW122706   7.393   7.801   8.979  0.1748  1.2695 -0.0450
39725SOL    HW222707   7.255   7.843   9.025 -0.4886 -0.1604 -0.6468
39726SOL     OW22708   6.858   0.682   3.807  0.5686  0.2664 -0.1005
39726SOL    HW122709   6.801   0.629   3.863  0.3633 -0.1469 -0.6917
39726SOL    HW222710   6.913   0.730   3.868  0.1901 -0.0016  0.4633
39727SOL     OW22711   0.362  10.624   7.886  0.1154  0.0916 -0.4561
39727SOL    HW122712   0.292  10.564   7.913 -1.2548  2.4736  1.6832
39727SOL    HW222713   0.435  10.603   7.944  0.0986 -0.3592 -0.5957
39728SOL     OW22714   2.668   4.659  10.565 -0.2287  0.1600  0.3576
39728SOL    HW122715   2.750   4.686  10.607  0.0684 -0.7982  0.4117
39728SOL    HW222716   2.681   4.567  10.543 -1.5902 -0.2375  1.0975
39729SOL     OW22717   4.048   7.133   2.535 -0.1820 -0.3122 -0.1401
39729SOL    HW122718   3.971   7.078   2.541 -0.0292 -0.4698  0.4660
39729SOL    HW222719   4.090   7.126   2.621  0.5612 -0.3155 -0.4904
39730SOL     OW22720   0.709   7.066   1.517  0.5026  0.7147  0.0083
39730SOL    HW122721   0.727   6.993   1.458  4.7072  1.2199  0.3444
39730SOL    HW222722   0.646   7.031   1.581  1.0842 -2.0369 -0.8098
39731SOL     OW22723   7.399   4.167   5.185 -0.3485  0.4654 -0.6724
39731SOL    HW122724   7.430   4.104   5.120  2.9605 -1.0005  2.0298
39731SOL    HW222725   7.459   4.241   5.176  0.5441 -0.0016  0.9399
39732SOL     OW22726   9.403   7.370   9.452 -0.2040 -0.3265 -0.3987
39732SOL    HW122727   9.495   7.354   9.432  0.1619 -0.1513  0.9771
39732SOL    HW222728   9.392   7.338   9.542 -1.3136  0.2607 -0.3005
39733SOL     OW22729   2.504   9.684   6.054  0.0955  0.1607 -0.5070
39733SOL    HW122730   2.599   9.674   6.047 -0.0765 -1.8035 -0.6217
39733SOL    HW222731   2.488   9.699   6.147  0.4977  0.1430 -0.4316
39734SOL     OW22732   1.080   1.352   8.207 -0.1764  0.6518  0.4275
39734SOL    HW122733   1.095   1.314   8.120 -3.4537  0.2728 -0.1168
39734SOL    HW222734   1.155   1.409   8.221  0.2425  1.1457 -2.9003
39735SOL     OW22735   4.558   7.352   9.325  0.0998  0.3582  0.7318
39735SOL    HW122736   4.596   7.439   9.331 -0.9719  0.8058  1.4809
39735SOL    HW222737   4.595   7.305   9.400 -0.0342  0.4753  0.8739
39736SOL     OW22738   0.441   5.802   5.498  0.6947  0.3197 -0.0892
39736SOL    HW122739   0.381   5.804   5.423 -0.1977 -0.3396  0.5803
39736SOL    HW222740   0.520   5.845   5.467  0.0587  0.7541 -1.1670
39737SOL     OW22741   4.415   2.060  10.202  0.1169 -0.2663 -0.0333
39737SOL    HW122742   4.480   2.093  10.140  0.3974 -0.5043  0.1338
39737SOL    HW222743   4.339   2.040  10.147  0.0923  0.2551 -0.1918
39738SOL     OW22744   1.459   0.409   0.261 -0.3186 -0.0537 -0.0537
39738SOL    HW122745   1.398   0.480   0.279 -0.0672  0.2061 -0.2184
39738SOL    HW222746   1.405   0.330   0.259 -0.3878 -0.1042  1.8119
39739SOL     OW22747   6.164   3.700   1.025 -0.4528 -0.4034 -0.2416
39739SOL    HW122748   6.169   3.658   1.111 -0.1204  2.2428  1.1701
39739SOL    HW222749   6.153   3.793   1.046  0.4453  0.4280 -3.0761
39740SOL     OW22750   8.992   0.179  10.340  0.1571 -0.0555  0.3733
39740SOL    HW122751   9.079   0.145  10.317 -0.2716 -1.1523  0.3359
39740SOL    HW222752   8.949   0.194  10.256  0.6843  1.5392  0.3599
39741SOL     OW22753   5.990   0.953   5.285  0.2948  0.0879 -0.0381
39741SOL    HW122754   6.085   0.964   5.274  0.1674  0.6600 -0.6366
39741SOL    HW222755   5.958   0.939   5.196 -0.4216  1.8625 -0.0951
39742SOL     OW22756   1.706   0.727   7.106  0.7135 -0.0228  0.1734
39742SOL    HW122757   1.721   0.652   7.049 -0.7317 -0.3379  0.1780
39742SOL    HW222758   1.671   0.689   7.187  0.0641  0.6537  0.2137
39743SOL     OW22759   7.004   9.775   5.169 -0.6340 -0.2218 -0.0503
39743SOL    HW122760   7.055   9.810   5.096  0.5741  1.3302  1.4506
39743SOL    HW222761   6.985   9.684   5.144  0.4784 -0.0018 -1.8862
39744SOL     OW22762   8.738   2.299   7.996  0.2662  0.2237  0.2801
39744SOL    HW122763   8.652   2.340   7.998  0.7069  1.1392  1.3199
39744SOL    HW222764   8.799   2.373   7.995  1.0565 -0.4195  0.5498
39745SOL     OW22765   1.000   2.336   7.711 -0.1019  0.1639 -0.0149
39745SOL    HW122766   1.057   2.378   7.776  0.2082 -0.0406 -0.1541
39745SOL    HW222767   0.997   2.398   7.638  0.7472 -0.2619 -0.4238
39746SOL     OW22768   8.926   7.100   4.309 -0.1296 -0.1990  0.0355
39746SOL    HW122769   8.994   7.159   4.343  1.1348 -2.2272  1.2451
39746SOL    HW222770   8.937   7.104   4.214  0.9138  0.3944  0.1575
39747SOL     OW22771   1.022   0.847   1.387  0.0062 -0.1477  0.0369
39747SOL    HW122772   0.996   0.867   1.477  2.1033  1.9302  0.2869
39747SOL    HW222773   0.941   0.857   1.336 -0.6646  1.6297  1.3193
39748SOL     OW22774  10.452   5.417   7.593 -0.6676  0.2789  0.3290
39748SOL    HW122775  10.372   5.375   7.560 -1.9678  1.8845  1.2483
39748SOL    HW222776  10.422   5.503   7.624  1.1576  0.3491  2.0754
39749SOL     OW22777   5.364   4.421   7.943 -0.3691  0.0914  0.7082
39749SOL    HW122778   5.380   4.481   8.016 -0.8221  1.1251 -0.0227
39749SOL    HW222779   5.440   4.363   7.942 -0.0310  0.5038  1.5675
39750SOL     OW22780   4.348   6.643   4.655  0.4926  0.3807 -0.6749
39750SOL    HW122781   4.360   6.626   4.749 -0.3018 -1.6274 -0.8810
39750SOL    HW222782   4.408   6.715   4.636  0.6186  0.8874  1.3834
39751SOL     OW22783   1.384   5.402   4.734  0.1047  0.3025 -0.4145
39751SOL    HW122784   1.371   5.494   4.712 -3.5474  0.0133 -0.1302
39751SOL    HW222785   1.297   5.371   4.758  1.4892 -2.8553  1.0831
39752SOL     OW22786   3.067   5.268   7.569  0.0564 -0.5665 -0.6059
39752SOL    HW122787   3.142   5.208   7.559  0.6066  0.1252 -0.7025
39752SOL    HW222788   3.000   5.215   7.612  0.4872 -1.2918 -0.8003
39753SOL     OW22789   2.719   9.183   8.328  0.1088  0.5462 -0.3047
39753SOL    HW122790   2.806   9.204   8.362  0.1462  0.4608 -0.3471
39753SOL    HW222791   2.719   9.216   8.238 -0.2418  1.4274  0.0124
39754SOL     OW22792   8.941  10.715   1.049 -0.1892  0.1075  0.1532
39754SOL    HW122793   8.988  10.678   1.125 -0.2724  1.1642  0.7345
39754SOL    HW222794   8.917  10.803   1.077 -3.4217 -0.6928  0.2646
39755SOL     OW22795   6.574  10.160   9.696  0.1383 -0.1570  0.4795
39755SOL    HW122796   6.670  10.162   9.704  0.1348  0.2899  0.4370
39755SOL    HW222797   6.558  10.135   9.605  0.2576  2.5740 -0.3884
39756SOL     OW22798   4.405   5.501   3.761  0.1891  0.3680  0.0697
39756SOL    HW122799   4.460   5.520   3.837  2.9902 -0.3103 -1.6431
39756SOL    HW222800   4.447   5.425   3.719 -2.2367 -0.3718 -1.2479
39757SOL     OW22801   8.582   2.062  10.830 -0.1425  0.4851  0.3765
39757SOL    HW122802   8.548   2.149  10.852 -0.4920  0.6876 -0.8568
39757SOL    HW222803   8.543   2.003  10.894 -1.2711  1.0047  0.1905
39758SOL     OW22804   4.478   0.453  10.871 -0.4457  0.2989  0.1902
39758SOL    HW122805   4.552   0.474  10.814  1.3915 -0.7577  2.0446
39758SOL    HW222806   4.519   0.422  10.952 -2.9309  1.5008  2.0140
39759SOL     OW22807   2.582   6.655   0.087 -0.2136  0.2411  0.0410
39759SOL    HW122808   2.518   6.659   0.015  1.6928  0.2848 -1.7209
39759SOL    HW222809   2.667   6.667   0.045  0.9959  0.1897  2.3184
39760SOL     OW22810   4.360   0.427   8.413  0.0506 -0.3678  0.4015
39760SOL    HW122811   4.390   0.502   8.465  2.2625 -0.8085 -0.1397
39760SOL    HW222812   4.346   0.462   8.325 -1.6609 -0.0651  0.7463
39761SOL     OW22813   7.641   6.699   1.443  0.5667 -0.1147 -0.2907
39761SOL    HW122814   7.657   6.779   1.392 -0.4487  0.4428  0.2389
39761SOL    HW222815   7.714   6.641   1.419  1.4960  1.0760 -0.4559
39762SOL     OW22816   6.862   8.526  10.895  0.8825 -0.3002  0.6039
39762SOL    HW122817   6.780   8.476  10.899 -0.1272  1.3999  3.0037
39762SOL    HW222818   6.843   8.597  10.834  1.3771 -1.1770 -0.6072
39763SOL     OW22819   1.170   7.660   8.656  0.0121 -0.1522  0.0179
39763SOL    HW122820   1.165   7.655   8.751  2.4054 -2.3475  0.1339
39763SOL    HW222821   1.117   7.587   8.624  1.0849 -0.8470 -0.2087
39764SOL     OW22822   9.601   5.916   3.228 -0.4142 -0.3991  0.3914
39764SOL    HW122823   9.604   5.978   3.155 -0.8338  1.9584  2.2854
39764SOL    HW222824   9.668   5.850   3.206  0.4458  1.0015 -1.4391
39765SOL     OW22825   7.429   0.040   2.610  0.3543  0.1480 -0.0692
39765SOL    HW122826   7.420   0.132   2.634 -0.8363 -0.2172  0.9832
39765SOL    HW222827   7.341   0.004   2.616  1.0260 -1.4357  1.1664
39766SOL     OW22828   5.616   6.321   6.382  0.1648  0.0988  0.0569
39766SOL    HW122829   5.571   6.275   6.453 -0.5499  0.4538 -0.1534
39766SOL    HW222830   5.603   6.413   6.402 -1.3820  0.2246 -1.3290
39767SOL     OW22831   2.401   9.853   8.801  0.2169  0.3612 -0.3639
39767SOL    HW122832   2.350   9.886   8.876  0.1566  1.0443 -0.6957
39767SOL    HW222833   2.430   9.766   8.829 -0.8237  0.0991 -0.0167
39768SOL     OW22834   0.894   8.324   9.906  0.3802 -0.2786  0.1256
39768SOL    HW122835   0.891   8.419   9.916  0.8619 -0.3347  0.8420
39768SOL    HW222836   0.802   8.299   9.892  0.3369  0.3586 -0.8473
39769SOL     OW22837   5.288   5.511   8.935 -0.2689  0.3680 -0.0087
39769SOL    HW122838   5.348   5.437   8.947 -1.7023 -0.6492  1.1049
39769SOL    HW222839   5.201   5.472   8.936 -1.2030  2.2755  2.7026
39770SOL     OW22840   8.162   0.558   9.831  0.2697 -0.3167 -0.1921
39770SOL    HW122841   8.119   0.511   9.760 -0.7736 -0.2492  0.3685
39770SOL    HW222842   8.094   0.614   9.868  1.3322  1.1831 -0.4365
39771SOL     OW22843   7.384   3.986   8.701  0.5868 -0.5900  0.0173
39771SOL    HW122844   7.379   4.076   8.733  2.5014 -0.9166  1.4443
39771SOL    HW222845   7.414   3.936   8.777 -0.5118 -2.4675 -0.7264
39772SOL     OW22846   0.938   5.735   7.598 -0.2993  0.2275 -0.6376
39772SOL    HW122847   0.910   5.729   7.507 -3.1991 -1.1697  0.2452
39772SOL    HW222848   0.884   5.805   7.636  0.0662  0.0227  0.2952
39773SOL     OW22849   5.986   1.930  10.547 -0.0372 -0.3787 -0.1583
39773SOL    HW122850   6.040   1.868  10.498  2.3207  1.3054  0.1202
39773SOL    HW222851   6.011   1.915  10.639 -0.3803  0.1081  0.0174
39774SOL     OW22852   2.826   4.571   7.765  0.2025 -0.2191  0.5896
39774SOL    HW122853   2.815   4.553   7.671  1.1407  1.7220  0.0563
39774SOL    HW222854   2.918   4.550   7.783  0.4086  0.7933  0.7299
39775SOL     OW22855   2.469   2.606  10.042 -0.9388 -0.1478 -0.1418
39775SOL    HW122856   2.414   2.683  10.028 -0.9621 -0.3115 -0.9879
39775SOL    HW222857   2.408   2.532  10.038 -0.6417 -0.3522 -1.3711
39776SOL     OW22858  10.279   4.345  10.998 -0.2564  0.0953 -0.0114
39776SOL    HW122859  10.318   4.430  10.976 -3.5736  1.8410  0.2605
39776SOL    HW222860  10.284   4.341  11.094  0.7734 -0.5560 -0.0681
39777SOL     OW22861   2.205   8.788  10.126 -0.1493  0.9194  0.6087
39777SOL    HW122862   2.167   8.787  10.214 -0.8311 -1.0117  0.3533
39777SOL    HW222863   2.225   8.696  10.108 -0.9205  1.1269 -1.6196
39778SOL     OW22864   6.073  10.560   0.890 -0.3269  0.0346  0.3544
39778SOL    HW122865   6.147  10.519   0.846 -0.8281  0.3671 -0.8248
39778SOL    HW222866   6.074  10.522   0.978  2.5833  1.7153  1.1516
39779SOL     OW22867   1.748   1.284   2.283  0.3146  0.3261  0.9430
39779SOL    HW122868   1.663   1.244   2.264  0.0615  1.3260 -0.1729
39779SOL    HW222869   1.802   1.212   2.315 -0.6480 -0.5296  0.6814
39780SOL     OW22870   0.900   9.099   2.854  0.2035 -0.9321  0.1243
39780SOL    HW122871   0.902   9.158   2.778 -2.0148 -1.0580 -0.0986
39780SOL    HW222872   0.865   9.017   2.819 -1.5868 -0.7575  1.3884
39781SOL     OW22873   7.377   5.812   4.017  0.4902 -0.1993  0.0557
39781SOL    HW122874   7.471   5.796   4.025  0.2556 -1.1847  1.0449
39781SOL    HW222875   7.345   5.812   4.107 -0.5440 -0.4488 -0.2979
39782SOL     OW22876   9.293   5.138   0.664  0.5524 -0.2298 -0.0303
39782SOL    HW122877   9.309   5.088   0.744 -0.7923  2.1780  1.8922
39782SOL    HW222878   9.372   5.125   0.611  2.2155 -0.6812  2.3799
39783SOL     OW22879  11.022   4.285   9.035  0.2075 -0.6510 -0.2216
39783SOL    HW122880  11.003   4.194   9.057 -0.0630 -0.4931  0.2103
39783SOL    HW222881  10.936   4.325   9.021  0.3373 -0.5393 -0.7494
39784SOL     OW22882   4.782   2.443   8.960 -0.2003  0.0033  0.0199
39784SOL    HW122883   4.763   2.403   9.045 -0.3752 -0.2286 -0.1251
39784SOL    HW222884   4.827   2.524   8.981 -0.0214 -0.1736  0.3295
39785SOL     OW22885  10.399   3.699   6.417  0.2311  0.3981 -0.4549
39785SOL    HW122886  10.322   3.710   6.474  0.1013 -1.5092 -0.1647
39785SOL    HW222887  10.467   3.667   6.476  1.2700  2.0177 -0.7246
39786SOL     OW22888   5.411   9.118   1.007 -0.8812 -0.1663 -0.1844
39786SOL    HW122889   5.359   9.113   1.087  1.2804 -1.7347  1.2389
39786SOL    HW222890   5.412   9.028   0.973 -0.2886  0.1284 -0.9689
39787SOL     OW22891   0.510   3.248   4.627 -0.0112  0.5557  0.2949
39787SOL    HW122892   0.558   3.313   4.576 -0.2814 -0.6544 -1.5724
39787SOL    HW222893   0.478   3.185   4.563 -0.4487 -1.0058  1.9552
39788SOL     OW22894   4.825   0.593   5.944  0.2987  0.3930  0.6589
39788SOL    HW122895   4.816   0.520   5.884 -0.9569  1.0766 -0.0121
39788SOL    HW222896   4.887   0.562   6.010 -0.2847 -1.2964  0.4494
39789SOL     OW22897   6.579  11.095   7.148 -0.1875  0.5270 -0.3299
39789SOL    HW122898   6.646  11.076   7.214 -1.7806 -1.5555  0.8207
39789SOL    HW222899   6.534  11.172   7.181  0.7877  1.1613 -0.4457
39790SOL     OW22900  10.262   8.663   6.668 -0.2012 -0.4065 -0.0558
39790SOL    HW122901  10.267   8.750   6.708  0.8081 -0.5577  0.1717
39790SOL    HW222902  10.180   8.665   6.618 -0.2732  0.6177  0.0716
39791SOL     OW22903   9.200   8.438   5.051  0.8900  0.3949 -0.1044
39791SOL    HW122904   9.280   8.488   5.070  1.1267 -0.0756  0.1594
39791SOL    HW222905   9.193   8.440   4.956  2.0699 -0.8295 -0.2549
39792SOL     OW22906   5.311   4.860   5.253 -0.3372  0.0204 -0.0244
39792SOL    HW122907   5.239   4.897   5.303 -0.8932 -0.3253 -0.5435
39792SOL    HW222908   5.308   4.906   5.169 -0.6661 -0.7550 -0.4561
39793SOL     OW22909   1.394   9.659   9.769  0.1908  0.2511 -0.3357
39793SOL    HW122910   1.441   9.660   9.686  0.6812 -3.5105 -0.2603
39793SOL    HW222911   1.311   9.616   9.749 -0.4888  0.9720  0.8072
39794SOL     OW22912   0.845   3.319   7.326 -0.2285 -0.1373 -0.0052
39794SOL    HW122913   0.812   3.275   7.404  0.6255 -0.7429  0.0329
39794SOL    HW222914   0.778   3.384   7.305 -1.0811 -0.8230  0.4898
39795SOL     OW22915   9.487  10.095   8.346  0.5782 -0.1459 -0.7960
39795SOL    HW122916   9.419  10.105   8.280  0.3826  1.4461 -0.4105
39795SOL    HW222917   9.533  10.015   8.322 -0.4389 -0.4108 -1.9663
39796SOL     OW22918   3.109   3.502   4.759  0.0408  0.1436  0.2723
39796SOL    HW122919   3.037   3.562   4.777 -0.1046 -0.1422  0.6607
39796SOL    HW222920   3.066   3.417   4.743  0.2415  0.1394 -0.2663
39797SOL     OW22921   7.867   9.195   9.274 -0.2635  0.7353 -0.2961
39797SOL    HW122922   7.924   9.118   9.270 -0.0515  0.9295 -1.2696
39797SOL    HW222923   7.781   9.160   9.298 -0.1249  0.2224 -0.5353
39798SOL     OW22924   5.988   8.814   6.945 -0.4891  0.2380  0.3294
39798SOL    HW122925   6.006   8.892   6.893 -0.0866  1.0389  1.6362
39798SOL    HW222926   6.072   8.793   6.987 -1.1105  0.4314  1.7234
39799SOL     OW22927   2.786   2.156   4.070 -0.1637 -0.1649 -0.3289
39799SOL    HW122928   2.756   2.197   4.152 -0.6383 -0.8410 -0.1558
39799SOL    HW222929   2.865   2.205   4.047 -0.5899  0.7094 -0.0116
39800SOL     OW22930   5.418   8.033   7.423  0.2323  0.0740 -0.1873
39800SOL    HW122931   5.342   8.010   7.476  0.4023 -0.0904 -0.0104
39800SOL    HW222932   5.402   7.991   7.339 -0.2888  0.7720 -0.4459
39801SOL     OW22933   9.170   4.438   4.654  0.2862 -0.4732 -0.0645
39801SOL    HW122934   9.213   4.361   4.691 -0.0430 -0.7849 -0.3257
39801SOL    HW222935   9.079   4.431   4.684 -0.7588 -2.2926 -3.2478
39802SOL     OW22936  10.649   9.476   8.196  0.3679  0.1620  0.1157
39802SOL    HW122937  10.743   9.469   8.210  0.0866 -1.1402  1.5649
39802SOL    HW222938  10.613   9.393   8.227 -1.0287 -0.4847 -2.8449
39803SOL     OW22939   7.098  10.131   9.635 -0.3598 -0.2325  0.0862
39803SOL    HW122940   7.093  10.058   9.573 -0.2920 -1.3866  1.3969
39803SOL    HW222941   7.169  10.108   9.694 -2.2322 -0.6007  2.3305
39804SOL     OW22942  10.935  10.251   0.288  0.1515  0.3037  0.0044
39804SOL    HW122943  10.879  10.216   0.357  0.9989  0.3999  0.7638
39804SOL    HW222944  10.972  10.173   0.246 -0.3164  0.2461 -0.3023
39805SOL     OW22945   2.000   7.191   4.041  0.1499  0.6905 -0.1209
39805SOL    HW122946   2.015   7.133   4.116 -1.2551 -1.7573 -1.6064
39805SOL    HW222947   1.906   7.210   4.044  0.4664  2.4635 -0.0412
39806SOL     OW22948   5.121   7.724   0.770  0.3051  0.1345  0.0809
39806SOL    HW122949   5.071   7.765   0.700  0.8412  0.1137 -0.3194
39806SOL    HW222950   5.059   7.718   0.843 -0.0588  0.7703 -0.1650
39807SOL     OW22951   9.432   1.799   4.655 -0.1154 -0.3784 -0.4167
39807SOL    HW122952   9.511   1.778   4.605 -1.1294 -0.2555 -2.1606
39807SOL    HW222953   9.366   1.737   4.624 -1.3618  1.0771 -0.8589
39808SOL     OW22954   8.106   8.972   1.859  0.2175  0.3426 -0.2593
39808SOL    HW122955   8.060   8.922   1.792 -1.1770 -0.0309  0.9068
39808SOL    HW222956   8.173   9.020   1.812 -0.3999 -0.2870 -1.8422
39809SOL     OW22957   9.243  10.430   1.454 -0.0446  0.0231 -0.4173
39809SOL    HW122958   9.227  10.354   1.398  2.3784  0.0598 -1.2796
39809SOL    HW222959   9.207  10.504   1.405 -0.8659 -0.3343 -0.3723
39810SOL     OW22960   1.527   7.234   8.153 -0.1909  0.7054 -0.0223
39810SOL    HW122961   1.536   7.328   8.170 -1.3878  0.8524 -0.1543
39810SOL    HW222962   1.559   7.192   8.233 -2.3585  1.3093  1.2281
39811SOL     OW22963   0.021   8.496   7.030  0.1695 -0.0231  0.1343
39811SOL    HW122964  -0.068   8.471   7.008  0.0604  0.9620 -0.6287
39811SOL    HW222965   0.044   8.442   7.106 -0.0957 -2.2668 -1.2876
39812SOL     OW22966   1.074   1.898   1.951  0.3117  0.2804  0.1307
39812SOL    HW122967   1.145   1.945   1.995  0.0006  0.2342  0.6839
39812SOL    HW222968   1.017   1.867   2.021  1.4523 -2.5390 -0.0504
39813SOL     OW22969   2.353   2.328   4.218 -0.6384  0.6121 -0.4072
39813SOL    HW122970   2.409   2.250   4.213 -1.9636 -0.4176  0.1680
39813SOL    HW222971   2.380   2.372   4.299 -1.0900 -0.2453  0.2283
39814SOL     OW22972   8.555   2.328   3.899 -0.1849 -0.1940 -0.1003
39814SOL    HW122973   8.550   2.323   3.994 -1.9422 -0.3057 -0.1534
39814SOL    HW222974   8.551   2.236   3.870  0.2181 -0.1544 -0.2851
39815SOL     OW22975   1.521   5.649   8.340  0.3463 -0.5077 -0.0370
39815SOL    HW122976   1.538   5.643   8.246  0.9187 -0.9370  0.0898
39815SOL    HW222977   1.440   5.600   8.353 -0.2266  0.3174 -0.4349
39816SOL     OW22978   1.077   8.392   8.681 -0.2010 -0.5183  0.0188
39816SOL    HW122979   1.034   8.326   8.626 -0.1574  0.7489 -1.6212
39816SOL    HW222980   1.131   8.443   8.620 -1.9118  2.4297  0.7611
39817SOL     OW22981   5.340   3.875   4.693  0.3961 -0.0273 -0.4232
39817SOL    HW122982   5.364   3.811   4.760 -0.6666 -0.8367 -0.7836
39817SOL    HW222983   5.263   3.837   4.651  0.3841  1.0007 -1.3580
39818SOL     OW22984   3.942   4.532   4.284  0.2606 -0.2280 -0.6028
39818SOL    HW122985   3.920   4.625   4.288  1.1399 -0.0093 -0.5831
39818SOL    HW222986   3.860   4.489   4.260 -0.2223  0.5224 -0.3495
39819SOL     OW22987   6.584   5.979   0.356 -0.2024 -0.3887 -0.2082
39819SOL    HW122988   6.546   6.018   0.435  1.6600  0.0515  0.5304
39819SOL    HW222989   6.678   5.990   0.368  0.1105  1.3888 -3.3481
39820SOL     OW22990   3.180   0.015   0.662 -0.3213  0.9886  0.4102
39820SOL    HW122991   3.086   0.006   0.650 -0.7850  3.4145  1.5491
39820SOL    HW222992   3.190   0.038   0.755  1.3428  1.3807  0.1711
39821SOL     OW22993   4.390   8.830   2.763  0.1612 -0.0116 -0.2023
39821SOL    HW122994   4.452   8.884   2.715 -0.8001 -0.1010 -1.6026
39821SOL    HW222995   4.310   8.882   2.767 -0.0859 -0.4210  0.4335
39822SOL     OW22996   7.484   9.555   9.012 -0.2659 -0.0219 -0.3395
39822SOL    HW122997   7.466   9.469   9.048  1.7038 -0.0140  0.7847
39822SOL    HW222998   7.500   9.611   9.088 -0.0810  0.9919 -1.0954
39823SOL     OW22999   9.995   9.028  10.029  0.1988  0.5011 -0.2316
39823SOL    HW123000  10.009   8.978   9.948  1.1723  2.6534 -1.4551
39823SOL    HW223001   9.914   9.076  10.013  0.2045  0.6541  0.2094
39824SOL     OW23002   5.546   5.310   2.232  0.1949 -0.1657 -0.1288
39824SOL    HW123003   5.624   5.338   2.280  0.1936 -0.9767  0.3773
39824SOL    HW223004   5.473   5.353   2.276  0.2010 -0.8464  0.5663
39825SOL     OW23005   8.791   1.255   7.604  0.3675 -0.4510  0.3696
39825SOL    HW123006   8.750   1.337   7.632 -1.1167 -1.5960  1.7199
39825SOL    HW223007   8.800   1.204   7.685  2.8342 -0.9952 -0.1700
39826SOL     OW23008   2.116   4.065   2.513 -0.0889 -0.0902 -0.0280
39826SOL    HW123009   2.189   4.065   2.575  1.4070  1.3269 -1.6614
39826SOL    HW223010   2.038   4.055   2.567  1.2718 -1.2320  1.8354
39827SOL     OW23011   2.693   1.189   3.298 -0.8313  0.1195  0.0015
39827SOL    HW123012   2.632   1.250   3.256 -1.5799 -0.5734  0.0531
39827SOL    HW223013   2.648   1.162   3.378 -1.3740 -1.9299 -0.9301
39828SOL     OW23014   1.211   9.385   1.899 -0.1373 -0.2843  0.0876
39828SOL    HW123015   1.270   9.435   1.956 -1.7825  0.1002  1.5254
39828SOL    HW223016   1.163   9.327   1.958  0.4586 -2.3553 -1.3421
39829SOL     OW23017   1.016   0.329   4.243 -0.5140 -0.7889 -0.5337
39829SOL    HW123018   1.005   0.316   4.337 -0.0342 -1.9952 -0.6218
39829SOL    HW223019   0.979   0.415   4.225 -0.6851 -0.5898  0.7442
39830SOL     OW23020   2.263   4.353   9.073 -0.3079 -0.4146 -0.2057
39830SOL    HW123021   2.251   4.260   9.090 -0.7275 -0.2661  0.3513
39830SOL    HW223022   2.241   4.364   8.981 -2.8573 -0.4680  0.3145
39831SOL     OW23023   8.531   0.674   4.113 -0.2656  0.1882 -0.4538
39831SOL    HW123024   8.599   0.651   4.051  0.8317  0.7729  0.5057
39831SOL    HW223025   8.451   0.681   4.060  0.5026 -0.0048 -1.6652
39832SOL     OW23026  10.238   5.061   7.357 -0.0823  0.6260  0.3060
39832SOL    HW123027  10.261   5.003   7.285 -0.3598  1.1694 -0.2264
39832SOL    HW223028  10.323   5.087   7.394  0.0215 -0.8393  1.1483
39833SOL     OW23029   3.361   4.687   4.380  0.0766  0.1426 -0.0657
39833SOL    HW123030   3.278   4.658   4.418  0.2924  1.3199  1.4285
39833SOL    HW223031   3.347   4.780   4.358  1.4840  0.9039  1.9289
39834SOL     OW23032   3.841   7.868   3.013 -0.0513 -0.0929 -0.1688
39834SOL    HW123033   3.875   7.784   3.042  0.9479 -0.0460 -1.1078
39834SOL    HW223034   3.753   7.873   3.050  0.0601 -1.3241  0.3116
39835SOL     OW23035   4.482   9.209   1.589  0.1774  0.2917  0.1610
39835SOL    HW123036   4.511   9.246   1.506 -0.0878 -0.7906 -0.4356
39835SOL    HW223037   4.450   9.284   1.639  0.6528  1.0037 -0.5721
39836SOL     OW23038   1.423   7.927   8.137 -0.5199  0.0241 -0.2512
39836SOL    HW123039   1.459   8.007   8.097  1.2579  0.1182  1.3769
39836SOL    HW223040   1.330   7.930   8.117 -0.2722  1.8111 -1.3902
39837SOL     OW23041   2.404   0.052   9.843  0.2034 -0.5424  0.1202
39837SOL    HW123042   2.385   0.041   9.936 -1.8028  1.0772 -0.0279
39837SOL    HW223043   2.380  -0.033   9.804  0.5358 -1.0516  0.9988
39838SOL     OW23044   1.126   9.336   8.130 -0.7348  0.3448  0.1613
39838SOL    HW123045   1.084   9.394   8.193  1.1427  1.7033  0.2633
39838SOL    HW223046   1.220   9.351   8.143 -0.2710 -0.1454 -2.1873
39839SOL     OW23047   6.869  10.821   8.858 -0.3484  0.2238  0.5058
39839SOL    HW123048   6.891  10.745   8.911  0.1240 -0.6363 -0.8605
39839SOL    HW223049   6.908  10.895   8.904  2.7727 -0.8545 -0.1531
39840SOL     OW23050   6.196   7.521   9.129 -0.0435 -0.2119 -0.1454
39840SOL    HW123051   6.202   7.525   9.224  0.7602 -0.0179 -0.1991
39840SOL    HW223052   6.279   7.485   9.101  0.4196  1.3222 -0.8691
39841SOL     OW23053   6.385   0.436   8.055 -0.2621 -0.1937 -0.2919
39841SOL    HW123054   6.330   0.454   7.979 -1.0861 -1.1035  0.0713
39841SOL    HW223055   6.325   0.438   8.130  0.1985 -1.1000  0.1222
39842SOL     OW23056   0.974   7.276   1.054  0.0984  0.9327  0.3902
39842SOL    HW123057   1.046   7.220   1.023  1.2678  1.6441  1.6996
39842SOL    HW223058   0.905   7.214   1.078  0.6348  0.1682  0.0206
39843SOL     OW23059   4.065  10.212   7.293  0.0312  0.2557  0.0398
39843SOL    HW123060   4.033  10.196   7.381 -0.5770 -0.3900 -0.2929
39843SOL    HW223061   4.136  10.149   7.280  2.6021  2.6213  1.3109
39844SOL     OW23062   2.345   0.198   4.422  0.5739 -0.0409 -0.1472
39844SOL    HW123063   2.342   0.227   4.514 -2.1793  0.1226 -0.2031
39844SOL    HW223064   2.421   0.244   4.385 -0.2628  2.6885  1.2165
39845SOL     OW23065  10.843   7.810   7.342 -0.8401  0.1904 -0.2144
39845SOL    HW123066  10.897   7.888   7.331 -0.1556 -0.3162 -0.4781
39845SOL    HW223067  10.774   7.838   7.403 -0.4412  0.9142 -0.0756
39846SOL     OW23068   4.040   4.901   7.460 -0.4150  0.1170 -0.4520
39846SOL    HW123069   4.074   4.963   7.395  1.2784 -0.2513  0.0428
39846SOL    HW223070   4.009   4.957   7.531  3.0540  0.4971  0.9538
39847SOL     OW23071   7.067   0.406   2.654 -0.0030  0.1681  0.6005
39847SOL    HW123072   7.062   0.491   2.698 -0.3710  1.2439 -1.3888
39847SOL    HW223073   7.161   0.386   2.651  0.2981  1.6013 -0.7940
39848SOL     OW23074   6.498   2.735   1.733  0.1186  0.6984 -0.2399
39848SOL    HW123075   6.534   2.648   1.716  0.2703  0.7532 -0.2073
39848SOL    HW223076   6.471   2.767   1.647  0.9030  0.9832 -0.3935
39849SOL     OW23077   0.198   4.974   7.696  0.1038 -0.0804  0.6300
39849SOL    HW123078   0.123   4.955   7.639 -1.3273  3.3017  1.1060
39849SOL    HW223079   0.159   5.015   7.773  2.3248 -0.3192  1.9497
39850SOL     OW23080   3.507   2.552   5.388  0.1735 -0.0373  0.0762
39850SOL    HW123081   3.588   2.600   5.404  0.8444 -1.4436  1.1865
39850SOL    HW223082   3.522   2.505   5.306  0.1371  0.3943 -0.1772
39851SOL     OW23083   8.732   7.414   7.370  0.6395  0.5723 -0.2140
39851SOL    HW123084   8.641   7.423   7.397  0.5159 -2.5607  0.8053
39851SOL    HW223085   8.783   7.429   7.449  0.7977 -0.3381 -0.1258
39852SOL     OW23086   2.049   6.712   7.466 -0.0538  0.4037  0.4235
39852SOL    HW123087   2.013   6.666   7.391  0.5923 -0.1755  0.4606
39852SOL    HW223088   2.013   6.666   7.542 -0.1429  0.5436  0.4667
39853SOL     OW23089   3.419  10.591   2.685  0.3286  0.2414  0.4119
39853SOL    HW123090   3.408  10.546   2.602  0.7138  0.5676  0.1812
39853SOL    HW223091   3.331  10.596   2.722  0.5112 -2.7892  1.5641
39854SOL     OW23092   5.333   4.763   3.830 -0.1606  0.1438  0.1823
39854SOL    HW123093   5.379   4.701   3.886  0.2580  0.2434 -0.0399
39854SOL    HW223094   5.332   4.845   3.880  0.5467  0.3339 -0.1006
39855SOL     OW23095   0.750  10.558  11.084 -0.2264 -0.2626 -0.3524
39855SOL    HW123096   0.711  10.638  11.049  1.8261  0.9908  0.0706
39855SOL    HW223097   0.684  10.524  11.145 -1.4276  0.6927 -1.0737
39856SOL     OW23098   4.437   5.593   0.844 -0.1376  0.1843 -0.2862
39856SOL    HW123099   4.461   5.544   0.765  0.7478  0.9473 -0.5088
39856SOL    HW223100   4.382   5.664   0.813  0.5772  0.7489 -0.2922
39857SOL     OW23101   1.231   2.002   6.368 -0.4016  0.1942 -0.0536
39857SOL    HW123102   1.258   1.911   6.363 -0.9429 -0.0675  1.1977
39857SOL    HW223103   1.307   2.052   6.340  0.2175 -0.6181  0.1438
39858SOL     OW23104  10.310   1.469  10.269  0.4200 -0.6725 -0.1266
39858SOL    HW123105  10.281   1.397  10.213 -0.5434 -1.0058  0.7601
39858SOL    HW223106  10.248   1.540  10.252  1.5882  0.1141 -1.2746
39859SOL     OW23107   0.375   7.489   7.190 -0.2389 -0.2904  0.5476
39859SOL    HW123108   0.301   7.438   7.157 -1.1163  1.2751  0.0184
39859SOL    HW223109   0.413   7.433   7.258  1.1018 -3.2521 -2.3712
39860SOL     OW23110   3.991   3.587   9.984  0.2397 -0.9405  0.3420
39860SOL    HW123111   3.979   3.676  10.016  0.3411 -0.6725 -0.3594
39860SOL    HW223112   4.000   3.596   9.889  2.5093 -1.4525  0.4530
39861SOL     OW23113   8.004   4.021   4.661  0.2886  0.2381 -0.5902
39861SOL    HW123114   7.944   3.953   4.690 -0.3001  1.5632  1.5707
39861SOL    HW223115   8.037   3.990   4.578 -0.7032 -2.1968 -0.1620
39862SOL     OW23116   1.514   0.785   6.790 -0.3672 -0.2306  0.3315
39862SOL    HW123117   1.537   0.866   6.836 -1.7751 -0.9876  2.5226
39862SOL    HW223118   1.597   0.738   6.781  0.0392  0.2116  1.5787
39863SOL     OW23119   2.387   7.907   5.917  0.2193 -0.4210 -0.5860
39863SOL    HW123120   2.406   7.938   5.828  0.7945 -0.4710 -0.4844
39863SOL    HW223121   2.291   7.903   5.921  0.1440  0.8304 -0.7777
39864SOL     OW23122   9.713   3.705   2.402  0.4327 -0.1416 -0.0745
39864SOL    HW123123   9.716   3.711   2.307 -2.4199  0.7510 -0.2097
39864SOL    HW223124   9.635   3.652   2.421  1.5592 -1.2533  1.7906
39865SOL     OW23125   5.881   8.518   8.534  0.5527 -0.3065 -0.1339
39865SOL    HW123126   5.908   8.564   8.455  1.3908 -0.9282 -0.2210
39865SOL    HW223127   5.812   8.573   8.571 -1.1661 -0.8926 -2.2263
39866SOL     OW23128   6.851   0.413   0.430 -0.4222 -0.6201  0.0404
39866SOL    HW123129   6.806   0.464   0.497 -0.6241  0.6111 -1.0026
39866SOL    HW223130   6.813   0.443   0.347 -0.4505 -2.3720 -0.6332
39867SOL     OW23131   4.570   1.298   0.042  0.3551 -0.4944  0.8116
39867SOL    HW123132   4.576   1.235  -0.030  0.8814  0.3361  0.1046
39867SOL    HW223133   4.653   1.288   0.089  1.2502  0.9274 -0.3963
39868SOL     OW23134   1.236   0.582  10.979 -0.4502 -0.3808 -0.1949
39868SOL    HW123135   1.300   0.577  11.050  1.6393 -2.2583 -2.0651
39868SOL    HW223136   1.155   0.608  11.023  1.2328  0.8139  2.4904
39869SOL     OW23137   7.681   0.050   3.439  0.1347  0.2838  0.1461
39869SOL    HW123138   7.727   0.132   3.455 -1.5507  1.4659 -0.7641
39869SOL    HW223139   7.665   0.049   3.344  0.9587 -1.5800 -0.0206
39870SOL     OW23140   7.259   1.819   3.004 -0.7739 -0.6298  0.1210
39870SOL    HW123141   7.231   1.738   3.047 -1.1935 -0.1345  0.7962
39870SOL    HW223142   7.209   1.821   2.923 -0.2925 -1.3604 -0.2079
39871SOL     OW23143   7.291   2.331   3.775  0.2765 -0.4206  0.1341
39871SOL    HW123144   7.283   2.253   3.719 -0.7956 -1.8763  2.1951
39871SOL    HW223145   7.206   2.374   3.766  0.7456  0.3580 -0.7275
39872SOL     OW23146   3.773   2.024   8.161  0.6696  0.0932 -0.1676
39872SOL    HW123147   3.706   2.075   8.205 -1.1549 -2.6129  0.4039
39872SOL    HW223148   3.819   1.978   8.231 -0.0107 -1.6234 -0.7831
39873SOL     OW23149   5.078   2.224   3.914 -0.1769  0.0123 -0.1526
39873SOL    HW123150   5.163   2.185   3.934  0.3984  0.6481 -1.2614
39873SOL    HW223151   5.090   2.317   3.932 -0.8887 -0.0092  0.4444
39874SOL     OW23152   4.925   6.698   5.800 -0.2573 -0.6142 -0.5291
39874SOL    HW123153   4.947   6.605   5.809  2.1285 -0.1136 -0.6496
39874SOL    HW223154   4.887   6.722   5.885 -0.2757 -1.5360 -0.2689
39875SOL     OW23155   1.135   0.390   2.200  0.3352 -0.7186  0.6890
39875SOL    HW123156   1.185   0.318   2.161 -0.7678 -0.9945 -0.2590
39875SOL    HW223157   1.201   0.446   2.239  1.4801 -0.6199 -1.2784
39876SOL     OW23158   0.552   1.575   6.431 -0.2530  0.1019  0.4240
39876SOL    HW123159   0.622   1.592   6.494 -0.6739  0.1720  0.8788
39876SOL    HW223160   0.544   1.657   6.382  0.2002 -0.0142  0.1497
39877SOL     OW23161  10.368   1.143   2.879  0.4448  0.2493 -0.1201
39877SOL    HW123162  10.300   1.090   2.922  1.2303 -1.7446 -1.2289
39877SOL    HW223163  10.422   1.079   2.833  1.4344  2.0591 -1.5554
39878SOL     OW23164   9.567   4.715   3.020 -0.1268 -0.5569  0.4868
39878SOL    HW123165   9.472   4.718   3.015 -0.1228  1.5526  0.7503
39878SOL    HW223166   9.596   4.715   2.929 -0.3679 -1.3163  0.4052
39879SOL     OW23167   0.742   7.987   9.308 -0.5844  0.2794  0.4217
39879SOL    HW123168   0.741   8.010   9.400  0.9543  0.2896  0.4608
39879SOL    HW223169   0.835   7.981   9.285 -0.9293 -0.3380 -0.9695
39880SOL     OW23170   0.436   3.305   6.117 -0.1013 -0.1387  0.0537
39880SOL    HW123171   0.393   3.387   6.141 -3.2257 -2.3325  2.9096
39880SOL    HW223172   0.523   3.311   6.157 -0.7899  1.2800  1.4532
39881SOL     OW23173   1.700   6.983   9.282  0.4887 -0.2233  0.3138
39881SOL    HW123174   1.752   7.021   9.211 -0.2137 -0.5633 -0.4043
39881SOL    HW223175   1.665   7.059   9.328  0.5384  0.0073 -0.0202
39882SOL     OW23176   0.323   5.232   4.709 -0.2826  0.5069 -0.3666
39882SOL    HW123177   0.390   5.296   4.733  0.8654 -0.8482  0.2032
39882SOL    HW223178   0.356   5.194   4.627  1.0107 -1.9016  1.1494
39883SOL     OW23179   9.123   8.484   7.842  0.9011 -0.5679 -0.5148
39883SOL    HW123180   9.143   8.502   7.934 -0.1941 -0.0066 -0.3703
39883SOL    HW223181   9.092   8.393   7.842 -0.2356 -0.1875 -0.1363
39884SOL     OW23182   2.229   3.257   4.105  0.0835 -0.2278 -0.3985
39884SOL    HW123183   2.176   3.233   4.029  0.4613 -0.1781 -0.6839
39884SOL    HW223184   2.237   3.175   4.155 -0.4471 -0.1803 -0.2352
39885SOL     OW23185   1.045   2.161  10.286 -0.3194  0.0805  0.7694
39885SOL    HW123186   0.952   2.182  10.299 -0.5717 -0.6950  0.3014
39885SOL    HW223187   1.092   2.225  10.339 -1.1124  0.7342  0.7035
39886SOL     OW23188   8.322  10.172   7.325  0.4698 -0.0723  0.7009
39886SOL    HW123189   8.344  10.102   7.387  0.7044  0.4696  1.2285
39886SOL    HW223190   8.341  10.253   7.372 -1.0221  0.3840  0.5514
39887SOL     OW23191   6.702  10.026   6.202 -0.0869  0.7379 -0.2017
39887SOL    HW123192   6.608  10.026   6.189 -0.6394 -2.7847  2.3884
39887SOL    HW223193   6.736   9.968   6.133  0.1997  1.7250 -0.9156
39888SOL     OW23194   1.001   0.133   7.137  0.5969  0.5647 -0.3813
39888SOL    HW123195   0.982   0.183   7.058 -0.2526 -1.6331 -1.6719
39888SOL    HW223196   1.043   0.053   7.105  1.6677  0.2821  1.5535
39889SOL     OW23197   1.955   6.539   1.883 -0.3850 -0.2304  0.0024
39889SOL    HW123198   1.966   6.585   1.800 -1.3187 -2.0802 -1.2264
39889SOL    HW223199   2.043   6.529   1.918  0.0120  0.6594 -0.7182
39890SOL     OW23200  10.598   9.129   6.303 -0.5954 -0.0667  0.1760
39890SOL    HW123201  10.583   9.202   6.243  0.6899  0.1120  0.0513
39890SOL    HW223202  10.558   9.158   6.385 -0.8292  0.4259 -0.1047
39891SOL     OW23203   1.224   5.238   6.425 -0.4791 -0.2082  0.1232
39891SOL    HW123204   1.261   5.224   6.338 -1.1571 -0.2313 -0.1677
39891SOL    HW223205   1.165   5.163   6.438 -0.7855  0.0756  0.3805
39892SOL     OW23206   1.072   3.506   8.248  0.0664 -0.4375  0.0179
39892SOL    HW123207   1.017   3.507   8.327  0.1737  1.2374  0.1014
39892SOL    HW223208   1.023   3.453   8.185 -0.4608 -1.0221  0.8954
39893SOL     OW23209   6.672  11.053   5.190 -0.1467  0.6977  0.2498
39893SOL    HW123210   6.649  11.079   5.100 -0.6162 -0.3010  0.0729
39893SOL    HW223211   6.765  11.074   5.197 -0.1034  0.7921 -0.4735
39894SOL     OW23212   2.402   1.884   2.216  0.2901  0.3946 -0.3897
39894SOL    HW123213   2.396   1.806   2.162 -1.1676  0.5124 -0.4539
39894SOL    HW223214   2.476   1.933   2.181  0.3976 -0.3322 -1.1984
39895SOL     OW23215   6.672   4.110   3.651  0.1780 -0.0423  0.4513
39895SOL    HW123216   6.736   4.168   3.693 -0.8257  1.8129 -0.4468
39895SOL    HW223217   6.719   4.072   3.577  0.3840  0.9811  0.0420
39896SOL     OW23218   1.304   5.992  10.077 -0.2213 -0.1081  0.0115
39896SOL    HW123219   1.266   6.014  10.162  1.1672  1.7856  0.2189
39896SOL    HW223220   1.377   5.934  10.097 -0.7408 -0.7834 -0.0339
39897SOL     OW23221   1.529   9.116   2.970 -0.7492  0.1552  0.7305
39897SOL    HW123222   1.501   9.159   2.889  1.7114 -0.1453 -0.3894
39897SOL    HW223223   1.494   9.170   3.040 -0.2862  2.2778 -0.5922
39898SOL     OW23224   3.549   7.738   6.201  0.3405 -0.2624 -0.5525
39898SOL    HW123225   3.529   7.792   6.278  0.1137 -0.4208 -0.5007
39898SOL    HW223226   3.483   7.762   6.137  0.9704  0.4094 -0.9689
39899SOL     OW23227   8.278   1.334   2.466 -0.2780 -0.3446  0.0568
39899SOL    HW123228   8.315   1.388   2.536  1.2302 -0.6700 -0.4548
39899SOL    HW223229   8.285   1.388   2.387  1.2138 -1.2237 -0.4508
39900SOL     OW23230   0.809   6.892   0.503  0.0325 -0.4161  0.6061
39900SOL    HW123231   0.737   6.947   0.472 -1.0798 -1.3914  1.3354
39900SOL    HW223232   0.864   6.952   0.555 -0.4654  0.2685  0.3627
39901SOL     OW23233   0.377   9.663   2.721 -0.7433  0.1942  0.5788
39901SOL    HW123234   0.424   9.718   2.783 -0.8695  1.4356 -0.3951
39901SOL    HW223235   0.442   9.644   2.653 -0.7518 -0.7307  0.8171
39902SOL     OW23236   4.775   2.377   7.760 -0.1064  0.3459  0.0893
39902SOL    HW123237   4.857   2.425   7.746 -0.7271  1.1261 -1.0279
39902SOL    HW223238   4.759   2.332   7.677 -0.0944 -0.9505  0.7696
39903SOL     OW23239   1.770   5.934   0.688  0.9907  0.2731 -0.0719
39903SOL    HW123240   1.782   5.859   0.630 -0.9493 -3.3154  3.6217
39903SOL    HW223241   1.690   5.977   0.657  0.0327 -1.5063 -0.1857
39904SOL     OW23242   7.529  10.108  10.348 -0.0688 -0.2335  0.5685
39904SOL    HW123243   7.593  10.044  10.378  1.5466  1.0398  0.0351
39904SOL    HW223244   7.545  10.115  10.253 -0.5844  0.5356  0.5245
39905SOL     OW23245   7.395   2.868   3.130  0.0374 -0.5000 -0.6221
39905SOL    HW123246   7.489   2.876   3.113 -0.0206 -1.1316 -1.3223
39905SOL    HW223247   7.356   2.858   3.043 -0.7816  0.6088 -0.4071
39906SOL     OW23248  10.843   3.906   4.151 -0.5726 -0.5466 -0.0680
39906SOL    HW123249  10.821   3.814   4.166 -0.3998 -0.6015 -0.1492
39906SOL    HW223250  10.938   3.906   4.136 -0.3839 -0.2259  0.9875
39907SOL     OW23251   7.733   2.437   4.904 -0.9687  0.1398  0.3859
39907SOL    HW123252   7.827   2.455   4.893 -1.0722  0.0760 -0.6928
39907SOL    HW223253   7.729   2.352   4.947 -0.5283 -0.3873 -0.5827
39908SOL     OW23254   6.049   1.962   6.165  0.0333  0.1455 -0.6875
39908SOL    HW123255   5.954   1.964   6.153  0.0481 -0.0703 -0.8539
39908SOL    HW223256   6.071   2.049   6.197 -0.3503 -0.1474  0.3902
39909SOL     OW23257   4.175   6.074   6.917  0.4070  0.3493 -0.3827
39909SOL    HW123258   4.158   5.985   6.886  0.2042  0.4721 -0.6259
39909SOL    HW223259   4.227   6.062   6.997 -1.5613 -0.0827  0.9157
39910SOL     OW23260   6.509  10.637   6.039 -0.5425 -0.1385 -0.1764
39910SOL    HW123261   6.565  10.623   6.115  0.5411 -0.5137 -1.0150
39910SOL    HW223262   6.438  10.693   6.071 -1.1560 -1.8293  1.5438
39911SOL     OW23263   6.550   3.766   7.291  0.5747  0.1899  0.7508
39911SOL    HW123264   6.474   3.814   7.327  0.7177  0.1751  1.0802
39911SOL    HW223265   6.514   3.681   7.266  0.7937 -0.4720  2.5002
39912SOL     OW23266   9.613   1.972  10.554 -0.0057 -0.0308 -0.4826
39912SOL    HW123267   9.614   1.990  10.648  0.7923 -1.5079 -0.1690
39912SOL    HW223268   9.520   1.970  10.531 -0.2554 -0.5851  0.4917
39913SOL     OW23269   1.267   1.375   9.128 -0.0479  0.0707  0.1142
39913SOL    HW123270   1.252   1.411   9.216  1.0700  0.1434  0.2908
39913SOL    HW223271   1.264   1.280   9.140 -1.4400  0.0763 -0.0655
39914SOL     OW23272   0.118   7.168   7.020  0.7827 -0.2489 -0.1309
39914SOL    HW123273   0.153   7.167   6.931  1.0392 -2.4982 -0.0740
39914SOL    HW223274   0.069   7.086   7.027  0.8086 -0.1427  1.8128
39915SOL     OW23275   7.504   7.393   3.320 -0.2359 -0.3836  0.2556
39915SOL    HW123276   7.445   7.392   3.245 -0.5429  0.1814  0.4881
39915SOL    HW223277   7.574   7.453   3.295  0.0236 -0.7294  0.1474
39916SOL     OW23278   9.277   5.266   7.036  0.3517  0.2981 -0.0776
39916SOL    HW123279   9.199   5.221   7.004  0.6112 -0.1178 -0.1283
39916SOL    HW223280   9.314   5.308   6.958  0.1734  0.5076 -0.0511
39917SOL     OW23281  10.676   7.600   2.295 -0.9437 -0.0324  0.4739
39917SOL    HW123282  10.662   7.526   2.236 -0.1695  0.0798  0.1315
39917SOL    HW223283  10.607   7.663   2.272 -1.1889 -0.3605  0.3015
39918SOL     OW23284   8.708   3.809   5.347 -0.2139  0.3499 -0.4792
39918SOL    HW123285   8.694   3.861   5.426  0.7644 -0.2304  0.1041
39918SOL    HW223286   8.775   3.856   5.298  1.2437 -0.6987  0.4248
39919SOL     OW23287  10.838   7.015   1.107  0.6783  0.1935  0.1257
39919SOL    HW123288  10.926   7.041   1.080  0.8369 -0.9590 -0.4961
39919SOL    HW223289  10.828   6.925   1.078 -1.0777  0.5972 -0.6985
39920SOL     OW23290   2.223   6.567   1.955  0.1872  0.0642  0.1536
39920SOL    HW123291   2.271   6.553   1.874  0.3662  4.1265 -0.6578
39920SOL    HW223292   2.290   6.591   2.019 -0.2394  0.2509  0.5421
39921SOL     OW23293   9.949   2.405  10.064 -0.1370 -0.2906 -0.0376
39921SOL    HW123294   9.925   2.486  10.110 -0.9929 -1.5620  1.8689
39921SOL    HW223295  10.036   2.384  10.099 -0.0563 -0.3753 -0.2892
39922SOL     OW23296   0.613  10.627   1.150 -0.0362 -0.3726  0.3460
39922SOL    HW123297   0.612  10.546   1.100 -0.8830 -0.0081 -0.2488
39922SOL    HW223298   0.673  10.610   1.223 -0.1044 -1.4757  0.1545
39923SOL     OW23299   6.439   6.542   9.654 -0.1772  0.6681  0.2119
39923SOL    HW123300   6.531   6.568   9.654 -0.3867  1.4262 -0.3178
39923SOL    HW223301   6.406   6.567   9.568 -1.0858  1.1336  0.6770
39924SOL     OW23302   9.607   2.315   1.593  0.6013  0.1917 -0.0398
39924SOL    HW123303   9.598   2.220   1.583 -1.1431  0.4180 -0.8949
39924SOL    HW223304   9.559   2.335   1.674 -0.4859  0.5300 -0.7519
39925SOL     OW23305   6.380   2.560   8.481 -0.3867  0.7994  0.4905
39925SOL    HW123306   6.291   2.526   8.492 -0.5314  1.2603  0.7680
39925SOL    HW223307   6.419   2.502   8.415 -0.1117 -0.8531  2.0297
39926SOL     OW23308   0.553   4.495   3.789  0.3532 -0.0118  0.0433
39926SOL    HW123309   0.580   4.581   3.757  2.8729 -1.0401 -0.8595
39926SOL    HW223310   0.462   4.506   3.816  0.1917  2.5650 -1.3289
39927SOL     OW23311   5.541   8.694   2.675  0.5341  0.7234  0.1965
39927SOL    HW123312   5.584   8.629   2.620  1.2446  1.8009 -0.5565
39927SOL    HW223313   5.488   8.643   2.736 -2.1947 -0.4984 -2.9485
39928SOL     OW23314   9.618   0.960   2.925 -0.0906 -0.1979 -0.1357
39928SOL    HW123315   9.630   0.890   2.989  4.0471  0.5260  0.1278
39928SOL    HW223316   9.639   0.919   2.841  2.2059  0.5519  0.0033
39929SOL     OW23317   8.924  10.816   4.707 -0.0054  0.1362  0.2231
39929SOL    HW123318   8.989  10.832   4.776 -0.0766  0.7173  0.1593
39929SOL    HW223319   8.872  10.896   4.704 -1.1043 -0.5253  0.6746
39930SOL     OW23320   4.451   1.609   8.150  0.2077  0.6862 -0.0169
39930SOL    HW123321   4.542   1.582   8.160 -0.0158  0.5814  2.2827
39930SOL    HW223322   4.438   1.674   8.219 -1.6260  0.1588  0.1856
39931SOL     OW23323  10.067   4.092   7.472  0.1740  0.0635  0.3809
39931SOL    HW123324  10.035   4.101   7.562 -1.1067 -1.7256  0.1648
39931SOL    HW223325   9.990   4.063   7.422  1.4243 -1.4783 -0.7555
39932SOL     OW23326   8.965   4.033   3.712 -0.3577 -0.0167  0.2311
39932SOL    HW123327   9.020   3.954   3.713 -0.7183 -0.2734 -0.1078
39932SOL    HW223328   9.024   4.103   3.737  0.2189 -0.2315 -0.5026
39933SOL     OW23329   8.675   1.482   7.708  0.1625  0.2713 -0.6586
39933SOL    HW123330   8.657   1.542   7.780  0.0861 -1.8323  1.1541
39933SOL    HW223331   8.691   1.540   7.633 -0.2009  2.5279  0.8964
39934SOL     OW23332   1.364   5.400   6.771 -0.2199 -0.1445 -0.0275
39934SOL    HW123333   1.297   5.445   6.720 -0.1997  0.8701  0.7896
39934SOL    HW223334   1.404   5.339   6.710 -0.4506  0.7579 -1.1171
39935SOL     OW23335   7.836  10.522   0.996  0.5331 -0.2599  0.3176
39935SOL    HW123336   7.807  10.521   0.904  0.9537 -1.4682  0.1779
39935SOL    HW223337   7.773  10.579   1.040 -0.3024 -0.4984 -0.5273
39936SOL     OW23338  10.730   5.736   6.330 -0.0081  0.3771  0.0682
39936SOL    HW123339  10.639   5.732   6.301  0.1112  1.5442 -0.5366
39936SOL    HW223340  10.762   5.820   6.297  1.5644 -0.4221 -0.5568
39937SOL     OW23341   7.184  11.059   8.586 -0.1934  0.8168  0.0407
39937SOL    HW123342   7.168  11.065   8.492 -0.3430 -1.2540 -0.1131
39937SOL    HW223343   7.218  11.145   8.611 -0.4922  1.5082 -1.8268
39938SOL     OW23344   0.897   6.290   3.239  0.1445  0.0196 -0.2714
39938SOL    HW123345   0.884   6.346   3.316 -0.3898 -0.3156 -0.1089
39938SOL    HW223346   0.908   6.352   3.167  0.6626  0.3359  0.0750
39939SOL     OW23347   4.774   2.358   0.391 -0.3314  0.4086  0.2621
39939SOL    HW123348   4.788   2.313   0.307  0.5191  2.1323 -0.5813
39939SOL    HW223349   4.852   2.339   0.442 -1.6178 -2.1185  1.4420
39940SOL     OW23350  10.854   0.045   7.415 -0.2515 -0.1310 -0.3473
39940SOL    HW123351  10.824   0.005   7.334  1.3469 -0.7411 -0.6803
39940SOL    HW223352  10.778   0.043   7.473 -0.4263 -3.1041 -0.5602
39941SOL     OW23353   1.689   4.759   6.684 -0.1757 -0.1936  0.1459
39941SOL    HW123354   1.614   4.743   6.742 -0.2566 -0.5547 -0.0526
39941SOL    HW223355   1.765   4.754   6.742 -0.1981 -1.3405  0.0994
39942SOL     OW23356   5.083   1.139   0.694  0.3171  0.0369 -1.0618
39942SOL    HW123357   5.145   1.071   0.718 -0.8383 -1.5323 -2.2940
39942SOL    HW223358   5.019   1.140   0.766 -0.3586 -1.1126 -1.6167
39943SOL     OW23359   4.860   9.330   2.095  0.0997 -0.7035 -0.0208
39943SOL    HW123360   4.861   9.394   2.023  0.9354 -1.8034 -1.0267
39943SOL    HW223361   4.934   9.273   2.077 -1.5681 -2.9619 -0.1103
39944SOL     OW23362   8.091   6.411   6.368  0.0671  0.6574 -0.1230
39944SOL    HW123363   8.138   6.440   6.447  0.6413  0.3210 -0.3303
39944SOL    HW223364   8.132   6.459   6.297 -0.9189  1.4775 -0.1485
39945SOL     OW23365   4.088   2.294   6.847 -0.0756  0.5714  0.4980
39945SOL    HW123366   4.154   2.345   6.798  0.2525 -0.0770  0.2544
39945SOL    HW223367   4.139   2.239   6.906 -0.3554 -0.5007 -0.2389
39946SOL     OW23368   2.702   0.159   7.741  0.0775  0.3870 -0.3592
39946SOL    HW123369   2.666   0.129   7.658 -0.7818  0.1084  0.1114
39946SOL    HW223370   2.733   0.079   7.784 -0.9258  0.3278  0.2753
39947SOL     OW23371   2.062   4.178   6.237  0.5595  0.3677  0.4121
39947SOL    HW123372   2.019   4.104   6.280  2.1120 -1.9532 -1.6902
39947SOL    HW223373   1.996   4.214   6.179 -0.1964  0.5852  1.3938
39948SOL     OW23374   4.770   1.448   1.452 -0.0581 -0.1834 -0.0667
39948SOL    HW123375   4.828   1.380   1.417 -0.0991 -0.9377  1.2451
39948SOL    HW223376   4.818   1.530   1.439 -0.2521 -0.3494 -2.1974
39949SOL     OW23377   0.107   4.588   2.030 -0.3378  0.4351  0.2992
39949SOL    HW123378   0.096   4.683   2.024 -2.0139  0.2740  0.4166
39949SOL    HW223379   0.067   4.565   2.114 -1.6568 -0.5934 -0.5879
39950SOL     OW23380   7.981   7.763  10.117 -0.0651 -0.1789 -0.4090
39950SOL    HW123381   7.982   7.747  10.211  0.7937 -0.9696 -0.5394
39950SOL    HW223382   7.895   7.735  10.088 -0.4509  0.3629  0.1806
39951SOL     OW23383   1.117  10.271   5.377  0.2079 -0.0997  0.1451
39951SOL    HW123384   1.194  10.215   5.369  0.8880  0.5214  1.9625
39951SOL    HW223385   1.049  10.213   5.412  0.4465 -0.1712  0.4923
39952SOL     OW23386   9.101   1.077   5.246  0.4779 -0.6930 -0.0329
39952SOL    HW123387   9.041   1.152   5.248  0.5629 -0.6316  1.6783
39952SOL    HW223388   9.045   1.001   5.231  0.2592 -0.4070 -0.6944
39953SOL     OW23389   9.788   3.823   8.578 -0.3355 -0.2510 -0.2989
39953SOL    HW123390   9.755   3.802   8.666 -0.0828 -1.0268 -0.3798
39953SOL    HW223391   9.765   3.914   8.565  0.7445  0.2605  1.0886
39954SOL     OW23392   8.389   8.011   6.049  0.4108 -0.2556  0.1545
39954SOL    HW123393   8.481   8.009   6.021  1.4825 -0.5252  3.2976
39954SOL    HW223394   8.366   8.103   6.051  0.2387 -0.2203 -1.5022
39955SOL     OW23395  10.005   0.830   6.083  0.3847  0.1227  0.0764
39955SOL    HW123396  10.050   0.828   5.999 -0.5385 -0.0262 -0.4179
39955SOL    HW223397  10.034   0.751   6.128  1.5566  0.6402  0.2695
39956SOL     OW23398   7.917   4.545   2.710 -0.0000  0.2276  0.5548
39956SOL    HW123399   7.853   4.595   2.761 -0.3499 -0.2798  0.6274
39956SOL    HW223400   7.894   4.453   2.727  2.1164 -0.0403  2.3557
39957SOL     OW23401   0.032   8.268   9.446  0.3545  0.0131  0.3010
39957SOL    HW123402  -0.003   8.301   9.529 -2.0216  0.9365 -0.9750
39957SOL    HW223403   0.104   8.327   9.425 -0.9011  1.6173  0.3169
39958SOL     OW23404   4.076   7.251   1.877  0.2992 -0.0230 -0.3642
39958SOL    HW123405   4.067   7.346   1.871 -0.8285  0.1609  2.6557
39958SOL    HW223406   4.170   7.235   1.864  0.3481  1.3369 -1.9774
39959SOL     OW23407   6.660  10.647   7.560 -0.0398  0.5211 -0.3014
39959SOL    HW123408   6.591  10.679   7.502 -0.4514  1.2039  0.5431
39959SOL    HW223409   6.640  10.554   7.572  0.8582  0.0121 -2.3438
39960SOL     OW23410   2.131   9.067   5.974 -0.1820  0.1605  0.4504
39960SOL    HW123411   2.177   9.144   5.941  0.5501 -0.0688  0.9096
39960SOL    HW223412   2.045   9.099   5.999  0.1434  0.8433  0.7049
39961SOL     OW23413   3.857   3.496   7.641  0.1581 -0.5872  0.0376
39961SOL    HW123414   3.869   3.567   7.577  1.0844 -0.8318 -0.0698
39961SOL    HW223415   3.790   3.529   7.700 -0.9609 -0.4771 -1.2381
39962SOL     OW23416  10.877   3.145   3.615 -0.0747 -0.5137 -0.0906
39962SOL    HW123417  10.785   3.171   3.613 -0.6926 -2.4233  1.1453
39962SOL    HW223418  10.923   3.223   3.646 -1.0188  0.9843 -2.1790
39963SOL     OW23419   4.694   1.080   3.976  0.0409 -0.3943  1.0011
39963SOL    HW123420   4.681   1.105   4.067 -0.9034  1.7222  0.3550
39963SOL    HW223421   4.606   1.071   3.940  0.3913 -0.1295  0.0340
39964SOL     OW23422   9.189   0.927   4.183 -0.0027  0.0919  0.0488
39964SOL    HW123423   9.127   0.857   4.161 -1.6637  1.5178 -0.0828
39964SOL    HW223424   9.213   0.965   4.099 -0.6469  0.8786  0.1963
39965SOL     OW23425   5.321   5.604   4.563  0.4253  0.1838  0.1168
39965SOL    HW123426   5.322   5.631   4.654  0.0032  0.4069  0.0577
39965SOL    HW223427   5.383   5.664   4.520  0.2276  0.4238  0.1631
39966SOL     OW23428   7.963  10.915  10.250  0.4758 -0.0675 -0.2142
39966SOL    HW123429   8.012  10.996  10.267  1.4775 -0.7769  0.4253
39966SOL    HW223430   7.972  10.902  10.155  1.2260  0.0090 -0.1612
39967SOL     OW23431   0.226   3.028   3.258 -0.0438 -0.3621  1.0883
39967SOL    HW123432   0.294   3.093   3.271 -0.0969  0.6348 -2.6374
39967SOL    HW223433   0.158   3.051   3.322  1.3011  1.1933  2.0161
39968SOL     OW23434   1.315   4.570  10.791 -0.4405  0.0519 -0.2867
39968SOL    HW123435   1.291   4.485  10.756  0.4038 -0.6608  0.7859
39968SOL    HW223436   1.410   4.575  10.780 -0.0159 -0.5028  2.3772
39969SOL     OW23437   9.626   4.654   8.532  0.5073  0.0923 -0.3674
39969SOL    HW123438   9.698   4.608   8.577  1.2211 -0.1091 -1.6711
39969SOL    HW223439   9.596   4.592   8.466  0.1903  0.7814 -0.8791
39970SOL     OW23440   0.798   0.555   7.528  0.6150  0.6193 -0.0005
39970SOL    HW123441   0.856   0.486   7.560  1.7800  0.6186 -1.9584
39970SOL    HW223442   0.819   0.631   7.582  0.0901 -0.2278  1.4517
39971SOL     OW23443   9.000   9.840   6.248 -0.0832  0.0182  0.0162
39971SOL    HW123444   9.038   9.850   6.161  0.9928 -1.1072  0.3339
39971SOL    HW223445   8.924   9.899   6.248 -1.7835 -1.9430 -2.6439
39972SOL     OW23446   4.522   7.929   1.473 -0.0631  0.0903  0.7390
39972SOL    HW123447   4.470   8.007   1.451 -0.6281 -0.5420 -0.2708
39972SOL    HW223448   4.501   7.867   1.403  1.9137 -0.2713  0.4167
39973SOL     OW23449   3.623   2.461   2.927 -0.0437  0.0568  0.1615
39973SOL    HW123450   3.535   2.422   2.928  0.4019 -1.1396 -1.4225
39973SOL    HW223451   3.682   2.386   2.928  0.8691  0.6304 -2.2686
39974SOL     OW23452   2.388   9.828   9.946 -0.4167 -0.4558  0.1420
39974SOL    HW123453   2.392   9.746   9.898 -1.0128 -0.0884 -0.5523
39974SOL    HW223454   2.339   9.807  10.026  2.7251 -1.6771  1.9333
39975SOL     OW23455   2.913   1.169   4.921  0.2442  0.4473  0.3282
39975SOL    HW123456   2.963   1.097   4.883  3.4717  1.8183  1.6553
39975SOL    HW223457   2.865   1.207   4.847  0.8060 -1.2315 -0.9438
39976SOL     OW23458   1.291   2.938  10.600 -0.1837  0.2088  0.4231
39976SOL    HW123459   1.315   2.890  10.680  0.1737  0.3432  0.3983
39976SOL    HW223460   1.375   2.964  10.562 -0.3655  0.4875  0.2117
39977SOL     OW23461   4.486   9.190   3.795 -0.1730 -0.0893  0.0238
39977SOL    HW123462   4.539   9.153   3.866 -2.7047 -0.6136  1.7751
39977SOL    HW223463   4.465   9.278   3.825 -0.6980 -0.0650 -0.4053
39978SOL     OW23464   0.700  11.105   4.486 -0.0422  0.6518  0.6121
39978SOL    HW123465   0.740  11.024   4.516  1.4911 -0.4632 -3.6868
39978SOL    HW223466   0.717  11.168   4.557 -0.4464 -2.4117  3.6885
39979SOL     OW23467   4.086   7.678   9.451  0.0165  0.0634  0.0377
39979SOL    HW123468   4.102   7.769   9.428 -0.0100 -0.1984 -1.1273
39979SOL    HW223469   4.154   7.629   9.404  0.1208 -0.5063  0.7624
39980SOL     OW23470   5.106  10.090   5.141  0.2805  0.2076  0.3173
39980SOL    HW123471   5.164  10.069   5.214 -2.0320  1.0205  2.5496
39980SOL    HW223472   5.048  10.158   5.176 -2.1145 -0.6724 -1.6915
39981SOL     OW23473   1.921  10.733   7.302 -0.1773 -0.1596 -0.2647
39981SOL    HW123474   1.881  10.811   7.342 -1.9503 -0.8411 -0.6349
39981SOL    HW223475   1.892  10.660   7.357  0.0523 -0.7501 -0.9165
39982SOL     OW23476   0.480   7.600   9.066  0.2140 -0.2658 -0.0811
39982SOL    HW123477   0.515   7.512   9.078 -0.2004 -0.5217 -0.7093
39982SOL    HW223478   0.445   7.624   9.151  1.0917 -0.3690  0.3164
39983SOL     OW23479   7.465   6.516   6.026 -0.0296  0.5663 -0.0095
39983SOL    HW123480   7.416   6.447   6.072  1.5472  0.0875  1.0351
39983SOL    HW223481   7.551   6.477   6.009 -0.0643  1.2809 -2.0671
39984SOL     OW23482   4.772  10.050   2.088  0.6073  0.0850 -0.3956
39984SOL    HW123483   4.742  10.081   2.003  0.2703  3.7729  0.8927
39984SOL    HW223484   4.866  10.066   2.088  0.2923  2.3914  0.6334
39985SOL     OW23485   1.639   5.528   1.504  0.7079  0.5486  0.0314
39985SOL    HW123486   1.694   5.589   1.455  0.8810  0.9498  0.7122
39985SOL    HW223487   1.549   5.554   1.485  0.6164 -1.3163 -2.6683
39986SOL     OW23488   0.626   3.109   0.695 -0.0811 -0.0033 -0.1570
39986SOL    HW123489   0.721   3.099   0.702  0.4630  2.7515 -2.1933
39986SOL    HW223490   0.599   3.043   0.632  0.0914 -2.0862  1.8210
39987SOL     OW23491   3.064   1.713   4.547 -0.2390  0.3442 -0.0947
39987SOL    HW123492   3.051   1.805   4.527  1.7051  0.5333 -0.7210
39987SOL    HW223493   3.109   1.712   4.632 -1.5007 -0.1168  0.5954
39988SOL     OW23494   7.213   5.066   5.675  0.2190 -0.1839  0.6458
39988SOL    HW123495   7.302   5.042   5.649 -0.0443 -0.7169  0.2017
39988SOL    HW223496   7.177   4.987   5.715 -0.2065 -0.1215  0.4033
39989SOL     OW23497   1.738   8.099   9.796 -0.0420  0.2643 -0.3213
39989SOL    HW123498   1.829   8.084   9.769 -0.7331  0.2335 -2.8847
39989SOL    HW223499   1.714   8.021   9.846  1.0227 -0.1872 -0.4884
39990SOL     OW23500   7.084   5.220   8.825 -0.6048 -0.1149 -0.3319
39990SOL    HW123501   7.026   5.281   8.779  0.9963  2.2630  0.6350
39990SOL    HW223502   7.169   5.231   8.782 -0.0118 -0.8156  0.6222
39991SOL     OW23503   8.606   6.889   9.466 -0.0649 -0.3198  0.1693
39991SOL    HW123504   8.530   6.934   9.430 -0.1650 -1.2197 -0.8068
39991SOL    HW223505   8.681   6.925   9.418 -0.0882 -0.7795 -0.2225
39992SOL     OW23506   9.067   4.257   0.808  0.2712 -0.4051  0.3908
39992SOL    HW123507   9.012   4.191   0.766 -0.2155  0.2356 -0.0045
39992SOL    HW223508   9.156   4.232   0.786  0.0819 -0.8157  0.0790
39993SOL     OW23509   0.952   7.140   6.457 -0.1688  0.3279  0.2053
39993SOL    HW123510   0.908   7.125   6.541  1.1994  1.5972  1.1988
39993SOL    HW223511   1.028   7.193   6.479 -0.1565  1.3053 -1.9542
39994SOL     OW23512   0.695  10.373   3.061  0.0840  0.0561 -0.8703
39994SOL    HW123513   0.723  10.415   3.142 -1.3039 -1.6085  0.5823
39994SOL    HW223514   0.731  10.427   2.991  0.3102  2.2683  0.8491
39995SOL     OW23515   0.905   8.854   0.872 -0.2646 -0.2543  0.1173
39995SOL    HW123516   0.946   8.903   0.944  0.6062 -0.5246 -0.1782
39995SOL    HW223517   0.974   8.848   0.806 -0.7277 -0.9092 -0.3117
39996SOL     OW23518   8.648   5.089   7.008  0.1127  0.2294  0.4468
39996SOL    HW123519   8.718   5.034   6.973  0.3296 -0.8277  2.4002
39996SOL    HW223520   8.685   5.177   7.008  0.2574  0.2027 -1.4577
39997SOL     OW23521   0.158   8.280   8.236  0.5421  0.2798  0.0173
39997SOL    HW123522   0.251   8.302   8.239  0.1344  2.3217 -0.5481
39997SOL    HW223523   0.130   8.309   8.149 -0.8043  0.5344  0.5172
39998SOL     OW23524   7.278   5.486   3.866  0.7527 -0.6754 -0.0462
39998SOL    HW123525   7.229   5.567   3.882  0.4155 -0.6454 -1.1395
39998SOL    HW223526   7.306   5.457   3.953  0.0027  0.0661  0.4546
39999SOL     OW23527   8.806   2.131   0.522  0.0464 -0.1509 -0.6002
39999SOL    HW123528   8.733   2.098   0.574 -0.3218  1.1846 -0.2406
39999SOL    HW223529   8.766   2.155   0.438 -0.0188  0.9771 -0.2551
40000SOL     OW23530   7.492   3.862   8.977 -0.2828  0.4091 -0.1052
40000SOL    HW123531   7.529   3.945   9.008 -0.7974  0.9619 -0.9210
40000SOL    HW223532   7.562   3.798   8.990  0.9790  1.4150 -1.6206
40001SOL     OW23533   1.218  10.321   1.040  0.1360 -0.0790  0.2944
40001SOL    HW123534   1.250  10.337   0.951  1.7041 -1.9410  0.4510
40001SOL    HW223535   1.124  10.305   1.029 -0.0902  1.7603 -0.7178
40002SOL     OW23536   2.785   8.289   3.969 -0.7837  0.0592  0.4002
40002SOL    HW123537   2.862   8.342   3.948 -1.5918  1.0701 -0.0285
40002SOL    HW223538   2.781   8.224   3.899 -1.3743  1.1590 -0.6069
40003SOL     OW23539   5.524   6.239   5.077  0.1363  0.1347 -0.0230
40003SOL    HW123540   5.540   6.161   5.131  2.3464  0.6690  0.1684
40003SOL    HW223541   5.569   6.222   4.995 -1.2578  0.3149 -0.8652
40004SOL     OW23542   6.547   9.545   4.436 -0.7255 -0.2225  0.7899
40004SOL    HW123543   6.457   9.566   4.409 -1.2031 -1.0539  1.6908
40004SOL    HW223544   6.595   9.628   4.425 -1.3037 -0.0757 -0.8499
40005SOL     OW23545   0.627   9.512   9.403  0.4328  0.0605  0.2217
40005SOL    HW123546   0.585   9.511   9.489  0.3702 -2.1197  0.2153
40005SOL    HW223547   0.670   9.597   9.398  0.4917  0.2103  2.4398
40006SOL     OW23548   3.945   3.023   0.697  0.2493  0.5383 -0.1723
40006SOL    HW123549   3.931   2.958   0.766  0.4878  0.0651 -0.5630
40006SOL    HW223550   3.907   3.104   0.732 -0.2895  0.1246  0.2114
40007SOL     OW23551   4.478   2.413   6.410  0.3180  0.5523 -0.5409
40007SOL    HW123552   4.558   2.373   6.376  0.5822  1.3607 -0.8869
40007SOL    HW223553   4.507   2.495   6.449 -0.3576  0.8976 -0.7494
40008SOL     OW23554   7.642   9.257   8.330  0.3388 -0.1670  0.4691
40008SOL    HW123555   7.695   9.321   8.283 -0.1509 -0.3661 -0.3821
40008SOL    HW223556   7.642   9.287   8.420  2.5466 -0.5932  0.6570
40009SOL     OW23557   7.547   6.914   4.034  0.7139  0.0634  0.6209
40009SOL    HW123558   7.511   6.844   3.979  0.0015  2.3451 -2.0331
40009SOL    HW223559   7.614   6.870   4.087 -1.1843 -3.0077  0.7255
40010SOL     OW23560   8.287  10.184   3.542 -0.2683  0.7619  0.3814
40010SOL    HW123561   8.202  10.204   3.502 -0.0683 -0.9413 -1.0091
40010SOL    HW223562   8.347  10.248   3.503 -0.3648  0.0463 -1.0102
40011SOL     OW23563   7.698   2.738   0.385 -0.5673 -0.1243  0.0396
40011SOL    HW123564   7.788   2.758   0.411 -0.9799 -0.0422  1.4935
40011SOL    HW223565   7.690   2.776   0.297 -0.0012  2.3335  0.9657
40012SOL     OW23566   2.527  10.276   3.863 -0.3937  0.0534  0.1233
40012SOL    HW123567   2.534  10.360   3.907 -2.4347  0.2605  0.1817
40012SOL    HW223568   2.617  10.248   3.848  0.4402  0.3562  3.6767
40013SOL     OW23569   6.803   9.817   3.542 -0.3100 -0.3232  0.0722
40013SOL    HW123570   6.864   9.844   3.611  0.0435 -1.5100  0.2373
40013SOL    HW223571   6.749   9.749   3.583 -0.4655 -0.6421 -0.6536
40014SOL     OW23572   3.480   3.160   5.800  0.2669  0.4131  0.2013
40014SOL    HW123573   3.415   3.216   5.844 -1.6225 -0.4387 -1.3257
40014SOL    HW223574   3.486   3.196   5.712  0.1568 -0.8718 -0.3429
40015SOL     OW23575   2.944   7.884   2.602  0.4142 -0.0858 -0.9961
40015SOL    HW123576   3.013   7.941   2.567 -0.4042  1.0179 -0.8674
40015SOL    HW223577   2.989   7.829   2.667  0.8331  2.1286  0.7229
40016SOL     OW23578   4.781  10.576  10.671 -0.2303  0.4579 -0.2788
40016SOL    HW123579   4.720  10.573  10.597 -2.7112  0.9803  1.6143
40016SOL    HW223580   4.846  10.641  10.644 -1.4910  1.2088 -1.7304
40017SOL     OW23581   3.185   8.519   1.866  0.0453  0.1897  0.3219
40017SOL    HW123582   3.133   8.597   1.846 -0.7328 -0.8523 -2.1073
40017SOL    HW223583   3.275   8.543   1.844 -0.3775  0.0556 -1.7753
40018SOL     OW23584   8.781  10.200   8.022 -0.5865  0.2314  0.1198
40018SOL    HW123585   8.828  10.278   7.993  2.3889 -0.5231  2.4923
40018SOL    HW223586   8.830  10.127   7.986  0.0092 -0.5873  2.4200
40019SOL     OW23587   3.360   0.213   9.167  0.0058 -0.0086  0.3777
40019SOL    HW123588   3.442   0.215   9.216  0.4505 -2.0069 -0.2380
40019SOL    HW223589   3.293   0.201   9.235  0.4913 -1.3429  0.6379
40020SOL     OW23590   5.734   7.835   1.719 -0.0505  0.4915 -0.1307
40020SOL    HW123591   5.757   7.862   1.808  1.2255 -2.6829  0.6372
40020SOL    HW223592   5.721   7.917   1.672 -0.1259  2.3110  2.7841
40021SOL     OW23593  10.314   0.904   0.460  0.4554  0.1109  0.0230
40021SOL    HW123594  10.222   0.881   0.453  0.4260  0.4392 -0.7694
40021SOL    HW223595  10.320   0.992   0.422  0.8988  0.6032  1.1767
40022SOL     OW23596   8.186   4.606   6.725 -0.2189  0.1769 -0.0389
40022SOL    HW123597   8.151   4.519   6.746 -1.1198  0.3657 -0.6981
40022SOL    HW223598   8.195   4.606   6.630  0.3144  0.6066  0.0095
40023SOL     OW23599   6.805   5.404   9.602  0.3007 -0.0362 -0.1023
40023SOL    HW123600   6.718   5.383   9.567 -0.1451 -0.4547  1.1738
40023SOL    HW223601   6.848   5.319   9.612 -0.4934 -0.2193  2.5374
40024SOL     OW23602   9.904   3.006  10.469 -0.3817 -0.0427  0.5403
40024SOL    HW123603   9.974   2.942  10.459 -0.3385  0.2311 -1.1289
40024SOL    HW223604   9.840   2.982  10.402 -1.3071  0.4684  1.2124
40025SOL     OW23605   9.858   1.833   0.360 -0.0141  0.5935 -0.5208
40025SOL    HW123606   9.903   1.797   0.436 -1.1624 -0.0079 -0.0897
40025SOL    HW223607   9.878   1.773   0.289 -2.2746 -1.2797  0.2933
40026SOL     OW23608   8.734   3.102   9.558  0.0902  0.0933  0.0328
40026SOL    HW123609   8.721   3.088   9.464 -1.8598  2.7701 -0.1993
40026SOL    HW223610   8.734   3.014   9.595 -1.5432 -0.9493 -2.2168
40027SOL     OW23611   2.354   9.078   3.813 -0.2048 -0.0521 -0.3032
40027SOL    HW123612   2.391   8.994   3.838  0.6297  0.0970 -1.0133
40027SOL    HW223613   2.282   9.056   3.754  1.3689 -0.2478 -2.2714
40028SOL     OW23614   7.588   6.855   0.339 -0.1375  0.0505  0.0441
40028SOL    HW123615   7.593   6.780   0.280 -1.4638  1.1418 -1.5418
40028SOL    HW223616   7.514   6.835   0.397 -0.7420  0.2882 -0.6334
40029SOL     OW23617   4.329  10.993   1.703  0.7226 -0.3880  0.0064
40029SOL    HW123618   4.289  10.906   1.698  1.6237 -0.8020 -0.2329
40029SOL    HW223619   4.393  10.986   1.774  1.6087 -0.2751 -0.7603
40030SOL     OW23620   8.169   2.900   2.770 -0.0713 -0.0582 -0.0926
40030SOL    HW123621   8.250   2.889   2.721  0.2822 -1.1831  0.6820
40030SOL    HW223622   8.175   2.835   2.841 -2.1558 -1.0183 -0.6835
40031SOL     OW23623   6.609   5.628   7.207  0.2039  0.1768  0.6554
40031SOL    HW123624   6.661   5.578   7.143 -1.1594 -0.8144  0.2706
40031SOL    HW223625   6.522   5.634   7.167 -0.3407  0.6272  1.8690
40032SOL     OW23626   4.072   2.211   1.303 -0.3468 -0.1731  0.1643
40032SOL    HW123627   4.030   2.247   1.225 -0.8151  0.3192  0.6326
40032SOL    HW223628   4.133   2.280   1.331 -0.1480 -0.3668  0.2120
40033SOL     OW23629   3.413   1.304   2.106  0.3274  0.0600  0.1960
40033SOL    HW123630   3.412   1.316   2.201  1.4295 -0.5587  0.3106
40033SOL    HW223631   3.323   1.321   2.078 -0.1816 -0.4606  1.4390
40034SOL     OW23632   9.346   3.531   0.227 -0.3436 -0.6369  0.6269
40034SOL    HW123633   9.430   3.514   0.185 -0.4254 -0.9437  0.5824
40034SOL    HW223634   9.281   3.508   0.161 -0.4588  0.0797  0.4862
40035SOL     OW23635   7.611   4.008   4.701 -0.0815  0.9009 -0.0685
40035SOL    HW123636   7.666   4.029   4.777 -0.6239  0.6096  0.4210
40035SOL    HW223637   7.578   4.092   4.671  0.4198  1.0531 -0.2043
40036SOL     OW23638   3.385   3.543   8.900  0.4684  0.0695 -0.3275
40036SOL    HW123639   3.359   3.483   8.830  0.3852 -1.4684  0.9588
40036SOL    HW223640   3.440   3.490   8.958  0.8969  1.4200  0.5427
40037SOL     OW23641   1.371   9.121  11.049 -0.1692  0.3156  0.4877
40037SOL    HW123642   1.418   9.204  11.045 -1.8045  1.3475  1.7858
40037SOL    HW223643   1.342   9.114  11.140 -0.4509 -1.4654  0.2891
40038SOL     OW23644   2.080   1.195   1.789  0.3886  0.4589 -0.1994
40038SOL    HW123645   2.110   1.274   1.744  1.8272  0.7075  1.1001
40038SOL    HW223646   2.049   1.137   1.719 -0.4271  2.0448 -1.1919
40039SOL     OW23647   0.142   4.044   2.276  0.1088 -0.5310 -1.0173
40039SOL    HW123648   0.096   4.059   2.193 -0.0348  2.3915 -0.5110
40039SOL    HW223649   0.233   4.069   2.257 -0.0297  0.6586 -0.2077
40040SOL     OW23650  10.630   7.509   1.216 -0.7784 -0.1086  0.5223
40040SOL    HW123651  10.723   7.524   1.196 -1.0903  1.3770  0.0703
40040SOL    HW223652  10.631   7.447   1.289  0.5059 -2.3383 -1.2563
40041SOL     OW23653   9.637   3.533   1.180  0.2919  0.4705 -0.2221
40041SOL    HW123654   9.646   3.444   1.146 -0.8194  0.5036 -0.6422
40041SOL    HW223655   9.634   3.588   1.101 -1.9975  0.5747 -0.1369
40042SOL     OW23656  10.495   3.842   9.265  0.2975  0.0738  0.3576
40042SOL    HW123657  10.475   3.932   9.291  0.5408  0.3188 -0.2831
40042SOL    HW223658  10.460   3.834   9.177  0.7273 -0.2965  0.2140
40043SOL     OW23659  10.321   2.323   2.685 -0.5553  0.0019 -0.9262
40043SOL    HW123660  10.379   2.310   2.610  0.0531 -1.6896 -0.2325
40043SOL    HW223661  10.313   2.418   2.695  2.1821  0.3116 -1.0096
40044SOL     OW23662   7.891  10.873   9.973 -0.1281  0.4048 -0.5162
40044SOL    HW123663   7.835  10.805  10.011  0.1502  0.1751 -0.5220
40044SOL    HW223664   7.936  10.830   9.901  0.0038  0.6132 -0.5596
40045SOL     OW23665   7.729   8.864   5.277  0.0679  0.5930 -0.0208
40045SOL    HW123666   7.721   8.806   5.201 -0.5182 -1.3433  1.4193
40045SOL    HW223667   7.816   8.847   5.311  1.9908  4.3718 -2.3380
40046SOL     OW23668   4.373   2.484   9.800 -0.4147 -0.4839  0.6525
40046SOL    HW123669   4.448   2.431   9.776  0.1307  0.2584  0.6652
40046SOL    HW223670   4.319   2.427   9.854 -0.3710 -1.3509 -0.1818
40047SOL     OW23671   5.141   6.667   4.846 -0.2825  0.1802 -0.2799
40047SOL    HW123672   5.055   6.705   4.865  0.5245  1.4653  1.0414
40047SOL    HW223673   5.149   6.671   4.751 -0.7357  2.2812 -0.2719
40048SOL     OW23674   0.362   1.440   4.663  0.5758  0.0016  0.0030
40048SOL    HW123675   0.407   1.427   4.746 -1.7352 -0.4821  1.2704
40048SOL    HW223676   0.336   1.352   4.636  2.7673 -0.0734 -2.2166
40049SOL     OW23677   2.538   0.201   8.745  0.4148  0.0808  0.2227
40049SOL    HW123678   2.497   0.167   8.666  0.0195  2.7425 -0.8414
40049SOL    HW223679   2.517   0.137   8.813  0.3869 -2.0604 -1.6992
40050SOL     OW23680   1.737   8.418  10.376  0.0379 -0.1170  0.0027
40050SOL    HW123681   1.793   8.418  10.299  0.5133  0.6392  0.3399
40050SOL    HW223682   1.794   8.444  10.448 -0.4824 -0.4598  0.5543
40051SOL     OW23683   1.622   2.845   0.645  0.3325 -0.1261 -0.2796
40051SOL    HW123684   1.559   2.786   0.602  0.2144  0.2624 -0.6395
40051SOL    HW223685   1.584   2.932   0.637  0.1712 -0.0753  0.8673
40052SOL     OW23686   4.174   3.155   6.935 -0.0833  0.3122 -0.2168
40052SOL    HW123687   4.223   3.073   6.930 -0.4326  0.1140 -0.5255
40052SOL    HW223688   4.182   3.183   7.026  1.1422  0.6294 -0.4030
40053SOL     OW23689  10.107   9.771   1.953 -0.1281  0.3307 -0.4713
40053SOL    HW123690  10.181   9.792   1.896 -1.0442 -1.1670 -2.3217
40053SOL    HW223691  10.061   9.854   1.964  2.4830  1.6340  1.8977
40054SOL     OW23692   6.921   1.087   0.525  0.0044  0.5472 -0.1550
40054SOL    HW123693   6.989   1.122   0.467  1.3715 -0.0518  1.0226
40054SOL    HW223694   6.880   1.164   0.563  0.8273  0.9160  0.0066
40055SOL     OW23695   4.914   2.814   4.808  0.0769  0.3149 -0.4287
40055SOL    HW123696   4.970   2.773   4.742 -0.7640 -1.4570 -0.0926
40055SOL    HW223697   4.965   2.808   4.889 -0.2666 -0.5871 -0.2741
40056SOL     OW23698   5.515   7.361   6.378 -0.5574  0.4067 -0.2172
40056SOL    HW123699   5.576   7.362   6.304  0.9916 -2.7502  0.8217
40056SOL    HW223700   5.428   7.356   6.338  0.0857  1.0562 -1.7723
40057SOL     OW23701   9.762   4.687   6.853 -0.8566 -0.4106 -0.1503
40057SOL    HW123702   9.809   4.617   6.807 -0.7684 -0.4321 -0.0295
40057SOL    HW223703   9.788   4.676   6.944  0.2845  0.6713 -0.3289
40058SOL     OW23704   7.427   7.130   9.126  0.4027  0.4051  0.4647
40058SOL    HW123705   7.515   7.123   9.162  0.5867  0.1893 -0.0326
40058SOL    HW223706   7.371   7.143   9.203  0.6820 -1.0096  0.9335
40059SOL     OW23707   4.809   8.125   7.351  0.6887 -0.3873 -0.4660
40059SOL    HW123708   4.824   8.062   7.421 -0.0662  0.4084  0.4385
40059SOL    HW223709   4.873   8.194   7.366  1.5755 -0.9487 -1.5112
40060SOL     OW23710   5.540   4.742   7.524 -0.2160  0.9401  0.0291
40060SOL    HW123711   5.507   4.675   7.466 -0.6666  0.2442  1.0598
40060SOL    HW223712   5.474   4.811   7.521 -0.0041  1.1243 -0.6307
40061SOL     OW23713  10.940   7.490   0.233  0.5512  0.3730  0.3796
40061SOL    HW123714  10.980   7.478   0.319  1.0830 -1.5154 -0.0908
40061SOL    HW223715  10.846   7.492   0.250  0.5989 -1.0173  0.9240
40062SOL     OW23716   4.326   8.965   8.891 -0.2414  0.3298 -0.5701
40062SOL    HW123717   4.394   9.030   8.908  0.0359 -0.6806  3.0050
40062SOL    HW223718   4.366   8.907   8.826  0.9053  1.6881 -1.1422
40063SOL     OW23719   1.796   9.568   0.648 -0.6263  0.3370 -0.1376
40063SOL    HW123720   1.885   9.564   0.682 -0.2258  0.7242 -1.0887
40063SOL    HW223721   1.762   9.652   0.678  0.4553  1.6570 -2.3007
40064SOL     OW23722   5.332   7.383   5.587 -0.3541 -0.2544 -0.1244
40064SOL    HW123723   5.396   7.445   5.554 -0.7785  0.5080  0.4659
40064SOL    HW223724   5.255   7.396   5.531 -0.7913  0.4708  0.6247
40065SOL     OW23725   3.450   7.736   6.680 -0.3995 -0.0405  0.1223
40065SOL    HW123726   3.539   7.759   6.709 -0.0335 -1.5318  0.2743
40065SOL    HW223727   3.398   7.739   6.760 -0.2515 -0.2340  0.2259
40066SOL     OW23728   6.918   0.404   1.575  0.2681 -0.5036 -0.2843
40066SOL    HW123729   6.935   0.319   1.535  0.1125 -0.6961  0.0501
40066SOL    HW223730   6.900   0.384   1.667  2.2178  0.0610  0.2612
40067SOL     OW23731   5.329   8.641   6.536  0.0643 -0.3578 -0.3157
40067SOL    HW123732   5.398   8.701   6.507  0.1823  0.1466  0.9428
40067SOL    HW223733   5.274   8.694   6.594  1.9837 -2.1751  3.4610
40068SOL     OW23734   4.509   9.918   4.082  1.0461  0.3954 -0.0516
40068SOL    HW123735   4.505   9.844   4.023  0.0493  0.2208  0.2264
40068SOL    HW223736   4.458   9.987   4.040  0.9348  0.5107  0.2625
40069SOL     OW23737   5.739  10.470   8.647  0.3582 -0.1524 -0.0777
40069SOL    HW123738   5.683  10.547   8.653  2.3832  1.5358 -1.3412
40069SOL    HW223739   5.807  10.485   8.712  0.6547 -0.9966 -0.1799
40070SOL     OW23740   7.897   7.223   2.125  0.2605 -0.3588 -0.2230
40070SOL    HW123741   7.938   7.205   2.041 -0.0121 -1.4049 -0.1418
40070SOL    HW223742   7.944   7.169   2.188 -0.4647 -0.6772  0.0608
40071SOL     OW23743   9.675   0.208   9.042 -0.2104  0.4788  0.6721
40071SOL    HW123744   9.690   0.217   9.136  1.5505  0.6176  0.4052
40071SOL    HW223745   9.715   0.286   9.003  1.5322 -0.8714 -0.3893
40072SOL     OW23746   3.276   7.508   3.324  0.4350  0.2265  0.6988
40072SOL    HW123747   3.357   7.475   3.365  0.2382 -1.7407 -0.3651
40072SOL    HW223748   3.307   7.559   3.249  0.7240 -0.9642 -0.0209
40073SOL     OW23749   1.253   2.910   1.228  0.4507 -0.2605 -0.2450
40073SOL    HW123750   1.310   2.985   1.209  0.8145 -0.6024 -0.5120
40073SOL    HW223751   1.232   2.919   1.321 -0.2546  0.6810 -0.4794
40074SOL     OW23752   3.835   9.047   7.024  0.2753 -0.3595 -0.2437
40074SOL    HW123753   3.805   8.958   7.040 -0.8555  0.0611  0.1168
40074SOL    HW223754   3.894   9.040   6.950 -1.6125 -1.1061 -1.7721
40075SOL     OW23755   5.668   2.617   5.468  0.0385 -0.1421 -0.3692
40075SOL    HW123756   5.594   2.670   5.439  0.1990 -0.3962 -1.2887
40075SOL    HW223757   5.701   2.662   5.546 -1.4749 -0.3833  0.4400
40076SOL     OW23758   4.169   6.593   0.797  0.5613 -0.6307  0.6697
40076SOL    HW123759   4.201   6.595   0.707  2.4472  1.3472  1.3158
40076SOL    HW223760   4.226   6.530   0.842 -1.4075 -2.8859  0.2213
40077SOL     OW23761   4.108   2.530   8.317 -0.5851 -0.1683 -0.0554
40077SOL    HW123762   4.070   2.536   8.404 -2.2923 -0.1168 -0.7675
40077SOL    HW223763   4.191   2.483   8.330 -0.6600  0.0963  1.6114
40078SOL     OW23764   6.691   8.270   4.925  0.7040  0.4261 -0.5384
40078SOL    HW123765   6.690   8.300   4.834  0.2290  1.0788 -0.3315
40078SOL    HW223766   6.781   8.242   4.940  0.9243  0.8287 -1.0507
40079SOL     OW23767  10.029   2.993   6.298  0.1079 -0.4051  0.4187
40079SOL    HW123768  10.062   2.912   6.336  0.1141 -0.0669  1.1554
40079SOL    HW223769  10.097   3.020   6.236 -0.8975 -2.1309 -1.5667
40080SOL     OW23770   7.309   0.666   8.214  0.5485 -0.0133  0.3594
40080SOL    HW123771   7.230   0.630   8.255  1.1308  1.3182  2.8052
40080SOL    HW223772   7.378   0.653   8.279  1.9978  0.3897 -1.0421
40081SOL     OW23773   8.528   0.426   0.210  0.7375  0.1181 -0.1104
40081SOL    HW123774   8.560   0.496   0.268 -1.7589  0.9299  0.3791
40081SOL    HW223775   8.442   0.456   0.181  1.1725 -1.0858 -2.9007
40082SOL     OW23776   6.347  10.051   1.088  0.3143 -0.1845  0.1218
40082SOL    HW123777   6.320  10.125   1.033  1.3326  1.0867  1.2410
40082SOL    HW223778   6.267  10.025   1.134  0.1055  0.8324  0.3722
40083SOL     OW23779  10.424   7.109   8.171 -0.1890 -0.3659 -0.0763
40083SOL    HW123780  10.353   7.055   8.205 -0.5236 -0.4052 -0.8324
40083SOL    HW223781  10.384   7.194   8.154  0.0882 -0.2030  0.0799
40084SOL     OW23782   7.820   4.441   5.707  0.5624  0.3777  0.2489
40084SOL    HW123783   7.840   4.429   5.800  0.2670  1.8482  0.5309
40084SOL    HW223784   7.860   4.366   5.664  1.6752  0.2422  1.4447
40085SOL     OW23785   3.546   0.833   2.685 -0.0700  0.3967  0.1575
40085SOL    HW123786   3.569   0.816   2.776 -2.1720 -1.0290  0.5128
40085SOL    HW223787   3.497   0.915   2.687 -1.4915 -0.4242  0.6213
40086SOL     OW23788   4.505   9.460   0.507 -0.6291 -0.0750 -0.2707
40086SOL    HW123789   4.516   9.436   0.416 -2.2581 -1.8534 -0.0631
40086SOL    HW223790   4.435   9.402   0.539  0.2417  0.1357  2.2296
40087SOL     OW23791   1.589   4.340   6.304  0.2396 -0.1919  0.1861
40087SOL    HW123792   1.496   4.344   6.280 -0.0795  0.2883  1.4068
40087SOL    HW223793   1.598   4.256   6.348  0.5472 -0.5387 -0.5276
40088SOL     OW23794   4.121  10.311   4.467  0.2927  0.0196  0.1445
40088SOL    HW123795   4.185  10.254   4.426  0.2814  1.3452 -1.8458
40088SOL    HW223796   4.044  10.306   4.411 -0.4632  0.3993  1.1061
40089SOL     OW23797  10.381   3.511   6.192  0.3231 -0.5214 -0.1597
40089SOL    HW123798  10.299   3.462   6.189 -0.4387  0.7455 -0.8972
40089SOL    HW223799  10.377   3.560   6.274  0.8412 -1.2469  0.3152
40090SOL     OW23800   2.520   3.851   7.454  0.0282 -0.2150 -0.1615
40090SOL    HW123801   2.444   3.840   7.397 -0.0102  1.2822 -0.4501
40090SOL    HW223802   2.574   3.916   7.409  0.3536  0.4612  1.1512
40091SOL     OW23803   5.897  10.753   8.980 -0.1594 -0.2979  0.2865
40091SOL    HW123804   5.802  10.764   8.978 -0.0239  0.8644 -0.3714
40091SOL    HW223805   5.930  10.830   9.027  0.4037 -1.2172  1.4565
40092SOL     OW23806  10.186   8.482  10.487  0.1846  1.2270 -0.1209
40092SOL    HW123807  10.149   8.524  10.564 -0.0165 -0.2298  0.6075
40092SOL    HW223808  10.116   8.487  10.421 -0.4550  0.5509  0.4962
40093SOL     OW23809   0.789   0.442   0.515 -0.0337 -0.2195  0.5849
40093SOL    HW123810   0.778   0.378   0.585  0.0722  0.1425  0.9385
40093SOL    HW223811   0.770   0.526   0.557  0.7358  0.0741  0.3641
40094SOL     OW23812   4.253   4.834   8.243  0.0961  0.0352 -0.5372
40094SOL    HW123813   4.195   4.862   8.172  0.3122  0.3854 -0.5796
40094SOL    HW223814   4.213   4.870   8.323 -0.7262 -1.2546 -0.3430
40095SOL     OW23815   8.003   7.620   2.433  0.6960  0.4493  0.5478
40095SOL    HW123816   7.983   7.527   2.442 -1.6463  0.8164 -0.1680
40095SOL    HW223817   8.082   7.633   2.484  0.3975 -1.7018  1.6609
40096SOL     OW23818   5.536   9.548   7.930 -0.4978  0.2887  0.8334
40096SOL    HW123819   5.453   9.589   7.906  0.7210  2.3934 -0.0702
40096SOL    HW223820   5.528   9.458   7.901 -3.6465 -0.5378  3.6726
40097SOL     OW23821   4.980   2.110   0.192  0.1998  0.5675  0.2602
40097SOL    HW123822   4.888   2.108   0.165  0.9186 -1.3590 -2.4865
40097SOL    HW223823   5.010   2.197   0.165 -0.4566  0.6397 -0.2764
40098SOL     OW23824   0.484   8.370   1.759 -0.0704  0.1054 -0.1913
40098SOL    HW123825   0.496   8.424   1.681  0.5152 -0.2675 -0.3638
40098SOL    HW223826   0.549   8.402   1.821  1.6695 -1.6769 -0.9958
40099SOL     OW23827   4.436  10.502   2.631 -0.0694 -0.0755  0.2532
40099SOL    HW123828   4.391  10.542   2.556  1.1636  0.1512 -0.3935
40099SOL    HW223829   4.469  10.577   2.681 -0.3544 -0.2406  0.6951
40100SOL     OW23830   9.665   6.521   9.585 -0.6895  0.1948 -0.1570
40100SOL    HW123831   9.608   6.593   9.611 -0.4476  0.3657 -0.0961
40100SOL    HW223832   9.607   6.444   9.581 -1.1251  0.5523 -1.0478
40101SOL     OW23833   3.510   8.784   1.474  0.2637  0.0873  0.4064
40101SOL    HW123834   3.546   8.871   1.491 -0.9364  0.9163 -1.1453
40101SOL    HW223835   3.416   8.797   1.469  0.1465 -1.0906 -1.0438
40102SOL     OW23836   9.908   7.489   4.187 -0.3774 -0.4378 -0.2159
40102SOL    HW123837   9.987   7.541   4.178 -0.2835 -0.8140 -2.1821
40102SOL    HW223838   9.851   7.540   4.244  0.4226  0.9295 -0.5976
40103SOL     OW23839   6.428   2.041   3.074 -0.5167 -0.3417 -0.6654
40103SOL    HW123840   6.424   2.053   2.979 -0.6663  1.0879 -0.4904
40103SOL    HW223841   6.408   2.127   3.111  3.1170  0.1291  0.6435
40104SOL     OW23842   1.489   1.974   7.404 -0.2979  0.4434  0.3999
40104SOL    HW123843   1.564   2.033   7.403 -0.8406  1.1736  1.0568
40104SOL    HW223844   1.504   1.917   7.480 -0.9892  1.4168  1.3109
40105SOL     OW23845   9.223   8.626   8.384 -0.1286 -0.5150  0.3801
40105SOL    HW123846   9.305   8.657   8.423  0.4167 -0.8952 -0.4349
40105SOL    HW223847   9.229   8.531   8.387 -0.8498 -0.5522  0.9319
40106SOL     OW23848   4.534   0.863   6.224 -0.2625  0.6475 -0.0341
40106SOL    HW123849   4.528   0.866   6.129  0.3826 -0.4296 -0.1257
40106SOL    HW223850   4.623   0.833   6.242 -0.2760  1.1191  0.9173
40107SOL     OW23851   0.223   9.939   2.642  0.4866 -0.1571 -0.7694
40107SOL    HW123852   0.180   9.924   2.558 -0.7211 -1.5031  0.0537
40107SOL    HW223853   0.274   9.860   2.658  0.3021 -0.1295 -0.0001
40108SOL     OW23854   6.388   4.001   6.307  0.0532  0.0960  0.4193
40108SOL    HW123855   6.319   4.008   6.241  0.2540  1.6553  0.3448
40108SOL    HW223856   6.390   4.086   6.350 -0.1214 -0.9036  2.5298
40109SOL     OW23857   8.053   1.703   2.128 -0.4398  0.0821  0.1257
40109SOL    HW123858   8.141   1.721   2.161 -0.0747 -1.3382  0.0207
40109SOL    HW223859   8.005   1.785   2.141  0.3608  0.3153  1.9317
40110SOL     OW23860   7.362   6.543  11.066 -0.0156 -0.1798  0.4377
40110SOL    HW123861   7.321   6.541  10.980  1.4882  0.0147 -0.3280
40110SOL    HW223862   7.384   6.635  11.081 -1.2542 -0.0471  1.5404
40111SOL     OW23863   9.053  10.596   9.417 -0.1863 -0.2532  0.2139
40111SOL    HW123864   9.005  10.540   9.357 -0.3341 -0.4934  0.5508
40111SOL    HW223865   9.139  10.607   9.377  0.1123 -1.3657  0.5258
40112SOL     OW23866   3.802   9.246   7.191 -0.1365  0.0135  0.3461
40112SOL    HW123867   3.804   9.192   7.112 -2.8241  0.8589 -0.4122
40112SOL    HW223868   3.859   9.200   7.253  0.3349 -1.8415 -1.3500
40113SOL     OW23869   7.236   5.780   4.587  0.5546  0.0154 -0.1209
40113SOL    HW123870   7.293   5.743   4.519  2.3179  0.8164  0.8357
40113SOL    HW223871   7.156   5.804   4.542  1.8669  0.9905 -2.0537
40114SOL     OW23872   2.999   6.062   0.706  0.1003  0.1461 -0.1285
40114SOL    HW123873   2.910   6.039   0.681 -0.0735  0.8144 -0.1270
40114SOL    HW223874   3.035   6.107   0.629  0.6013 -0.5425 -0.3117
40115SOL     OW23875   5.471   1.620   3.400  0.1432 -0.2507  0.3219
40115SOL    HW123876   5.460   1.546   3.341  0.0592 -0.5038  0.6510
40115SOL    HW223877   5.401   1.609   3.465  0.2757 -0.0119  0.5066
40116SOL     OW23878  10.391   5.957   4.542 -0.7998 -0.0377 -0.3468
40116SOL    HW123879  10.460   5.977   4.478 -0.0751  1.1925  0.7672
40116SOL    HW223880  10.362   5.869   4.519  0.0894  0.0085 -1.7851
40117SOL     OW23881   2.176   9.016  11.007  0.1708  0.5159 -0.5293
40117SOL    HW123882   2.179   8.943  10.944 -1.9293 -0.2344  0.1433
40117SOL    HW223883   2.226   9.086  10.965  0.1675 -0.4917 -2.3160
40118SOL     OW23884   0.554   6.431   6.879  0.2027  0.5384  0.1084
40118SOL    HW123885   0.506   6.456   6.799  1.0413  2.9081  0.2805
40118SOL    HW223886   0.627   6.378   6.847  0.1647  0.9224 -0.6352
40119SOL     OW23887  10.985   1.534   6.764  0.0828 -0.2643  0.1611
40119SOL    HW123888  10.936   1.554   6.684 -1.2088 -0.5533  0.8501
40119SOL    HW223889  10.963   1.443   6.783  0.3563 -0.1885  0.8571
40120SOL     OW23890   5.081  10.135   9.981 -0.1893  0.5266 -0.3489
40120SOL    HW123891   5.089  10.093  10.067 -0.3408  1.6368  0.2156
40120SOL    HW223892   5.087  10.062   9.919  4.1613  0.0107  0.3415
40121SOL     OW23893   7.573   2.372   3.727 -0.4738  0.1025 -0.2105
40121SOL    HW123894   7.481   2.348   3.736 -0.7706 -0.2861 -3.1557
40121SOL    HW223895   7.616   2.292   3.695  1.3791 -0.3151  2.8617
40122SOL     OW23896   1.637   6.426  10.602 -0.6578 -0.2470 -0.6270
40122SOL    HW123897   1.580   6.462  10.670 -0.0462  0.9622 -0.7391
40122SOL    HW223898   1.601   6.339  10.585 -1.8452  0.0912  0.0363
40123SOL     OW23899   7.154   0.335   2.369  0.0556  0.7811 -0.2528
40123SOL    HW123900   7.171   0.246   2.400 -0.0992  1.1010  0.7894
40123SOL    HW223901   7.086   0.369   2.428 -1.3736  0.9073 -1.8595
40124SOL     OW23902   8.833   8.729  10.747 -0.1950 -0.1200  0.0361
40124SOL    HW123903   8.859   8.808  10.700  1.3294 -0.6370 -0.0379
40124SOL    HW223904   8.737   8.731  10.745 -0.2079  1.7733  0.1321
40125SOL     OW23905   2.166   1.236   4.257 -0.4634  0.1283  0.4205
40125SOL    HW123906   2.244   1.282   4.223 -0.2362  0.5537  1.4783
40125SOL    HW223907   2.099   1.252   4.191  0.0129  0.7843  0.0745
40126SOL     OW23908   0.006  10.707   1.224  0.5106  0.3433  0.1057
40126SOL    HW123909   0.031  10.799   1.219  1.1158  0.2680  1.2233
40126SOL    HW223910  -0.089  10.707   1.212  0.6920  0.9203 -1.5701
40127SOL     OW23911   8.787   4.512  10.568  0.1109  0.3527 -0.2641
40127SOL    HW123912   8.758   4.451  10.635 -0.4650  1.6332  0.7103
40127SOL    HW223913   8.750   4.479  10.487  1.0085 -1.3544 -0.0194
40128SOL     OW23914  10.557   0.023   9.806  0.4699 -0.1331  0.1466
40128SOL    HW123915  10.642  -0.013   9.833  1.2506  1.2969 -0.2706
40128SOL    HW223916  10.574   0.116   9.795  0.1574 -0.4234 -4.8044
40129SOL     OW23917   1.595   5.144   3.079 -0.5108 -0.1230 -0.5789
40129SOL    HW123918   1.620   5.052   3.084 -0.8271 -0.2738 -1.5075
40129SOL    HW223919   1.629   5.174   2.995 -3.6129 -0.4503 -2.1187
40130SOL     OW23920  11.051   3.839   6.411  0.5498  0.2207 -0.1369
40130SOL    HW123921  11.016   3.899   6.346  2.8437  1.2871 -0.4908
40130SOL    HW223922  10.996   3.853   6.488  0.3911  2.0661 -0.5335
40131SOL     OW23923   8.479  10.608   3.956 -0.1756  0.3300 -0.4319
40131SOL    HW123924   8.391  10.644   3.944 -0.4049 -0.3279 -0.7878
40131SOL    HW223925   8.513  10.599   3.867  0.6075  1.4200 -0.2577
40132SOL     OW23926   0.093   6.144   1.361  0.0688  0.2107  0.0680
40132SOL    HW123927   0.100   6.081   1.290  1.3441  0.3322  0.0643
40132SOL    HW223928   0.001   6.139   1.389 -0.1563 -0.6906 -0.7871
40133SOL     OW23929  10.506   6.696   3.494  0.2232  0.4912 -0.0079
40133SOL    HW123930  10.463   6.757   3.435  1.2414 -0.8363 -2.2783
40133SOL    HW223931  10.599   6.717   3.487  0.3888  0.0978  0.8947
40134SOL     OW23932  10.669   6.018   0.205 -0.4189  0.2991  0.0191
40134SOL    HW123933  10.692   5.926   0.207 -1.4494  0.0331  0.7574
40134SOL    HW223934  10.643   6.039   0.295 -0.5921  1.1969 -0.2231
40135SOL     OW23935   8.175   6.178   5.698 -0.0987  0.6520  0.0515
40135SOL    HW123936   8.208   6.179   5.788 -0.0683 -0.4143  0.0597
40135SOL    HW223937   8.095   6.229   5.702 -0.2198  0.4274  0.7353
40136SOL     OW23938   5.126   7.180   2.374 -0.1537  0.3833  0.0390
40136SOL    HW123939   5.186   7.111   2.346 -0.2451  0.7809 -1.1862
40136SOL    HW223940   5.058   7.135   2.423  0.5298 -0.2154  0.4609
40137SOL     OW23941   9.499   1.527   3.509  0.1864  0.1685  0.3357
40137SOL    HW123942   9.506   1.445   3.461  0.2224 -0.2617  1.0563
40137SOL    HW223943   9.453   1.586   3.449 -0.0080 -0.4309 -0.1205
40138SOL     OW23944   0.801   1.334   8.121  0.0078  0.3329  0.6494
40138SOL    HW123945   0.879   1.342   8.177  1.7906 -0.4249 -1.5503
40138SOL    HW223946   0.833   1.354   8.033 -2.4337  0.4305 -0.2870
40139SOL     OW23947   4.550   8.573   5.191  0.0990  0.1387 -0.1709
40139SOL    HW123948   4.485   8.635   5.224  0.9286  0.8633  0.1169
40139SOL    HW223949   4.507   8.487   5.201 -0.9714  0.6339 -0.3845
40140SOL     OW23950   6.168   1.405   1.452 -0.8318  0.0812 -0.1860
40140SOL    HW123951   6.197   1.361   1.372 -1.6865 -3.0084  1.0270
40140SOL    HW223952   6.240   1.393   1.513 -2.2365 -2.6815  1.1268
40141SOL     OW23953   3.111   0.877   7.376 -0.7852  0.5041 -0.1966
40141SOL    HW123954   3.022   0.849   7.353 -1.3713  2.9516 -1.3675
40141SOL    HW223955   3.149   0.905   7.292  1.3845 -1.1220  0.1714
40142SOL     OW23956   0.486   0.731   3.961  0.2049 -0.3466 -0.4271
40142SOL    HW123957   0.482   0.638   3.982  0.8790 -0.6010 -1.3545
40142SOL    HW223958   0.551   0.737   3.890 -1.3192  0.5782 -1.8010
40143SOL     OW23959  10.040   0.646   3.360 -0.0640 -0.6098  0.7513
40143SOL    HW123960  10.021   0.592   3.283 -0.9091  2.2950 -1.2464
40143SOL    HW223961  10.113   0.702   3.332 -2.1365  2.4112  0.9486
40144SOL     OW23962   2.542   7.373   3.365  0.3848 -0.0726  0.3132
40144SOL    HW123963   2.549   7.460   3.404  0.3926  0.5100 -0.9258
40144SOL    HW223964   2.490   7.387   3.286  1.7259 -0.8833 -0.7593
40145SOL     OW23965  10.224  10.217   5.163 -0.3842 -0.2262  0.8927
40145SOL    HW123966  10.182  10.252   5.085  1.1268 -0.9937 -0.3084
40145SOL    HW223967  10.152  10.203   5.225 -1.7531 -0.4693 -0.6820
40146SOL     OW23968   7.955   1.135   8.209 -0.2958  0.0974  0.4495
40146SOL    HW123969   7.881   1.099   8.160  0.5107 -0.6024 -0.3029
40146SOL    HW223970   7.971   1.071   8.278 -0.9617  0.7134  1.1940
40147SOL     OW23971   5.040   9.778  11.042 -0.4159  0.8509 -0.6433
40147SOL    HW123972   5.014   9.817  10.959  0.2084  0.4354 -1.0333
40147SOL    HW223973   5.118   9.727  11.022  0.1126  1.2579  0.3214
40148SOL     OW23974   8.424   3.284   9.925 -0.3468  0.0104 -0.9962
40148SOL    HW123975   8.401   3.273   9.833  1.2172  0.4754 -1.4663
40148SOL    HW223976   8.511   3.323   9.924 -0.7487  1.0795  0.6736
40149SOL     OW23977   5.168   9.812  10.216  0.1444  0.4163  0.1868
40149SOL    HW123978   5.148   9.905  10.226  0.3376  0.9087 -3.1028
40149SOL    HW223979   5.264   9.809  10.211  0.1001  0.1541 -0.5589
40150SOL     OW23980   9.834   8.742   0.660 -0.1644 -0.2497 -0.2921
40150SOL    HW123981   9.783   8.791   0.725 -2.0472 -0.2905 -1.6518
40150SOL    HW223982   9.925   8.761   0.682 -0.7824  2.0637  0.6012
40151SOL     OW23983   5.970   9.147   6.017 -0.0395 -0.0327 -0.0846
40151SOL    HW123984   6.005   9.188   5.938 -1.6147  0.7668 -0.4122
40151SOL    HW223985   5.875   9.155   6.009 -0.3145 -1.4630  1.0962
40152SOL     OW23986   3.716   6.385   7.902  0.7437  0.2615 -0.6008
40152SOL    HW123987   3.808   6.363   7.889  0.8336 -1.0876  1.7242
40152SOL    HW223988   3.705   6.383   7.997 -1.4752  1.3568 -0.7834
40153SOL     OW23989   1.035   5.692   4.672 -0.5074 -0.3236 -0.5759
40153SOL    HW123990   1.056   5.679   4.764 -1.2339  0.3163 -0.3091
40153SOL    HW223991   0.976   5.768   4.671  0.8931  0.8177 -1.7355
40154SOL     OW23992  10.189   0.821   5.537 -0.5504  0.0369  0.5647
40154SOL    HW123993  10.241   0.741   5.537 -1.2312 -0.4234 -0.2699
40154SOL    HW223994  10.253   0.892   5.528 -0.0492 -0.4919 -0.1051
40155SOL     OW23995   7.350   3.756   9.568 -0.2026 -0.0232 -0.3637
40155SOL    HW123996   7.393   3.695   9.628  0.4470  1.2484  0.4998
40155SOL    HW223997   7.279   3.795   9.621 -0.2198  0.4200 -0.7125
40156SOL     OW23998   5.086   5.571   9.254  0.7127 -0.0696 -0.3724
40156SOL    HW123999   5.024   5.643   9.242 -1.3986 -1.3630  1.8693
40156SOL    HW224000   5.153   5.607   9.312  0.9709  0.7321 -1.1439
40157SOL     OW24001   4.692   2.176   5.095 -0.5858  0.5530  0.3142
40157SOL    HW124002   4.641   2.254   5.114 -1.3203  0.0674  0.3818
40157SOL    HW224003   4.731   2.152   5.179 -0.9617  0.4275  0.4552
40158SOL     OW24004   8.925  10.772   4.068 -0.0450 -0.0231  0.6203
40158SOL    HW124005   8.951  10.849   4.119  0.8327 -0.5582  1.0119
40158SOL    HW224006   8.830  10.773   4.070 -0.0629  1.4162  0.0542
40159SOL     OW24007   8.195   6.716   6.313 -0.7743  0.3343 -0.4594
40159SOL    HW124008   8.116   6.704   6.365 -0.0399  1.2370  0.9433
40159SOL    HW224009   8.230   6.801   6.342  0.4690  0.1626 -1.3600
40160SOL     OW24010   7.245   9.190   4.505 -0.9224  0.3522 -0.1758
40160SOL    HW124011   7.297   9.148   4.573  0.5215  0.0300 -1.4310
40160SOL    HW224012   7.302   9.192   4.428 -3.1626 -1.1107 -2.0064
40161SOL     OW24013   1.988   6.949   4.751  1.1380 -0.1402 -0.4187
40161SOL    HW124014   2.025   6.909   4.830  3.1604 -0.7029 -1.5997
40161SOL    HW224015   1.983   6.877   4.688  1.2635  0.6785 -1.3833
40162SOL     OW24016   9.689   7.186  11.087  0.3463  0.6823  0.2719
40162SOL    HW124017   9.662   7.107  11.134  0.8341  0.5822  0.3840
40162SOL    HW224018   9.642   7.257  11.131  0.3764  0.5253  0.5585
40163SOL     OW24019  10.163   4.021   8.772 -0.3748 -0.0779  0.3885
40163SOL    HW124020  10.084   4.016   8.717 -1.2396  1.5407  1.4190
40163SOL    HW224021  10.231   4.052   8.712 -0.8455 -0.1303 -0.1911
40164SOL     OW24022   8.096   9.326  10.450 -0.4741 -0.1562 -0.3741
40164SOL    HW124023   8.183   9.288  10.447 -1.0385 -1.4649 -1.1467
40164SOL    HW224024   8.111   9.421  10.451  0.9410 -0.3595 -0.3482
40165SOL     OW24025   6.153   5.339   2.689  0.0153 -0.1155 -0.0519
40165SOL    HW124026   6.210   5.357   2.764 -1.3193  1.8229  0.5760
40165SOL    HW224027   6.081   5.287   2.725  0.6461 -1.3758 -0.5556
40166SOL     OW24028   0.727   6.910   8.181 -0.0520  0.3357 -0.5438
40166SOL    HW124029   0.681   6.990   8.207  0.6807  0.7137 -0.3882
40166SOL    HW224030   0.803   6.941   8.131  0.9826 -0.1955  0.6502
40167SOL     OW24031   2.236   8.352   1.907  0.5943 -0.0327 -0.5800
40167SOL    HW124032   2.151   8.356   1.950  0.6591 -0.1005 -0.4437
40167SOL    HW224033   2.288   8.421   1.950  0.1842  0.9307 -1.6018
40168SOL     OW24034   8.831  11.027   4.131 -0.4690  0.7598 -0.6593
40168SOL    HW124035   8.766  10.990   4.071 -0.2423  0.3074 -0.6250
40168SOL    HW224036   8.783  11.096   4.177 -1.0036  0.2628 -0.4566
40169SOL     OW24037   2.456   9.985   8.117  0.2574  0.1190 -0.7061
40169SOL    HW124038   2.466   9.914   8.053 -1.7820  0.8769 -1.9768
40169SOL    HW224039   2.440  10.063   8.064 -1.3735  0.8093  0.7139
40170SOL     OW24040  10.701  10.233   6.713 -0.4782  0.2587  0.6567
40170SOL    HW124041  10.685  10.324   6.688  0.2916  0.2028 -0.0647
40170SOL    HW224042  10.771  10.238   6.779  0.9407  0.0794 -0.7829
40171SOL     OW24043   7.405   4.580   1.484 -0.1978  0.0621  0.2268
40171SOL    HW124044   7.372   4.670   1.487 -0.2195  0.0634  0.0041
40171SOL    HW224045   7.499   4.589   1.467 -0.1897  0.0452  0.2632
40172SOL     OW24046   8.241   7.922   4.898  0.2933  0.2274  0.2618
40172SOL    HW124047   8.323   7.966   4.874  0.6346 -0.1377  0.7407
40172SOL    HW224048   8.186   7.993   4.933  1.0784  0.2021  1.6373
40173SOL     OW24049   2.527   2.350   4.819 -0.2887 -0.3631 -0.1875
40173SOL    HW124050   2.504   2.430   4.867  1.6259  0.8375 -1.1671
40173SOL    HW224051   2.498   2.367   4.729  1.0463 -0.3314 -0.6226
40174SOL     OW24052   6.015   8.533   4.195  0.1315 -0.0610 -0.4809
40174SOL    HW124053   5.981   8.448   4.169  1.8142 -0.5377 -1.2969
40174SOL    HW224054   5.944   8.595   4.176 -0.7378 -1.1495 -0.8424
40175SOL     OW24055  10.610   3.639  10.817  0.1059 -0.2532 -0.2572
40175SOL    HW124056  10.634   3.704  10.751 -0.5821  1.5863  1.2090
40175SOL    HW224057  10.681   3.575  10.815  0.5030  0.1682 -2.1802
40176SOL     OW24058   3.620   1.879   7.040 -0.2518 -0.2587 -0.2458
40176SOL    HW124059   3.664   1.825   7.106  4.1552  0.9880 -1.8465
40176SOL    HW224060   3.634   1.833   6.957  0.4424  1.4947 -1.1511
40177SOL     OW24061   0.672   1.520   5.821 -0.3053  0.1639 -0.5056
40177SOL    HW124062   0.733   1.490   5.754 -0.3551 -0.7475 -0.1571
40177SOL    HW224063   0.589   1.533   5.774  0.1391  1.4746 -0.9938
40178SOL     OW24064  10.995   6.267   5.048  0.8053 -0.0790  0.1919
40178SOL    HW124065  11.009   6.274   4.953  1.6820 -0.6705  0.2635
40178SOL    HW224066  10.903   6.287   5.060  0.8229  0.6258 -0.7171
40179SOL     OW24067   5.993   8.377   7.316  0.1372  0.0579 -1.1362
40179SOL    HW124068   6.018   8.444   7.252 -0.3134  0.0637 -1.3097
40179SOL    HW224069   6.075   8.352   7.359  0.2641  0.9664 -0.8301
40180SOL     OW24070   5.719   9.746   4.604  0.3638 -0.2543 -0.8753
40180SOL    HW124071   5.657   9.816   4.584 -0.6346 -0.7254  0.4400
40180SOL    HW224072   5.774   9.783   4.673  0.2497 -0.5389 -0.6307
40181SOL     OW24073   0.110   1.610   6.796  0.1346 -0.4239  0.5474
40181SOL    HW124074   0.019   1.582   6.790 -0.3911  1.4146 -3.9483
40181SOL    HW224075   0.106   1.699   6.831 -0.1396  0.3867 -1.3948
40182SOL     OW24076   5.791   1.320   3.610  1.1796 -0.0358  0.1611
40182SOL    HW124077   5.772   1.331   3.517 -1.9736  1.1077  0.8323
40182SOL    HW224078   5.803   1.226   3.622 -2.4033 -0.7466 -0.8351
40183SOL     OW24079   7.817   9.553   1.892  0.1222 -0.0818  0.3622
40183SOL    HW124080   7.766   9.505   1.958  0.2554 -0.9164 -0.1286
40183SOL    HW224081   7.895   9.583   1.940 -1.0322  1.6424  1.2465
40184SOL     OW24082   1.794   3.564   3.060 -0.3410 -0.3119 -0.6448
40184SOL    HW124083   1.850   3.529   2.991 -1.5542 -1.8650 -0.8862
40184SOL    HW224084   1.707   3.528   3.042 -1.2364  1.2604  0.2676
40185SOL     OW24085   8.313   7.565  10.212  0.0714  0.3827  0.4125
40185SOL    HW124086   8.318   7.515  10.130  0.8319  0.6868  0.2725
40185SOL    HW224087   8.223   7.598  10.213  0.4683  1.6156 -1.0428
40186SOL     OW24088  10.142  10.187   7.750  0.0233  0.3106 -0.0701
40186SOL    HW124089  10.169  10.104   7.789 -0.7637  0.0958  0.0386
40186SOL    HW224090  10.184  10.254   7.804 -2.2911  0.0900  2.2570
40187SOL     OW24091   0.791   7.434   2.719  0.1334  0.8951  0.4827
40187SOL    HW124092   0.757   7.444   2.631  0.1940  1.2758  0.5013
40187SOL    HW224093   0.853   7.361   2.713  0.7386  1.4387  0.0378
40188SOL     OW24094   8.832   1.582   2.925  0.3850  0.1791  0.0266
40188SOL    HW124095   8.815   1.615   2.837  0.7955  0.0098 -0.1141
40188SOL    HW224096   8.757   1.526   2.945  2.0010 -2.8000 -1.6722
40189SOL     OW24097   4.197   1.080  10.597 -0.2816 -0.0405 -0.0898
40189SOL    HW124098   4.143   1.008  10.566  0.8458 -1.7254  1.5728
40189SOL    HW224099   4.287   1.049  10.586  0.2747  1.5127 -0.2050
40190SOL     OW24100  10.278   7.077   4.554 -0.1203  0.1664 -0.0971
40190SOL    HW124101  10.367   7.110   4.542  0.3979 -0.7601  1.0159
40190SOL    HW224102  10.275   6.997   4.501 -0.5360  0.5731 -0.7054
40191SOL     OW24103   5.990   2.930   4.395  0.3855 -0.3527  0.2160
40191SOL    HW124104   5.901   2.964   4.406  0.7585  0.7633 -0.0226
40191SOL    HW224105   6.019   2.908   4.484 -0.1169 -0.6941  0.2950
40192SOL     OW24106   7.962   4.668   2.158  0.4316 -0.0715  0.1223
40192SOL    HW124107   7.935   4.595   2.214  0.3673 -0.0381  0.1358
40192SOL    HW224108   7.897   4.736   2.176  0.6235  0.0706  0.2824
40193SOL     OW24109   9.706  11.083  10.185  0.3147  0.0164 -0.3306
40193SOL    HW124110   9.756  11.162  10.203  1.7029 -1.1012  1.0266
40193SOL    HW224111   9.633  11.086  10.247  0.8744 -0.1770  0.3559
40194SOL     OW24112   5.718   6.852   2.354  0.0475 -0.1528  0.8503
40194SOL    HW124113   5.628   6.821   2.366  0.2195 -0.8488  0.3905
40194SOL    HW224114   5.770   6.798   2.413  0.3341 -0.6998  0.1191
40195SOL     OW24115   4.644   2.972   0.807 -0.1300 -0.2144 -0.0777
40195SOL    HW124116   4.599   2.921   0.874  0.0785 -0.7429 -0.3382
40195SOL    HW224117   4.693   3.038   0.855 -0.4764 -0.1955  0.2541
40196SOL     OW24118   7.539  10.756  10.835 -0.4034 -0.1564 -0.1009
40196SOL    HW124119   7.526  10.822  10.904  0.6057 -1.4961  1.4449
40196SOL    HW224120   7.624  10.778  10.796  0.4657 -1.1146  1.1607
40197SOL     OW24121  10.679   2.727   3.652 -0.7891  0.0380  0.1744
40197SOL    HW124122  10.708   2.663   3.588 -3.2449 -1.1193  0.1042
40197SOL    HW224123  10.759   2.769   3.682  0.8508 -2.4830 -0.3769
40198SOL     OW24124   3.989   7.995   0.322 -0.0315 -0.4966 -0.2743
40198SOL    HW124125   4.030   8.055   0.384  0.0543 -0.2642 -0.5514
40198SOL    HW224126   3.994   8.041   0.238 -1.5300 -0.1317 -0.2009
40199SOL     OW24127   4.817   4.845   6.452 -0.3587  0.7184  0.7225
40199SOL    HW124128   4.727   4.872   6.434 -0.3574  0.8035  0.8419
40199SOL    HW224129   4.810   4.754   6.480 -0.2352  0.1807 -0.9152
40200SOL     OW24130   8.337   3.528   6.457 -0.8390 -0.5130 -0.4609
40200SOL    HW124131   8.375   3.579   6.529  2.2952 -1.5787 -1.2067
40200SOL    HW224132   8.299   3.451   6.499  0.5208 -0.8828  0.1380
40201SOL     OW24133   1.426   2.232   6.767  0.4594  0.1350  0.4016
40201SOL    HW124134   1.354   2.169   6.771  0.8261 -0.2913  0.4390
40201SOL    HW224135   1.484   2.198   6.698  1.1666 -0.1235  1.1056
40202SOL     OW24136   5.041   3.293   9.664 -0.0644 -0.0223  0.2935
40202SOL    HW124137   5.115   3.351   9.648  0.0763 -0.0502  0.8349
40202SOL    HW224138   5.067   3.210   9.624 -0.6477  0.5163 -1.3146
40203SOL     OW24139   2.317   6.369   8.101  0.3886 -0.4504  0.4541
40203SOL    HW124140   2.377   6.403   8.035 -0.6099 -0.0142 -0.2347
40203SOL    HW224141   2.257   6.313   8.053  0.3758 -1.0874  1.1827
40204SOL     OW24142   1.688   5.406   0.985  0.4902  0.0683 -0.1028
40204SOL    HW124143   1.685   5.462   0.908  0.0290 -1.0251 -0.9007
40204SOL    HW224144   1.617   5.439   1.041 -1.0544 -0.8660 -1.4094
40205SOL     OW24145   1.796   9.828  10.720  0.3014  0.0083  0.0036
40205SOL    HW124146   1.777   9.807  10.812 -0.2889  1.8846  0.3585
40205SOL    HW224147   1.885   9.797  10.706  0.3316 -0.4726  1.1449
40206SOL     OW24148   9.338   7.844  10.675  0.1539 -0.1160  0.6326
40206SOL    HW124149   9.398   7.785  10.630  0.8363  1.6713 -0.9190
40206SOL    HW224150   9.388   7.924  10.688 -1.1449  0.5886  1.5009
40207SOL     OW24151   0.541   8.455   5.327 -0.7603  0.8077  0.7963
40207SOL    HW124152   0.551   8.542   5.288  0.9979 -0.2018 -1.1902
40207SOL    HW224153   0.463   8.419   5.284 -0.0251  0.4845 -0.3031
40208SOL     OW24154   0.097   0.076   4.239  0.2199 -0.1023 -0.3153
40208SOL    HW124155   0.108   0.167   4.265 -0.9724  0.3844 -1.4480
40208SOL    HW224156   0.173   0.057   4.184  0.7982 -0.0142  0.4262
40209SOL     OW24157  10.509   0.997  10.438 -0.2038 -0.4096 -0.0351
40209SOL    HW124158  10.511   0.903  10.460 -0.6503  0.0808  2.3858
40209SOL    HW224159  10.417   1.014  10.415 -0.0811 -0.5989 -0.6725
40210SOL     OW24160  10.678  10.087   4.606  0.4152  0.1060  0.1933
40210SOL    HW124161  10.697  10.128   4.691 -1.9768  0.3154  0.6767
40210SOL    HW224162  10.718  10.147   4.543  1.9228  0.1345  1.0982
40211SOL     OW24163   2.079   9.664   8.620  1.0503 -0.3496 -0.0797
40211SOL    HW124164   2.089   9.730   8.552 -0.6447  0.8412  0.7647
40211SOL    HW224165   2.056   9.714   8.699  1.3086 -1.8248  0.9747
40212SOL     OW24166   9.747   0.874   1.790 -0.6466 -0.0750  0.6492
40212SOL    HW124167   9.663   0.917   1.778 -0.5251  0.0270  0.1695
40212SOL    HW224168   9.802   0.941   1.831 -0.4834  0.2074 -0.0182
40213SOL     OW24169   6.398   7.177   5.386  0.1263 -0.0073  0.0633
40213SOL    HW124170   6.390   7.271   5.370  1.8970  0.2361  0.3885
40213SOL    HW224171   6.330   7.158   5.450  0.1027  1.1646  0.4100
40214SOL     OW24172   7.254   4.419   2.597 -0.3043 -0.5018 -0.4368
40214SOL    HW124173   7.234   4.338   2.551  0.2964  0.6604 -2.8623
40214SOL    HW224174   7.343   4.441   2.572  0.4688 -0.2862  2.1426
40215SOL     OW24175   0.908   8.346   4.437  0.3412  0.0893  0.1401
40215SOL    HW124176   0.984   8.366   4.383 -0.3101 -0.6570 -1.0954
40215SOL    HW224177   0.925   8.257   4.470  0.1498  0.0412  0.1098
40216SOL     OW24178   8.557   2.483   8.089 -0.5724 -0.3460 -0.1968
40216SOL    HW124179   8.603   2.559   8.125  1.9298 -1.9183  0.1839
40216SOL    HW224180   8.516   2.442   8.166 -1.4053  0.2256 -0.3152
40217SOL     OW24181   0.167   7.625   1.025 -0.6094 -0.2767 -0.5358
40217SOL    HW124182   0.099   7.675   0.981  1.8728  2.0907 -2.0182
40217SOL    HW224183   0.213   7.580   0.955 -0.1379 -1.1804  0.3309
40218SOL     OW24184   7.577   1.552   9.152  0.0082 -0.3501  0.2652
40218SOL    HW124185   7.543   1.556   9.063  1.9790 -0.2124 -0.5292
40218SOL    HW224186   7.629   1.472   9.154  1.1884  0.4132  0.8217
40219SOL     OW24187   8.040   1.636   9.377  0.2103  0.3342  0.3774
40219SOL    HW124188   7.986   1.688   9.318  0.2820  2.1635  1.8130
40219SOL    HW224189   7.989   1.556   9.393 -0.6347  0.6461 -0.6870
40220SOL     OW24190   9.246   6.769   0.495  0.6621 -0.2260  0.1355
40220SOL    HW124191   9.259   6.691   0.441 -0.3166 -0.3905  0.1231
40220SOL    HW224192   9.264   6.740   0.584  0.0053 -0.5586  0.1690
40221SOL     OW24193   1.348   1.330   4.328  0.2301 -0.0290 -0.5536
40221SOL    HW124194   1.302   1.344   4.411 -0.2258  2.6710 -1.1439
40221SOL    HW224195   1.438   1.356   4.346  0.2058  0.2377 -0.8132
40222SOL     OW24196   5.346   6.185   6.143 -0.4391 -0.0483 -0.1368
40222SOL    HW124197   5.394   6.115   6.098  0.4520  0.3659  0.1372
40222SOL    HW224198   5.414   6.237   6.186 -1.1315  0.6416  0.1584
40223SOL     OW24199   7.239   4.181   9.982 -0.1177 -1.0642 -0.0707
40223SOL    HW124200   7.180   4.160   9.910 -1.1456  1.1426  0.0276
40223SOL    HW224201   7.204   4.263  10.018  2.0418 -0.5747  1.0893
40224SOL     OW24202   3.954   4.755   2.059  0.1089 -0.0908 -0.3732
40224SOL    HW124203   3.957   4.845   2.093  0.3904  0.1139 -0.9276
40224SOL    HW224204   4.037   4.717   2.085 -0.3587 -0.4750  0.6060
40225SOL     OW24205   9.565  10.923   9.340 -0.4882  0.2458 -0.7281
40225SOL    HW124206   9.534  10.855   9.400  1.6930  0.4778  0.7546
40225SOL    HW224207   9.613  10.875   9.272 -2.2427  0.0541 -1.8901
40226SOL     OW24208  10.937   4.976   0.273  0.1648  0.0194  0.0201
40226SOL    HW124209  11.004   4.983   0.205  0.6274  1.2191  0.5756
40226SOL    HW224210  10.854   4.990   0.228  0.1888 -2.0019 -0.7773
40227SOL     OW24211   7.512   3.703   8.346 -0.2472  0.3011 -0.0084
40227SOL    HW124212   7.443   3.735   8.403  1.0359 -0.6218  2.2339
40227SOL    HW224213   7.581   3.770   8.351 -0.1457  0.2396 -0.5243
40228SOL     OW24214   0.944   4.944   4.709 -0.1234 -0.4019 -0.4744
40228SOL    HW124215   0.857   4.962   4.744 -0.1155  0.0745 -0.6971
40228SOL    HW224216   0.993   4.908   4.783 -0.2054  0.2896 -0.0776
40229SOL     OW24217   7.169   7.815  11.056  0.6997 -0.0794 -0.0877
40229SOL    HW124218   7.155   7.752  10.985  0.6141  0.1786 -0.2994
40229SOL    HW224219   7.101   7.880  11.044 -1.2275 -1.5500  1.9604
40230SOL     OW24220   1.405   0.228   2.724  0.1428 -0.5910  0.7679
40230SOL    HW124221   1.399   0.133   2.722 -2.2645 -0.4866 -0.1497
40230SOL    HW224222   1.362   0.253   2.806 -1.8953 -0.2347 -0.3466
40231SOL     OW24223   9.072   1.462   1.939  0.4851  0.0757  0.1303
40231SOL    HW124224   9.083   1.382   1.991 -1.7168 -0.4968 -0.1519
40231SOL    HW224225   9.019   1.519   1.994  0.3684  0.5273 -0.4424
40232SOL     OW24226  10.616   1.293  11.075 -0.2094  0.3314 -0.3144
40232SOL    HW124227  10.620   1.349  10.998 -1.0495 -0.9533 -1.3214
40232SOL    HW224228  10.708   1.276  11.097  0.0467  1.4714 -0.4263
40233SOL     OW24229   8.836   1.447   8.865  0.9116 -0.1167 -0.0822
40233SOL    HW124230   8.845   1.377   8.930 -1.0073 -1.0562 -0.7575
40233SOL    HW224231   8.744   1.443   8.838  0.5046  3.1411  0.3736
40234SOL     OW24232   7.923   0.809   0.722  0.0615 -0.2411 -0.4934
40234SOL    HW124233   7.891   0.872   0.657 -0.9973  0.5519  0.7649
40234SOL    HW224234   7.972   0.861   0.785 -0.0830 -0.8056  0.0968
40235SOL     OW24235   4.693   3.612   6.235 -0.1929 -0.7119 -0.2349
40235SOL    HW124236   4.785   3.627   6.252 -0.1760 -1.2602  0.2101
40235SOL    HW224237   4.662   3.565   6.312 -0.5009 -1.8227 -1.0031
40236SOL     OW24238   5.680   8.837   8.464 -0.4481 -0.4647 -0.4075
40236SOL    HW124239   5.770   8.865   8.447 -0.3781  0.1372  0.8092
40236SOL    HW224240   5.630   8.865   8.387  0.2288  0.1150 -0.6398
40237SOL     OW24241  10.078   8.609   6.963 -0.7812 -0.5490  0.2185
40237SOL    HW124242  10.140   8.552   6.918 -0.2708  0.9409 -1.0653
40237SOL    HW224243  10.009   8.626   6.899  0.4604  2.4194 -0.5275
40238SOL     OW24244  10.417   0.262   5.774 -0.0395  0.0251 -0.0501
40238SOL    HW124245  10.386   0.336   5.827 -0.3420 -1.2061  1.5682
40238SOL    HW224246  10.497   0.294   5.733  0.0104  1.1601  0.8647
40239SOL     OW24247   6.963   4.336   6.382 -0.2829  0.2258  0.0728
40239SOL    HW124248   7.047   4.361   6.344  1.1260  0.0962  2.8354
40239SOL    HW224249   6.965   4.241   6.383  0.3538  0.2204  1.6413
40240SOL     OW24250   6.618   9.552   2.546 -0.2623  0.2380 -0.0143
40240SOL    HW124251   6.547   9.508   2.594 -1.7036  0.1982 -2.0508
40240SOL    HW224252   6.573   9.620   2.495  1.3018  0.7769 -0.7130
40241SOL     OW24253   1.535   2.265   3.604 -0.5985  0.1102  0.2731
40241SOL    HW124254   1.465   2.222   3.555  0.2483 -0.5901 -0.3524
40241SOL    HW224255   1.606   2.201   3.606  0.0968  0.8687  0.7408
40242SOL     OW24256   8.518   8.814   9.179 -0.2352 -0.3157 -0.7533
40242SOL    HW124257   8.593   8.873   9.179 -1.7735  1.7648  0.5546
40242SOL    HW224258   8.529   8.761   9.258 -0.8565  1.0722  0.3213
40243SOL     OW24259   2.338   4.248   1.914  0.1152 -0.9545  0.4495
40243SOL    HW124260   2.358   4.284   1.828  2.1753 -1.7939  0.5314
40243SOL    HW224261   2.370   4.314   1.976 -1.8295 -0.1092  0.6391
40244SOL     OW24262   9.669   7.202   4.973 -0.0107  0.6763  0.0329
40244SOL    HW124263   9.635   7.277   4.924  1.2054  1.2679  0.0585
40244SOL    HW224264   9.674   7.234   5.064  2.5730  1.3870 -0.2651
40245SOL     OW24265   8.121   5.129   7.162  0.1155 -0.0017  0.2138
40245SOL    HW124266   8.146   5.043   7.194  0.0520 -0.5029 -1.0255
40245SOL    HW224267   8.197   5.185   7.178  1.8936 -1.3208 -2.8492
40246SOL     OW24268   5.370   6.537   2.658  0.4130 -0.3251  0.2011
40246SOL    HW124269   5.452   6.523   2.610 -0.1069 -0.0959 -0.7872
40246SOL    HW224270   5.301   6.524   2.593 -0.2804  1.2681  0.5543
40247SOL     OW24271   8.067   7.253   9.649  0.1506 -0.3163 -0.0536
40247SOL    HW124272   8.003   7.292   9.708  0.2131 -0.8219  0.3548
40247SOL    HW224273   8.024   7.174   9.616 -0.0059  0.1268 -0.9337
40248SOL     OW24274   0.852   5.821   0.329  0.5703  0.2709 -0.0731
40248SOL    HW124275   0.880   5.859   0.246 -0.9925  0.0439 -0.7404
40248SOL    HW224276   0.763   5.854   0.342 -0.1601 -1.6776  0.2169
40249SOL     OW24277   7.577   8.505   6.165  0.0269 -0.0231  0.2357
40249SOL    HW124278   7.510   8.487   6.099  0.4912  2.3375 -1.0019
40249SOL    HW224279   7.653   8.454   6.136  0.0978  0.6736 -0.8600
40250SOL     OW24280   8.951   7.532   9.799 -0.4524 -0.0239  0.2128
40250SOL    HW124281   8.977   7.514   9.889  0.9829 -0.5114 -0.2804
40250SOL    HW224282   8.900   7.613   9.805 -1.2275 -0.5714  1.5699
40251SOL     OW24283   3.621   5.029   3.410  0.3070  0.1039  0.0535
40251SOL    HW124284   3.577   4.992   3.487  1.9753 -1.0297  0.5239
40251SOL    HW224285   3.661   4.954   3.367  0.9451  0.9632 -0.9045
40252SOL     OW24286   0.772   4.787   6.785  0.2330  0.0880  0.6172
40252SOL    HW124287   0.851   4.796   6.837 -0.0817 -1.6481  1.4653
40252SOL    HW224288   0.702   4.822   6.840  0.1642  0.0140  0.5772
40253SOL     OW24289  10.479  10.598   2.989  0.0625 -0.3247 -0.1462
40253SOL    HW124290  10.533  10.599   3.068 -0.6690 -1.1307  0.3880
40253SOL    HW224291  10.533  10.639   2.922  0.5090  0.8712  0.8952
40254SOL     OW24292  10.015  11.107   5.289 -0.1056 -0.4014 -0.2881
40254SOL    HW124293  10.106  11.124   5.310  0.0044 -1.6667  0.3563
40254SOL    HW224294   9.987  11.042   5.354 -1.4645 -0.0230 -0.4708
40255SOL     OW24295   9.112   6.331   2.308  0.0431 -0.6202  0.3985
40255SOL    HW124296   9.061   6.401   2.348  0.1908  0.2222 -0.8535
40255SOL    HW224297   9.104   6.345   2.214 -0.9573 -3.0238  0.0434
40256SOL     OW24298   0.736   2.869   6.325  0.0112  0.2035 -0.1703
40256SOL    HW124299   0.795   2.944   6.316 -0.2458  0.4907  0.4580
40256SOL    HW224300   0.663   2.902   6.376  1.7192 -1.4072  3.7592
40257SOL     OW24301  10.584   6.862   6.924 -0.4985  0.2225  0.5245
40257SOL    HW124302  10.644   6.890   6.993  1.3685  0.9953 -1.2821
40257SOL    HW224303  10.608   6.771   6.906  1.4926  1.0326 -1.3833
40258SOL     OW24304   9.805   8.583   3.689  0.1246  0.0609  0.2120
40258SOL    HW124305   9.851   8.583   3.605  0.6901 -0.5520  0.5098
40258SOL    HW224306   9.712   8.588   3.666  0.3045  0.6199 -0.4210
40259SOL     OW24307  10.206   8.863   7.159 -0.1855 -0.4858  0.1855
40259SOL    HW124308  10.294   8.844   7.191 -0.4668  0.4506  1.5827
40259SOL    HW224309  10.148   8.834   7.229 -1.0693 -1.8827 -1.0748
40260SOL     OW24310   4.270   5.456   2.414 -0.3472  0.3190  0.3901
40260SOL    HW124311   4.197   5.470   2.353  0.3401 -0.1870 -0.5870
40260SOL    HW224312   4.319   5.383   2.375 -0.5683 -0.8781  2.2165
40261SOL     OW24313   1.716   9.219   3.727  0.4667 -0.3300 -0.4402
40261SOL    HW124314   1.811   9.226   3.716  0.2934  0.5530 -1.5304
40261SOL    HW224315   1.682   9.303   3.696 -0.5754 -0.0372  1.3364
40262SOL     OW24316   9.843   5.489   4.087 -0.2079 -0.3250  0.2603
40262SOL    HW124317   9.803   5.407   4.115  0.4602 -0.5724  0.5243
40262SOL    HW224318   9.909   5.463   4.023 -0.5512  0.0871 -0.2741
40263SOL     OW24319   4.693   1.105  10.280 -0.1640 -0.1205  0.1038
40263SOL    HW124320   4.742   1.127  10.360 -1.1873  1.5202  0.3249
40263SOL    HW224321   4.627   1.042  10.309 -0.5158  0.4481  0.5801
40264SOL     OW24322   1.317   3.928   1.079 -0.0693 -0.1269 -0.5615
40264SOL    HW124323   1.399   3.976   1.076 -0.5783  0.7597 -0.5781
40264SOL    HW224324   1.316   3.876   0.998  2.0987 -2.9634  1.0291
40265SOL     OW24325   4.499   4.832   7.557 -0.4803  0.5940  0.1800
40265SOL    HW124326   4.465   4.920   7.567  3.2471  2.1263  1.1241
40265SOL    HW224327   4.509   4.820   7.463 -3.1957  0.1147 -0.1246
40266SOL     OW24328   6.935   3.628   5.392 -0.4131  0.0579 -0.3338
40266SOL    HW124329   6.945   3.572   5.469  1.7468  0.5800 -0.1521
40266SOL    HW224330   6.841   3.642   5.383 -0.6862  2.0998  3.7339
40267SOL     OW24331   6.639   5.308   4.144 -0.4134  0.0957 -0.2365
40267SOL    HW124332   6.599   5.384   4.188  0.3772 -1.0884  2.8038
40267SOL    HW224333   6.567   5.268   4.096 -1.4238  1.4257  0.1000
40268SOL     OW24334   6.202   4.460   8.486 -0.3191 -0.4941 -0.2067
40268SOL    HW124335   6.109   4.436   8.485 -0.4815  0.0326  0.9218
40268SOL    HW224336   6.202   4.556   8.489  0.2809 -0.4619 -0.8517
40269SOL     OW24337   2.403   0.124   2.902  0.3457 -0.0350 -0.0700
40269SOL    HW124338   2.445   0.182   2.965 -1.4348 -0.3663  1.5154
40269SOL    HW224339   2.398   0.040   2.947 -1.2568 -0.1973 -0.5100
40270SOL     OW24340   6.514   3.659   9.568 -0.4847 -0.1056  0.2350
40270SOL    HW124341   6.578   3.702   9.625  1.0069 -1.0785 -0.6497
40270SOL    HW224342   6.514   3.567   9.596 -0.2402 -0.4548 -0.8598
40271SOL     OW24343   4.643   2.929   7.964  0.1928 -0.2821  0.1456
40271SOL    HW124344   4.608   3.005   7.917 -0.7502 -1.5063 -1.1927
40271SOL    HW224345   4.726   2.910   7.919 -0.2558 -0.8780 -0.4576
40272SOL     OW24346   8.205  10.865  10.049 -0.0448 -0.2221 -0.1015
40272SOL    HW124347   8.288  10.910  10.034  1.4452 -2.4574  0.7331
40272SOL    HW224348   8.218  10.819  10.132 -1.7178 -1.4861 -0.4824
40273SOL     OW24349  10.337   8.839   0.390  0.4396 -0.3245 -0.5087
40273SOL    HW124350  10.419   8.867   0.349  0.7797  0.3807  0.5991
40273SOL    HW224351  10.271   8.898   0.354  0.3376 -1.0771 -1.6231
40274SOL     OW24352   1.864   8.966   2.825 -0.5091 -0.3065  0.8316
40274SOL    HW124353   1.827   9.051   2.849 -0.9876 -1.0327  2.9718
40274SOL    HW224354   1.899   8.932   2.907  1.8244 -1.1839 -0.4408
40275SOL     OW24355   4.963   9.688   2.971 -0.5642 -0.6964 -0.2152
40275SOL    HW124356   4.950   9.610   2.917 -0.4933  0.0366 -1.3464
40275SOL    HW224357   5.056   9.687   2.993 -0.3042 -0.3307 -1.2326
40276SOL     OW24358   2.464   4.551   5.803 -0.6686  0.0996 -0.0109
40276SOL    HW124359   2.400   4.586   5.865 -0.7889  0.7213 -0.4722
40276SOL    HW224360   2.454   4.456   5.809 -1.1484  0.1741  0.4296
40277SOL     OW24361   8.959   1.144   6.257  0.1385 -0.2800  0.6635
40277SOL    HW124362   8.866   1.138   6.235  0.0506 -0.4723  1.0770
40277SOL    HW224363   9.002   1.161   6.174 -0.1135 -1.7351  0.2111
40278SOL     OW24364   9.783   1.592  10.781 -0.6473  0.4751  0.4587
40278SOL    HW124365   9.869   1.549  10.781 -0.0505  1.6198 -0.5632
40278SOL    HW224366   9.722   1.523  10.754  0.1096 -0.0616  0.0765
40279SOL     OW24367   6.690   3.138   9.070  0.4947  0.0665  0.7927
40279SOL    HW124368   6.598   3.139   9.095  0.5899  1.7984  1.2216
40279SOL    HW224369   6.696   3.071   9.002 -0.5744 -1.8629  2.4594
40280SOL     OW24370   2.447   1.472   2.733  0.1880  0.4866  0.3169
40280SOL    HW124371   2.524   1.449   2.681  0.8980 -0.3943  1.7120
40280SOL    HW224372   2.412   1.388   2.763 -1.0600  0.9032  0.1031
40281SOL     OW24373   0.287   4.841   2.256  0.4689 -0.3245  0.0126
40281SOL    HW124374   0.204   4.880   2.229  0.6114  0.8879  1.2560
40281SOL    HW224375   0.264   4.753   2.286 -0.1618 -0.4586 -0.8099
40282SOL     OW24376   2.956   6.052   6.750 -0.3612 -0.2729 -0.8147
40282SOL    HW124377   3.033   6.096   6.786 -0.0732 -0.4996 -1.1413
40282SOL    HW224378   2.898   6.040   6.825 -0.1752  0.1011 -0.6071
40283SOL     OW24379   3.764   9.109   0.043 -0.4523 -0.0317 -0.3720
40283SOL    HW124380   3.805   9.126   0.127 -1.4259  1.6807 -0.1972
40283SOL    HW224381   3.830   9.132  -0.022  0.1628 -0.9853 -0.1072
40284SOL     OW24382  10.876   6.947   9.128  0.0867 -0.1177 -0.0924
40284SOL    HW124383  10.880   6.954   9.223 -0.0820 -1.9860  0.0939
40284SOL    HW224384  10.783   6.930   9.109 -0.0583  1.2135 -0.6973
40285SOL     OW24385  10.699   5.975   2.068 -0.5377  0.0104 -0.0733
40285SOL    HW124386  10.618   6.009   2.105 -1.7107 -0.0992 -2.3252
40285SOL    HW224387  10.765   6.041   2.089 -1.0169 -0.1881  2.3351
40286SOL     OW24388  10.818  10.437  10.206 -0.3180 -0.1561 -0.0001
40286SOL    HW124389  10.783  10.349  10.223 -1.2663  0.2703  0.3644
40286SOL    HW224390  10.884  10.450  10.274  0.2528 -0.8045 -0.4162
40287SOL     OW24391   3.357   5.352   1.982  0.0539 -0.1809  0.0529
40287SOL    HW124392   3.360   5.266   2.024 -1.8395 -0.4964 -0.3854
40287SOL    HW224393   3.447   5.383   1.987  0.2728 -0.9467  2.7609
40288SOL     OW24394   9.364   4.211   9.481 -0.4491  0.1505 -0.5154
40288SOL    HW124395   9.425   4.268   9.528 -0.6507 -0.0879  0.0385
40288SOL    HW224396   9.418   4.139   9.449 -0.5595 -0.4432  0.6068
40289SOL     OW24397   6.209  10.555   8.604 -0.2958  0.0288 -0.2857
40289SOL    HW124398   6.156  10.556   8.524  0.0785  1.5579 -0.5500
40289SOL    HW224399   6.157  10.606   8.667 -1.8064 -3.2525  1.3387
40290SOL     OW24400   7.086   3.379   9.988 -0.0436 -0.0282  0.2099
40290SOL    HW124401   7.113   3.319  10.057  1.5439  1.1722  0.6818
40290SOL    HW224402   7.162   3.385   9.930 -1.0483 -0.3507 -1.1995
40291SOL     OW24403   6.398   7.537   8.105 -0.4075  0.0546  0.0705
40291SOL    HW124404   6.388   7.564   8.196 -0.2203  0.0553  0.0913
40291SOL    HW224405   6.309   7.539   8.069 -0.7114 -1.3696  0.6596
40292SOL     OW24406   6.047   0.220   3.987 -0.0853 -0.3303 -0.0192
40292SOL    HW124407   6.102   0.279   4.039  1.1178 -1.4981  0.0959
40292SOL    HW224408   6.056   0.135   4.030  1.6111 -1.5308 -2.5168
40293SOL     OW24409   3.649   2.143   4.503 -0.7750  0.1962  0.1720
40293SOL    HW124410   3.722   2.201   4.482 -1.4327  0.7344 -0.7180
40293SOL    HW224411   3.598   2.138   4.422 -0.4341 -2.1105  0.0492
40294SOL     OW24412   2.075   5.714   0.571  0.3454 -0.3113 -0.3530
40294SOL    HW124413   2.016   5.687   0.501 -0.4453  0.0267  0.1684
40294SOL    HW224414   2.163   5.702   0.535 -0.0500  0.4563 -1.6366
40295SOL     OW24415   7.487   9.124   0.568 -0.1792 -0.3642  0.1587
40295SOL    HW124416   7.436   9.132   0.649 -0.7848  0.1362 -0.2714
40295SOL    HW224417   7.539   9.204   0.564  0.2147 -0.6105  0.2996
40296SOL     OW24418   6.281   4.620   8.188  0.6260  0.2435  0.8249
40296SOL    HW124419   6.223   4.620   8.111  0.6425  1.1028  0.8088
40296SOL    HW224420   6.356   4.568   8.161  0.0837 -0.4928  0.6839
40297SOL     OW24421   3.301   3.091   8.987  0.3863  0.5463 -0.3896
40297SOL    HW124422   3.318   3.144   8.908  1.2840 -0.9549 -1.2539
40297SOL    HW224423   3.388   3.061   9.014 -0.1635 -1.4181 -0.6307
40298SOL     OW24424   0.531   7.242   6.563 -0.3493  0.2216 -0.3458
40298SOL    HW124425   0.466   7.299   6.520 -3.7083 -1.3038  2.2337
40298SOL    HW224426   0.532   7.163   6.510 -0.8517  0.1591 -0.2727
40299SOL     OW24427   5.736   2.872   2.186  0.0822 -0.1411 -0.1427
40299SOL    HW124428   5.749   2.864   2.091 -0.7597  0.7789 -0.3547
40299SOL    HW224429   5.814   2.920   2.216 -0.1786  0.5498 -0.5478
40300SOL     OW24430  10.354   8.479   6.506  0.5302  0.4425 -0.4757
40300SOL    HW124431  10.441   8.442   6.521  0.7400  0.7681 -0.8654
40300SOL    HW224432  10.344   8.544   6.575  0.6626  0.5161 -0.5239
40301SOL     OW24433   8.523   2.651   1.111  0.6287  0.3537  0.2413
40301SOL    HW124434   8.503   2.602   1.191  0.8508 -0.7191 -0.3557
40301SOL    HW224435   8.618   2.646   1.103  0.5093 -0.5712 -0.7279
40302SOL     OW24436   9.235   2.401   8.271  0.2340 -0.4538  0.1342
40302SOL    HW124437   9.196   2.478   8.229 -0.7663 -1.3316 -0.5980
40302SOL    HW224438   9.166   2.368   8.328  0.1174 -1.6318 -0.6499
40303SOL     OW24439   1.944   2.505   6.408  0.1663  0.5751 -0.1744
40303SOL    HW124440   2.017   2.460   6.450 -0.6037 -0.7700 -0.2076
40303SOL    HW224441   1.897   2.548   6.479 -0.1156 -0.1956  0.1096
40304SOL     OW24442   5.171   6.284   2.184 -0.0014 -0.2162 -0.4964
40304SOL    HW124443   5.220   6.237   2.116 -1.3429 -0.4705 -1.3182
40304SOL    HW224444   5.169   6.375   2.153  0.2963 -0.1222 -0.2487
40305SOL     OW24445   6.869   5.848   0.937 -0.1342  0.7400 -0.3366
40305SOL    HW124446   6.881   5.910   0.865 -1.2106  1.9967  0.5155
40305SOL    HW224447   6.958   5.824   0.963  0.3072  1.7314 -0.8812
40306SOL     OW24448   9.421   6.803   6.016 -0.2745 -0.3483 -0.0580
40306SOL    HW124449   9.343   6.836   5.971 -0.3948 -2.6679 -1.7428
40306SOL    HW224450   9.490   6.810   5.951  0.8181  0.9603  1.1696
40307SOL     OW24451   5.074   9.247   8.549 -0.2188  0.5030 -0.3269
40307SOL    HW124452   5.096   9.262   8.457  0.6563  0.5749 -0.1189
40307SOL    HW224453   5.158   9.257   8.595 -0.5056 -0.2470  0.3872
40308SOL     OW24454   2.011  10.221   2.646 -0.2775 -0.1315  0.5283
40308SOL    HW124455   2.048  10.138   2.675 -0.5067 -0.2398  0.5122
40308SOL    HW224456   1.987  10.266   2.728  1.3801  0.6370  0.6167
40309SOL     OW24457   8.612   1.275   1.181  0.0096  0.3961 -0.1894
40309SOL    HW124458   8.556   1.335   1.132 -1.4158 -0.6101  0.1580
40309SOL    HW224459   8.585   1.188   1.152  0.6441 -0.1450  0.8000
40310SOL     OW24460   1.436   5.490   3.242  0.0928 -0.6232  0.5432
40310SOL    HW124461   1.484   5.414   3.275  0.4160 -0.8510 -0.4099
40310SOL    HW224462   1.455   5.490   3.148  0.7726  1.1236  0.6523
40311SOL     OW24463   3.290  10.165   9.945 -0.2818 -0.2849 -0.0181
40311SOL    HW124464   3.308  10.178   9.852 -1.4423 -0.7801 -0.3416
40311SOL    HW224465   3.311  10.072   9.960  1.2121  0.1209  0.5633
40312SOL     OW24466   6.236   8.504   7.200 -0.1327  0.3134  0.0540
40312SOL    HW124467   6.288   8.453   7.263 -3.7971 -1.2500  2.1360
40312SOL    HW224468   6.241   8.454   7.119  0.1639 -0.7511  0.7045
40313SOL     OW24469   7.937   5.596   6.303 -0.1106  0.0288 -0.2418
40313SOL    HW124470   7.976   5.510   6.286  2.0077  0.6708  1.0300
40313SOL    HW224471   7.984   5.656   6.245  1.0354  0.8608  1.4806
40314SOL     OW24472   7.810   4.242   3.394  0.4369 -0.0776 -0.1013
40314SOL    HW124473   7.873   4.247   3.322 -0.3397  0.4835 -0.7589
40314SOL    HW224474   7.760   4.323   3.387 -0.7978 -0.8141 -0.0024
40315SOL     OW24475  10.293   0.681   8.901 -0.2239 -0.3120  0.5691
40315SOL    HW124476  10.369   0.622   8.906 -1.1429 -1.5237  0.7923
40315SOL    HW224477  10.258   0.666   8.813 -0.4748 -0.1047  0.6360
40316SOL     OW24478   0.337   9.140   9.682 -0.4698 -0.3826 -0.2899
40316SOL    HW124479   0.350   9.234   9.669  0.4438 -0.6918 -1.8597
40316SOL    HW224480   0.373   9.122   9.769 -0.9732  0.7655  0.1695
40317SOL     OW24481   3.653   6.921   1.406  0.7980  0.6535  0.2506
40317SOL    HW124482   3.619   6.832   1.396  0.4435  1.0220 -2.8529
40317SOL    HW224483   3.746   6.909   1.427  0.5090 -0.4291  0.9507
40318SOL     OW24484   0.253   2.391   1.352  0.2727 -0.7009  0.6374
40318SOL    HW124485   0.231   2.472   1.398 -2.7918 -1.9479  1.6574
40318SOL    HW224486   0.349   2.389   1.351  0.4626  1.8537  2.4804
40319SOL     OW24487   4.358   9.436   5.046  0.7358  0.1300 -0.4300
40319SOL    HW124488   4.309   9.457   5.125  2.1907 -2.8098  1.4385
40319SOL    HW224489   4.450   9.442   5.072  1.2692 -0.2070 -2.0968
40320SOL     OW24490   9.633   7.078   7.950 -0.0149 -0.3829  0.7121
40320SOL    HW124491   9.669   6.992   7.974 -0.0492 -0.2972  1.0813
40320SOL    HW224492   9.681   7.140   8.006 -1.3666 -0.3461  1.9049
40321SOL     OW24493   2.450   0.601   7.205  0.2494 -0.4218  0.4355
40321SOL    HW124494   2.524   0.564   7.157 -0.5505 -0.7858 -0.5441
40321SOL    HW224495   2.399   0.647   7.139 -1.6899 -2.1957  0.5989
40322SOL     OW24496   7.258   8.456  10.762 -0.1874 -0.3155 -0.0623
40322SOL    HW124497   7.343   8.473  10.802 -0.0504  2.2320 -1.2186
40322SOL    HW224498   7.206   8.534  10.782 -1.2190 -0.4790 -1.8987
40323SOL     OW24499   0.050   9.960   9.581  0.1679  0.3982 -0.3024
40323SOL    HW124500   0.130   9.940   9.532 -0.0149 -0.3508 -0.3066
40323SOL    HW224501   0.074   9.942   9.672 -0.1386 -0.3358 -0.3563
40324SOL     OW24502   6.137   1.403   6.833  0.0853 -0.0536 -0.0377
40324SOL    HW124503   6.100   1.491   6.840 -0.0118 -0.1153  0.2278
40324SOL    HW224504   6.134   1.368   6.923 -0.7886 -0.7041 -0.3125
40325SOL     OW24505   4.900   0.755  10.138 -0.1204  0.1627  0.5984
40325SOL    HW124506   4.890   0.678  10.193  0.7616  0.9175  1.8576
40325SOL    HW224507   4.995   0.768  10.131 -0.2469  0.8513 -0.0062
40326SOL     OW24508   9.075   5.288   0.529 -0.7665 -0.0096  0.1775
40326SOL    HW124509   9.019   5.248   0.462  1.7872 -0.6031 -1.7866
40326SOL    HW224510   9.144   5.223   0.544 -0.2178  0.9356  1.9825
40327SOL     OW24511   0.452   1.249   0.898  0.0431  0.6648  0.4237
40327SOL    HW124512   0.378   1.190   0.915  0.8416 -0.1436  1.2716
40327SOL    HW224513   0.421   1.308   0.831 -1.4467  0.4716  0.9021
40328SOL     OW24514   6.515   2.070   7.422 -0.1614  0.7349  0.5337
40328SOL    HW124515   6.597   2.042   7.462 -0.2617 -0.9775 -0.3981
40328SOL    HW224516   6.485   1.995   7.371 -1.9969  1.5353  0.3382
40329SOL     OW24517   9.421  11.014   8.169  0.5218  0.8551  0.3604
40329SOL    HW124518   9.374  11.062   8.100 -3.5449 -0.9327  1.5643
40329SOL    HW224519   9.409  11.067   8.247 -2.0965 -0.8503  1.2365
40330SOL     OW24520   3.649  10.059   2.295 -0.4730  0.3809  0.0189
40330SOL    HW124521   3.685  10.147   2.282  0.0406  0.2037  0.2315
40330SOL    HW224522   3.682  10.008   2.221 -1.3166  0.5247 -0.4759
40331SOL     OW24523   6.120   9.909   4.683  0.1727  0.0162 -0.0081
40331SOL    HW124524   6.050   9.852   4.714  0.6427 -0.9397 -0.6586
40331SOL    HW224525   6.136   9.970   4.755 -0.6948 -0.3356  0.4916
40332SOL     OW24526   5.989   0.104   9.609 -0.3148  0.2172 -0.2314
40332SOL    HW124527   5.940   0.072   9.533  1.9355 -0.8678 -1.3105
40332SOL    HW224528   6.080   0.107   9.580  0.7607 -1.0051  2.6470
40333SOL     OW24529   6.992   6.058   5.216 -0.8519  0.6973  0.0447
40333SOL    HW124530   7.067   6.020   5.261 -2.2795 -2.9030 -0.2491
40333SOL    HW224531   6.917   6.035   5.271 -2.0398  1.3399 -1.2432
40334SOL     OW24532   4.793   9.234   2.568 -0.5116  0.6782 -0.3336
40334SOL    HW124533   4.728   9.291   2.528 -0.6313  1.2334  0.6214
40334SOL    HW224534   4.794   9.259   2.661  1.1132  0.7488 -0.3354
40335SOL     OW24535   9.262   4.413   7.069  0.0853  0.4241  0.2433
40335SOL    HW124536   9.340   4.456   7.033 -0.0342 -0.3835 -1.0473
40335SOL    HW224537   9.233   4.355   6.999 -0.6522 -0.6129  1.3828
40336SOL     OW24538   8.266   8.192  10.127  0.7018 -0.4529 -0.3616
40336SOL    HW124539   8.203   8.122  10.142 -2.2049  2.1672  0.7755
40336SOL    HW224540   8.275   8.197  10.032 -1.5338 -0.3904 -0.6247
40337SOL     OW24541   9.912   0.547  10.314 -0.0512  0.4814 -0.5078
40337SOL    HW124542   9.832   0.537  10.367  1.3306 -2.2661  1.3006
40337SOL    HW224543   9.981   0.565  10.378  1.0508  1.3068 -1.8721
40338SOL     OW24544   1.451   7.057  11.120 -0.2770  0.4713 -0.2380
40338SOL    HW124545   1.424   7.081  11.209  0.5246 -0.0293  0.1483
40338SOL    HW224546   1.527   7.000  11.132 -0.4319  0.0281 -1.2324
40339SOL     OW24547   2.752   9.901   5.252  0.3637 -0.6761  0.1676
40339SOL    HW124548   2.775   9.812   5.279  1.1005 -0.4044  0.4625
40339SOL    HW224549   2.827   9.954   5.278  0.5935 -0.2111 -1.3783
40340SOL     OW24550   2.684  10.172   0.217  0.1883 -0.4512  0.1677
40340SOL    HW124551   2.720  10.188   0.130 -1.5274 -0.5051 -0.6111
40340SOL    HW224552   2.685  10.257   0.260 -1.7212  0.2764 -1.0725
40341SOL     OW24553   0.650   8.288  10.234  0.0282 -0.4266 -0.6079
40341SOL    HW124554   0.577   8.346  10.259  0.4900 -0.1174  0.0320
40341SOL    HW224555   0.607   8.207  10.208 -0.4649 -1.2672  2.4329
40342SOL     OW24556   7.372   9.392   8.466  0.2518  0.1031  0.2436
40342SOL    HW124557   7.429   9.438   8.528  0.8972  0.9309 -0.9121
40342SOL    HW224558   7.293   9.372   8.516  0.7631  0.7221  1.3355
40343SOL     OW24559   0.057   1.067   0.215 -0.3392 -0.4080 -0.3844
40343SOL    HW124560   0.044   1.064   0.120 -0.2874  0.7834 -0.4402
40343SOL    HW224561   0.110   0.990   0.234  0.4367 -0.1568 -1.4566
40344SOL     OW24562  10.131   4.613   0.697 -0.0888 -0.3860 -0.4341
40344SOL    HW124563  10.224   4.598   0.713  0.0445 -0.2045 -1.0139
40344SOL    HW224564  10.089   4.597   0.782  0.5493  0.2202  0.0065
40345SOL     OW24565   7.124   8.980   7.429 -0.1587  0.0887 -0.2052
40345SOL    HW124566   7.205   8.940   7.464 -0.1769 -2.0486 -2.3360
40345SOL    HW224567   7.142   9.074   7.428  1.5685 -0.1732  1.1004
40346SOL     OW24568   2.477   4.667   3.511 -0.5917  0.1637 -0.6520
40346SOL    HW124569   2.400   4.641   3.459  0.4394 -1.9255 -1.2680
40346SOL    HW224570   2.448   4.660   3.602 -0.7586 -2.1745 -0.8203
40347SOL     OW24571   8.866   0.988   1.821  0.1285  0.5961  0.4078
40347SOL    HW124572   8.937   1.006   1.760  0.6966  0.4012  1.0087
40347SOL    HW224573   8.906   0.990   1.908 -1.0185  2.7009  0.9536
40348SOL     OW24574   4.607   4.949   5.014 -0.8118 -0.1559 -0.1385
40348SOL    HW124575   4.702   4.955   5.001 -0.7437  0.6547  0.6422
40348SOL    HW224576   4.598   4.911   5.102 -1.1878  1.0580  0.3676
40349SOL     OW24577   5.780   2.760   3.855  0.2254 -0.3016 -0.2227
40349SOL    HW124578   5.816   2.767   3.943  0.2417  1.7521 -0.3313
40349SOL    HW224579   5.840   2.702   3.808  0.9943 -0.3094  0.7393
40350SOL     OW24580  11.092   7.681   5.391  0.6073 -0.0947  0.4017
40350SOL    HW124581  11.125   7.719   5.310 -1.4350  0.0766 -0.4220
40350SOL    HW224582  11.141   7.599   5.401  2.0516  0.6782 -0.0799
40351SOL     OW24583   7.128   2.289   6.967  0.2016  0.0559  0.1855
40351SOL    HW124584   7.095   2.369   6.925  0.8419  0.6449  0.7627
40351SOL    HW224585   7.216   2.278   6.931  0.6306  0.3841  1.1015
40352SOL     OW24586   3.275   1.446   8.761  0.2143  0.5412  0.2886
40352SOL    HW124587   3.302   1.535   8.738  0.2355  0.8721  1.5533
40352SOL    HW224588   3.183   1.454   8.785  0.5358  0.4487  1.5930
40353SOL     OW24589   4.242   2.058   8.909 -0.5502 -0.2755 -0.1884
40353SOL    HW124590   4.228   2.068   9.003 -0.1769 -1.6461  0.0349
40353SOL    HW224591   4.335   2.077   8.896 -0.7885  0.8208 -0.4463
40354SOL     OW24592   5.239   3.506   1.782  0.4976  0.1937  0.1879
40354SOL    HW124593   5.182   3.440   1.742 -0.3085  0.3741  0.9980
40354SOL    HW224594   5.185   3.585   1.786  0.6029  0.2231  1.4487
40355SOL     OW24595   8.755   8.515   1.009 -0.2814  0.4190 -0.0699
40355SOL    HW124596   8.701   8.550   1.080 -1.2886 -0.6425 -0.2780
40355SOL    HW224597   8.700   8.448   0.969  1.9486 -2.1975  1.0085
40356SOL     OW24598   1.068   3.924   7.002 -0.3755  0.2347  0.1432
40356SOL    HW124599   1.081   3.887   6.915  2.4191 -0.3723  0.7230
40356SOL    HW224600   1.013   3.860   7.047  1.1687 -1.3589 -0.1083
40357SOL     OW24601   4.345   1.508   4.595 -0.1232  0.3018 -0.6909
40357SOL    HW124602   4.391   1.489   4.512 -1.4961 -1.6075 -1.0987
40357SOL    HW224603   4.387   1.450   4.658 -1.0143 -0.4367 -0.7571
40358SOL     OW24604   6.315   7.437   1.593 -0.2303  0.0886  1.1866
40358SOL    HW124605   6.369   7.377   1.645  0.8048  0.6742  0.8108
40358SOL    HW224606   6.265   7.487   1.658  0.3310  0.1371  1.5899
40359SOL     OW24607  11.019  10.322   9.017 -0.2679  0.7197  0.0609
40359SOL    HW124608  11.102  10.350   9.054 -0.5428  1.3541  0.1924
40359SOL    HW224609  11.026  10.344   8.924  0.3347 -0.6728 -0.2547
40360SOL     OW24610   3.857   1.529   5.155  0.0495 -0.2612 -0.1130
40360SOL    HW124611   3.836   1.589   5.084 -1.4244  0.3656  0.7940
40360SOL    HW224612   3.948   1.505   5.141  0.3993  1.4728 -1.0311
40361SOL     OW24613   3.454   2.754   4.587  0.1509 -0.0438 -0.2965
40361SOL    HW124614   3.362   2.764   4.562 -0.1544 -1.3769  0.2034
40361SOL    HW224615   3.469   2.660   4.583  0.9796 -0.0220  1.4101
40362SOL     OW24616   0.002   4.172   7.969  0.2336 -0.2453  1.1140
40362SOL    HW124617   0.021   4.264   7.952 -0.0487 -0.3805 -0.0616
40362SOL    HW224618   0.079   4.140   8.016  1.3328  0.0967 -0.3575
40363SOL     OW24619   0.547   9.809   6.485  0.7272 -0.0100 -0.5215
40363SOL    HW124620   0.533   9.861   6.406  2.8206 -0.2049 -1.0996
40363SOL    HW224621   0.642   9.812   6.499  0.8106 -2.7337  0.0613
40364SOL     OW24622  10.111   1.880  10.762  0.0415  0.2750 -0.2279
40364SOL    HW124623  10.023   1.850  10.741  0.1385 -0.9918  1.0069
40364SOL    HW224624  10.103   1.918  10.849  0.8618 -0.7095  0.2994
40365SOL     OW24625   4.030   2.944  10.559  0.5871 -0.1398 -0.1068
40365SOL    HW124626   3.944   2.985  10.555 -0.3374 -2.0851 -3.3671
40365SOL    HW224627   4.086   2.999  10.504  0.8873 -0.0660  0.2666
40366SOL     OW24628   2.799   3.310   1.029 -0.3577  0.3245 -0.2603
40366SOL    HW124629   2.773   3.395   0.992  0.3749  0.0820 -1.4084
40366SOL    HW224630   2.806   3.252   0.953 -1.1697 -0.8700  0.5435
40367SOL     OW24631   2.871   8.768   2.760  0.1067  0.1855  0.2983
40367SOL    HW124632   2.867   8.834   2.691  1.6640 -0.2371 -0.2353
40367SOL    HW224633   2.818   8.696   2.727  0.2784  0.2644 -0.1575
40368SOL     OW24634   0.383   0.983   8.935  0.2938 -0.8370 -0.5071
40368SOL    HW124635   0.442   0.932   8.879 -0.3043 -2.0657 -0.0356
40368SOL    HW224636   0.347   1.050   8.876  2.8901  0.6182 -0.5839
40369SOL     OW24637   3.787   9.687   0.056  0.4799  0.3056 -0.2201
40369SOL    HW124638   3.752   9.712  -0.029  2.3793 -0.1077 -1.1599
40369SOL    HW224639   3.765   9.594   0.064  1.0336  0.1345 -0.6479
40370SOL     OW24640   1.890   6.152   9.560  0.2898  0.7219  0.0402
40370SOL    HW124641   1.794   6.151   9.560  0.2274  1.8705  1.8107
40370SOL    HW224642   1.912   6.242   9.536  0.9432  0.4457 -0.4133
40371SOL     OW24643   9.211   6.493   1.524  0.4032 -0.3155 -0.1285
40371SOL    HW124644   9.306   6.477   1.520  0.5476  0.5531 -0.3728
40371SOL    HW224645   9.189   6.526   1.437  0.1160  0.7513  0.3410
40372SOL     OW24646   8.696  10.972   1.216  0.3714  0.0894  0.1998
40372SOL    HW124647   8.650  11.055   1.215  0.5716  0.1994 -1.1302
40372SOL    HW224648   8.788  10.995   1.203  0.6249 -0.2491  1.2484
40373SOL     OW24649   5.522  10.403   2.843  0.1420 -0.3031 -0.1087
40373SOL    HW124650   5.555  10.431   2.928  1.1782 -0.3202 -0.4937
40373SOL    HW224651   5.490  10.314   2.858 -0.8292  0.1398  0.5365
40374SOL     OW24652   7.697   7.715   1.412  0.6277 -0.6562 -0.4443
40374SOL    HW124653   7.720   7.668   1.332  2.3596 -1.3445  0.4050
40374SOL    HW224654   7.781   7.730   1.456 -0.2256  0.2339  0.9635
40375SOL     OW24655   9.771   6.164   2.611  0.3371  0.2971 -0.2649
40375SOL    HW124656   9.717   6.241   2.590 -1.2333 -0.4036  0.9510
40375SOL    HW224657   9.751   6.101   2.542 -2.3636 -0.8286  1.3490
40376SOL     OW24658   8.685  10.680   0.733  0.4498  0.1308  0.4954
40376SOL    HW124659   8.779  10.662   0.729  0.6653  0.6093  2.3071
40376SOL    HW224660   8.677  10.749   0.800 -1.0027  1.6382 -1.1402
40377SOL     OW24661   5.403   8.647   4.595  0.3793  0.0710 -0.1098
40377SOL    HW124662   5.369   8.571   4.642  0.8647  0.5789  1.0893
40377SOL    HW224663   5.417   8.713   4.663 -0.7082  1.5055 -1.1996
40378SOL     OW24664  10.726   3.316   1.003  0.1592 -0.4769  0.0092
40378SOL    HW124665  10.802   3.374   1.006 -0.5974  0.5380  0.1882
40378SOL    HW224666  10.660   3.359   1.058 -0.5789 -1.2865 -0.2105
40379SOL     OW24667   8.853   6.340   3.236  0.4143  0.0627  0.3911
40379SOL    HW124668   8.912   6.306   3.169  0.5967 -1.7649  1.4019
40379SOL    HW224669   8.906   6.342   3.316 -0.6565 -0.9923  1.1723
40380SOL     OW24670   9.402   1.836   0.569  0.1820 -0.2290 -0.6751
40380SOL    HW124671   9.392   1.928   0.543 -0.4466 -0.2133 -0.3912
40380SOL    HW224672   9.401   1.839   0.665  0.5970 -0.4860 -0.6640
40381SOL     OW24673   6.243   1.417   4.001  0.5550  0.8872  0.7874
40381SOL    HW124674   6.330   1.381   4.017  0.1832 -0.6349 -0.4148
40381SOL    HW224675   6.225   1.396   3.909 -1.7038 -0.1906  1.4088
40382SOL     OW24676   2.244   9.779   7.292  1.3485 -0.0657 -0.1712
40382SOL    HW124677   2.278   9.690   7.278 -0.2819 -0.4142 -2.5115
40382SOL    HW224678   2.298   9.834   7.235  1.4594  0.2380  0.2251
40383SOL     OW24679   7.353   8.147   8.697  0.4971 -0.3758 -0.5651
40383SOL    HW124680   7.397   8.208   8.639 -1.0511  2.2203  0.8032
40383SOL    HW224681   7.267   8.133   8.657 -0.0055  0.2064  0.2817
40384SOL     OW24682   8.354   7.142   4.131 -0.7385  0.5762  0.1291
40384SOL    HW124683   8.385   7.207   4.067 -0.8685 -0.1340 -0.6836
40384SOL    HW224684   8.358   7.187   4.215 -0.8585  1.6449 -0.4153
40385SOL     OW24685  10.587   1.600   1.322 -0.4493  0.4586  0.1209
40385SOL    HW124686  10.575   1.645   1.405  0.6293  1.2448 -0.1288
40385SOL    HW224687  10.667   1.638   1.285  0.4065 -1.5354 -0.1926
40386SOL     OW24688   9.433   6.689   8.081  0.2492 -0.0820 -0.0672
40386SOL    HW124689   9.509   6.647   8.043  0.2925  0.3463 -0.4548
40386SOL    HW224690   9.458   6.707   8.172  0.8149  0.5655 -0.3478
40387SOL     OW24691   3.227   3.175   2.485 -0.3195 -0.0420 -0.7272
40387SOL    HW124692   3.213   3.236   2.557 -1.5179 -0.1368 -0.8593
40387SOL    HW224693   3.313   3.198   2.451 -0.0208  0.4456  0.3002
40388SOL     OW24694   3.578  10.659   1.043  0.2123 -0.6285 -0.0379
40388SOL    HW124695   3.619  10.683   1.126 -0.1755  0.5076 -0.1470
40388SOL    HW224696   3.552  10.743   1.005 -1.6061 -1.2555 -0.2770
40389SOL     OW24697  10.845   8.541   7.408 -0.2269  0.0315 -0.2176
40389SOL    HW124698  10.861   8.601   7.482  1.4773  0.0652 -0.5646
40389SOL    HW224699  10.786   8.590   7.350 -0.3627  0.6158  0.3961
40390SOL     OW24700   2.346  10.483   9.461 -0.1183  0.1365  0.0958
40390SOL    HW124701   2.304  10.514   9.381  1.7932 -1.6243 -1.7332
40390SOL    HW224702   2.393  10.559   9.496  0.0198  0.6498 -1.1803
40391SOL     OW24703   4.701   6.086   3.019 -0.2672 -0.1809  0.0011
40391SOL    HW124704   4.796   6.093   3.014 -0.2316 -0.6014  0.1132
40391SOL    HW224705   4.673   6.172   3.051  0.1558 -0.4265  1.0823
40392SOL     OW24706   2.922  11.025   6.234  0.1631  0.3609  0.0240
40392SOL    HW124707   2.840  10.976   6.239  0.2733 -0.3721 -3.1243
40392SOL    HW224708   2.966  11.007   6.317 -1.6174 -1.5232  0.6497
40393SOL     OW24709   6.132  10.132   4.857 -0.2267  0.2471 -0.1948
40393SOL    HW124710   6.053  10.166   4.815 -0.7998 -1.6716 -0.7721
40393SOL    HW224711   6.105  10.111   4.946 -0.7710 -1.6091 -0.7571
40394SOL     OW24712   1.460   5.197   8.732  0.0338 -0.0361  0.3580
40394SOL    HW124713   1.441   5.289   8.711 -3.1740 -1.0240 -1.8975
40394SOL    HW224714   1.497   5.161   8.651 -2.7154 -1.5953 -0.3226
40395SOL     OW24715   5.432   4.521   7.330 -0.2912  0.2571 -0.0436
40395SOL    HW124716   5.461   4.461   7.262  1.5609  0.1380  0.7723
40395SOL    HW224717   5.371   4.580   7.287  0.3213 -0.2282 -1.6275
40396SOL     OW24718   6.580   0.862   5.404  0.5463  0.4575  0.1672
40396SOL    HW124719   6.595   0.768   5.410  0.3742  0.4836  1.0199
40396SOL    HW224720   6.667   0.899   5.388  0.5420  0.1193 -0.7334
40397SOL     OW24721   9.362   1.009  10.824 -0.3621 -0.0074 -0.5666
40397SOL    HW124722   9.309   1.007  10.744  1.8199 -2.7498 -2.1324
40397SOL    HW224723   9.426   1.079  10.809 -0.4297 -0.0170 -0.9140
40398SOL     OW24724   0.408   5.701   1.346 -0.5224 -0.0084  0.8705
40398SOL    HW124725   0.429   5.613   1.378  1.9513  0.7738  1.6983
40398SOL    HW224726   0.492   5.735   1.315 -1.6916  1.5881 -0.7144
40399SOL     OW24727   7.410   2.728   9.838 -0.1716 -0.0245  0.2107
40399SOL    HW124728   7.483   2.762   9.786 -1.9799 -0.1707 -2.6302
40399SOL    HW224729   7.451   2.672   9.904  2.3541  1.3981 -0.0257
40400SOL     OW24730   9.901   6.560   1.508  0.3791 -0.2183  0.4573
40400SOL    HW124731   9.985   6.582   1.546  1.1192  0.8025 -1.5855
40400SOL    HW224732   9.837   6.578   1.577  1.8290 -1.6535  2.2763
40401SOL     OW24733   7.200   1.675  10.649  0.4875  0.3869  0.2172
40401SOL    HW124734   7.191   1.653  10.556 -1.2374 -0.2897  0.5044
40401SOL    HW224735   7.256   1.606  10.685  1.5886  0.9381 -0.3885
40402SOL     OW24736   6.688   1.527   3.856  0.0601 -0.0248 -0.8389
40402SOL    HW124737   6.716   1.579   3.780 -3.0050  1.4622 -1.1305
40402SOL    HW224738   6.698   1.587   3.930  0.3811 -0.4873 -0.5097
40403SOL     OW24739   0.326  10.057   4.690  0.1170 -0.1444 -0.2705
40403SOL    HW124740   0.307   9.983   4.633  1.8470 -0.7405 -0.1167
40403SOL    HW224741   0.326  10.133   4.632 -1.2044 -0.2849 -0.5017
40404SOL     OW24742   6.885   3.344   4.868  0.2438 -0.3474  0.2609
40404SOL    HW124743   6.868   3.329   4.961  1.2575 -0.2546  0.4767
40404SOL    HW224744   6.881   3.439   4.858  0.8279 -0.3098  0.3590
40405SOL     OW24745   9.978   8.314  10.800  0.1382  0.3111 -0.0992
40405SOL    HW124746  10.000   8.261  10.723 -0.7103 -0.0172 -0.1235
40405SOL    HW224747  10.059   8.315  10.852  1.2461  1.8936 -1.7379
40406SOL     OW24748   8.087   2.597   3.321  0.9926  0.4165 -0.1264
40406SOL    HW124749   8.111   2.557   3.237  1.0896  0.7847 -0.2738
40406SOL    HW224750   8.171   2.608   3.366  0.9652  0.4632 -0.0880
40407SOL     OW24751   8.674   7.954   7.631  0.0758 -0.1055  0.2300
40407SOL    HW124752   8.713   8.036   7.661  0.0048  0.0942 -0.2101
40407SOL    HW224753   8.708   7.888   7.690  0.2683  0.2175  0.4840
40408SOL     OW24754   2.576   1.324   5.494  0.3343 -0.4325 -0.0512
40408SOL    HW124755   2.498   1.377   5.509  0.7527 -0.1660  1.2725
40408SOL    HW224756   2.543   1.241   5.459 -0.6034 -0.5941  1.1544
40409SOL     OW24757  11.079  10.147   1.463  0.1640  0.1712  0.1530
40409SOL    HW124758  11.113  10.104   1.541 -0.2361 -0.6379 -0.1154
40409SOL    HW224759  11.036  10.078   1.413  2.6995  0.0794 -2.1268
40410SOL     OW24760   9.142   8.763   5.636  0.2455  0.1448 -0.4735
40410SOL    HW124761   9.150   8.689   5.576 -0.0642 -0.6618  0.4556
40410SOL    HW224762   9.232   8.791   5.651  0.2922  0.7632 -1.7896
40411SOL     OW24763   2.509   0.647   1.246 -0.0317  0.5229 -0.5137
40411SOL    HW124764   2.414   0.648   1.247 -0.1181  0.1364 -2.7495
40411SOL    HW224765   2.531   0.556   1.224  0.8431  0.6392 -0.1506
40412SOL     OW24766   2.679   5.815   9.903  0.4151  0.1936  0.3152
40412SOL    HW124767   2.707   5.903   9.875  0.4845  0.1719  0.3147
40412SOL    HW224768   2.760   5.765   9.906  0.1333 -0.4916 -1.8846
40413SOL     OW24769   2.531   2.352   7.751 -0.2359 -0.2948 -0.6296
40413SOL    HW124770   2.589   2.411   7.798  1.4867 -1.9008 -0.6460
40413SOL    HW224771   2.443   2.387   7.767  0.6384  1.7367  0.0531
40414SOL     OW24772   1.405   2.209   7.977 -0.1125 -0.2043 -0.1842
40414SOL    HW124773   1.315   2.180   7.992 -0.3859  1.1594  0.9989
40414SOL    HW224774   1.456   2.164   8.045 -0.0044 -0.4551 -0.4296
40415SOL     OW24775   7.619  10.328   6.107 -0.2118  0.5138 -0.0385
40415SOL    HW124776   7.677  10.395   6.072  1.4914 -0.0225  1.5764
40415SOL    HW224777   7.664  10.246   6.089 -0.0916  0.1213  1.8090
40416SOL     OW24778   5.001   4.923   7.970 -0.0916  0.0378  0.3295
40416SOL    HW124779   5.096   4.914   7.975 -0.0758 -0.6811 -0.8640
40416SOL    HW224780   4.985   5.017   7.975  0.7539  0.2235 -0.3018
40417SOL     OW24781   5.726   2.470   2.747  0.2652  0.1817  0.4279
40417SOL    HW124782   5.658   2.537   2.752  0.5036  0.3302  2.6109
40417SOL    HW224783   5.687   2.393   2.788  0.7575 -0.3199 -0.0358
40418SOL     OW24784   4.961   4.795   2.213 -0.3369 -0.6281  0.1593
40418SOL    HW124785   4.889   4.855   2.234 -0.2750 -0.9486  1.3423
40418SOL    HW224786   4.927   4.740   2.143 -1.1082 -0.5129  0.4360
40419SOL     OW24787   0.351   1.773   0.981 -0.0978  0.0523  0.2461
40419SOL    HW124788   0.306   1.802   0.901  1.2475 -0.0991 -0.5868
40419SOL    HW224789   0.386   1.853   1.020 -2.4735  0.4222  1.8495
40420SOL     OW24790   7.668   9.233   5.957 -0.6597  0.4240  0.8106
40420SOL    HW124791   7.661   9.270   5.869 -1.6983 -1.7451 -0.0968
40420SOL    HW224792   7.728   9.291   6.003  1.5863  0.4734 -1.9429
40421SOL     OW24793   2.332   9.588   4.250 -0.8170 -0.1049  0.1173
40421SOL    HW124794   2.317   9.607   4.158  0.2701  0.6072  0.0750
40421SOL    HW224795   2.407   9.530   4.251  1.9573  3.1734  0.6808
40422SOL     OW24796   8.226   9.242  10.122 -0.2117 -1.2085  0.4904
40422SOL    HW124797   8.275   9.233  10.203  1.7374  1.7533 -0.1685
40422SOL    HW224798   8.293   9.244  10.053 -0.9448  3.2894 -0.4394
40423SOL     OW24799   7.333   6.549   8.538  0.1501  0.2744  0.0748
40423SOL    HW124800   7.238   6.560   8.538 -0.2728 -2.5912  0.4371
40423SOL    HW224801   7.367   6.637   8.523 -2.5448  1.3424 -0.4027
40424SOL     OW24802   4.870   6.781   4.630 -0.1937  0.3713 -0.1005
40424SOL    HW124803   4.881   6.804   4.722  2.0833  1.6597 -0.6205
40424SOL    HW224804   4.932   6.710   4.616  1.1778  1.7368 -1.1374
40425SOL     OW24805   0.657   1.505   5.206 -0.5489 -0.3387  0.0714
40425SOL    HW124806   0.603   1.565   5.155  0.4387  0.4615 -0.0627
40425SOL    HW224807   0.745   1.542   5.202 -0.0856 -1.3101  0.7498
40426SOL     OW24808   0.905   4.261   2.869  0.0503 -0.4175 -0.1683
40426SOL    HW124809   0.824   4.218   2.898  0.7870 -0.5225  1.9122
40426SOL    HW224810   0.955   4.273   2.950  1.1883  1.6056 -1.1169
40427SOL     OW24811   1.081   9.297   2.126 -0.0465  0.2885  0.0895
40427SOL    HW124812   1.094   9.392   2.119  1.3706  0.0197 -1.9744
40427SOL    HW224813   0.986   9.287   2.133 -0.1759  1.8763  1.0707
40428SOL     OW24814   7.489   4.432   4.924  0.1917  0.3643 -0.3187
40428SOL    HW124815   7.417   4.368   4.927  0.0880  0.4695 -0.5171
40428SOL    HW224816   7.534   4.422   5.008 -1.9197  2.4506  1.1895
40429SOL     OW24817   6.573   4.377   5.306 -0.0504  0.5745 -0.7924
40429SOL    HW124818   6.576   4.411   5.396 -0.6208  0.8760 -0.8885
40429SOL    HW224819   6.649   4.416   5.264  1.0220 -0.6409 -0.0685
40430SOL     OW24820   3.227   7.764   2.408 -0.0716 -0.8611 -0.0036
40430SOL    HW124821   3.248   7.837   2.466 -1.2143 -1.4189  1.1668
40430SOL    HW224822   3.226   7.687   2.466  0.7365 -1.7493 -1.1401
40431SOL     OW24823   3.575   1.110   0.931 -0.1756 -0.0601  0.2688
40431SOL    HW124824   3.541   1.163   1.002  1.8372  1.1051  0.4406
40431SOL    HW224825   3.497   1.074   0.888 -1.4720 -1.5567  3.5498
40432SOL     OW24826  10.456   3.671   1.376 -0.0828  0.0303 -0.7929
40432SOL    HW124827  10.392   3.653   1.308  0.6322  1.6543 -1.9480
40432SOL    HW224828  10.483   3.761   1.361  0.5777  0.2363  1.2622
40433SOL     OW24829   8.913   9.101   5.808 -0.3047  0.3496 -0.3591
40433SOL    HW124830   8.930   9.175   5.867  1.7229  0.4357 -1.0042
40433SOL    HW224831   8.828   9.067   5.837  0.0991  1.0910  1.8591
40434SOL     OW24832  10.835   5.041   9.009 -0.1553  0.1335  0.3109
40434SOL    HW124833  10.884   5.038   8.927 -0.2918  0.2049  0.2259
40434SOL    HW224834  10.755   4.991   8.991 -0.1929  0.1632  0.3968
40435SOL     OW24835   6.386   5.354   5.305 -0.3497 -0.4630  0.1358
40435SOL    HW124836   6.331   5.276   5.294 -0.6624 -0.0826 -1.1635
40435SOL    HW224837   6.362   5.388   5.392 -1.5160 -0.8121 -0.0290
40436SOL     OW24838   1.254   0.400   4.106  0.8050 -0.4932  0.4360
40436SOL    HW124839   1.189   0.368   4.168 -0.7566 -0.5232 -1.1397
40436SOL    HW224840   1.291   0.321   4.067  0.6295 -0.4526  0.1874
40437SOL     OW24841   5.209   7.184   4.147 -0.1490  0.2210  0.3506
40437SOL    HW124842   5.144   7.187   4.217 -0.6182  0.6193 -0.0945
40437SOL    HW224843   5.209   7.093   4.118  1.5561 -0.4586  2.2491
40438SOL     OW24844   7.153   1.016   9.872 -0.4901  0.0538 -0.0628
40438SOL    HW124845   7.213   0.951   9.908  1.1640  1.0837 -0.8251
40438SOL    HW224846   7.151   0.997   9.778  0.9810  1.7642 -0.5014
40439SOL     OW24847   3.965   1.403   0.307  0.0216  0.3558 -0.5701
40439SOL    HW124848   4.010   1.328   0.269 -0.0454  0.6086 -1.1600
40439SOL    HW224849   4.019   1.428   0.382 -0.3363 -0.7200  0.0694
40440SOL     OW24850   1.918   9.106   4.653  0.4311  0.1374 -0.0930
40440SOL    HW124851   1.887   9.124   4.564  0.6477 -1.8814 -0.6087
40440SOL    HW224852   1.837   9.094   4.704  0.3077  1.2747  0.0131
40441SOL     OW24853  10.248   4.017   8.015  0.3372 -0.1798  0.8545
40441SOL    HW124854  10.265   4.038   7.923 -3.0362 -0.2147  0.0970
40441SOL    HW224855  10.319   4.059   8.063  1.6184  0.7333 -1.6745
40442SOL     OW24856   2.088   5.193   8.594 -0.5245  0.6528 -0.5208
40442SOL    HW124857   2.032   5.269   8.577 -0.5680  0.8107  0.2997
40442SOL    HW224858   2.067   5.131   8.524 -0.1162  1.5916 -1.5005
40443SOL     OW24859   7.114   0.461   0.244 -0.4963 -0.3450  0.6515
40443SOL    HW124860   7.132   0.458   0.150  0.1461 -1.9492  0.8015
40443SOL    HW224861   7.020   0.444   0.251 -1.0083  1.9646  0.2148
40444SOL     OW24862  10.537   9.355   1.467  0.5160  0.4153  0.1956
40444SOL    HW124863  10.508   9.351   1.558  0.8074 -1.0499  0.2495
40444SOL    HW224864  10.630   9.332   1.470  0.2113 -1.0647 -0.5809
40445SOL     OW24865   2.793   0.458   7.734 -0.4309 -0.4593 -0.2322
40445SOL    HW124866   2.885   0.476   7.754 -0.8146  1.3144  0.0553
40445SOL    HW224867   2.755   0.431   7.818 -1.1919  3.4098  0.8415
40446SOL     OW24868   1.020   5.450   5.951  0.1388 -0.5093  0.0414
40446SOL    HW124869   1.032   5.421   6.042 -0.8875 -1.4788 -0.1112
40446SOL    HW224870   1.108   5.449   5.914  0.3902 -1.5052  0.6273
40447SOL     OW24871   7.102   8.722   7.941  0.3301  0.2384 -0.0407
40447SOL    HW124872   7.175   8.781   7.961  0.3630 -0.1354  1.0155
40447SOL    HW224873   7.046   8.773   7.883  1.2239  0.6789 -0.5452
40448SOL     OW24874   8.011   7.458   8.923  0.2523  0.0353  0.3726
40448SOL    HW124875   7.988   7.413   9.004 -2.5233 -0.9910 -0.8639
40448SOL    HW224876   7.945   7.527   8.914  0.8716  0.5207 -0.7296
40449SOL     OW24877   9.300   0.293   1.319 -0.1412  0.0683 -0.6297
40449SOL    HW124878   9.387   0.331   1.327 -0.0915 -0.3255  1.0067
40449SOL    HW224879   9.242   0.356   1.362 -0.7531  0.4893 -1.9838
40450SOL     OW24880   0.399   5.258  10.915 -0.6946 -0.4327  0.2888
40450SOL    HW124881   0.344   5.247  10.837 -1.3418 -1.0907  0.8220
40450SOL    HW224882   0.336   5.261  10.987 -0.1288  0.5555  0.7583
40451SOL     OW24883   9.104   1.536  11.065  0.4151 -0.0273 -0.2003
40451SOL    HW124884   9.139   1.616  11.026  0.3755  0.7240  1.2319
40451SOL    HW224885   9.182   1.482  11.081  0.4275 -0.3663 -1.3108
40452SOL     OW24886  10.877   7.085   7.446  0.1666 -0.3598  0.0414
40452SOL    HW124887  10.814   7.107   7.378  0.5319  0.2019 -0.1269
40452SOL    HW224888  10.847   7.134   7.523  2.4770  3.1189 -1.0368
40453SOL     OW24889   3.061   3.722   6.779 -0.8301  0.1133 -0.1727
40453SOL    HW124890   3.136   3.663   6.784 -1.2284 -0.3956 -0.1302
40453SOL    HW224891   3.092   3.796   6.726 -0.1015  0.2151  0.3810
40454SOL     OW24892   5.644   4.528   0.954 -0.4079  0.2157  0.0261
40454SOL    HW124893   5.618   4.440   0.980 -0.9052  0.3891  0.1389
40454SOL    HW224894   5.642   4.579   1.035 -0.3650  0.3875 -0.0799
40455SOL     OW24895   0.223   9.625   2.134  0.4315 -0.0251  0.3011
40455SOL    HW124896   0.135   9.590   2.147  0.8907 -2.1078 -1.6233
40455SOL    HW224897   0.259   9.573   2.062  2.9294  1.3626  0.4499
40456SOL     OW24898   6.879   9.172   4.660 -0.8029  0.1073 -0.5414
40456SOL    HW124899   6.818   9.156   4.731  1.4644 -0.8169  1.3437
40456SOL    HW224900   6.861   9.103   4.596 -1.0817 -0.7595  0.4454
40457SOL     OW24901   0.362   6.929   8.047  0.3041 -0.2765 -0.4170
40457SOL    HW124902   0.390   6.904   7.959 -0.7801 -1.0648 -0.5531
40457SOL    HW224903   0.269   6.905   8.051  1.0547 -3.5083  2.0583
40458SOL     OW24904   4.832  10.951   4.681  0.0898  0.3403 -0.4796
40458SOL    HW124905   4.737  10.956   4.694 -0.1425 -0.5590 -1.6001
40458SOL    HW224906   4.868  11.017   4.740 -1.3093  1.5589 -0.9152
40459SOL     OW24907   2.026   1.148   0.491 -0.8919  0.2189 -0.0345
40459SOL    HW124908   2.021   1.213   0.561  0.0869  0.0939  0.1661
40459SOL    HW224909   2.085   1.081   0.525 -0.3146  0.2145 -1.0200
40460SOL     OW24910   6.067   2.250   4.093 -0.1345  0.2351  0.6133
40460SOL    HW124911   6.022   2.204   4.164  0.0081 -0.6456  0.1487
40460SOL    HW224912   6.055   2.343   4.114 -2.4179  0.0573  0.3631
40461SOL     OW24913   9.700   7.517   9.666  0.0986 -0.3534 -0.2645
40461SOL    HW124914   9.699   7.450   9.598 -0.5571  1.1527 -1.8101
40461SOL    HW224915   9.723   7.598   9.620 -0.0038  0.6585  1.3761
40462SOL     OW24916   4.728  10.073   6.234 -0.4826  0.4417  0.6862
40462SOL    HW124917   4.663  10.005   6.215  0.3852 -0.9301  2.2835
40462SOL    HW224918   4.709  10.143   6.172 -1.3926 -1.2774 -1.0830
40463SOL     OW24919   6.277   2.267   7.459  0.2769 -0.1287  0.3082
40463SOL    HW124920   6.289   2.257   7.554 -1.6943 -2.3281  0.4088
40463SOL    HW224921   6.335   2.201   7.421 -1.8750 -2.0982  0.2483
40464SOL     OW24922   9.702   9.670  10.344 -0.5946  0.3445 -0.2106
40464SOL    HW124923   9.723   9.750  10.296 -0.5625  0.2162 -0.4111
40464SOL    HW224924   9.608   9.658  10.332 -0.4427 -0.1461 -0.9494
40465SOL     OW24925   2.611   1.058   9.973 -0.0226 -0.0947 -0.1488
40465SOL    HW124926   2.626   0.990  10.039  1.7883  0.6270  0.2461
40465SOL    HW224927   2.655   1.026   9.895  0.4000  0.3883 -0.1120
40466SOL     OW24928   4.437   0.001   6.470 -0.4814  0.3106 -0.0094
40466SOL    HW124929   4.438  -0.006   6.565  2.7450  1.2525  0.1192
40466SOL    HW224930   4.445  -0.089   6.439 -2.8066 -0.1378  0.4913
40467SOL     OW24931   3.389   1.115   2.636 -0.1777 -0.6892 -0.0402
40467SOL    HW124932   3.410   1.163   2.556  3.0824 -1.9178 -0.0913
40467SOL    HW224933   3.293   1.113   2.639 -0.4690  2.9701 -1.6314
40468SOL     OW24934   4.535   5.484   2.253 -0.5448  0.2274 -0.2746
40468SOL    HW124935   4.515   5.528   2.335  0.1979  1.6290 -0.8061
40468SOL    HW224936   4.629   5.465   2.259 -0.5482  0.0764 -0.6688
40469SOL     OW24937   8.739   1.046   1.431 -0.6683 -0.0206  0.5713
40469SOL    HW124938   8.664   1.007   1.476  0.4171 -3.1006 -0.0369
40469SOL    HW224939   8.727   1.023   1.339  1.1229 -0.8506  0.5061
40470SOL     OW24940   5.161   7.164   3.513 -0.0767 -0.1997 -0.3355
40470SOL    HW124941   5.188   7.237   3.458 -2.2531  0.9790  0.0634
40470SOL    HW224942   5.183   7.192   3.602 -0.9043 -0.0025 -0.1837
40471SOL     OW24943   5.077   7.526   7.161 -0.2416 -1.3826  0.1545
40471SOL    HW124944   5.011   7.494   7.100  1.8588 -0.9978 -2.5522
40471SOL    HW224945   5.156   7.537   7.107  1.6752 -0.5331  2.8853
40472SOL     OW24946   5.495   0.841  10.152 -0.0815  0.1400  0.1997
40472SOL    HW124947   5.482   0.747  10.142 -0.5415  0.2659 -0.4345
40472SOL    HW224948   5.529   0.869  10.067 -0.4979  0.6378  0.1939
40473SOL     OW24949   6.019  10.349   2.659  0.1831  0.3124 -0.1833
40473SOL    HW124950   6.078  10.282   2.691 -2.0648 -1.8448 -0.2467
40473SOL    HW224951   6.008  10.329   2.566 -0.0333  1.1892 -0.3632
40474SOL     OW24952   9.564   9.921   1.287 -0.1761 -0.5604  0.1642
40474SOL    HW124953   9.553   9.833   1.322 -0.4553 -0.2403  0.9068
40474SOL    HW224954   9.658   9.934   1.282 -0.1002 -0.3156  1.6298
40475SOL     OW24955   6.596   2.357   8.897 -0.3943 -0.1925  0.0721
40475SOL    HW124956   6.673   2.345   8.953 -0.8029 -1.4992  0.3898
40475SOL    HW224957   6.603   2.447   8.866  1.5632 -0.4548 -0.3599
40476SOL     OW24958   2.029   3.706   9.017 -0.0884 -0.3826 -0.8259
40476SOL    HW124959   2.001   3.697   9.108  1.6203 -1.3790 -0.3495
40476SOL    HW224960   1.957   3.670   8.966 -0.3731 -1.3772  0.2355
40477SOL     OW24961   4.653   2.598   6.213 -0.1728 -0.0173  0.4752
40477SOL    HW124962   4.572   2.570   6.170 -0.6823 -0.7677  1.8571
40477SOL    HW224963   4.689   2.518   6.252  2.0306  0.0062 -1.2800
40478SOL     OW24964   7.034  10.026  10.910  0.5640 -0.1618  0.1461
40478SOL    HW124965   7.007  10.007  11.000  1.2259  2.6994  1.0708
40478SOL    HW224966   7.095   9.956  10.888  1.2081 -0.3939  2.3648
40479SOL     OW24967   9.687   7.173   5.248  0.1463  0.0242 -0.3187
40479SOL    HW124968   9.607   7.122   5.234  1.6558 -2.2597 -1.3254
40479SOL    HW224969   9.717   7.147   5.335 -0.3663  1.1904  0.2311
40480SOL     OW24970   2.824   1.375   6.789 -0.2906 -0.4884 -0.5465
40480SOL    HW124971   2.806   1.437   6.860 -0.8420 -2.1194  0.8253
40480SOL    HW224972   2.909   1.401   6.755 -0.1338  0.5142  0.5376
40481SOL     OW24973   2.853   9.145   9.343 -0.7640  0.3156 -0.2798
40481SOL    HW124974   2.829   9.138   9.250 -0.9752  1.3025 -0.3049
40481SOL    HW224975   2.926   9.084   9.353  0.4396  1.4855 -1.5142
40482SOL     OW24976   5.307  10.449   0.783 -0.0144  0.3022  0.0184
40482SOL    HW124977   5.220  10.439   0.744 -0.7329  1.7174  1.1321
40482SOL    HW224978   5.294  10.431   0.876  1.2275 -0.9392 -0.0028
40483SOL     OW24979  10.673   2.119   3.867  0.1202 -0.5661  0.8091
40483SOL    HW124980  10.585   2.121   3.828  0.5153 -0.5778 -0.1196
40483SOL    HW224981  10.677   2.198   3.922 -0.4161 -0.4837  0.7370
40484SOL     OW24982  10.426   7.597   8.814 -0.3043 -0.1268 -0.6986
40484SOL    HW124983  10.418   7.630   8.904 -1.4188 -0.4061 -0.6900
40484SOL    HW224984  10.479   7.663   8.769  0.8511 -0.3154  0.3233
40485SOL     OW24985   7.683   3.770   9.748  0.1925 -0.8548 -0.1038
40485SOL    HW124986   7.707   3.838   9.685  1.1853 -0.1621  0.9747
40485SOL    HW224987   7.766   3.729   9.772 -0.1290 -0.9683  0.8744
40486SOL     OW24988   9.505   0.644   3.474  0.1948  0.3944 -0.6129
40486SOL    HW124989   9.579   0.641   3.535  1.2032  1.7735 -1.7123
40486SOL    HW224990   9.432   0.605   3.522  1.2796  0.3011  1.0059
40487SOL     OW24991   9.360   6.386   2.481 -0.4092  0.7232 -0.1596
40487SOL    HW124992   9.348   6.298   2.517  0.1301  0.5831 -0.3091
40487SOL    HW224993   9.301   6.389   2.406 -1.5400  1.0194  0.7160
40488SOL     OW24994   7.252   5.828   9.052  0.9281 -0.1325 -0.4896
40488SOL    HW124995   7.345   5.849   9.050  1.4790 -1.9568  1.7673
40488SOL    HW224996   7.248   5.733   9.050 -0.9515 -0.0805 -1.1925
40489SOL     OW24997   0.300   8.422   3.595  0.1220  0.2038  0.0444
40489SOL    HW124998   0.367   8.449   3.533  0.8284 -1.1384  0.1773
40489SOL    HW224999   0.328   8.335   3.624 -0.7972  0.3243  1.3771
40490SOL     OW25000   9.643   6.631   7.525  0.4261 -0.3975  0.0983
40490SOL    HW125001   9.636   6.721   7.493 -0.6388 -0.1957  0.8644
40490SOL    HW225002   9.630   6.577   7.447 -0.7772  0.1020 -0.0587
40491SOL     OW25003   6.991   0.822   4.861  0.0557 -0.1546  0.6233
40491SOL    HW125004   7.046   0.788   4.790  0.1108 -0.2902  0.7313
40491SOL    HW225005   6.977   0.914   4.838  0.4581 -0.0794  0.6768
40492SOL     OW25006   5.399   7.858   4.189  0.6105 -0.3354 -0.3905
40492SOL    HW125007   5.374   7.781   4.137 -1.6662  0.3859 -0.5077
40492SOL    HW225008   5.374   7.835   4.278 -1.2551  0.6437 -0.6015
40493SOL     OW25009   9.210   2.047   9.105 -0.2632  0.4739 -0.1565
40493SOL    HW125010   9.157   1.968   9.092 -1.6080  1.5006 -1.2783
40493SOL    HW225011   9.160   2.116   9.062  0.4644  2.1189  1.5138
40494SOL     OW25012  10.607   0.733   8.565 -0.1410 -0.2428 -0.3029
40494SOL    HW125013  10.694   0.693   8.561 -1.4202 -4.4997  4.4377
40494SOL    HW225014  10.602   0.771   8.653 -2.8890  0.3307 -0.6236
40495SOL     OW25015   6.704  10.760   0.589 -0.2457  0.6943 -0.0913
40495SOL    HW125016   6.675  10.784   0.677 -1.4788 -0.3869 -0.1690
40495SOL    HW225017   6.766  10.687   0.604 -2.9311 -1.7834 -0.1726
40496SOL     OW25018   1.665   3.445   4.497 -0.6464  0.2284  0.2582
40496SOL    HW125019   1.701   3.533   4.489 -1.4128  0.7529  2.0198
40496SOL    HW225020   1.604   3.437   4.424 -0.5375  1.1422  0.0614
40497SOL     OW25021   4.608  11.031   6.213 -0.8090 -0.4859  0.5927
40497SOL    HW125022   4.574  10.947   6.243  0.3291 -0.5299  1.9093
40497SOL    HW225023   4.685  11.008   6.160 -1.5911 -0.3281 -0.6249
40498SOL     OW25024   3.265   6.815   4.217  0.2387  0.2917 -0.2223
40498SOL    HW125025   3.342   6.873   4.222  0.1060  0.4651 -0.1799
40498SOL    HW225026   3.191   6.875   4.211  0.0624  0.1310  0.3357
40499SOL     OW25027   5.321   9.085   7.293  0.0099 -0.1112 -0.2240
40499SOL    HW125028   5.339   9.026   7.220  2.1754  0.2989 -0.0747
40499SOL    HW225029   5.327   9.173   7.255 -1.5280  0.0893 -0.0839
40500SOL     OW25030   2.391   8.970  10.294  0.3191  0.3255 -0.7271
40500SOL    HW125031   2.413   8.977  10.201 -0.2385 -1.5466 -1.0409
40500SOL    HW225032   2.321   8.904  10.297  1.4214 -0.8431  1.1427
40501SOL     OW25033   9.948   4.320   8.139 -0.6733 -0.7369  0.6308
40501SOL    HW125034   9.871   4.369   8.110 -0.9072 -0.6226  1.4232
40501SOL    HW225035  10.005   4.385   8.178 -0.0565 -0.7848 -0.1632
40502SOL     OW25036   7.917   1.747   2.454 -0.1150  0.5341 -0.7127
40502SOL    HW125037   7.914   1.837   2.485 -1.7847  0.5094 -0.7296
40502SOL    HW225038   8.010   1.723   2.458  0.4719  2.5250 -1.5825
40503SOL     OW25039   7.833   4.459   7.981  0.1282  0.2355  0.2490
40503SOL    HW125040   7.759   4.516   7.961  0.4853  0.6243  0.0134
40503SOL    HW225041   7.885   4.509   8.044 -0.1796 -0.3368  0.9676
40504SOL     OW25042   4.534   0.355   2.551  0.4090 -0.1634  0.3113
40504SOL    HW125043   4.531   0.291   2.480 -0.1675 -0.4065  0.5459
40504SOL    HW225044   4.445   0.391   2.553  0.7366  0.6837  0.1476
40505SOL     OW25045   7.061   7.961   0.981  0.0554 -0.4310 -0.1376
40505SOL    HW125046   7.042   7.968   0.888  0.3037  0.1022 -0.1499
40505SOL    HW225047   7.126   7.892   0.988  1.6161  0.9344 -0.5900
40506SOL     OW25048   8.864   9.319   5.400 -0.1119 -0.0647 -0.1211
40506SOL    HW125049   8.904   9.369   5.471 -0.0842  1.6010 -1.2635
40506SOL    HW225050   8.835   9.237   5.442  2.2749 -0.2962  1.2209
40507SOL     OW25051   0.726   1.320   3.115  0.1678  0.0294 -0.1314
40507SOL    HW125052   0.816   1.340   3.090  0.5502  1.0061  1.8037
40507SOL    HW225053   0.734   1.277   3.200 -1.1279 -1.6657 -0.7965
40508SOL     OW25054   9.576   8.423   5.074  0.3354 -0.1069 -0.1654
40508SOL    HW125055   9.662   8.457   5.050 -0.2456  0.9392 -0.8699
40508SOL    HW225056   9.592   8.331   5.096  1.5051 -0.1525 -1.0695
40509SOL     OW25057   5.436   8.955   2.580 -0.3534  0.0795  0.1088
40509SOL    HW125058   5.485   8.996   2.508  0.6475  0.9697  1.2529
40509SOL    HW225059   5.498   8.893   2.619 -0.6372  0.1239  0.6461
40510SOL     OW25060   3.174   9.348   9.916 -0.3638 -0.7614  0.3041
40510SOL    HW125061   3.100   9.314   9.966  0.3723 -2.5529  0.2145
40510SOL    HW225062   3.137   9.373   9.832 -1.3382  0.9410  1.1656
40511SOL     OW25063   8.590   3.256   6.093  0.1265 -0.4277  0.1163
40511SOL    HW125064   8.610   3.164   6.074  1.8804 -0.5598  2.1826
40511SOL    HW225065   8.570   3.257   6.187  0.4686  1.3308  0.1974
40512SOL     OW25066   9.630   7.290   5.705  0.2939 -0.6019 -0.2993
40512SOL    HW125067   9.683   7.364   5.734 -0.3739  0.4916 -1.7213
40512SOL    HW225068   9.667   7.266   5.620 -0.3976 -0.9351 -0.5116
40513SOL     OW25069   1.493  10.094   4.400 -0.3894 -0.2049  0.0258
40513SOL    HW125070   1.481  10.188   4.418  0.1978 -0.3214  1.1321
40513SOL    HW225071   1.437  10.050   4.464 -0.1836 -0.6111 -0.0696
40514SOL     OW25072  10.087   7.692   0.152  0.2564  0.1160 -0.9204
40514SOL    HW125073  10.107   7.674   0.060  3.4027 -0.2173 -0.2802
40514SOL    HW225074  10.085   7.606   0.194 -0.8029  0.2921 -0.5789
40515SOL     OW25075   1.202   6.810   9.589  0.0548  0.3676  0.4643
40515SOL    HW125076   1.169   6.722   9.608  0.3425  0.3291  0.8003
40515SOL    HW225077   1.296   6.797   9.574 -0.0015  0.5379 -0.0604
40516SOL     OW25078   6.660   6.531   6.136  0.1958 -0.1347 -0.6479
40516SOL    HW125079   6.599   6.591   6.180  2.1031  0.9536  0.6561
40516SOL    HW225080   6.657   6.451   6.187  0.2089  0.0894 -0.2935
40517SOL     OW25081  10.621   8.867   7.773 -0.0842 -0.0650 -0.5176
40517SOL    HW125082  10.613   8.868   7.677  0.2986 -2.5128 -0.6300
40517SOL    HW225083  10.531   8.858   7.805  0.0116 -2.8046 -0.8356
40518SOL     OW25084   3.173   5.670   5.974 -0.2086 -0.5877 -0.9620
40518SOL    HW125085   3.180   5.764   5.991 -2.3936 -0.8512  2.2053
40518SOL    HW225086   3.090   5.660   5.927 -0.5073 -0.9739 -0.3722
40519SOL     OW25087  10.697   5.034   0.207  0.5707  0.0396  0.0520
40519SOL    HW125088  10.647   5.107   0.172  1.4849  0.0910 -1.2049
40519SOL    HW225089  10.660   5.019   0.294  0.7442  2.3816  0.5922
40520SOL     OW25090   5.054   2.216   9.144 -0.0990  0.3285  0.2374
40520SOL    HW125091   5.033   2.128   9.112 -0.5789  0.2738  0.6804
40520SOL    HW225092   5.084   2.202   9.234  0.0731  0.5930  0.2218
40521SOL     OW25093  11.054   2.459   1.064  0.4204 -0.2083 -0.7349
40521SOL    HW125094  11.125   2.401   1.035  2.1100  0.7474  1.2544
40521SOL    HW225095  11.052   2.448   1.159  1.3701  3.5280 -0.1546
40522SOL     OW25096   0.286   7.534   0.436  0.2614 -0.3848  0.3047
40522SOL    HW125097   0.219   7.478   0.476  0.2386 -0.7293 -0.2075
40522SOL    HW225098   0.246   7.565   0.355  0.8876 -0.9777 -0.2488
40523SOL     OW25099   7.454   6.219   2.641 -0.1141 -0.1952 -0.0939
40523SOL    HW125100   7.521   6.171   2.689 -0.2888  0.7499  1.1650
40523SOL    HW225101   7.371   6.184   2.674 -0.2358 -0.2656 -0.4766
40524SOL     OW25102   6.460  10.093   3.193  0.3144 -0.0624 -0.3558
40524SOL    HW125103   6.515  10.016   3.179  0.2056  0.0168 -1.2611
40524SOL    HW225104   6.488  10.155   3.126 -0.3895  0.2521 -0.3635
40525SOL     OW25105   1.751   4.402   8.541 -0.3200 -0.0258 -0.0546
40525SOL    HW125106   1.805   4.449   8.476  1.8512  0.7211  2.1270
40525SOL    HW225107   1.677   4.461   8.557 -1.5122 -0.6894 -2.4906
40526SOL     OW25108   1.339   7.494   7.286  0.0340  0.0089  1.2043
40526SOL    HW125109   1.344   7.502   7.381 -3.2956  0.1638  1.4515
40526SOL    HW225110   1.276   7.425   7.270  0.6743 -0.1604 -0.9399
40527SOL     OW25111   2.117   0.624   8.569 -0.3273  0.1113 -0.2859
40527SOL    HW125112   2.120   0.631   8.664  1.8787 -0.3352 -0.2657
40527SOL    HW225113   2.040   0.675   8.543 -1.2079 -0.0901  1.7319
40528SOL     OW25114   2.163   7.049   3.522 -0.8161 -0.1328 -0.0591
40528SOL    HW125115   2.104   6.989   3.569  0.4615 -0.3584  1.3289
40528SOL    HW225116   2.137   7.136   3.553 -1.0386 -0.1582 -0.1710
40529SOL     OW25117   2.003   7.729   2.410 -0.0212  0.5532  0.8918
40529SOL    HW125118   2.077   7.668   2.404 -0.2211 -0.0136  3.1652
40529SOL    HW225119   2.042   7.815   2.393  0.4605 -0.0643 -1.3328
40530SOL     OW25120   0.908   3.505   7.735 -0.0490 -0.1630 -0.1616
40530SOL    HW125121   0.948   3.583   7.774 -0.4605  0.0137 -0.0971
40530SOL    HW225122   0.943   3.502   7.646  0.3377 -0.1702 -0.0111
40531SOL     OW25123   4.173   0.325   0.115 -0.0584 -0.1743 -0.2323
40531SOL    HW125124   4.195   0.399   0.058 -0.2930 -0.7321 -1.0655
40531SOL    HW225125   4.085   0.345   0.147 -0.2753 -0.2641 -0.7579
40532SOL     OW25126   9.600  10.288   9.847 -0.4584 -0.2456 -0.9926
40532SOL    HW125127   9.603  10.265   9.940 -0.1246  0.3451 -0.8552
40532SOL    HW225128   9.596  10.204   9.802  0.1583 -0.5617 -0.4732
40533SOL     OW25129   7.392  10.921   6.909 -0.2668 -0.2346  0.3282
40533SOL    HW125130   7.386  10.880   6.822  1.2123 -0.8474  0.4888
40533SOL    HW225131   7.486  10.927   6.926 -0.4913  1.4083  1.1868
40534SOL     OW25132   4.855   1.567   3.872 -0.2290 -0.7198  0.1250
40534SOL    HW125133   4.950   1.568   3.860 -0.1398 -2.0846  0.5701
40534SOL    HW225134   4.820   1.545   3.786 -0.2731  1.5608 -0.4974
40535SOL     OW25135  11.072   2.018   8.100  0.0210 -0.1043 -0.4589
40535SOL    HW125136  11.031   1.948   8.049 -0.4273  1.8052 -2.8861
40535SOL    HW225137  11.010   2.035   8.172  0.0529 -2.0018  0.0667
40536SOL     OW25138   1.791   2.976   9.089  0.5141 -0.2301 -0.1889
40536SOL    HW125139   1.882   2.971   9.059  0.5522 -2.0120  0.1033
40536SOL    HW225140   1.798   2.994   9.183  0.4813  1.6002 -0.4995
40537SOL     OW25141   0.476   6.457   6.591  0.1307  0.2101  0.5591
40537SOL    HW125142   0.397   6.402   6.590  0.1857  0.1333 -0.3986
40537SOL    HW225143   0.531   6.421   6.521  0.7412  0.6645  0.7982
40538SOL     OW25144   9.058  10.208   2.998 -0.3902 -0.2067  0.0302
40538SOL    HW125145   9.134  10.267   3.000 -0.1498 -0.5209  0.1594
40538SOL    HW225146   9.088  10.132   2.949 -0.2658 -0.8180  1.0249
40539SOL     OW25147   0.882   2.643   6.968  0.3588 -0.2082 -0.0745
40539SOL    HW125148   0.805   2.591   6.943  2.5098 -2.8671 -1.7441
40539SOL    HW225149   0.957   2.588   6.944  2.8274  2.3655  1.1723
40540SOL     OW25150   3.425   8.112   1.969  0.1562 -0.2212  0.3702
40540SOL    HW125151   3.428   8.065   2.053 -0.7945  0.6513  0.9212
40540SOL    HW225152   3.448   8.202   1.992 -1.7897  0.4116  0.0168
40541SOL     OW25153   4.527   2.553  11.066  0.6337 -0.3731  0.6646
40541SOL    HW125154   4.474   2.626  11.100 -0.1371 -1.3567  1.6704
40541SOL    HW225155   4.471   2.511  11.001  0.0220 -1.5936  1.9421
40542SOL     OW25156   8.907   5.135   9.980  0.0430 -0.0677 -0.3336
40542SOL    HW125157   8.949   5.054   9.952 -0.5291  0.0181 -1.4914
40542SOL    HW225158   8.972   5.177  10.036  0.1007 -1.6227  0.8390
40543SOL     OW25159   5.490   3.393   3.778 -0.2428  0.4281  0.0929
40543SOL    HW125160   5.400   3.425   3.768 -0.0053  0.9019 -0.5977
40543SOL    HW225161   5.482   3.298   3.772 -0.5188  0.5205 -1.7593
40544SOL     OW25162   4.428   8.998   0.131 -0.7246  0.4199  0.6542
40544SOL    HW125163   4.418   9.009   0.036 -1.8652  1.1321  0.8365
40544SOL    HW225164   4.492   9.064   0.157  2.6639 -2.2958 -0.1237
40545SOL     OW25165   9.369   7.250   3.016  0.1520  0.3303 -0.8647
40545SOL    HW125166   9.286   7.211   2.988  0.3681  0.6836 -2.0796
40545SOL    HW225167   9.350   7.343   3.025  0.7475  0.6642 -2.6618
40546SOL     OW25168   3.128   4.631   3.209 -0.1720 -0.5646  0.9300
40546SOL    HW125169   3.188   4.703   3.193 -0.5647 -0.7713 -1.9566
40546SOL    HW225170   3.102   4.641   3.301  1.6854  1.4569  1.3022
40547SOL     OW25171   1.665   3.344   6.099  0.4785 -0.4338  0.0334
40547SOL    HW125172   1.610   3.406   6.147 -0.7841 -2.2106  1.0293
40547SOL    HW225173   1.629   3.344   6.011  0.7034  0.4710 -0.0666
40548SOL     OW25174  11.081   5.192   2.281 -0.4132  0.1008 -0.5300
40548SOL    HW125175  11.162   5.141   2.273 -0.7485 -0.0694 -4.3712
40548SOL    HW225176  11.110   5.283   2.278 -0.1928  0.1681  1.6989
40549SOL     OW25177   3.002   7.577   0.073 -0.3244 -0.4061  0.2880
40549SOL    HW125178   2.973   7.489   0.051 -0.9363 -0.3581  0.8615
40549SOL    HW225179   2.929   7.634   0.048  0.6122  0.1150 -1.4042
40550SOL     OW25180   2.420   1.770   5.621  0.1036 -0.2072 -0.1895
40550SOL    HW125181   2.398   1.691   5.670 -0.6803 -0.3035 -0.6887
40550SOL    HW225182   2.511   1.788   5.644  0.7269 -2.0038 -1.0950
40551SOL     OW25183   8.605   1.756   2.149  0.1056  0.0285 -0.6342
40551SOL    HW125184   8.510   1.753   2.160 -0.0339 -0.6918 -1.8600
40551SOL    HW225185   8.639   1.685   2.203 -0.1244 -0.2183 -0.8153
40552SOL     OW25186   9.004   5.350   5.703  0.4152  0.0274 -0.7297
40552SOL    HW125187   9.064   5.276   5.704 -0.1031 -0.4009  0.1512
40552SOL    HW225188   9.030   5.403   5.778 -0.8221 -0.6121  0.1873
40553SOL     OW25189   7.414   4.733  10.790 -0.1199 -0.2607 -0.1320
40553SOL    HW125190   7.479   4.777  10.736 -0.0376  1.4516  1.2742
40553SOL    HW225191   7.348   4.801  10.809 -0.7989 -1.1581  0.8487
40554SOL     OW25192   7.180   5.728   5.814  0.3474  0.5259  0.0275
40554SOL    HW125193   7.166   5.710   5.907  1.0949 -2.3851 -0.3334
40554SOL    HW225194   7.252   5.671   5.788  1.3994  2.5914 -1.9823
40555SOL     OW25195   0.576  10.773   9.741 -0.2631  0.1259  0.4932
40555SOL    HW125196   0.652  10.830   9.727 -0.2873 -0.2165 -1.2010
40555SOL    HW225197   0.611  10.684   9.732 -0.8532 -0.0334 -0.3241
40556SOL     OW25198   9.639   7.906   1.128 -0.3615  0.2823 -0.3873
40556SOL    HW125199   9.665   7.825   1.173  0.4954  0.6526 -0.1901
40556SOL    HW225200   9.570   7.879   1.068  0.3499 -0.7161 -0.7795
40557SOL     OW25201   1.977   4.797   9.582 -0.6742 -0.1517  0.2469
40557SOL    HW125202   2.059   4.840   9.562 -0.8368 -0.6581 -1.6862
40557SOL    HW225203   1.923   4.865   9.623  0.6967  0.1544  1.6195
40558SOL     OW25204   0.125   8.485   3.118  0.1913  0.5457 -0.2433
40558SOL    HW125205   0.214   8.460   3.141  0.8393  2.1477 -0.8170
40558SOL    HW225206   0.111   8.567   3.165 -1.2021  0.0264  0.2817
40559SOL     OW25207   2.627   4.767   6.318  0.0615  0.2400  0.5018
40559SOL    HW125208   2.634   4.695   6.255  2.4826 -0.7790  1.8037
40559SOL    HW225209   2.562   4.737   6.381 -1.4933  0.7572 -0.7772
40560SOL     OW25210   3.115   1.288   8.533 -0.0545  0.0831  0.2858
40560SOL    HW125211   3.172   1.362   8.551 -0.4901  0.7243 -0.8560
40560SOL    HW225212   3.026   1.322   8.544 -0.2507 -0.5731  0.8319
40561SOL     OW25213   9.451   9.540  10.418 -0.1243 -0.1102  0.6951
40561SOL    HW125214   9.377   9.599  10.409 -0.9033 -1.1626 -0.0536
40561SOL    HW225215   9.435   9.471  10.353  1.0282 -0.8502  1.1646
40562SOL     OW25216  10.033   7.776   6.616 -0.4338  0.2935 -0.1488
40562SOL    HW125217  10.122   7.756   6.644 -0.6821  0.5812  0.8920
40562SOL    HW225218  10.042   7.803   6.525  0.4651 -0.2427 -0.2325
40563SOL     OW25219   0.642  11.026   3.197  0.2271 -0.1302 -0.3087
40563SOL    HW125220   0.721  11.059   3.239 -0.1015  0.1786  0.0634
40563SOL    HW225221   0.571  11.046   3.258 -0.4772  1.6498 -1.6162
40564SOL     OW25222   1.839   9.021   1.303 -0.1874  0.3141  0.2797
40564SOL    HW125223   1.869   9.008   1.213  2.9944  2.0501  0.9676
40564SOL    HW225224   1.873   8.945   1.351  3.1033  2.0746  0.9759
40565SOL     OW25225   8.042   7.980   9.380 -0.6632  0.4963 -0.2556
40565SOL    HW125226   8.050   7.895   9.422 -0.8026  0.2423 -0.7312
40565SOL    HW225227   8.075   8.042   9.445  0.7770 -0.0560 -0.4268
40566SOL     OW25228   2.842   2.274   8.135  0.3957 -0.0105 -0.0550
40566SOL    HW125229   2.898   2.346   8.162  0.7752 -0.5151  0.5389
40566SOL    HW225230   2.903   2.209   8.100  0.1817 -0.5118  0.4852
40567SOL     OW25231   9.056   4.461   7.966  0.0188 -0.4139 -0.2401
40567SOL    HW125232   8.981   4.403   7.981 -0.0047 -0.2672  0.2252
40567SOL    HW225233   9.116   4.441   8.038 -0.0563  0.2456  0.0098
40568SOL     OW25234   0.654   4.422   7.680  0.2032  0.2704 -0.1350
40568SOL    HW125235   0.601   4.344   7.692 -1.2513  1.3046  0.5072
40568SOL    HW225236   0.728   4.410   7.739 -0.0209 -0.6014 -0.0187
40569SOL     OW25237   1.515   2.749   5.196  0.4458 -0.0915  0.2028
40569SOL    HW125238   1.499   2.661   5.160  1.1370 -0.3017  0.3822
40569SOL    HW225239   1.602   2.742   5.236  0.8781  0.9087 -0.5181
40570SOL     OW25240   6.944   8.018   8.717  0.5179 -0.4273  0.1471
40570SOL    HW125241   6.872   7.959   8.698  0.3311  0.2866 -1.6105
40570SOL    HW225242   7.022   7.963   8.714  0.2212 -0.8436 -0.0266
40571SOL     OW25243   6.022   2.093   4.925  0.5545  0.1837 -0.1895
40571SOL    HW125244   6.053   2.035   4.856  1.5533  1.4436 -0.8459
40571SOL    HW225245   6.076   2.172   4.917  2.0847 -0.3251  3.2828
40572SOL     OW25246   9.611   0.856   4.160 -0.0211  0.3602  0.3830
40572SOL    HW125247   9.650   0.840   4.246  2.0396  1.8198 -0.2004
40572SOL    HW225248   9.525   0.893   4.179 -0.1311 -0.5432  1.7738
40573SOL     OW25249   1.292   7.711  10.569  0.1019 -0.0367  0.0575
40573SOL    HW125250   1.246   7.714  10.485  0.4705  0.9210 -0.1224
40573SOL    HW225251   1.260   7.788  10.616 -0.8705 -1.1140  1.2277
40574SOL     OW25252   8.602   9.925   9.160 -0.1709 -0.3883 -0.4637
40574SOL    HW125253   8.696   9.940   9.150  0.0388 -0.4578  1.1403
40574SOL    HW225254   8.593   9.832   9.179 -0.1725  0.1156  2.6532
40575SOL     OW25255   4.300   7.556   2.986 -0.3578  0.0045 -0.5283
40575SOL    HW125256   4.284   7.500   2.910 -2.2946 -0.0064 -0.1555
40575SOL    HW225257   4.379   7.520   3.026 -0.4752 -1.2619 -1.3791
40576SOL     OW25258   8.211   8.562   1.217 -0.4329  0.0759 -0.1370
40576SOL    HW125259   8.250   8.598   1.138 -2.2960  2.3918 -0.1089
40576SOL    HW225260   8.199   8.637   1.275 -0.5182 -1.3170  1.7711
40577SOL     OW25261   2.290  11.057   6.153 -0.2423  0.2727  0.2542
40577SOL    HW125262   2.311  11.142   6.193  1.0435 -0.4286  1.1631
40577SOL    HW225263   2.272  11.078   6.061 -2.2058  1.7984  0.9099
40578SOL     OW25264   7.202   0.527   3.019 -0.6192  0.5131  0.2711
40578SOL    HW125265   7.264   0.500   3.086 -1.1210 -0.2198  0.4537
40578SOL    HW225266   7.173   0.614   3.047 -1.0767  0.0778  1.2056
40579SOL     OW25267   1.624   4.535   7.136 -0.8342  0.0376  0.3353
40579SOL    HW125268   1.605   4.516   7.044 -2.5713 -0.2852  0.7152
40579SOL    HW225269   1.676   4.460   7.165 -0.2263  0.1694 -0.3981
40580SOL     OW25270   1.486  10.606   7.229 -0.2289 -0.2500  0.3192
40580SOL    HW125271   1.529  10.540   7.283 -0.0369 -0.2411  0.1795
40580SOL    HW225272   1.500  10.688   7.276  0.0962 -0.2153  0.1647
40581SOL     OW25273   2.909   6.668   7.311  0.4748  0.4157  0.0096
40581SOL    HW125274   2.923   6.752   7.354 -1.4309  1.0433 -0.4758
40581SOL    HW225275   2.893   6.607   7.383 -1.9604  1.3122  0.3392
40582SOL     OW25276   1.867   4.665   3.151 -0.1616  0.1214  0.2415
40582SOL    HW125277   1.940   4.676   3.212 -1.0638  1.2999  1.1683
40582SOL    HW225278   1.908   4.657   3.065  1.0745  0.0731  0.8186
40583SOL     OW25279   9.252   5.053   3.030  0.2065 -0.1764  0.0579
40583SOL    HW125280   9.183   5.115   3.051 -0.1180  0.7595 -3.2076
40583SOL    HW225281   9.239   4.981   3.092 -2.4961  0.7914  0.7642
40584SOL     OW25282   7.223  10.791   8.696 -0.4012  0.0698 -0.0093
40584SOL    HW125283   7.201  10.876   8.658  0.3447  0.4550  0.4055
40584SOL    HW225284   7.205  10.728   8.625 -4.0262  0.1448  0.6537
40585SOL     OW25285   6.531   2.805   3.822  0.0757  0.7517  0.4467
40585SOL    HW125286   6.583   2.763   3.891 -1.0135 -0.8225  0.3569
40585SOL    HW225287   6.596   2.831   3.756  1.1280  2.1745  1.9453
40586SOL     OW25288  10.855   0.563   8.835  0.5683  0.1045  0.0611
40586SOL    HW125289  10.806   0.501   8.782  0.5590 -0.4386  0.6777
40586SOL    HW225290  10.788   0.616   8.879  0.5138 -0.4953  0.7372
40587SOL     OW25291   5.368   6.298   9.114  0.0539 -0.2428 -0.2295
40587SOL    HW125292   5.413   6.369   9.067 -0.5766 -0.2752 -0.9059
40587SOL    HW225293   5.437   6.252   9.160  0.8336 -0.7358 -1.8315
40588SOL     OW25294  10.887   7.394   7.873  0.3068  0.3512  0.5492
40588SOL    HW125295  10.936   7.455   7.818  0.2063 -1.3740 -1.5782
40588SOL    HW225296  10.946   7.320   7.885 -1.1024 -1.0481 -0.6941
40589SOL     OW25297   8.272   7.324   1.488  0.0950 -0.1778 -0.1581
40589SOL    HW125298   8.237   7.282   1.410 -1.4345 -0.9675  0.8849
40589SOL    HW225299   8.267   7.256   1.556  0.5088  0.7470  0.8392
40590SOL     OW25300   1.675   1.819   4.939  0.0437  0.0897 -0.1982
40590SOL    HW125301   1.682   1.824   5.035 -0.6214  0.7230 -0.1699
40590SOL    HW225302   1.751   1.867   4.907 -0.8000  1.6622  0.0453
40591SOL     OW25303   9.236   4.579   6.059 -0.7956 -0.3564  0.1517
40591SOL    HW125304   9.293   4.640   6.106 -2.1603 -0.9678  2.7807
40591SOL    HW225305   9.288   4.499   6.050 -0.6019 -0.3082  0.8469
40592SOL     OW25306   5.174   6.596   7.960 -0.1748 -0.0859 -0.9932
40592SOL    HW125307   5.251   6.618   7.908  1.7246 -0.5190  1.4469
40592SOL    HW225308   5.112   6.666   7.942  0.7223  0.2309 -3.1142
40593SOL     OW25309   0.171   5.595   6.161  0.4533 -0.3506  0.1162
40593SOL    HW125310   0.151   5.501   6.157  0.5627 -0.3386 -0.9695
40593SOL    HW225311   0.135   5.631   6.080 -0.6519  0.7695  1.0728
40594SOL     OW25312   0.847   5.216  10.407 -0.6721 -0.0850  0.5657
40594SOL    HW125313   0.777   5.273  10.439 -1.0906  0.5441 -1.3561
40594SOL    HW225314   0.807   5.165  10.337 -0.0870 -2.2253  1.6966
40595SOL     OW25315   2.202   6.406   4.933  0.5204  0.4429 -0.1500
40595SOL    HW125316   2.159   6.453   5.004  0.7371  1.6302 -0.7779
40595SOL    HW225317   2.293   6.398   4.961  0.8695  1.9465 -0.7707
40596SOL     OW25318   7.698  10.512   5.253  0.5000  0.7173  0.4442
40596SOL    HW125319   7.608  10.543   5.246  0.4351  0.6033  0.7700
40596SOL    HW225320   7.751  10.592   5.256  0.4648  0.7850 -0.3790
40597SOL     OW25321   4.418   7.302  10.765 -0.2312  0.5976  0.9611
40597SOL    HW125322   4.426   7.347  10.681 -2.1770  0.8883  0.8889
40597SOL    HW225323   4.357   7.230  10.749 -0.3241  0.4183  2.0337
40598SOL     OW25324  11.095   2.363   9.287 -0.6588 -0.3779 -0.2749
40598SOL    HW125325  11.079   2.443   9.237 -0.5783  0.0407  0.3638
40598SOL    HW225326  11.143   2.306   9.226  1.2803  0.9010 -0.0201
40599SOL     OW25327   4.878   9.937   8.425 -0.2029  0.1045 -0.5017
40599SOL    HW125328   4.904   9.943   8.517 -0.0297 -1.9279 -0.3627
40599SOL    HW225329   4.955   9.965   8.376 -0.2648  1.1042 -0.0503
40600SOL     OW25330   0.070   6.853   7.217 -0.3920 -0.0523 -0.0452
40600SOL    HW125331  -0.002   6.880   7.160  0.3361  1.7163 -0.1967
40600SOL    HW225332   0.148   6.857   7.161  0.3740  1.9376  1.0453
40601SOL     OW25333   3.608   3.921   4.940  0.2421  0.1254  0.1052
40601SOL    HW125334   3.560   3.981   4.997 -0.6110 -0.1916 -0.2630
40601SOL    HW225335   3.623   3.971   4.860 -0.3127 -0.0857 -0.1348
40602SOL     OW25336  10.033   0.827   8.573 -0.0369 -0.5025 -0.2086
40602SOL    HW125337   9.959   0.818   8.633 -0.3882  1.6078 -0.2669
40602SOL    HW225338  10.086   0.897   8.611  0.5423 -0.1980 -1.5355
40603SOL     OW25339   5.393   0.403   0.454 -0.4749  0.4215  0.1126
40603SOL    HW125340   5.471   0.409   0.508 -0.8083  2.4129  0.4791
40603SOL    HW225341   5.425   0.379   0.367  0.4324  0.3610  0.4531
40604SOL     OW25342   2.008   8.927   1.065  0.1102 -0.3707 -0.0814
40604SOL    HW125343   1.985   8.838   1.093 -0.2082 -0.3362 -0.2217
40604SOL    HW225344   2.090   8.917   1.018 -0.9805 -0.9464 -2.0013
40605SOL     OW25345   8.903   3.667   3.412 -0.1227 -0.0969  0.0482
40605SOL    HW125346   8.909   3.687   3.319  1.4200 -3.9145 -0.8544
40605SOL    HW225347   8.991   3.641   3.438 -0.9065 -1.0883  2.0315
40606SOL     OW25348   0.823   4.869   9.894  0.4256 -0.1082 -0.6815
40606SOL    HW125349   0.851   4.961   9.890 -1.4100  0.5762  0.4871
40606SOL    HW225350   0.736   4.869   9.853  0.0759 -1.1638  0.0214
40607SOL     OW25351   3.174   2.759   0.951  0.0736  0.5118 -0.7383
40607SOL    HW125352   3.108   2.777   0.884  1.3748  0.5348 -2.0848
40607SOL    HW225353   3.236   2.700   0.907 -0.1311 -1.2033  1.1459
40608SOL     OW25354   5.729   0.756   8.865  0.2696  0.2232  0.5860
40608SOL    HW125355   5.633   0.753   8.861  0.3269 -1.3144 -1.6860
40608SOL    HW225356   5.752   0.699   8.938 -0.5470  0.4230  1.0083
40609SOL     OW25357   1.891   6.211  10.279 -0.5471 -0.1956 -0.0864
40609SOL    HW125358   1.900   6.295  10.324  1.4644 -0.7696  0.6725
40609SOL    HW225359   1.961   6.211  10.214 -0.1343 -1.5330  0.3363
40610SOL     OW25360   6.629   3.301   5.707  0.3401 -0.0337  0.2537
40610SOL    HW125361   6.628   3.207   5.689  1.6753 -0.4075  1.9127
40610SOL    HW225362   6.538   3.330   5.692  0.0290 -1.4616 -0.7740
40611SOL     OW25363   7.174   9.817   3.036 -0.6959 -0.3839  0.2273
40611SOL    HW125364   7.151   9.767   3.115  0.6021 -0.2444  0.7102
40611SOL    HW225365   7.175   9.908   3.064  1.2478 -0.4487  0.4402
40612SOL     OW25366   6.032   0.434   3.108  0.2636  0.1200 -0.0586
40612SOL    HW125367   5.983   0.480   3.040 -0.1589  0.0202  0.1792
40612SOL    HW225368   6.078   0.364   3.062 -0.7526 -0.5249 -0.1070
40613SOL     OW25369   8.321   2.178   5.769 -0.3176  0.0580  0.1916
40613SOL    HW125370   8.265   2.107   5.738 -0.4026 -0.1450  0.8048
40613SOL    HW225371   8.399   2.134   5.803  0.4407  0.3642 -1.0940
40614SOL     OW25372   4.678   8.397   7.504  0.3203  0.0915  0.3859
40614SOL    HW125373   4.619   8.387   7.429  1.4469 -2.1636 -0.2896
40614SOL    HW225374   4.623   8.377   7.580 -0.1630 -0.5667 -0.1172
40615SOL     OW25375   4.797  10.722  10.212  0.4237 -0.6427 -0.0884
40615SOL    HW125376   4.809  10.810  10.248 -0.9202 -1.4094  2.4748
40615SOL    HW225377   4.885  10.684  10.213  0.8285  0.2647 -0.0629
40616SOL     OW25378   1.093   3.180   7.860 -0.3303  0.7655 -0.2504
40616SOL    HW125379   1.158   3.228   7.911 -1.5865  1.3176  0.9029
40616SOL    HW225380   1.094   3.222   7.774  1.1457  0.4482 -0.4048
40617SOL     OW25381   5.624   6.279   8.335 -0.7085 -0.1889  0.0532
40617SOL    HW125382   5.536   6.245   8.319 -1.2188 -0.3175  2.7762
40617SOL    HW225383   5.624   6.306   8.427  1.6037  1.3892 -0.3129
40618SOL     OW25384   0.761   2.793   3.258 -0.1908  0.3084 -0.2599
40618SOL    HW125385   0.782   2.801   3.351  2.3879 -0.0419 -0.7325
40618SOL    HW225386   0.675   2.834   3.249 -0.1022  1.1585  2.1161
40619SOL     OW25387   0.924   9.183   5.886 -0.6196 -0.1941 -0.9365
40619SOL    HW125388   0.917   9.088   5.896 -2.8563 -0.0136 -0.2643
40619SOL    HW225389   0.865   9.203   5.813  1.5390  0.4855 -2.5789
40620SOL     OW25390   1.438   6.253   6.134 -0.0624 -0.7012 -0.0577
40620SOL    HW125391   1.470   6.327   6.184  3.7942 -1.4005 -1.1767
40620SOL    HW225392   1.417   6.186   6.200  0.5057 -0.0604  0.7851
40621SOL     OW25393   4.823   1.648   4.137 -0.0886 -0.4151 -0.2610
40621SOL    HW125394   4.844   1.610   4.052  1.0501  0.0924 -0.2166
40621SOL    HW225395   4.834   1.742   4.126  2.6370 -0.4642  1.0687
40622SOL     OW25396  10.944   8.729   8.078 -0.4407  0.2261  0.3400
40622SOL    HW125397  10.870   8.772   8.122  0.2744  1.5223  0.3119
40622SOL    HW225398  10.983   8.673   8.145 -0.2470  1.0697  0.9430
40623SOL     OW25399  10.353   2.798   1.437 -0.0698 -0.0341  0.4306
40623SOL    HW125400  10.311   2.729   1.385 -0.7793  0.7717 -0.0861
40623SOL    HW225401  10.384   2.861   1.372 -0.7788  0.8814  0.9559
40624SOL     OW25402   4.417   8.728   8.754  0.3613 -0.3306 -0.5520
40624SOL    HW125403   4.397   8.677   8.675  0.7565 -1.1036 -0.1593
40624SOL    HW225404   4.508   8.706   8.775  0.4797  0.4040 -0.2731
40625SOL     OW25405   2.797  10.878   4.558 -0.5949 -0.2661  0.8937
40625SOL    HW125406   2.836  10.829   4.631  1.5983 -0.4787 -0.3223
40625SOL    HW225407   2.781  10.812   4.491  0.1040  0.3038  0.1448
40626SOL     OW25408   2.403   2.516   1.338  0.6516 -0.7317  0.3839
40626SOL    HW125409   2.396   2.443   1.277  1.6459 -1.7969  1.4953
40626SOL    HW225410   2.381   2.593   1.285  1.2415 -1.6352 -1.2667
40627SOL     OW25411   1.599  10.947   3.484 -0.4237 -0.2009  0.7417
40627SOL    HW125412   1.685  10.914   3.460 -0.2040  0.3766  0.7403
40627SOL    HW225413   1.559  10.875   3.535  0.9828  0.4301  2.8642
40628SOL     OW25414   3.516  10.256   2.636 -0.5698 -0.0984  0.2877
40628SOL    HW125415   3.451  10.288   2.698 -0.4198 -0.5430  0.6914
40628SOL    HW225416   3.599  10.261   2.685 -0.6058 -1.5201  0.5489
40629SOL     OW25417   8.828   8.912  10.312  0.3860  0.4340 -0.4375
40629SOL    HW125418   8.897   8.966  10.273  2.3788 -1.4188  0.3095
40629SOL    HW225419   8.866   8.880  10.394 -0.9283 -1.5146 -0.5262
40630SOL     OW25420   4.173   2.255   5.242  0.0462 -0.2859 -0.7795
40630SOL    HW125421   4.088   2.233   5.279  0.1799 -0.8618 -0.8077
40630SOL    HW225422   4.159   2.339   5.198 -0.3967 -0.1656 -0.4228
40631SOL     OW25423   1.175   9.814   1.240  0.0012  0.8754  0.3599
40631SOL    HW125424   1.156   9.903   1.268  0.8863  1.1936  0.0058
40631SOL    HW225425   1.123   9.801   1.160 -0.6868  0.8082  0.8119
40632SOL     OW25426   8.186   4.806   9.465 -0.3176 -0.2703  0.3167
40632SOL    HW125427   8.227   4.750   9.400  0.1982  1.5890 -1.0517
40632SOL    HW225428   8.185   4.754   9.545 -1.7929 -2.9858 -1.3160
40633SOL     OW25429   5.426   3.289   0.561  0.0824 -0.4956 -0.2097
40633SOL    HW125430   5.476   3.228   0.615  0.3284 -1.3804 -1.4212
40633SOL    HW225431   5.486   3.361   0.544  1.1128 -1.7242 -1.9678
40634SOL     OW25432   6.549   0.691  10.729 -0.3317 -0.4088  0.0325
40634SOL    HW125433   6.567   0.732  10.645 -0.1450  1.0043  0.7133
40634SOL    HW225434   6.578   0.757  10.793  0.5905 -1.8910  1.2076
40635SOL     OW25435   6.785   1.246   1.843 -0.4351 -0.1136 -0.4632
40635SOL    HW125436   6.848   1.314   1.867 -0.0098 -0.2938 -1.0264
40635SOL    HW225437   6.819   1.211   1.761 -0.0544 -1.7354  0.3461
40636SOL     OW25438   8.593   2.540   7.563 -0.6109 -0.2363 -0.5866
40636SOL    HW125439   8.604   2.560   7.656 -1.6099  2.6218 -1.0142
40636SOL    HW225440   8.683   2.532   7.530 -0.1930  1.0099  0.1913
40637SOL     OW25441   8.471   8.856   5.209  0.0653 -0.2194  0.0275
40637SOL    HW125442   8.499   8.842   5.119  0.4404 -2.1183  0.3797
40637SOL    HW225443   8.435   8.771   5.236 -1.6955  0.8067  1.1046
40638SOL     OW25444   8.934   3.153   6.236  0.1131 -0.0936 -0.1345
40638SOL    HW125445   8.893   3.142   6.150  1.3201 -0.8359 -0.6315
40638SOL    HW225446   8.894   3.232   6.272  0.0062  0.5463 -1.6111
40639SOL     OW25447   2.343   0.701   9.939 -0.1926 -0.0837  0.1080
40639SOL    HW125448   2.330   0.789   9.973  0.8005 -0.3156  1.1185
40639SOL    HW225449   2.421   0.707   9.884 -1.0036 -0.0158 -1.0829
40640SOL     OW25450   5.578   4.001   4.171 -0.1714  0.7012  0.1084
40640SOL    HW125451   5.593   4.059   4.096 -0.5890  1.1313  0.3563
40640SOL    HW225452   5.646   4.026   4.234  0.9435 -0.4612 -0.5723
40641SOL     OW25453   1.266   2.169   8.496 -0.0178 -0.7361 -0.2118
40641SOL    HW125454   1.176   2.148   8.518 -0.6471  0.0803 -1.8393
40641SOL    HW225455   1.316   2.145   8.574 -1.6290 -1.1583  0.7400
40642SOL     OW25456   0.830   0.021   2.447 -0.1937  0.2273  0.2124
40642SOL    HW125457   0.755   0.053   2.397 -0.1030 -0.6775 -0.5149
40642SOL    HW225458   0.901   0.080   2.425 -0.5113  0.6766  0.3767
40643SOL     OW25459   9.582   7.259   4.286  0.5064 -0.4024 -0.3542
40643SOL    HW125460   9.573   7.307   4.368 -0.2591  0.3460 -0.8500
40643SOL    HW225461   9.569   7.326   4.218  0.4250 -1.1316 -1.0766
40644SOL     OW25462   2.610   1.743   9.718 -0.1311  0.2523  0.0785
40644SOL    HW125463   2.638   1.665   9.670  0.7411  0.8704 -0.4414
40644SOL    HW225464   2.643   1.730   9.807  0.4554  0.2608 -0.1378
40645SOL     OW25465   5.367   7.127   5.717 -0.7085 -0.2684  0.1578
40645SOL    HW125466   5.450   7.127   5.764  0.3296 -1.7835 -1.5130
40645SOL    HW225467   5.364   7.211   5.672  0.2839 -0.4762 -0.3115
40646SOL     OW25468  11.079   6.384   9.770  0.2201 -0.4028 -0.4134
40646SOL    HW125469  11.143   6.385   9.700  0.4006 -1.3022 -0.2750
40646SOL    HW225470  11.037   6.298   9.764 -0.6925  0.0116 -0.2484
40647SOL     OW25471   2.244   5.566   8.937 -0.2770  0.1743  0.8732
40647SOL    HW125472   2.195   5.643   8.907  0.3259  0.8292  1.5186
40647SOL    HW225473   2.224   5.561   9.031  0.2318 -0.0363  0.9722
40648SOL     OW25474   9.835   3.858   8.227  0.0062  0.3329 -0.3635
40648SOL    HW125475   9.788   3.808   8.160  1.6187 -0.0997 -1.2467
40648SOL    HW225476   9.887   3.792   8.274 -0.3965  0.7610  0.7130
40649SOL     OW25477   4.658   1.673   9.863 -0.2099  0.0857  0.3103
40649SOL    HW125478   4.677   1.766   9.862  1.5040 -0.1862  2.1010
40649SOL    HW225479   4.608   1.660   9.944 -2.4570 -0.2741 -1.0287
40650SOL     OW25480   1.356   1.466   2.231 -0.1974  0.1338  0.6241
40650SOL    HW125481   1.284   1.529   2.244  0.2339  0.6383  0.5976
40650SOL    HW225482   1.346   1.403   2.302 -1.3162 -0.4235 -0.0006
40651SOL     OW25483   8.115  10.313  10.192  0.1238  0.0392 -0.2758
40651SOL    HW125484   8.048  10.246  10.175 -1.8552  1.7356  0.4106
40651SOL    HW225485   8.075  10.394  10.162  1.9443  1.1200  0.1047
40652SOL     OW25486   0.446   2.394   9.162 -0.4016  0.3334 -0.0469
40652SOL    HW125487   0.411   2.455   9.098 -0.5553  0.4875  0.1815
40652SOL    HW225488   0.445   2.309   9.118 -0.3767  0.4606 -0.2943
40653SOL     OW25489   4.849   1.623   6.732  0.3355 -0.1527  0.5644
40653SOL    HW125490   4.936   1.604   6.767  0.7546  1.2461  0.3188
40653SOL    HW225491   4.845   1.571   6.651  0.8674 -0.3510  0.6568
40654SOL     OW25492   5.159  10.580   7.261  0.4518  0.7017 -0.1993
40654SOL    HW125493   5.228  10.516   7.277 -0.1931  0.3529  1.4529
40654SOL    HW225494   5.080  10.527   7.251  0.3006  1.1322 -1.3602
40655SOL     OW25495  10.371  10.564   0.247 -0.5584 -0.1601 -0.3413
40655SOL    HW125496  10.351  10.518   0.165 -0.4134 -0.1419 -0.3878
40655SOL    HW225497  10.332  10.509   0.315 -0.3242 -0.3951 -0.3906
40656SOL     OW25498   6.046   4.122   9.679 -0.1331  0.0891 -1.0099
40656SOL    HW125499   6.142   4.114   9.685 -0.1057  1.1187  0.2387
40656SOL    HW225500   6.032   4.200   9.625 -0.2222  1.0793  0.3944
40657SOL     OW25501   8.950   3.524   9.986 -0.5648  0.0696  0.1327
40657SOL    HW125502   8.933   3.431  10.004 -2.4792  0.5956  1.4070
40657SOL    HW225503   8.985   3.558  10.069 -1.2580  0.7644  0.1499
40658SOL     OW25504   8.855   0.951   3.178 -0.4625  0.5809  0.3403
40658SOL    HW125505   8.808   1.023   3.221  0.1270 -0.1528  2.3232
40658SOL    HW225506   8.943   0.954   3.216 -0.2366 -0.7650 -0.0368
40659SOL     OW25507   3.701   5.853   9.301 -0.0053 -0.3495 -0.1419
40659SOL    HW125508   3.785   5.808   9.311 -0.0344  0.0316  2.5395
40659SOL    HW225509   3.702   5.920   9.368 -1.1866  1.8313 -2.1521
40660SOL     OW25510  10.428   7.500   5.433 -0.2234  0.2690 -0.0244
40660SOL    HW125511  10.339   7.528   5.452 -0.3503 -0.5249  0.5939
40660SOL    HW225512  10.425   7.405   5.440  0.0994  0.0121 -2.4229
40661SOL     OW25513   7.959   6.595   3.315 -0.3743  1.4236  0.1145
40661SOL    HW125514   8.038   6.633   3.277  0.7153 -0.6551  0.1585
40661SOL    HW225515   7.918   6.549   3.242 -0.9210  1.5070  0.3691
40662SOL     OW25516   0.051   8.657   2.399 -0.3800 -0.0878  0.3944
40662SOL    HW125517   0.122   8.670   2.462  0.4453  1.1397 -0.7513
40662SOL    HW225518   0.083   8.588   2.341 -0.0907  0.4964 -0.1492
40663SOL     OW25519   5.173   2.258  10.632  0.6490 -0.0490  0.2044
40663SOL    HW125520   5.179   2.353  10.645  2.6332 -0.4049  2.3504
40663SOL    HW225521   5.190   2.221  10.718  1.2028 -2.4177 -0.8669
40664SOL     OW25522  10.078   5.281   7.374 -0.3196  0.5428  0.1888
40664SOL    HW125523   9.988   5.260   7.397 -0.5355  1.4393  0.2137
40664SOL    HW225524  10.119   5.196   7.357 -0.4354 -0.1064  2.7992
40665SOL     OW25525   8.174   2.279   2.287 -0.4417 -0.3762  0.0249
40665SOL    HW125526   8.081   2.299   2.279 -0.0469  1.2033 -1.0502
40665SOL    HW225527   8.190   2.277   2.381 -0.9908  2.3309  0.2446
40666SOL     OW25528   3.493   9.469  10.341  0.6130  0.7641 -0.2924
40666SOL    HW125529   3.504   9.377  10.364  1.8241  0.9023 -0.2812
40666SOL    HW225530   3.420   9.470  10.279 -0.3338 -0.0248  0.7761
40667SOL     OW25531   7.974   4.848   5.895 -0.1237 -0.0278  0.4004
40667SOL    HW125532   7.907   4.835   5.828  0.3595  0.5064 -0.2058
40667SOL    HW225533   7.969   4.942   5.915 -0.2584 -0.1843  1.1062
40668SOL     OW25534   0.832   6.744   9.644 -0.2989 -0.4761 -0.1715
40668SOL    HW125535   0.904   6.703   9.692 -0.7129 -0.7468  0.2220
40668SOL    HW225536   0.799   6.675   9.586 -1.5630 -1.0108  1.1091
40669SOL     OW25537   8.057   4.752   4.449  0.0447 -0.2602 -0.2682
40669SOL    HW125538   8.017   4.718   4.529 -0.1268 -0.0161 -0.2488
40669SOL    HW225539   8.057   4.847   4.461 -0.0436 -0.2206 -0.5908
40670SOL     OW25540   4.790   2.579   5.038 -0.2521  0.1317  0.0346
40670SOL    HW125541   4.885   2.578   5.051 -0.1232 -1.2621 -0.8188
40670SOL    HW225542   4.778   2.605   4.947 -0.7791  1.6237  0.4937
40671SOL     OW25543   1.988   7.365   2.177  0.3527  0.4537 -0.2867
40671SOL    HW125544   1.962   7.453   2.148 -0.2419  0.6257  0.7150
40671SOL    HW225545   2.009   7.318   2.097  1.3142  1.7165 -0.8022
40672SOL     OW25546   5.586   9.314   9.613 -0.1872  0.4471 -0.4308
40672SOL    HW125547   5.631   9.285   9.533 -0.5862 -0.1429 -0.4433
40672SOL    HW225548   5.574   9.409   9.601 -0.5736  0.2989 -1.2299
40673SOL     OW25549   8.723  10.027   9.398  0.1391  0.4317  0.3262
40673SOL    HW125550   8.663   9.995   9.332  1.9833  0.1008 -1.2899
40673SOL    HW225551   8.713   9.966   9.471 -0.7721 -0.1679 -0.2816
40674SOL     OW25552   7.430   9.697   6.787  0.1111  0.1498 -0.0990
40674SOL    HW125553   7.447   9.721   6.878  0.2389  0.8992 -0.3124
40674SOL    HW225554   7.473   9.766   6.736 -0.8711  0.3372 -0.7060
40675SOL     OW25555   2.451   8.109   3.833 -0.4811 -0.2278 -0.2940
40675SOL    HW125556   2.409   8.134   3.915  0.0262  0.7762 -0.3364
40675SOL    HW225557   2.505   8.183   3.809  0.9241 -1.2864 -0.5240
40676SOL     OW25558   2.248   2.210   0.133  0.1501 -0.0364 -0.6901
40676SOL    HW125559   2.256   2.134   0.076  0.6523 -1.5344  1.2832
40676SOL    HW225560   2.303   2.277   0.092  0.4263 -1.0188 -1.9776
40677SOL     OW25561   3.514   7.361   2.881  0.1965 -0.2270 -0.3622
40677SOL    HW125562   3.554   7.387   2.964 -0.0357  0.0816 -0.3433
40677SOL    HW225563   3.501   7.444   2.834  1.3099 -0.4871 -1.1649
40678SOL     OW25564   4.748   0.160   5.448  0.8410  0.6978 -0.4139
40678SOL    HW125565   4.770   0.122   5.534  2.3391  1.9071 -0.2172
40678SOL    HW225566   4.796   0.106   5.385  1.0834  0.8199 -0.3365
40679SOL     OW25567   9.000   6.176   9.051  0.6459  0.3711 -0.4174
40679SOL    HW125568   9.072   6.151   9.110  0.0711 -2.0594 -0.6609
40679SOL    HW225569   9.040   6.241   8.993  2.1726  0.3311  0.5062
40680SOL     OW25570   6.626   1.636   0.825  0.0567  0.0980 -0.1568
40680SOL    HW125571   6.630   1.549   0.785  1.0410  0.2983 -0.5214
40680SOL    HW225572   6.557   1.682   0.777  0.3708 -0.0845 -0.7910
40681SOL     OW25573   1.258   6.785   9.002  0.2285  0.0715  0.3368
40681SOL    HW125574   1.254   6.875   8.971  0.7969  0.0073  0.0553
40681SOL    HW225575   1.294   6.792   9.091 -1.0689  0.2262  0.8697
40682SOL     OW25576   8.156   7.030   0.492 -0.3822 -0.4306  0.4347
40682SOL    HW125577   8.087   7.096   0.502 -1.9357 -1.8581 -0.3503
40682SOL    HW225578   8.176   7.003   0.582  1.0111  1.7394  0.8586
40683SOL     OW25579   4.134   4.497   4.513  0.1783  0.0223  0.5162
40683SOL    HW125580   4.201   4.478   4.447 -0.2623  1.2344 -0.3061
40683SOL    HW225581   4.053   4.509   4.463 -0.3922 -0.0943  1.3857
40684SOL     OW25582   4.352   3.596   3.059  0.2770 -0.7754  0.4663
40684SOL    HW125583   4.329   3.633   2.974 -1.0578 -1.8408  0.3257
40684SOL    HW225584   4.352   3.501   3.044 -2.6532 -1.1649  2.2130
40685SOL     OW25585   9.822   3.379   5.706  0.2802  0.0955  0.8123
40685SOL    HW125586   9.838   3.463   5.662 -0.9391 -1.0961 -2.2030
40685SOL    HW225587   9.814   3.401   5.798  1.2205  3.1022  0.2944
40686SOL     OW25588  10.899   6.879  10.916 -0.0486  0.0753 -0.2155
40686SOL    HW125589  10.934   6.790  10.907 -2.0563 -0.8170  0.1851
40686SOL    HW225590  10.806   6.870  10.895 -0.7384  1.6568  1.7945
40687SOL     OW25591   9.381   6.448   7.737 -0.6062 -0.1465  0.3704
40687SOL    HW125592   9.320   6.382   7.768 -1.5382  0.7017  0.3906
40687SOL    HW225593   9.340   6.532   7.761 -0.0767  0.4625 -0.7895
40688SOL     OW25594   3.507   6.223   4.986 -0.0813  0.2702 -0.5451
40688SOL    HW125595   3.533   6.299   5.038  0.9138 -0.6738  0.3884
40688SOL    HW225596   3.453   6.170   5.045  0.4349 -0.4497 -0.7046
40689SOL     OW25597   7.175   7.645   4.760 -0.0608 -0.1326  0.4405
40689SOL    HW125598   7.157   7.555   4.787  1.3242 -0.9143 -1.0305
40689SOL    HW225599   7.118   7.659   4.684  0.8123 -0.3586 -0.2842
40690SOL     OW25600   7.452  10.266   8.164  0.0075  0.2104  0.5531
40690SOL    HW125601   7.416  10.353   8.143  0.9295  1.2525  2.9422
40690SOL    HW225602   7.507  10.244   8.088 -1.2450  1.0979 -0.6640
40691SOL     OW25603   0.300   9.552   6.959  0.1543 -0.0743  0.5726
40691SOL    HW125604   0.396   9.543   6.964  0.4803  2.7132  4.8923
40691SOL    HW225605   0.267   9.483   7.016 -0.4309 -0.8512 -0.6888
40692SOL     OW25606   9.008   0.885   8.302  0.1935  0.0739 -0.3532
40692SOL    HW125607   8.994   0.977   8.322  2.3542  0.1307  1.4069
40692SOL    HW225608   8.975   0.838   8.379  1.1225 -0.4009 -0.2165
40693SOL     OW25609   0.026   3.783   5.330 -0.1873 -0.5376  0.2366
40693SOL    HW125610   0.070   3.700   5.350  0.1868 -0.5478 -0.5628
40693SOL    HW225611   0.089   3.830   5.275 -0.0830  0.6079  1.2920
40694SOL     OW25612   3.198   0.856  10.680 -0.2129  0.3692  0.2611
40694SOL    HW125613   3.106   0.839  10.660 -0.2474  0.6992  0.1352
40694SOL    HW225614   3.239   0.868  10.595 -0.0766  0.3418  0.3235
40695SOL     OW25615   6.361   8.750  10.984  0.8338  0.2044 -0.3160
40695SOL    HW125616   6.385   8.674  11.037 -1.1215 -1.4807 -1.6748
40695SOL    HW225617   6.385   8.724  10.894 -1.1696  0.5148 -1.0017
40696SOL     OW25618   8.042   9.631   8.000  0.4545  0.0110 -0.3385
40696SOL    HW125619   8.102   9.667   8.066 -0.0845  3.0156 -1.3257
40696SOL    HW225620   8.074   9.667   7.917 -0.8828 -0.9166 -1.2962
40697SOL     OW25621   7.213   7.619   0.161 -0.4418 -0.0740  0.3934
40697SOL    HW125622   7.168   7.701   0.178 -0.1108  0.8489 -2.5401
40697SOL    HW225623   7.143   7.558   0.134 -0.3771  0.3126 -0.7246
40698SOL     OW25624   2.686  10.074   1.817  0.4614 -0.3227  0.8110
40698SOL    HW125625   2.700  10.065   1.911 -2.3082 -0.7581  1.2610
40698SOL    HW225626   2.591  10.081   1.807  0.7043  0.2756 -1.9255
40699SOL     OW25627   9.250   0.352  10.061  0.5851 -0.8184 -0.1643
40699SOL    HW125628   9.242   0.401   9.979 -0.1896 -2.2860 -1.0118
40699SOL    HW225629   9.187   0.393  10.120  2.6429  1.6562  0.5158
40700SOL     OW25630  10.522   8.500  10.859 -0.0875  0.5512 -0.0683
40700SOL    HW125631  10.501   8.415  10.898  0.5749  0.4640  0.1057
40700SOL    HW225632  10.451   8.558  10.888 -1.9948 -0.4912 -2.2422
40701SOL     OW25633   4.766  10.501   9.390 -0.3553 -0.1315 -0.2758
40701SOL    HW125634   4.851  10.544   9.402 -0.2821  0.6748 -2.9156
40701SOL    HW225635   4.721  10.514   9.473  1.8378 -0.0331  0.9930
40702SOL     OW25636   0.614   3.292   0.303  0.1476  0.1517 -0.2275
40702SOL    HW125637   0.669   3.275   0.380 -1.2756  1.0454  1.0534
40702SOL    HW225638   0.525   3.288   0.336 -0.5333  0.0679 -1.9723
40703SOL     OW25639  10.539   7.979   7.989  0.2126 -0.4681  0.2598
40703SOL    HW125640  10.457   7.981   8.039 -0.0992 -1.5148 -0.1732
40703SOL    HW225641  10.522   8.033   7.912  0.0284 -0.4458  0.3148
40704SOL     OW25642   4.098   6.390   6.319 -0.2498  0.4705 -0.5916
40704SOL    HW125643   4.024   6.440   6.354 -1.5189  0.1132 -2.6211
40704SOL    HW225644   4.071   6.366   6.231  2.3528  0.4214 -1.4471
40705SOL     OW25645   8.428   5.077   8.070  0.8632 -0.0350  0.0461
40705SOL    HW125646   8.397   5.160   8.105  1.9071 -0.0786  1.1419
40705SOL    HW225647   8.523   5.086   8.067  0.9032 -0.6587 -1.2310
40706SOL     OW25648   9.590   8.525   8.382 -0.0660 -0.0499 -0.1726
40706SOL    HW125649   9.576   8.491   8.470  1.3410  1.6270  0.7594
40706SOL    HW225650   9.545   8.609   8.381 -0.1826 -0.1091 -1.1293
40707SOL     OW25651   2.229   8.075   9.592  0.0848  0.4149 -0.4420
40707SOL    HW125652   2.265   8.047   9.508  0.9677 -0.0364  0.0681
40707SOL    HW225653   2.254   8.005   9.653  0.1576  1.1186  0.3565
40708SOL     OW25654   0.818   4.899   9.273  0.5172 -0.0520 -0.3236
40708SOL    HW125655   0.879   4.914   9.346  1.1411  0.1826 -0.8880
40708SOL    HW225656   0.769   4.820   9.299  0.8779 -0.0928  0.2536
40709SOL     OW25657   7.704   6.674   8.347  0.1001  0.2369 -0.0081
40709SOL    HW125658   7.748   6.750   8.310  0.2196  0.4803  0.6243
40709SOL    HW225659   7.626   6.709   8.389  0.0609 -0.0117  0.1287
40710SOL     OW25660   9.111   5.692   1.124  0.3642 -0.2583 -0.2806
40710SOL    HW125661   9.181   5.628   1.144  0.2308 -1.1954 -2.5020
40710SOL    HW225662   9.047   5.679   1.194  1.1000 -1.4128  0.2254
40711SOL     OW25663  10.325   0.023   2.988 -0.3655  0.3415  0.1934
40711SOL    HW125664  10.354   0.005   2.898 -0.5602  4.6266 -0.9644
40711SOL    HW225665  10.310  -0.063   3.026  0.4359 -1.7279 -3.6279
40712SOL     OW25666   7.113   0.924   9.632 -0.2153  0.0207 -0.2136
40712SOL    HW125667   7.189   0.966   9.591  1.2994 -1.4682  0.9455
40712SOL    HW225668   7.079   0.865   9.564 -1.2102  1.6353 -1.1908
40713SOL     OW25669   9.301   6.877   7.331 -0.0734 -0.4632  0.1702
40713SOL    HW125670   9.350   6.959   7.322 -1.6508  0.4625 -0.3420
40713SOL    HW225671   9.248   6.872   7.251 -0.5023 -1.6453  0.5115
40714SOL     OW25672   9.144   7.274   8.735 -0.1281  0.3148  0.8833
40714SOL    HW125673   9.220   7.260   8.679  0.4970  2.1706  1.2064
40714SOL    HW225674   9.069   7.259   8.677  0.5010  2.3247 -0.5540
40715SOL     OW25675   9.691   4.706   7.947 -0.4891 -0.2789  0.1477
40715SOL    HW125676   9.739   4.666   7.875 -0.8552  0.8091 -0.7385
40715SOL    HW225677   9.600   4.709   7.916 -0.6939 -0.0068  0.7489
40716SOL     OW25678   9.393   6.490   5.168 -0.0265  0.1687 -0.4896
40716SOL    HW125679   9.423   6.462   5.254 -1.0501 -1.5588 -0.6701
40716SOL    HW225680   9.455   6.450   5.107 -0.4667 -0.2730 -0.6529
40717SOL     OW25681   4.283   6.051  10.949  0.7014  0.3338  0.3761
40717SOL    HW125682   4.378   6.040  10.951  0.7689  0.4385 -1.1449
40717SOL    HW225683   4.252   6.002  11.025  2.0489  1.3396  1.6442
40718SOL     OW25684   0.877   7.155   6.197 -0.0920 -0.3182 -0.1724
40718SOL    HW125685   0.964   7.122   6.175 -0.8375 -3.5335  1.1470
40718SOL    HW225686   0.883   7.180   6.289 -0.6986 -1.2360  0.1301
40719SOL     OW25687   7.409   5.816   2.815 -0.3201  0.0777 -0.8378
40719SOL    HW125688   7.445   5.766   2.889 -2.4056 -0.5267 -0.1603
40719SOL    HW225689   7.482   5.871   2.785  1.2537 -1.4013  0.1357
40720SOL     OW25690   4.363   6.036   6.358 -0.1188  0.6863  0.2247
40720SOL    HW125691   4.390   6.123   6.329 -2.4001  1.7973  1.1390
40720SOL    HW225692   4.374   6.038   6.453  1.4548 -0.6893  0.1090
40721SOL     OW25693   0.192   8.812   7.744 -0.2792  0.1292  0.0951
40721SOL    HW125694   0.170   8.734   7.795 -0.1511  0.7577  1.1404
40721SOL    HW225695   0.116   8.870   7.756  0.7900  1.2945  1.6676
40722SOL     OW25696   2.985   5.266   5.185 -0.2122 -0.1340  0.6456
40722SOL    HW125697   3.066   5.228   5.220  0.5259 -1.5947 -2.3663
40722SOL    HW225698   3.007   5.290   5.095 -2.5100  1.6680  0.4848
40723SOL     OW25699   5.579  10.223   4.741 -0.4546 -0.3432 -0.1456
40723SOL    HW125700   5.523  10.271   4.681 -0.4884 -1.1670 -0.7922
40723SOL    HW225701   5.615  10.152   4.688  1.1987  0.1554  0.2555
40724SOL     OW25702   9.654   1.361   4.427 -0.0454 -0.1809 -0.2162
40724SOL    HW125703   9.681   1.447   4.395 -0.5071 -0.0701 -0.3160
40724SOL    HW225704   9.678   1.361   4.519 -1.1004  0.5069  0.0741
40725SOL     OW25705   9.623  10.323   0.508 -0.0526 -0.4788  0.1723
40725SOL    HW125706   9.609  10.236   0.547  1.9377 -1.2112 -0.5657
40725SOL    HW225707   9.587  10.316   0.420  0.8425 -0.8801 -0.1814
40726SOL     OW25708   0.167   1.346   6.363  0.4479  0.3092  0.4404
40726SOL    HW125709   0.194   1.390   6.282 -1.9293  1.1979  0.0398
40726SOL    HW225710   0.172   1.414   6.430  0.8215  0.0117  0.7207
40727SOL     OW25711   4.173   5.836   0.942 -0.5165 -0.2749 -0.2992
40727SOL    HW125712   4.100   5.898   0.944  0.5852  1.1469 -1.5008
40727SOL    HW225713   4.182   5.812   0.850  0.9944  0.1788 -0.2990
40728SOL     OW25714   2.024   7.444   9.075  0.1755 -0.0896  0.1567
40728SOL    HW125715   2.026   7.510   9.144 -0.7294 -0.9063  1.0024
40728SOL    HW225716   2.102   7.460   9.022  1.0701  0.3307  1.5792
40729SOL     OW25717   8.349  10.063  10.641  0.6153 -0.0700  0.5603
40729SOL    HW125718   8.291  10.067  10.565  2.7524 -0.3812 -1.1985
40729SOL    HW225719   8.301  10.011  10.706 -2.0913  1.8405  0.2601
40730SOL     OW25720   3.110   2.756  10.155 -0.1165  0.8255  0.6819
40730SOL    HW125721   3.091   2.737  10.063 -0.5633 -0.7951  1.0870
40730SOL    HW225722   3.027   2.787  10.191 -0.8759 -1.6551  1.2795
40731SOL     OW25723   2.182   8.689   8.104 -0.3173  0.4989 -0.3369
40731SOL    HW125724   2.252   8.698   8.169 -0.7505 -2.6797  0.7693
40731SOL    HW225725   2.215   8.735   8.027  2.5003  0.1296  0.5236
40732SOL     OW25726   6.983   7.354   1.956 -0.6168  0.1055  0.2594
40732SOL    HW125727   6.990   7.258   1.950 -0.3613  0.2017 -1.5315
40732SOL    HW225728   7.063   7.381   2.001  0.4427 -0.4004 -1.2169
40733SOL     OW25729   0.230   6.532   2.031  1.1986  0.8012 -0.5525
40733SOL    HW125730   0.254   6.625   2.035 -0.2973  1.1693  1.3777
40733SOL    HW225731   0.313   6.486   2.043  1.7222  1.9386  0.4138
40734SOL     OW25732   0.313   8.182   3.733 -0.5564  0.3374  0.1027
40734SOL    HW125733   0.220   8.163   3.749 -0.2055 -0.7803  0.9319
40734SOL    HW225734   0.345   8.105   3.686  0.3284 -0.0359  1.2952
40735SOL     OW25735   3.383  10.362   3.914  0.0300 -0.0718  0.0044
40735SOL    HW125736   3.311  10.329   3.968 -0.6646  1.7005  0.2440
40735SOL    HW225737   3.426  10.284   3.881 -0.5541 -1.2062  1.7712
40736SOL     OW25738   1.287   7.158   6.032 -0.0992  0.5688  0.4572
40736SOL    HW125739   1.378   7.186   6.030 -0.3115  1.6670  2.4282
40736SOL    HW225740   1.254   7.177   5.945  1.3441  0.9542 -0.0363
40737SOL     OW25741   6.101  10.021   6.914  0.0669  0.1098  0.2549
40737SOL    HW125742   6.057   9.988   6.836 -0.9691  0.2542  0.7605
40737SOL    HW225743   6.192   9.995   6.903 -0.8311 -4.0754  1.1680
40738SOL     OW25744   2.321   2.739   8.502 -0.3047  0.4816  0.0876
40738SOL    HW125745   2.404   2.785   8.492 -0.6731  1.0011 -0.5966
40738SOL    HW225746   2.345   2.646   8.495  0.4906  0.4987  1.8358
40739SOL     OW25747   3.996   0.226   0.776 -0.1903  1.2343  0.1055
40739SOL    HW125748   3.998   0.314   0.814 -3.5655  1.6725 -0.3668
40739SOL    HW225749   3.955   0.172   0.843 -0.1968  0.5315 -0.4517
40740SOL     OW25750   5.718   0.307   7.964 -0.1975 -0.0777  0.2007
40740SOL    HW125751   5.786   0.243   7.941  0.4577  0.4172  0.7250
40740SOL    HW225752   5.765   0.391   7.968 -1.4345  0.8840 -2.7994
40741SOL     OW25753   2.336   9.020   1.930 -0.6079 -0.3248  0.2827
40741SOL    HW125754   2.371   9.099   1.970 -1.4755  0.3674 -0.2872
40741SOL    HW225755   2.280   9.052   1.859  0.6639 -1.5112 -1.3038
40742SOL     OW25756   9.653   8.919   1.203 -0.4832 -0.4955  0.4152
40742SOL    HW125757   9.665   8.854   1.273  2.4702  0.1477  0.6040
40742SOL    HW225758   9.667   9.003   1.246 -0.8837  0.0737 -0.5351
40743SOL     OW25759   9.196   4.249   6.291 -0.3121  0.4578  0.3501
40743SOL    HW125760   9.238   4.270   6.375  0.4572 -0.9808  0.3553
40743SOL    HW225761   9.244   4.302   6.227  1.8919 -1.4364  0.2967
40744SOL     OW25762   4.006   7.490   3.763  0.3109  0.2562  0.3361
40744SOL    HW125763   3.946   7.449   3.826  0.7778  1.0619  1.3293
40744SOL    HW225764   4.091   7.451   3.783  0.0471 -1.5382 -1.6381
40745SOL     OW25765   4.389  10.972   6.732  0.2032 -0.3265 -0.2928
40745SOL    HW125766   4.458  10.959   6.797 -1.0343  1.3534  1.4619
40745SOL    HW225767   4.368  10.884   6.701  0.4525 -1.2735  2.0344
40746SOL     OW25768   7.368   6.026   7.235 -0.2998 -0.0333 -0.1506
40746SOL    HW125769   7.335   5.938   7.214  1.2518 -0.8440  0.6268
40746SOL    HW225770   7.314   6.085   7.182 -1.1854 -1.4701 -0.9261
40747SOL     OW25771   9.392   2.589  10.566 -0.0747  0.2917  0.3097
40747SOL    HW125772   9.399   2.642  10.646 -0.4786 -1.2088  1.3772
40747SOL    HW225773   9.298   2.577  10.555 -0.1473  2.0348 -1.4957
40748SOL     OW25774   7.392   6.189   3.001  0.3175 -0.3732 -0.1478
40748SOL    HW125775   7.438   6.273   2.994  0.4710 -0.5537 -1.7797
40748SOL    HW225776   7.361   6.185   3.091 -1.2107  2.2423 -0.4714
40749SOL     OW25777   5.092   5.658  10.884  0.0629  0.5362  0.7572
40749SOL    HW125778   5.132   5.572  10.879 -1.3408 -0.0869 -1.2545
40749SOL    HW225779   5.013   5.645  10.936 -0.1594  0.5822  0.4383
40750SOL     OW25780   7.340   4.433   7.723  0.5684  0.4655 -0.2136
40750SOL    HW125781   7.393   4.389   7.790 -1.4261  0.1682  1.2513
40750SOL    HW225782   7.346   4.526   7.745  2.0432  0.6591 -1.2748
40751SOL     OW25783   4.527   0.676  10.145 -0.6845  0.1661 -0.4351
40751SOL    HW125784   4.600   0.667  10.083 -1.2091 -0.5045 -0.9692
40751SOL    HW225785   4.482   0.592  10.142 -1.4140  0.5289 -0.0124
40752SOL     OW25786   3.053   5.457   2.809  0.0605 -0.0953  0.0256
40752SOL    HW125787   3.135   5.432   2.852 -0.1897  1.9976  1.9490
40752SOL    HW225788   3.035   5.545   2.842 -2.9860 -0.4799 -0.3005
40753SOL     OW25789   1.746   8.473   2.540 -0.0546 -1.5042  0.0210
40753SOL    HW125790   1.769   8.473   2.633  0.8784  0.8759 -0.1298
40753SOL    HW225791   1.651   8.484   2.539  0.1128  0.3959  0.7540
40754SOL     OW25792   3.954   0.538   0.545 -0.0325  0.0008 -0.0595
40754SOL    HW125793   3.956   0.494   0.630 -0.6654 -0.2001 -0.1489
40754SOL    HW225794   4.002   0.620   0.560 -1.1386  0.5145  0.8072
40755SOL     OW25795   1.844   6.921   6.032 -0.9116 -0.9062  0.1853
40755SOL    HW125796   1.850   6.946   5.940  1.4573  3.6277  1.3101
40755SOL    HW225797   1.750   6.924   6.052 -1.2256  2.1756 -1.2244
40756SOL     OW25798   4.968   5.487  10.604  0.0781  0.4013  0.4514
40756SOL    HW125799   4.910   5.470  10.678  0.5580  1.4682  1.0893
40756SOL    HW225800   5.024   5.410  10.598 -1.7061 -0.9079 -0.5100
40757SOL     OW25801   3.645   3.907   5.326  0.0097 -0.4141  0.5765
40757SOL    HW125802   3.589   3.830   5.318  0.4140 -0.8455  1.6161
40757SOL    HW225803   3.707   3.900   5.254 -0.6087 -0.4988  0.0490
40758SOL     OW25804   1.041   7.409   4.317 -0.0778  0.4103  0.1513
40758SOL    HW125805   1.114   7.470   4.306  0.3719 -0.1384 -0.0143
40758SOL    HW225806   0.967   7.463   4.344 -0.4757  1.4527 -2.7076
40759SOL     OW25807   7.918   4.613   7.283  0.3201  0.0097 -0.4635
40759SOL    HW125808   7.861   4.688   7.264  0.8157  0.4014 -0.4394
40759SOL    HW225809   8.003   4.639   7.248  0.5296 -0.4858 -0.3218
40760SOL     OW25810   0.240   8.581   5.417  0.2596 -0.0071  0.5056
40760SOL    HW125811   0.162   8.629   5.446  0.9549  1.3777  0.1859
40760SOL    HW225812   0.206   8.500   5.379 -0.9834  0.3629  0.7723
40761SOL     OW25813   0.363   4.535   2.130 -0.3613  0.4220  0.6906
40761SOL    HW125814   0.291   4.563   2.074  0.0191 -1.6428 -0.9226
40761SOL    HW225815   0.415   4.476   2.076  1.3685  0.1852  2.4871
40762SOL     OW25816   1.802   1.820   7.307 -0.2676 -0.4858  0.1788
40762SOL    HW125817   1.854   1.899   7.318  3.1725 -2.2432 -1.8091
40762SOL    HW225818   1.789   1.786   7.395 -0.6441  1.5292  0.9359
40763SOL     OW25819   4.797   8.140   5.779  0.0678  0.2890 -0.7018
40763SOL    HW125820   4.824   8.087   5.855  0.1445 -0.0454 -0.9570
40763SOL    HW225821   4.863   8.209   5.774 -0.2366  0.6368 -0.1453
40764SOL     OW25822   3.441   0.815   9.741 -0.4722 -0.4499 -0.8175
40764SOL    HW125823   3.470   0.743   9.797 -0.9085  1.3582  1.9432
40764SOL    HW225824   3.511   0.825   9.677  2.1719 -0.0895  1.9053
40765SOL     OW25825   2.912  10.935   6.589 -0.7702  0.0551 -0.3814
40765SOL    HW125826   2.845  11.003   6.581  0.4526  1.7105  2.1460
40765SOL    HW225827   2.975  10.970   6.652  0.7608 -2.8004 -0.1374
40766SOL     OW25828   3.549   6.756   7.882 -0.3081  0.0826  0.3388
40766SOL    HW125829   3.456   6.772   7.895 -0.5116  0.4365 -1.4148
40766SOL    HW225830   3.589   6.778   7.967 -1.6762  1.0181  0.7685
40767SOL     OW25831  10.986  10.652   0.925  0.4292  0.5316 -0.3408
40767SOL    HW125832  11.043  10.726   0.947  1.9773 -0.5288 -0.5684
40767SOL    HW225833  11.000  10.638   0.831  1.2897 -0.9191 -0.0262
40768SOL     OW25834   9.355   2.414   9.881  0.5026 -0.9031  0.0155
40768SOL    HW125835   9.303   2.494   9.870  0.2438 -1.0981 -0.1866
40768SOL    HW225836   9.409   2.409   9.803  0.4953 -0.9451  0.0137
40769SOL     OW25837   6.161   9.778   9.718  0.3815 -0.0008  0.2930
40769SOL    HW125838   6.118   9.854   9.679  1.8903  1.2512  0.9903
40769SOL    HW225839   6.207   9.812   9.794  0.0746 -1.8483  1.3776
40770SOL     OW25840   4.269   9.777   4.191 -0.1410  0.1994  0.7581
40770SOL    HW125841   4.211   9.826   4.249 -0.7036  0.9706 -0.3961
40770SOL    HW225842   4.353   9.822   4.197 -0.3832  0.7021  0.4691
40771SOL     OW25843   9.995   1.021   1.606  0.3516  0.3974 -0.3246
40771SOL    HW125844  10.065   0.969   1.567  0.5812  1.1510 -0.9482
40771SOL    HW225845  10.011   1.110   1.575 -0.8138  0.6078 -0.3715
40772SOL     OW25846  10.076   3.119   3.819 -0.2293  0.0822  0.8229
40772SOL    HW125847  10.085   3.094   3.910  0.0557  0.7285  0.9751
40772SOL    HW225848  10.098   3.212   3.817 -1.2185  0.3213  0.2674
40773SOL     OW25849   3.186   2.102   6.441  0.1063  0.5501 -0.4450
40773SOL    HW125850   3.181   2.198   6.446 -1.9688  0.5497 -1.3107
40773SOL    HW225851   3.098   2.073   6.467  1.0455 -1.2141  0.9579
40774SOL     OW25852   9.370  11.122   9.344  0.0448  0.6171  0.1544
40774SOL    HW125853   9.447  11.067   9.356  0.6845  1.2882 -0.7564
40774SOL    HW225854   9.337  11.100   9.257  0.0080  1.2902 -0.0135
40775SOL     OW25855   1.318   8.341   8.843 -0.7675  0.3554 -0.6727
40775SOL    HW125856   1.255   8.342   8.771 -0.6248 -1.9989 -0.9187
40775SOL    HW225857   1.352   8.251   8.844  1.4126  1.1059  0.4704
40776SOL     OW25858   3.362   1.469   4.659  0.2874 -0.3009 -0.2160
40776SOL    HW125859   3.346   1.458   4.566  1.7183  0.2722 -0.5495
40776SOL    HW225860   3.326   1.555   4.679  0.0015 -0.4141 -0.2296
40777SOL     OW25861   6.968   6.953  10.054 -0.0041  0.4229  0.0554
40777SOL    HW125862   7.038   6.889  10.070 -0.5427  0.0615  1.0861
40777SOL    HW225863   6.978   6.977   9.962 -1.1626 -2.8349 -1.0557
40778SOL     OW25864   8.646   2.197   0.287  0.0595  0.5814 -0.1342
40778SOL    HW125865   8.558   2.194   0.250 -0.6971 -0.3842  1.6234
40778SOL    HW225866   8.699   2.241   0.220 -1.6184  0.6586 -1.4724
40779SOL     OW25867   5.626   8.892   3.073  0.4934  0.5945 -0.2402
40779SOL    HW125868   5.602   8.985   3.077 -1.6716  0.0945 -0.0191
40779SOL    HW225869   5.706   8.886   3.125 -0.4272  2.0498  1.4980
40780SOL     OW25870   5.700   0.544   6.694  0.5632 -0.6028  0.6200
40780SOL    HW125871   5.796   0.549   6.695  0.5118  0.9607 -0.4253
40780SOL    HW225872   5.671   0.626   6.734 -0.3512 -0.6248  0.0126
40781SOL     OW25873   9.048   8.336   2.692  0.2532  0.0042  0.5268
40781SOL    HW125874   8.956   8.351   2.715  0.1781 -0.4232  0.5207
40781SOL    HW225875   9.046   8.309   2.600  0.3222 -0.5994  0.6995
40782SOL     OW25876   0.920   1.967  10.948  0.4443 -0.0383  0.0027
40782SOL    HW125877   0.969   1.899  10.995 -1.2444 -2.2133 -1.1677
40782SOL    HW225878   0.884   2.023  11.017  0.5571 -1.3003  1.1317
40783SOL     OW25879   2.335   0.969   9.965  0.3005 -0.3046  0.1301
40783SOL    HW125880   2.419   1.010   9.982 -0.1784  0.5277  0.5270
40783SOL    HW225881   2.311   0.998   9.877  0.4623 -0.6168 -0.0208
40784SOL     OW25882   5.542   0.507   8.144  0.5207  0.2073 -1.0193
40784SOL    HW125883   5.477   0.552   8.090  2.2773  1.3317 -2.2914
40784SOL    HW225884   5.555   0.422   8.100 -2.8975 -1.8825  1.4586
40785SOL     OW25885   3.620   2.171   8.512  0.3877  0.4211  0.7569
40785SOL    HW125886   3.703   2.217   8.515 -0.1751  1.4398  1.0843
40785SOL    HW225887   3.564   2.218   8.575 -0.3058 -0.4961  0.8488
40786SOL     OW25888  10.115  10.318   7.059 -0.3428 -0.0146  0.2854
40786SOL    HW125889  10.033  10.304   7.012 -0.3699 -1.0932  0.6319
40786SOL    HW225890  10.183  10.297   6.994 -0.3750 -1.0883  0.5834
40787SOL     OW25891   9.963   8.123   1.755 -0.6332 -0.1447 -0.1839
40787SOL    HW125892   9.945   8.046   1.701  1.2377 -0.9705  0.2791
40787SOL    HW225893  10.011   8.182   1.698 -0.7065  0.0005 -0.0970
40788SOL     OW25894   9.573   0.707   7.744  0.0267 -0.0074  0.5018
40788SOL    HW125895   9.559   0.777   7.807  1.0836  0.4649  0.2404
40788SOL    HW225896   9.543   0.743   7.660 -0.2161 -0.1741  0.5177
40789SOL     OW25897   2.834   7.878   3.122  0.0395  0.1450 -0.2601
40789SOL    HW125898   2.854   7.932   3.199 -0.2396 -1.4350  0.9615
40789SOL    HW225899   2.815   7.942   3.053  1.3029  1.6118  0.6882
40790SOL     OW25900   3.680   0.391   0.007  0.1919  0.3419  0.2727
40790SOL    HW125901   3.699   0.382   0.100 -0.5438 -0.0228  0.4009
40790SOL    HW225902   3.607   0.454   0.004 -1.1862 -1.1800  0.1315
40791SOL     OW25903   2.606   5.410   7.895  0.1299  0.1876  0.4929
40791SOL    HW125904   2.620   5.336   7.836  0.4879  1.2316 -0.8101
40791SOL    HW225905   2.636   5.380   7.980  1.6353 -0.6876 -0.3008
40792SOL     OW25906  10.568   9.730   7.060  0.1375 -0.3507  0.4644
40792SOL    HW125907  10.545   9.645   7.096 -1.5713 -1.1163 -2.1505
40792SOL    HW225908  10.543   9.792   7.128  0.0460 -1.8370  1.8427
40793SOL     OW25909   5.979   1.372   2.016  0.0326 -0.4829 -0.0506
40793SOL    HW125910   5.901   1.327   2.047  0.6882 -1.4214  0.2613
40793SOL    HW225911   5.990   1.446   2.076  0.7095 -1.6916  1.3865
40794SOL     OW25912   8.762   6.906   3.520  0.0149  1.1141  0.1182
40794SOL    HW125913   8.696   6.870   3.461 -0.9376  2.0889  0.5705
40794SOL    HW225914   8.771   6.840   3.588  1.8569 -0.5107 -1.5497
40795SOL     OW25915   0.821   4.485   8.146  0.2408  0.2184 -0.5339
40795SOL    HW125916   0.819   4.430   8.068 -1.5851  0.1084 -0.4501
40795SOL    HW225917   0.805   4.426   8.218  0.9794  0.4711 -0.1483
40796SOL     OW25918   4.538   5.536   6.016  0.2719 -0.3628  0.2440
40796SOL    HW125919   4.448   5.557   6.040  0.4718  1.6896 -0.5620
40796SOL    HW225920   4.587   5.543   6.098  0.0745  1.1296  0.2754
40797SOL     OW25921   6.683   1.985   6.649 -0.1203 -0.0353  0.1165
40797SOL    HW125922   6.755   1.956   6.705  0.6836 -0.3224 -1.0151
40797SOL    HW225923   6.682   2.080   6.659 -1.1206 -0.1976  1.9098
40798SOL     OW25924   5.844  10.441  10.133 -0.3001  0.1087 -0.2146
40798SOL    HW125925   5.753  10.470  10.124 -0.7390 -0.8488  0.9112
40798SOL    HW225926   5.869  10.415  10.044 -1.3489 -0.2224 -0.4362
40799SOL     OW25927  10.948   5.857   5.236  0.6061 -0.2158 -0.3000
40799SOL    HW125928  10.953   5.834   5.143  1.7549  0.1964 -0.3586
40799SOL    HW225929  11.019   5.920   5.248  1.2794 -1.1856  1.1120
40800SOL     OW25930   1.643   5.194   9.472 -0.7426  0.1612  0.2683
40800SOL    HW125931   1.591   5.146   9.407  1.2048 -1.4963 -0.1462
40800SOL    HW225932   1.710   5.239   9.420  1.9502 -2.5708  1.0631
40801SOL     OW25933   1.974  11.069   6.075 -0.2409 -0.0249 -0.2168
40801SOL    HW125934   2.005  11.116   5.997  1.9700 -0.0911  0.5491
40801SOL    HW225935   1.999  11.124   6.149 -0.7482 -0.7746  0.5373
40802SOL     OW25936   8.185   1.379   8.361  0.2861 -0.4383  0.2580
40802SOL    HW125937   8.261   1.376   8.304  0.6227 -3.0543  0.7395
40802SOL    HW225938   8.110   1.385   8.302  0.7683  2.7235 -0.2107
40803SOL     OW25939   7.498   9.940   1.466  0.0625 -0.4030  0.6336
40803SOL    HW125940   7.486  10.028   1.502 -1.3701 -0.3466  0.0889
40803SOL    HW225941   7.526   9.887   1.540 -0.3231  0.2468  1.2547
40804SOL     OW25942   4.544   5.569   3.441  0.7128  0.7457  0.0256
40804SOL    HW125943   4.582   5.632   3.380 -0.9583  1.5163 -0.3014
40804SOL    HW225944   4.482   5.519   3.388 -0.4353  1.1181  0.9649
40805SOL     OW25945   0.140   4.578   1.598  0.1774 -0.6953 -0.8158
40805SOL    HW125946   0.114   4.494   1.634  3.3292 -0.6836  1.9932
40805SOL    HW225947   0.074   4.640   1.630 -0.4816 -1.6473 -0.3125
40806SOL     OW25948   0.971   1.482  10.593  0.2217 -0.0111  0.2626
40806SOL    HW125949   0.886   1.525  10.606 -0.6989 -1.8657  0.7072
40806SOL    HW225950   0.955   1.418  10.523  1.7221  0.7849 -0.8497
40807SOL     OW25951   1.686   2.911   8.480  0.2194 -0.2090 -0.0802
40807SOL    HW125952   1.706   2.927   8.388  1.2065  1.1335  0.3406
40807SOL    HW225953   1.736   2.977   8.527  0.5161 -1.5126  1.4981
40808SOL     OW25954   3.227   5.256   3.534 -0.0280 -0.3362 -0.1185
40808SOL    HW125955   3.284   5.327   3.564  0.9961 -1.2705  0.2245
40808SOL    HW225956   3.242   5.185   3.596 -2.6841 -0.1673  0.8594
40809SOL     OW25957   5.115   5.623   3.936  0.3546 -0.4729 -0.1073
40809SOL    HW125958   5.168   5.544   3.950  0.6255 -0.1273  0.9481
40809SOL    HW225959   5.175   5.696   3.958  1.3104  0.3198 -4.4506
40810SOL     OW25960   4.479   4.932   1.612  0.3394  0.2083 -0.0720
40810SOL    HW125961   4.468   4.848   1.657  0.8408 -0.5938 -1.3873
40810SOL    HW225962   4.574   4.946   1.612  0.2059  1.1938  0.8454
40811SOL     OW25963   1.956   4.214   3.425  0.3428 -0.0884  0.0480
40811SOL    HW125964   2.020   4.217   3.497  1.0293  1.7626 -0.5841
40811SOL    HW225965   2.009   4.211   3.346 -0.3856 -0.0565 -0.4480
40812SOL     OW25966   0.372   2.654   1.292  0.2026  0.1763  0.3487
40812SOL    HW125967   0.427   2.580   1.319 -0.2087 -0.3135 -0.1344
40812SOL    HW225968   0.293   2.647   1.347  0.8024  1.1667  1.3939
40813SOL     OW25969   0.874   4.663   2.505  0.0306  0.3759 -0.0036
40813SOL    HW125970   0.960   4.647   2.465  0.0828 -0.4176  0.4078
40813SOL    HW225971   0.856   4.584   2.556 -0.6400  0.8211  0.4655
40814SOL     OW25972   7.811   8.034   3.636 -0.5096 -0.0630 -0.6489
40814SOL    HW125973   7.783   7.979   3.709 -0.2203  0.9280  0.2390
40814SOL    HW225974   7.891   7.992   3.604 -0.9797 -0.8500 -0.8047
40815SOL     OW25975   3.961   2.512   9.195  0.6344  0.8022 -0.2490
40815SOL    HW125976   3.942   2.458   9.118  3.1665 -1.0645  0.3078
40815SOL    HW225977   3.884   2.502   9.251 -0.4268  0.6231 -1.6905
40816SOL     OW25978   7.561   3.678   0.577 -0.3436 -0.4607 -0.0637
40816SOL    HW125979   7.511   3.707   0.653  0.0744  0.6746 -0.2078
40816SOL    HW225980   7.647   3.719   0.588  0.3797 -1.8889 -0.1343
40817SOL     OW25981   9.452   0.171   2.579 -0.4221 -0.0681  0.5145
40817SOL    HW125982   9.496   0.089   2.556 -0.8660 -1.0418  2.8807
40817SOL    HW225983   9.362   0.146   2.599  0.4517 -0.0318  5.9389
40818SOL     OW25984   9.807   6.566   6.962 -0.0009  0.2087 -0.1254
40818SOL    HW125985   9.819   6.660   6.950 -0.5759  0.1880 -0.9436
40818SOL    HW225986   9.786   6.556   7.055 -2.3633  1.1719 -0.4948
40819SOL     OW25987   2.189   6.845   0.754  0.4904  0.0222 -0.2886
40819SOL    HW125988   2.151   6.757   0.752 -0.2156  0.3413 -1.0403
40819SOL    HW225989   2.133   6.895   0.813  1.2415 -0.1715  0.6233
40820SOL     OW25990   5.256   9.150   9.393 -0.3523  0.6496  0.0174
40820SOL    HW125991   5.189   9.106   9.446  1.0616 -0.4489  0.9706
40820SOL    HW225992   5.299   9.210   9.454  0.5586  0.1940 -0.1558
40821SOL     OW25993   1.700   9.804   2.268 -0.2047  0.6211  0.4370
40821SOL    HW125994   1.751   9.723   2.276  1.8020  1.5586 -1.7283
40821SOL    HW225995   1.744   9.866   2.326 -0.6117  0.6711  0.6949
40822SOL     OW25996  10.606   1.874   9.583 -0.4912  0.0330  0.5854
40822SOL    HW125997  10.616   1.955   9.533  2.2174 -0.7815 -0.3954
40822SOL    HW225998  10.687   1.868   9.634 -0.9847 -1.6695  1.2353
40823SOL     OW25999  11.078  11.091   1.697 -0.0870 -0.0351 -0.8062
40823SOL    HW126000  11.077  11.023   1.630  2.2213  0.9525 -1.9436
40823SOL    HW226001  11.077  11.173   1.648  0.2110  0.7300  0.4294
40824SOL     OW26002   6.399   0.449   4.873  0.2265 -0.3315 -0.4241
40824SOL    HW126003   6.488   0.475   4.899 -0.6551  0.9930  1.5760
40824SOL    HW226004   6.381   0.502   4.795  0.7940  0.2532 -0.1726
40825SOL     OW26005   2.368   8.294   7.979  0.0039  0.1015  0.1413
40825SOL    HW126006   2.299   8.228   7.988  0.6391 -0.4078  1.4598
40825SOL    HW226007   2.450   8.244   7.978  0.3766  0.3919 -4.5834
40826SOL     OW26008  10.678   1.736   3.223  0.1831 -0.9740 -0.5138
40826SOL    HW126009  10.754   1.724   3.166  1.3405  1.6038  0.3145
40826SOL    HW226010  10.682   1.664   3.286  0.1554 -2.5840 -2.2775
40827SOL     OW26011   3.273   0.105   6.000 -0.0400  0.2043  0.4074
40827SOL    HW126012   3.344   0.117   5.936 -0.5951  1.0973 -0.0682
40827SOL    HW226013   3.252   0.012   5.995  0.9615 -0.0336  0.4065
40828SOL     OW26014   8.913   6.520   0.614  0.0368 -0.2838  0.6119
40828SOL    HW126015   8.921   6.431   0.649  0.5321  0.1597  1.6574
40828SOL    HW226016   8.819   6.538   0.616 -0.1034 -0.9233  0.0205
40829SOL     OW26017   2.804   2.895   9.675  0.3082  0.2789 -0.0820
40829SOL    HW126018   2.721   2.865   9.710  1.0146 -0.8562  0.7094
40829SOL    HW226019   2.781   2.951   9.601 -1.1309 -0.7736 -0.4728
40830SOL     OW26020   4.349   7.778   7.236  0.5628  0.1279 -0.3339
40830SOL    HW126021   4.342   7.836   7.311  0.9368 -0.5534  0.2466
40830SOL    HW226022   4.338   7.835   7.160 -1.5766  0.5623  0.2468
40831SOL     OW26023   6.710   9.111   6.420  0.1484  0.1740 -0.0408
40831SOL    HW126024   6.725   9.148   6.507 -0.9218 -0.5940  0.4939
40831SOL    HW226025   6.733   9.182   6.360  0.7345  0.7802  0.8707
40832SOL     OW26026   8.653   8.193   3.233 -0.2764  0.7630 -0.6664
40832SOL    HW126027   8.730   8.140   3.250  1.0040  2.1145 -1.9228
40832SOL    HW226028   8.609   8.201   3.318  0.2350 -1.0843 -0.1902
40833SOL     OW26029   0.186   0.157   6.432  0.3527  0.3607 -0.1502
40833SOL    HW126030   0.151   0.111   6.356  1.4121 -1.4637  0.3921
40833SOL    HW226031   0.120   0.145   6.500 -0.0348  0.9298 -0.4176
40834SOL     OW26032  10.486   6.111   5.654  0.3276  0.1431 -0.3218
40834SOL    HW126033  10.399   6.134   5.686  0.0325 -0.8835 -0.3411
40834SOL    HW226034  10.541   6.115   5.732  0.2060  0.5139 -0.2529
40835SOL     OW26035   0.223   3.500   1.333 -0.0680 -0.4582  0.1698
40835SOL    HW126036   0.176   3.565   1.280  0.0620 -0.5008  0.0033
40835SOL    HW226037   0.154   3.441   1.365 -0.6649  1.4833  2.8644
40836SOL     OW26038   1.146   4.678  11.008 -0.3890  0.1262  0.2756
40836SOL    HW126039   1.059   4.683  10.968 -0.3184  0.0707  0.1148
40836SOL    HW226040   1.202   4.643  10.939  0.0485  1.4585 -0.0580
40837SOL     OW26041   9.648   4.251   3.823  0.1243 -0.2077 -0.6378
40837SOL    HW126042   9.654   4.160   3.852  1.6431  0.2416  0.5754
40837SOL    HW226043   9.614   4.298   3.899  0.2304  0.3747 -0.9460
40838SOL     OW26044   4.622  10.254   6.033  0.0798  0.2321 -0.2280
40838SOL    HW126045   4.660  10.290   5.952 -1.2543  1.0526 -0.5113
40838SOL    HW226046   4.528  10.253   6.017 -0.2337  0.6788  1.4199
40839SOL     OW26047   4.191   0.310   9.159  0.1248 -0.5529  0.4030
40839SOL    HW126048   4.131   0.356   9.102  1.2495  0.0189 -0.3623
40839SOL    HW226049   4.233   0.245   9.102  0.9498 -0.2590  0.6560
40840SOL     OW26050   5.307   0.322  10.976 -0.0150 -0.4957  0.5129
40840SOL    HW126051   5.342   0.399  10.931  0.8393 -1.3591 -0.3152
40840SOL    HW226052   5.379   0.291  11.031 -0.5246 -0.4145  1.2432
40841SOL     OW26053   1.232   2.677   7.373  0.2008  0.0001  0.1681
40841SOL    HW126054   1.178   2.755   7.360 -1.1964 -1.0002 -0.1851
40841SOL    HW226055   1.228   2.632   7.289  0.3337 -0.8633  0.6218
40842SOL     OW26056   5.049   9.183   4.708  0.0114  0.2059 -0.5564
40842SOL    HW126057   5.022   9.241   4.780  1.9458  0.1631  0.2828
40842SOL    HW226058   5.090   9.242   4.645 -1.4652  0.2077 -1.5610
40843SOL     OW26059   5.661   0.036   0.870 -0.0262 -0.0150  0.2014
40843SOL    HW126060   5.755   0.052   0.861  0.4439 -2.2714  0.5197
40843SOL    HW226061   5.654  -0.021   0.946 -1.5988 -0.4042 -0.2147
40844SOL     OW26062   4.445   3.110   3.158 -0.1400 -1.0109  0.1674
40844SOL    HW126063   4.536   3.093   3.180  0.1801  0.3351 -0.0519
40844SOL    HW226064   4.416   3.174   3.222 -0.2652  0.2029 -1.0640
40845SOL     OW26065   7.060  11.033   9.353 -0.3501  0.1776 -0.2214
40845SOL    HW126066   7.052  11.126   9.372 -1.4278 -0.1144  0.8731
40845SOL    HW226067   7.061  10.991   9.439 -0.2955 -0.8448 -0.7123
40846SOL     OW26068   5.041   4.862   5.870 -0.5653 -0.0152 -0.2005
40846SOL    HW126069   5.074   4.944   5.904 -2.1873  0.5826  0.0127
40846SOL    HW226070   5.091   4.848   5.789  1.2227  0.0527  0.8418
40847SOL     OW26071  10.594   8.131   7.346 -0.0826 -0.1739 -0.3946
40847SOL    HW126072  10.558   8.096   7.428 -1.2947  0.4945 -0.6190
40847SOL    HW226073  10.650   8.204   7.374 -1.5353  0.9165 -0.1952
40848SOL     OW26074   0.080   1.712  11.038  0.4297 -0.1682 -0.6057
40848SOL    HW126075   0.166   1.732  11.003  0.6227 -0.8229 -0.5225
40848SOL    HW226076   0.095   1.690  11.129  0.3216 -1.2473 -0.8310
40849SOL     OW26077   3.437   0.719   3.107 -0.3011 -0.2450  0.2018
40849SOL    HW126078   3.491   0.725   3.185  0.5587  0.7295 -0.4478
40849SOL    HW226079   3.477   0.779   3.044 -1.0824 -0.8480 -0.9258
40850SOL     OW26080   8.287   9.746   6.252 -0.2272  0.6553 -0.4536
40850SOL    HW126081   8.263   9.819   6.195 -1.3848  0.7181  0.0876
40850SOL    HW226082   8.324   9.681   6.193 -3.2491 -0.1319 -1.6462
40851SOL     OW26083   7.799  10.660   4.319 -1.0187 -0.2969 -0.1881
40851SOL    HW126084   7.765  10.573   4.342 -1.7243  0.0694  0.1668
40851SOL    HW226085   7.773  10.672   4.228 -0.1744 -0.8062 -0.5107
40852SOL     OW26086   7.935   7.701   2.915 -0.6269  0.1430  0.0728
40852SOL    HW126087   7.890   7.620   2.894 -0.0935 -0.3956  0.9533
40852SOL    HW226088   7.900   7.765   2.853 -0.3455 -0.9678 -1.2794
40853SOL     OW26089   0.649   7.744  10.394  0.1099  0.0403  0.1857
40853SOL    HW126090   0.709   7.671  10.409 -3.2477 -3.0259  0.0423
40853SOL    HW226091   0.586   7.738  10.466 -1.8772  0.9584 -1.3672
40854SOL     OW26092   2.484   5.067   8.764  0.2496  0.0258  0.3202
40854SOL    HW126093   2.512   5.065   8.855  0.9076  1.1692  0.1737
40854SOL    HW226094   2.407   5.011   8.760 -0.0575  0.3330  1.6773
40855SOL     OW26095   2.180   1.353   1.390 -0.2922 -0.7037  0.3536
40855SOL    HW126096   2.250   1.405   1.351 -1.2967  1.2618  1.0516
40855SOL    HW226097   2.134   1.316   1.315 -0.8513  1.2108 -0.3211
40856SOL     OW26098   0.185   5.709   2.983 -0.0971  0.0743 -0.3737
40856SOL    HW126099   0.232   5.689   3.064 -1.7895  0.2664  0.7111
40856SOL    HW226100   0.235   5.665   2.914  0.6003 -1.2822  0.9472
40857SOL     OW26101  10.013   1.298   9.234 -0.2500  0.2004 -0.0102
40857SOL    HW126102   9.959   1.249   9.295  1.0304 -0.7408  0.4206
40857SOL    HW226103   9.971   1.287   9.149 -1.4236  0.5665  0.5138
40858SOL     OW26104   6.027   6.413   8.833  0.1378 -0.2459 -0.4725
40858SOL    HW126105   6.012   6.318   8.835  1.1349 -0.4275 -0.8850
40858SOL    HW226106   5.962   6.446   8.771 -1.4919 -0.3751  1.0618
40859SOL     OW26107   2.655   7.440   9.817 -0.2237  0.0959 -0.7946
40859SOL    HW126108   2.682   7.504   9.883 -3.0550  0.7734 -0.1484
40859SOL    HW226109   2.578   7.397   9.856 -0.3715 -1.3830 -2.5845
40860SOL     OW26110   5.534   7.947   0.722  0.1091 -0.0230 -0.2720
40860SOL    HW126111   5.610   7.931   0.665 -0.3907 -0.7881 -0.7317
40860SOL    HW226112   5.466   7.977   0.662 -0.8612 -2.1732 -0.3182
40861SOL     OW26113   6.205   7.680   2.050 -0.4618 -0.1120 -0.2576
40861SOL    HW126114   6.173   7.721   1.970  2.2837  1.6839 -0.5962
40861SOL    HW226115   6.204   7.750   2.115  3.1264  0.3853 -0.4983
40862SOL     OW26116  10.211   4.367   9.283  0.2156  0.7105  0.0024
40862SOL    HW126117  10.262   4.449   9.291 -2.2797  2.1926  2.3743
40862SOL    HW226118  10.253   4.307   9.345  0.5197  1.0704  0.1536
40863SOL     OW26119   5.613  10.601   1.759  0.1783 -0.3183 -0.1142
40863SOL    HW126120   5.543  10.584   1.822 -0.3937  0.5035 -0.5031
40863SOL    HW226121   5.593  10.545   1.685  1.0539 -1.5596  0.5454
40864SOL     OW26122   2.804   7.909   1.265  0.1693  0.0588  0.1563
40864SOL    HW126123   2.799   7.957   1.182 -0.4269 -1.1094 -0.5148
40864SOL    HW226124   2.875   7.847   1.253 -0.0287 -0.2299  0.4541
40865SOL     OW26125   1.659   3.050   6.174 -0.0602 -0.1354  0.3683
40865SOL    HW126126   1.625   3.123   6.123 -2.5343 -1.3213  0.1618
40865SOL    HW226127   1.636   3.071   6.264  2.3328  0.9146  0.7892
40866SOL     OW26128  10.342   1.272   8.849 -0.2586  0.0947  0.3296
40866SOL    HW126129  10.371   1.215   8.920 -1.3971  0.2892  0.9837
40866SOL    HW226130  10.385   1.355   8.866  1.7995 -0.6594 -0.9054
40867SOL     OW26131   2.175   8.138   9.236  0.5323 -0.1993  0.2019
40867SOL    HW126132   2.101   8.084   9.263  0.8832 -1.5778 -1.4063
40867SOL    HW226133   2.251   8.097   9.277  0.3580  2.4968  3.7261
40868SOL     OW26134  10.076   1.695   8.572 -1.5314  0.1992 -0.2164
40868SOL    HW126135  10.065   1.606   8.606  2.8563 -1.1508 -1.6336
40868SOL    HW226136  10.053   1.752   8.646  0.4030 -2.3183  2.5586
40869SOL     OW26137   0.719   0.149  10.379 -0.2219  0.0924 -0.6317
40869SOL    HW126138   0.751   0.059  10.387  0.6099  0.4049 -0.3426
40869SOL    HW226139   0.726   0.184  10.468 -0.3435  0.5041 -0.7824
40870SOL     OW26140   8.767   9.193   8.653  0.0928 -0.6737  0.2841
40870SOL    HW126141   8.672   9.205   8.654  0.3149  1.7563  0.0906
40870SOL    HW226142   8.784   9.134   8.580 -1.1352  0.9561 -1.4167
40871SOL     OW26143   5.775   9.873   3.229  0.4088 -0.4494 -0.8066
40871SOL    HW126144   5.710   9.805   3.244  1.6636 -1.2944  1.1405
40871SOL    HW226145   5.753   9.908   3.142 -2.7592 -0.5099 -0.1656
40872SOL     OW26146   0.887   9.405   1.167  0.3475  0.3372  0.1911
40872SOL    HW126147   0.846   9.346   1.103 -4.0112  1.4229  1.6640
40872SOL    HW226148   0.918   9.346   1.236 -1.3808 -0.4688  0.3306
40873SOL     OW26149   7.654  10.768   7.845  0.3285 -0.4033 -0.2834
40873SOL    HW126150   7.560  10.750   7.856 -0.0516  0.8306 -1.3215
40873SOL    HW226151   7.671  10.750   7.753  1.1904 -0.8645 -0.0486
40874SOL     OW26152   9.690   5.407   5.795  0.4744 -0.0164  0.0341
40874SOL    HW126153   9.717   5.499   5.793 -1.5320  0.6131 -0.8138
40874SOL    HW226154   9.607   5.407   5.843 -0.8311 -0.9539 -2.0340
40875SOL     OW26155   5.317   0.526   3.762 -0.1582  0.1372 -0.3965
40875SOL    HW126156   5.318   0.485   3.675  2.3973 -2.2015  0.5987
40875SOL    HW226157   5.373   0.603   3.752  0.4419 -0.3376 -0.7459
40876SOL     OW26158   5.698   9.583   7.472  0.2826  0.0786 -0.2259
40876SOL    HW126159   5.789   9.576   7.443  0.2691 -0.1719 -0.2086
40876SOL    HW226160   5.685   9.506   7.528  0.1444  0.2661 -0.0033
40877SOL     OW26161  10.425   7.784  10.494 -0.5777  0.2305  0.4444
40877SOL    HW126162  10.332   7.803  10.482 -0.3966  0.6193 -0.3819
40877SOL    HW226163  10.465   7.868  10.516 -0.2887  0.2193 -0.0330
40878SOL     OW26164   9.067   8.204   3.425  0.1020 -0.3027 -0.4928
40878SOL    HW126165   9.092   8.220   3.334  1.2331  0.5802 -0.0481
40878SOL    HW226166   9.095   8.283   3.472  1.4369 -1.5676  0.9659
40879SOL     OW26167   3.987   6.705   0.269  0.1644  0.1392 -0.4904
40879SOL    HW126168   3.950   6.697   0.357  1.4802  0.2022  0.0962
40879SOL    HW226169   4.024   6.794   0.267 -0.7212  0.5010 -1.4642
40880SOL     OW26170   4.545   0.103   5.278  0.1390  0.0920  0.0404
40880SOL    HW126171   4.589   0.143   5.353  0.6711 -0.8636  0.2580
40880SOL    HW226172   4.604   0.118   5.204  0.4422 -0.4617  0.1650
40881SOL     OW26173   9.248   1.836   8.278 -0.1306 -0.3970 -0.0104
40881SOL    HW126174   9.336   1.827   8.241 -0.5588 -0.3421 -1.0700
40881SOL    HW226175   9.252   1.918   8.328  0.4022 -0.3561 -0.1070
40882SOL     OW26176   1.920   9.044   6.551  0.2683  0.1664 -0.4252
40882SOL    HW126177   1.893   9.120   6.602  0.9992 -1.2149  2.2376
40882SOL    HW226178   1.846   9.024   6.494 -0.4804  1.9885 -0.1434
40883SOL     OW26179   1.429   5.103   5.510  0.5295  0.0246 -0.2657
40883SOL    HW126180   1.474   5.027   5.473 -0.2593 -0.8388  0.4858
40883SOL    HW226181   1.460   5.177   5.459  0.9245 -0.8759 -1.3631
40884SOL     OW26182   8.432   1.162   2.186 -0.0360  0.1357 -0.0224
40884SOL    HW126183   8.444   1.247   2.144 -0.7767  0.3718  0.2392
40884SOL    HW226184   8.504   1.108   2.151  1.7281  1.4501  1.4066
40885SOL     OW26185   6.802   3.217  10.478 -0.3490  0.4673  0.4431
40885SOL    HW126186   6.749   3.290  10.511 -1.2008  0.5816 -1.0447
40885SOL    HW226187   6.739   3.147  10.463  0.1063  0.1825 -0.1825
40886SOL     OW26188   5.675   7.320   6.149  0.2341 -0.2779 -0.6788
40886SOL    HW126189   5.712   7.271   6.076  0.1660 -0.6438 -0.4660
40886SOL    HW226190   5.637   7.398   6.108  0.5975 -0.2554 -0.9810
40887SOL     OW26191   4.562   6.463  10.429  0.3249  0.1601 -0.1658
40887SOL    HW126192   4.628   6.525  10.400 -0.4902  0.8616 -0.5756
40887SOL    HW226193   4.550   6.404  10.355  0.5829 -0.0536 -0.0403
40888SOL     OW26194   7.723   2.062   4.002  0.1004 -0.1099 -0.0937
40888SOL    HW126195   7.812   2.040   3.977  0.9546  1.0773  1.6426
40888SOL    HW226196   7.712   2.023   4.089 -1.1886 -0.5091 -0.4166
40889SOL     OW26197   7.402   4.961   7.864 -0.6430  0.1046 -0.0186
40889SOL    HW126198   7.475   4.945   7.804 -1.3102 -1.7573 -0.3721
40889SOL    HW226199   7.358   5.038   7.828  0.1412  0.2269 -0.7549
40890SOL     OW26200   5.341   0.951   2.606  0.5362 -0.0403  0.1221
40890SOL    HW126201   5.305   0.908   2.528  0.8253 -0.3684  0.1665
40890SOL    HW226202   5.405   1.013   2.572  0.6116 -0.1330  0.0963
40891SOL     OW26203   9.067   4.791   7.689 -0.1213 -0.2197 -0.1697
40891SOL    HW126204   8.991   4.766   7.636 -1.7297  0.6634  1.6051
40891SOL    HW226205   9.044   4.765   7.778  2.0883 -0.7783  0.3060
40892SOL     OW26206  10.751   5.904   8.630  0.2696  0.4496  0.2360
40892SOL    HW126207  10.830   5.865   8.594  0.3466 -0.6608  1.5197
40892SOL    HW226208  10.781   5.952   8.707  0.3152  3.9399 -1.7814
40893SOL     OW26209   6.301   2.331   2.882 -1.1212  0.4077 -0.2279
40893SOL    HW126210   6.353   2.378   2.817 -1.8109 -0.0272 -1.1039
40893SOL    HW226211   6.261   2.259   2.834 -0.8179 -0.5433  0.8948
40894SOL     OW26212   4.872  10.732   3.049 -0.5794 -0.2962 -0.3247
40894SOL    HW126213   4.859  10.788   2.972  0.9429  0.4722 -0.0528
40894SOL    HW226214   4.877  10.643   3.014 -0.9943 -0.0618 -0.9904
40895SOL     OW26215   7.051   4.164   9.396 -0.1342  0.2476  0.4040
40895SOL    HW126216   7.042   4.108   9.474 -0.4561 -0.7148 -0.3115
40895SOL    HW226217   6.961   4.186   9.372 -0.0141  1.0850  0.6593
40896SOL     OW26218   2.868   5.682   8.062 -0.1585 -0.3376  0.3448
40896SOL    HW126219   2.950   5.725   8.085  0.3329 -1.7625  1.4021
40896SOL    HW226220   2.887   5.636   7.981  0.6463 -2.0270  1.4374
40897SOL     OW26221   2.972   2.704   4.619 -0.5641 -0.2028  0.3332
40897SOL    HW126222   3.016   2.631   4.661 -0.3356 -0.7266 -0.7712
40897SOL    HW226223   3.040   2.742   4.562 -1.2086 -0.3287 -0.5395
40898SOL     OW26224   6.341   6.257   8.383 -0.6546  0.3598 -0.3126
40898SOL    HW126225   6.434   6.278   8.373 -0.2307 -0.2795  1.8075
40898SOL    HW226226   6.340   6.175   8.432 -2.3574  0.0145 -0.8565
40899SOL     OW26227   3.852   9.487   5.110  0.2211 -0.3017 -0.0454
40899SOL    HW126228   3.938   9.519   5.138  0.5521  0.0635 -1.4280
40899SOL    HW226229   3.841   9.405   5.159  0.2983  0.7982  1.9165
40900SOL     OW26230  10.573  11.117   7.848  0.0706 -0.4531 -0.2513
40900SOL    HW126231  10.633  11.159   7.787  0.2495 -0.9904 -0.4471
40900SOL    HW226232  10.628  11.059   7.900 -0.1878 -0.5010 -0.0290
40901SOL     OW26233   3.953   9.088  10.603 -0.8349  0.4873  0.5897
40901SOL    HW126234   4.014   9.152  10.567 -1.0904 -0.1659 -1.0977
40901SOL    HW226235   4.000   9.047  10.676 -0.0841  1.4766  0.6785
40902SOL     OW26236   3.635   9.045   0.327  0.2326  0.2893 -0.2985
40902SOL    HW126237   3.587   9.072   0.406 -1.2306 -2.1318 -0.2603
40902SOL    HW226238   3.726   9.065   0.347 -0.2924  1.4285  1.2385
40903SOL     OW26239   2.169   0.939   3.073 -0.1388  0.0890  0.4769
40903SOL    HW126240   2.081   0.908   3.054 -0.9099  1.5602  1.4377
40903SOL    HW226241   2.214   0.938   2.988 -1.2026 -0.2684 -0.0983
40904SOL     OW26242   4.129   5.211   5.512  0.0534  0.5088  0.4214
40904SOL    HW126243   4.169   5.255   5.587 -1.6914  1.7401  0.7174
40904SOL    HW226244   4.082   5.281   5.466 -0.7303 -0.6126 -0.5575
40905SOL     OW26245   4.995   3.736   0.372 -0.4157 -0.1493  0.0692
40905SOL    HW126246   4.932   3.683   0.420  0.3400 -0.2979  0.9062
40905SOL    HW226247   5.070   3.744   0.430  0.4672 -0.2172 -1.0326
40906SOL     OW26248   1.342  10.471   0.293  0.5782  0.3423 -0.6229
40906SOL    HW126249   1.272  10.433   0.239  0.5708  0.9196 -1.0184
40906SOL    HW226250   1.365  10.553   0.249 -0.3690  1.5141  0.9688
40907SOL     OW26251   1.267   0.698   7.943 -0.0732 -0.5047 -0.3471
40907SOL    HW126252   1.272   0.644   8.021 -0.7319 -0.7370 -0.4548
40907SOL    HW226253   1.258   0.636   7.871  2.2402 -0.3778 -0.8190
40908SOL     OW26254   6.345   4.323  11.004 -0.4927  0.2464 -0.1426
40908SOL    HW126255   6.309   4.234  11.004 -0.5642  0.2363  1.6594
40908SOL    HW226256   6.367   4.340  11.095 -0.1857  1.9817 -0.4995
40909SOL     OW26257   8.902  10.193   7.703  0.5404  0.4213 -0.5594
40909SOL    HW126258   8.860  10.108   7.709  0.0661  0.7492  1.4949
40909SOL    HW226259   8.835  10.255   7.733  0.4200  1.7348 -3.1873
40910SOL     OW26260   8.549   4.259   8.185  0.2398 -0.2714 -0.3677
40910SOL    HW126261   8.469   4.290   8.142 -0.1605 -1.8239 -0.7901
40910SOL    HW226262   8.519   4.231   8.272  0.3467 -0.6781 -0.4598
40911SOL     OW26263  10.037   9.114   2.518  0.0464  0.6794  0.2274
40911SOL    HW126264   9.957   9.098   2.468  0.8869  2.9242 -2.0257
40911SOL    HW226265  10.017   9.082   2.606 -3.1010  0.6176 -0.4016
40912SOL     OW26266   9.738   6.337   7.873  0.3939  0.1443 -0.2127
40912SOL    HW126267   9.713   6.416   7.825 -1.5363 -1.1863 -1.5927
40912SOL    HW226268   9.671   6.329   7.942 -0.2326 -0.9248 -0.9103
40913SOL     OW26269   0.901   8.691   6.445  0.1174  0.4862  0.0995
40913SOL    HW126270   0.845   8.614   6.442 -1.7290  1.7890 -0.7668
40913SOL    HW226271   0.912   8.709   6.538  0.5041 -0.7412  0.3138
40914SOL     OW26272   9.756   8.217   9.048 -0.2750 -0.6747  0.1570
40914SOL    HW126273   9.794   8.241   9.132 -0.4419 -1.0317  0.3391
40914SOL    HW226274   9.704   8.139   9.067 -1.1976 -0.1268 -0.0572
40915SOL     OW26275   6.805   9.945   8.860  0.0473  0.2886  0.6861
40915SOL    HW126276   6.825  10.004   8.787 -1.7056  2.1908  1.6331
40915SOL    HW226277   6.890   9.911   8.887  1.0617  1.8212 -0.3917
40916SOL     OW26278   6.972   8.496   3.504 -0.0374  0.7574 -0.2723
40916SOL    HW126279   7.002   8.527   3.589  0.6284 -0.1741 -0.1534
40916SOL    HW226280   7.013   8.410   3.494  1.8562  1.8296 -2.6051
40917SOL     OW26281   8.435  11.029   6.403  0.6097  0.1327  0.0915
40917SOL    HW126282   8.454  11.121   6.423 -0.1171  1.1089 -3.0974
40917SOL    HW226283   8.520  10.986   6.407  1.2012  1.2632  0.1730
40918SOL     OW26284   4.505   5.040   5.579  0.0215  0.0277 -0.1660
40918SOL    HW126285   4.583   5.082   5.544 -0.1724  0.8883  0.4032
40918SOL    HW226286   4.440   5.048   5.509 -0.8618  3.1508  0.8409
40919SOL     OW26287   4.275   0.385   0.920 -0.7222  0.1979  0.0943
40919SOL    HW126288   4.295   0.300   0.959  1.5379  0.7726  0.3460
40919SOL    HW226289   4.282   0.447   0.993  0.7134  0.9349 -0.6288
40920SOL     OW26290   9.076   5.734   5.317 -0.2581 -0.2968  0.1692
40920SOL    HW126291   9.112   5.696   5.397  0.6056  1.3704  0.6264
40920SOL    HW226292   8.981   5.729   5.328 -0.1889 -2.1438  0.2430
40921SOL     OW26293   0.969   8.441   9.194  0.0711 -0.0931 -0.4407
40921SOL    HW126294   1.043   8.384   9.214  0.7716  0.9949  0.1410
40921SOL    HW226295   0.909   8.430   9.267  0.5444  0.4553  0.0394
40922SOL     OW26296   5.852   8.077   1.522  0.3694 -0.1053 -0.1139
40922SOL    HW126297   5.947   8.067   1.532  0.5598  0.0514 -1.5604
40922SOL    HW226298   5.840   8.168   1.494  0.1470 -0.9373 -3.1308
40923SOL     OW26299   7.550   4.334   2.862 -0.1447 -0.4566 -0.0724
40923SOL    HW126300   7.558   4.243   2.833  0.4206 -0.1091 -1.1059
40923SOL    HW226301   7.609   4.382   2.803  0.3065  0.4453  1.0874
40924SOL     OW26302   2.124   7.182   4.996 -0.3391 -0.3784  0.1557
40924SOL    HW126303   2.210   7.161   4.960  0.3628  0.6153  1.1823
40924SOL    HW226304   2.063   7.155   4.928  0.8310 -0.1291 -1.0527
40925SOL     OW26305   6.293   9.197   2.749 -0.1075  0.2633  0.1481
40925SOL    HW126306   6.223   9.234   2.695  0.8710  0.0334 -1.3747
40925SOL    HW226307   6.326   9.124   2.697  0.5480 -0.3006  1.3291
40926SOL     OW26308   1.791  10.734  10.475  0.2126  0.2745 -0.1006
40926SOL    HW126309   1.797  10.798  10.546  0.4935 -1.2981  1.3824
40926SOL    HW226310   1.854  10.764  10.410 -0.6074  2.1909 -0.0652
40927SOL     OW26311   1.076   5.230   7.771  0.0619  0.0329  0.4641
40927SOL    HW126312   1.058   5.222   7.865  1.0326 -1.0859  0.5788
40927SOL    HW226313   1.089   5.324   7.757  1.2530  0.0841  1.7118
40928SOL     OW26314   2.605   6.191  10.309  0.3516  0.4095  0.3069
40928SOL    HW126315   2.662   6.204  10.385  1.0672  0.1669 -0.1764
40928SOL    HW226316   2.609   6.097  10.292 -1.2785  0.1529  1.0849
40929SOL     OW26317   6.528   3.388   9.375 -0.1041 -0.1409  0.1128
40929SOL    HW126318   6.457   3.408   9.315 -0.5222  0.6519  0.8457
40929SOL    HW226319   6.563   3.474   9.400  0.6267 -0.4942  0.3207
40930SOL     OW26320   7.736   4.516   0.359  0.3332 -0.4518 -0.4636
40930SOL    HW126321   7.808   4.577   0.376  0.5694 -0.6630 -0.6982
40930SOL    HW226322   7.702   4.494   0.446 -0.0903  0.4165 -0.4008
40931SOL     OW26323   1.481  10.004   0.900  0.1869  0.4475 -0.0017
40931SOL    HW126324   1.395  10.042   0.918  0.1572 -0.1165  1.1128
40931SOL    HW226325   1.471   9.959   0.816 -0.7119  0.0813  0.2950
40932SOL     OW26326  10.273   3.866   8.256  0.6580 -0.8455  0.0632
40932SOL    HW126327  10.238   3.940   8.207 -0.7936 -0.2487  1.8564
40932SOL    HW226328  10.366   3.865   8.237  0.8534  1.9090  0.5125
40933SOL     OW26329   5.183   6.481  10.246  0.2570  0.1782  0.2637
40933SOL    HW126330   5.106   6.488  10.189 -0.1194 -0.3909  0.6846
40933SOL    HW226331   5.146   6.466  10.333  0.8340  0.8136  0.6177
40934SOL     OW26332   3.526   9.405   0.174  0.3219 -0.3266 -0.0137
40934SOL    HW126333   3.611   9.392   0.216  0.4729  0.4158 -0.0797
40934SOL    HW226334   3.516   9.328   0.117  1.7110  0.3622 -1.2750
40935SOL     OW26335   9.921   3.560   3.802  0.3182 -0.0134 -0.2693
40935SOL    HW126336   9.993   3.499   3.784 -0.1478 -1.0968  1.2981
40935SOL    HW226337   9.958   3.624   3.862 -0.0515 -0.7243  0.7509
40936SOL     OW26338   0.555   5.155   0.586  0.4235  0.0281 -0.3952
40936SOL    HW126339   0.646   5.157   0.556  0.4324 -0.3011 -0.3940
40936SOL    HW226340   0.524   5.245   0.576  0.7080  0.1118 -0.5232
40937SOL     OW26341   0.115   5.976   0.865  0.7349 -0.3613 -0.6107
40937SOL    HW126342   0.034   5.971   0.915  0.4632  0.0390 -1.0052
40937SOL    HW226343   0.180   5.935   0.921  0.7652  1.4260  0.7587
40938SOL     OW26344   6.280   9.081   6.057 -0.3014  0.1690  0.2867
40938SOL    HW126345   6.299   9.125   6.139 -2.2988 -0.2666  1.0278
40938SOL    HW226346   6.229   9.144   6.006 -1.9614 -0.7027  0.7861
40939SOL     OW26347   8.729   7.622   3.711  0.2111  0.6578 -0.2389
40939SOL    HW126348   8.704   7.543   3.664 -2.9180  2.0130 -1.0877
40939SOL    HW226349   8.751   7.592   3.799  3.4200 -1.5835 -1.5911
40940SOL     OW26350  10.165   6.032   8.464 -0.6404  0.7999  0.2669
40940SOL    HW126351  10.108   6.092   8.416 -2.7802 -1.4832 -0.2419
40940SOL    HW226352  10.246   6.028   8.413 -1.8888  0.4228 -1.7787
40941SOL     OW26353   3.402   0.650   5.336 -0.0314 -0.4414 -0.4241
40941SOL    HW126354   3.419   0.584   5.403 -0.9828 -0.6220 -0.3566
40941SOL    HW226355   3.489   0.672   5.303  0.4097 -0.7076  0.5202
40942SOL     OW26356  10.765   8.885   2.153  0.2428  0.0957  0.2515
40942SOL    HW126357  10.716   8.804   2.141 -0.0231  0.3841 -0.7042
40942SOL    HW226358  10.851   8.857   2.184  0.3155 -0.5796 -0.5556
40943SOL     OW26359   1.329   5.634  10.863 -0.2533  0.3140  0.0027
40943SOL    HW126360   1.373   5.550  10.877  0.7996  0.7662 -0.4690
40943SOL    HW226361   1.277   5.622  10.783  1.1877  0.5780 -1.0153
40944SOL     OW26362   5.063   5.536   8.053 -0.0335  0.1942 -0.2458
40944SOL    HW126363   5.063   5.625   8.089 -1.1136  0.5700 -1.1075
40944SOL    HW226364   4.978   5.500   8.081  0.2141 -0.4158 -0.2703
40945SOL     OW26365   8.432   0.490   0.771 -0.4415  0.6906 -0.3445
40945SOL    HW126366   8.350   0.439   0.771  0.5416 -0.9553  0.0851
40945SOL    HW226367   8.443   0.518   0.862  0.0493 -0.0879 -0.1557
40946SOL     OW26368   7.082   5.900  10.946  0.1522  0.3283  0.0635
40946SOL    HW126369   6.995   5.878  10.980  0.0870 -1.3803 -1.1279
40946SOL    HW226370   7.075   5.888  10.851  1.7164  0.0435 -0.0425
40947SOL     OW26371   2.755   2.831   6.194  0.8533 -0.0234 -0.7859
40947SOL    HW126372   2.716   2.747   6.169  2.5757 -1.1337  0.0623
40947SOL    HW226373   2.701   2.862   6.266 -1.2551  0.8449 -2.6345
40948SOL     OW26374   5.177   5.284   6.144 -0.3983  0.4161 -0.0528
40948SOL    HW126375   5.087   5.297   6.176 -0.3240  1.3096 -0.2041
40948SOL    HW226376   5.174   5.311   6.052 -0.2728 -0.8001 -0.4388
40949SOL     OW26377   1.215   2.987   3.338 -0.0148  0.8394 -0.4334
40949SOL    HW126378   1.201   3.067   3.288  0.2827  1.6930  0.8098
40949SOL    HW226379   1.280   3.011   3.404 -1.1885  0.0756  1.0638
40950SOL     OW26380   1.043   7.253   8.875  0.4140 -0.1596  0.0764
40950SOL    HW126381   1.124   7.262   8.825  0.6160  1.5022  0.6483
40950SOL    HW226382   1.072   7.250   8.966 -0.1458  0.0060  0.2589
40951SOL     OW26383   0.770   2.314   9.397 -0.2431 -0.6604  0.3522
40951SOL    HW126384   0.750   2.369   9.321  0.1891  0.4004  0.9752
40951SOL    HW226385   0.686   2.274   9.420 -0.1350 -2.0146 -1.4179
40952SOL     OW26386   0.439   1.465   4.923  0.7156 -0.6869  0.1140
40952SOL    HW126387   0.511   1.410   4.954 -0.2602 -1.1143  1.7528
40952SOL    HW226388   0.441   1.542   4.980 -0.8889 -1.3103  1.1042
40953SOL     OW26389   4.576   0.427   7.611 -0.0075  0.4776 -0.1839
40953SOL    HW126390   4.624   0.426   7.528  0.1279 -1.3908 -0.1392
40953SOL    HW226391   4.485   0.411   7.585 -0.1556  1.1326 -0.0626
40954SOL     OW26392   4.165   5.163   8.202  0.2518 -0.5771 -0.5866
40954SOL    HW126393   4.260   5.168   8.205  0.3109  0.6043 -2.3510
40954SOL    HW226394   4.140   5.118   8.282  2.1993  0.3740  0.6390
40955SOL     OW26395   4.395   6.634   4.944  0.5484 -0.0222  0.4448
40955SOL    HW126396   4.447   6.556   4.965  0.1412 -0.6940 -0.9290
40955SOL    HW226397   4.458   6.706   4.945  0.9948 -0.4103  1.3893
40956SOL     OW26398   3.712   0.713   1.437  0.0501  0.0145 -0.1674
40956SOL    HW126399   3.724   0.769   1.360  1.6137  1.1458  0.8474
40956SOL    HW226400   3.674   0.770   1.504 -2.4112 -1.2376 -0.3600
40957SOL     OW26401   0.848   4.654   4.829  0.4636 -0.0932 -0.2101
40957SOL    HW126402   0.897   4.733   4.852  0.1231 -0.4139  1.7246
40957SOL    HW226403   0.824   4.668   4.737 -0.8341  2.7191  0.4320
40958SOL     OW26404   1.298   8.381   9.487 -0.5700  0.0326  0.7032
40958SOL    HW126405   1.210   8.377   9.525 -1.1332  0.8444 -0.4409
40958SOL    HW226406   1.334   8.464   9.519 -1.5095  1.3318 -1.3650
40959SOL     OW26407   9.311   5.030   8.998  0.0831  0.2583  0.1984
40959SOL    HW126408   9.371   4.965   8.962  1.6958  2.7946 -2.0036
40959SOL    HW226409   9.365   5.082   9.057 -1.0737  0.0253  1.5408
40960SOL     OW26410   3.909   7.633   1.162  0.0577 -0.6690  0.2953
40960SOL    HW126411   3.822   7.593   1.166  0.4680 -1.5585  0.9130
40960SOL    HW226412   3.899   7.718   1.204 -0.7569 -0.2625 -0.6882
40961SOL     OW26413   1.879   3.543   8.506 -0.2561  0.4911  0.4752
40961SOL    HW126414   1.941   3.477   8.538 -0.0247  1.0167  1.1168
40961SOL    HW226415   1.796   3.495   8.498  0.2856 -0.3040 -0.7215
40962SOL     OW26416   2.599   4.706   9.042 -0.7889  0.0150 -0.1272
40962SOL    HW126417   2.607   4.764   8.967 -2.5317 -0.4593 -0.7370
40962SOL    HW226418   2.528   4.745   9.094 -1.8257 -1.4032 -0.4273
40963SOL     OW26419   3.464  11.081   3.762 -0.3966  0.1333  0.2047
40963SOL    HW126420   3.390  11.129   3.726 -0.7373 -0.2038  0.4443
40963SOL    HW226421   3.425  11.023   3.828  0.0366 -0.2687  0.1141
40964SOL     OW26422   6.280   6.133   3.578 -0.1295  0.0134  0.0288
40964SOL    HW126423   6.294   6.120   3.672  1.0472  0.9947  0.0135
40964SOL    HW226424   6.307   6.223   3.562  0.0261 -0.2538 -1.3152
40965SOL     OW26425   4.834   7.674   8.877 -0.0776  0.2001 -0.1362
40965SOL    HW126426   4.754   7.666   8.929 -0.3939  0.4349 -0.5894
40965SOL    HW226427   4.898   7.619   8.923 -1.0708 -1.6816 -0.9270
40966SOL     OW26428   8.706   5.593   3.886  0.2291  0.6098  0.0926
40966SOL    HW126429   8.626   5.635   3.918 -0.1380 -0.5244  0.6942
40966SOL    HW226430   8.776   5.650   3.919 -0.2573  0.7780  0.8786
40967SOL     OW26431   9.641   8.307   6.359  0.2625  0.1113 -0.3649
40967SOL    HW126432   9.554   8.282   6.391  0.3147 -0.6398 -0.7661
40967SOL    HW226433   9.660   8.242   6.291  1.6570 -0.4641  0.5451
40968SOL     OW26434   3.587   0.805   6.711 -0.1530 -0.3198 -0.3282
40968SOL    HW126435   3.515   0.778   6.769  0.9546 -1.3257  0.6568
40968SOL    HW226436   3.548   0.811   6.624 -1.7137  0.4935  0.3955
40969SOL     OW26437   9.301   1.417   8.387 -0.3483  0.1746 -0.3288
40969SOL    HW126438   9.244   1.456   8.320 -0.5379 -1.3176 -1.0995
40969SOL    HW226439   9.260   1.332   8.405  0.3793  0.0511  0.8178
40970SOL     OW26440   5.879   2.151   9.794  0.2656 -0.0982 -0.6353
40970SOL    HW126441   5.878   2.184   9.704 -0.5462 -2.3068 -1.4920
40970SOL    HW226442   5.956   2.094   9.798  0.4385  0.1727  0.1666
40971SOL     OW26443   8.720  10.217   1.964  0.6717  0.4522  0.3633
40971SOL    HW126444   8.674  10.212   1.880  0.7472  1.1940  0.2702
40971SOL    HW226445   8.661  10.268   2.020  1.4658  1.6242  0.1700
40972SOL     OW26446   9.338   4.102   9.774 -0.0638  0.0682 -0.3297
40972SOL    HW126447   9.269   4.103   9.707  1.1848  1.3701 -1.6840
40972SOL    HW226448   9.312   4.171   9.835 -0.4544 -0.1164 -0.2830
40973SOL     OW26449   2.601   8.466   0.300 -0.5449  0.1352  0.3676
40973SOL    HW126450   2.628   8.556   0.281 -0.1434 -0.1271 -0.3371
40973SOL    HW226451   2.669   8.411   0.261 -2.2123 -0.5600 -1.7828
40974SOL     OW26452  10.008   2.610   0.100  0.0501 -0.0499 -0.2304
40974SOL    HW126453  10.025   2.533   0.153 -0.7483  1.0881  1.7821
40974SOL    HW226454   9.923   2.593   0.059  1.3292 -1.5717 -2.4882
40975SOL     OW26455   1.768   3.855   4.196 -0.1508 -0.1380  0.6307
40975SOL    HW126456   1.860   3.878   4.213  0.8768 -0.8562 -3.0854
40975SOL    HW226457   1.732   3.932   4.151 -0.9571 -0.4197  0.7793
40976SOL     OW26458   1.852  10.545   8.019  0.3957 -0.0195 -0.3570
40976SOL    HW126459   1.881  10.474   8.076  1.2067 -0.5830 -1.4334
40976SOL    HW226460   1.932  10.589   7.992 -0.0163  0.5635 -0.6537
40977SOL     OW26461   0.954   9.180   0.726  0.2945  0.6499 -0.1918
40977SOL    HW126462   0.987   9.139   0.646 -1.1168  1.1758 -1.0756
40977SOL    HW226463   0.955   9.274   0.707 -1.3310  0.7026 -0.1313
40978SOL     OW26464   9.440   9.501   8.068  0.0564  0.5672 -0.2006
40978SOL    HW126465   9.481   9.435   8.124 -1.4869 -0.5040 -0.2618
40978SOL    HW226466   9.346   9.489   8.083 -0.3716  0.7982 -2.3965
40979SOL     OW26467   0.154   0.326   4.359  0.6690 -0.0365  0.1186
40979SOL    HW126468   0.079   0.385   4.358  2.8874  3.0302  0.6802
40979SOL    HW226469   0.160   0.295   4.449 -0.8499 -1.7059 -0.3087
40980SOL     OW26470   0.503   9.206   2.035  0.3016  0.9397 -0.1729
40980SOL    HW126471   0.546   9.250   2.108  0.8623  0.7803 -0.4030
40980SOL    HW226472   0.574   9.166   1.986  0.0460  2.0141 -1.4700
40981SOL     OW26473   9.711   3.884   6.574 -0.0359 -0.1149  0.2592
40981SOL    HW126474   9.655   3.897   6.651  0.6267  0.3938  0.6635
40981SOL    HW226475   9.763   3.964   6.568  0.2358 -0.3375 -0.4572
40982SOL     OW26476   3.697   3.363   4.500  0.5272 -0.0864 -0.6350
40982SOL    HW126477   3.687   3.288   4.558 -1.6874  0.5946 -0.0320
40982SOL    HW226478   3.666   3.332   4.415  0.9379 -0.2316 -0.7354
40983SOL     OW26479   0.853   3.023   3.132 -0.1021  0.1380 -0.5316
40983SOL    HW126480   0.809   2.951   3.177  0.2150  0.2769  0.0076
40983SOL    HW226481   0.866   3.090   3.199  1.0653  0.0348 -0.6228
40984SOL     OW26482   3.514   3.701   3.071 -0.2175 -0.5661  0.5896
40984SOL    HW126483   3.530   3.788   3.106 -1.9500 -0.0004  0.0820
40984SOL    HW226484   3.544   3.706   2.980 -4.3268  1.0277 -0.9064
40985SOL     OW26485   5.745   0.734   6.061  0.7756  0.1500 -0.4905
40985SOL    HW126486   5.781   0.663   6.007  1.2626  1.4966 -2.0255
40985SOL    HW226487   5.822   0.777   6.098  0.4972  0.0506  0.2177
40986SOL     OW26488   6.178   6.347   8.137  0.2126  0.6622 -0.0725
40986SOL    HW126489   6.111   6.406   8.171 -1.5952 -1.0985 -0.4127
40986SOL    HW226490   6.235   6.330   8.212 -0.4096  1.2378  0.5451
40987SOL     OW26491   1.423   6.234   9.968 -0.0871  0.2224  0.2369
40987SOL    HW126492   1.442   6.246   9.874 -2.9950  1.0542 -0.3620
40987SOL    HW226493   1.372   6.153   9.972 -1.5584  1.1178  0.7524
40988SOL     OW26494   5.577   1.715   9.182 -0.2230 -0.0006 -0.0370
40988SOL    HW126495   5.652   1.673   9.140  0.1142 -0.2103  0.7419
40988SOL    HW226496   5.521   1.642   9.210  0.3296  0.0394  1.2592
40989SOL     OW26497   1.267   2.090   4.631  0.2209  0.1609 -0.6034
40989SOL    HW126498   1.203   2.023   4.654 -2.1059  2.0739 -1.1260
40989SOL    HW226499   1.295   2.126   4.716  0.6352 -0.6688 -0.3739
40990SOL     OW26500   9.118   9.366   6.351  0.1677 -0.7066 -0.1466
40990SOL    HW126501   9.201   9.325   6.378 -1.0469 -1.9385  2.0175
40990SOL    HW226502   9.084   9.406   6.431 -0.8564  0.6919 -1.2351
40991SOL     OW26503   2.814   1.112   1.183 -0.4362  0.0445 -0.1528
40991SOL    HW126504   2.903   1.141   1.165 -0.1506  0.1948  1.3872
40991SOL    HW226505   2.796   1.142   1.272 -1.4348 -1.3715  0.1592
40992SOL     OW26506   9.475   2.654   9.653  0.4466 -0.0086  0.3002
40992SOL    HW126507   9.500   2.579   9.599  1.4489  1.3300 -1.1962
40992SOL    HW226508   9.380   2.661   9.643  0.7005  0.8300 -2.2784
40993SOL     OW26509   7.881   0.527   5.688  0.2657 -0.5734 -0.3278
40993SOL    HW126510   7.796   0.502   5.724  0.1834 -0.0090 -0.1122
40993SOL    HW226511   7.900   0.460   5.622  0.2565 -1.4420  0.5217
40994SOL     OW26512   8.389  10.588   5.723  0.4450  0.2560 -0.5058
40994SOL    HW126513   8.366  10.681   5.723 -0.5822  0.0325 -1.5592
40994SOL    HW226514   8.478  10.585   5.756 -0.0407  1.4696  1.0464
40995SOL     OW26515   1.237   1.213  10.230 -0.3217 -0.4733 -0.0724
40995SOL    HW126516   1.146   1.207  10.201 -0.4556  1.4494 -0.1675
40995SOL    HW226517   1.234   1.191  10.323 -0.7987 -0.8778 -0.1784
40996SOL     OW26518   7.771   3.441   6.057 -0.4957 -0.2429  0.2672
40996SOL    HW126519   7.722   3.366   6.089 -0.5670 -0.6433 -0.7487
40996SOL    HW226520   7.715   3.517   6.076  0.1447 -0.2372  2.5202
40997SOL     OW26521   9.930   8.836   1.867 -0.3349 -0.2828  0.3706
40997SOL    HW126522   9.857   8.890   1.837  0.5992  0.3469 -0.8391
40997SOL    HW226523  10.002   8.898   1.880  0.5831 -1.1407 -0.4723
40998SOL     OW26524   4.947   0.365   7.647  0.1528  0.4537  0.0008
40998SOL    HW126525   4.892   0.424   7.699  0.0772  0.8985 -0.5735
40998SOL    HW226526   5.019   0.421   7.616  2.2441 -0.5603  2.5872
40999SOL     OW26527   9.646   5.827   7.619  0.1630 -0.9636 -0.0583
40999SOL    HW126528   9.695   5.893   7.569 -0.7601  0.4704  0.8505
40999SOL    HW226529   9.699   5.748   7.611  0.8125 -0.4033 -2.0211
41000SOL     OW26530   0.947   1.151   2.608  0.2756 -0.0195 -0.3235
41000SOL    HW126531   0.889   1.223   2.583 -1.4012 -1.1024  0.3290
41000SOL    HW226532   0.946   1.092   2.533 -0.0167 -0.3616 -0.0569
41001SOL     OW26533   6.936  10.409   0.135 -0.1976  0.3091  0.2512
41001SOL    HW126534   7.005  10.368   0.187 -0.1821  1.0135  0.8009
41001SOL    HW226535   6.951  10.378   0.045 -1.1222 -2.1107  0.8701
41002SOL     OW26536   6.637   2.974   3.594 -0.6523 -0.2685  0.4653
41002SOL    HW126537   6.579   2.923   3.539  0.1358 -1.6766  0.8872
41002SOL    HW226538   6.636   3.062   3.556 -1.2095 -0.8589 -0.9301
41003SOL     OW26539  11.041   2.546   9.117 -0.3707 -0.0509 -0.3610
41003SOL    HW126540  11.059   2.636   9.146  0.3529 -0.2258 -0.2326
41003SOL    HW226541  10.946   2.537   9.124 -0.8568  1.6771 -3.2710
41004SOL     OW26542   9.649   4.728   4.213 -0.5778 -0.2685  0.3464
41004SOL    HW126543   9.737   4.693   4.224 -0.1870  0.9439  1.3337
41004SOL    HW226544   9.593   4.651   4.200  0.8031 -0.9900 -1.7937
41005SOL     OW26545   6.093   7.030   0.050  0.2462 -0.4443 -0.1519
41005SOL    HW126546   6.032   7.095   0.085  2.1931  0.9265  0.8984
41005SOL    HW226547   6.124   7.068  -0.032  0.5104 -0.6109 -0.1295
41006SOL     OW26548   6.870   4.416   4.821 -0.2965 -0.4105 -0.4357
41006SOL    HW126549   6.775   4.406   4.812 -1.0330  2.5788  2.3430
41006SOL    HW226550   6.892   4.490   4.764  0.1356 -0.2294 -0.0403
41007SOL     OW26551   0.160   6.312   4.765  0.0123 -0.4598  0.0090
41007SOL    HW126552   0.166   6.291   4.858 -2.2296 -0.7522  0.1504
41007SOL    HW226553   0.121   6.399   4.761  0.1807 -0.4043 -0.6398
41008SOL     OW26554  10.684   6.443   9.805  1.3378 -0.2858 -0.4087
41008SOL    HW126555  10.686   6.474   9.714  2.3422  0.2277 -0.2264
41008SOL    HW226556  10.767   6.472   9.841  1.5791 -1.7696  0.2617
41009SOL     OW26557   7.456   6.781   5.872  0.2783 -0.0597  0.6362
41009SOL    HW126558   7.461   6.817   5.961  0.0583 -1.4774  1.2569
41009SOL    HW226559   7.433   6.689   5.885  0.6684 -0.3989 -0.8856
41010SOL     OW26560   8.340   0.772   3.635  0.4486 -0.6258 -0.1778
41010SOL    HW126561   8.283   0.804   3.706  1.3571 -0.5200  0.5289
41010SOL    HW226562   8.325   0.832   3.563 -0.9114 -1.0549 -0.2897
41011SOL     OW26563   1.603   6.304   6.757 -0.0329 -0.2982 -0.5852
41011SOL    HW126564   1.660   6.316   6.682 -1.6272  3.0459 -1.4328
41011SOL    HW226565   1.639   6.361   6.825 -1.2547  0.4229 -0.5055
41012SOL     OW26566   6.463   7.830   9.194  0.1631 -0.0037 -0.5650
41012SOL    HW126567   6.553   7.802   9.176  0.3580 -0.5143  1.0222
41012SOL    HW226568   6.429   7.858   9.109  1.1196 -1.8330 -1.6138
41013SOL     OW26569  10.760   9.275   0.833 -0.0110  0.1134  0.3259
41013SOL    HW126570  10.791   9.233   0.752 -0.2659  0.5356  0.0083
41013SOL    HW226571  10.798   9.221   0.903 -1.2249 -1.3349 -0.0733
41014SOL     OW26572   2.973   7.417   0.886  0.1308 -0.5700 -0.4542
41014SOL    HW126573   2.918   7.399   0.810 -0.0681  1.1645 -0.7604
41014SOL    HW226574   2.950   7.349   0.949  0.7405 -2.4133 -2.1395
41015SOL     OW26575   2.728   2.214   8.843  0.1798 -0.1696 -0.3960
41015SOL    HW126576   2.687   2.276   8.783  2.0945  0.3278 -1.2419
41015SOL    HW226577   2.788   2.163   8.789  2.6936  0.9198  1.1659
41016SOL     OW26578   8.266   9.000   1.647  0.1940  0.6086  0.0652
41016SOL    HW126579   8.270   8.933   1.579 -1.1526 -0.6111  1.1439
41016SOL    HW226580   8.354   9.001   1.685  0.0738 -1.0391  0.4648
41017SOL     OW26581   1.336   0.800   9.402  0.1993  0.4488  0.0878
41017SOL    HW126582   1.346   0.825   9.310  0.1352 -1.5807 -0.5120
41017SOL    HW226583   1.253   0.840   9.429  0.2377  1.0865 -0.7164
41018SOL     OW26584   6.939   8.187  10.005  0.4197 -0.4344 -0.1871
41018SOL    HW126585   6.930   8.149  10.093  0.9011 -0.8567 -0.3175
41018SOL    HW226586   6.929   8.281  10.019 -0.4656 -0.5737  0.1863
41019SOL     OW26587   4.701   0.630   9.962 -0.3207 -0.2204 -0.4953
41019SOL    HW126588   4.684   0.693   9.892  0.0449 -0.1857 -0.5544
41019SOL    HW226589   4.782   0.659  10.002  0.3246 -1.1244 -1.0788
41020SOL     OW26590   3.472   6.569   0.910  0.1985  0.0633 -0.3889
41020SOL    HW126591   3.546   6.527   0.867 -1.1725 -2.1140 -0.7704
41020SOL    HW226592   3.510   6.615   0.985  1.8074 -2.1005  0.2011
41021SOL     OW26593   0.887   4.671   6.240 -0.1508 -0.5331  0.4559
41021SOL    HW126594   0.933   4.602   6.192 -1.4558 -0.9619 -0.2269
41021SOL    HW226595   0.801   4.675   6.199 -0.6291  0.4523  1.5083
41022SOL     OW26596   8.995   7.398  11.076 -0.0200 -0.4065  0.9737
41022SOL    HW126597   8.932   7.444  11.131 -0.5223  1.4703 -1.0309
41022SOL    HW226598   8.948   7.320  11.046 -0.4638 -0.3481  1.4990
41023SOL     OW26599   4.307   8.925   8.278 -0.0799  0.2767 -0.2577
41023SOL    HW126600   4.298   9.020   8.270 -0.0969  0.5232  1.9098
41023SOL    HW226601   4.228   8.898   8.326  0.0074 -0.8047 -0.6973
41024SOL     OW26602   8.533   1.608   5.645 -0.0013 -0.7914 -0.3358
41024SOL    HW126603   8.618   1.569   5.666  0.9970  1.4216  0.1245
41024SOL    HW226604   8.548   1.654   5.562  0.2410  2.0565  1.1423
41025SOL     OW26605   6.800   0.510   0.183  0.2551 -0.4560 -0.0536
41025SOL    HW126606   6.773   0.430   0.137 -2.0249  1.5040 -2.4618
41025SOL    HW226607   6.837   0.565   0.115  1.2475  0.8207  1.4480
41026SOL     OW26608   3.781   0.148   2.626  0.0192  0.1906  0.2324
41026SOL    HW126609   3.720   0.218   2.646 -0.9306 -0.8840  1.2487
41026SOL    HW226610   3.726   0.078   2.588  0.6547 -0.6569  0.8324
41027SOL     OW26611   1.680   1.980   6.885 -0.0063 -0.1589  0.0459
41027SOL    HW126612   1.699   1.902   6.939 -0.9301  0.2609  1.0096
41027SOL    HW226613   1.603   1.957   6.835  0.5429 -0.3532 -0.7322
41028SOL     OW26614   3.350   5.509   7.318 -0.3445 -0.3568 -0.2188
41028SOL    HW126615   3.294   5.536   7.391 -0.0949 -1.9842  0.6384
41028SOL    HW226616   3.310   5.428   7.287  1.2889 -1.3564  0.1757
41029SOL     OW26617   6.687   8.619   9.570  0.3901 -0.1086 -0.5733
41029SOL    HW126618   6.663   8.548   9.629 -1.5681  0.7478 -0.2543
41029SOL    HW226619   6.752   8.581   9.512  0.5561 -1.6858  0.5850
41030SOL     OW26620   9.518   4.250   4.367 -0.3589  0.6075  0.4050
41030SOL    HW126621   9.597   4.288   4.406 -1.0071  2.7636 -0.2441
41030SOL    HW226622   9.551   4.178   4.312  1.2540  1.9350 -0.4412
41031SOL     OW26623   6.098   9.159   4.566 -0.3175 -0.8876 -0.1947
41031SOL    HW126624   6.113   9.068   4.588  0.4151 -0.6415  0.3672
41031SOL    HW226625   6.141   9.208   4.636 -1.4420 -0.1125 -0.0096
41032SOL     OW26626   8.966   9.257   7.452 -0.4020  0.0099 -0.2574
41032SOL    HW126627   9.043   9.243   7.396 -0.1084 -1.2010  0.4186
41032SOL    HW226628   8.915   9.176   7.444 -0.7221  0.1075  0.6508
41033SOL     OW26629   8.147   6.612   9.327  0.3878 -0.3226  0.2444
41033SOL    HW126630   8.216   6.546   9.333 -1.0220 -1.7257  1.8379
41033SOL    HW226631   8.157   6.649   9.239  1.6423 -2.1806 -0.4519
41034SOL     OW26632   8.203   0.334   0.725 -0.1982  0.3805  0.1059
41034SOL    HW126633   8.145   0.408   0.746 -0.1328 -0.0413  1.9429
41034SOL    HW226634   8.212   0.337   0.630 -2.0061  1.3839 -0.0812
41035SOL     OW26635   9.372   3.238  10.860 -0.1045  0.2420  0.4462
41035SOL    HW126636   9.462   3.214  10.883  0.1592  0.2297 -0.5924
41035SOL    HW226637   9.380   3.295  10.784 -0.9802  0.2365  0.3415
41036SOL     OW26638   2.006   7.670   9.257 -0.0014  0.1852  0.7448
41036SOL    HW126639   2.085   7.684   9.309  0.3022  1.8665 -0.1003
41036SOL    HW226640   1.936   7.712   9.308 -0.1792 -0.4330  1.0176
41037SOL     OW26641   2.712   2.896   5.022  0.0141 -0.2853 -0.0382
41037SOL    HW126642   2.803   2.894   5.053 -0.1358 -0.6880  0.4082
41037SOL    HW226643   2.697   2.987   4.997  0.8560 -0.4184 -1.0935
41038SOL     OW26644   9.737   7.950   8.206  0.5787  0.4618  0.5216
41038SOL    HW126645   9.765   7.889   8.274 -2.0155 -0.2368  1.0587
41038SOL    HW226646   9.725   7.896   8.128  0.2871  0.6725  0.4197
41039SOL     OW26647   4.591   4.890   6.090  0.0146 -0.2147  0.1467
41039SOL    HW126648   4.680   4.887   6.054 -0.1167 -0.8443 -0.1543
41039SOL    HW226649   4.570   4.798   6.107 -0.8258 -0.1393 -0.4258
41040SOL     OW26650   8.725   2.847   7.504 -0.5963  0.4248 -0.1224
41040SOL    HW126651   8.682   2.806   7.428 -1.7946 -0.6318  1.0740
41040SOL    HW226652   8.653   2.871   7.562  0.3370  0.5489  1.0143
41041SOL     OW26653  10.636   1.614   4.675 -0.1911 -0.0452 -0.3050
41041SOL    HW126654  10.584   1.549   4.627  1.7847 -0.3244 -2.2321
41041SOL    HW226655  10.656   1.571   4.758 -1.0487 -0.8599 -0.4904
41042SOL     OW26656   9.292   8.714   3.325  0.0731  0.1679 -0.3330
41042SOL    HW126657   9.274   8.745   3.236 -0.5952  0.5928 -0.0499
41042SOL    HW226658   9.235   8.638   3.337 -1.0203  1.0686  0.2954
41043SOL     OW26659   2.546   4.140   8.391  0.1060 -0.1166 -0.5273
41043SOL    HW126660   2.453   4.157   8.373  0.0419 -0.8614 -0.9730
41043SOL    HW226661   2.593   4.199   8.332 -0.1009 -0.9381 -1.5452
41044SOL     OW26662  10.885   4.344   9.602  0.5625 -0.1540  0.3070
41044SOL    HW126663  10.865   4.333   9.509  1.9306  0.2799 -0.0630
41044SOL    HW226664  10.822   4.409   9.633 -0.6299 -1.1139 -0.0353
41045SOL     OW26665   4.903   5.455   3.842  0.4376 -0.1304  0.5393
41045SOL    HW126666   4.881   5.412   3.925 -2.6654  1.4696  0.6660
41045SOL    HW226667   4.962   5.526   3.868  0.4708 -0.3841  1.1823
41046SOL     OW26668   1.066   8.483   8.089  0.1933  0.6332  0.5291
41046SOL    HW126669   1.029   8.570   8.105 -1.3075  0.6063 -2.3134
41046SOL    HW226670   1.013   8.424   8.142 -0.3447  1.1942  0.6257
41047SOL     OW26671  11.103   4.425   7.872 -0.4106  0.1709  0.2437
41047SOL    HW126672  11.022   4.455   7.832 -0.3832 -0.8791 -0.6465
41047SOL    HW226673  11.148   4.377   7.802  0.6237  0.0919  0.9385
41048SOL     OW26674  10.506   9.852   2.642  0.2442  0.5781 -0.1341
41048SOL    HW126675  10.427   9.896   2.673 -0.4679 -1.6971  1.5406
41048SOL    HW226676  10.479   9.807   2.562 -0.0906  0.1251  0.2238
41049SOL     OW26677   3.825   3.565  11.108  0.3631  0.0878  0.3185
41049SOL    HW126678   3.837   3.636  11.171 -1.4708  0.5908  0.1514
41049SOL    HW226679   3.802   3.489  11.161  0.8350 -0.0085  0.3892
41050SOL     OW26680   6.170   7.861   9.465  0.8374  0.3433 -0.5046
41050SOL    HW126681   6.209   7.942   9.435  1.3796  0.0237 -0.6664
41050SOL    HW226682   6.167   7.870   9.561  1.1798  0.4209 -0.5018
41051SOL     OW26683   5.549   0.297   3.605 -0.5638 -0.1505  0.4321
41051SOL    HW126684   5.498   0.237   3.550 -1.7034  2.3985 -1.5263
41051SOL    HW226685   5.628   0.315   3.554  0.8781 -1.6292  2.0303
41052SOL     OW26686   1.775   0.098   0.870  0.2561  0.2208 -0.2971
41052SOL    HW126687   1.705   0.096   0.805 -0.6362  1.3048  0.6028
41052SOL    HW226688   1.841   0.156   0.832 -0.8142  1.8627  0.2734
41053SOL     OW26689   7.991   8.834   6.455 -0.5710 -0.0628 -0.0789
41053SOL    HW126690   8.085   8.854   6.447 -0.5078 -0.7327 -1.3096
41053SOL    HW226691   7.972   8.845   6.548  0.2388  2.1734 -0.0973
41054SOL     OW26692   8.222   9.218   4.047  0.2547  0.6348  0.1296
41054SOL    HW126693   8.302   9.226   3.995  0.7403  0.9355  0.9181
41054SOL    HW226694   8.252   9.206   4.137 -0.5440  3.8776  0.9457
41055SOL     OW26695   5.002  10.428   2.198 -0.1301  0.0951 -0.1569
41055SOL    HW126696   5.065  10.415   2.127 -0.8252  1.5128 -1.0680
41055SOL    HW226697   4.975  10.339   2.222  0.4835 -0.4347 -1.3458
41056SOL     OW26698   9.573  10.549   6.349 -0.1467  0.1688 -0.5144
41056SOL    HW126699   9.493  10.498   6.334  0.3843 -0.9334  0.2744
41056SOL    HW226700   9.642  10.497   6.308  0.1195  1.3740 -1.6523
41057SOL     OW26701   5.896   0.243   8.241  0.2947  0.1652 -0.1287
41057SOL    HW126702   5.844   0.179   8.192 -0.9950  1.7633 -0.9444
41057SOL    HW226703   5.950   0.285   8.174  2.8005 -1.5057  0.7132
41058SOL     OW26704   0.112  10.991   3.435  0.1081 -0.2686  0.2408
41058SOL    HW126705   0.021  10.983   3.463 -0.2948  1.3033 -0.5671
41058SOL    HW226706   0.158  10.925   3.487 -1.3019 -0.3429  1.4642
41059SOL     OW26707   3.048   9.892   9.843  0.6868 -0.0134 -0.5647
41059SOL    HW126708   2.991   9.946   9.788  1.0898 -1.2245 -2.2533
41059SOL    HW226709   3.135   9.901   9.804  0.7082 -2.0595 -1.1037
41060SOL     OW26710   6.886   2.467   5.985 -0.1928 -0.1053  0.0611
41060SOL    HW126711   6.956   2.525   6.014  0.0093 -0.6364  0.6772
41060SOL    HW226712   6.907   2.447   5.894  0.3293 -0.0702  0.1706
41061SOL     OW26713  10.597   8.993   1.419  0.2972  0.0932 -0.9616
41061SOL    HW126714  10.587   8.965   1.328  0.6161 -1.5811 -0.5244
41061SOL    HW226715  10.513   9.033   1.442  0.9658  2.6248 -2.6311
41062SOL     OW26716   8.462   6.508   2.040  0.0027  0.1305 -0.0102
41062SOL    HW126717   8.542   6.558   2.026 -0.7070  1.3554  0.2209
41062SOL    HW226718   8.441   6.523   2.132 -1.0628  0.6785 -0.3319
41063SOL     OW26719   5.429  10.370   6.881 -0.1590  0.3490  0.4695
41063SOL    HW126720   5.435  10.279   6.850  0.4038  0.5759 -0.1133
41063SOL    HW226721   5.363  10.368   6.950  0.6766 -0.7150  1.2655
41064SOL     OW26722   2.854   4.605   9.043 -0.1340 -0.3740  0.1000
41064SOL    HW126723   2.846   4.624   8.949  1.6992  1.7642  0.2925
41064SOL    HW226724   2.775   4.643   9.081  1.1145  2.7632 -0.1588
41065SOL     OW26725   4.899   1.985   9.599  0.0619 -0.2216 -0.6625
41065SOL    HW126726   4.936   2.000   9.687 -1.1855  0.0281 -0.1680
41065SOL    HW226727   4.921   1.893   9.581 -0.8385 -0.7100  0.5200
41066SOL     OW26728   2.892   1.627   1.597 -0.5471 -0.6568  0.4583
41066SOL    HW126729   2.832   1.564   1.636 -0.9608 -1.6309 -1.6439
41066SOL    HW226730   2.923   1.586   1.517  0.5564  1.1033 -0.0960
41067SOL     OW26731   6.332   3.083   4.452 -0.2132  0.1201  0.3736
41067SOL    HW126732   6.426   3.101   4.456 -0.0653 -0.1458 -1.2598
41067SOL    HW226733   6.325   2.992   4.423 -0.9910 -0.2508  1.6460
41068SOL     OW26734   4.282  10.690   9.764 -0.1173 -0.6408  0.7745
41068SOL    HW126735   4.248  10.637   9.692 -0.5541 -1.4864  1.5838
41068SOL    HW226736   4.375  10.667   9.770  0.2895  0.5898 -0.5039
41069SOL     OW26737   4.275   6.401   9.498  0.7187  0.1289  0.5262
41069SOL    HW126738   4.336   6.455   9.447  0.6368  0.8086  1.1344
41069SOL    HW226739   4.200   6.458   9.513  1.3669  0.5059  2.7156
41070SOL     OW26740   8.816   6.700  10.254  0.0824 -0.2124 -0.5683
41070SOL    HW126741   8.781   6.719  10.341  0.1485  0.8567 -0.7616
41070SOL    HW226742   8.885   6.635  10.270 -0.9362 -1.1959 -0.0156
41071SOL     OW26743   7.283   6.978   1.807 -0.1037 -0.0181  0.4542
41071SOL    HW126744   7.323   6.975   1.720  0.2026 -1.4861  0.6360
41071SOL    HW226745   7.245   6.891   1.820 -1.5376  0.6637  1.1601
41072SOL     OW26746   2.812   1.963   2.012 -0.6062 -0.2900  0.2462
41072SOL    HW126747   2.797   2.056   1.996 -1.7760 -0.3741  0.7199
41072SOL    HW226748   2.906   1.956   2.032 -0.4918  0.7676  0.1117
41073SOL     OW26749   4.722   8.207   7.095 -0.2407 -0.0386 -0.5867
41073SOL    HW126750   4.689   8.117   7.094 -1.8381  0.5007 -0.1110
41073SOL    HW226751   4.759   8.218   7.182  0.1996 -0.2971 -0.7342
41074SOL     OW26752   4.341   1.374   1.605 -0.2243  0.1840 -0.2975
41074SOL    HW126753   4.329   1.434   1.679 -0.5733 -0.1510 -0.0771
41074SOL    HW226754   4.424   1.330   1.624 -0.0116  0.5279 -0.4145
41075SOL     OW26755   4.380   2.488  10.406  0.0378 -0.3551  0.0791
41075SOL    HW126756   4.385   2.484  10.310 -0.7746 -0.0370  0.0144
41075SOL    HW226757   4.405   2.400  10.435 -1.8142 -1.1316 -0.5332
41076SOL     OW26758   4.747   5.424   3.515 -0.4846 -0.3295 -0.3633
41076SOL    HW126759   4.759   5.414   3.609 -1.2343 -0.0037 -0.2303
41076SOL    HW226760   4.666   5.474   3.505 -0.0339  0.2883 -1.1615
41077SOL     OW26761   8.113   2.832   9.456  0.0437  0.4370  0.0278
41077SOL    HW126762   8.137   2.760   9.397 -1.1388  0.0235  0.0163
41077SOL    HW226763   8.138   2.911   9.409  1.0767  0.0468 -0.0988
41078SOL     OW26764   9.276   5.618   9.264  0.0373  0.2501  0.3095
41078SOL    HW126765   9.302   5.527   9.251  1.3278  0.5710  0.4684
41078SOL    HW226766   9.290   5.659   9.178  1.6929  0.7870  0.8000
41079SOL     OW26767   2.599   6.704   5.036 -0.1602 -1.0771  0.1931
41079SOL    HW126768   2.647   6.661   5.106  1.4145 -0.8988 -0.7142
41079SOL    HW226769   2.594   6.638   4.966 -3.0072 -1.7738  0.9334
41080SOL     OW26770   5.231   6.949   6.440 -0.5573  0.1688 -0.3692
41080SOL    HW126771   5.226   6.907   6.354  0.3915 -1.2040  0.2140
41080SOL    HW226772   5.325   6.949   6.461 -0.7614  0.6370  0.5926
41081SOL     OW26773   6.115   7.950   4.557 -0.1726  0.0375 -0.2489
41081SOL    HW126774   6.136   7.970   4.648  0.0259  0.1823 -0.3243
41081SOL    HW226775   6.020   7.946   4.554 -0.4190  3.4367 -0.7105
41082SOL     OW26776   4.059   2.671   2.806 -0.7547  0.3729  0.3188
41082SOL    HW126777   4.006   2.725   2.865  0.6006  1.4106  0.6483
41082SOL    HW226778   4.009   2.670   2.724 -2.0609 -0.0564  1.0910
41083SOL     OW26779   0.202   0.380   2.745 -0.1601 -0.3781  0.6396
41083SOL    HW126780   0.124   0.425   2.778 -1.4604 -1.5997 -0.5828
41083SOL    HW226781   0.198   0.393   2.650  0.0689 -2.0399  0.3732
41084SOL     OW26782   8.779   0.910  10.973  0.0605 -0.4401  0.3358
41084SOL    HW126783   8.865   0.930  11.012 -1.1468  0.2864  2.8231
41084SOL    HW226784   8.782   0.951  10.887  2.4271 -0.9638  0.1008
41085SOL     OW26785   4.064   8.830   2.997 -0.1178 -0.1480  0.0709
41085SOL    HW126786   4.058   8.809   3.090 -1.1664  0.8037  0.2578
41085SOL    HW226787   4.081   8.747   2.953 -2.1248 -1.0623  0.9110
41086SOL     OW26788   1.159   9.087   6.255  0.4996 -0.4309  0.3550
41086SOL    HW126789   1.101   9.045   6.319 -0.8914 -1.8447 -1.6927
41086SOL    HW226790   1.109   9.163   6.224  0.7421 -0.3103  0.2585
41087SOL     OW26791   9.730   6.770   2.630  0.1316 -0.2498  0.1984
41087SOL    HW126792   9.782   6.780   2.550  0.4592  0.0860  0.4454
41087SOL    HW226793   9.663   6.837   2.624  1.0079  0.7141  0.8456
41088SOL     OW26794  10.530  10.112   7.545  0.1285  0.1630  0.2167
41088SOL    HW126795  10.477  10.093   7.623  0.3403  0.0666  0.3371
41088SOL    HW226796  10.567  10.027   7.519 -1.4115 -0.1660 -1.0794
41089SOL     OW26797   6.520   1.050   4.080  0.1276  0.5959  0.0605
41089SOL    HW126798   6.434   1.080   4.049  0.6820  1.8568 -0.3210
41089SOL    HW226799   6.565   1.130   4.105  1.9502  0.2006 -1.6811
41090SOL     OW26800   6.887   7.881  10.543  0.0398  0.6839 -0.2157
41090SOL    HW126801   6.942   7.946  10.500  0.5764 -0.4407 -1.3166
41090SOL    HW226802   6.949   7.825  10.590 -0.3297  0.4494  0.0000
41091SOL     OW26803   5.455   3.528   7.548  0.0343 -0.1229  0.2532
41091SOL    HW126804   5.469   3.612   7.593  1.1478  0.3091 -0.8479
41091SOL    HW226805   5.361   3.527   7.530 -0.1940  0.3398  1.3106
41092SOL     OW26806   3.254   1.526   3.733  0.0063 -0.4993 -0.0758
41092SOL    HW126807   3.332   1.479   3.762  0.1773  0.0642  0.3748
41092SOL    HW226808   3.230   1.583   3.806  0.0680  0.4545 -0.7772
41093SOL     OW26809   4.313   2.272   8.489 -0.0724 -0.4041 -0.0883
41093SOL    HW126810   4.344   2.337   8.426  0.5093 -1.0490 -0.4749
41093SOL    HW226811   4.390   2.254   8.543 -0.3824 -0.3745  0.3658
41094SOL     OW26812   1.127   5.438   7.407  0.0110  0.0824  0.3203
41094SOL    HW126813   1.074   5.511   7.373  0.0666 -0.1612 -0.3075
41094SOL    HW226814   1.161   5.395   7.329  1.0350  0.1515  0.7193
41095SOL     OW26815   4.197  10.533   2.983 -0.0180 -0.7751  0.3137
41095SOL    HW126816   4.273  10.591   2.972  0.4602 -1.3458  0.5718
41095SOL    HW226817   4.192  10.485   2.900 -2.6963  2.2123 -1.5358
41096SOL     OW26818   6.956   4.241   7.918 -0.3982  0.1048  0.0634
41096SOL    HW126819   6.897   4.221   7.991 -1.0901  1.1140 -0.2025
41096SOL    HW226820   6.905   4.298   7.861  0.9818  1.3461  0.0352
41097SOL     OW26821   7.960  10.320  10.715  0.0085  0.0365 -0.3855
41097SOL    HW126822   7.994  10.261  10.648 -1.4927  1.4608 -2.5437
41097SOL    HW226823   7.912  10.387  10.666 -1.7908  0.7704  2.1714
41098SOL     OW26824   6.763   4.012   2.560  0.2962 -0.1843  0.3303
41098SOL    HW126825   6.677   4.018   2.518  0.8317 -0.5065 -0.8334
41098SOL    HW226826   6.825   4.014   2.488  1.2944  0.4804  1.1917
41099SOL     OW26827   9.343   1.242   1.506  0.5780 -0.3708  0.3774
41099SOL    HW126828   9.272   1.186   1.539 -0.3560  1.3577  1.4637
41099SOL    HW226829   9.308   1.331   1.513  1.5215  0.3224 -2.4902
41100SOL     OW26830   3.471   8.428   6.127  0.1555 -0.3719 -0.0223
41100SOL    HW126831   3.537   8.491   6.157 -1.6547  1.1079  1.1121
41100SOL    HW226832   3.506   8.394   6.045  2.2020  0.4901  0.4078
41101SOL     OW26833   4.434   3.041   8.696 -0.0918  0.2374  0.1912
41101SOL    HW126834   4.365   2.991   8.652 -0.6736  1.6211 -0.5229
41101SOL    HW226835   4.401   3.131   8.698  1.6797  0.9351 -0.1535
41102SOL     OW26836   8.952   4.311   4.542  0.4670  0.1481  0.4834
41102SOL    HW126837   9.040   4.280   4.523  0.9917  1.9663 -0.3338
41102SOL    HW226838   8.917   4.336   4.456 -0.3087  0.7038  0.9513
41103SOL     OW26839   8.718   1.707   1.050  0.0070 -0.2775 -0.0369
41103SOL    HW126840   8.641   1.654   1.071 -1.2704  1.8403  0.9222
41103SOL    HW226841   8.762   1.658   0.980 -1.4326 -2.2420  0.3462
41104SOL     OW26842  10.928   4.956   3.888 -0.0430  0.0099  0.3703
41104SOL    HW126843  11.007   4.905   3.870  0.9747  1.4064  0.7441
41104SOL    HW226844  10.910   5.003   3.806 -0.0688  0.2363  0.5051
41105SOL     OW26845   5.928   9.398   3.218 -0.5452  0.0507 -0.1098
41105SOL    HW126846   5.916   9.305   3.199 -0.1376 -0.2646  1.0825
41105SOL    HW226847   5.979   9.431   3.143  0.7110 -1.0551  0.2064
41106SOL     OW26848   7.177   1.334   7.165  0.0908 -0.1691 -0.0447
41106SOL    HW126849   7.201   1.337   7.072  0.2131  0.3353  0.0036
41106SOL    HW226850   7.254   1.367   7.211  0.3380 -1.1908  0.2961
41107SOL     OW26851   6.476   1.757   0.620 -0.6181  0.3682  0.1878
41107SOL    HW126852   6.477   1.705   0.540  0.5497 -1.2503  1.2025
41107SOL    HW226853   6.496   1.846   0.590 -0.0389 -0.2166 -1.3028
41108SOL     OW26854   3.984   9.848   4.985 -0.4965  0.2229 -0.0688
41108SOL    HW126855   3.913   9.827   5.046  0.2896 -1.2148  0.4016
41108SOL    HW226856   4.049   9.780   5.001  0.8556  1.3320 -0.7120
41109SOL     OW26857   3.972   6.884   6.541  0.4223 -0.4094 -0.3309
41109SOL    HW126858   3.909   6.926   6.599  0.0806 -2.1035  0.5787
41109SOL    HW226859   3.961   6.929   6.457 -2.2923 -0.9014 -0.3247
41110SOL     OW26860   2.467   2.597   4.920  0.3606  0.2665  0.2021
41110SOL    HW126861   2.412   2.667   4.956  0.2393  0.1452  0.2510
41110SOL    HW226862   2.543   2.643   4.885 -0.4671  0.6035 -1.2518
41111SOL     OW26863  10.489   7.818   8.654 -0.2071  0.3301  0.0253
41111SOL    HW126864  10.517   7.909   8.642 -0.0675  0.2556 -0.2210
41111SOL    HW226865  10.402   7.814   8.615 -0.8313  0.7077  1.3226
41112SOL     OW26866   8.753   1.739   4.382 -0.7034 -0.5665 -0.4544
41112SOL    HW126867   8.735   1.667   4.442 -0.4360  0.8261  1.3812
41112SOL    HW226868   8.669   1.784   4.372 -0.6474 -0.5307 -0.7984
41113SOL     OW26869   5.025  10.929   8.998  0.3122  0.0485 -0.4126
41113SOL    HW126870   4.952  10.975   8.957 -0.2616 -0.8347 -0.4025
41113SOL    HW226871   5.003  10.836   8.991  0.4113 -0.1630  1.4953
41114SOL     OW26872   0.757   9.472   5.494 -0.0694 -0.2445  0.5684
41114SOL    HW126873   0.714   9.510   5.571  0.8864  1.2517  0.4092
41114SOL    HW226874   0.827   9.418   5.530 -1.3667 -1.8509  0.7957
41115SOL     OW26875   8.350   1.616   0.314  0.3369  1.3373  0.1959
41115SOL    HW126876   8.288   1.610   0.241  0.2534  0.6351  0.3163
41115SOL    HW226877   8.436   1.608   0.273  0.2308 -1.9794  0.4076
41116SOL     OW26878   2.725   1.463   5.013 -0.2389 -0.0747 -0.6382
41116SOL    HW126879   2.676   1.388   5.048  0.4350  0.1213  0.7915
41116SOL    HW226880   2.762   1.431   4.931  0.7394 -1.6114  0.3553
41117SOL     OW26881   2.291   0.779   4.334  0.3569 -0.2832 -0.7535
41117SOL    HW126882   2.224   0.711   4.321  1.7355 -1.7147 -0.6918
41117SOL    HW226883   2.255   0.856   4.291 -0.1703 -1.7398 -3.1015
41118SOL     OW26884   5.396   7.727   8.769 -0.1362  0.0317  0.4863
41118SOL    HW126885   5.368   7.643   8.805 -1.5816  0.5677  0.6838
41118SOL    HW226886   5.371   7.723   8.677  1.2384 -0.3470  0.1072
41119SOL     OW26887   3.682   9.148  10.598 -0.2091 -0.1944 -0.8476
41119SOL    HW126888   3.776   9.127  10.602 -0.3894 -0.8494  1.0080
41119SOL    HW226889   3.638   9.066  10.619 -1.1446  0.5549  0.2354
41120SOL     OW26890   8.071   0.277   5.065 -0.2959  0.2219  0.3855
41120SOL    HW126891   8.104   0.344   5.004 -1.8269  2.5618  1.9340
41120SOL    HW226892   8.150   0.236   5.100  0.6363 -0.4846 -2.3460
41121SOL     OW26893   7.171  10.038   8.520  0.3020  0.0935  0.2002
41121SOL    HW126894   7.138  10.032   8.430 -3.7894  0.0941  1.5220
41121SOL    HW226895   7.170  10.131   8.540  0.9593  0.0662  0.4020
41122SOL     OW26896   1.842   2.426   4.438 -0.2017  0.2608 -0.3528
41122SOL    HW126897   1.856   2.520   4.422  0.7602  0.2134  0.1020
41122SOL    HW226898   1.864   2.415   4.531  1.8086 -0.7841 -0.9147
41123SOL     OW26899   8.481   9.144   1.010 -0.9658  0.0086  0.5068
41123SOL    HW126900   8.475   9.211   1.078 -1.5140 -1.0124  1.5068
41123SOL    HW226901   8.548   9.176   0.949 -1.5233  1.6557  0.7131
41124SOL     OW26902   9.247   8.784   6.968  0.4077 -0.0912 -0.6966
41124SOL    HW126903   9.211   8.854   7.022  3.3056  0.5124  0.6623
41124SOL    HW226904   9.286   8.829   6.893 -0.8304 -0.6523 -1.7232
41125SOL     OW26905   6.662   4.118   7.306 -0.3655 -0.1136  0.1638
41125SOL    HW126906   6.703   4.093   7.223  2.3165 -1.9225  1.8887
41125SOL    HW226907   6.604   4.044   7.326  0.0430 -0.3225  0.5675
41126SOL     OW26908   8.648   0.313  10.634  0.1487  0.3247  0.6450
41126SOL    HW126909   8.598   0.249  10.686 -0.0419 -1.9462 -2.1092
41126SOL    HW226910   8.737   0.279  10.635  0.1442  0.2677 -0.4348
41127SOL     OW26911  10.131  10.710   0.277  0.6837  0.2346 -0.6861
41127SOL    HW126912  10.214  10.663   0.268  1.2210  1.2390 -1.2571
41127SOL    HW226913  10.153  10.800   0.252 -0.3510  0.7441  0.2043
41128SOL     OW26914   1.475   7.272   1.330 -0.1534 -0.3323  0.4367
41128SOL    HW126915   1.467   7.364   1.354 -0.5177 -0.9220  2.8006
41128SOL    HW226916   1.548   7.269   1.269 -1.4464  1.7706 -1.3497
41129SOL     OW26917   2.859   1.611   5.228  0.4945 -0.1623  0.7467
41129SOL    HW126918   2.854   1.542   5.162  0.8865  1.1967 -0.7694
41129SOL    HW226919   2.772   1.650   5.229  0.2813 -0.6337  1.5792
41130SOL     OW26920  10.749  11.030  10.719 -0.1211 -0.3211  0.2208
41130SOL    HW126921  10.725  11.122  10.721 -1.2509 -0.6064  0.8771
41130SOL    HW226922  10.735  11.002  10.629  2.1332  0.5838 -0.4893
41131SOL     OW26923   8.238   5.886   2.590 -0.2381 -0.0894  0.4095
41131SOL    HW126924   8.246   5.801   2.548  3.1395  0.2483  0.0330
41131SOL    HW226925   8.261   5.949   2.521  1.3201  0.7635  1.6368
41132SOL     OW26926   3.609   6.368   4.150  0.5258  0.6899 -0.0514
41132SOL    HW126927   3.697   6.354   4.184  0.7595  1.0505 -0.4964
41132SOL    HW226928   3.567   6.426   4.214  0.5539  0.3909  0.2420
41133SOL     OW26929   9.885   5.860   7.924 -0.0503  0.1168  0.4005
41133SOL    HW126930   9.798   5.897   7.910 -0.6513 -1.4565 -0.2637
41133SOL    HW226931   9.895   5.795   7.855  1.3550 -0.2621  0.9282
41134SOL     OW26932   0.644   0.248   2.735 -0.2321 -0.3045 -0.3003
41134SOL    HW126933   0.671   0.324   2.787  1.4418 -2.0313  1.5994
41134SOL    HW226934   0.549   0.245   2.744 -0.2224  0.9732  0.4836
41135SOL     OW26935  10.904   1.486   8.791  0.0439  0.0438  0.4488
41135SOL    HW126936  10.823   1.440   8.809  0.5415 -1.8640 -1.6311
41135SOL    HW226937  10.971   1.417   8.788  0.6090  0.4718 -4.1670
41136SOL     OW26938   1.519   0.909   0.605 -0.1789  0.6047 -0.1466
41136SOL    HW126939   1.569   0.879   0.529  0.7002  0.6762  0.3935
41136SOL    HW226940   1.579   0.897   0.679 -1.0049  0.5948  0.5266
41137SOL     OW26941   0.329  10.793   3.486  0.3234 -0.0495  0.1639
41137SOL    HW126942   0.285  10.709   3.497  0.3873 -0.2403 -0.9054
41137SOL    HW226943   0.357  10.817   3.574  0.3070 -1.1536  0.4899
41138SOL     OW26944   1.678  10.764   8.798 -0.7498  0.3202  0.2047
41138SOL    HW126945   1.615  10.835   8.809 -1.9252 -0.7990  0.9874
41138SOL    HW226946   1.660  10.729   8.710 -1.7344 -0.4334  0.6817
41139SOL     OW26947   8.401   7.297   9.242 -0.0672  0.3068  0.0226
41139SOL    HW126948   8.429   7.384   9.270  0.1508  0.1576  0.2675
41139SOL    HW226949   8.315   7.285   9.284 -0.3119  0.5923 -0.3892
41140SOL     OW26950   0.719   3.970   8.268  0.0691  0.0397 -0.8963
41140SOL    HW126951   0.646   3.972   8.331  1.1521  0.8896  0.3820
41140SOL    HW226952   0.791   3.930   8.317  0.3857 -1.1106 -2.2553
41141SOL     OW26953  10.152  10.409   3.978  0.1334 -0.1144 -0.5071
41141SOL    HW126954  10.099  10.485   4.002  1.0913  0.4619 -0.1797
41141SOL    HW226955  10.175  10.423   3.886  0.1982 -0.0745 -0.4850
41142SOL     OW26956   4.068   4.429  10.715  0.3779 -0.0204  0.0142
41142SOL    HW126957   4.035   4.453  10.629  2.1952 -1.1013 -1.0751
41142SOL    HW226958   3.994   4.439  10.774 -1.2834 -0.4572 -1.9040
41143SOL     OW26959   6.402  11.081   8.531  0.2064 -0.4371  0.1309
41143SOL    HW126960   6.353  11.057   8.609 -1.0905 -1.9627 -1.1043
41143SOL    HW226961   6.463  11.008   8.517  0.9184  0.1492  0.0780
41144SOL     OW26962   7.689   6.002  10.888 -0.4892  0.0045  0.4237
41144SOL    HW126963   7.767   6.057  10.882 -1.8256  1.8718 -0.5602
41144SOL    HW226964   7.616   6.061  10.869 -2.0270 -2.0385 -0.3318
41145SOL     OW26965   4.035   3.753   1.345  0.4699  0.2310 -0.3887
41145SOL    HW126966   3.951   3.716   1.317  0.4517  1.1332 -1.6392
41145SOL    HW226967   4.100   3.687   1.320  0.1758 -0.3550  0.3482
41146SOL     OW26968   8.862   3.300  11.005  0.1635 -0.2375 -0.2182
41146SOL    HW126969   8.919   3.307  10.928 -0.0261 -0.9793 -0.4327
41146SOL    HW226970   8.910   3.242  11.064 -0.4010 -0.9615 -0.4462
41147SOL     OW26971   5.405  10.418   9.916  0.2909 -0.2357  0.1978
41147SOL    HW126972   5.476  10.479   9.936  0.0451  0.9727 -2.2480
41147SOL    HW226973   5.447  10.349   9.865  0.0312 -0.5380  0.3891
41148SOL     OW26974   3.400   9.933  10.250  0.2262  0.2847  0.1738
41148SOL    HW126975   3.423   9.845  10.281 -0.1734 -0.6414 -1.9469
41148SOL    HW226976   3.480   9.964  10.206  0.4660  1.1392  1.1767
41149SOL     OW26977   6.639   0.311   1.256 -0.3139  0.2434  0.6010
41149SOL    HW126978   6.725   0.274   1.276 -1.2983 -1.7036  1.4611
41149SOL    HW226979   6.578   0.259   1.308 -1.9503  2.2241  0.7713
41150SOL     OW26980   6.279   5.834   0.083  0.0764 -0.1820  0.5890
41150SOL    HW126981   6.253   5.855  -0.006 -0.5257 -0.1156  0.7733
41150SOL    HW226982   6.347   5.898   0.104 -0.4025  0.3782  0.4787
41151SOL     OW26983  10.204   1.715   6.327  0.0946  0.5311 -0.9580
41151SOL    HW126984  10.249   1.633   6.346 -1.8593  0.1493  3.2119
41151SOL    HW226985  10.169   1.703   6.239  1.7818 -2.1165 -1.4039
41152SOL     OW26986   7.174   4.383   4.679 -0.3061  0.1457 -0.7655
41152SOL    HW126987   7.204   4.452   4.619 -0.3493  0.8286 -0.0163
41152SOL    HW226988   7.082   4.370   4.655 -0.1860  0.0622 -1.1822
41153SOL     OW26989   9.796  10.800   0.768 -0.3931 -0.3990  0.0403
41153SOL    HW126990   9.819  10.885   0.805  0.9176 -1.1512  1.0561
41153SOL    HW226991   9.851  10.737   0.816 -0.7612 -1.7374 -1.2103
41154SOL     OW26992   1.744   8.080   6.249 -0.1242 -0.6862 -0.2254
41154SOL    HW126993   1.725   8.043   6.336  1.4224  0.2365  0.5401
41154SOL    HW226994   1.839   8.073   6.240  0.2246  2.6700 -0.1987
41155SOL     OW26995   5.135   5.600   4.374 -0.5676  0.6820 -0.0697
41155SOL    HW126996   5.169   5.589   4.463 -0.2235  3.0633  0.1655
41155SOL    HW226997   5.211   5.585   4.318 -0.4913  0.3719  0.1161
41156SOL     OW26998   5.613   0.401   5.987 -0.7464  0.4007  0.5539
41156SOL    HW126999   5.523   0.416   5.960 -0.6193 -0.3991 -0.3755
41156SOL    HW227000   5.660   0.383   5.905  0.3328  1.1763  0.9829
41157SOL     OW27001   4.995   2.762   9.608  0.2719 -0.1046  0.1062
41157SOL    HW127002   4.927   2.706   9.645  1.4716 -1.9407 -0.3106
41157SOL    HW227003   5.049   2.787   9.684 -0.9803  1.6260  0.4862
41158SOL     OW27004   9.427   6.112   7.424 -0.2296 -0.9308  0.1312
41158SOL    HW127005   9.500   6.094   7.366 -0.0658 -1.3635  0.4664
41158SOL    HW227006   9.418   6.207   7.423 -0.8277 -0.9738 -1.3345
41159SOL     OW27007  10.205  10.038   7.324 -0.2930  0.0474 -0.4640
41159SOL    HW127008  10.149  10.108   7.291 -1.4527 -0.5393  0.1797
41159SOL    HW227009  10.179   9.960   7.274 -2.0284 -0.8386  1.6449
41160SOL     OW27010   6.602   5.988   7.548  0.9651  0.1848  0.1309
41160SOL    HW127011   6.636   5.977   7.460 -0.4014  1.0337 -0.5449
41160SOL    HW227012   6.621   6.080   7.570 -0.8825  0.7085 -0.3046
41161SOL     OW27013   1.041   0.178  10.462 -0.0169 -0.5963 -0.0934
41161SOL    HW127014   0.995   0.200  10.381 -0.6291 -0.0648  0.3890
41161SOL    HW227015   1.018   0.086  10.478 -1.3167 -0.1997  0.3976
41162SOL     OW27016   2.610   7.277   0.308 -0.0243 -0.1508  0.1128
41162SOL    HW127017   2.650   7.235   0.232  2.2369 -0.1922  1.2401
41162SOL    HW227018   2.520   7.244   0.309  0.9411 -3.1116 -0.4159
41163SOL     OW27019   8.208   6.045   2.207  0.5474  0.5921  0.3603
41163SOL    HW127020   8.291   6.005   2.234  0.4403  0.7153  0.8760
41163SOL    HW227021   8.146   5.971   2.203  0.4979  0.6166  0.7119
41164SOL     OW27022   8.189   4.467   8.291 -0.2716  0.4512  0.1870
41164SOL    HW127023   8.172   4.460   8.197  1.9320 -1.6432 -0.1570
41164SOL    HW227024   8.113   4.426   8.332  0.5922 -2.5231 -0.9472
41165SOL     OW27025   1.673   0.847   1.360 -0.4803  0.0236 -0.0896
41165SOL    HW127026   1.602   0.825   1.300 -1.0063 -0.0680  0.5440
41165SOL    HW227027   1.749   0.861   1.304 -1.4948  2.3711 -0.9956
41166SOL     OW27028  10.381  10.454   5.987  0.2044 -0.6548 -0.3487
41166SOL    HW127029  10.452  10.405   5.946  0.0909 -1.5471  0.4731
41166SOL    HW227030  10.357  10.521   5.923  1.7916 -0.3168 -0.6369
41167SOL     OW27031   2.691   7.489   0.459 -0.1679  0.2820  0.3801
41167SOL    HW127032   2.608   7.534   0.473 -1.3284 -1.9386  1.2648
41167SOL    HW227033   2.672   7.424   0.391  0.3335 -1.3521  1.7184
41168SOL     OW27034   4.576   3.173   4.837  0.5576 -0.2146  0.3043
41168SOL    HW127035   4.627   3.254   4.827 -0.9987  0.9674  1.5751
41168SOL    HW227036   4.634   3.105   4.801  2.8406  1.1094  1.2316
41169SOL     OW27037   5.781   1.029   2.924 -0.0620 -0.0973 -0.3117
41169SOL    HW127038   5.839   1.091   2.969  2.6941 -2.5660 -0.1719
41169SOL    HW227039   5.759   1.072   2.842 -0.5311  2.1466  0.9045
41170SOL     OW27040   1.980   3.838   7.799 -0.2274  0.1863 -0.0539
41170SOL    HW127041   2.001   3.747   7.778  0.3718  0.0474  1.0877
41170SOL    HW227042   2.035   3.859   7.875 -0.9147  1.2648  0.1702
41171SOL     OW27043   2.598   2.610   7.911  0.0527 -0.2052 -0.2848
41171SOL    HW127044   2.598   2.642   8.000 -0.2291 -0.8363 -0.0481
41171SOL    HW227045   2.685   2.571   7.899  0.2664  0.3245 -0.4528
41172SOL     OW27046  10.516   6.879  10.596  0.3565 -0.3878 -0.0709
41172SOL    HW127047  10.580   6.894  10.665 -1.1982 -2.1441  1.8712
41172SOL    HW227048  10.562   6.825  10.532  0.3316 -3.6486  2.4102
41173SOL     OW27049   4.636   9.355   1.084  0.1331  0.4156  0.2998
41173SOL    HW127050   4.611   9.342   1.176  1.3738 -0.2753  0.5631
41173SOL    HW227051   4.676   9.443   1.083  1.3107 -0.0875  0.7232
41174SOL     OW27052   3.736   8.945   2.542  0.3473  0.1857 -0.0312
41174SOL    HW127053   3.709   8.906   2.625  0.1316 -0.1439 -0.2519
41174SOL    HW227054   3.748   9.038   2.562  3.7074 -0.3960  1.1990
41175SOL     OW27055   3.651  10.003   8.954  0.3995 -0.8463 -0.4136
41175SOL    HW127056   3.570   9.999   9.006  1.7001 -0.9173  1.7253
41175SOL    HW227057   3.694  10.084   8.982  1.1527 -0.9002 -1.3796
41176SOL     OW27058   0.968   5.886   0.083  0.3246  0.1322 -0.7951
41176SOL    HW127059   0.951   5.886  -0.011  1.1375  1.7264 -0.9688
41176SOL    HW227060   1.063   5.884   0.091  0.2983  1.2887 -0.0352
41177SOL     OW27061  10.615   3.547   9.025  0.1493  0.4415 -0.3103
41177SOL    HW127062  10.662   3.592   9.095  0.2156 -0.2179  0.0704
41177SOL    HW227063  10.672   3.556   8.949 -0.3121  1.9212 -0.5288
41178SOL     OW27064   2.345   3.586   4.617  0.6216  0.0069  0.1059
41178SOL    HW127065   2.391   3.670   4.620  0.3278  0.1335  1.6321
41178SOL    HW227066   2.256   3.609   4.589  0.6836  0.1423  0.0182
41179SOL     OW27067   2.985   4.300   9.877  0.3716  0.1538 -0.4459
41179SOL    HW127068   3.036   4.381   9.869  0.3451  0.3922  1.2417
41179SOL    HW227069   2.976   4.288   9.972 -0.8601 -1.0613 -0.6933
41180SOL     OW27070   0.145   7.918   7.587  0.6417 -0.8010 -0.1876
41180SOL    HW127071   0.078   7.887   7.527  1.6142 -0.3790 -1.5476
41180SOL    HW227072   0.165   7.843   7.643 -1.8010 -0.5892  1.0991
41181SOL     OW27073   8.993   6.097  10.155  0.1820 -0.3101 -0.0027
41181SOL    HW127074   9.039   6.104  10.072  1.4561  0.4951  0.7229
41181SOL    HW227075   8.973   6.004  10.165  1.1516 -0.5993 -0.6300
41182SOL     OW27076   2.796  10.878   5.102  0.8679 -0.3140  0.2128
41182SOL    HW127077   2.880  10.918   5.125  0.7239 -0.6017  1.3094
41182SOL    HW227078   2.803  10.788   5.136  0.1282 -0.3410  0.3140
41183SOL     OW27079   9.785   9.952  10.588 -0.1646  0.3257  0.4625
41183SOL    HW127080   9.716   9.981  10.528  0.9445  0.8291 -0.6063
41183SOL    HW227081   9.752   9.869  10.624 -0.1428 -0.9095 -2.1535
41184SOL     OW27082   0.010   4.300   6.538  0.3490  0.6756 -0.0540
41184SOL    HW127083   0.032   4.299   6.631  1.4310  0.3433 -0.2948
41184SOL    HW227084  -0.039   4.381   6.526  2.3317  2.0186  0.3641
41185SOL     OW27085  11.057   7.378   2.745 -0.4568  0.5480  0.0224
41185SOL    HW127086  11.039   7.447   2.681 -0.7829 -1.2065 -1.8839
41185SOL    HW227087  10.980   7.321   2.740  1.0886 -1.5641 -0.7145
41186SOL     OW27088  10.497  10.848   2.580  0.7168 -0.2975 -0.1810
41186SOL    HW127089  10.430  10.804   2.527 -0.1285  0.0879  0.5482
41186SOL    HW227090  10.574  10.849   2.524  0.6379 -2.2987 -0.3781
41187SOL     OW27091   7.268   0.193   8.681  0.2923  0.3474 -0.1070
41187SOL    HW127092   7.270   0.225   8.772  0.1310 -0.5057  0.2040
41187SOL    HW227093   7.224   0.263   8.633 -2.8165 -0.6000  1.0788
41188SOL     OW27094   0.411  10.357   3.164 -0.0672  0.1331  0.1679
41188SOL    HW127095   0.409  10.365   3.259 -1.1458  0.1482  0.1608
41188SOL    HW227096   0.487  10.407   3.137  0.1674  0.2438  1.0163
41189SOL     OW27097   1.649   4.175   1.920  0.6979  0.2597 -0.5201
41189SOL    HW127098   1.603   4.117   1.981 -1.1287  1.1307 -1.0200
41189SOL    HW227099   1.654   4.259   1.966  1.4576  0.2848 -0.6368
41190SOL     OW27100   4.339   3.805   9.065 -0.0710 -0.4507 -0.7466
41190SOL    HW127101   4.421   3.766   9.033  0.3460  0.4744 -0.8247
41190SOL    HW227102   4.308   3.859   8.993 -0.0076  0.3159 -0.2055
41191SOL     OW27103   3.910   6.712   2.941 -0.1209 -0.1599  0.0894
41191SOL    HW127104   3.852   6.704   3.017  0.7406 -0.1651  0.7662
41191SOL    HW227105   3.919   6.807   2.928  0.9681 -0.1001  1.0091
41192SOL     OW27106   8.422   1.367   7.743 -0.2722 -0.0223  0.1469
41192SOL    HW127107   8.517   1.377   7.732  0.0130 -1.2561  1.1383
41192SOL    HW227108   8.392   1.452   7.774  0.7048  0.0619  0.9160
41193SOL     OW27109   7.745  10.567   0.738 -0.2747 -0.3719 -0.5708
41193SOL    HW127110   7.758  10.520   0.656  0.5937  0.4624 -0.9241
41193SOL    HW227111   7.657  10.604   0.731 -0.1767 -0.2389 -1.1640
41194SOL     OW27112   4.957   9.323   5.819 -0.0538 -0.3342  0.2865
41194SOL    HW127113   4.920   9.373   5.747 -1.0862  0.3105  1.2287
41194SOL    HW227114   5.051   9.336   5.811 -0.2811  2.5655  0.9903
41195SOL     OW27115   9.891   9.196   8.331 -0.2917 -0.2832  0.8746
41195SOL    HW127116   9.851   9.250   8.399 -1.8801 -0.4326  0.0968
41195SOL    HW227117   9.860   9.107   8.351  3.0613 -1.1988  2.7293
41196SOL     OW27118   9.465   4.524   9.917 -0.0899 -0.0965 -0.7912
41196SOL    HW127119   9.548   4.517   9.871  1.1022 -0.6854  1.2972
41196SOL    HW227120   9.420   4.442   9.899  0.6669 -0.6090 -0.4019
41197SOL     OW27121  10.318   1.684   7.797 -0.3411  0.2118 -0.2536
41197SOL    HW127122  10.262   1.757   7.825  0.6427  1.1185 -0.5609
41197SOL    HW227123  10.302   1.676   7.703 -1.7443 -1.1519  0.0593
41198SOL     OW27124  10.968   5.351   4.980  0.0466  0.0618 -0.1646
41198SOL    HW127125  10.902   5.329   4.914  0.5364 -0.1181 -0.5973
41198SOL    HW227126  10.921   5.408   5.042 -0.3448  0.4508 -0.8074
41199SOL     OW27127   6.668  10.108   0.827  0.6330 -0.2901  0.1419
41199SOL    HW127128   6.583  10.078   0.795  0.0795  0.9693  0.3737
41199SOL    HW227129   6.706  10.155   0.754 -0.8569  3.0450  1.2810
41200SOL     OW27130   2.824   8.799   8.224 -0.0197 -0.1483  0.2762
41200SOL    HW127131   2.911   8.764   8.242 -0.4494  0.1693  3.6758
41200SOL    HW227132   2.779   8.795   8.308 -2.7622  1.2573 -0.9870
41201SOL     OW27133  10.503   6.273   6.618  0.5706 -0.2069  0.2220
41201SOL    HW127134  10.539   6.186   6.601  1.8589  0.1899  0.7870
41201SOL    HW227135  10.500   6.279   6.713 -2.9045 -0.9399  0.2787
41202SOL     OW27136   4.273   8.060   2.666 -0.0468 -0.0588  0.5705
41202SOL    HW127137   4.346   8.069   2.605  0.8843  0.5625  1.7352
41202SOL    HW227138   4.225   8.142   2.660 -0.4470 -0.3209  0.0848
41203SOL     OW27139   7.637   6.592   6.331 -0.5945 -0.1606  0.3933
41203SOL    HW127140   7.683   6.643   6.397 -0.5356  0.0377  0.2005
41203SOL    HW227141   7.635   6.648   6.254 -0.2136 -0.5901  0.0662
41204SOL     OW27142   4.746   2.444   0.048  0.3525 -0.1583 -0.1825
41204SOL    HW127143   4.655   2.458   0.021 -0.1478  0.4271  1.6877
41204SOL    HW227144   4.797   2.501  -0.010 -0.5334  0.0115 -0.8129
41205SOL     OW27145   9.982   8.324   4.238 -0.4437 -1.0366  0.2125
41205SOL    HW127146  10.076   8.308   4.245 -0.2442 -0.2410 -0.4652
41205SOL    HW227147   9.970   8.412   4.274 -0.8028 -0.7901 -0.5044
41206SOL     OW27148   8.514   6.903  10.964 -0.2509  0.3979  0.4685
41206SOL    HW127149   8.506   6.994  10.994 -0.3746  0.4211  0.3658
41206SOL    HW227150   8.573   6.862  11.028  0.0027  0.6142  0.3745
41207SOL     OW27151   1.349   4.048   7.819 -0.0491 -0.0530  0.5902
41207SOL    HW127152   1.364   4.096   7.900 -0.9001  3.1915 -0.9928
41207SOL    HW227153   1.254   4.049   7.808  0.0518 -0.4536 -0.4310
41208SOL     OW27154   5.801   2.325   8.246  0.6182 -0.0985 -0.5639
41208SOL    HW127155   5.880   2.289   8.206  2.3137 -1.5580  3.4962
41208SOL    HW227156   5.821   2.417   8.261  1.6324 -0.4678  0.4619
41209SOL     OW27157   7.842   5.352   1.800  0.9518  0.1122  0.0770
41209SOL    HW127158   7.894   5.306   1.866  0.5281  1.4513  1.4221
41209SOL    HW227159   7.907   5.385   1.738  1.2613 -2.1096 -0.8468
41210SOL     OW27160   5.613   6.020   6.291 -0.0937  0.4596 -0.0216
41210SOL    HW127161   5.578   6.046   6.376  1.7430  2.5386  0.1732
41210SOL    HW227162   5.708   6.019   6.304  0.1767 -0.0889 -1.8154
41211SOL     OW27163   7.965   9.499   3.631  0.1442 -0.5138 -0.3761
41211SOL    HW127164   8.006   9.413   3.628  1.1297 -0.0531 -0.5278
41211SOL    HW227165   7.981   9.537   3.545 -0.4669 -0.2572 -0.3810
41212SOL     OW27166   3.831   1.729   5.360  0.3673 -0.0251  0.1966
41212SOL    HW127167   3.898   1.788   5.327  1.3600 -1.1624  0.1060
41212SOL    HW227168   3.810   1.672   5.286 -1.7267  1.1708 -0.1965
41213SOL     OW27169   8.793   0.362   7.807  0.8917  0.3095 -0.0444
41213SOL    HW127170   8.759   0.451   7.806  0.0467  0.0008  0.3963
41213SOL    HW227171   8.844   0.356   7.887 -1.9501 -0.6278  1.8199
41214SOL     OW27172   8.748   5.141   8.150  0.4649 -0.6293  0.2630
41214SOL    HW127173   8.837   5.168   8.124 -0.2156  1.5402 -0.0375
41214SOL    HW227174   8.761   5.089   8.229  2.1162 -1.9267 -0.7827
41215SOL     OW27175   3.426   6.741   3.284  0.8087  0.3281  0.1290
41215SOL    HW127176   3.381   6.823   3.302 -1.2885 -0.6147 -0.5394
41215SOL    HW227177   3.503   6.743   3.341 -0.5141  1.6325  1.9831
41216SOL     OW27178   4.151  10.303   0.945 -0.2595 -0.0962 -0.0377
41216SOL    HW127179   4.129  10.257   1.026  1.4154 -0.4416  0.2638
41216SOL    HW227180   4.081  10.368   0.934 -0.8955 -0.5237  1.2957
41217SOL     OW27181   0.776   0.384  10.609 -0.2318  0.6474 -0.3598
41217SOL    HW127182   0.754   0.402  10.518 -0.3714  0.7597 -0.3030
41217SOL    HW227183   0.700   0.337  10.643 -0.6785  1.6438  0.0296
41218SOL     OW27184   6.644   8.410   7.556 -0.7345 -0.2589  0.0055
41218SOL    HW127185   6.602   8.403   7.643 -1.1539 -0.6666 -0.2207
41218SOL    HW227186   6.693   8.328   7.547 -0.7447 -0.2458 -0.1693
41219SOL     OW27187   4.837   7.394   9.941  0.1075  0.1710  0.3284
41219SOL    HW127188   4.907   7.389  10.006  0.7301  0.8309 -0.2642
41219SOL    HW227189   4.790   7.474   9.963 -0.8631 -0.5980  1.1039
41220SOL     OW27190   2.070   5.900   7.671 -0.2126 -0.6997  1.2059
41220SOL    HW127191   2.164   5.892   7.684  0.1758  0.6316 -0.4498
41220SOL    HW227192   2.051   5.841   7.597 -0.4853 -0.1877  0.8644
41221SOL     OW27193   8.016   5.945   7.941  0.0232 -0.0302 -0.2441
41221SOL    HW127194   7.924   5.951   7.917 -0.8724 -0.1299  2.7761
41221SOL    HW227195   8.062   5.936   7.858 -2.6380  0.3788 -1.8674
41222SOL     OW27196   6.614   7.918   1.211 -0.3586 -0.0969  1.2499
41222SOL    HW127197   6.579   8.007   1.214  0.5758  0.3172  0.4500
41222SOL    HW227198   6.690   7.924   1.153 -0.4133 -1.4671  1.0027
41223SOL     OW27199   7.905   0.580   6.497  0.2141 -0.0809  0.0511
41223SOL    HW127200   7.873   0.518   6.562 -0.5257  0.3875  0.1515
41223SOL    HW227201   7.994   0.600   6.524  1.4766 -3.0725 -1.4343
41224SOL     OW27202   6.924   3.038   9.646  0.5268 -0.5505  0.6806
41224SOL    HW127203   7.018   3.047   9.635  0.5487 -1.2506  0.2460
41224SOL    HW227204   6.913   2.955   9.693  0.1638 -0.1016  1.4104
41225SOL     OW27205   8.777   0.882   7.705  0.4301  0.9856 -0.2669
41225SOL    HW127206   8.795   0.965   7.750  1.5893  0.3998  0.4073
41225SOL    HW227207   8.852   0.827   7.728 -1.2552 -0.9233  0.9127
41226SOL     OW27208   5.033  10.594  10.209 -0.0766 -0.3091 -0.5742
41226SOL    HW127209   5.089  10.635  10.274 -0.4379 -0.3298 -0.2472
41226SOL    HW227210   5.089  10.582  10.133  0.0181  0.8577 -0.6992
41227SOL     OW27211   2.891   0.515   1.741  0.0989  0.5842 -0.1560
41227SOL    HW127212   2.930   0.490   1.657 -0.3950 -0.8429 -0.0028
41227SOL    HW227213   2.954   0.486   1.807 -0.4807 -0.3229  0.0276
41228SOL     OW27214   1.615   8.712   3.904  0.3949 -1.0591 -0.3618
41228SOL    HW127215   1.650   8.727   3.991  1.0371  1.0734 -0.9320
41228SOL    HW227216   1.574   8.795   3.879  1.5927 -1.0796 -2.6690
41229SOL     OW27217   5.613   4.077   0.329 -0.0556  0.2064  0.3312
41229SOL    HW127218   5.628   4.009   0.394 -0.7486 -0.5779 -0.3010
41229SOL    HW227219   5.657   4.045   0.250  0.5542  1.0186  0.3300
41230SOL     OW27220  10.641   0.596   2.036 -0.3277  0.3618  0.5415
41230SOL    HW127221  10.670   0.610   1.947  0.3914 -0.1280  0.6896
41230SOL    HW227222  10.701   0.647   2.090 -0.2013 -0.0610  0.8040
41231SOL     OW27223   8.133   8.083   0.145 -0.6349 -0.3162  0.0205
41231SOL    HW127224   8.058   8.073   0.204  0.6072  0.1344  1.7494
41231SOL    HW227225   8.111   8.159   0.090 -1.8691 -0.8212 -0.2138
41232SOL     OW27226   5.325   6.599   1.588  0.3585  0.0569 -0.3367
41232SOL    HW127227   5.285   6.591   1.675  0.2276  0.2210 -0.3813
41232SOL    HW227228   5.351   6.509   1.566  1.2456  0.1465  0.2761
41233SOL     OW27229   2.084   4.488   5.738  0.1203  0.0223 -0.3222
41233SOL    HW127230   2.048   4.556   5.681  1.0688  0.0905 -0.8760
41233SOL    HW227231   2.073   4.407   5.688 -0.4888 -0.1584  0.0925
41234SOL     OW27232   1.868   2.587   4.086  0.1304 -0.1653  0.5378
41234SOL    HW127233   1.845   2.494   4.076  1.1566 -0.4670  0.8923
41234SOL    HW227234   1.934   2.588   4.155  0.8736  0.7178 -0.1635
41235SOL     OW27235   9.271  10.221   1.982 -0.7538  0.4695  0.0687
41235SOL    HW127236   9.205  10.274   1.937 -0.9678 -1.6253 -2.3258
41235SOL    HW227237   9.355  10.257   1.953 -0.9045  0.1651 -0.8017
41236SOL     OW27238   6.585   6.676   6.995 -0.1755  0.7887 -0.2473
41236SOL    HW127239   6.655   6.623   6.960 -1.9631 -2.2013  0.3491
41236SOL    HW227240   6.571   6.745   6.930  1.3630 -0.2624 -1.7448
41237SOL     OW27241   0.573   9.438   5.091 -0.2145  0.2027 -0.3949
41237SOL    HW127242   0.543   9.373   5.027 -0.6882  0.3219 -0.2974
41237SOL    HW227243   0.494   9.485   5.116 -0.2980 -0.7969  1.3766
41238SOL     OW27244   3.145   8.352   9.691  0.3749 -0.3752 -0.0136
41238SOL    HW127245   3.084   8.310   9.631 -0.9918 -0.2319  1.2192
41238SOL    HW227246   3.216   8.289   9.702 -1.0632 -1.9072  0.8896
41239SOL     OW27247   2.066   8.156   1.057 -0.3736  0.0308 -0.0380
41239SOL    HW127248   2.106   8.242   1.048  1.9038 -0.7762  1.3861
41239SOL    HW227249   2.005   8.166   1.130 -0.7825  0.6391 -0.4560
41240SOL     OW27250   0.665   8.036   7.203  0.2564  0.1014 -0.5109
41240SOL    HW127251   0.589   8.075   7.247  0.1832 -1.9045  1.2735
41240SOL    HW227252   0.725   8.015   7.274  1.7375  0.0381 -1.7483
41241SOL     OW27253   4.693   9.107   3.408  0.2204 -0.0348  0.1421
41241SOL    HW127254   4.752   9.143   3.342 -1.7949  0.6670 -1.3669
41241SOL    HW227255   4.608   9.144   3.387 -0.5186  0.3083  3.2385
41242SOL     OW27256   1.780   5.809   6.613 -0.2613 -0.5701 -0.4516
41242SOL    HW127257   1.767   5.800   6.519  0.5354 -0.7185 -0.5559
41242SOL    HW227258   1.861   5.859   6.621 -0.8275  0.2749  0.1543
41243SOL     OW27259   8.603   6.685   3.375 -0.4309 -0.1827 -0.0955
41243SOL    HW127260   8.596   6.608   3.319  0.5731 -0.6337  0.3818
41243SOL    HW227261   8.560   6.660   3.457  0.0844 -0.3063  0.1362
41244SOL     OW27262   3.534   3.636   5.263  0.2053  0.1370 -0.6446
41244SOL    HW127263   3.619   3.618   5.225 -0.0001 -0.9098 -0.6435
41244SOL    HW227264   3.473   3.635   5.189  0.2942  1.7933 -0.7785
41245SOL     OW27265   6.862   4.219   2.694  0.3371  0.0210 -0.3898
41245SOL    HW127266   6.956   4.222   2.676  0.2112  1.2008 -0.9430
41245SOL    HW227267   6.831   4.142   2.646  0.4575  1.5774 -3.1820
41246SOL     OW27268   9.578   8.526   4.354 -0.0080 -0.0092  0.0052
41246SOL    HW127269   9.617   8.517   4.267 -2.2229 -3.3217 -0.8394
41246SOL    HW227270   9.649   8.505   4.415  0.6560 -1.6957 -1.2613
41247SOL     OW27271   0.351   5.988   7.785  0.0734  0.3467  0.7486
41247SOL    HW127272   0.387   6.067   7.744 -1.8767  1.8241  1.7406
41247SOL    HW227273   0.257   5.997   7.776 -0.2151 -1.6591  1.3303
41248SOL     OW27274   9.083   6.902   7.926 -0.3812 -0.5385  0.1688
41248SOL    HW127275   9.050   6.920   7.838  0.2581 -0.5963 -0.0879
41248SOL    HW227276   9.005   6.878   7.977 -0.9581  0.8195 -0.0235
41249SOL     OW27277   1.475   1.118   1.952  0.4779 -0.7299  0.0398
41249SOL    HW127278   1.448   1.028   1.933  1.5115 -1.0855  0.1838
41249SOL    HW227279   1.513   1.114   2.039  0.4784 -0.1359  0.0711
41250SOL     OW27280   3.517   9.482   3.659 -0.4040  0.4894  0.4512
41250SOL    HW127281   3.575   9.405   3.661 -0.6399  0.2021 -1.5977
41250SOL    HW227282   3.455   9.463   3.589 -1.6393  1.7571  1.1613
41251SOL     OW27283   9.729   8.079   8.706  0.4249 -0.3641  0.3744
41251SOL    HW127284   9.702   8.002   8.655 -2.6572  0.6374  0.3309
41251SOL    HW227285   9.695   8.062   8.794 -1.4012  1.4077  0.0731
41252SOL     OW27286   3.663   9.433   1.356 -0.3521  0.3370 -0.3185
41252SOL    HW127287   3.718   9.509   1.374 -0.1197 -0.1600  1.1890
41252SOL    HW227288   3.718   9.375   1.303  0.6481 -0.1836  1.2250
41253SOL     OW27289   0.491  10.799   6.145 -0.2421 -0.2032 -0.8805
41253SOL    HW127290   0.471  10.775   6.055 -0.4477 -0.9724 -0.6415
41253SOL    HW227291   0.412  10.846   6.175  0.7390  2.1807 -1.8099
41254SOL     OW27292   2.786   1.339   9.281 -0.0309  0.0416  0.8071
41254SOL    HW127293   2.797   1.419   9.231  0.9762 -0.4572  0.1902
41254SOL    HW227294   2.859   1.339   9.343 -0.2798 -0.1813  1.1063
41255SOL     OW27295   7.335   1.712   5.710  0.2382 -0.3370  0.2315
41255SOL    HW127296   7.348   1.764   5.631 -0.2789 -0.5136  0.0328
41255SOL    HW227297   7.259   1.657   5.692  0.3299 -0.6345  0.7174
41256SOL     OW27298   6.539   6.798   9.581  0.1218  0.1617 -0.3117
41256SOL    HW127299   6.587   6.881   9.584 -0.2091  0.3565 -0.3100
41256SOL    HW227300   6.486   6.804   9.501 -0.5188  0.3043  0.1150
41257SOL     OW27301   9.673   5.380   8.737 -0.0827 -0.1511  0.2356
41257SOL    HW127302   9.762   5.414   8.728  0.0474 -0.8073 -1.4852
41257SOL    HW227303   9.621   5.456   8.762  0.7323  0.5821 -0.2249
41258SOL     OW27304  10.222   1.761   5.148 -0.1734 -0.1728 -0.0027
41258SOL    HW127305  10.214   1.666   5.141 -0.7726 -0.0710 -0.7999
41258SOL    HW227306  10.281   1.775   5.223 -0.6424 -1.1430  0.5569
41259SOL     OW27307   0.370   5.693   0.307  0.2843 -0.0354  0.1751
41259SOL    HW127308   0.283   5.725   0.334  0.6259 -1.1936  3.0714
41259SOL    HW227309   0.354   5.646   0.226 -1.3639  1.7199 -0.6111
41260SOL     OW27310   3.133   4.588   0.493  0.3047  0.0257 -0.3144
41260SOL    HW127311   3.200   4.530   0.528  0.3372  0.3712  0.2093
41260SOL    HW227312   3.160   4.604   0.402 -0.1413 -1.4094 -0.7192
41261SOL     OW27313   5.106   4.064  10.777 -0.0022 -0.4502 -0.0388
41261SOL    HW127314   5.172   4.061  10.708 -1.7880 -2.2751 -1.8198
41261SOL    HW227315   5.091   4.157  10.793  0.9773  0.0154 -1.6302
41262SOL     OW27316   5.459   8.616   5.884 -0.0803 -0.1882 -0.2997
41262SOL    HW127317   5.445   8.527   5.917 -0.3426 -0.3376 -0.8178
41262SOL    HW227318   5.525   8.607   5.816 -1.1776 -0.2155 -1.4016
41263SOL     OW27319   2.652   9.184   3.910  0.3910 -0.1396 -0.3147
41263SOL    HW127320   2.732   9.187   3.963  1.2266 -2.7168 -1.2873
41263SOL    HW227321   2.654   9.098   3.868 -3.0496 -0.4246 -0.1705
41264SOL     OW27322   2.750   4.049   6.137  0.0723 -0.3081 -0.4166
41264SOL    HW127323   2.760   3.959   6.169 -1.1254 -0.7180 -1.1263
41264SOL    HW227324   2.759   4.042   6.042  1.0423  0.5049 -0.4012
41265SOL     OW27325   5.323   3.327   3.364  0.2148 -0.5657  0.4870
41265SOL    HW127326   5.349   3.332   3.272 -1.7681 -0.6775 -0.1136
41265SOL    HW227327   5.394   3.278   3.405  1.2333 -0.3632 -0.9257
41266SOL     OW27328   3.454   9.361   9.974 -0.5546 -0.0715 -0.2606
41266SOL    HW127329   3.362   9.379   9.991 -0.3739 -0.4549  1.2270
41266SOL    HW227330   3.477   9.291  10.035  0.8691  0.4067 -0.2002
41267SOL     OW27331   1.423   6.678   0.092 -0.3602  0.1646 -0.2232
41267SOL    HW127332   1.447   6.708   0.004 -0.7010  0.1227 -0.3304
41267SOL    HW227333   1.328   6.680   0.093 -0.4760  4.3947  1.5729
41268SOL     OW27334   9.789   5.730   2.990  0.5038  0.4771 -0.2406
41268SOL    HW127335   9.729   5.749   2.917 -0.1519  0.7460  0.3554
41268SOL    HW227336   9.761   5.644   3.021  1.3203 -0.0062 -0.8271
41269SOL     OW27337   6.461   0.581   2.199 -0.3634 -0.0616  0.2185
41269SOL    HW127338   6.492   0.497   2.166  1.7657  0.6578  0.2111
41269SOL    HW227339   6.528   0.609   2.262 -1.7350  0.9855  1.2933
41270SOL     OW27340   4.258   7.362   9.532 -0.0945  0.3189  0.0529
41270SOL    HW127341   4.298   7.406   9.457  1.7326  1.6149  1.7068
41270SOL    HW227342   4.218   7.283   9.494  0.9367  0.7995 -2.2383
41271SOL     OW27343  11.021  10.867   0.293 -0.1905  0.3073 -0.0469
41271SOL    HW127344  11.034  10.877   0.198  3.1791  0.8308  0.3468
41271SOL    HW227345  10.963  10.939   0.316  0.3232  1.2551 -1.5036
41272SOL     OW27346   5.027   8.553   8.768  0.0166  0.4436 -0.0177
41272SOL    HW127347   5.099   8.526   8.825 -0.5623  0.8043  0.9107
41272SOL    HW227348   5.055   8.636   8.731  1.4149 -0.8622 -2.1738
41273SOL     OW27349  10.599   5.820  10.144  0.7952  0.0876 -0.0799
41273SOL    HW127350  10.554   5.750  10.192 -1.1542  0.6098 -1.0284
41273SOL    HW227351  10.587   5.898  10.198  1.4691  0.0284  0.1571
41274SOL     OW27352   2.097   7.257   3.784 -0.5054  0.0175 -0.0648
41274SOL    HW127353   2.026   7.245   3.721 -2.0387  3.2415  0.8129
41274SOL    HW227354   2.063   7.224   3.867  0.4361 -1.6391 -0.2981
41275SOL     OW27355   1.879   9.574   3.072  0.0813  0.2774 -0.3617
41275SOL    HW127356   1.937   9.498   3.067  2.4827  2.0137 -0.5908
41275SOL    HW227357   1.893   9.609   3.160 -1.3729  0.2052 -0.0862
41276SOL     OW27358   8.077   3.288   7.960  0.3151  0.5529 -0.4424
41276SOL    HW127359   8.008   3.354   7.968  0.9768  1.1177  0.8851
41276SOL    HW227360   8.030   3.205   7.961 -0.2954  0.8262  2.4610
41277SOL     OW27361   7.764   0.301   1.161 -0.4206  0.1655 -0.2361
41277SOL    HW127362   7.804   0.240   1.224 -1.8917  0.6772  1.2479
41277SOL    HW227363   7.720   0.244   1.097 -0.1640 -0.3459  0.0360
41278SOL     OW27364   3.537   4.515   5.007  0.2747  0.5643 -0.1462
41278SOL    HW127365   3.520   4.455   4.935  0.6283 -0.2380  0.4312
41278SOL    HW227366   3.586   4.464   5.071  0.4277  1.4120  0.4384
41279SOL     OW27367   5.323  10.941   2.661 -0.1420  0.2739  0.0719
41279SOL    HW127368   5.276  11.024   2.669  0.7108  0.6285  1.9411
41279SOL    HW227369   5.291  10.888   2.734  0.9728 -0.1701  0.2601
41280SOL     OW27370   1.599  10.294   2.352 -0.2866  0.2077 -0.3533
41280SOL    HW127371   1.598  10.366   2.415 -0.3153  0.6358 -0.8372
41280SOL    HW227372   1.659  10.323   2.284  0.7740 -0.8155  0.1104
41281SOL     OW27373   7.146   0.458   0.524 -0.0504  0.1034 -0.6473
41281SOL    HW127374   7.144   0.446   0.429 -0.8793 -2.5521 -0.3720
41281SOL    HW227375   7.229   0.421   0.552 -0.4426 -0.4582 -0.2071
41282SOL     OW27376   2.308   7.950  10.816 -0.3566 -1.0358 -0.1271
41282SOL    HW127377   2.250   7.928  10.889  0.7901 -1.4074  0.7166
41282SOL    HW227378   2.273   8.032  10.781 -1.7375 -1.5684 -0.0538
41283SOL     OW27379   2.296   1.203   9.164  0.1571 -0.2877  0.2354
41283SOL    HW127380   2.330   1.270   9.104 -0.8969 -0.7889 -0.9903
41283SOL    HW227381   2.329   1.121   9.128 -0.6743 -0.6124  0.1939
41284SOL     OW27382   2.797   7.555   8.726 -0.7579  0.5878  0.0242
41284SOL    HW127383   2.871   7.548   8.666 -1.7905 -1.4938 -1.1134
41284SOL    HW227384   2.828   7.614   8.795  1.8336  0.0678 -0.5722
41285SOL     OW27385   6.659   2.991   0.337 -0.6649 -0.0565  0.4554
41285SOL    HW127386   6.665   3.080   0.302 -0.9409  0.3751  1.4535
41285SOL    HW227387   6.568   2.983   0.367 -1.0873 -1.2381 -1.0308
41286SOL     OW27388   0.348   9.621   1.066  0.4968  0.0016  0.0060
41286SOL    HW127389   0.411   9.573   1.013  0.7041  0.1645  0.1051
41286SOL    HW227390   0.345   9.708   1.027  2.2823  0.8275  1.5566
41287SOL     OW27391   5.934   3.232   1.828  0.8593 -0.3393 -0.4107
41287SOL    HW127392   5.845   3.245   1.793  0.3254  0.2763  1.1114
41287SOL    HW227393   5.991   3.258   1.756 -0.1963  1.0289 -0.8066
41288SOL     OW27394   7.728   2.121  10.344  0.2219  0.3665  0.1742
41288SOL    HW127395   7.661   2.055  10.327 -0.7031  1.7861 -2.2685
41288SOL    HW227396   7.678   2.201  10.362  1.3037  0.6006  2.4440
41289SOL     OW27397   9.392   2.718   3.815 -0.4040  0.2130  0.9525
41289SOL    HW127398   9.373   2.626   3.830 -4.2288  1.0684  2.3986
41289SOL    HW227399   9.351   2.738   3.731  1.8405  0.3440 -0.1960
41290SOL     OW27400   5.972   8.008  10.297  0.1992  0.2369 -0.5964
41290SOL    HW127401   5.905   7.942  10.278  0.8515 -0.8186  0.5925
41290SOL    HW227402   5.940   8.051  10.377 -0.5291  1.8417 -1.6924
41291SOL     OW27403   7.266   4.563   4.509 -0.1205 -0.5407  0.1677
41291SOL    HW127404   7.233   4.596   4.425 -0.0367  1.2160  0.7887
41291SOL    HW227405   7.361   4.568   4.500  0.0773 -3.7952 -0.9100
41292SOL     OW27406   8.274   8.016   0.374 -0.4618 -0.3719 -0.0178
41292SOL    HW127407   8.280   8.045   0.283 -1.1712  0.6596  0.2454
41292SOL    HW227408   8.206   7.949   0.373 -1.3433  0.5048 -0.0618
41293SOL     OW27409  10.785   1.058   1.360  0.0221 -0.3447  0.1960
41293SOL    HW127410  10.722   1.119   1.399 -1.8539 -0.8274 -1.8345
41293SOL    HW227411  10.865   1.109   1.350 -0.6902  0.9769  0.9212
41294SOL     OW27412   0.891   9.688   8.539 -0.0042  0.1331 -0.2199
41294SOL    HW127413   0.892   9.731   8.625 -0.8358  1.2216 -0.7180
41294SOL    HW227414   0.810   9.637   8.539 -0.3849  0.7099 -0.5916
41295SOL     OW27415   1.643   6.214   1.709  0.1228  0.1905 -0.0143
41295SOL    HW127416   1.645   6.151   1.781  1.2005  0.1394 -0.0709
41295SOL    HW227417   1.573   6.275   1.731 -1.7714 -1.6724 -0.5120
41296SOL     OW27418   9.461   4.121   2.077 -0.1852  0.3879  0.0616
41296SOL    HW127419   9.548   4.090   2.102 -0.8059 -0.4358  1.2997
41296SOL    HW227420   9.478   4.197   2.022  1.3214  0.1456  0.1426
41297SOL     OW27421   1.211   9.759   0.750  0.6779  0.5826  0.7552
41297SOL    HW127422   1.219   9.681   0.695  1.8078  0.2834  1.3096
41297SOL    HW227423   1.118   9.782   0.745 -0.0115 -1.6563  1.7225
41298SOL     OW27424   4.298  10.525   7.534 -0.2073 -0.0091 -0.4709
41298SOL    HW127425   4.381  10.491   7.570 -0.3251  0.6093  0.4096
41298SOL    HW227426   4.284  10.473   7.455  0.7388 -0.5080 -0.3316
41299SOL     OW27427   3.957   1.194   4.885  0.2429 -0.0804  0.7218
41299SOL    HW127428   3.915   1.226   4.805 -1.2302 -0.5833  1.2742
41299SOL    HW227429   4.048   1.178   4.859  0.1773  1.2169 -0.4503
41300SOL     OW27430  10.714   4.189   4.375  0.1548  0.6284  0.2012
41300SOL    HW127431  10.747   4.273   4.407  0.2288  0.6623  0.0350
41300SOL    HW227432  10.716   4.197   4.280  0.7592  0.2090  0.1753
41301SOL     OW27433   5.588   5.158   5.588  0.0873 -0.0173 -0.3206
41301SOL    HW127434   5.606   5.234   5.643  1.0013  0.8743 -1.7977
41301SOL    HW227435   5.523   5.189   5.524  1.2310 -0.1446 -1.5776
41302SOL     OW27436  10.102   1.360   3.544 -0.1038  0.4077 -0.1650
41302SOL    HW127437  10.116   1.451   3.569  2.3771  0.1252 -0.2933
41302SOL    HW227438  10.016   1.360   3.502 -0.7702  2.3992  1.0532
41303SOL     OW27439   3.499   7.922   2.777 -0.0637 -0.1884  0.1886
41303SOL    HW127440   3.444   7.993   2.809 -1.7633  0.7568 -4.1670
41303SOL    HW227441   3.575   7.966   2.739 -0.8956 -0.5842 -2.1070
41304SOL     OW27442   1.374   1.432  10.893  0.6702  0.2677  0.4564
41304SOL    HW127443   1.284   1.413  10.864  1.6423 -0.5074 -2.3580
41304SOL    HW227444   1.417   1.346  10.895  2.3421  0.9141 -2.2053
41305SOL     OW27445   9.773   7.457   0.939 -0.0722  0.3719  0.0734
41305SOL    HW127446   9.728   7.516   0.880  0.0198  2.3537  1.8722
41305SOL    HW227447   9.707   7.430   1.002  0.1945 -0.4233  0.0252
41306SOL     OW27448   4.568   8.531   1.599 -0.3036  0.7890 -0.2458
41306SOL    HW127449   4.622   8.558   1.673 -1.2557  2.2410 -0.0362
41306SOL    HW227450   4.551   8.611   1.551 -1.9722  0.3309 -0.4859
41307SOL     OW27451   7.480   5.937   5.101 -0.3335 -0.1500  0.4932
41307SOL    HW127452   7.542   5.952   5.030 -0.7712  1.1438  0.3549
41307SOL    HW227453   7.395   5.967   5.067 -0.8927 -1.1216  0.9632
41308SOL     OW27454   9.528   2.851   4.687 -0.3093 -0.6780  0.3999
41308SOL    HW127455   9.490   2.939   4.685 -1.1338 -1.0245  0.1285
41308SOL    HW227456   9.578   2.845   4.605  0.0328 -0.3451  0.5824
41309SOL     OW27457   7.865   2.812   1.874 -0.3859 -0.4549 -0.2147
41309SOL    HW127458   7.961   2.811   1.877 -0.3636  0.2340 -0.3277
41309SOL    HW227459   7.843   2.770   1.791 -0.1493 -0.0757 -0.4753
41310SOL     OW27460  10.305  10.565  10.756  0.2311 -0.2731 -0.0918
41310SOL    HW127461  10.400  10.573  10.755  0.0855  2.1637 -1.4361
41310SOL    HW227462  10.286  10.513  10.835  2.6106 -0.3126  0.5239
41311SOL     OW27463   3.720   9.099   6.580  0.7252  0.0248  0.0796
41311SOL    HW127464   3.737   9.004   6.578 -0.2158 -0.3450  3.4641
41311SOL    HW227465   3.681   9.114   6.666 -2.8934  2.9135 -1.7924
41312SOL     OW27466   7.506  10.826   0.888 -0.8462  0.9403  0.1773
41312SOL    HW127467   7.578  10.828   0.951 -0.6571  1.2724 -0.0463
41312SOL    HW227468   7.428  10.843   0.940 -0.7060  1.0605  0.3490
41313SOL     OW27469   3.712   3.265   0.755 -0.1592 -0.0218 -0.0360
41313SOL    HW127470   3.641   3.322   0.786 -0.2487  0.7497 -1.5705
41313SOL    HW227471   3.676   3.220   0.679  1.2100  0.9905 -1.3472
41314SOL     OW27472   0.535  11.112  11.022 -0.6446  0.5454 -0.2032
41314SOL    HW127473   0.455  11.139  10.977 -0.4055 -0.1632 -1.0843
41314SOL    HW227474   0.534  11.016  11.017  0.4628  0.5382 -0.6285
41315SOL     OW27475   7.001   6.693   8.635 -0.2505 -0.2738  0.0540
41315SOL    HW127476   7.053   6.771   8.652  0.6129 -0.6644 -0.7117
41315SOL    HW227477   6.987   6.654   8.721  0.4547  0.0030  0.2982
41316SOL     OW27478   3.866  11.022   8.721 -0.2160  0.0602  0.5272
41316SOL    HW127479   3.912  11.083   8.663 -0.4737 -0.5641 -0.3599
41316SOL    HW227480   3.813  10.968   8.662 -2.0262  0.6991  1.5061
41317SOL     OW27481   3.261   0.883   5.883 -0.5391 -0.2240 -0.1379
41317SOL    HW127482   3.212   0.802   5.899 -0.6357 -0.5812 -2.0239
41317SOL    HW227483   3.217   0.948   5.938 -1.8610 -0.9776 -0.2521
41318SOL     OW27484   7.721  11.005   4.062 -0.1449  0.1039 -0.3368
41318SOL    HW127485   7.733  11.055   4.143 -1.6775  0.5740 -0.3591
41318SOL    HW227486   7.761  11.060   3.994 -0.5397  0.6389 -0.1489
41319SOL     OW27487  10.489   8.125   4.284  1.0273 -0.1097 -0.1294
41319SOL    HW127488  10.549   8.197   4.263 -0.3255  0.7280 -1.4181
41319SOL    HW227489  10.535   8.072   4.348  2.9421  0.7272 -0.7491
41320SOL     OW27490   0.104  10.830   3.704  0.0511  0.1381  0.1486
41320SOL    HW127491   0.009  10.820   3.709  0.0974 -0.0162  1.0574
41320SOL    HW227492   0.138  10.762   3.763  0.6936  0.5715  0.2932
41321SOL     OW27493   5.191   2.405   6.829  0.5792 -0.0597 -0.0172
41321SOL    HW127494   5.250   2.367   6.895  0.5443  0.3852  0.2792
41321SOL    HW227495   5.126   2.337   6.813 -1.0509  0.7587  2.4725
41322SOL     OW27496   9.309   0.643  10.244 -0.1592  0.3349  0.6928
41322SOL    HW127497   9.288   0.551  10.252 -0.3757  0.3339  0.1579
41322SOL    HW227498   9.404   0.645  10.229 -0.5236 -0.0397 -2.5139
41323SOL     OW27499   0.443   7.793   3.110 -0.0761 -0.0039 -0.0784
41323SOL    HW127500   0.444   7.836   3.195  0.5296 -0.4451  0.1517
41323SOL    HW227501   0.368   7.829   3.064 -0.4258  0.2073  0.6616
41324SOL     OW27502  10.617   8.463   2.995 -0.2676  0.1246 -0.3802
41324SOL    HW127503  10.571   8.524   3.054 -0.6856 -0.0035 -0.5719
41324SOL    HW227504  10.646   8.518   2.922 -0.9198  0.0396 -0.7074
41325SOL     OW27505   2.126   4.773   9.179  0.7033 -0.6568 -0.4748
41325SOL    HW127506   2.093   4.851   9.225  1.6437 -0.6303  0.1997
41325SOL    HW227507   2.060   4.754   9.113 -0.1217  0.0123  0.1326
41326SOL     OW27508   9.901   4.698   4.255 -0.4739  0.2661 -0.2182
41326SOL    HW127509   9.925   4.781   4.296 -0.8629 -1.1866  3.3355
41326SOL    HW227510   9.985   4.659   4.229 -0.1948  1.2699 -0.8430
41327SOL     OW27511   9.672   2.235   8.671  0.4935 -0.5133 -0.1771
41327SOL    HW127512   9.643   2.325   8.682  0.4749 -0.5129 -0.2303
41327SOL    HW227513   9.640   2.209   8.584  2.8689  0.3531 -1.3995
41328SOL     OW27514   0.195   1.921   6.893 -0.3489 -0.7555  0.0162
41328SOL    HW127515   0.137   1.991   6.865 -0.0190 -1.2368 -2.0953
41328SOL    HW227516   0.150   1.878   6.965 -1.4414  0.4178  0.0484
41329SOL     OW27517   9.339   6.960   0.883  0.9296  0.3156 -0.0871
41329SOL    HW127518   9.425   7.002   0.890  1.1608 -0.1659  0.0711
41329SOL    HW227519   9.352   6.874   0.923  0.4458  0.1318 -0.3176
41330SOL     OW27520   4.755  10.329   1.869 -0.0178  0.2661  0.3391
41330SOL    HW127521   4.733  10.243   1.833 -1.2587 -0.1098  1.8680
41330SOL    HW227522   4.673  10.359   1.910  0.6037  1.8393  0.4997
41331SOL     OW27523   8.446   2.428   4.618 -0.1013  0.3974 -0.0280
41331SOL    HW127524   8.499   2.428   4.538 -0.8816  0.5719 -0.5565
41331SOL    HW227525   8.374   2.369   4.599  0.9621 -1.4780  1.4420
41332SOL     OW27526   6.216  10.087  10.020 -0.2934  0.1435 -0.0544
41332SOL    HW127527   6.211  10.133  10.104 -0.1765 -1.4007  0.8348
41332SOL    HW227528   6.125  10.064  10.001 -0.1279 -1.0876  0.5814
41333SOL     OW27529   9.423   9.923   4.996 -0.3000 -0.2338  0.5351
41333SOL    HW127530   9.374   9.862   5.052 -0.2302  1.9790  3.1990
41333SOL    HW227531   9.356   9.979   4.958 -0.2517 -1.0346 -0.7786
41334SOL     OW27532   8.095   7.042   1.522  0.0411 -0.0917  0.7566
41334SOL    HW127533   8.067   7.000   1.441  1.7825 -1.5319  0.8389
41334SOL    HW227534   8.045   6.998   1.591 -0.2462 -0.0164  0.5945
41335SOL     OW27535   9.389   2.428  10.327  0.0252 -0.5275 -0.9009
41335SOL    HW127536   9.376   2.338  10.356 -1.9435  0.0860  0.3244
41335SOL    HW227537   9.408   2.477  10.407 -1.9980  0.6254 -1.0483
41336SOL     OW27538   8.271   5.635   0.768 -0.5139 -0.4393  0.6977
41336SOL    HW127539   8.250   5.542   0.764  1.8343 -1.2183  3.4255
41336SOL    HW227540   8.365   5.640   0.752 -0.9322  1.8119 -1.7638
41337SOL     OW27541   7.597   0.431   7.445  0.3130  0.2916 -0.3994
41337SOL    HW127542   7.607   0.522   7.420  2.3490  0.6408  1.3616
41337SOL    HW227543   7.687   0.401   7.461 -0.5000 -1.0591  2.1270
41338SOL     OW27544   3.756   9.304   9.910 -0.1996 -0.3083 -0.1456
41338SOL    HW127545   3.705   9.384   9.902 -0.2993 -0.3374  0.1778
41338SOL    HW227546   3.844   9.328   9.881  0.3558  0.5091  2.0473
41339SOL     OW27547   1.427   0.577   1.127  0.7158 -0.6258 -0.1704
41339SOL    HW127548   1.418   0.585   1.032 -2.0299 -0.4871  0.0090
41339SOL    HW227549   1.388   0.492   1.148  2.9799 -1.5260  0.7244
41340SOL     OW27550   4.719   4.348  10.742  0.2102  0.1035 -0.0720
41340SOL    HW127551   4.641   4.308  10.704 -0.8232  1.4665  0.5395
41340SOL    HW227552   4.768   4.274  10.778  0.0300 -0.9441 -1.8817
41341SOL     OW27553   5.996   0.691   2.966  0.0477 -0.2001 -0.2073
41341SOL    HW127554   6.073   0.689   3.023  1.1423 -2.2633 -1.6233
41341SOL    HW227555   6.026   0.740   2.889 -0.7903  0.9022  0.1588
41342SOL     OW27556   0.488   6.264   6.009  0.5483  0.1730  0.6286
41342SOL    HW127557   0.462   6.289   6.097  1.0885  2.9539  0.1210
41342SOL    HW227558   0.414   6.289   5.954  1.4955  1.6855 -0.0314
41343SOL     OW27559   4.355   8.175   0.339 -0.2578 -0.3671 -1.0136
41343SOL    HW127560   4.440   8.218   0.345  1.4373 -3.5339  0.2607
41343SOL    HW227561   4.295   8.244   0.312  2.3538  2.4489 -0.2065
41344SOL     OW27562   6.985   4.082   5.199 -0.4610 -0.1672 -0.7420
41344SOL    HW127563   6.973   4.052   5.289 -0.8190 -0.0819 -0.7572
41344SOL    HW227564   7.020   4.171   5.208  1.5353 -0.9216 -0.7020
41345SOL     OW27565   1.536   4.271   9.044 -0.6692 -0.6988 -0.4949
41345SOL    HW127566   1.629   4.288   9.033 -0.6864  1.2248  1.5823
41345SOL    HW227567   1.529   4.228   9.129 -1.8202  2.1889  1.0327
41346SOL     OW27568   7.732   3.746   2.737  0.2054 -0.4407 -0.8187
41346SOL    HW127569   7.669   3.755   2.665 -0.6238  1.7046  0.0942
41346SOL    HW227570   7.686   3.694   2.803  0.5107 -1.3579 -1.3106
41347SOL     OW27571   1.040   5.462  10.406 -0.2415 -0.1200 -1.0983
41347SOL    HW127572   1.119   5.423  10.368 -0.4011 -1.7229  0.1342
41347SOL    HW227573   0.973   5.395  10.395 -0.3262 -0.6239  1.8190
41348SOL     OW27574   3.459   8.132  10.734  0.6106  0.4464  0.6684
41348SOL    HW127575   3.396   8.203  10.725  1.4566  1.2736  1.0627
41348SOL    HW227576   3.428   8.064  10.675  0.0097  1.3069 -0.0239
41349SOL     OW27577   7.935   6.483   7.299  0.1228 -0.1887  0.0144
41349SOL    HW127578   7.855   6.518   7.260 -1.8976 -2.4885  1.7681
41349SOL    HW227579   7.975   6.431   7.229  0.1203  0.9249 -0.8552
41350SOL     OW27580   1.140   9.529  10.350 -0.4870  0.3189  0.3196
41350SOL    HW127581   1.148   9.439  10.379  1.0887 -0.0038 -0.9617
41350SOL    HW227582   1.112   9.523  10.259 -2.1396  1.1963  0.7390
41351SOL     OW27583   4.361   6.478   6.399  0.2057 -0.2026  0.5354
41351SOL    HW127584   4.299   6.551   6.403 -0.7500 -1.0180  1.0134
41351SOL    HW227585   4.310   6.402   6.426  1.2885 -0.9871  0.4220
41352SOL     OW27586  10.163   7.265   9.990  0.3183  0.3305  0.0498
41352SOL    HW127587  10.109   7.328   9.942 -1.0429 -1.3155 -0.6809
41352SOL    HW227588  10.184   7.197   9.926 -0.7085 -1.4247  1.4733
41353SOL     OW27589   1.042   2.114   7.533 -0.1917 -0.4530  0.2609
41353SOL    HW127590   1.035   2.152   7.445 -0.2067 -1.7694 -0.3338
41353SOL    HW227591   1.010   2.183   7.592  2.9149  1.7440 -0.3917
41354SOL     OW27592   4.489   7.447  10.979 -0.6758 -0.3995 -0.4225
41354SOL    HW127593   4.438   7.528  10.978  1.2814  0.9035 -0.0110
41354SOL    HW227594   4.455   7.396  10.905 -2.3894  0.4968 -0.2886
41355SOL     OW27595   1.438   1.668   7.080  0.2425  0.1512  0.2259
41355SOL    HW127596   1.411   1.755   7.111 -0.4163  0.4948 -1.2569
41355SOL    HW227597   1.358   1.628   7.048  0.8695 -0.2321 -0.9188
41356SOL     OW27598   4.590  10.825   9.472  0.3250 -0.1638  0.0131
41356SOL    HW127599   4.564  10.750   9.525 -1.3255 -0.4014 -1.0456
41356SOL    HW227600   4.665  10.793   9.421  0.2839 -0.7688  0.3245
41357SOL     OW27601   8.651   7.001   6.421 -0.6185  0.0966 -0.1054
41357SOL    HW127602   8.561   7.017   6.451 -0.1768  0.9509  0.8370
41357SOL    HW227603   8.706   7.051   6.482  0.3290  2.2637 -2.5536
41358SOL     OW27604   0.297   5.905   2.498  0.5555  0.2830 -0.3200
41358SOL    HW127605   0.253   5.820   2.496  0.4197  0.3506 -0.2801
41358SOL    HW227606   0.227   5.968   2.482  0.7487  0.3549 -0.9026
41359SOL     OW27607   6.823   8.698   4.417 -0.1770  0.4768 -0.2022
41359SOL    HW127608   6.874   8.777   4.435  0.8760 -0.1193 -0.4365
41359SOL    HW227609   6.881   8.645   4.362 -0.5184 -0.8217  0.6397
41360SOL     OW27610   2.186   6.717  10.867 -0.2833  0.0153  0.2413
41360SOL    HW127611   2.165   6.772  10.943 -2.7814 -1.1028  0.4817
41360SOL    HW227612   2.118   6.740  10.802 -0.5557 -1.7824 -0.1535
41361SOL     OW27613   6.645   9.133   9.402 -0.4330  0.2529  0.2436
41361SOL    HW127614   6.697   9.127   9.482 -0.2078  0.1161  0.0876
41361SOL    HW227615   6.634   9.227   9.387  0.0704  0.2901  0.0849
41362SOL     OW27616   6.309   3.122   8.776  0.3919  0.2644  0.4001
41362SOL    HW127617   6.247   3.180   8.730 -0.1868  1.4231  2.5342
41362SOL    HW227618   6.388   3.175   8.787  0.6275 -0.1024  0.4973
41363SOL     OW27619  10.148   6.974   6.434 -0.0513  0.1425  0.2848
41363SOL    HW127620  10.192   7.049   6.473 -0.4319  0.0904  0.8338
41363SOL    HW227621  10.124   7.003   6.346  0.2416  0.4887  0.3155
41364SOL     OW27622   8.632   4.129   9.089 -0.0040 -0.3828 -0.0395
41364SOL    HW127623   8.622   4.171   9.004 -1.1364  1.8355  1.0790
41364SOL    HW227624   8.588   4.189   9.150 -0.2914 -2.4686  1.9486
41365SOL     OW27625   3.630   7.266   5.681  0.7506 -0.0426  0.1074
41365SOL    HW127626   3.654   7.359   5.681  2.9057 -0.5334 -0.3990
41365SOL    HW227627   3.647   7.236   5.770 -1.4412  0.3308  0.7127
41366SOL     OW27628   6.643   7.529   8.845 -0.1757  0.1314 -0.7628
41366SOL    HW127629   6.729   7.558   8.815  0.2835 -0.1068  0.2725
41366SOL    HW227630   6.582   7.566   8.781  0.6702  0.4572 -1.4125
41367SOL     OW27631   5.132   0.467   3.954  0.6757  0.5927 -0.1814
41367SOL    HW127632   5.201   0.494   3.894 -0.3122  1.1342 -1.0890
41367SOL    HW227633   5.052   0.472   3.903 -0.1797  1.0112  1.1583
41368SOL     OW27634  11.108   2.194   4.832  0.1240 -0.1295  0.2256
41368SOL    HW127635  11.128   2.266   4.771  0.0569  0.7924  1.2514
41368SOL    HW227636  11.018   2.171   4.813  0.1773 -0.0034 -0.1891
41369SOL     OW27637   7.726   8.346  10.276 -0.4237 -0.2730  0.1137
41369SOL    HW127638   7.707   8.271  10.221 -0.2924  0.2769 -0.6964
41369SOL    HW227639   7.640   8.379  10.302 -0.6041  0.9576 -1.8361
41370SOL     OW27640   0.996   7.527   0.271 -0.5983  0.5960 -0.5738
41370SOL    HW127641   0.949   7.518   0.189 -0.7859  0.5533 -0.4617
41370SOL    HW227642   1.079   7.570   0.247 -1.3673  2.1896 -0.5456
41371SOL     OW27643   7.541  11.034   1.060 -0.1994 -0.6212 -0.3539
41371SOL    HW127644   7.565  11.121   1.029 -1.4805 -0.0297  0.2389
41371SOL    HW227645   7.449  11.024   1.036 -0.6001 -1.0415  1.2430
41372SOL     OW27646   8.682   0.255   8.168  0.2070 -0.0262 -0.4247
41372SOL    HW127647   8.742   0.276   8.239 -1.5297  0.0322  1.1034
41372SOL    HW227648   8.667   0.338   8.122  0.8992  0.0475 -0.5198
41373SOL     OW27649  10.414   4.443   5.156  0.2669  0.3060 -0.4335
41373SOL    HW127650  10.329   4.399   5.155  0.6443 -0.4551  0.2250
41373SOL    HW227651  10.443   4.439   5.247  0.8543  0.8728 -0.5830
41374SOL     OW27652   3.791   5.868   1.897 -0.1352 -0.3485  0.3027
41374SOL    HW127653   3.733   5.871   1.973 -0.1530 -0.5907  0.2985
41374SOL    HW227654   3.732   5.879   1.822 -0.0472  0.5517  0.3474
41375SOL     OW27655   0.734   8.232   8.718  0.3603  0.2355  0.1377
41375SOL    HW127656   0.734   8.314   8.668 -1.1474  0.5102  0.5527
41375SOL    HW227657   0.737   8.260   8.809 -0.2646 -0.1607  0.2852
41376SOL     OW27658  10.027   5.047   0.589  0.3658 -0.4101 -0.2837
41376SOL    HW127659   9.966   5.116   0.616  1.7254  1.4790 -1.7487
41376SOL    HW227660  10.023   4.982   0.660 -1.7229  0.6438  0.6727
41377SOL     OW27661   0.793  10.475   2.812  0.1920 -0.6524 -0.1246
41377SOL    HW127662   0.704  10.439   2.813 -0.3496  0.5968 -0.6775
41377SOL    HW227663   0.845  10.410   2.765 -0.5903 -1.0671 -0.4328
41378SOL     OW27664   2.506   8.036   3.106  0.0823  0.2990 -0.2071
41378SOL    HW127665   2.495   8.020   3.200  1.4641 -1.5440 -0.3053
41378SOL    HW227666   2.419   8.018   3.069 -0.2151  0.0055  0.6041
41379SOL     OW27667  10.554   8.614   5.784  0.5232  0.0763  0.1996
41379SOL    HW127668  10.547   8.596   5.878 -1.0255  0.1817  0.1312
41379SOL    HW227669  10.485   8.678   5.767 -0.4929 -1.3638 -1.3617
41380SOL     OW27670   5.298  10.682   9.192 -0.0464  0.6377  0.3608
41380SOL    HW127671   5.237  10.755   9.197  0.1788  0.7477  2.4488
41380SOL    HW227672   5.289  10.638   9.277  1.3365 -0.5137 -0.0510
41381SOL     OW27673   3.327   4.607  11.015 -0.2913  0.1409  0.9198
41381SOL    HW127674   3.298   4.632  10.927  1.8914  0.9740  0.3719
41381SOL    HW227675   3.379   4.528  11.001  1.1777  1.0031  1.1978
41382SOL     OW27676   3.860   3.842   5.163 -0.0144 -0.4442  0.4624
41382SOL    HW127677   3.802   3.857   5.088  0.4855 -1.1035 -0.0755
41382SOL    HW227678   3.938   3.894   5.144 -0.6454  0.9268  1.4803
41383SOL     OW27679   1.903   5.443   8.112  0.7065  0.1053  0.4020
41383SOL    HW127680   1.989   5.443   8.154  0.6904  0.5989  0.4488
41383SOL    HW227681   1.916   5.400   8.028  0.8551 -0.4124  0.6910
41384SOL     OW27682   7.631   2.411  10.685 -0.1583  0.2259  0.2827
41384SOL    HW127683   7.722   2.437  10.704  0.4671 -2.2604  1.0659
41384SOL    HW227684   7.608   2.352  10.757 -2.1425  0.2039 -0.3188
41385SOL     OW27685   2.423   7.896   4.478 -0.3063  0.0449  0.3334
41385SOL    HW127686   2.334   7.932   4.484 -0.5415 -0.5763  0.6739
41385SOL    HW227687   2.480   7.972   4.485 -0.8041  0.4038  0.5472
41386SOL     OW27688   3.780   1.933   7.402 -0.1062 -0.5651  0.0921
41386SOL    HW127689   3.807   1.876   7.474 -0.0460  1.3929  1.6926
41386SOL    HW227690   3.715   1.992   7.440 -1.1109 -0.3410 -1.8320
41387SOL     OW27691   7.572   4.863   6.188 -0.3903 -0.3199  0.1107
41387SOL    HW127692   7.623   4.905   6.256  0.9039 -1.5393 -0.0617
41387SOL    HW227693   7.507   4.811   6.235 -0.6364  0.1929  0.3532
41388SOL     OW27694   7.970   9.882   3.440 -0.4214  0.8746 -0.6905
41388SOL    HW127695   7.915   9.830   3.499  0.1925 -0.0601 -0.9184
41388SOL    HW227696   8.036   9.921   3.498  0.2430 -0.1236 -0.7438
41389SOL     OW27697   9.784   9.939  10.050 -0.3900  0.4760 -0.2450
41389SOL    HW127698   9.832   9.868  10.008  0.3750 -0.7500  2.4624
41389SOL    HW227699   9.852   9.999  10.080 -0.9706  1.8273 -1.4852
41390SOL     OW27700   3.120   7.760   1.872 -0.6617 -0.2600  0.9524
41390SOL    HW127701   3.135   7.794   1.960 -1.0597  2.3750  0.0931
41390SOL    HW227702   3.026   7.773   1.857 -1.2694 -3.5789  1.1909
41391SOL     OW27703   0.656   5.270   3.110 -0.4542 -0.5638 -0.1468
41391SOL    HW127704   0.567   5.290   3.083 -0.3112  0.4799  0.1053
41391SOL    HW227705   0.688   5.208   3.044 -1.1073 -0.3605 -0.6668
41392SOL     OW27706   8.901   0.090   1.455  0.2628 -0.5460 -0.4062
41392SOL    HW127707   8.923   0.148   1.529  0.7059  0.8291 -1.5730
41392SOL    HW227708   8.837   0.029   1.491  0.6391 -0.0673  1.1777
41393SOL     OW27709   5.284   3.062  10.980 -0.2524 -0.0129  0.6426
41393SOL    HW127710   5.265   3.001  11.051 -0.4137  1.7521  2.1995
41393SOL    HW227711   5.199   3.095  10.953 -0.1336 -0.0395  0.2349
41394SOL     OW27712   7.916   8.153   2.072  0.4763 -0.0356 -0.0027
41394SOL    HW127713   7.957   8.078   2.116  3.2816  1.3335 -0.0727
41394SOL    HW227714   7.883   8.117   1.990 -1.4928 -1.8734  1.4791
41395SOL     OW27715   2.143   1.399   0.066 -0.5059  0.2585  0.2978
41395SOL    HW127716   2.132   1.407  -0.029 -0.2388 -2.3163 -0.0184
41395SOL    HW227717   2.055   1.416   0.102 -0.4672  1.9606 -0.2803
41396SOL     OW27718   1.624  10.118  10.952 -0.2630 -0.3067  0.1536
41396SOL    HW127719   1.580  10.171  11.019 -0.5349  0.9159 -0.9711
41396SOL    HW227720   1.560  10.050  10.930 -1.0065  0.5548 -0.3853
41397SOL     OW27721   4.740   1.720   3.076  0.1781  0.2753 -0.6525
41397SOL    HW127722   4.746   1.640   3.128  1.1245  0.6759 -0.1209
41397SOL    HW227723   4.724   1.690   2.987  1.4956 -0.5730 -0.6342
41398SOL     OW27724   1.418   0.628   7.032 -0.0692 -0.1910 -0.1978
41398SOL    HW127725   1.461   0.702   6.989  0.3831  0.0721  0.6990
41398SOL    HW227726   1.488   0.564   7.045 -0.6280 -1.1735 -1.7786
41399SOL     OW27727   6.016   6.455   5.172 -0.0031 -0.9854  0.0445
41399SOL    HW127728   5.937   6.505   5.152 -0.7483 -2.4867 -0.9146
41399SOL    HW227729   6.087   6.504   5.130 -0.5774 -0.2597 -0.0889
41400SOL     OW27730   0.376   2.224   2.381  0.5519 -0.0419 -0.3806
41400SOL    HW127731   0.357   2.198   2.291 -0.8484 -0.6299  0.0681
41400SOL    HW227732   0.419   2.147   2.419  0.0326 -0.2427 -0.1982
41401SOL     OW27733   1.877   8.375   7.179  0.1009  0.1067 -0.0422
41401SOL    HW127734   1.792   8.351   7.216  0.0388  0.1993 -0.1254
41401SOL    HW227735   1.930   8.296   7.187 -1.4023 -1.6094 -4.3738
41402SOL     OW27736   2.006   4.216   4.872 -0.2820  0.3262  0.0073
41402SOL    HW127737   2.091   4.246   4.840 -0.6560 -0.9930 -2.4628
41402SOL    HW227738   1.995   4.129   4.834 -1.3918 -0.9052  2.8876
41403SOL     OW27739   0.255   0.819   4.352  0.1339  0.0485  0.2174
41403SOL    HW127740   0.310   0.878   4.300 -0.2085  1.5946  1.5125
41403SOL    HW227741   0.310   0.794   4.426 -0.5434  0.7705  0.9782
41404SOL     OW27742   3.497   7.551  10.196 -0.4857 -0.2781  0.2548
41404SOL    HW127743   3.579   7.574  10.240  0.4645 -1.7170 -0.6909
41404SOL    HW227744   3.512   7.575  10.104 -1.2533 -0.2345  0.1394
41405SOL     OW27745   4.353   4.450   4.368 -0.0351  0.0637 -0.2849
41405SOL    HW127746   4.407   4.486   4.297 -1.7924  1.5256 -0.9529
41405SOL    HW227747   4.365   4.355   4.361  2.1822  0.3132 -0.5791
41406SOL     OW27748   4.121   9.559   3.317 -0.4067  0.0882 -0.2915
41406SOL    HW127749   4.107   9.615   3.393  0.2686 -0.1124 -0.0134
41406SOL    HW227750   4.087   9.473   3.343  0.5491 -0.1893  0.0898
41407SOL     OW27751   2.634   1.669   3.872 -0.4484  0.3775  0.3813
41407SOL    HW127752   2.714   1.690   3.921 -0.7659  0.0933  1.0469
41407SOL    HW227753   2.564   1.678   3.937 -0.8760 -0.0644 -0.0141
41408SOL     OW27754   2.502   8.223   2.127  0.2762 -0.1828 -0.5819
41408SOL    HW127755   2.416   8.226   2.169  0.1735 -0.3749 -0.7812
41408SOL    HW227756   2.538   8.311   2.141 -1.0435  0.7740 -2.8084
41409SOL     OW27757   0.145   7.787   2.414  0.4181  0.5019  0.3290
41409SOL    HW127758   0.135   7.802   2.508 -0.6749  0.2950  0.2594
41409SOL    HW227759   0.083   7.848   2.373 -1.4471 -1.5243 -0.1023
41410SOL     OW27760   8.012   5.429   1.607 -0.0457 -0.0232 -0.4160
41410SOL    HW127761   7.947   5.378   1.559 -0.7199  2.1326 -1.9174
41410SOL    HW227762   8.096   5.396   1.577 -0.4736  0.0670 -1.7516
41411SOL     OW27763  10.886   1.479   7.447  0.1953 -1.0135 -0.5088
41411SOL    HW127764  10.880   1.402   7.391  1.7511 -1.9573  0.5683
41411SOL    HW227765  10.943   1.453   7.519 -0.7714  0.5469  0.9000
41412SOL     OW27766   3.873   7.072   0.835 -0.3607  0.4345 -0.4837
41412SOL    HW127767   3.828   7.157   0.831 -1.6316 -0.2001 -0.2508
41412SOL    HW227768   3.961   7.092   0.865 -1.2064  1.4754  1.4333
41413SOL     OW27769   4.785   8.420  10.390  0.3224 -0.2613 -0.3002
41413SOL    HW127770   4.755   8.345  10.441 -1.5285  0.6667  0.0942
41413SOL    HW227771   4.757   8.401  10.300 -0.5186  0.1098 -0.1278
41414SOL     OW27772   0.522   8.774   0.472  0.5368  0.3406  0.5933
41414SOL    HW127773   0.533   8.685   0.438  2.6442 -0.6382  3.4236
41414SOL    HW227774   0.543   8.831   0.399 -0.8774 -1.4375 -1.3107
41415SOL     OW27775   2.026   1.231   3.778 -0.1286 -0.1486 -0.1589
41415SOL    HW127776   1.978   1.175   3.717  0.5427  1.8061 -2.6705
41415SOL    HW227777   2.095   1.176   3.813 -0.8484 -1.4967 -0.7942
41416SOL     OW27778  10.890   9.479   7.238 -0.2083  0.3579 -0.0070
41416SOL    HW127779  10.891   9.399   7.290 -0.6219 -0.1491 -0.7562
41416SOL    HW227780  10.874   9.549   7.301 -0.4453 -0.2094  0.5705
41417SOL     OW27781   6.817   7.361  10.334  0.9271  0.1606 -0.0767
41417SOL    HW127782   6.855   7.331  10.251 -1.2939 -2.2896 -0.3344
41417SOL    HW227783   6.723   7.347  10.324  0.4053  1.4770  2.2389
41418SOL     OW27784   1.390   2.446   5.112 -0.6596 -0.3356 -0.0275
41418SOL    HW127785   1.296   2.432   5.124 -0.5108 -0.9021  0.5185
41418SOL    HW227786   1.429   2.359   5.126 -0.0217 -0.0240  0.1545
41419SOL     OW27787  10.666   3.212   7.879  0.1964 -0.8552 -0.2770
41419SOL    HW127788  10.683   3.168   7.795 -0.8595 -0.9800 -0.4403
41419SOL    HW227789  10.620   3.146   7.931  0.4117 -0.6108  0.2247
41420SOL     OW27790   0.867  10.378   4.155  0.3532 -0.0539  0.0852
41420SOL    HW127791   0.845  10.287   4.134  0.2355 -0.0610  0.2377
41420SOL    HW227792   0.913  10.410   4.077 -2.7273  0.8428 -1.5338
41421SOL     OW27793   0.016   4.129   6.319 -0.2181 -0.0051 -0.5106
41421SOL    HW127794  -0.002   4.176   6.400 -1.0815  1.8850 -1.7166
41421SOL    HW227795  -0.071   4.107   6.284  0.0232  1.2951 -2.0372
41422SOL     OW27796   2.390   8.847   5.349  0.1621 -0.7358  0.3863
41422SOL    HW127797   2.459   8.781   5.344 -0.6916 -1.5745 -1.4834
41422SOL    HW227798   2.435   8.929   5.328  0.7373 -1.1525 -0.0624
41423SOL     OW27799   7.888   4.843  10.867 -0.4888  0.3055  0.2136
41423SOL    HW127800   7.866   4.765  10.815  0.3363  2.1960 -3.3410
41423SOL    HW227801   7.983   4.854  10.855 -0.3377  1.1034  1.8584
41424SOL     OW27802   6.226   8.707   8.563 -0.1456  0.8413 -0.3133
41424SOL    HW127803   6.280   8.765   8.616 -0.3297  0.1580  0.6446
41424SOL    HW227804   6.137   8.741   8.574 -0.3466 -0.0274  0.8120
41425SOL     OW27805   3.093   4.280   3.357  0.5489 -0.3843 -0.0020
41425SOL    HW127806   3.062   4.230   3.432  0.2375 -0.1816  0.0100
41425SOL    HW227807   3.049   4.240   3.282 -0.8355  0.7555  0.1585
41426SOL     OW27808   3.172   9.004   9.612 -0.4486  0.2645  0.3198
41426SOL    HW127809   3.228   9.053   9.672  2.6104 -0.6806 -1.5665
41426SOL    HW227810   3.148   9.066   9.544  1.2778 -0.1278 -0.6965
41427SOL     OW27811   6.860  10.077   1.351  0.0862  0.2233 -0.3642
41427SOL    HW127812   6.823  10.147   1.297 -0.3804 -0.1897 -0.5925
41427SOL    HW227813   6.783  10.031   1.386  0.3664  0.6122  0.8416
41428SOL     OW27814   7.150   7.327   7.067  0.2030 -0.2194 -0.1208
41428SOL    HW127815   7.129   7.387   6.996 -0.3947 -0.0208  0.2103
41428SOL    HW227816   7.220   7.370   7.115 -0.9361  0.7549  0.7406
41429SOL     OW27817   0.190   3.689   5.705 -0.5293  0.5323 -0.9732
41429SOL    HW127818   0.107   3.737   5.704 -0.2995  0.9495 -0.5360
41429SOL    HW227819   0.239   3.724   5.631 -0.2701  1.1498 -0.5185
41430SOL     OW27820   1.558   1.646  10.851 -0.3266  0.0168 -0.0544
41430SOL    HW127821   1.527   1.732  10.881 -0.2250  0.0515 -0.0467
41430SOL    HW227822   1.486   1.587  10.870 -0.8941  0.3158 -1.2091
41431SOL     OW27823   9.615   1.451   9.006 -0.0632 -0.2083  0.2465
41431SOL    HW127824   9.605   1.539   9.041 -0.6901 -0.3424  0.4190
41431SOL    HW227825   9.551   1.445   8.936 -1.0706 -1.0056  1.2033
41432SOL     OW27826   6.619   4.569  10.916 -0.0855  0.2262  0.2779
41432SOL    HW127827   6.538   4.607  10.950  0.8536  1.4504  1.2287
41432SOL    HW227828   6.687   4.601  10.975  1.1688 -0.3274 -0.8206
41433SOL     OW27829   5.211   3.428   0.637 -0.1423 -0.0224 -0.0638
41433SOL    HW127830   5.295   3.395   0.605 -0.2936  0.1926 -0.6947
41433SOL    HW227831   5.217   3.421   0.733  0.3231 -0.6589 -0.1340
41434SOL     OW27832   6.199   5.059  10.558 -0.6386 -0.1273 -0.0917
41434SOL    HW127833   6.215   5.130  10.496 -0.0476 -0.6741 -0.5784
41434SOL    HW227834   6.222   5.097  10.643  0.9965 -0.1249 -0.4967
41435SOL     OW27835   9.264   4.727   7.452 -0.3705  0.3981  0.3962
41435SOL    HW127836   9.194   4.725   7.516 -0.4091 -0.5116  0.3383
41435SOL    HW227837   9.324   4.795   7.483 -0.9087  0.6707  0.8359
41436SOL     OW27838   7.644   1.203   3.374 -0.3741 -0.9077 -0.0351
41436SOL    HW127839   7.651   1.232   3.283  0.8965 -0.1151  0.2832
41436SOL    HW227840   7.551   1.206   3.393 -0.4256  2.4714 -0.2194
41437SOL     OW27841   0.811   8.813   7.066  0.4755  0.3795  0.6680
41437SOL    HW127842   0.842   8.741   7.012  1.4244  1.5269 -0.3957
41437SOL    HW227843   0.720   8.827   7.038  1.1150  1.3097 -1.1038
41438SOL     OW27844   0.869   0.228   6.684 -0.3750 -0.3877 -0.5713
41438SOL    HW127845   0.802   0.164   6.708 -2.4358  1.3011 -1.5013
41438SOL    HW227846   0.819   0.306   6.656  1.9486  0.5082 -2.5796
41439SOL     OW27847   5.655   8.962   1.458  0.0492  0.0540  0.1711
41439SOL    HW127848   5.725   8.900   1.478  0.8309  0.6890 -0.5322
41439SOL    HW227849   5.691   9.047   1.482 -0.6694  0.3380  0.2625
41440SOL     OW27850   1.111   8.874   9.236  0.0563  0.0293  0.2003
41440SOL    HW127851   1.114   8.793   9.186 -0.3271  0.1368  0.0021
41440SOL    HW227852   1.140   8.849   9.324  0.4606 -0.2124 -0.0022
41441SOL     OW27853   4.338   8.133   1.496 -0.5199 -0.0672 -0.1904
41441SOL    HW127854   4.255   8.108   1.535 -0.9851  1.2447 -0.2802
41441SOL    HW227855   4.368   8.208   1.547  1.3147 -1.3409  0.7052
41442SOL     OW27856  10.165   5.680   7.890 -0.9613 -0.3656  0.2576
41442SOL    HW127857  10.194   5.756   7.839  0.6253  0.1831  1.8847
41442SOL    HW227858  10.100   5.715   7.951  1.6625  0.3715  2.8425
41443SOL     OW27859   4.286   9.383   6.049  0.1475 -0.5255  0.3551
41443SOL    HW127860   4.269   9.475   6.028 -2.7983 -0.7923  1.0709
41443SOL    HW227861   4.270   9.377   6.143  0.1395 -1.7913  0.2897
41444SOL     OW27862   4.130   1.684   9.774 -0.4312 -0.2741 -0.5711
41444SOL    HW127863   4.205   1.717   9.724 -0.0537  0.3293  0.3603
41444SOL    HW227864   4.167   1.661   9.859 -1.4050  0.6392  0.1244
41445SOL     OW27865   6.073   9.355  10.378 -0.6928  0.0306  0.0044
41445SOL    HW127866   6.026   9.271  10.387 -1.0256  0.1459 -0.6015
41445SOL    HW227867   6.084   9.386  10.468 -0.8446 -0.5144  0.2156
41446SOL     OW27868   8.529  11.114   2.705  0.2801  0.3302  0.1868
41446SOL    HW127869   8.556  11.054   2.774  0.9472  0.7507  0.3007
41446SOL    HW227870   8.466  11.172   2.748 -1.0520 -0.8175 -0.1490
41447SOL     OW27871   9.748   2.547   0.065  0.0741 -0.2616  0.8494
41447SOL    HW127872   9.684   2.507   0.005  0.0419  1.5320 -0.4130
41447SOL    HW227873   9.695   2.581   0.138 -0.1996 -0.4019  0.7185
41448SOL     OW27874   0.864   3.854   8.958 -0.1699 -0.1623  0.1474
41448SOL    HW127875   0.845   3.794   9.030 -1.2228  0.4253  0.3860
41448SOL    HW227876   0.891   3.935   9.001  0.1304 -0.1010 -0.1490
41449SOL     OW27877   2.044   9.842   3.230 -0.0779  0.5512 -0.2916
41449SOL    HW127878   2.084   9.929   3.234 -0.6583  0.8953 -1.4910
41449SOL    HW227879   2.010   9.828   3.318 -0.1585  1.6328 -0.1309
41450SOL     OW27880   8.244   0.198   9.537 -0.1026  0.2914  0.0046
41450SOL    HW127881   8.292   0.202   9.454  0.2365 -0.0493  0.1789
41450SOL    HW227882   8.300   0.245   9.598 -1.2185  2.1757 -0.3573
41451SOL     OW27883   5.879   0.561   0.656 -0.0118  0.0089  0.1146
41451SOL    HW127884   5.928   0.548   0.575 -0.7383  1.4936 -0.6059
41451SOL    HW227885   5.924   0.633   0.700  0.0622 -0.4344  0.7767
41452SOL     OW27886   6.605   7.132  11.020  0.9859 -0.4222  0.0089
41452SOL    HW127887   6.603   7.048  11.067  0.5201 -0.6857 -0.4593
41452SOL    HW227888   6.636   7.195  11.084  2.1025 -1.0898  0.1472
41453SOL     OW27889   0.930   8.715   8.108 -0.3274 -0.5728 -0.2097
41453SOL    HW127890   0.880   8.732   8.028  0.2124  0.7909 -0.2822
41453SOL    HW227891   0.870   8.738   8.179 -0.3771 -0.5815 -0.2486
41454SOL     OW27892   3.395   8.896   0.694 -0.1729 -0.1173  0.2783
41454SOL    HW127893   3.316   8.913   0.746 -1.2996  2.2130 -1.9771
41454SOL    HW227894   3.365   8.845   0.620  0.8334 -0.7786  0.3006
41455SOL     OW27895   3.819   3.566   8.709  0.1177  0.1686 -0.5370
41455SOL    HW127896   3.798   3.569   8.802  2.3282 -2.1031  0.1691
41455SOL    HW227897   3.751   3.510   8.671 -1.1895  1.6608 -0.4763
41456SOL     OW27898   7.348   0.314  10.793 -0.3775  0.2261 -0.6582
41456SOL    HW127899   7.437   0.346  10.775  0.2241 -0.7474  0.4404
41456SOL    HW227900   7.358   0.219  10.796 -1.3690  0.1369 -0.0040
41457SOL     OW27901   8.961   1.130   8.674 -0.1665  0.3076 -0.3637
41457SOL    HW127902   8.989   1.042   8.700 -0.4831  0.8848  2.1950
41457SOL    HW227903   9.041   1.171   8.640  0.0194 -0.8695 -1.4446
41458SOL     OW27904   9.179   4.664   6.924  0.2847  0.2611  0.3083
41458SOL    HW127905   9.258   4.636   6.969  0.4309  1.0650  0.5729
41458SOL    HW227906   9.208   4.737   6.868 -0.1880  0.2904  0.0928
41459SOL     OW27907   8.148   4.376   9.926  0.3612  0.4163  0.2039
41459SOL    HW127908   8.190   4.292   9.945  0.8848  0.4109 -0.8996
41459SOL    HW227909   8.135   4.376   9.831 -0.3148  1.2746  0.2825
41460SOL     OW27910   9.554   7.959   8.518 -0.1037 -0.1419 -0.3109
41460SOL    HW127911   9.479   8.016   8.502  0.4150  1.2415  1.8289
41460SOL    HW227912   9.517   7.882   8.562 -0.7893 -1.5474 -3.1182
41461SOL     OW27913   9.546   0.293   2.813  0.0150 -0.1886 -0.2933
41461SOL    HW127914   9.534   0.270   2.720  0.2890  1.2542 -0.7145
41461SOL    HW227915   9.573   0.211   2.854 -0.9499 -1.0592 -1.3179
41462SOL     OW27916   0.147  10.187   7.242 -0.1885  0.3194  0.2992
41462SOL    HW127917   0.104  10.140   7.171 -1.1463 -0.2833  1.2455
41462SOL    HW227918   0.176  10.270   7.202 -0.3777 -0.1529 -0.8601
41463SOL     OW27919   0.127   0.365   5.383 -0.1630  0.1534  0.1672
41463SOL    HW127920   0.124   0.457   5.407 -3.0333  1.1418 -3.1241
41463SOL    HW227921   0.218   0.349   5.356  0.2916  2.1185  0.4261
41464SOL     OW27922   8.736  10.575   7.546  0.5292 -0.5556 -0.0042
41464SOL    HW127923   8.766  10.499   7.496  2.2074 -1.0123  1.6239
41464SOL    HW227924   8.794  10.646   7.520  0.4392 -0.4102  0.1869
41465SOL     OW27925   2.340   9.638   2.696  0.4317 -0.6682 -0.8630
41465SOL    HW127926   2.403   9.573   2.665  2.7672  1.0934 -0.0904
41465SOL    HW227927   2.369   9.658   2.785 -1.8649 -0.4870 -0.0999
41466SOL     OW27928   8.932   0.559   3.616 -0.0935 -0.4605 -0.6405
41466SOL    HW127929   8.984   0.570   3.695 -0.4790  1.0278 -0.5683
41466SOL    HW227930   8.870   0.489   3.638 -1.9635  1.6705  1.3907
41467SOL     OW27931   8.292   2.291   0.599 -0.0026 -0.2380 -0.2031
41467SOL    HW127932   8.219   2.303   0.540 -0.0766 -1.0397 -0.2815
41467SOL    HW227933   8.256   2.240   0.672  0.5960 -1.1459 -0.5176
41468SOL     OW27934   8.062  10.404   6.795 -0.5500 -0.5761  0.3199
41468SOL    HW127935   8.065  10.404   6.891  0.6296 -0.4917  0.2998
41468SOL    HW227936   8.095  10.491   6.771  0.3344 -1.0434 -0.1811
41469SOL     OW27937   0.462   5.442   1.425  0.2043 -0.0877 -0.1894
41469SOL    HW127938   0.468   5.394   1.508 -3.2017 -0.4470  0.0082
41469SOL    HW227939   0.432   5.376   1.362  0.5912  0.6699 -1.1839
41470SOL     OW27940   3.777   5.534   9.530  0.5100  0.0605  0.1046
41470SOL    HW127941   3.856   5.580   9.559  0.0418  2.3364 -1.8958
41470SOL    HW227942   3.706   5.574   9.579  0.3411 -0.3400  0.1911
41471SOL     OW27943   4.035   7.861   9.951  0.3054 -0.5109  0.7139
41471SOL    HW127944   4.098   7.912  10.001  0.6758 -0.2982  0.0464
41471SOL    HW227945   3.999   7.798  10.014  2.2739 -1.6430  0.7934
41472SOL     OW27946   0.632   6.857   4.085  0.1229 -0.3453  0.2936
41472SOL    HW127947   0.541   6.885   4.091 -0.5533 -1.7014 -2.1433
41472SOL    HW227948   0.683   6.928   4.124 -1.8075  1.7511 -0.8055
41473SOL     OW27949  10.873   0.601   9.984  0.3797 -0.4350 -0.2632
41473SOL    HW127950  10.807   0.576   9.919 -0.1912 -0.2850  0.2525
41473SOL    HW227951  10.863   0.696   9.991  1.5806 -0.2185 -1.1775
41474SOL     OW27952   3.645   2.354   6.766 -0.5470 -0.6152  0.0973
41474SOL    HW127953   3.694   2.279   6.800 -1.9842 -1.0055  1.4823
41474SOL    HW227954   3.578   2.315   6.710 -0.2205 -0.2077 -0.5904
41475SOL     OW27955   2.497   5.553   8.280  0.0476 -0.4509 -0.2353
41475SOL    HW127956   2.489   5.478   8.339  0.4855  0.0635  0.4886
41475SOL    HW227957   2.591   5.570   8.275 -0.1092  0.7953  0.5835
41476SOL     OW27958   3.207   4.525   5.327 -0.2543 -0.0258 -0.1804
41476SOL    HW127959   3.214   4.448   5.383 -0.3795  0.1798  0.1221
41476SOL    HW227960   3.145   4.582   5.373 -0.1190  0.2783 -0.3731
41477SOL     OW27961  10.953   7.115  10.814 -0.3992 -0.1796 -0.0795
41477SOL    HW127962  10.985   7.129  10.725 -0.2299  0.7526  0.1140
41477SOL    HW227963  10.957   7.021  10.826 -0.1425 -0.2922 -0.9573
41478SOL     OW27964   9.195   5.046   0.199  0.2082 -0.6032  0.0575
41478SOL    HW127965   9.251   5.111   0.243 -1.4991  1.5547 -0.7666
41478SOL    HW227966   9.138   5.013   0.268  0.9085 -1.0708  0.4295
41479SOL     OW27967   6.432   0.165   3.789 -0.1056 -0.4528 -0.3927
41479SOL    HW127968   6.483   0.219   3.728 -2.0694  0.2613 -1.5393
41479SOL    HW227969   6.411   0.224   3.861 -0.4619 -0.3091 -0.6090
41480SOL     OW27970   5.009   9.070   8.779 -0.6403 -0.3790 -0.0120
41480SOL    HW127971   5.036   9.132   8.711 -0.5918 -1.0367 -0.5998
41480SOL    HW227972   5.083   9.010   8.787  0.2709  0.9088  2.1312
41481SOL     OW27973   1.176   9.234   9.860 -0.3647 -0.3938  0.0485
41481SOL    HW127974   1.190   9.265   9.771 -1.3631 -1.2674 -0.4356
41481SOL    HW227975   1.258   9.254   9.905 -0.3197  1.2341 -0.7016
41482SOL     OW27976  10.744   9.566   4.086 -0.1716 -0.1155  0.8189
41482SOL    HW127977  10.714   9.568   4.177 -1.6569 -0.3492  0.3581
41482SOL    HW227978  10.821   9.624   4.085  0.5165 -0.9439  2.4252
41483SOL     OW27979   6.878   4.371   5.452 -0.0911  0.1911  0.5499
41483SOL    HW127980   6.909   4.456   5.483 -1.8483  0.2819  2.2242
41483SOL    HW227981   6.881   4.314   5.529  0.2546 -1.0492 -0.3440
41484SOL     OW27982   3.427  10.206   4.752 -0.8925 -0.9706 -0.2352
41484SOL    HW127983   3.477  10.208   4.671 -0.8480  0.6487 -0.2070
41484SOL    HW227984   3.389  10.294   4.759 -0.4149 -0.8633  1.7730
41485SOL     OW27985   0.689   5.603   0.010 -0.7680 -0.3171 -0.3016
41485SOL    HW127986   0.650   5.690   0.021  0.0742  0.2065 -1.2524
41485SOL    HW227987   0.729   5.583   0.094 -1.3644  0.0085  0.0640
41486SOL     OW27988   9.073   0.004   9.540  0.6223 -0.2708  0.0317
41486SOL    HW127989   9.005  -0.036   9.485  0.8672  1.1412 -1.3541
41486SOL    HW227990   9.119   0.064   9.481  1.3239  0.8131  1.6337
41487SOL     OW27991   2.617   2.027   9.665 -0.3624  0.1081 -0.3987
41487SOL    HW127992   2.609   1.932   9.659  1.3232 -0.1076  0.2147
41487SOL    HW227993   2.690   2.049   9.608 -0.1301  0.9278  0.1971
41488SOL     OW27994   5.223   8.774   5.870 -0.2026  0.4720 -0.2945
41488SOL    HW127995   5.289   8.708   5.847 -1.3302 -0.5288 -0.8133
41488SOL    HW227996   5.185   8.741   5.951  0.7528  1.6948  0.6850
41489SOL     OW27997   9.526   0.672   9.693 -0.3046  0.2557  0.2759
41489SOL    HW127998   9.519   0.623   9.775  0.6999 -1.4740 -0.6276
41489SOL    HW227999   9.616   0.704   9.691 -0.1039 -0.3079 -0.4418
41490SOL     OW28000   0.321   0.074   7.799 -0.2087 -0.2599  0.7149
41490SOL    HW128001   0.289   0.118   7.878 -1.8859  0.4331 -0.2863
41490SOL    HW228002   0.304  -0.019   7.815 -1.7281 -0.0145  0.6999
41491SOL     OW28003   2.262   7.238   2.457  0.0714  0.3698  0.4920
41491SOL    HW128004   2.336   7.198   2.503 -0.3123  0.8230  1.5502
41491SOL    HW228005   2.187   7.218   2.512 -0.7775 -0.8811 -1.0412
41492SOL     OW28006   9.315   0.955   6.423  0.1563  0.1704 -0.4508
41492SOL    HW128007   9.281   1.010   6.494  0.5029  0.8367 -0.7974
41492SOL    HW228008   9.292   0.865   6.450  0.0763  0.4290  0.3859
41493SOL     OW28009   1.502  10.246   1.475 -0.1649 -0.2321 -0.1452
41493SOL    HW128010   1.439  10.279   1.411 -0.0032 -0.0494 -0.2100
41493SOL    HW228011   1.450  10.233   1.555 -0.2183  0.2255 -0.1025
41494SOL     OW28012   7.224   7.244   3.603  0.1693  0.2499  0.4676
41494SOL    HW128013   7.276   7.204   3.672  3.5938  0.0498 -1.9965
41494SOL    HW228014   7.274   7.321   3.576 -2.5522  2.0541  0.0858
41495SOL     OW28015   1.196   9.875   6.836 -0.0154  0.9986 -0.1652
41495SOL    HW128016   1.209   9.917   6.921 -0.0229  3.2582 -1.2206
41495SOL    HW228017   1.153   9.791   6.857 -0.8438  1.8936  1.9852
41496SOL     OW28018   8.511   6.703   8.789  0.1874  0.4170  0.5765
41496SOL    HW128019   8.518   6.608   8.781  1.5884  0.4693  0.9942
41496SOL    HW228020   8.418   6.721   8.773 -0.0524 -0.9852  0.2300
41497SOL     OW28021   8.586  11.053   3.167 -0.4814 -0.2666 -0.0290
41497SOL    HW128022   8.580  11.030   3.259 -0.9697 -0.5479 -0.1311
41497SOL    HW228023   8.620  11.143   3.167 -0.3620 -0.3091  0.4163
41498SOL     OW28024   7.066   5.998   3.699 -0.3439 -0.0308 -0.4353
41498SOL    HW128025   7.066   6.081   3.745 -0.9952 -0.6610  0.7497
41498SOL    HW228026   7.109   6.016   3.615 -0.3008  1.4332 -0.1100
41499SOL     OW28027   7.114   4.467   6.083 -0.2280  0.5026 -0.5080
41499SOL    HW128028   7.118   4.487   5.989 -0.2969  0.2383 -0.5688
41499SOL    HW228029   7.082   4.377   6.087  0.2452  0.3387 -0.2505
41500SOL     OW28030   4.843   1.333  10.695 -0.1846 -0.3725 -0.3144
41500SOL    HW128031   4.864   1.373  10.780  0.7387  0.4956 -0.9233
41500SOL    HW228032   4.824   1.242  10.716  0.7585 -0.3519  0.7433
41501SOL     OW28033   1.612   0.621   2.057 -0.3772 -0.2320 -0.1507
41501SOL    HW128034   1.664   0.542   2.045 -1.4697 -1.0967  0.6467
41501SOL    HW228035   1.674   0.685   2.094  0.6693 -0.4650 -1.3967
41502SOL     OW28036  10.447   6.537   1.590 -0.1521  0.1658  0.4351
41502SOL    HW128037  10.361   6.529   1.547  0.3502 -0.0563 -0.5437
41502SOL    HW228038  10.488   6.612   1.547  1.1726 -1.2754 -0.9356
41503SOL     OW28039   3.241   3.047   5.406 -0.0430  0.0681 -0.2683
41503SOL    HW128040   3.262   3.139   5.418 -0.6231  0.2036 -0.2921
41503SOL    HW228041   3.318   3.010   5.363  1.2865  0.0051  1.9888
41504SOL     OW28042   8.545   4.594   2.217 -0.4617 -0.0987  0.1549
41504SOL    HW128043   8.462   4.588   2.171 -0.6745  0.7696  0.4152
41504SOL    HW228044   8.610   4.608   2.148 -0.3908 -1.6081 -0.1361
41505SOL     OW28045   0.843   4.959   8.539 -0.5671 -0.0940 -0.0378
41505SOL    HW128046   0.929   4.999   8.556 -0.1581 -1.0530  0.1904
41505SOL    HW228047   0.838   4.954   8.444 -0.4841  0.2100 -0.0609
41506SOL     OW28048   7.270   0.455   8.888 -0.0042 -0.1208 -0.6207
41506SOL    HW128049   7.268   0.535   8.941 -0.6044 -0.4182 -0.1783
41506SOL    HW228050   7.299   0.387   8.949  1.8779 -0.0067 -1.3392
41507SOL     OW28051   5.001   4.406   4.001 -0.6331 -0.1653 -0.4398
41507SOL    HW128052   4.988   4.481   4.059  0.3861 -1.3352  1.3952
41507SOL    HW228053   4.942   4.339   4.035 -0.2379 -0.7794 -0.9508
41508SOL     OW28054   5.074   9.142   1.470  0.3687 -0.2238  0.0144
41508SOL    HW128055   4.991   9.179   1.440  2.0849  3.3293 -0.9664
41508SOL    HW228056   5.069   9.145   1.565 -0.2600  1.0761 -0.0305
41509SOL     OW28057   5.562   9.356   1.775 -0.5534  0.6026 -0.0641
41509SOL    HW128058   5.558   9.268   1.811 -0.7979  0.4318 -0.5009
41509SOL    HW228059   5.549   9.414   1.850 -2.2159  0.2358 -0.0313
41510SOL     OW28060   1.520   8.981   0.280  0.3568  0.1897  0.0066
41510SOL    HW128061   1.470   9.024   0.350  0.5307 -0.3054  0.4369
41510SOL    HW228062   1.593   9.040   0.263  1.6764 -0.7981  1.9260
41511SOL     OW28063   4.369   6.447   6.019 -0.0749 -0.0297  0.4421
41511SOL    HW128064   4.402   6.389   6.088 -2.3984 -2.0833 -0.0352
41511SOL    HW228065   4.325   6.518   6.067 -1.8143 -1.5232  1.1643
41512SOL     OW28066   6.538   9.589   8.868 -0.4105 -0.3032  0.2555
41512SOL    HW128067   6.535   9.684   8.865  0.1784 -0.1644  2.4288
41512SOL    HW228068   6.629   9.568   8.848 -0.4049 -0.3783  0.3615
41513SOL     OW28069   2.083   9.875   8.412  0.6097 -0.0062  0.1079
41513SOL    HW128070   2.165   9.914   8.441  1.6035 -1.5540 -0.4992
41513SOL    HW228071   2.095   9.862   8.318 -0.4415  0.0038 -0.0350
41514SOL     OW28072   8.252   9.890   4.683 -0.2054  0.1454 -0.3200
41514SOL    HW128073   8.273   9.899   4.590 -1.3207  0.3926 -0.5622
41514SOL    HW228074   8.157   9.901   4.687  0.0068  1.7968  1.0551
41515SOL     OW28075   4.814   0.851   3.597 -0.5625  0.4705  0.0777
41515SOL    HW128076   4.776   0.821   3.679 -3.1295 -0.8500 -1.4682
41515SOL    HW228077   4.817   0.773   3.541  0.9050  1.3701 -1.2042
41516SOL     OW28078   8.543   6.101   7.003  0.2709 -0.4183  0.0440
41516SOL    HW128079   8.556   6.196   6.999 -0.0380 -0.3665  0.2682
41516SOL    HW228080   8.450   6.090   7.023 -0.0438 -0.8014 -1.5132
41517SOL     OW28081   3.422   8.828   4.893 -0.6180 -0.5793 -0.0838
41517SOL    HW128082   3.355   8.895   4.878  1.4049  1.1588 -2.1993
41517SOL    HW228083   3.495   8.876   4.933  0.4921 -1.7342 -0.6539
41518SOL     OW28084  10.690   2.650   1.771  0.4081 -0.1370  0.1182
41518SOL    HW128085  10.776   2.613   1.791 -0.3378 -1.6242  0.7271
41518SOL    HW228086  10.643   2.646   1.854  0.0167  1.4676 -0.0091
41519SOL     OW28087   1.987   3.788   5.146  0.3815 -0.0341 -0.3977
41519SOL    HW128088   2.077   3.776   5.118  0.3926 -0.3555 -0.2268
41519SOL    HW228089   1.988   3.871   5.195  0.3397  0.5857 -1.4126
41520SOL     OW28090   2.938   5.150   7.314  0.2338 -0.1827  0.0886
41520SOL    HW128091   2.946   5.244   7.295  0.1916 -0.0382  0.7546
41520SOL    HW228092   2.844   5.133   7.309  0.3775 -0.6671 -2.1465
41521SOL     OW28093   9.017   4.981   3.269  0.1960 -0.4906 -0.3211
41521SOL    HW128094   9.088   4.920   3.288 -0.2646 -1.3314 -1.2037
41521SOL    HW228095   9.051   5.066   3.295  0.4677 -1.2155  1.9370
41522SOL     OW28096  10.607   2.818   9.023  0.1006  0.0811  0.0066
41522SOL    HW128097  10.551   2.763   8.968 -0.7250  0.0915  0.8117
41522SOL    HW228098  10.663   2.865   8.961  1.2009 -2.0208 -0.6887
41523SOL     OW28099   4.571   9.438   7.986 -0.1924  0.3870  0.1915
41523SOL    HW128100   4.586   9.428   7.892 -0.4794 -0.0116  0.1884
41523SOL    HW228101   4.579   9.349   8.021  3.6455  0.8821  1.0994
41524SOL     OW28102   9.959   8.058   8.919 -0.0216  0.4620  0.3215
41524SOL    HW128103   9.944   8.054   8.824 -1.5590 -0.3730  0.5566
41524SOL    HW228104   9.912   8.136   8.947 -0.2416  0.2702  0.4935
41525SOL     OW28105  10.629   1.084   3.806 -0.0622  0.1910 -0.4629
41525SOL    HW128106  10.665   0.996   3.797 -0.2430  0.0595  0.0449
41525SOL    HW228107  10.599   1.107   3.718  0.0482 -0.2282 -0.6132
41526SOL     OW28108   1.174   7.675  10.056 -0.2873 -0.2252 -0.2291
41526SOL    HW128109   1.245   7.738  10.056  0.2376 -0.7750  0.7934
41526SOL    HW228110   1.094   7.728  10.056  0.1333  0.4197 -0.1825
41527SOL     OW28111   2.185  10.555   0.987 -0.6409  0.0896  0.0584
41527SOL    HW128112   2.216  10.490   0.923  2.2716  0.4683  0.9330
41527SOL    HW228113   2.170  10.634   0.936  0.5780  0.0764 -0.3542
41528SOL     OW28114   0.004   5.759   4.640  0.4812  0.3285  0.2455
41528SOL    HW128115   0.064   5.714   4.581  1.3867  0.7821  0.7940
41528SOL    HW228116   0.042   5.845   4.652 -1.6108  1.5863 -1.3786
41529SOL     OW28117   4.174   0.227   7.804  0.0952 -0.3197  0.0309
41529SOL    HW128118   4.099   0.188   7.847  0.2471 -1.6504 -0.8389
41529SOL    HW228119   4.151   0.319   7.793 -1.9634 -0.9251 -1.3021
41530SOL     OW28120   1.185   9.122   0.184  0.5129  0.1727  0.7623
41530SOL    HW128121   1.156   9.118   0.276  2.5281 -1.5502  1.3911
41530SOL    HW228122   1.147   9.043   0.144  1.7571 -0.4758  0.8217
41531SOL     OW28123  10.892   8.525   6.742  0.0409 -0.3106  0.5666
41531SOL    HW128124  10.830   8.596   6.726  0.0712 -0.4657 -0.2788
41531SOL    HW228125  10.873   8.460   6.674 -0.4468 -1.4322  1.7316
41532SOL     OW28126   2.209   0.491   0.034  0.1748  0.6785 -0.4168
41532SOL    HW128127   2.234   0.515  -0.055  0.3971 -1.0293 -0.8593
41532SOL    HW228128   2.153   0.414   0.023  3.3241 -2.1097  0.9795
41533SOL     OW28129  11.038   3.013   7.320 -0.1086  0.6349  0.2510
41533SOL    HW128130  11.009   3.102   7.341 -1.0486  0.9171 -1.9975
41533SOL    HW228131  11.029   3.006   7.225  1.2129 -1.4470  0.2081
41534SOL     OW28132   9.966   8.948   6.224  0.2597  0.0944  0.0442
41534SOL    HW128133   9.950   9.040   6.205  1.5251  0.6301  1.3958
41534SOL    HW228134   9.881   8.905   6.211 -0.7726  1.7402  1.0469
41535SOL     OW28135   1.245  11.001   5.230  0.4200 -0.0865 -0.2593
41535SOL    HW128136   1.225  11.048   5.149  2.2766 -1.0929 -1.3746
41535SOL    HW228137   1.314  11.053   5.272  0.8034 -0.5571 -0.2953
41536SOL     OW28138   7.635   4.400   0.997  0.2937 -0.3993  0.2187
41536SOL    HW128139   7.576   4.445   1.058  0.1139 -0.2156 -0.0888
41536SOL    HW228140   7.706   4.463   0.982  0.0216 -0.1960 -0.2434
41537SOL     OW28141   2.759   7.193   2.361 -0.1435  0.0571 -0.8058
41537SOL    HW128142   2.810   7.243   2.424 -1.8305  2.0971 -0.9690
41537SOL    HW228143   2.682   7.247   2.342 -1.8738 -2.3832 -1.3650
41538SOL     OW28144   7.297   3.766   4.058  0.2373  0.1938  0.1617
41538SOL    HW128145   7.284   3.682   4.015  0.9875 -0.2883  0.8437
41538SOL    HW228146   7.393   3.777   4.061  0.1581  0.8384  0.5187
41539SOL     OW28147   9.659  10.813  10.174 -0.0617  0.3789 -0.1161
41539SOL    HW128148   9.677  10.906  10.158 -2.2991  0.8611 -0.1896
41539SOL    HW228149   9.564  10.805  10.161 -0.3426 -1.4032  2.3263
41540SOL     OW28150  10.836   6.599   2.503 -0.1475  0.0331  0.0511
41540SOL    HW128151  10.842   6.544   2.581 -0.1967 -0.5220 -0.3271
41540SOL    HW228152  10.806   6.684   2.535 -0.2502 -0.2179  0.6228
41541SOL     OW28153   9.294   5.575   4.189  0.4314  0.2102  0.3606
41541SOL    HW128154   9.276   5.526   4.269  0.3756  1.3447  1.0587
41541SOL    HW228155   9.354   5.644   4.217  0.8443  0.2868 -0.6925
41542SOL     OW28156  10.684   0.371   1.601  0.6776 -0.3487  0.1073
41542SOL    HW128157  10.647   0.451   1.640 -1.4134 -0.1348 -2.0886
41542SOL    HW228158  10.624   0.302   1.628  2.3777 -1.2263  1.8393
41543SOL     OW28159   5.324   4.728   1.869 -0.2010  0.1456 -0.1567
41543SOL    HW128160   5.353   4.662   1.807  0.0556  1.1594 -1.1506
41543SOL    HW228161   5.278   4.793   1.815 -0.4155  0.7969  0.7795
41544SOL     OW28162   4.883   9.599   5.772 -0.2389  0.0064 -0.4872
41544SOL    HW128163   4.820   9.612   5.843 -0.9923 -3.0177 -0.4377
41544SOL    HW228164   4.968   9.608   5.814 -0.6460  0.9996  0.1678
41545SOL     OW28165  10.495   7.824   6.084 -0.3450 -0.2964 -0.0232
41545SOL    HW128166  10.528   7.832   5.995 -1.3504  1.2486 -0.2969
41545SOL    HW228167  10.532   7.742   6.116 -0.3566 -1.1404 -2.0244
41546SOL     OW28168   1.928  10.260   7.935 -0.2239 -0.4181 -0.2038
41546SOL    HW128169   1.961  10.241   8.023  1.9288 -0.5107 -0.9650
41546SOL    HW228170   1.864  10.191   7.918 -0.6048 -0.4478  1.2433
41547SOL     OW28171   7.382   0.043   5.017  0.3353 -0.5695  0.1839
41547SOL    HW128172   7.387   0.089   4.933 -0.2156 -1.5886 -0.4382
41547SOL    HW228173   7.311   0.087   5.064  0.2587 -0.3496 -0.1284
41548SOL     OW28174   6.553   9.348   1.388 -0.0051  0.3122  0.2100
41548SOL    HW128175   6.625   9.356   1.326 -1.5502 -0.7322 -1.8253
41548SOL    HW228176   6.475   9.338   1.334 -1.3543 -1.5945  2.3066
41549SOL     OW28177   4.854   5.335   7.389 -0.0249  0.3920  0.2067
41549SOL    HW128178   4.940   5.345   7.349  0.2541 -0.8395  0.4496
41549SOL    HW228179   4.816   5.259   7.344 -0.6245  0.3928  0.7036
41550SOL     OW28180   5.556   3.860   2.713  0.0634  0.2151  0.2539
41550SOL    HW128181   5.589   3.824   2.795  0.1175 -3.2663 -1.1079
41550SOL    HW228182   5.634   3.869   2.658 -0.4189 -4.4603 -1.6874
41551SOL     OW28183   3.268   2.828   6.606 -0.1334 -0.2668  0.4320
41551SOL    HW128184   3.214   2.753   6.584  0.5391 -0.3437 -1.0848
41551SOL    HW228185   3.291   2.815   6.698 -0.1619 -1.8469  0.2433
41552SOL     OW28186   1.565   0.952   8.118  0.3365  0.0556  0.3435
41552SOL    HW128187   1.562   0.992   8.031 -0.4055 -0.1035  0.2825
41552SOL    HW228188   1.640   0.893   8.115  0.0317 -0.3103 -0.3616
41553SOL     OW28189   0.706   5.567   4.918 -0.4303  0.2009 -0.0120
41553SOL    HW128190   0.750   5.621   4.853  0.0779 -0.0286  0.1385
41553SOL    HW228191   0.767   5.563   4.992 -1.2513  0.9593  0.7311
41554SOL     OW28192   3.504   4.891   0.850 -0.2105 -0.1385 -0.1541
41554SOL    HW128193   3.560   4.962   0.882  0.1021  0.3927 -1.7567
41554SOL    HW228194   3.426   4.895   0.904  0.1429  0.9295  0.2977
41555SOL     OW28195   3.507   0.172   5.885 -0.5452  0.0673 -0.3015
41555SOL    HW128196   3.559   0.096   5.858  0.2049  0.2805  0.4835
41555SOL    HW228197   3.548   0.201   5.967 -0.4767  1.6336 -0.8545
41556SOL     OW28198   3.975   7.578   2.951  0.4612 -0.3133 -0.5257
41556SOL    HW128199   4.005   7.488   2.963 -1.0653 -0.9083 -0.9223
41556SOL    HW228200   3.940   7.604   3.036  0.8741 -0.0973 -0.4194
41557SOL     OW28201   8.535   1.418   4.282  0.2327 -0.0431  0.2598
41557SOL    HW128202   8.518   1.336   4.235 -1.0912  0.9324 -1.0377
41557SOL    HW228203   8.559   1.481   4.214 -0.4980  1.0969  1.0222
41558SOL     OW28204   4.787   9.239   5.224  0.1244 -0.2219 -0.2106
41558SOL    HW128205   4.816   9.187   5.148  1.6386 -1.5498  1.2091
41558SOL    HW228206   4.751   9.174   5.284  1.1715  0.4819  1.2112
41559SOL     OW28207   6.434   1.842   3.289  0.0427 -0.2333  0.0265
41559SOL    HW128208   6.475   1.874   3.209 -1.4418  0.0470 -0.6624
41559SOL    HW228209   6.389   1.919   3.325  0.6310 -0.3775  1.0857
41560SOL     OW28210   2.292   3.702   5.873  0.3137  0.1717 -0.1822
41560SOL    HW128211   2.247   3.692   5.789  1.7278  0.4296 -0.9890
41560SOL    HW228212   2.293   3.613   5.909  1.4965 -0.3426 -1.4005
41561SOL     OW28213   1.684   5.904  10.037 -0.5463 -0.2681 -0.0035
41561SOL    HW128214   1.717   5.866  10.118  0.8598 -1.3219 -1.0384
41561SOL    HW228215   1.674   5.997  10.058  1.3677 -0.2185  0.9170
41562SOL     OW28216  10.145   1.447   6.958 -0.1102 -0.1515 -0.0813
41562SOL    HW128217  10.112   1.436   7.048 -0.1354 -0.4316 -0.1237
41562SOL    HW228218  10.232   1.407   6.960  0.9501  2.0490  0.4577
41563SOL     OW28219   3.207   9.357   1.704 -0.2066 -0.0803  0.4598
41563SOL    HW128220   3.186   9.430   1.645 -1.0589 -1.4863 -1.0676
41563SOL    HW228221   3.157   9.376   1.784 -0.6305  0.8680 -0.0129
41564SOL     OW28222   7.915   5.356   8.282 -0.3966  0.0592  0.1047
41564SOL    HW128223   7.898   5.354   8.188  0.1857  0.1392 -0.0074
41564SOL    HW228224   8.003   5.319   8.292 -1.3738 -2.2727  0.8628
41565SOL     OW28225   8.566   5.451  10.081 -0.0735 -0.2056  0.4461
41565SOL    HW128226   8.584   5.395  10.156 -1.9585 -1.5977 -0.0454
41565SOL    HW228227   8.606   5.405  10.007 -1.4511 -0.8588  0.0708
41566SOL     OW28228   1.812   2.479  10.747 -0.2462  0.5279 -0.1779
41566SOL    HW128229   1.741   2.540  10.732 -0.7295  0.2722  0.9475
41566SOL    HW228230   1.866   2.484  10.668 -1.5717  0.6256 -1.1013
41567SOL     OW28231   8.744   7.547   5.248  0.0489  0.7547 -0.7793
41567SOL    HW128232   8.771   7.470   5.199  0.5579 -0.6257  1.5118
41567SOL    HW228233   8.653   7.530   5.273 -0.1502  1.3594 -1.0611
41568SOL     OW28234   9.857   5.737   8.729 -0.0855 -0.4721 -0.3809
41568SOL    HW128235   9.798   5.771   8.796  2.0216  1.7880  0.4698
41568SOL    HW228236   9.890   5.655   8.765  1.2008  0.8243  1.5837
41569SOL     OW28237   1.613   8.511   9.153 -0.9176  0.4260  0.0123
41569SOL    HW128238   1.656   8.427   9.134 -0.9176 -0.0682  1.9303
41569SOL    HW228239   1.684   8.568   9.183 -1.1767  0.4761  0.5581
41570SOL     OW28240   7.349   2.603   1.154 -0.2176  0.1093 -0.0818
41570SOL    HW128241   7.328   2.580   1.245  0.0968 -2.6907 -0.6343
41570SOL    HW228242   7.265   2.628   1.116 -0.3234  1.5232  0.9583
41571SOL     OW28243   4.060   2.135   0.934  0.3174  0.0488  0.0827
41571SOL    HW128244   4.075   2.202   1.001  2.8995 -0.0597 -0.2976
41571SOL    HW228245   4.096   2.055   0.971  0.7078 -0.2761 -0.9664
41572SOL     OW28246   1.756  11.096   5.142 -0.1214  0.0116 -0.2499
41572SOL    HW128247   1.848  11.122   5.148 -0.0939  0.1054 -1.0106
41572SOL    HW228248   1.728  11.088   5.233  0.8100 -0.6321  0.0006
41573SOL     OW28249   3.567   6.210   3.946  1.0250 -0.1964  0.1513
41573SOL    HW128250   3.567   6.267   4.023  1.0479  0.2852 -0.2031
41573SOL    HW228251   3.639   6.149   3.962  0.0861 -1.0754  1.2195
41574SOL     OW28252   2.939   1.258   9.619  0.6642  0.9836  0.1789
41574SOL    HW128253   2.944   1.331   9.557  0.4489  0.6136 -0.2810
41574SOL    HW228254   2.988   1.187   9.577 -1.1568  0.0547 -0.5426
41575SOL     OW28255   8.455   0.335   9.729 -0.3837 -0.3231 -0.4370
41575SOL    HW128256   8.434   0.416   9.777 -1.0992 -1.1560  0.6937
41575SOL    HW228257   8.464   0.269   9.797  2.9232 -0.7072 -1.0867
41576SOL     OW28258   5.805   2.726   6.685  0.4622 -0.3409 -0.4341
41576SOL    HW128259   5.755   2.691   6.759 -1.0207  0.6964 -0.8919
41576SOL    HW228260   5.742   2.726   6.612  0.8161  1.9277 -0.7878
41577SOL     OW28261   0.660   5.025  10.982 -0.6936 -0.2420  1.1363
41577SOL    HW128262   0.742   5.058  10.945 -1.1151 -1.3693 -0.9871
41577SOL    HW228263   0.612   5.104  11.008  0.0492  0.5891  0.0850
41578SOL     OW28264  10.497   4.706   0.241  0.3241  0.0098 -0.1586
41578SOL    HW128265  10.450   4.787   0.221 -0.5768 -0.7157 -1.0347
41578SOL    HW228266  10.477   4.690   0.334  0.6240  0.8503  0.0653
41579SOL     OW28267   7.642   8.522   8.648  0.1252  0.0304  0.0211
41579SOL    HW128268   7.664   8.614   8.656 -0.1646  0.2190 -1.1289
41579SOL    HW228269   7.579   8.506   8.718  0.2201  0.6892  0.2650
41580SOL     OW28270  10.865  10.995   6.823 -0.0015  0.2227 -0.1028
41580SOL    HW128271  10.950  11.039   6.822 -0.3695  0.9582 -1.3196
41580SOL    HW228272  10.829  11.013   6.909  1.5932 -1.1825  0.9221
41581SOL     OW28273   6.774   2.796   9.456 -0.4578  0.1363  0.0426
41581SOL    HW128274   6.807   2.879   9.490 -0.9564 -0.4587  2.1417
41581SOL    HW228275   6.712   2.821   9.388  0.6410  1.4181 -0.5236
41582SOL     OW28276   1.663  10.255   4.160  0.2287  0.1725  0.2614
41582SOL    HW128277   1.746  10.302   4.154 -0.6399  2.2912  3.0519
41582SOL    HW228278   1.659  10.223   4.250 -0.6820 -2.6233 -0.6607
41583SOL     OW28279   0.922   2.235   4.533 -0.2155  0.0753 -0.1627
41583SOL    HW128280   0.915   2.330   4.539  0.8560  0.1376  0.4339
41583SOL    HW228281   0.864   2.202   4.602 -0.3910  0.3035 -0.1984
41584SOL     OW28282   0.294   9.073   3.989 -0.6671  0.5879 -0.2964
41584SOL    HW128283   0.218   9.108   4.035  0.9114  1.9669  1.3937
41584SOL    HW228284   0.368   9.095   4.045  0.9433 -1.2013 -1.6104
41585SOL     OW28285   5.515   6.034   3.464  0.1765  0.0817  0.1243
41585SOL    HW128286   5.574   6.016   3.391 -0.7338 -1.8342 -0.1986
41585SOL    HW228287   5.485   6.124   3.448  2.8466  1.0918  0.2617
41586SOL     OW28288   9.423   5.319   8.439  0.0678  0.2003 -0.2764
41586SOL    HW128289   9.437   5.329   8.533 -0.4732  0.9344 -0.2668
41586SOL    HW228290   9.366   5.242   8.431  1.8855 -1.2246 -0.1644
41587SOL     OW28291   1.636   8.345   7.592 -0.2967 -0.5248  0.1957
41587SOL    HW128292   1.638   8.345   7.496  1.3928  0.4671  0.1904
41587SOL    HW228293   1.614   8.435   7.616 -1.1557 -0.8641  0.7736
41588SOL     OW28294   0.713   3.845   9.700  0.0107  0.6612  1.0850
41588SOL    HW128295   0.801   3.836   9.664 -1.0404 -1.8545 -1.2300
41588SOL    HW228296   0.674   3.917   9.651 -0.2173 -0.3449 -0.2560
41589SOL     OW28297   9.699   0.423  10.080  0.1305  0.0007  0.3453
41589SOL    HW128298   9.787   0.398  10.110 -0.5099 -0.5384  1.8907
41589SOL    HW228299   9.713   0.500  10.026  1.5950 -0.2904  0.2708
41590SOL     OW28300   7.968   8.625   2.541 -0.6879  0.3764  0.1941
41590SOL    HW128301   7.956   8.541   2.497 -1.2668  1.0504 -0.9620
41590SOL    HW228302   7.902   8.625   2.611  0.8612 -1.0914  1.7449
41591SOL     OW28303   8.654   4.594  10.946 -0.9220  0.0002  0.0975
41591SOL    HW128304   8.676   4.503  10.967  2.6036  0.5221 -0.7459
41591SOL    HW228305   8.724   4.623  10.888 -2.1388  3.1817  0.0224
41592SOL     OW28306   8.726   4.454   8.582 -0.2558  0.0496 -0.2230
41592SOL    HW128307   8.760   4.412   8.503 -0.2505 -2.1399  0.8637
41592SOL    HW228308   8.804   4.489   8.625  0.3405 -2.2807  0.7448
41593SOL     OW28309   5.792   9.443   5.909 -0.1301 -0.3141 -0.1492
41593SOL    HW128310   5.724   9.425   5.844  0.3977  2.1386 -1.4760
41593SOL    HW228311   5.874   9.430   5.862  0.2622  2.5555 -0.4000
41594SOL     OW28312   2.529   1.919   9.212  0.1348  0.1181  0.1277
41594SOL    HW128313   2.449   1.921   9.158  0.3091 -0.4773 -0.1649
41594SOL    HW228314   2.597   1.953   9.155  0.1388  0.4068  0.3013
41595SOL     OW28315   2.250  11.127   4.092 -0.1536  0.7358 -0.9539
41595SOL    HW128316   2.290  11.050   4.053 -0.8038 -0.3396  0.4189
41595SOL    HW228317   2.290  11.201   4.046  2.7109 -0.2779 -0.2960
41596SOL     OW28318   3.181   7.339   1.764  0.3363  0.6269 -0.1032
41596SOL    HW128319   3.243   7.339   1.691 -1.1224 -0.4923 -1.3884
41596SOL    HW228320   3.235   7.361   1.841  1.7987  2.5013 -1.5593
41597SOL     OW28321   9.434   0.110   5.602 -0.0730  0.2421  0.7704
41597SOL    HW128322   9.394   0.191   5.633 -0.1197  0.1256  1.0229
41597SOL    HW228323   9.427   0.113   5.507  0.7377  0.9526  0.7224
41598SOL     OW28324   3.621   3.539   4.203  0.0961 -0.6452  0.2739
41598SOL    HW128325   3.676   3.544   4.125 -2.3075 -1.8718 -1.6310
41598SOL    HW228326   3.628   3.447   4.230 -0.8051 -0.7457  0.1655
41599SOL     OW28327  10.022   5.113   3.818 -0.0182 -0.7480  0.2339
41599SOL    HW128328  10.106   5.158   3.827 -0.6986  0.2188  2.7955
41599SOL    HW228329  10.039   5.023   3.848  0.2860 -0.7894 -0.0674
41600SOL     OW28330   7.798   0.017   8.600  0.7215  0.2277 -0.3910
41600SOL    HW128331   7.832   0.064   8.676  1.7561 -1.0610 -0.0087
41600SOL    HW228332   7.706   0.001   8.620  1.4599 -1.9731  1.6301
41601SOL     OW28333  10.176   2.859   2.949  0.3690 -0.1382 -0.3944
41601SOL    HW128334  10.145   2.896   2.866  1.1065  0.2572 -0.5006
41601SOL    HW228335  10.271   2.874   2.948  0.4847 -0.7939  0.1897
41602SOL     OW28336   0.538   3.413   6.805 -0.1515 -0.4177 -0.3727
41602SOL    HW128337   0.622   3.454   6.824 -1.0681  1.0855  0.6335
41602SOL    HW228338   0.553   3.364   6.724  1.3635  0.7789 -0.8600
41603SOL     OW28339  11.095   7.246   9.151  0.6888  0.9993  0.3202
41603SOL    HW128340  11.131   7.310   9.089 -0.3802  0.0356 -1.3756
41603SOL    HW228341  11.128   7.161   9.119 -1.8834  0.2334 -0.5016
41604SOL     OW28342   2.016   7.138  10.633 -0.9975  0.3894 -0.1101
41604SOL    HW128343   1.986   7.211  10.688 -0.4941  0.0105  0.6900
41604SOL    HW228344   2.111   7.148  10.630 -1.1349  2.6928 -4.1696
41605SOL     OW28345   0.964   5.763   4.977  0.7852  0.0142  0.0489
41605SOL    HW128346   1.013   5.824   5.032  0.7227  0.0765  0.0373
41605SOL    HW228347   0.971   5.679   5.021  1.8696 -0.2213 -0.5559
41606SOL     OW28348  10.130   1.716   6.840 -0.3665 -0.7665  0.4976
41606SOL    HW128349  10.136   1.624   6.866  1.3520 -1.3480 -1.6227
41606SOL    HW228350  10.125   1.713   6.745 -1.7429  1.3303  0.4637
41607SOL     OW28351   5.320   8.816   9.876 -0.1122  0.0422  0.2260
41607SOL    HW128352   5.396   8.758   9.871  0.0617  0.1206  1.4874
41607SOL    HW228353   5.262   8.774   9.940 -1.4621 -0.3529 -1.1908
41608SOL     OW28354   2.911   6.697   8.978  0.0155 -0.3810  0.4449
41608SOL    HW128355   2.950   6.746   8.906  1.0068  1.0906  1.9003
41608SOL    HW228356   2.954   6.612   8.975  0.6020 -0.0733 -0.2445
41609SOL     OW28357   1.186   8.618   4.748 -0.8950 -0.6860  0.3349
41609SOL    HW128358   1.211   8.605   4.656 -0.9368  1.6050 -0.0599
41609SOL    HW228359   1.150   8.534   4.775 -0.1996 -1.6357 -1.5242
41610SOL     OW28360   7.002  10.369   2.872  0.1219  0.1020 -0.1916
41610SOL    HW128361   6.977  10.279   2.893 -0.9980  0.4907  0.1674
41610SOL    HW228362   7.097  10.370   2.886 -0.1955 -0.3108  2.5998
41611SOL     OW28363   8.130   1.594   6.285 -0.0177 -0.3405  0.5489
41611SOL    HW128364   8.101   1.532   6.353  0.1893 -0.6271  0.3775
41611SOL    HW228365   8.049   1.620   6.240 -0.0277 -1.0813  0.1176
41612SOL     OW28366   8.837   7.169   6.569  0.0904 -0.1280 -0.0266
41612SOL    HW128367   8.849   7.131   6.656 -0.8107 -0.9425 -0.2305
41612SOL    HW228368   8.816   7.261   6.585 -0.1576 -0.2912  0.6338
41613SOL     OW28369   7.354   0.467   3.215  0.0028 -0.5300  0.0127
41613SOL    HW128370   7.447   0.452   3.232  0.6598  2.7621  0.0063
41613SOL    HW228371   7.313   0.469   3.301  0.2590 -0.3433  0.1309
41614SOL     OW28372  10.932   4.138   2.160 -0.0910  0.7805 -0.6076
41614SOL    HW128373  10.929   4.118   2.253  0.7117 -1.3997 -1.0078
41614SOL    HW228374  10.848   4.106   2.126  1.0121 -1.6550 -1.1742
41615SOL     OW28375  10.859   8.051   7.628  0.8315  0.5713  0.0213
41615SOL    HW128376  10.868   8.066   7.533 -1.8644  0.7949 -0.2858
41615SOL    HW228377  10.904   8.126   7.667 -0.5838  2.1841 -1.2203
41616SOL     OW28378   6.790   0.796   1.502  0.0206 -0.2885 -0.2573
41616SOL    HW128379   6.884   0.776   1.499  0.1018  0.0221  0.1136
41616SOL    HW228380   6.748   0.717   1.468  0.4079 -0.5097 -0.2359
41617SOL     OW28381   7.316   9.344   9.792 -0.0561 -0.3178  0.5490
41617SOL    HW128382   7.309   9.439   9.786  0.7359 -0.3405 -1.3037
41617SOL    HW228383   7.338   9.328   9.883 -1.6710  1.1514  1.2669
41618SOL     OW28384   4.781   0.785   0.732 -0.4992  0.7591  0.4363
41618SOL    HW128385   4.827   0.779   0.816 -0.1011 -1.5881  0.1332
41618SOL    HW228386   4.695   0.746   0.750 -0.4349  0.3029 -0.2151
41619SOL     OW28387  10.084   3.947  10.214 -0.1087  0.1315  0.0120
41619SOL    HW128388  10.145   3.890  10.167 -3.5016 -1.6007 -2.7073
41619SOL    HW228389  10.059   4.013  10.150 -0.5179  1.3265  1.3420
41620SOL     OW28390   8.909   4.607   5.391  0.2168 -0.1248  0.5449
41620SOL    HW128391   8.979   4.571   5.445  0.2302  0.1806  0.7299
41620SOL    HW228392   8.951   4.627   5.307  0.5291  0.7638  0.9018
41621SOL     OW28393   7.842   3.822  10.278 -0.3452  0.3798 -0.5633
41621SOL    HW128394   7.919   3.772  10.304 -0.1484  0.3620 -1.1686
41621SOL    HW228395   7.875   3.909  10.256 -0.8142  1.1388  1.4740
41622SOL     OW28396   4.556   3.665   8.935 -0.2398 -0.5970 -0.1930
41622SOL    HW128397   4.555   3.702   8.847  0.4079  0.7009  0.3125
41622SOL    HW228398   4.621   3.595   8.931  1.2750  0.7426 -0.3039
41623SOL     OW28399   9.400   4.757   8.188 -0.2448  0.1398 -0.2694
41623SOL    HW128400   9.443   4.673   8.173 -0.0680  0.3052 -0.6982
41623SOL    HW228401   9.360   4.748   8.275 -2.2085 -1.2627 -1.2210
41624SOL     OW28402   0.264   5.481   6.922 -0.0898 -0.1493  0.2417
41624SOL    HW128403   0.309   5.409   6.876 -0.0450 -0.6894  1.1124
41624SOL    HW228404   0.329   5.514   6.983 -0.1126  0.6474 -0.1580
41625SOL     OW28405  10.658   9.018   2.759  0.2253  0.0492 -0.3348
41625SOL    HW128406  10.750   8.998   2.744  0.5714 -0.1732  1.8128
41625SOL    HW228407  10.657   9.109   2.786  0.2615 -0.7225  2.6128
41626SOL     OW28408   8.323   1.804   2.120 -0.0559 -0.3406 -0.2183
41626SOL    HW128409   8.348   1.762   2.037 -2.5249  0.5139 -1.4885
41626SOL    HW228410   8.281   1.886   2.094  3.0460  2.2345  2.1041
41627SOL     OW28411   4.060   7.441   7.143  0.1630  0.2039 -0.3971
41627SOL    HW128412   4.140   7.480   7.108  0.7334  0.6794  1.3282
41627SOL    HW228413   4.091   7.379   7.210 -0.8883 -0.3171 -0.3749
41628SOL     OW28414   7.105  10.074   9.195  0.3118  0.0638  0.2848
41628SOL    HW128415   7.048  10.135   9.242  1.9274  1.0999  0.9773
41628SOL    HW228416   7.093  10.097   9.102 -0.6120  0.0526  0.3968
41629SOL     OW28417   5.025  10.142   5.479  0.2289  0.0932  0.0320
41629SOL    HW128418   5.015  10.212   5.414 -0.1336  1.0104  1.0547
41629SOL    HW228419   5.120  10.130   5.486  0.2583 -0.6313 -1.2888
41630SOL     OW28420   7.861   3.463   2.538  0.1508  0.5576 -0.1420
41630SOL    HW128421   7.774   3.500   2.524  0.0042  0.5259  0.6341
41630SOL    HW228422   7.899   3.458   2.451 -0.6030  0.6225 -0.4828
41631SOL     OW28423  10.202   2.309   2.330 -0.4055 -0.2491 -0.0175
41631SOL    HW128424  10.208   2.404   2.334  0.5002 -0.3467  1.9962
41631SOL    HW228425  10.239   2.286   2.245 -0.3521  1.1615 -0.3990
41632SOL     OW28426   2.578   0.216   1.987 -0.0540  0.2586  0.1990
41632SOL    HW128427   2.661   0.251   2.019 -0.9102  0.6945  2.0577
41632SOL    HW228428   2.559   0.267   1.908  1.4989  0.0512 -0.3316
41633SOL     OW28429  11.038   4.216   0.166 -0.0729  0.7442  0.3218
41633SOL    HW128430  11.019   4.140   0.111 -0.8894  0.6783  0.6721
41633SOL    HW228431  11.128   4.240   0.144  0.8985 -1.4431  1.5337
41634SOL     OW28432   7.618  11.105   6.614 -0.4107 -0.6863 -0.7642
41634SOL    HW128433   7.673  11.070   6.544  0.4224  1.0392 -1.0305
41634SOL    HW228434   7.551  11.155   6.569 -0.7108 -0.7291 -0.3696
41635SOL     OW28435   0.434   9.546   4.134  0.0452 -0.2981  0.3271
41635SOL    HW128436   0.397   9.546   4.046 -0.4280 -1.6697  0.5045
41635SOL    HW228437   0.510   9.488   4.128 -0.7457 -1.4549  1.0945
41636SOL     OW28438   5.878   2.549   6.206  0.2091 -0.3256  0.5376
41636SOL    HW128439   5.801   2.514   6.250  0.1803 -0.0679  0.6986
41636SOL    HW228440   5.942   2.478   6.207 -0.4604 -0.9801 -0.7262
41637SOL     OW28441   6.751   9.839   5.958  0.1207 -0.0448  0.1470
41637SOL    HW128442   6.658   9.839   5.934  0.0440 -0.1235  0.4405
41637SOL    HW228443   6.795   9.878   5.883 -0.1955  0.3694  0.1722
41638SOL     OW28444   8.756  10.373   3.615  0.0548 -0.1107  0.4572
41638SOL    HW128445   8.691  10.440   3.593  0.8031  0.7764  0.8553
41638SOL    HW228446   8.829  10.422   3.653  0.6141 -1.1636  0.7933
41639SOL     OW28447  10.320   1.980   5.017  0.4122  0.1346  0.4240
41639SOL    HW128448  10.279   1.896   5.037  0.2822 -1.1712 -4.3022
41639SOL    HW228449  10.384   1.960   4.948 -0.5453  4.0133 -1.8689
41640SOL     OW28450   5.438   4.215   0.465 -0.0384 -0.0390  0.2551
41640SOL    HW128451   5.502   4.175   0.407 -0.5518 -0.6107  0.0723
41640SOL    HW228452   5.370   4.249   0.407  0.9052  2.1142  0.3245
41641SOL     OW28453   6.781   5.442   2.222 -0.4233 -0.4325  0.4567
41641SOL    HW128454   6.857   5.391   2.250 -0.5648 -1.3104 -0.6803
41641SOL    HW228455   6.730   5.381   2.168 -0.6618  0.8685 -0.8432
41642SOL     OW28456   0.678   5.278   5.149 -0.7670  0.9372 -0.5899
41642SOL    HW128457   0.680   5.239   5.061 -1.1144 -0.0798 -0.1584
41642SOL    HW228458   0.699   5.370   5.134  0.2211  0.5752 -1.6228
41643SOL     OW28459   6.334  10.504  10.699  0.1390  0.1540 -0.3707
41643SOL    HW128460   6.367  10.444  10.631 -0.3348  0.6149 -1.0257
41643SOL    HW228461   6.239  10.492  10.696  0.1976 -1.5925  1.8973
41644SOL     OW28462   0.364   2.780  10.715  0.7440  0.1870  0.1183
41644SOL    HW128463   0.362   2.773  10.620  1.8044  0.1449  0.0811
41644SOL    HW228464   0.333   2.695  10.746  1.5079 -0.2217 -0.2063
41645SOL     OW28465   3.898   2.128   3.853 -0.6747  0.6820  0.3685
41645SOL    HW128466   3.804   2.148   3.851 -1.6460 -2.6447  2.7688
41645SOL    HW228467   3.906   2.044   3.809  1.2873  1.0272 -0.0406
41646SOL     OW28468  11.089   9.550   7.045  0.2650 -0.0811 -0.0927
41646SOL    HW128469  11.160   9.489   7.064  0.5875  0.7363  1.4917
41646SOL    HW228470  11.023   9.533   7.111  0.7574  1.8416  0.9714
41647SOL     OW28471   9.263   8.892   4.965  0.0388  0.1681 -0.3704
41647SOL    HW128472   9.188   8.948   4.987 -0.1714  0.5767 -1.9925
41647SOL    HW228473   9.229   8.832   4.898  1.4459  1.1576 -2.0326
41648SOL     OW28474   4.992   8.214  11.076 -0.6691  0.2614  0.0218
41648SOL    HW128475   5.085   8.232  11.091 -1.3180  2.3651  1.8605
41648SOL    HW228476   4.978   8.239  10.985  0.2876  1.1260  0.0941
41649SOL     OW28477   4.026  11.077  10.933  0.1571  0.6334 -0.5691
41649SOL    HW128478   3.932  11.063  10.921  0.1759 -0.4491  0.3717
41649SOL    HW228479   4.042  11.163  10.895 -0.5524 -0.6303 -4.1049
41650SOL     OW28480   0.021   9.350   0.435  0.4318  0.0187 -0.4071
41650SOL    HW128481   0.066   9.341   0.519 -0.2560 -0.5653 -0.0897
41650SOL    HW228482  -0.048   9.414   0.451  0.4049  0.0309 -0.5702
41651SOL     OW28483   7.278   3.188   2.685  0.0267 -0.1604  0.5407
41651SOL    HW128484   7.305   3.098   2.670 -0.7472 -0.0349 -2.0168
41651SOL    HW228485   7.243   3.188   2.774 -1.8182 -2.8660 -0.0651
41652SOL     OW28486   1.859  10.169   2.018 -0.1419 -0.4520  0.6347
41652SOL    HW128487   1.869  10.226   2.095  1.3932  0.2243 -0.0171
41652SOL    HW228488   1.770  10.185   1.988  0.3854  2.0952  0.1748
41653SOL     OW28489   7.492   0.435   4.513  0.2684  0.2185  0.0038
41653SOL    HW128490   7.512   0.499   4.581  0.9896  1.3259 -1.1883
41653SOL    HW228491   7.397   0.429   4.512  0.2599 -0.0921  1.3303
41654SOL     OW28492   6.436   1.015   6.963  0.3338 -0.6666  0.1591
41654SOL    HW128493   6.497   1.089   6.959  0.5534 -0.8030  0.8461
41654SOL    HW228494   6.471   0.951   6.902  0.7497 -0.6454  0.3690
41655SOL     OW28495   8.682   5.387   2.085 -0.1521  0.4438 -0.0974
41655SOL    HW128496   8.752   5.377   2.020 -0.4518  0.5076 -0.4350
41655SOL    HW228497   8.602   5.369   2.036 -0.4123  0.8910  0.1605
41656SOL     OW28498   9.684   5.174   6.725  0.0552  0.5052  0.3313
41656SOL    HW128499   9.637   5.100   6.685  1.4802 -0.6354  0.6623
41656SOL    HW228500   9.751   5.197   6.661  1.2291 -0.1774  1.2740
41657SOL     OW28501   8.239   8.102   1.497 -0.0704  0.6455  0.1579
41657SOL    HW128502   8.162   8.107   1.441  0.6060  0.1265 -0.8633
41657SOL    HW228503   8.296   8.039   1.452  1.2589  1.5725  0.4899
41658SOL     OW28504   9.271   0.249   8.150  0.6515 -0.4483 -0.1036
41658SOL    HW128505   9.310   0.203   8.225  2.0860 -0.2482 -0.7014
41658SOL    HW228506   9.204   0.189   8.117 -0.5465 -0.2429  1.7617
41659SOL     OW28507   1.293   7.176   2.320  0.2361 -0.5291  0.2933
41659SOL    HW128508   1.255   7.191   2.233  1.5510  0.0834 -0.2036
41659SOL    HW228509   1.227   7.125   2.366 -2.0978  2.1558  0.1823
41660SOL     OW28510   5.498   9.411   4.727  0.0912  0.0834 -0.1012
41660SOL    HW128511   5.427   9.474   4.735  0.8781  0.9291  0.5000
41660SOL    HW228512   5.554   9.446   4.658 -0.9609 -1.5089 -1.8654
41661SOL     OW28513   1.426   7.529   1.743 -0.0421  0.2711  0.2959
41661SOL    HW128514   1.378   7.447   1.741  0.0946  0.1955  0.0233
41661SOL    HW228515   1.360   7.596   1.760  0.0701 -0.0542  2.2790
41662SOL     OW28516  11.036   1.984   6.951 -0.3032 -0.8519  0.0277
41662SOL    HW128517  11.034   1.957   7.043  1.2884  0.1409  0.4064
41662SOL    HW228518  11.034   2.080   6.955 -1.4625 -0.8103 -1.0522
41663SOL     OW28519   0.046   7.165   4.333 -0.3221 -0.3436  0.4806
41663SOL    HW128520  -0.022   7.152   4.399 -0.1007 -1.8454  0.4510
41663SOL    HW228521   0.106   7.092   4.346  0.7591  0.4082 -0.1450
41664SOL     OW28522   6.482   3.401   2.797  0.2879  0.1368  0.5363
41664SOL    HW128523   6.509   3.466   2.732  1.8688 -0.6805  0.3230
41664SOL    HW228524   6.510   3.438   2.881  0.8169 -0.0496  0.4522
41665SOL     OW28525  10.146   4.117   7.003  0.3161 -0.6107 -0.0847
41665SOL    HW128526  10.093   4.047   7.042  1.9461 -0.8113  1.9748
41665SOL    HW228527  10.177   4.167   7.078  1.1220  0.9130 -1.3814
41666SOL     OW28528   9.545  10.356   8.168 -0.3809 -0.6595 -0.3381
41666SOL    HW128529   9.493  10.386   8.242 -0.9944 -0.0224 -1.0246
41666SOL    HW228530   9.495  10.380   8.090  0.2580 -1.3037 -0.9760
41667SOL     OW28531   6.964   1.127   1.298 -0.1193 -0.2448  0.0976
41667SOL    HW128532   7.048   1.109   1.340  0.5053 -1.9944 -1.7439
41667SOL    HW228533   6.962   1.223   1.288  1.8043 -0.1917 -0.1155
41668SOL     OW28534   3.507   0.044   9.617  0.4537  0.0054  0.7294
41668SOL    HW128535   3.420   0.060   9.583 -0.0889  0.4266  2.2267
41668SOL    HW228536   3.511  -0.051   9.630  0.1002  0.0157  0.9294
41669SOL     OW28537   2.033   6.822   2.020  0.2084 -0.3283  0.1483
41669SOL    HW128538   2.124   6.843   1.998  0.0346  3.5814  2.1462
41669SOL    HW228539   2.039   6.775   2.103  0.5079  2.3524  1.7616
41670SOL     OW28540   8.305   1.595   8.155 -0.1806 -0.6663 -0.5264
41670SOL    HW128541   8.370   1.526   8.167  1.6303  0.3989 -3.1389
41670SOL    HW228542   8.355   1.676   8.162 -1.6264  0.2723 -0.6382
41671SOL     OW28543   2.620  10.792   3.607  0.0689 -0.3820  0.5927
41671SOL    HW128544   2.643  10.750   3.524  0.8329  0.1074  0.5489
41671SOL    HW228545   2.678  10.752   3.671  0.5482  0.3333  0.6155
41672SOL     OW28546  10.862   5.551   3.548  0.0402  0.1713  0.1159
41672SOL    HW128547  10.801   5.488   3.509  0.4059 -0.4785  0.5690
41672SOL    HW228548  10.937   5.552   3.489  0.0646  0.1262  0.1452
41673SOL     OW28549   2.775   6.874   3.795 -0.3056 -0.2237 -0.0974
41673SOL    HW128550   2.744   6.962   3.818  2.1376  0.9907 -1.1609
41673SOL    HW228551   2.806   6.837   3.878 -3.6701 -1.2191  0.8751
41674SOL     OW28552   4.377   3.534   6.050 -0.0088 -0.0928 -0.6130
41674SOL    HW128553   4.416   3.569   6.131  0.5208  1.6052 -1.5448
41674SOL    HW228554   4.378   3.439   6.062  1.1053  0.0697  0.9085
41675SOL     OW28555   5.788   0.151   6.064  0.2651  0.1583  0.3275
41675SOL    HW128556   5.810   0.243   6.050 -0.2845  0.2858  0.2621
41675SOL    HW228557   5.864   0.114   6.109  1.1559  0.2522 -1.0618
41676SOL     OW28558   1.657   6.340   2.912  0.4008  0.0740 -0.2170
41676SOL    HW128559   1.644   6.289   2.832 -1.2565  0.6491 -0.3531
41676SOL    HW228560   1.674   6.429   2.881  2.1782 -0.1375  0.0453
41677SOL     OW28561  11.085   2.005   5.602  0.6648  0.0085 -0.1642
41677SOL    HW128562  11.084   2.070   5.532  1.2744  1.1314  0.8419
41677SOL    HW228563  11.162   2.027   5.654  1.3432 -2.0092 -0.2379
41678SOL     OW28564  10.399   5.877   0.629 -0.6021  0.2879 -0.6813
41678SOL    HW128565  10.373   5.810   0.692  0.1021 -0.4656 -1.1741
41678SOL    HW228566  10.412   5.956   0.683  1.9463 -0.8097  0.5188
41679SOL     OW28567   7.980   4.070   7.825 -0.1782  0.3893  0.2693
41679SOL    HW128568   7.933   4.089   7.744 -1.4032 -0.0114  0.8586
41679SOL    HW228569   7.916   4.087   7.895 -0.5383 -3.1454  0.9705
41680SOL     OW28570   1.381   6.180   7.382 -0.9238 -0.6231 -0.4344
41680SOL    HW128571   1.325   6.257   7.393 -0.8200 -0.6601  0.4578
41680SOL    HW228572   1.366   6.152   7.292  0.1305  1.3116 -1.2706
41681SOL     OW28573   9.115   9.245   2.817  0.2250  0.2739  0.1539
41681SOL    HW128574   9.186   9.299   2.782 -0.2287  0.4527 -0.5149
41681SOL    HW228575   9.087   9.292   2.896 -0.8169  1.5905 -0.9446
41682SOL     OW28576  10.792   2.270   2.845  0.4457 -0.2863 -0.4216
41682SOL    HW128577  10.872   2.227   2.877  1.1273 -0.6134 -2.4229
41682SOL    HW228578  10.821   2.355   2.813 -0.3338  0.3229  0.4524
41683SOL     OW28579   1.592   2.663   0.904  0.3367 -0.0465 -0.6653
41683SOL    HW128580   1.531   2.592   0.926 -0.4605  0.3363 -1.5339
41683SOL    HW228581   1.623   2.641   0.816  0.3855  0.4652 -0.7801
41684SOL     OW28582  11.059   0.221   7.347 -0.1333 -0.4801 -0.2619
41684SOL    HW128583  10.994   0.163   7.386 -0.2092 -0.7802 -0.8197
41684SOL    HW228584  11.106   0.166   7.284  1.0507 -0.4179  0.5290
41685SOL     OW28585  10.921  10.924   7.282 -0.5086 -0.2543 -0.2197
41685SOL    HW128586  10.986  10.861   7.251 -0.4269  0.0808 -0.7472
41685SOL    HW228587  10.843  10.872   7.298 -1.0139 -0.2560 -2.3966
41686SOL     OW28588   9.824   7.927   5.947  0.1763 -0.4737 -0.5561
41686SOL    HW128589   9.914   7.953   5.970 -0.2616  0.8374 -0.2261
41686SOL    HW228590   9.795   7.875   6.022  0.3208 -0.0452 -0.1961
41687SOL     OW28591   2.499  11.027   4.032 -0.5449  0.8164 -0.5796
41687SOL    HW128592   2.517  11.024   4.126  1.6592 -1.8975 -0.9732
41687SOL    HW228593   2.565  11.086   3.996  0.3918 -0.2556 -0.6810
41688SOL     OW28594   5.748   7.370   7.903 -0.6569  0.6144 -0.0084
41688SOL    HW128595   5.812   7.315   7.857  0.9129  1.8241  0.6241
41688SOL    HW228596   5.669   7.317   7.906  0.7197 -1.5592  0.4112
41689SOL     OW28597   3.785   3.500   5.186 -0.1542 -0.0605  0.0286
41689SOL    HW128598   3.832   3.417   5.181  1.0978  0.6770 -0.9577
41689SOL    HW228599   3.762   3.520   5.096  0.5663  1.2315  0.1211
41690SOL     OW28600   1.544   4.639   6.264  0.5501  0.2930  0.3703
41690SOL    HW128601   1.559   4.604   6.176  2.5975  1.7544  0.0723
41690SOL    HW228602   1.472   4.701   6.253 -0.3323 -0.7405  0.1014
41691SOL     OW28603   6.608   1.029   1.930 -0.3892  0.0440  0.0608
41691SOL    HW128604   6.640   1.115   1.902 -1.1348 -0.0549 -1.2040
41691SOL    HW228605   6.581   0.987   1.848 -1.3892 -0.8259  0.8250
41692SOL     OW28606   6.787   1.166   5.066  0.3050  0.2904 -0.0261
41692SOL    HW128607   6.848   1.201   5.002  1.3477  0.2479  0.9227
41692SOL    HW228608   6.730   1.239   5.088 -0.2332  0.2425 -1.1592
41693SOL     OW28609   7.819   8.966   2.433 -0.1040  0.7069  0.4459
41693SOL    HW128610   7.773   8.994   2.512 -2.1854 -1.7390  0.2276
41693SOL    HW228611   7.752   8.967   2.365  0.8504 -0.2989 -0.5430
41694SOL     OW28612   0.459   5.273   1.628  0.7175 -0.1086  0.0426
41694SOL    HW128613   0.386   5.304   1.682  0.2708 -0.1754 -0.5076
41694SOL    HW228614   0.495   5.199   1.677 -1.1256 -1.6605 -0.7526
41695SOL     OW28615   8.221   0.295   5.789 -0.7658  0.1515 -0.0720
41695SOL    HW128616   8.271   0.280   5.709 -0.3384  0.7965  0.0673
41695SOL    HW228617   8.163   0.219   5.796  0.6859 -0.9764  0.1366
41696SOL     OW28618   1.770   2.392  10.081  0.2137 -0.0847 -0.0506
41696SOL    HW128619   1.723   2.389  10.164 -0.1547  0.7411 -0.2119
41696SOL    HW228620   1.723   2.332  10.024 -0.0673  0.0078  0.0818
41697SOL     OW28621   5.300   0.076   6.327 -0.1275 -0.1900 -0.2844
41697SOL    HW128622   5.331   0.040   6.410  0.6837 -1.2040 -1.0049
41697SOL    HW228623   5.380   0.107   6.284 -0.6940  1.6418 -0.1052
41698SOL     OW28624   1.840   1.908   9.622 -0.5000 -0.1559 -0.1603
41698SOL    HW128625   1.809   1.941   9.706 -1.3250  0.1461 -0.5634
41698SOL    HW228626   1.771   1.847   9.594  0.4942 -1.4455  0.0887
41699SOL     OW28627   0.336   5.626   9.902 -0.3878  0.6577 -0.2424
41699SOL    HW128628   0.403   5.692   9.918  1.3398 -0.2070 -3.1960
41699SOL    HW228629   0.257   5.676   9.884  0.1520  1.7927  0.4028
41700SOL     OW28630   9.410   6.558  10.440  0.2809 -0.4089  0.2238
41700SOL    HW128631   9.385   6.555  10.348 -0.2306 -3.6914  0.3242
41700SOL    HW228632   9.504   6.540  10.440  0.6317  1.2744  0.3219
41701SOL     OW28633   3.171   8.898   4.613 -0.5943 -0.1940 -0.0869
41701SOL    HW128634   3.206   8.936   4.694 -1.1284 -0.4804  0.2891
41701SOL    HW228635   3.145   8.973   4.560 -0.2294 -0.0032  0.0069
41702SOL     OW28636   1.039   1.694   5.794  0.2194  0.3504 -0.7208
41702SOL    HW128637   1.041   1.777   5.746 -0.8447  0.0023 -1.4139
41702SOL    HW228638   1.016   1.629   5.727 -0.6231 -0.2506  0.1267
41703SOL     OW28639   5.144   3.065   0.829 -0.3416 -0.3600 -0.3268
41703SOL    HW128640   5.205   3.032   0.894 -3.0001  0.0385  2.6316
41703SOL    HW228641   5.155   3.160   0.832  1.1283 -0.4151 -2.2860
41704SOL     OW28642   3.398   3.967   7.624 -0.4705  0.2200  0.3159
41704SOL    HW128643   3.452   3.984   7.547  1.2178 -0.8088  1.2082
41704SOL    HW228644   3.461   3.942   7.692 -1.9982  0.0790  1.7386
41705SOL     OW28645   9.367   9.364   2.612  0.1611  0.4591  0.0103
41705SOL    HW128646   9.365   9.350   2.517 -1.4918 -1.0839  0.2110
41705SOL    HW228647   9.314   9.443   2.625 -0.0835  0.3531 -0.3140
41706SOL     OW28648   8.270   9.357   7.988 -0.0822 -0.6625 -0.5074
41706SOL    HW128649   8.194   9.347   7.932  0.9965  0.0718 -2.1896
41706SOL    HW228650   8.234   9.365   8.076 -2.0565  1.0624 -1.3783
41707SOL     OW28651   0.478   3.695   0.754  0.1629 -0.3593  0.3524
41707SOL    HW128652   0.505   3.784   0.780  0.6701 -0.0029 -1.3110
41707SOL    HW228653   0.524   3.679   0.672  1.1665 -2.7170  1.2958
41708SOL     OW28654   8.792   1.724   8.893  0.0798 -0.1886 -0.2730
41708SOL    HW128655   8.805   1.630   8.881 -1.8361 -0.4884 -0.2120
41708SOL    HW228656   8.881   1.759   8.896  0.8391 -1.9301 -0.7113
41709SOL     OW28657   4.491   6.024   8.364  0.5917  0.1750  0.1177
41709SOL    HW128658   4.570   6.067   8.331  0.6258  0.1082  0.1107
41709SOL    HW228659   4.419   6.076   8.330  0.6492  0.6357  0.6869
41710SOL     OW28660   4.465   7.411   3.322  0.0043  0.2824 -0.1004
41710SOL    HW128661   4.527   7.343   3.348 -0.3942 -0.0364  0.0363
41710SOL    HW228662   4.495   7.440   3.236 -1.7509 -2.5451 -1.8617
41711SOL     OW28663   1.127  10.649   9.152  0.6103  0.4477  0.2006
41711SOL    HW128664   1.078  10.568   9.162 -0.4456  1.1541  0.9950
41711SOL    HW228665   1.060  10.718   9.146  1.4699  1.2418 -0.7579
41712SOL     OW28666   7.479   7.374   8.370 -0.3707  0.8961 -0.6217
41712SOL    HW128667   7.508   7.366   8.460 -1.8332  1.1496 -0.0983
41712SOL    HW228668   7.440   7.289   8.350 -1.4262  1.3362 -0.4832
41713SOL     OW28669   9.895   6.544   5.146 -0.0199  0.2964  0.3596
41713SOL    HW128670   9.956   6.532   5.219  0.0323  0.9820  0.4377
41713SOL    HW228671   9.923   6.626   5.105 -2.8300  2.4323  2.3320
41714SOL     OW28672   4.570  11.032   3.134 -0.1459 -0.7264  0.0843
41714SOL    HW128673   4.497  11.082   3.097  0.0212 -1.0634 -0.7159
41714SOL    HW228674   4.531  10.948   3.160  0.1089 -1.2698 -1.1922
41715SOL     OW28675   8.740   6.796   5.353 -0.2504 -0.5294 -0.0054
41715SOL    HW128676   8.714   6.795   5.261 -4.9654  1.4623  1.0471
41715SOL    HW228677   8.716   6.883   5.384  3.1328 -0.3836  2.7905
41716SOL     OW28678   2.117   1.381   4.834  0.1681  0.0952 -0.3414
41716SOL    HW128679   2.060   1.344   4.766  0.3195 -0.6896 -0.0462
41716SOL    HW228680   2.177   1.311   4.856  0.5980  0.5891  0.0880
41717SOL     OW28681   9.807   8.122   4.453  0.8398  0.0894 -0.7082
41717SOL    HW128682   9.799   8.196   4.514 -0.9215  1.6020 -2.6119
41717SOL    HW228683   9.838   8.161   4.372 -2.3596 -0.7223 -2.4857
41718SOL     OW28684   4.569   9.871   6.618 -0.1923 -0.1370  0.6569
41718SOL    HW128685   4.644   9.825   6.658  0.6279  0.4512 -0.1579
41718SOL    HW228686   4.603   9.903   6.534 -0.5410  2.4779  1.4407
41719SOL     OW28687   5.286   9.049   3.168 -0.0007 -0.5179  0.0212
41719SOL    HW128688   5.305   8.963   3.130  3.9770  1.6187 -3.6595
41719SOL    HW228689   5.341   9.053   3.246  1.6997 -0.5853 -1.1222
41720SOL     OW28690   2.038   4.043   3.840  0.0023  0.2925 -0.6546
41720SOL    HW128691   1.960   3.989   3.826  0.1946 -0.2233  0.1872
41720SOL    HW228692   2.109   3.980   3.850  0.7167  0.7743 -2.3666
41721SOL     OW28693   4.832   0.095   7.905 -0.2311  0.7129 -0.3331
41721SOL    HW128694   4.801   0.139   7.984  0.5648 -0.5450  0.7412
41721SOL    HW228695   4.785   0.136   7.833 -3.6017 -0.3419  1.0772
41722SOL     OW28696   1.689   6.320   3.993  0.0798 -0.5346  0.0273
41722SOL    HW128697   1.648   6.329   4.079 -2.4116  1.1584 -1.2114
41722SOL    HW228698   1.682   6.227   3.973 -1.7299 -0.5602  0.5871
41723SOL     OW28699   8.654   0.694   8.332 -0.1342  0.0800 -0.7364
41723SOL    HW128700   8.640   0.634   8.405 -0.7286  1.2523  0.1598
41723SOL    HW228701   8.638   0.642   8.254  2.1228 -1.6494 -0.1473
41724SOL     OW28702   5.387   1.961   4.379 -0.0249  0.1993  0.7532
41724SOL    HW128703   5.352   1.873   4.391 -0.4727  0.0305 -1.4922
41724SOL    HW228704   5.320   2.008   4.330  1.1919  1.0658 -0.1579
41725SOL     OW28705   5.217   6.562   3.072  0.5031 -0.1611 -0.2555
41725SOL    HW128706   5.260   6.611   3.002  2.3931 -0.0719  0.9122
41725SOL    HW228707   5.281   6.560   3.143 -1.4077 -0.0950  1.5669
41726SOL     OW28708   3.649   7.341   8.749  0.5105  0.3409  0.0839
41726SOL    HW128709   3.699   7.397   8.807  1.1235  0.8840 -0.9387
41726SOL    HW228710   3.607   7.402   8.688 -0.2867 -0.2004  0.0794
41727SOL     OW28711   0.952   2.242   2.249 -1.1967  0.0405  0.1549
41727SOL    HW128712   0.958   2.229   2.155 -0.9809  1.2711 -0.0242
41727SOL    HW228713   0.985   2.331   2.263  0.1829 -0.6453  1.5696
41728SOL     OW28714   5.513   9.399  10.367 -0.5834  0.5321 -0.3281
41728SOL    HW128715   5.535   9.335  10.300 -0.0719  1.6792 -1.2917
41728SOL    HW228716   5.593   9.451  10.378 -1.0110  1.0654  0.3590
41729SOL     OW28717   0.468  10.124   6.455 -0.1288  0.2219  0.4113
41729SOL    HW128718   0.563  10.138   6.463 -0.2103  1.0898 -0.0355
41729SOL    HW228719   0.455  10.097   6.365 -0.2623 -0.3744  0.6031
41730SOL     OW28720   6.285   0.879  10.406  0.5037  0.1441  0.1362
41730SOL    HW128721   6.319   0.906  10.491  0.9579 -0.8407  0.2915
41730SOL    HW228722   6.328   0.937  10.343  0.4229  0.6540  0.5450
41731SOL     OW28723   9.770   2.200   7.611  0.3599  0.1565  0.1865
41731SOL    HW128724   9.690   2.151   7.634 -0.1925  1.5983  1.5041
41731SOL    HW228725   9.766   2.208   7.515 -0.8963 -0.1085  0.1989
41732SOL     OW28726   0.566   0.574   6.765  0.0558 -0.0876 -0.1844
41732SOL    HW128727   0.617   0.600   6.688  2.0486 -0.5474  0.9080
41732SOL    HW228728   0.554   0.479   6.755  0.2691 -0.1392  0.0386
41733SOL     OW28729   2.235   5.262   7.436 -0.1619 -0.5379  0.4899
41733SOL    HW128730   2.323   5.242   7.407  0.2466  1.4764  0.2109
41733SOL    HW228731   2.242   5.268   7.532  0.4226  1.2349  0.3767
41734SOL     OW28732   4.604   2.171   4.686  0.3805 -0.1390 -0.3806
41734SOL    HW128733   4.541   2.129   4.744  1.2391  0.6784  1.2094
41734SOL    HW228734   4.689   2.146   4.721  0.9260  2.0666  0.0424
41735SOL     OW28735   2.994   2.715   1.533  0.8464  0.6402  0.2918
41735SOL    HW128736   2.957   2.737   1.619 -0.4897  0.2029 -0.1416
41735SOL    HW228737   3.003   2.800   1.489 -1.1788  0.6825 -0.1609
41736SOL     OW28738   6.220  10.172   2.773  0.5203 -0.0675  0.0939
41736SOL    HW128739   6.308  10.207   2.764  0.1996  1.1723  1.2444
41736SOL    HW228740   6.219  10.131   2.860 -0.6688  2.2122  1.2796
41737SOL     OW28741   4.016   6.396   7.932 -0.0043  0.5538 -0.4392
41737SOL    HW128742   4.091   6.450   7.954  0.4598 -0.1824 -0.1832
41737SOL    HW228743   4.010   6.400   7.836 -1.0085  2.4034 -0.3398
41738SOL     OW28744   0.411   2.167   7.208 -0.5547 -0.2259 -0.1742
41738SOL    HW128745   0.441   2.210   7.288 -0.4603  1.5053 -1.0816
41738SOL    HW228746   0.437   2.075   7.218 -0.2739  0.0186  1.6208
41739SOL     OW28747   6.409  10.433   4.518  0.9418  0.0604  0.1556
41739SOL    HW128748   6.319  10.458   4.497  0.6781  0.1465  1.2888
41739SOL    HW228749   6.435  10.496   4.586  0.9112 -1.5608  1.7522
41740SOL     OW28750   7.390   2.321  10.293 -0.2993 -0.1333 -0.0842
41740SOL    HW128751   7.418   2.268  10.218  0.2301 -0.1387  0.1121
41740SOL    HW228752   7.348   2.258  10.352  0.1500 -0.3053  0.0573
41741SOL     OW28753   3.431   7.669   2.908  0.2552 -0.2919 -0.0896
41741SOL    HW128754   3.445   7.742   2.848 -3.5073  0.3188 -0.4481
41741SOL    HW228755   3.438   7.707   2.995  1.4877 -0.2794 -0.1651
41742SOL     OW28756   2.323   8.412   0.905 -0.6002  0.1369 -0.0923
41742SOL    HW128757   2.326   8.317   0.911 -0.4333  0.1955  1.0393
41742SOL    HW228758   2.259   8.438   0.972  0.9074  0.9236  1.1078
41743SOL     OW28759   0.840   4.611  10.952 -0.1550 -0.5771  0.2696
41743SOL    HW128760   0.755   4.574  10.930 -0.8761  2.0796 -1.9796
41743SOL    HW228761   0.841   4.612  11.048 -2.0603 -1.8811  0.3688
41744SOL     OW28762  10.926   5.156   2.033  0.5545  0.3412 -0.3591
41744SOL    HW128763  10.996   5.222   2.043 -0.7435  1.7004  0.1606
41744SOL    HW228764  10.879   5.158   2.116 -1.2185  0.8145 -1.3305
41745SOL     OW28765   8.365   7.326   6.288 -0.1199 -0.5084 -0.5825
41745SOL    HW128766   8.329   7.271   6.218 -0.4548 -0.3863 -0.5067
41745SOL    HW228767   8.453   7.349   6.257  0.1282 -1.3119 -0.4884
41746SOL     OW28768   0.815   3.777   7.169 -0.1274 -0.3735 -0.3419
41746SOL    HW128769   0.721   3.771   7.186 -0.0504 -4.0171 -0.4001
41746SOL    HW228770   0.853   3.806   7.252 -1.1374 -1.4463  0.5331
41747SOL     OW28771   2.699   5.807   7.029  0.2630  0.2296 -0.1143
41747SOL    HW128772   2.605   5.802   7.047  0.0402 -0.4450 -1.3252
41747SOL    HW228773   2.707   5.881   6.968  0.0968 -1.3266 -2.1521
41748SOL     OW28774   2.383   3.848   0.485 -0.0448 -0.4255 -0.5210
41748SOL    HW128775   2.374   3.804   0.569  0.8004  0.3176 -0.0339
41748SOL    HW228776   2.477   3.851   0.469  0.0250  2.3467  0.0822
41749SOL     OW28777   2.222   7.043   3.263 -0.0890  0.0617  0.5661
41749SOL    HW128778   2.204   7.044   3.357  2.3975 -1.6387  1.1709
41749SOL    HW228779   2.268   7.125   3.246 -0.3746  0.2881  0.8935
41750SOL     OW28780  11.017   6.853   7.692 -0.3328  0.1313  0.0398
41750SOL    HW128781  11.102   6.832   7.653 -1.1398 -2.3653 -0.5776
41750SOL    HW228782  10.953   6.831   7.624 -1.5625 -0.3187  1.2812
41751SOL     OW28783   4.449  10.164   7.774  0.5941  0.4422  0.5480
41751SOL    HW128784   4.528  10.159   7.827  0.5644  0.3430  0.5818
41751SOL    HW228785   4.388  10.102   7.814  1.2767 -1.1897 -0.8064
41752SOL     OW28786   5.170   0.713   8.170 -0.0387  0.2018  0.6501
41752SOL    HW128787   5.105   0.643   8.172  1.6390 -1.4417  0.3609
41752SOL    HW228788   5.157   0.760   8.252 -1.5849 -0.0794  0.5841
41753SOL     OW28789   0.609   8.058   5.875 -0.1219 -0.3975 -0.3865
41753SOL    HW128790   0.516   8.034   5.869 -0.2028  0.1243 -1.2364
41753SOL    HW228791   0.612   8.149   5.846  0.8192 -0.7706 -1.5127
41754SOL     OW28792   9.124   1.540   0.626  0.4258  0.4401  0.1498
41754SOL    HW128793   9.140   1.604   0.557 -2.9965  1.6042  0.2300
41754SOL    HW228794   9.140   1.588   0.707  1.8417 -0.1117  0.2164
41755SOL     OW28795   0.520   1.941   5.164  0.6289  0.1895  0.6152
41755SOL    HW128796   0.538   1.930   5.258 -2.0242  0.8782  1.2800
41755SOL    HW228797   0.471   2.023   5.159  0.6402  0.1162 -1.4043
41756SOL     OW28798   2.448   6.116   7.510  0.3476 -0.2047  0.2092
41756SOL    HW128799   2.533   6.147   7.478 -0.1255 -0.9962 -2.0108
41756SOL    HW228800   2.418   6.056   7.442 -1.4610 -0.8671  1.5279
41757SOL     OW28801   8.440   1.871   6.170 -0.2565  0.2463  0.1963
41757SOL    HW128802   8.390   1.947   6.139 -0.8682 -0.8324 -1.6038
41757SOL    HW228803   8.483   1.837   6.092 -2.0665 -2.7779  0.3860
41758SOL     OW28804   0.506   6.065   0.550  0.2190 -0.1630  0.6599
41758SOL    HW128805   0.468   6.153   0.546  0.5803 -0.0408 -1.4731
41758SOL    HW228806   0.432   6.008   0.571 -0.8451  0.2795 -1.5767
41759SOL     OW28807   1.957   8.807   4.307  0.1929  0.4673 -0.7235
41759SOL    HW128808   1.868   8.813   4.342 -0.0142 -2.9591 -0.3078
41759SOL    HW228809   2.013   8.805   4.384  0.5095  1.0431 -0.9309
41760SOL     OW28810   9.951   7.222   5.806  0.0135 -0.6986 -0.6855
41760SOL    HW128811   9.960   7.128   5.786 -0.7239 -1.0659  0.5972
41760SOL    HW228812   9.905   7.224   5.890  1.8793  0.7817  0.3619
41761SOL     OW28813   7.577  10.325   6.568 -0.5055 -0.0571  0.1038
41761SOL    HW128814   7.583  10.266   6.644 -0.5101 -0.0778  0.0883
41761SOL    HW228815   7.521  10.278   6.506  1.0087 -0.8898 -0.6838
41762SOL     OW28816   0.450   2.531   5.240  0.6001 -0.0574  0.2114
41762SOL    HW128817   0.402   2.519   5.322  1.7108 -0.1967  0.8650
41762SOL    HW228818   0.384   2.558   5.177 -0.0887  1.2992  1.4494
41763SOL     OW28819   6.708   7.325   0.038  0.0748  0.1541  0.0386
41763SOL    HW128820   6.745   7.407   0.008  1.9769 -0.7515 -0.2045
41763SOL    HW228821   6.684   7.341   0.129  2.5897  0.3480  0.7279
41764SOL     OW28822   0.244  10.302   0.317 -0.5378  0.1730  0.0982
41764SOL    HW128823   0.175  10.323   0.379 -0.2478  2.4760 -0.2697
41764SOL    HW228824   0.244  10.375   0.255  0.2173 -1.2622 -1.7169
41765SOL     OW28825   6.906   5.529   1.058 -0.0369 -0.1561  0.0561
41765SOL    HW128826   6.923   5.595   1.126  1.1947 -0.0024 -0.3768
41765SOL    HW228827   6.832   5.565   1.009  2.0693  2.2028 -1.6796
41766SOL     OW28828   6.082   6.773   8.177  0.3402  0.0741  0.4224
41766SOL    HW128829   6.027   6.806   8.248 -1.0487 -0.9065 -0.1461
41766SOL    HW228830   6.021   6.760   8.104  1.3113 -1.1043 -0.2045
41767SOL     OW28831   3.598   4.717   7.108  0.1010  0.3956  0.3621
41767SOL    HW128832   3.515   4.671   7.125 -0.4309  1.6666  1.4619
41767SOL    HW228833   3.661   4.647   7.094 -1.1580 -0.6165 -0.5535
41768SOL     OW28834   9.439   1.811   6.983 -0.1217  0.2911  0.1709
41768SOL    HW128835   9.502   1.821   6.911 -0.8703 -1.1474 -0.7344
41768SOL    HW228836   9.365   1.867   6.959  0.4860  1.4525  0.9011
41769SOL     OW28837   1.397   0.249   0.585 -0.2742  0.1181 -0.2823
41769SOL    HW128838   1.308   0.279   0.601 -0.0685  0.3072  0.5936
41769SOL    HW228839   1.400   0.229   0.492 -0.9616  1.0066 -0.5053
41770SOL     OW28840   0.483  10.417   3.487  0.1692 -0.2211  0.0180
41770SOL    HW128841   0.541  10.491   3.504 -0.1273  0.3367 -1.2927
41770SOL    HW228842   0.540  10.349   3.450  0.6011 -1.0152  1.9848
41771SOL     OW28843   8.308   5.971   0.511 -0.4191 -0.4046  0.0432
41771SOL    HW128844   8.354   5.989   0.429 -0.6986 -0.9485 -0.2363
41771SOL    HW228845   8.242   6.040   0.517  0.6013  0.5547  0.5932
41772SOL     OW28846   1.989   1.232   4.658 -0.3503 -0.2979  0.0900
41772SOL    HW128847   2.009   1.159   4.599 -0.5149  0.9457 -1.5747
41772SOL    HW228848   1.968   1.305   4.600 -4.2380  0.0549  1.6386
41773SOL     OW28849   7.071   1.871   0.465 -0.7044 -0.3202  0.0712
41773SOL    HW128850   7.098   1.955   0.430 -1.0946 -1.0387 -2.1057
41773SOL    HW228851   7.076   1.882   0.560  0.2756  1.7892 -0.1635
41774SOL     OW28852   3.477   0.305   7.036 -0.2402 -0.0091  1.0618
41774SOL    HW128853   3.517   0.268   7.115 -0.6261 -1.6431  0.5279
41774SOL    HW228854   3.385   0.318   7.059 -0.6253 -1.6019  0.5630
41775SOL     OW28855   3.133  10.576   9.390 -0.1229 -0.7330  0.4176
41775SOL    HW128856   3.063  10.637   9.370 -0.4422 -1.2738 -0.1215
41775SOL    HW228857   3.168  10.550   9.305 -0.2399 -1.5898  0.6209
41776SOL     OW28858   2.389   9.223   1.211  0.4056  0.2887  0.3215
41776SOL    HW128859   2.345   9.233   1.127 -0.3965  0.7983  0.7969
41776SOL    HW228860   2.321   9.193   1.271  0.4606  1.9476  1.2714
41777SOL     OW28861   1.774   3.051  11.128 -0.2351  0.6049  0.0631
41777SOL    HW128862   1.719   3.006  11.063  0.5832 -1.9532  1.0247
41777SOL    HW228863   1.863   3.026  11.105  0.2909  1.9147  0.5748
41778SOL     OW28864   7.172   9.382   0.625  0.0629 -0.0423  0.1913
41778SOL    HW128865   7.239   9.431   0.672  1.6812 -1.7592 -0.1902
41778SOL    HW228866   7.160   9.429   0.542  3.0969 -1.2613 -1.0859
41779SOL     OW28867   1.701   9.464   6.345  0.6724 -0.2356  0.1060
41779SOL    HW128868   1.780   9.422   6.309  0.4286  0.0088 -0.7342
41779SOL    HW228869   1.734   9.532   6.404  1.0852 -0.3012 -0.0493
41780SOL     OW28870   3.237   7.352  11.041  0.1973  0.2508  0.2078
41780SOL    HW128871   3.273   7.265  11.024 -0.0409 -0.3038  2.2192
41780SOL    HW228872   3.174   7.367  10.970  1.0169 -0.7484 -0.7563
41781SOL     OW28873  10.315   6.450   9.053 -0.0977  0.1744 -0.0547
41781SOL    HW128874  10.310   6.499   9.135  0.2667 -0.8708  0.6105
41781SOL    HW228875  10.303   6.359   9.078  1.1700 -0.2873 -1.0128
41782SOL     OW28876   9.238   7.552   7.498 -0.0302 -0.2411 -0.2794
41782SOL    HW128877   9.327   7.570   7.527 -0.0100  1.4997 -1.2912
41782SOL    HW228878   9.186   7.624   7.533 -0.8245 -0.6013 -0.6881
41783SOL     OW28879   5.647  10.661   1.419  0.1535  0.1229 -0.0033
41783SOL    HW128880   5.733  10.683   1.382  0.9078 -0.5076  1.2956
41783SOL    HW228881   5.615  10.590   1.365 -0.7640  2.0184 -2.1098
41784SOL     OW28882   6.166   5.925   5.815  0.0676  0.5919 -0.6971
41784SOL    HW128883   6.117   5.846   5.791 -1.0254  0.5955  1.3838
41784SOL    HW228884   6.232   5.894   5.877  0.3276  1.1566 -0.6910
41785SOL     OW28885   0.630   4.876   7.003  0.2942  0.0776  0.3219
41785SOL    HW128886   0.621   4.847   7.094 -0.6891  1.8146  0.8296
41785SOL    HW228887   0.540   4.883   6.971  0.4583  2.0727  0.1388
41786SOL     OW28888   9.653   1.883   1.062  0.4814 -0.5409  0.4397
41786SOL    HW128889   9.747   1.869   1.056  0.5649 -1.4958  2.9182
41786SOL    HW228890   9.614   1.798   1.044  0.0305 -0.0498 -1.0341
41787SOL     OW28891   8.011   7.278   4.655  0.5379 -0.1712 -0.2861
41787SOL    HW128892   7.917   7.290   4.650  0.1787 -1.6708  1.7300
41787SOL    HW228893   8.045   7.324   4.578 -1.6494  1.9301 -0.1154
41788SOL     OW28894   7.630   4.141  10.385 -0.3244 -0.1700 -0.6079
41788SOL    HW128895   7.704   4.121  10.327 -0.3833  0.5663 -0.9361
41788SOL    HW228896   7.580   4.208  10.339 -1.1813 -0.6282 -0.3665
41789SOL     OW28897   8.136   2.419   4.354  0.7589  0.0846  0.4010
41789SOL    HW128898   8.159   2.349   4.415  1.2033 -0.5669 -0.4889
41789SOL    HW228899   8.191   2.403   4.278  1.5886  1.9985  0.5637
41790SOL     OW28900   1.780   3.563   4.066 -0.0630  0.0289  0.2411
41790SOL    HW128901   1.843   3.516   4.120  1.2305  1.8763  0.4074
41790SOL    HW228902   1.791   3.655   4.090 -1.1909  0.6400 -1.4203
41791SOL     OW28903   1.499   2.165   6.093 -0.9383 -0.1752  0.4377
41791SOL    HW128904   1.585   2.159   6.133 -0.8290  1.2347  0.4804
41791SOL    HW228905   1.439   2.184   6.165 -0.6816  2.7964  0.0155
41792SOL     OW28906   6.059   1.190   3.102 -0.2054  0.6106  0.1770
41792SOL    HW128907   6.088   1.272   3.141  0.7955  0.4990 -0.3046
41792SOL    HW228908   6.077   1.200   3.008 -2.0848  0.6755 -0.2282
41793SOL     OW28909   2.179   3.663   2.921  0.3017 -0.2959  0.4578
41793SOL    HW128910   2.241   3.609   2.872  0.1506  1.3743 -1.7112
41793SOL    HW228911   2.173   3.621   3.007  1.8128 -2.4416 -0.4081
41794SOL     OW28912   8.113   2.711   6.625 -0.0125  0.7323 -0.5206
41794SOL    HW128913   8.167   2.730   6.548 -1.4234 -0.5026 -1.8775
41794SOL    HW228914   8.026   2.740   6.601 -0.6958 -0.6269  0.1852
41795SOL     OW28915   9.873   4.993   5.644 -0.1780  0.4792 -0.0160
41795SOL    HW128916   9.884   5.078   5.687  1.7524 -0.7169  2.0591
41795SOL    HW228917   9.793   4.957   5.682  0.0399  0.5823  0.5509
41796SOL     OW28918   8.397   6.729   8.062  0.1920 -0.4963  0.3169
41796SOL    HW128919   8.311   6.762   8.088 -0.0099 -0.0090 -0.8843
41796SOL    HW228920   8.429   6.794   7.999 -0.5423 -2.8663 -2.7280
41797SOL     OW28921   4.657   7.961   0.441 -0.2428  0.6543 -0.0567
41797SOL    HW128922   4.602   7.892   0.479  1.8253 -0.0989  1.7808
41797SOL    HW228923   4.642   8.037   0.497 -1.4200  1.3169 -1.2142
41798SOL     OW28924   3.072   6.587   9.365  0.1130 -0.4414 -0.7053
41798SOL    HW128925   3.006   6.649   9.334 -0.8560  0.9001  3.3991
41798SOL    HW228926   3.133   6.641   9.414  0.5170 -2.4419  1.1012
41799SOL     OW28927   0.115   2.429   9.782  0.0648  0.2608 -0.2373
41799SOL    HW128928   0.075   2.512   9.807 -1.0813 -0.5228  0.5972
41799SOL    HW228929   0.112   2.430   9.686  0.3883  1.3178 -0.2552
41800SOL     OW28930   0.862   8.907   4.987  0.0223 -0.3451 -0.3414
41800SOL    HW128931   0.771   8.900   5.016  0.7100 -1.9445  1.6268
41800SOL    HW228932   0.904   8.961   5.053  0.9189 -1.3036 -0.1046
41801SOL     OW28933   1.246   2.570   3.839  0.3871 -0.0485 -0.1187
41801SOL    HW128934   1.227   2.647   3.785  1.0753  0.2063 -0.0147
41801SOL    HW228935   1.336   2.548   3.816  0.8449  0.3286  1.2398
41802SOL     OW28936   0.870   0.597   1.832  0.1482  0.0356 -0.6998
41802SOL    HW128937   0.888   0.582   1.925  0.6010  0.0338 -0.7820
41802SOL    HW228938   0.782   0.634   1.829  0.8253  1.7999 -0.1142
41803SOL     OW28939   7.636   7.765   2.353 -0.0819 -0.1745  0.4448
41803SOL    HW128940   7.580   7.843   2.346  1.1119  0.6345 -0.2664
41803SOL    HW228941   7.712   7.795   2.402  0.0583 -1.0995  0.8108
41804SOL     OW28942   7.741   5.348   0.319  0.5571 -0.6898 -0.1980
41804SOL    HW128943   7.764   5.353   0.226  0.4864  1.0589 -0.1490
41804SOL    HW228944   7.823   5.366   0.364  0.0958  0.9214  0.0329
41805SOL     OW28945   6.305  10.185  10.564 -0.1148 -0.2701 -0.2277
41805SOL    HW128946   6.395  10.216  10.576 -0.0805 -0.5133  0.1538
41805SOL    HW228947   6.261  10.208  10.646 -0.9649  1.7221 -1.1637
41806SOL     OW28948   7.019   9.573   8.982  0.1636 -0.7797  0.1267
41806SOL    HW128949   7.047   9.482   8.988  1.0344 -0.5173  0.0867
41806SOL    HW228950   7.097   9.622   8.955  0.7303  0.5032  3.5985
41807SOL     OW28951   2.312   5.943   1.632  0.1240  0.5300 -0.1264
41807SOL    HW128952   2.239   5.885   1.609  1.3823 -0.9720 -0.5450
41807SOL    HW228953   2.332   5.989   1.550  0.3521  0.1045 -0.3153
41808SOL     OW28954   4.417   4.254   8.209  0.1766 -0.4733  0.1393
41808SOL    HW128955   4.474   4.324   8.177 -1.9090  0.7001 -1.2808
41808SOL    HW228956   4.368   4.227   8.132 -2.9122  0.3155  1.6884
41809SOL     OW28957   5.350   5.015   5.609 -0.7226 -0.1128  0.1378
41809SOL    HW128958   5.437   5.053   5.606 -0.2799 -0.7652  2.3651
41809SOL    HW228959   5.291   5.085   5.581  0.2972  1.3595  1.4942
41810SOL     OW28960   1.972   5.213   9.730 -0.1247 -0.3711 -0.9368
41810SOL    HW128961   1.949   5.304   9.751  2.4309  0.3940 -1.0834
41810SOL    HW228962   2.016   5.181   9.809  1.6492 -0.4326 -1.8988
41811SOL     OW28963   0.815   9.253   4.502 -0.7683  0.2627  0.0065
41811SOL    HW128964   0.882   9.270   4.436  1.0215 -3.4545  0.6008
41811SOL    HW228965   0.864   9.223   4.578 -3.0349 -1.5872  0.8378
41812SOL     OW28966   5.055   7.063   5.210  0.5664  0.0338  0.9384
41812SOL    HW128967   5.053   6.993   5.275  1.2099 -1.3489 -0.4525
41812SOL    HW228968   5.107   7.027   5.138 -1.6615  0.7383 -1.1633
41813SOL     OW28969   3.164   6.883   5.177 -0.2503 -0.0979 -0.2882
41813SOL    HW128970   3.248   6.919   5.147  0.2770 -0.1675  1.0553
41813SOL    HW228971   3.124   6.848   5.098  1.6027 -1.3180 -0.7570
41814SOL     OW28972   6.765   8.439   9.829  0.7340 -0.9713 -0.5537
41814SOL    HW128973   6.725   8.524   9.851  0.4601 -1.3252  0.3950
41814SOL    HW228974   6.837   8.461   9.770  1.8700  0.1418  1.1299
41815SOL     OW28975   5.662   7.000   6.356 -0.3242 -0.2491 -0.5233
41815SOL    HW128976   5.732   7.034   6.301  0.2827  0.6658  0.7646
41815SOL    HW228977   5.591   6.979   6.296  1.3060 -1.9734 -1.9809
41816SOL     OW28978   2.737   3.014   1.382 -0.1858 -0.2378 -0.0625
41816SOL    HW128979   2.666   2.957   1.351  0.7568 -1.7609  0.4655
41816SOL    HW228980   2.766   2.974   1.463  0.2035  1.3086  0.5907
41817SOL     OW28981   4.582   1.029   9.917  0.5652 -0.1805  0.2426
41817SOL    HW128982   4.595   1.111   9.869  0.7453 -0.3210  0.0489
41817SOL    HW228983   4.659   1.023   9.974  1.0271 -0.6825 -0.4233
41818SOL     OW28984   6.681   2.872  10.249  0.5685 -0.3251 -0.0052
41818SOL    HW128985   6.777   2.871  10.255  0.4766 -1.1029  2.2898
41818SOL    HW228986   6.658   2.783  10.223  0.4074 -1.1338  2.6289
41819SOL     OW28987   6.061   8.443   0.061 -0.3970  0.0899  0.8191
41819SOL    HW128988   6.091   8.534   0.063  1.4207 -0.4773  1.2880
41819SOL    HW228989   5.998   8.440  -0.012  2.4311  0.9030 -1.8634
41820SOL     OW28990  10.713  10.757   0.422 -0.3371  0.3043  0.1015
41820SOL    HW128991  10.761  10.825   0.469 -1.4183  0.6927  0.6986
41820SOL    HW228992  10.664  10.711   0.490  0.6683 -1.3632 -0.2329
41821SOL     OW28993   9.197   8.026   2.129 -0.2178 -0.1583 -0.6723
41821SOL    HW128994   9.229   8.092   2.067 -0.5689 -0.2578 -0.9641
41821SOL    HW228995   9.102   8.030   2.121 -0.3215  0.5525  0.6246
41822SOL     OW28996   3.480   7.208   1.058  0.4834 -0.0593  0.1258
41822SOL    HW128997   3.412   7.234   1.120  0.5556 -1.1864  0.7101
41822SOL    HW228998   3.559   7.200   1.111  0.7260 -0.2513 -0.2607
41823SOL     OW28999   8.049   7.887   7.042 -0.0788  0.1691  0.5954
41823SOL    HW129000   8.128   7.880   7.097  0.5015  1.2991 -0.0508
41823SOL    HW229001   8.082   7.881   6.952 -0.6259  1.4019  0.2960
41824SOL     OW29002   0.093   7.069   3.661  0.2955  0.1601 -0.2485
41824SOL    HW129003   0.070   7.126   3.588 -0.3744 -1.3563 -1.2571
41824SOL    HW229004   0.110   7.129   3.734 -2.4743  1.5798 -0.6724
41825SOL     OW29005   9.508   2.357   3.108 -0.0700  0.5586  0.0295
41825SOL    HW129006   9.441   2.422   3.129 -0.2870  0.5534 -0.6293
41825SOL    HW229007   9.463   2.273   3.119 -0.8016  0.5689 -2.3349
41826SOL     OW29008   0.192   7.053   4.881 -0.5029 -0.8646 -0.0141
41826SOL    HW129009   0.130   7.009   4.821 -1.4722  0.3771  0.0353
41826SOL    HW229010   0.136   7.095   4.946  0.2725  1.4672 -0.7478
41827SOL     OW29011   7.236   8.117   0.211  0.1060 -0.1731 -0.2711
41827SOL    HW129012   7.253   8.121   0.117  0.5469  0.1354 -0.1838
41827SOL    HW229013   7.166   8.180   0.226  0.2357 -0.0087 -0.3526
41828SOL     OW29014  10.517   0.353   1.998  0.3644 -0.0879 -0.3132
41828SOL    HW129015  10.469   0.369   1.917 -2.8396  0.0556  1.4738
41828SOL    HW229016  10.522   0.439   2.041  1.3657 -0.2964  0.0183
41829SOL     OW29017   2.418   2.079   3.743  0.4654  0.7012 -0.4946
41829SOL    HW129018   2.512   2.064   3.748  0.3967  0.6214  0.8533
41829SOL    HW229019   2.382   2.036   3.820 -0.8706 -0.5770 -1.7644
41830SOL     OW29020   9.783   2.785   7.606  0.1490  0.5835  0.6861
41830SOL    HW129021   9.703   2.831   7.580 -0.1928  0.8286  2.0738
41830SOL    HW229022   9.755   2.729   7.679  0.7759 -1.0507 -0.2915
41831SOL     OW29023   8.763   6.532   1.884  0.1865 -0.3231 -0.3735
41831SOL    HW129024   8.756   6.447   1.842 -2.2520 -1.4627  2.0180
41831SOL    HW229025   8.855   6.540   1.909  0.2726 -2.8153  0.3224
41832SOL     OW29026   5.046   9.231   6.762  0.0047 -0.6946 -0.3905
41832SOL    HW129027   5.022   9.278   6.682 -0.6038 -0.5481 -0.1263
41832SOL    HW229028   5.097   9.295   6.813  1.3086 -1.1248 -1.1135
41833SOL     OW29029   5.890   4.106   9.914  0.1967 -0.2641 -0.1094
41833SOL    HW129030   5.967   4.103   9.858 -0.2365 -0.6589 -0.7040
41833SOL    HW229031   5.856   4.195   9.903  0.4049 -0.1806 -0.0705
41834SOL     OW29032   3.499   2.391   3.968  0.2647  0.6040 -0.1284
41834SOL    HW129033   3.454   2.347   4.041 -1.0803  2.3190  0.1327
41834SOL    HW229034   3.559   2.452   4.010  0.9592  0.1715 -0.4816
41835SOL     OW29035   5.039   1.104   8.052 -0.0061 -0.5059 -0.1836
41835SOL    HW129036   5.090   1.137   7.978 -0.4650  0.9768  0.1232
41835SOL    HW229037   5.065   1.160   8.125 -0.3452 -1.2616  0.5212
41836SOL     OW29038   2.084   3.783   0.680  0.5532  0.2586  0.2335
41836SOL    HW129039   2.081   3.707   0.622  0.4858 -0.8907  1.6856
41836SOL    HW229040   2.172   3.783   0.716  1.0526  1.7939 -0.8791
41837SOL     OW29041   4.751   9.153   5.733 -0.3044  0.4511 -0.1778
41837SOL    HW129042   4.835   9.174   5.775 -0.9379 -0.9901  2.0083
41837SOL    HW229043   4.761   9.183   5.643  1.2758  3.5093  0.8615
41838SOL     OW29044   7.039   1.941   4.521 -0.4642 -0.1769 -0.0036
41838SOL    HW129045   6.963   1.916   4.469 -0.9934  2.3811 -0.5904
41838SOL    HW229046   7.103   1.971   4.456 -0.2617  0.8822  0.6644
41839SOL     OW29047   0.948   5.450   2.328  0.1836  0.0761 -0.0946
41839SOL    HW129048   0.882   5.382   2.339  0.7349 -0.7774 -1.8300
41839SOL    HW229049   1.023   5.421   2.380 -0.5390  0.7577  1.3980
41840SOL     OW29050   8.462   5.344   6.389  0.1460 -0.3166 -0.1611
41840SOL    HW129051   8.399   5.280   6.422  0.4405 -0.6995 -0.3421
41840SOL    HW229052   8.439   5.356   6.297 -0.7692  0.8620  0.1922
41841SOL     OW29053   0.138   3.243   7.972  0.1339 -0.1226  0.4396
41841SOL    HW129054   0.200   3.307   7.938 -2.0668  1.0595 -1.6104
41841SOL    HW229055   0.064   3.295   8.003 -1.3094 -1.6052 -0.3727
41842SOL     OW29056   0.033   3.921   1.105 -0.0991  0.2318  0.2427
41842SOL    HW129057   0.095   3.964   1.047 -0.3318  0.5378  0.2177
41842SOL    HW229058   0.066   3.939   1.193 -0.5332  1.0058  0.2607
41843SOL     OW29059   0.607   7.826   7.422 -0.6453 -0.0090  0.3957
41843SOL    HW129060   0.622   7.778   7.340  0.8064 -1.5105  1.4580
41843SOL    HW229061   0.519   7.802   7.448 -1.1966  0.6415 -0.8087
41844SOL     OW29062   7.893   6.082   0.589  0.0717 -0.4657  0.7839
41844SOL    HW129063   7.949   6.134   0.646  2.5566 -1.5796 -0.4784
41844SOL    HW229064   7.904   5.992   0.620 -0.8429 -0.7405  0.3478
41845SOL     OW29065   3.940  10.343   3.385  0.3536 -0.2243 -0.1322
41845SOL    HW129066   4.034  10.328   3.387  0.4098  0.1981  1.0021
41845SOL    HW229067   3.924  10.410   3.452 -0.8440 -0.8054  0.1992
41846SOL     OW29068   5.805  11.090   3.576 -0.1084 -0.7345 -0.1099
41846SOL    HW129069   5.764  11.096   3.662  1.9588 -0.8285  0.9471
41846SOL    HW229070   5.870  11.160   3.575 -0.4042 -0.4375 -1.8067
41847SOL     OW29071   3.277   6.131   6.423  0.3295 -0.1640  0.0429
41847SOL    HW129072   3.217   6.205   6.417  0.3410  0.1636  2.6435
41847SOL    HW229073   3.357   6.168   6.462  1.1762 -1.1290 -0.7160
41848SOL     OW29074   6.000  11.050   9.849  0.0939  0.0252 -0.0771
41848SOL    HW129075   6.090  11.019   9.856  0.6350  1.7350  1.0543
41848SOL    HW229076   5.997  11.096   9.765 -0.2066 -1.3794 -0.8755
41849SOL     OW29077   7.452   4.065   5.444 -0.4661  0.5012  0.0648
41849SOL    HW129078   7.403   4.082   5.364  1.1339 -2.3154 -1.7043
41849SOL    HW229079   7.401   3.999   5.490 -0.1862  0.2974  0.0879
41850SOL     OW29080   2.763  10.093   9.970 -0.1948 -0.3576 -0.1002
41850SOL    HW129081   2.773  10.023   9.905  0.7840 -0.6391  0.3326
41850SOL    HW229082   2.836  10.152   9.952 -0.2119 -0.1754  0.4159
41851SOL     OW29083   6.038   6.449   3.123  0.1340 -0.3224  0.9088
41851SOL    HW129084   6.117   6.398   3.138 -0.3617 -1.9324 -1.3580
41851SOL    HW229085   5.969   6.384   3.111 -1.1959  0.9904  1.1047
41852SOL     OW29086   7.458   7.507   4.235  0.2559  0.1074  0.4920
41852SOL    HW129087   7.487   7.416   4.227  1.0653  0.2623  1.4390
41852SOL    HW229088   7.536   7.559   4.214 -0.8341  0.6659 -2.6000
41853SOL     OW29089   2.516   1.875   0.546 -0.4109 -0.3070  0.3605
41853SOL    HW129090   2.587   1.818   0.516 -0.6079 -0.8120  0.8338
41853SOL    HW229091   2.528   1.880   0.641  0.6794  1.8947  0.1761
41854SOL     OW29092   5.061   7.196   1.543 -0.0334  0.8604 -0.0610
41854SOL    HW129093   5.137   7.137   1.540  0.4460  1.5135 -1.6384
41854SOL    HW229094   5.097   7.280   1.573 -0.6542  0.4937  1.8535
41855SOL     OW29095   4.094   6.366   9.193 -0.1343  0.1660 -0.8354
41855SOL    HW129096   4.057   6.334   9.275  1.5059  1.6615  0.5775
41855SOL    HW229097   4.030   6.430   9.161 -1.8085 -1.9204 -1.9312
41856SOL     OW29098   1.201   6.422   2.167  0.1141  0.3890 -0.2454
41856SOL    HW129099   1.179   6.460   2.252 -2.5377 -0.3850 -0.5010
41856SOL    HW229100   1.205   6.328   2.184 -0.7412  0.2059 -1.0091
41857SOL     OW29101  11.105   2.160   9.766  0.2220 -0.4624 -0.3310
41857SOL    HW129102  11.062   2.148   9.681  1.5273 -0.6451 -0.9871
41857SOL    HW229103  11.124   2.254   9.770 -0.3675 -0.3487  0.0459
41858SOL     OW29104   3.958   9.109   6.414 -0.0020  0.7793 -0.4225
41858SOL    HW129105   3.988   9.173   6.479  2.0582  0.1675 -0.7108
41858SOL    HW229106   3.879   9.071   6.453  1.3774  0.1443  1.9412
41859SOL     OW29107   7.502   8.030   2.357 -0.2191  0.8443  0.0153
41859SOL    HW129108   7.568   8.074   2.303 -0.0333  0.4855 -0.0493
41859SOL    HW229109   7.424   8.085   2.349 -1.0382 -0.5395 -2.7326
41860SOL     OW29110   7.741   7.660   0.845 -0.3639 -0.1184 -0.3830
41860SOL    HW129111   7.671   7.713   0.806 -0.7663  1.0156  1.7627
41860SOL    HW229112   7.821   7.691   0.802 -0.9474 -0.1289 -1.5188
41861SOL     OW29113   8.523   1.162   5.672 -0.3147  0.3321  0.1250
41861SOL    HW129114   8.558   1.087   5.623 -0.4008  0.5440 -0.2725
41861SOL    HW229115   8.492   1.222   5.604 -3.0486 -0.5759  0.4437
41862SOL     OW29116   4.784   8.102   9.925 -0.5421  0.3529  0.1399
41862SOL    HW129117   4.822   8.067  10.005 -0.1303 -0.2098 -0.2880
41862SOL    HW229118   4.732   8.029   9.890 -2.1202  1.1344  0.7661
41863SOL     OW29119   3.078   7.835   5.366  0.1875  0.2113 -0.3278
41863SOL    HW129120   3.154   7.884   5.336  0.7787 -0.3067  0.2641
41863SOL    HW229121   3.063   7.866   5.455 -0.8671  0.9572 -0.7490
41864SOL     OW29122  10.436   7.828   1.585  0.0264  0.4327  0.1662
41864SOL    HW129123  10.454   7.788   1.670  0.4624 -1.6006 -0.8232
41864SOL    HW229124  10.344   7.807   1.567 -0.0510  0.8123  0.1082
41865SOL     OW29125  10.604   4.088   9.049  0.1033  0.2278 -0.2559
41865SOL    HW129126  10.696   4.101   9.070  0.1034  2.0623 -1.2239
41865SOL    HW229127  10.588   3.996   9.070  1.7395  0.2581  1.3865
41866SOL     OW29128   0.266   0.958   2.349  0.2003 -0.0812  0.2398
41866SOL    HW129129   0.172   0.963   2.332  0.3637  0.5371 -0.5981
41866SOL    HW229130   0.303   1.030   2.297  1.3425 -1.5690 -1.0982
41867SOL     OW29131   4.704   3.442   0.333  0.8211 -0.5740  0.4922
41867SOL    HW129132   4.630   3.501   0.331 -1.0339 -2.7147  1.2384
41867SOL    HW229133   4.767   3.484   0.391 -0.4235  0.6282  1.0164
41868SOL     OW29134  10.655   8.023   2.840  0.5468  0.0225  0.4371
41868SOL    HW129135  10.666   7.999   2.932 -0.6016  0.3732  0.6806
41868SOL    HW229136  10.584   7.967   2.809  0.1299  0.7274  0.0938
41869SOL     OW29137   1.047  10.577   5.889 -0.4528 -0.2092 -0.4120
41869SOL    HW129138   1.122  10.632   5.865 -1.1602  0.5766 -0.8595
41869SOL    HW229139   0.984  10.590   5.818 -1.6101  0.2797  0.6790
41870SOL     OW29140   1.852   4.339   1.694 -0.2490  0.1491 -0.6901
41870SOL    HW129141   1.812   4.263   1.651 -0.5535  0.7265 -1.4615
41870SOL    HW229142   1.932   4.305   1.735 -0.9577 -0.7991 -0.0669
41871SOL     OW29143   9.865   3.769   2.676  0.1197  0.4013 -0.0647
41871SOL    HW129144   9.899   3.827   2.743 -1.8770  3.2013 -1.2937
41871SOL    HW229145   9.870   3.819   2.595 -3.1836 -0.4226 -0.9410
41872SOL     OW29146   0.374   0.130   3.640 -0.4986  0.1896  0.0051
41872SOL    HW129147   0.298   0.082   3.674 -0.4768 -0.1052 -0.3523
41872SOL    HW229148   0.429   0.145   3.716 -0.7357  0.0650  0.2019
41873SOL     OW29149   9.261   5.380   0.970  0.2287  0.5978  0.4810
41873SOL    HW129150   9.211   5.392   1.051  0.3266  0.2292  0.5979
41873SOL    HW229151   9.203   5.330   0.913  0.9946 -1.1227  1.1510
41874SOL     OW29152   9.724   3.652   4.363 -0.3674 -0.4307 -0.2707
41874SOL    HW129153   9.765   3.581   4.413 -1.3892 -0.3760  0.6769
41874SOL    HW229154   9.640   3.665   4.405 -1.2199 -0.2848 -1.9336
41875SOL     OW29155   3.714   9.004   2.906 -0.2911 -0.4098  0.3447
41875SOL    HW129156   3.693   8.924   2.954 -0.2599 -1.4277 -1.2573
41875SOL    HW229157   3.777   9.049   2.962 -0.7109 -1.2202  1.5314
41876SOL     OW29158   4.776   8.238   5.073  0.0488 -0.4144  0.1634
41876SOL    HW129159   4.693   8.211   5.113 -0.0343 -0.0182  0.2689
41876SOL    HW229160   4.775   8.198   4.987 -0.3587 -0.2329  0.0786
41877SOL     OW29161   0.023  11.116   4.490 -0.3679 -0.6787  0.0446
41877SOL    HW129162   0.115  11.111   4.514 -0.5892 -1.7320  0.6902
41877SOL    HW229163   0.024  11.145   4.398  0.5970 -0.7070  0.0398
41878SOL     OW29164  10.890   9.168   6.312  0.4398 -0.3277 -0.6051
41878SOL    HW129165  10.798   9.162   6.339  0.1591  0.7888 -1.2422
41878SOL    HW229166  10.937   9.116   6.377 -0.3333  1.3617  1.4524
41879SOL     OW29167   7.182   5.417   4.401 -0.2189  0.3119 -0.8814
41879SOL    HW129168   7.186   5.452   4.490 -0.5344 -1.7062 -0.0353
41879SOL    HW229169   7.104   5.362   4.400  0.8222 -1.2146 -1.8030
41880SOL     OW29170   7.718   9.421   2.740 -0.7127  0.1755 -0.0207
41880SOL    HW129171   7.782   9.360   2.775  0.1894  0.8197 -0.5206
41880SOL    HW229172   7.769   9.494   2.706 -1.7427  1.0419  0.2121
41881SOL     OW29173   8.106   7.712   9.884 -0.0459 -0.8561 -0.2471
41881SOL    HW129174   8.190   7.672   9.906  0.8519  0.2992 -1.4323
41881SOL    HW229175   8.074   7.747   9.967  1.3461 -0.0374 -0.0308
41882SOL     OW29176   4.945   5.112   0.731 -0.0894  0.1096  0.9612
41882SOL    HW129177   5.005   5.170   0.684  0.0736 -0.4896  0.4165
41882SOL    HW229178   4.858   5.145   0.708  0.0076  0.4028  1.0040
41883SOL     OW29179   5.121   1.888   7.272  0.1885  0.5266 -0.2649
41883SOL    HW129180   5.179   1.863   7.200  1.7187  1.7588  0.4751
41883SOL    HW229181   5.069   1.810   7.290  1.6815 -0.6717 -0.9256
41884SOL     OW29182   5.739   9.984   3.651 -0.4238 -0.3470 -0.3029
41884SOL    HW129183   5.746  10.014   3.561 -0.6405  0.7695  0.0352
41884SOL    HW229184   5.771   9.894   3.649  2.3674  0.5582 -0.9998
41885SOL     OW29185   3.025   1.098   0.006  0.0562 -0.5024  0.0184
41885SOL    HW129186   2.966   1.023   0.011  0.0300 -0.4851 -0.0308
41885SOL    HW229187   2.973   1.166  -0.036  0.5518 -0.9015 -1.2678
41886SOL     OW29188   2.492   5.110   1.525 -0.2468 -0.4211  0.0750
41886SOL    HW129189   2.461   5.153   1.604  1.2513 -1.4392  1.2820
41886SOL    HW229190   2.587   5.100   1.539  0.1408 -0.2450 -2.0388
41887SOL     OW29191   0.336  10.735   6.488  0.2001  0.0502 -0.0805
41887SOL    HW129192   0.406  10.680   6.454 -2.6649 -4.4597  0.4756
41887SOL    HW229193   0.259  10.678   6.489 -2.9257  3.8275  1.7548
41888SOL     OW29194   2.835   3.556   8.689  0.1567  0.5565 -0.3268
41888SOL    HW129195   2.872   3.471   8.663  1.9356  1.7691 -2.0214
41888SOL    HW229196   2.746   3.555   8.656 -0.9542 -1.7740  2.3114
41889SOL     OW29197   4.843   7.697   4.642 -0.3006  0.0301 -0.2783
41889SOL    HW129198   4.908   7.699   4.713 -0.4479  0.9905 -0.1551
41889SOL    HW229199   4.792   7.618   4.658  1.1287 -1.0268 -0.6502
41890SOL     OW29200   9.230   4.916   8.718  0.2764 -0.3013 -0.2113
41890SOL    HW129201   9.181   4.987   8.759  2.1749  0.3735  1.0007
41890SOL    HW229202   9.235   4.940   8.625  1.4107  1.5349  0.2775
41891SOL     OW29203   5.895  10.579   6.087  0.1591 -0.4151 -0.1319
41891SOL    HW129204   5.951  10.653   6.063  3.7610 -2.6090  0.8262
41891SOL    HW229205   5.892  10.582   6.183 -2.5805  0.3444 -0.1579
41892SOL     OW29206   1.569  10.885   6.470  0.3872 -0.4000 -0.3988
41892SOL    HW129207   1.650  10.917   6.511 -1.3987  2.4331  1.3009
41892SOL    HW229208   1.526  10.835   6.540 -0.6792  0.7675 -0.1702
41893SOL     OW29209   8.996   2.616   1.372 -0.1873  0.8888  0.5072
41893SOL    HW129210   8.970   2.708   1.381 -0.8770  0.6304  1.3140
41893SOL    HW229211   8.937   2.581   1.305 -0.8686  0.7003  1.1928
41894SOL     OW29212   2.618   3.746   8.862 -0.4886 -0.4860  0.3866
41894SOL    HW129213   2.658   3.830   8.837  1.4072 -1.3938  0.1767
41894SOL    HW229214   2.580   3.761   8.948  1.1190  0.2289  1.0028
41895SOL     OW29215   3.066   6.162   3.473  0.2139 -0.0831  0.5381
41895SOL    HW129216   3.004   6.173   3.400 -0.5867 -0.0113  1.2160
41895SOL    HW229217   3.127   6.096   3.442 -0.1450 -0.0925 -0.1847
41896SOL     OW29218   7.240   6.414   6.757 -0.3209 -0.1183  0.9598
41896SOL    HW129219   7.314   6.375   6.804  1.0716  1.5196  0.2117
41896SOL    HW229220   7.187   6.339   6.729  2.4700 -1.5681 -0.8072
41897SOL     OW29221   7.306   0.908   8.964 -0.0577 -0.6032  1.0282
41897SOL    HW129222   7.291   0.863   8.881 -0.5576 -1.8001  1.7315
41897SOL    HW229223   7.237   0.974   8.968 -0.1130 -0.6288  0.5519
41898SOL     OW29224   9.632   3.266   8.185 -0.3994 -0.3906 -0.0645
41898SOL    HW129225   9.551   3.315   8.201 -0.4091 -0.2992 -0.3872
41898SOL    HW229226   9.688   3.287   8.259  0.0753  1.1149 -0.8166
41899SOL     OW29227   8.274   7.137   6.113 -0.1008 -0.0184  1.1381
41899SOL    HW129228   8.336   7.141   6.041  1.1159 -0.1373  2.1487
41899SOL    HW229229   8.198   7.090   6.077  0.5834 -0.2978  0.0241
41900SOL     OW29230  10.971   3.971   1.723  0.0255 -0.4970 -0.0345
41900SOL    HW129231  11.018   3.928   1.794  0.9713 -0.7073 -0.7732
41900SOL    HW229232  10.980   4.065   1.741 -1.1306 -0.5459  0.9888
41901SOL     OW29233   5.355   1.621  11.059 -0.0376  0.1473 -0.2924
41901SOL    HW129234   5.370   1.553  11.125  0.7714 -1.2044 -1.8091
41901SOL    HW229235   5.433   1.618  11.004  0.1004  2.4562 -0.3100
41902SOL     OW29236   9.598   1.606   5.568 -0.3759  0.0379  0.4286
41902SOL    HW129237   9.583   1.552   5.491  0.8914  0.6911 -0.3003
41902SOL    HW229238   9.692   1.623   5.568 -0.4990  0.8195  1.5964
41903SOL     OW29239   3.860   1.896   1.976  0.2901 -0.2444  0.3189
41903SOL    HW129240   3.822   1.813   1.946 -0.5024 -0.2455  1.2800
41903SOL    HW229241   3.871   1.947   1.896  1.6669 -1.6039 -0.4043
41904SOL     OW29242  10.938  10.157   4.176 -0.2367 -0.3628 -0.1982
41904SOL    HW129243  10.966  10.171   4.086  1.7292  0.4187  0.4719
41904SOL    HW229244  10.879  10.081   4.172 -0.4637 -0.1270 -2.1540
41905SOL     OW29245  10.835   5.089  10.892 -0.1009  0.3027 -0.0067
41905SOL    HW129246  10.891   5.022  10.930 -1.2889 -1.4815 -1.2515
41905SOL    HW229247  10.879   5.115  10.811 -1.0918 -1.2892 -1.1214
41906SOL     OW29248   0.223   0.456   6.679 -0.5293 -0.5542 -0.5386
41906SOL    HW129249   0.140   0.477   6.722  0.4549  2.8433 -0.0385
41906SOL    HW229250   0.207   0.474   6.586  0.1660  2.4924 -0.1730
41907SOL     OW29251   8.682   8.925   1.161 -0.0891  0.0728  0.2031
41907SOL    HW129252   8.649   8.858   1.221  0.3810  0.6457  1.1212
41907SOL    HW229253   8.605   8.977   1.140 -0.5305 -0.9380 -0.7897
41908SOL     OW29254   1.145   2.921   3.870  0.3113  0.7195 -0.1717
41908SOL    HW129255   1.091   2.842   3.867  3.0033 -1.2594 -1.7257
41908SOL    HW229256   1.124   2.968   3.789  0.6314  0.1534 -0.5892
41909SOL     OW29257   4.129   2.183   4.910  0.0841 -0.1410 -0.0722
41909SOL    HW129258   4.042   2.188   4.871 -0.4010 -1.3150  0.8056
41909SOL    HW229259   4.175   2.119   4.855 -0.1670 -0.7968  0.4757
41910SOL     OW29260   4.243   6.805   2.683 -0.0071 -0.0915 -0.0701
41910SOL    HW129261   4.182   6.858   2.733 -2.0540 -2.0115 -0.3659
41910SOL    HW229262   4.204   6.800   2.596  2.1221  1.0025 -1.1561
41911SOL     OW29263  10.413   6.572  10.402  0.5164 -0.3269 -0.2658
41911SOL    HW129264  10.407   6.506  10.471 -1.9157  0.8957  0.8183
41911SOL    HW229265  10.379   6.652  10.442  1.9560  1.2248 -1.9810
41912SOL     OW29266  10.272   9.160   8.027 -0.1217  0.0667 -0.0842
41912SOL    HW129267  10.223   9.111   8.093 -0.8216 -0.9161 -1.2958
41912SOL    HW229268  10.254   9.115   7.945  1.1256  0.9638 -0.8933
41913SOL     OW29269   2.043   7.508   4.773  0.0990 -0.6992  0.6516
41913SOL    HW129270   1.978   7.447   4.808  0.1303 -0.7972  0.5383
41913SOL    HW229271   2.115   7.452   4.743 -0.8838 -0.8164 -1.6930
41914SOL     OW29272   4.242   8.369   6.947  0.0253  0.1353 -0.3165
41914SOL    HW129273   4.309   8.304   6.968 -1.4105 -1.0216  0.8870
41914SOL    HW229274   4.234   8.366   6.852 -1.9469 -3.6081 -0.2185
41915SOL     OW29275   8.938   1.279   3.015  0.5173  0.5947  0.0324
41915SOL    HW129276   8.882   1.345   2.974  0.1594  1.0742  1.2464
41915SOL    HW229277   8.935   1.300   3.109 -0.0632 -1.4765  0.5355
41916SOL     OW29278   9.478  10.527   5.074  0.3774 -0.2140 -0.1819
41916SOL    HW129279   9.390  10.508   5.103  0.5300 -0.4387  0.1359
41916SOL    HW229280   9.527  10.546   5.154  1.1403 -2.2203 -0.1132
41917SOL     OW29281   7.484   2.885   0.558  0.1424  0.3022  0.4626
41917SOL    HW129282   7.548   2.880   0.487  1.5163 -0.3591  1.6938
41917SOL    HW229283   7.401   2.903   0.514  0.5388 -2.1772 -1.5116
41918SOL     OW29284   3.322   8.694  11.105 -0.3460  0.3119 -0.2783
41918SOL    HW129285   3.253   8.670  11.168 -0.3566  0.7715 -0.1168
41918SOL    HW229286   3.401   8.703  11.157 -0.6657  2.2787 -0.0580
41919SOL     OW29287   4.765   3.740   1.209 -0.1579 -0.0752  0.1912
41919SOL    HW129288   4.859   3.746   1.226 -0.0525 -0.0282 -0.3901
41919SOL    HW229289   4.741   3.652   1.239  0.3525 -0.6182 -0.9425
41920SOL     OW29290   4.683   2.944   8.999  0.3141 -0.3901  0.2195
41920SOL    HW129291   4.603   2.903   8.967 -0.5035  0.7521  0.7340
41920SOL    HW229292   4.692   2.914   9.090 -0.6020  0.9443  0.7896
41921SOL     OW29293   3.693   1.049   4.596 -0.1940  0.2408 -0.3950
41921SOL    HW129294   3.665   1.132   4.634  2.0069 -0.0662  2.1834
41921SOL    HW229295   3.764   1.073   4.536  0.1333  0.2591  0.0001
41922SOL     OW29296   7.529   8.817   2.994 -0.0854 -0.1154  0.3023
41922SOL    HW129297   7.468   8.814   2.920  0.1749  0.0626  0.0784
41922SOL    HW229298   7.478   8.854   3.066 -0.0899  0.5442 -0.0354
41923SOL     OW29299   9.302   0.678   6.515 -0.0775  0.0564 -0.2247
41923SOL    HW129300   9.210   0.655   6.531 -0.0071  0.1208  0.2565
41923SOL    HW229301   9.346   0.665   6.598 -0.1113  2.3475  0.2339
41924SOL     OW29302   1.244   1.217   5.495  0.2247 -0.0791  0.0665
41924SOL    HW129303   1.293   1.206   5.414  0.4722 -0.3887  0.2573
41924SOL    HW229304   1.179   1.147   5.494 -0.4676  0.5457 -0.3599
41925SOL     OW29305   3.069   2.154   4.282 -0.5324  0.6269 -0.5449
41925SOL    HW129306   3.016   2.075   4.269 -0.5658  0.6769 -0.7216
41925SOL    HW229307   3.103   2.174   4.194  0.2981  0.2268 -0.3248
41926SOL     OW29308   8.868   1.342   6.914  0.0930  0.6480 -0.1897
41926SOL    HW129309   8.782   1.302   6.902  0.8797 -0.8243 -1.2194
41926SOL    HW229310   8.861   1.389   6.997 -1.3479 -0.4159  0.3321
41927SOL     OW29311   3.311   7.304   4.606 -0.2766 -0.2451 -0.2756
41927SOL    HW129312   3.241   7.260   4.558  0.0596 -0.9300 -0.1537
41927SOL    HW229313   3.377   7.323   4.539 -0.2211 -0.3514 -0.2522
41928SOL     OW29314   2.205   4.024   7.713 -0.1386 -0.4221 -0.2608
41928SOL    HW129315   2.127   3.969   7.701 -0.8029  0.5397 -0.4152
41928SOL    HW229316   2.267   3.966   7.756 -0.5998 -1.4935 -0.9749
41929SOL     OW29317   0.949   3.157   2.763 -0.1042  0.4520 -0.1152
41929SOL    HW129318   0.977   3.208   2.840 -0.8439  0.9405 -0.1504
41929SOL    HW229319   0.888   3.216   2.718  0.3845  0.1986 -1.1245
41930SOL     OW29320   4.189  10.143   9.696  0.1869 -0.8405  0.4177
41930SOL    HW129321   4.111  10.087   9.690  0.7379 -1.6115  0.2783
41930SOL    HW229322   4.215  10.159   9.606 -0.1383 -0.0926  0.4472
41931SOL     OW29323   2.410   8.776   6.117  0.5190  0.1033 -0.1553
41931SOL    HW129324   2.359   8.857   6.108  1.1597  0.8119  1.9168
41931SOL    HW229325   2.346   8.711   6.147  0.0825 -0.0910 -1.4377
41932SOL     OW29326  10.815   0.172   3.318  0.3888 -0.1381 -0.3026
41932SOL    HW129327  10.801   0.123   3.399  0.5249 -1.2462 -0.9357
41932SOL    HW229328  10.746   0.239   3.319 -1.3522 -1.8522 -0.5701
41933SOL     OW29329   8.926   1.366   0.713 -0.3810  0.0611  0.1569
41933SOL    HW129330   8.959   1.433   0.653 -2.1404  0.0326 -0.9159
41933SOL    HW229331   8.960   1.284   0.679  1.7415  0.3300  1.4459
41934SOL     OW29332   7.246   3.931   6.475  0.1521  0.4130 -0.4542
41934SOL    HW129333   7.332   3.890   6.488 -0.0441  0.1185 -0.0871
41934SOL    HW229334   7.205   3.878   6.407 -0.7604 -1.0423  1.1624
41935SOL     OW29335   1.906   6.557   5.866 -0.0537 -0.5983 -0.3947
41935SOL    HW129336   1.948   6.490   5.812 -0.7963 -0.4595 -1.1641
41935SOL    HW229337   1.920   6.639   5.817 -1.2702 -0.5598 -0.7079
41936SOL     OW29338   0.343   4.365   0.239  0.4243 -0.1226  0.4162
41936SOL    HW129339   0.321   4.457   0.255 -0.1024 -0.1431 -0.1454
41936SOL    HW229340   0.358   4.328   0.326  1.9821  0.8149  0.5898
41937SOL     OW29341   4.281   5.506   9.716 -0.5580 -0.5210  0.4395
41937SOL    HW129342   4.366   5.545   9.734 -0.9856  0.7350 -0.1506
41937SOL    HW229343   4.247   5.481   9.802  1.0020 -2.4389  0.5755
41938SOL     OW29344   5.868   3.697   8.095  0.2669 -0.4421  0.1971
41938SOL    HW129345   5.868   3.645   8.014  1.6630  0.6629 -0.5556
41938SOL    HW229346   5.889   3.786   8.066  0.9318 -0.0439  1.7981
41939SOL     OW29347   0.283   6.728   6.065  0.1928  0.2412  0.1225
41939SOL    HW129348   0.302   6.748   5.973 -0.2514 -0.0907 -0.0436
41939SOL    HW229349   0.243   6.641   6.063 -0.3551  0.4790  0.5733
41940SOL     OW29350   3.666   9.983   7.482  0.2823 -0.0526 -0.0491
41940SOL    HW129351   3.588   9.943   7.444  1.1724  0.1368 -2.2388
41940SOL    HW229352   3.673  10.068   7.439  2.1331 -0.4104 -0.5569
41941SOL     OW29353   9.067  10.877   0.460  0.2199 -0.7641  0.6181
41941SOL    HW129354   9.054  10.849   0.369 -2.3049 -0.1227  0.6875
41941SOL    HW229355   9.157  10.909   0.464 -0.3328  1.5382 -2.3426
41942SOL     OW29356   0.390   0.219   7.301 -0.4991  0.0810 -0.2511
41942SOL    HW129357   0.470   0.260   7.334 -1.0873  1.4460 -0.4530
41942SOL    HW229358   0.360   0.165   7.374  1.1373 -1.2800 -0.5319
41943SOL     OW29359   7.454   6.165  10.219  0.3898 -0.1917 -0.3199
41943SOL    HW129360   7.496   6.251  10.214  1.7816 -0.7958  0.3236
41943SOL    HW229361   7.524   6.106  10.247 -0.7606 -1.3814  0.1487
41944SOL     OW29362   3.890   8.921   3.576 -0.5130 -0.6669 -0.7254
41944SOL    HW129363   3.959   8.988   3.573 -0.3176 -0.8824 -1.2135
41944SOL    HW229364   3.855   8.919   3.487 -1.3712 -0.3373 -0.4059
41945SOL     OW29365   5.380   9.155   9.154  0.3399 -0.2788 -0.2864
41945SOL    HW129366   5.475   9.163   9.163  0.6326 -3.7694  2.1176
41945SOL    HW229367   5.346   9.162   9.244 -1.3937 -1.0466 -0.8223
41946SOL     OW29368   4.270   3.575   6.996 -0.2820  0.2922 -0.4092
41946SOL    HW129369   4.342   3.542   7.049 -1.5063  0.7034  1.5962
41946SOL    HW229370   4.312   3.600   6.913  1.9994  1.1352  0.8998
41947SOL     OW29371   9.184   0.302   4.336 -0.3551 -0.6800 -0.1751
41947SOL    HW129372   9.244   0.373   4.313  0.0452 -1.2288 -0.8520
41947SOL    HW229373   9.231   0.251   4.402 -1.5260  0.9290  2.0312
41948SOL     OW29374   8.682  11.028   9.864 -0.4651 -0.3475 -0.1439
41948SOL    HW129375   8.748  11.063   9.804  1.2199 -2.9150  0.0293
41948SOL    HW229376   8.715  11.049   9.951 -1.0959  0.3638 -0.0743
41949SOL     OW29377   2.777   0.353   0.271 -0.0561  0.2098  0.4064
41949SOL    HW129378   2.865   0.338   0.237  0.3694  1.9246  0.6506
41949SOL    HW229379   2.722   0.291   0.223  1.2769 -0.9558  0.3189
41950SOL     OW29380   3.187   9.949   0.965  0.3293 -0.7270  0.1797
41950SOL    HW129381   3.185  10.026   1.022 -0.1935 -0.5185 -0.1113
41950SOL    HW229382   3.169   9.876   1.023  0.8866 -0.6347  0.4690
41951SOL     OW29383  10.433   7.688   0.258  0.3216  0.1046 -0.0800
41951SOL    HW129384  10.345   7.696   0.219  0.7168  1.3679 -0.7701
41951SOL    HW229385  10.474   7.616   0.210 -0.1484 -0.1536 -0.1034
41952SOL     OW29386   9.872   2.368  10.641 -0.5004  0.0921  0.0904
41952SOL    HW129387   9.828   2.367  10.726 -1.9202 -1.2125 -0.6138
41952SOL    HW229388   9.837   2.446  10.598 -0.3537  0.3337  0.4008
41953SOL     OW29389   0.275   0.917   9.492 -0.5048  0.1391  0.3683
41953SOL    HW129390   0.346   0.874   9.445 -0.2127  1.0684 -0.0597
41953SOL    HW229391   0.267   1.003   9.451 -2.9241 -0.4835 -0.6547
41954SOL     OW29392   9.827   5.725   9.108  0.2464 -0.0495 -0.1678
41954SOL    HW129393   9.904   5.730   9.053 -0.0281  0.0548 -0.5448
41954SOL    HW229394   9.753   5.729   9.047 -0.0515 -0.6464  0.1508
41955SOL     OW29395  10.215   1.236  10.969  0.9428  0.7903  0.8085
41955SOL    HW129396  10.168   1.230  11.052 -1.6500  0.4746 -0.5791
41955SOL    HW229397  10.230   1.329  10.956 -1.4337  1.1646  0.2580
41956SOL     OW29398   1.526   4.081   1.427  0.6790  0.6907 -0.0740
41956SOL    HW129399   1.434   4.058   1.444  0.7967  1.6644  2.2574
41956SOL    HW229400   1.558   4.011   1.370 -0.8130 -1.0895  1.1594
41957SOL     OW29401   7.442   3.447   6.304  0.5321 -0.5496  0.2754
41957SOL    HW129402   7.464   3.532   6.267  0.5509  0.3881  2.3331
41957SOL    HW229403   7.487   3.445   6.388 -2.5573 -0.9575  2.0427
41958SOL     OW29404   0.669   5.361   8.434 -0.2103  0.0591  0.5209
41958SOL    HW129405   0.677   5.265   8.431 -0.2850  0.0723 -2.2911
41958SOL    HW229406   0.590   5.376   8.486  0.3239 -1.3421  1.8176
41959SOL     OW29407   2.315   1.919   3.962  0.4178  0.5091  0.1870
41959SOL    HW129408   2.316   1.991   4.024  1.5576  0.2259  0.5239
41959SOL    HW229409   2.360   1.847   4.007 -2.0825 -0.9829  0.5013
41960SOL     OW29410   9.691   1.503   8.490 -0.1897 -0.0304  0.3214
41960SOL    HW129411   9.622   1.555   8.448 -0.0936 -0.9895 -1.1111
41960SOL    HW229412   9.735   1.565   8.548  0.1304  1.6213 -1.5516
41961SOL     OW29413   6.439  10.423   8.062  0.4729  0.0920  0.2912
41961SOL    HW129414   6.486  10.473   7.996 -0.8971  0.1429 -0.7020
41961SOL    HW229415   6.480  10.337   8.061  2.3639  0.9212  1.4934
41962SOL     OW29416   9.460  10.060   4.342  0.2022 -0.1880 -0.1506
41962SOL    HW129417   9.372  10.026   4.330  0.3722 -1.2981  1.4586
41962SOL    HW229418   9.449  10.155   4.341 -1.0193 -0.3064  0.0363
41963SOL     OW29419   6.018   7.394   3.898 -0.3619 -0.0436 -0.0447
41963SOL    HW129420   5.996   7.364   3.987 -2.4807 -0.3274 -0.6155
41963SOL    HW229421   6.047   7.484   3.910  0.0910 -0.3145  1.0114
41964SOL     OW29422  10.165   0.398   4.627  0.1147 -0.2432 -0.0629
41964SOL    HW129423  10.110   0.325   4.655  1.6825 -0.8588  1.6160
41964SOL    HW229424  10.158   0.462   4.698  1.4475 -0.2919  0.1364
41965SOL     OW29425   8.536   1.446   6.469 -0.0140  0.4086 -0.6156
41965SOL    HW129426   8.587   1.456   6.550 -1.9054  0.5665  0.6163
41965SOL    HW229427   8.602   1.432   6.401  1.5612 -1.7503  1.2193
41966SOL     OW29428   0.911   6.156   7.131 -0.1814 -0.1977 -0.5345
41966SOL    HW129429   0.951   6.125   7.050  0.2312  0.9659 -0.7873
41966SOL    HW229430   0.904   6.077   7.185  1.8429 -0.5788 -0.7339
41967SOL     OW29431   1.168   4.234  10.393 -0.3971 -0.7317  0.0360
41967SOL    HW129432   1.214   4.151  10.381 -0.2482 -0.5919 -0.3596
41967SOL    HW229433   1.188   4.284  10.314 -1.8037 -0.9285 -0.4652
41968SOL     OW29434   8.014   9.942   1.807 -0.3795 -0.2670  0.3372
41968SOL    HW129435   7.949   9.967   1.742 -0.4859 -1.4550 -0.0331
41968SOL    HW229436   8.095   9.928   1.757  0.2210  1.2880  0.8037
41969SOL     OW29437   2.278   9.313   9.699 -0.2526  0.1770  0.5156
41969SOL    HW129438   2.195   9.300   9.653 -1.4037  1.5516  2.1163
41969SOL    HW229439   2.260   9.287   9.789  1.0780  0.4580  0.8840
41970SOL     OW29440   0.363   5.273   8.899 -0.0126  0.3009 -0.9939
41970SOL    HW129441   0.298   5.307   8.838  1.2337 -0.4933 -2.8559
41970SOL    HW229442   0.404   5.352   8.936 -3.0426  0.8808  1.5498
41971SOL     OW29443   8.366   9.985   7.524 -0.3445  0.2734  0.3108
41971SOL    HW129444   8.408   9.909   7.565  1.8057  0.7666 -0.8122
41971SOL    HW229445   8.392  10.059   7.579  1.9723  0.8404 -1.4086
41972SOL     OW29446   4.629   9.904   1.094 -0.4104  0.6524  0.0827
41972SOL    HW129447   4.577   9.859   1.027  0.0298  0.7617 -0.3463
41972SOL    HW229448   4.565   9.947   1.149 -0.8357 -0.3279  0.3837
41973SOL     OW29449   2.806  10.803   5.933 -0.1159 -0.2870 -0.2415
41973SOL    HW129450   2.814  10.790   5.839 -3.3566 -1.7677 -0.4498
41973SOL    HW229451   2.772  10.719   5.966  1.4198 -0.0098  2.3657
41974SOL     OW29452   7.697   6.482   8.552 -0.4297  0.1938  0.4403
41974SOL    HW129453   7.689   6.523   8.466  2.4153  0.2099  0.1088
41974SOL    HW229454   7.711   6.555   8.612 -0.7523  0.0540  0.6899
41975SOL     OW29455   7.679   1.973   5.156 -0.0655  0.0882 -0.7375
41975SOL    HW129456   7.641   2.011   5.235 -1.6040 -1.1062 -0.8536
41975SOL    HW229457   7.734   1.901   5.187 -0.1589  0.0254 -0.7172
41976SOL     OW29458   5.188   6.679   0.432 -0.0050  0.0654 -0.0056
41976SOL    HW129459   5.277   6.664   0.463 -0.4073  1.2060  1.8103
41976SOL    HW229460   5.134   6.676   0.511 -1.6501 -0.9400 -1.1033
41977SOL     OW29461   8.046   7.059   3.726  0.5020 -0.3238  0.0457
41977SOL    HW129462   8.003   7.112   3.794 -0.1692 -0.6644 -0.1082
41977SOL    HW229463   8.080   6.983   3.774  1.7658  0.3852  0.3261
41978SOL     OW29464  10.323  10.879   5.806 -0.5406  0.2284  0.2166
41978SOL    HW129465  10.242  10.929   5.802 -0.2367  0.6662 -0.7038
41978SOL    HW229466  10.373  10.907   5.729  0.3821 -0.2099  0.6351
41979SOL     OW29467   8.802   7.569   1.891 -0.4169  0.3647  0.6559
41979SOL    HW129468   8.712   7.586   1.919  0.5732  3.4487  2.4658
41979SOL    HW229469   8.851   7.555   1.972  1.1787  1.6556 -0.0126
41980SOL     OW29470   9.816   8.950   0.166 -0.5310 -0.0754 -0.2832
41980SOL    HW129471   9.795   8.936   0.259  0.4353  1.1234  0.1386
41980SOL    HW229472   9.763   8.885   0.120 -1.0083 -0.7189  1.1078
41981SOL     OW29473   7.091   3.447   7.175 -0.8161 -0.2429 -0.0817
41981SOL    HW129474   7.140   3.457   7.257  1.7698 -0.9795 -1.4207
41981SOL    HW229475   7.120   3.520   7.121 -1.8862 -0.2079 -0.6323
41982SOL     OW29476   3.405   9.906   7.781 -0.0172 -0.7283 -0.0762
41982SOL    HW129477   3.345   9.859   7.838  0.6461 -0.3843  0.9318
41982SOL    HW229478   3.430   9.843   7.714 -0.2509 -1.3592  0.4261
41983SOL     OW29479   2.483   3.658  10.773  0.0741 -0.1675  0.1744
41983SOL    HW129480   2.424   3.657  10.698  0.8169  0.7229 -0.4506
41983SOL    HW229481   2.549   3.592  10.754 -0.3728 -0.7365  0.5859
41984SOL     OW29482   0.529  10.302   9.656  0.6504 -0.3946 -0.0887
41984SOL    HW129483   0.470  10.230   9.679  0.8276 -0.6989 -0.5733
41984SOL    HW229484   0.615  10.261   9.647  1.1515  0.2163  1.6254
41985SOL     OW29485   0.824  10.239   2.188  0.2251 -0.5100 -0.5467
41985SOL    HW129486   0.840  10.300   2.260 -1.0676 -1.4468  0.5690
41985SOL    HW229487   0.911  10.220   2.153  0.6984  1.5917 -0.6475
41986SOL     OW29488   7.186   7.196   6.795  0.3184 -0.0135 -0.4801
41986SOL    HW129489   7.225   7.127   6.850 -0.5185  1.4274  2.1094
41986SOL    HW229490   7.260   7.251   6.770  0.8000 -1.0281 -1.3561
41987SOL     OW29491   9.489   7.450   6.074  0.6086 -0.0306  0.4882
41987SOL    HW129492   9.575   7.414   6.052  0.7932 -0.5532  1.9533
41987SOL    HW229493   9.494   7.542   6.047  2.2798  0.4141  2.0856
41988SOL     OW29494   2.283   7.786   8.032  0.1631 -0.1781 -0.0902
41988SOL    HW129495   2.198   7.745   8.017  0.9928 -2.4068  0.8598
41988SOL    HW229496   2.312   7.812   7.944 -0.3350 -1.8814 -0.8082
41989SOL     OW29497   7.539   2.978  10.407  0.9125 -0.5120  0.3007
41989SOL    HW129498   7.606   2.916  10.436  0.3728 -0.1968  2.4427
41989SOL    HW229499   7.473   2.923  10.366  0.4810 -1.4327  2.0875
41990SOL     OW29500   1.970   6.984   9.126  0.1783  0.9714 -0.2302
41990SOL    HW129501   2.023   7.013   9.052 -0.3604 -0.1895 -1.0991
41990SOL    HW229502   1.965   7.061   9.183  3.3860  0.8978  0.2812
41991SOL     OW29503   7.965   1.320   6.987  0.1827  0.3955 -0.5802
41991SOL    HW129504   8.032   1.303   6.922 -0.1502  0.4351 -0.9374
41991SOL    HW229505   7.987   1.405   7.025  0.3021  0.4316 -0.7338
41992SOL     OW29506   8.357   4.039   8.827 -0.0042 -0.0349 -0.2125
41992SOL    HW129507   8.320   4.127   8.827  1.6008  0.6691 -0.9226
41992SOL    HW229508   8.300   3.989   8.768  0.3530  1.1126 -1.5757
41993SOL     OW29509   2.518   0.591   8.621  0.7178  0.1110 -0.3736
41993SOL    HW129510   2.606   0.625   8.606  0.8904  0.0061  0.3691
41993SOL    HW229511   2.460   0.660   8.589  1.0635  0.3469 -0.4966
41994SOL     OW29512   3.604   1.775   2.524  0.0019 -0.0121 -0.0628
41994SOL    HW129513   3.567   1.731   2.447 -0.2798  0.2806 -0.0959
41994SOL    HW229514   3.534   1.832   2.556 -1.4704 -3.2007  2.9877
41995SOL     OW29515   0.826   9.404   7.498  0.3835 -0.0975  0.0736
41995SOL    HW129516   0.838   9.356   7.581  2.7429  1.7730  0.9171
41995SOL    HW229517   0.908   9.392   7.451  0.4377  1.7972 -0.3779
41996SOL     OW29518   2.743   7.185   5.825  0.2652 -0.2663  0.2157
41996SOL    HW129519   2.686   7.214   5.896 -0.8188  1.2024 -1.1695
41996SOL    HW229520   2.804   7.258   5.812  1.0731 -0.9206  0.2547
41997SOL     OW29521   2.670   2.912   0.249  0.9375 -0.1257 -0.1021
41997SOL    HW129522   2.606   2.959   0.195  1.7886  3.3248  1.6478
41997SOL    HW229523   2.628   2.902   0.334  0.8891 -2.4923 -0.3289
41998SOL     OW29524   4.321   6.945  10.057  0.0152  0.8440 -0.1405
41998SOL    HW129525   4.244   6.888  10.062  1.4062 -1.0559  3.0033
41998SOL    HW229526   4.353   6.936   9.967 -1.2635 -1.4296 -0.4287
41999SOL     OW29527   2.744   8.389   8.376 -0.1253  0.2303 -0.2432
41999SOL    HW129528   2.790   8.310   8.405 -1.1854 -1.0331 -1.8278
41999SOL    HW229529   2.784   8.459   8.426  0.6337 -1.3431  1.4759
42000SOL     OW29530  10.761   1.945   2.126 -0.5272 -0.6269  0.1526
42000SOL    HW129531  10.764   1.851   2.147  0.8999 -0.5824  0.2303
42000SOL    HW229532  10.793   1.950   2.036  1.6335 -0.0311  0.9009
42001SOL     OW29533   9.605  10.790   8.891 -0.2529 -0.0431  0.3366
42001SOL    HW129534   9.545  10.791   8.817 -1.2363  1.0446  1.1142
42001SOL    HW229535   9.690  10.815   8.854 -0.4437 -0.7528 -0.6211
42002SOL     OW29536   5.914   4.472   6.468  0.0271  0.1237  0.2075
42002SOL    HW129537   5.869   4.429   6.396  1.4365 -0.5516 -0.2915
42002SOL    HW229538   5.995   4.506   6.430 -0.7999  2.9128  0.6520
42003SOL     OW29539   5.012   8.039   9.009  0.5127  0.3734  0.5457
42003SOL    HW129540   4.993   8.025   8.916 -0.2274  0.4915  0.6781
42003SOL    HW229541   4.945   7.989   9.055 -0.5624  2.1658  1.0306
42004SOL     OW29542   0.267   0.295   3.904  0.3823 -0.3226 -0.0544
42004SOL    HW129543   0.301   0.252   3.982 -1.6120  0.0343  1.0923
42004SOL    HW229544   0.175   0.312   3.924 -0.1168  0.1013 -2.3597
42005SOL     OW29545   2.546   9.745   9.224 -0.7564  0.1484 -0.3516
42005SOL    HW129546   2.638   9.762   9.204 -0.3416 -0.7681  0.7152
42005SOL    HW229547   2.507   9.833   9.229 -0.0115  0.5423 -1.0302
42006SOL     OW29548   0.932   4.324   7.104 -0.4617  0.4480 -1.0016
42006SOL    HW129549   0.844   4.302   7.132 -0.4152  0.9664 -0.4216
42006SOL    HW229550   0.988   4.257   7.143 -0.5520  0.3928 -0.9690
42007SOL     OW29551   6.451  10.661   8.266 -0.5862 -0.1567 -0.0087
42007SOL    HW129552   6.494  10.715   8.200 -0.9563 -0.4758 -0.5133
42007SOL    HW229553   6.426  10.582   8.220  1.1524 -1.3873  1.0214
42008SOL     OW29554  10.507   6.747   9.235  0.2650  0.4690 -0.6327
42008SOL    HW129555  10.454   6.668   9.246  1.4933 -0.3131  0.0445
42008SOL    HW229556  10.492   6.797   9.316 -0.5640  0.9827 -1.0904
42009SOL     OW29557   0.279  10.300   6.153 -0.3141 -0.2046 -0.3581
42009SOL    HW129558   0.324  10.226   6.193  0.2912 -0.7308 -1.9610
42009SOL    HW229559   0.270  10.277   6.061 -0.4581  1.5493 -0.8264
42010SOL     OW29560  10.740   1.225   9.787  0.5981 -0.4010  0.1333
42010SOL    HW129561  10.678   1.285   9.747  0.4396  0.1332  1.1344
42010SOL    HW229562  10.687   1.149   9.812  0.0669  0.4925  1.9551
42011SOL     OW29563  10.879   8.709   7.610  0.3073  0.6949  0.7330
42011SOL    HW129564  10.834   8.790   7.632 -1.4615 -0.1359  0.4053
42011SOL    HW229565  10.949   8.701   7.675  0.0141  2.0692  1.2455
42012SOL     OW29566   3.278   5.252   4.460 -0.1970 -0.2587  0.4439
42012SOL    HW129567   3.235   5.337   4.455 -1.0315 -0.6968 -0.0253
42012SOL    HW229568   3.266   5.224   4.551  0.7541  0.4497  0.8077
42013SOL     OW29569   6.918   4.919   6.966 -0.0034  0.3842  0.5605
42013SOL    HW129570   6.952   4.909   7.055  0.8926  1.5676  0.3767
42013SOL    HW229571   6.992   4.894   6.910 -0.4834 -0.1162  0.1402
42014SOL     OW29572   2.763  10.468   7.546 -0.9351 -0.3158  0.0107
42014SOL    HW129573   2.847  10.423   7.544 -0.3034  0.8342 -0.3413
42014SOL    HW229574   2.724  10.443   7.630 -0.3557 -1.0592  0.0618
42015SOL     OW29575   0.323  10.787  10.230  0.1540  0.3421  0.1327
42015SOL    HW129576   0.361  10.857  10.283  0.8950  1.3559 -1.6300
42015SOL    HW229577   0.230  10.807  10.226 -0.0661 -0.2130  1.6548
42016SOL     OW29578   3.260   3.647   3.887  1.1247 -0.0930 -0.3611
42016SOL    HW129579   3.249   3.567   3.836 -1.2533 -1.4834  2.0951
42016SOL    HW229580   3.303   3.619   3.968 -0.1526  0.9688  0.7371
42017SOL     OW29581   5.895   2.014   7.872  0.0310  0.0889 -0.1075
42017SOL    HW129582   5.857   1.956   7.807  0.4395  1.1471 -1.3191
42017SOL    HW229583   5.990   2.001   7.865  0.0285 -1.1835  1.6243
42018SOL     OW29584   6.803   4.551   0.517 -0.1912  0.5406  0.2054
42018SOL    HW129585   6.851   4.633   0.532 -0.3368  0.3962  1.5809
42018SOL    HW229586   6.848   4.511   0.442 -1.0647  2.5666 -1.5199
42019SOL     OW29587   7.608   2.839   3.502  0.1624 -0.3947  0.2241
42019SOL    HW129588   7.596   2.800   3.589  3.7818 -0.6223  0.7790
42019SOL    HW229589   7.679   2.788   3.463  0.6491  1.5971 -1.6442
42020SOL     OW29590   7.767   2.352   7.279 -0.7174  0.5772  0.0045
42020SOL    HW129591   7.720   2.273   7.250  0.0378  0.4838 -1.0184
42020SOL    HW229592   7.817   2.380   7.202  0.7768  0.7801  1.0119
42021SOL     OW29593   1.826   7.571   3.322 -0.4281 -0.1079  0.3270
42021SOL    HW129594   1.813   7.610   3.235 -2.7170 -0.2324  0.5589
42021SOL    HW229595   1.898   7.621   3.360  0.4139  0.1583 -1.4997
42022SOL     OW29596   9.880   2.942  10.845  0.8362 -0.8231  0.3724
42022SOL    HW129597   9.805   2.918  10.790 -0.6912  1.8939  1.1066
42022SOL    HW229598   9.843   2.947  10.934  1.6080  1.5354  0.6141
42023SOL     OW29599   8.141   5.389   4.740 -0.7433  0.1393  0.0911
42023SOL    HW129600   8.054   5.397   4.700 -0.0165  0.9302 -1.3944
42023SOL    HW229601   8.183   5.473   4.724  0.6351 -0.5489 -0.0343
42024SOL     OW29602   6.370   7.053  10.321  0.1966 -0.0422  0.3287
42024SOL    HW129603   6.295   7.109  10.298  0.4404  0.1377 -0.0444
42024SOL    HW229604   6.423   7.051  10.241  0.2100 -0.7772  0.3478
42025SOL     OW29605   8.818   6.929  10.049 -0.0339 -0.1352  0.4973
42025SOL    HW129606   8.835   6.852  10.103  0.1831 -0.5771 -0.1961
42025SOL    HW229607   8.834   6.900   9.959 -3.7272 -0.4655 -0.2330
42026SOL     OW29608   9.643   3.180   0.612  0.5865 -0.0614  0.1311
42026SOL    HW129609   9.737   3.161   0.603  0.8872  1.0051  0.8898
42026SOL    HW229610   9.617   3.138   0.693  1.0018  1.6912  1.2283
42027SOL     OW29611   1.690   6.805   2.219  0.2666  0.2529 -0.0056
42027SOL    HW129612   1.618   6.851   2.263 -0.7693 -1.2071 -0.1175
42027SOL    HW229613   1.647   6.735   2.170  1.7249 -0.3028 -0.5257
42028SOL     OW29614   7.620   9.495   9.336 -0.3145 -0.4695 -0.6538
42028SOL    HW129615   7.602   9.453   9.252 -0.9972 -0.1354 -0.6856
42028SOL    HW229616   7.713   9.478   9.352  0.1550  0.5448 -2.0781
42029SOL     OW29617  10.436   3.861   9.011  0.1808  0.6862  0.0582
42029SOL    HW129618  10.342   3.845   9.001 -0.1173  0.3835  2.6945
42029SOL    HW229619  10.475   3.825   8.932 -1.8724  0.3622 -0.8650
42030SOL     OW29620  10.829   6.532   1.232 -0.2158 -0.1101  0.1229
42030SOL    HW129621  10.771   6.506   1.304 -1.0428  0.5903 -0.2855
42030SOL    HW229622  10.893   6.590   1.274  1.6100 -2.5595  1.0356
42031SOL     OW29623   2.179  10.585   5.753  0.1093 -0.1637  0.3463
42031SOL    HW129624   2.238  10.654   5.785 -0.5106 -0.2046  1.6205
42031SOL    HW229625   2.201  10.508   5.805  0.5410 -0.8588 -0.8118
42032SOL     OW29626   0.930  10.819   0.310  0.4971  0.7085 -0.1269
42032SOL    HW129627   0.837  10.799   0.307  1.2350 -4.1331  0.7566
42032SOL    HW229628   0.964  10.789   0.226  1.7033 -1.8300  1.1446
42033SOL     OW29629   7.908   1.180   3.743 -0.0343  0.2133 -0.2920
42033SOL    HW129630   7.899   1.187   3.838 -0.2853  0.8828 -0.3607
42033SOL    HW229631   7.879   1.091   3.723 -0.0538  0.0941  0.2509
42034SOL     OW29632   2.975   8.024   3.705  0.9344 -0.1547  0.1223
42034SOL    HW129633   3.027   7.968   3.762  0.2801 -1.2804 -0.3599
42034SOL    HW229634   2.887   8.024   3.744  1.1953  1.5414  0.8028
42035SOL     OW29635   6.798  10.893   5.736  0.4346 -0.3848 -0.3654
42035SOL    HW129636   6.862  10.962   5.755 -0.3280 -0.2761  2.1422
42035SOL    HW229637   6.849  10.823   5.695  2.0210  0.0317  0.8050
42036SOL     OW29638   5.585   2.255  10.591  0.3677  0.4944  0.1192
42036SOL    HW129639   5.638   2.278  10.513  2.4529  0.5603  1.4663
42036SOL    HW229640   5.536   2.335  10.610  0.4415  0.7423 -0.6647
42037SOL     OW29641   5.265  10.836   1.265 -0.4731 -0.5457 -0.1365
42037SOL    HW129642   5.275  10.926   1.234  0.6767 -0.9457 -1.0120
42037SOL    HW229643   5.320  10.833   1.344 -0.8063 -0.3830  0.1020
42038SOL     OW29644   6.733  10.576   0.233 -0.0255  0.2250  0.0140
42038SOL    HW129645   6.743  10.515   0.160 -0.8084 -1.9349  1.6306
42038SOL    HW229646   6.821  10.582   0.271 -0.2395 -1.2074  0.7998
42039SOL     OW29647   3.143   8.064   2.540  0.7832 -0.3500  0.4409
42039SOL    HW129648   3.236   8.079   2.527  0.4809  0.1270 -1.5639
42039SOL    HW229649   3.100   8.116   2.472 -0.8176 -2.5478 -0.3887
42040SOL     OW29650   8.051   8.110   1.321 -0.5264  0.1100  0.5877
42040SOL    HW129651   8.031   8.055   1.245  1.6020  1.9844 -1.5186
42040SOL    HW229652   8.036   8.199   1.290  0.3242  0.9314  2.4127
42041SOL     OW29653   1.640   3.227   7.984 -0.1024  0.3516 -0.4357
42041SOL    HW129654   1.613   3.267   8.067 -2.0841 -0.3483 -0.6915
42041SOL    HW229655   1.616   3.292   7.917 -2.8142 -0.8903 -0.8025
42042SOL     OW29656  10.143   5.815   9.549  0.0842  0.4532  0.1778
42042SOL    HW129657  10.092   5.801   9.469 -0.9967 -0.9370  1.0480
42042SOL    HW229658  10.185   5.731   9.565  0.2622  0.6989  1.0680
42043SOL     OW29659   1.701   7.928  10.001  0.2861 -0.2896 -0.4382
42043SOL    HW129660   1.661   7.878  10.072  0.3796 -0.3301 -0.4139
42043SOL    HW229661   1.795   7.924  10.018  0.2342  0.8189  0.1815
42044SOL     OW29662   9.318   6.627   4.097 -0.8260  0.0440  0.3040
42044SOL    HW129663   9.247   6.668   4.147 -0.2858  2.8142 -1.0434
42044SOL    HW229664   9.285   6.621   4.008  0.5744  1.4483 -0.3623
42045SOL     OW29665  10.654   7.584   3.233 -0.6357 -0.1715 -0.0565
42045SOL    HW129666  10.721   7.624   3.177 -0.9288 -0.7050 -0.7910
42045SOL    HW229667  10.704   7.544   3.304 -0.3389  1.7064  0.8635
42046SOL     OW29668   9.584   2.754   9.306  0.1669 -0.2311  0.1479
42046SOL    HW129669   9.586   2.762   9.211  0.7050 -0.6657  0.1155
42046SOL    HW229670   9.523   2.821   9.335 -0.1021 -0.1862 -0.5148
42047SOL     OW29671   9.617   5.334   4.812 -0.2220 -0.2688 -0.4021
42047SOL    HW129672   9.591   5.426   4.812  1.6779  0.3274 -0.0264
42047SOL    HW229673   9.543   5.286   4.848 -1.6490  0.9792 -1.5792
42048SOL     OW29674   0.954   5.133  10.021 -0.0774 -0.0637  0.1235
42048SOL    HW129675   0.872   5.130  10.071 -0.0879 -1.5463  0.0851
42048SOL    HW229676   1.022   5.138  10.088 -0.0921 -2.0346  0.3508
42049SOL     OW29677  11.034   7.398  10.656 -0.2242 -0.3751  0.0488
42049SOL    HW129678  11.104   7.406  10.721  0.5923 -2.2414 -0.5175
42049SOL    HW229679  10.962   7.357  10.704 -0.6464  0.7943  0.4320
42050SOL     OW29680   1.682   3.015   1.423 -0.1371 -0.4476 -0.3291
42050SOL    HW129681   1.641   3.093   1.385 -1.1673 -1.0840 -0.5418
42050SOL    HW229682   1.759   3.000   1.367  1.1019  1.4089  0.7480
42051SOL     OW29683   9.824   4.048   1.008 -0.1521 -0.0369 -0.3037
42051SOL    HW129684   9.789   4.132   0.977  0.5793  0.5826  0.4544
42051SOL    HW229685   9.901   4.073   1.060 -0.9118 -1.0556  1.3778
42052SOL     OW29686   8.766   6.040   5.573 -0.1271 -0.0935  0.5535
42052SOL    HW129687   8.802   5.970   5.518  1.7165  1.6651 -0.6001
42052SOL    HW229688   8.697   6.079   5.519  0.6553  0.6560  0.0719
42053SOL     OW29689   1.275   5.758   7.827 -0.0516  0.3054 -1.3609
42053SOL    HW129690   1.311   5.736   7.741 -0.3168 -0.7007 -1.2175
42053SOL    HW229691   1.241   5.676   7.861 -1.5530  1.0209 -1.0455
42054SOL     OW29692   0.168   5.645   8.451  0.2746 -0.1818  0.4249
42054SOL    HW129693   0.231   5.665   8.381  1.8221  1.4507  2.1713
42054SOL    HW229694   0.215   5.666   8.532 -2.5415  1.1941  1.8331
42055SOL     OW29695   1.215   4.343  10.671  0.0706  0.6674 -0.6144
42055SOL    HW129696   1.183   4.278  10.734  0.2274  1.8141  0.7085
42055SOL    HW229697   1.195   4.306  10.585 -2.6461  0.2495  0.0998
42056SOL     OW29698   4.238   3.954   2.919  0.0886 -0.0485  0.0771
42056SOL    HW129699   4.259   3.913   2.835 -2.3896  0.5343 -0.9169
42056SOL    HW229700   4.211   3.881   2.975  3.1847 -0.6459  0.9830
42057SOL     OW29701   4.639   6.132   9.848 -0.4577  0.3275  0.3586
42057SOL    HW129702   4.660   6.102   9.760 -0.8036 -0.9565  0.6958
42057SOL    HW229703   4.543   6.134   9.851 -0.4512  0.1897  0.7635
42058SOL     OW29704   6.979   2.770   5.442 -0.3250  0.8358  0.7411
42058SOL    HW129705   6.984   2.860   5.410 -2.8746  1.1322  0.9975
42058SOL    HW229706   7.001   2.776   5.535  1.2506  0.8686  0.4021
42059SOL     OW29707   0.764   3.582   4.600 -0.1887 -0.4821  0.3831
42059SOL    HW129708   0.856   3.593   4.574  0.1080 -1.6718  0.8356
42059SOL    HW229709   0.767   3.571   4.695 -0.9234  0.5313  0.5358
42060SOL     OW29710   0.929   1.478   1.420 -0.6750  0.0821 -0.5188
42060SOL    HW129711   0.861   1.544   1.435 -1.0047 -0.1130 -1.1037
42060SOL    HW229712   0.883   1.394   1.426  0.0214 -0.1949  1.7168
42061SOL     OW29713   3.271   7.256   5.042  0.4372 -0.4385 -0.4778
42061SOL    HW129714   3.278   7.335   4.987 -0.2931 -1.1234 -1.6048
42061SOL    HW229715   3.292   7.184   4.983  0.5399 -1.1346  0.3936
42062SOL     OW29716   5.668   3.139   0.435  0.0160  0.1107  0.0616
42062SOL    HW129717   5.628   3.119   0.350  1.5951 -1.3074 -0.3998
42062SOL    HW229718   5.688   3.054   0.473  0.4440  0.7546  1.3191
42063SOL     OW29719   9.835   5.642   5.471 -0.0426  0.5632 -0.2477
42063SOL    HW129720   9.879   5.557   5.478 -0.8901  0.1726  0.4744
42063SOL    HW229721   9.890   5.692   5.411  1.5373  0.1934  0.8208
42064SOL     OW29722   6.888   9.742   2.170  0.6363 -0.0086 -0.1917
42064SOL    HW129723   6.910   9.655   2.205  1.0690 -0.5515 -1.7060
42064SOL    HW229724   6.824   9.725   2.101 -0.1395  1.0140  0.2450
42065SOL     OW29725   8.724   9.822   9.587 -0.0660 -0.0584 -0.4708
42065SOL    HW129726   8.720   9.730   9.558  1.0379 -0.1139 -0.4901
42065SOL    HW229727   8.699   9.819   9.679  0.6390 -0.4823 -0.2855
42066SOL     OW29728   6.642   2.012   9.807 -0.1864 -0.3185  0.0170
42066SOL    HW129729   6.598   2.001   9.891 -0.7704  1.1926 -0.0580
42066SOL    HW229730   6.596   1.953   9.748  0.0062 -1.1335  0.6534
42067SOL     OW29731   3.132   3.364   5.149  0.2671  0.0434 -0.0697
42067SOL    HW129732   3.174   3.305   5.086  0.5809  1.4762 -1.2627
42067SOL    HW229733   3.060   3.403   5.099 -1.4157 -1.0190  1.3958
42068SOL     OW29734   0.340   8.654  10.915 -0.1232  0.5969 -0.3310
42068SOL    HW129735   0.283   8.720  10.955  0.4255  0.8736 -0.0007
42068SOL    HW229736   0.300   8.638  10.829 -2.2522 -1.1841  0.8749
42069SOL     OW29737  10.635   3.425   9.389  0.7039 -0.0958  1.1425
42069SOL    HW129738  10.675   3.512   9.383  0.8103 -0.2404 -1.1600
42069SOL    HW229739  10.542   3.442   9.404  0.7135  0.4331  0.6400
42070SOL     OW29740   1.499   3.417   4.849  0.2204  0.3377 -0.5907
42070SOL    HW129741   1.472   3.365   4.773 -0.3967  1.3921 -1.1162
42070SOL    HW229742   1.435   3.397   4.917 -0.2850  0.7421 -0.9399
42071SOL     OW29743   2.600   4.971   3.453 -0.2026 -0.1697 -0.3648
42071SOL    HW129744   2.579   4.895   3.507  0.9841 -0.4625 -0.2927
42071SOL    HW229745   2.648   4.935   3.378 -1.2417  0.3056 -1.2860
42072SOL     OW29746   1.709   0.862   8.751  0.2258  0.4681  0.2430
42072SOL    HW129747   1.669   0.775   8.748  0.8151  0.2182 -0.5980
42072SOL    HW229748   1.713   0.883   8.845 -2.1806  0.6714  0.3388
42073SOL     OW29749   3.265   5.231   7.823 -0.5472  0.5733 -0.8260
42073SOL    HW129750   3.357   5.257   7.817  0.0556 -1.3983 -0.5886
42073SOL    HW229751   3.244   5.198   7.735 -1.5218  2.3991 -1.3403
42074SOL     OW29752   8.574  10.343   6.453  0.0542 -0.6440  0.4960
42074SOL    HW129753   8.630  10.291   6.511 -1.8504 -1.0118  2.1163
42074SOL    HW229754   8.521  10.396   6.512  0.4256  1.5895 -1.0638
42075SOL     OW29755   5.898   8.852   7.819 -0.6388 -0.2840  0.1061
42075SOL    HW129756   5.827   8.822   7.762  0.4374 -0.2815 -1.2752
42075SOL    HW229757   5.865   8.838   7.908 -2.7280  0.5706 -0.4814
42076SOL     OW29758   8.124  10.686   4.187 -0.2076  0.2149  0.4688
42076SOL    HW129759   8.044  10.730   4.216 -1.2143  0.2458 -2.1096
42076SOL    HW229760   8.143  10.724   4.102  1.6897 -0.8994  0.3430
42077SOL     OW29761   9.288  10.650   1.039 -0.4490  0.2066  0.0805
42077SOL    HW129762   9.271  10.700   0.960  2.3308  1.6075  0.2445
42077SOL    HW229763   9.316  10.715   1.103  2.5194 -1.3717  0.5676
42078SOL     OW29764   0.483   0.056   4.342 -0.5576  0.6200 -0.0212
42078SOL    HW129765   0.565   0.028   4.384 -1.4818  0.6292  1.9033
42078SOL    HW229766   0.485   0.151   4.346 -1.2277  0.6059  1.2826
42079SOL     OW29767   3.767   0.209   5.590  0.2277 -0.5261  0.3121
42079SOL    HW129768   3.843   0.264   5.609 -0.3722 -0.1106  1.5980
42079SOL    HW229769   3.779   0.131   5.644  0.2658 -0.9549 -0.2992
42080SOL     OW29770   1.912   1.978   6.063 -0.1800  0.0130 -0.2548
42080SOL    HW129771   1.919   1.939   6.150  1.9405  2.4219  0.7907
42080SOL    HW229772   2.000   1.970   6.026 -0.6650  0.4185 -1.5201
42081SOL     OW29773   3.687   9.174   2.048  0.2661  0.1020 -1.1751
42081SOL    HW129774   3.683   9.084   2.081  1.0481  0.0535 -1.2008
42081SOL    HW229775   3.753   9.216   2.103 -2.4084  1.6446  1.1816
42082SOL     OW29776   9.776   3.401   1.424 -0.3775 -0.2726  0.7033
42082SOL    HW129777   9.738   3.356   1.499 -2.2801  1.1393  0.6292
42082SOL    HW229778   9.702   3.426   1.369  0.9617 -2.0480 -2.1972
42083SOL     OW29779   7.165   1.442   1.996  0.5122 -0.9168 -0.2188
42083SOL    HW129780   7.134   1.358   1.962  2.2074 -1.3940 -0.6783
42083SOL    HW229781   7.247   1.458   1.950 -0.5346  1.8442 -1.4074
42084SOL     OW29782   8.969   7.267   1.993  0.0011  0.4610 -0.1541
42084SOL    HW129783   9.033   7.334   1.968 -0.3324  0.8635  0.0671
42084SOL    HW229784   8.920   7.306   2.065  1.6311 -1.0215  1.9302
42085SOL     OW29785   1.986   7.015   0.834 -0.0815 -0.0283 -0.2965
42085SOL    HW129786   1.928   6.971   0.772  0.2876 -1.7286  0.5228
42085SOL    HW229787   1.927   7.063   0.892 -0.5964 -0.5995 -0.3351
42086SOL     OW29788   5.238   9.753   1.402 -0.1220 -0.1905 -0.1315
42086SOL    HW129789   5.223   9.658   1.410  0.9014 -0.4900 -1.4685
42086SOL    HW229790   5.181   9.779   1.330  0.4739 -0.0201 -0.5453
42087SOL     OW29791   5.078   7.545   8.973  0.2541 -0.1776  0.0346
42087SOL    HW129792   5.049   7.496   9.050  0.6093  0.0957  0.3468
42087SOL    HW229793   5.095   7.633   9.006  1.9740 -0.4573 -0.0112
42088SOL     OW29794   7.503   0.140   5.385  0.3656  0.0307  0.4717
42088SOL    HW129795   7.530   0.056   5.347  1.6880  0.0400  1.3035
42088SOL    HW229796   7.572   0.201   5.361  0.0377  0.5852  0.8997
42089SOL     OW29797   3.284   9.127   3.951 -0.6077 -0.8164 -0.6438
42089SOL    HW129798   3.335   9.111   4.030 -1.0150 -0.8853 -0.3893
42089SOL    HW229799   3.327   9.201   3.909 -0.0978 -1.0925 -0.6134
42090SOL     OW29800   6.181   8.256   5.776 -0.3739 -0.0298 -0.5088
42090SOL    HW129801   6.261   8.205   5.777  0.3703  1.0685 -1.2566
42090SOL    HW229802   6.208   8.345   5.800 -1.5441  0.1405  0.2847
42091SOL     OW29803   9.789   3.058   9.089 -0.0014  0.3182 -0.1589
42091SOL    HW129804   9.713   3.117   9.095  0.1163  0.3903  0.7292
42091SOL    HW229805   9.769   3.001   9.015 -0.9056  0.3720  0.0284
42092SOL     OW29806  10.906   0.753  10.935  0.1845  0.3609  0.1010
42092SOL    HW129807  10.997   0.747  10.963  0.7611  1.0743 -1.5047
42092SOL    HW229808  10.863   0.803  11.004  1.0916  0.3472  0.6951
42093SOL     OW29809   6.533   3.186   9.809 -0.1600  0.3917  0.2060
42093SOL    HW129810   6.499   3.193   9.898 -1.3466  1.4717 -0.2976
42093SOL    HW229811   6.513   3.096   9.782 -1.0525  0.4727  0.5544
42094SOL     OW29812   7.621   2.257   9.215 -0.1507  0.4093  0.7047
42094SOL    HW129813   7.670   2.337   9.194  0.6785 -0.3239 -0.2856
42094SOL    HW229814   7.598   2.221   9.129  0.6377 -1.0937  1.0851
42095SOL     OW29815   5.950   8.914   8.486 -0.0342  0.5093  0.0618
42095SOL    HW129816   6.030   8.965   8.498 -0.3026  0.8443  0.4669
42095SOL    HW229817   5.930   8.879   8.573 -0.9566  1.3823  0.2186
42096SOL     OW29818   9.368   8.092   9.719 -0.3988 -0.0311  0.0841
42096SOL    HW129819   9.374   7.998   9.703 -0.4273  0.1826 -1.2584
42096SOL    HW229820   9.387   8.132   9.635 -2.7783  1.1132  0.0092
42097SOL     OW29821   2.982   0.676   8.277 -0.2204  0.1871 -0.5731
42097SOL    HW129822   3.015   0.587   8.292  1.9454  0.3878 -3.3146
42097SOL    HW229823   2.899   0.679   8.324  0.8225 -2.4263  1.6991
42098SOL     OW29824  10.241   9.289   1.469 -0.3235 -0.6242  0.2367
42098SOL    HW129825  10.163   9.322   1.514 -1.0677 -1.5059 -0.3519
42098SOL    HW229826  10.315   9.324   1.518 -1.0889  0.7275  0.4516
42099SOL     OW29827   4.651  10.267   2.570 -0.2373  0.3390  0.2166
42099SOL    HW129828   4.563  10.245   2.600 -1.0395 -0.2052 -2.2772
42099SOL    HW229829   4.641  10.352   2.526 -0.3242 -1.0629 -2.7803
42100SOL     OW29830   6.719   9.008   2.138  0.6084  0.0585 -0.1951
42100SOL    HW129831   6.767   9.020   2.056 -1.3288 -0.0032 -1.3939
42100SOL    HW229832   6.729   8.915   2.159  1.7336  0.2222  0.0909
42101SOL     OW29833   3.400   1.310   3.897 -0.1151  0.4953 -0.2190
42101SOL    HW129834   3.428   1.297   3.988 -2.5143  1.7294  0.7788
42101SOL    HW229835   3.305   1.315   3.902 -0.4683 -1.2633 -3.1024
42102SOL     OW29836   7.778   9.870   0.125 -0.3720 -0.5184  0.2020
42102SOL    HW129837   7.766   9.785   0.082 -0.7526 -0.2177 -0.2993
42102SOL    HW229838   7.865   9.864   0.166 -0.4087 -1.1581  0.2060
42103SOL     OW29839   7.956   9.406   7.186 -0.4204  0.0789  0.0376
42103SOL    HW129840   7.924   9.317   7.203 -0.5521 -0.1333 -1.1949
42103SOL    HW229841   7.958   9.412   7.091 -0.1634  1.3212  0.1104
42104SOL     OW29842   6.536   0.644   0.874 -0.3081 -0.0351  0.3584
42104SOL    HW129843   6.463   0.630   0.814  0.4103  2.9160 -1.4658
42104SOL    HW229844   6.583   0.561   0.876 -1.6811 -0.9067 -1.3591
42105SOL     OW29845   5.830  10.116  10.784  0.3374 -0.6608  0.3794
42105SOL    HW129846   5.768  10.043  10.792 -0.8024  0.2464  0.2457
42105SOL    HW229847   5.813  10.170  10.861  1.1822 -0.5491  0.4910
42106SOL     OW29848   6.810   2.716   4.882  0.1839  0.6441 -0.0325
42106SOL    HW129849   6.768   2.760   4.956  1.2344  0.1226  0.9092
42106SOL    HW229850   6.776   2.627   4.885  0.6452  0.4698  0.1814
42107SOL     OW29851   5.734   4.943   5.694 -0.3099 -0.2948 -0.3513
42107SOL    HW129852   5.697   5.030   5.678  2.2845  1.6636  2.9476
42107SOL    HW229853   5.820   4.946   5.653  0.6152 -0.4719  1.5025
42108SOL     OW29854   2.945   5.424   8.831  0.2794  0.1452  0.2261
42108SOL    HW129855   2.851   5.435   8.847  0.4467  1.4888  0.4509
42108SOL    HW229856   2.987   5.486   8.891  1.1492  1.7995 -1.9426
42109SOL     OW29857  10.178   5.562   4.498  0.1555  0.4742 -0.3261
42109SOL    HW129858  10.267   5.596   4.493  0.0107  0.6872 -1.9390
42109SOL    HW229859  10.122   5.639   4.487 -0.2594  0.4329  1.2853
42110SOL     OW29860   2.632   1.543   3.619  1.1101  0.4617 -0.5018
42110SOL    HW129861   2.649   1.601   3.692 -0.1580  1.4059 -0.9213
42110SOL    HW229862   2.719   1.521   3.584  1.7599 -0.3547  1.5040
42111SOL     OW29863   6.115  10.937  10.229 -0.2483 -0.1513 -0.5840
42111SOL    HW129864   6.025  10.929  10.197  0.5465 -0.9939 -2.9007
42111SOL    HW229865   6.134  10.852  10.268 -0.0070 -0.5597 -1.5428
42112SOL     OW29866   4.703   9.230   1.887 -0.2179 -0.4050  0.3036
42112SOL    HW129867   4.676   9.139   1.873  0.4136 -0.6206  0.4348
42112SOL    HW229868   4.678   9.249   1.978  0.6771 -0.8269  0.6437
42113SOL     OW29869   1.819   0.118   9.843 -0.6960  0.2379 -0.9306
42113SOL    HW129870   1.881   0.121   9.916 -0.1087 -0.5970 -1.3866
42113SOL    HW229871   1.775   0.203   9.846 -2.6859 -0.7282  2.1315
42114SOL     OW29872   6.556   7.894   0.350  0.2709  0.1138  0.0259
42114SOL    HW129873   6.507   7.864   0.273  0.3570  0.4401 -0.1576
42114SOL    HW229874   6.561   7.817   0.406 -1.4399  0.3524  0.5661
42115SOL     OW29875   5.956   3.977   9.018  0.2209  0.6006  0.0460
42115SOL    HW129876   5.898   4.052   8.999 -1.2462 -0.8575 -1.5442
42115SOL    HW229877   5.983   3.945   8.932  1.0365 -0.5337  0.7091
42116SOL     OW29878   8.842   2.573   1.113 -0.0894 -0.3439 -0.0361
42116SOL    HW129879   8.888   2.495   1.143  0.2873 -0.3668 -0.6578
42116SOL    HW229880   8.796   2.545   1.034  2.0624  0.6353 -1.7464
42117SOL     OW29881  10.491   6.806   0.556  0.1072  0.0136  0.5629
42117SOL    HW129882  10.411   6.792   0.606  0.1822 -1.5969  0.2854
42117SOL    HW229883  10.562   6.789   0.618  0.3086  2.0570  0.9908
42118SOL     OW29884   0.334   3.011   8.869  0.1129 -0.9578  0.2855
42118SOL    HW129885   0.314   3.105   8.863  0.9681 -0.8601 -2.0234
42118SOL    HW229886   0.429   3.007   8.856 -0.1389 -2.2498 -1.3640
42119SOL     OW29887   2.441   1.625   6.081  0.0461 -0.0508  0.2432
42119SOL    HW129888   2.485   1.542   6.098 -0.4274 -0.1869  0.8387
42119SOL    HW229889   2.349   1.608   6.100 -0.3835  0.0727 -1.5258
42120SOL     OW29890   7.415   8.435   7.003 -0.2498  0.7097  0.2623
42120SOL    HW129891   7.470   8.458   7.078 -0.6045  0.3709  0.6349
42120SOL    HW229892   7.335   8.400   7.042 -0.7349  1.1944 -0.2682
42121SOL     OW29893   8.627  10.723  10.998 -0.2234 -0.0383  0.2453
42121SOL    HW129894   8.631  10.640  10.951  1.4446  0.6710 -0.9629
42121SOL    HW229895   8.647  10.789  10.932 -0.8440  1.2814  1.3258
42122SOL     OW29896   0.825   6.438   9.878 -0.1440 -0.3297  0.5134
42122SOL    HW129897   0.885   6.387   9.824 -0.1267 -1.4002  1.5070
42122SOL    HW229898   0.812   6.385   9.957  0.4293  1.5102  1.9158
42123SOL     OW29899   7.542   2.545   6.851  0.0166  0.1268 -0.1499
42123SOL    HW129900   7.536   2.634   6.818 -0.2380  0.1870  0.0533
42123SOL    HW229901   7.470   2.499   6.808 -1.4130  0.6154  1.5844
42124SOL     OW29902   2.641   1.240   1.916 -0.0769 -0.1675 -0.0608
42124SOL    HW129903   2.611   1.264   2.004  0.0689  1.4222 -0.4216
42124SOL    HW229904   2.560   1.236   1.864 -0.1164 -0.6459  0.0323
42125SOL     OW29905   8.917   9.715   3.377 -0.1932  0.5912 -0.3801
42125SOL    HW129906   8.981   9.710   3.306  0.7831  3.8035  0.1389
42125SOL    HW229907   8.837   9.747   3.336 -0.6888 -0.7604 -0.5350
42126SOL     OW29908   8.082   2.163   4.031  0.0206  0.4373 -0.2285
42126SOL    HW129909   8.013   2.157   3.965  0.0837  0.3086 -0.2840
42126SOL    HW229910   8.037   2.145   4.114 -0.0465  0.5361 -0.2432
42127SOL     OW29911   1.075   0.176  10.749 -0.3152 -0.6743  0.1971
42127SOL    HW129912   1.068   0.200  10.657 -2.2060  0.4376  0.5827
42127SOL    HW229913   1.115   0.089  10.748  0.0079 -0.5409 -1.6357
42128SOL     OW29914   8.821  10.373   3.040  0.1624  0.2466 -0.8399
42128SOL    HW129915   8.869  10.441   2.993  0.2860  0.2848 -0.6597
42128SOL    HW229916   8.870  10.293   3.022  2.9373  0.8479  2.8031
42129SOL     OW29917   2.822   3.272   6.263  0.6369 -0.2167  0.2040
42129SOL    HW129918   2.835   3.234   6.176 -0.2363  1.3502 -0.6651
42129SOL    HW229919   2.910   3.291   6.295  0.9768 -1.0877 -0.1912
42130SOL     OW29920   1.557  10.627   8.388 -0.4050 -0.2846  0.4224
42130SOL    HW129921   1.579  10.699   8.329  3.6025 -0.5158  1.3727
42130SOL    HW229922   1.531  10.670   8.470 -0.4818  0.0368  0.2328
42131SOL     OW29923   1.881   5.278   2.534  0.2038  0.8181 -0.0291
42131SOL    HW129924   1.819   5.214   2.499  0.5862  0.8917 -0.8568
42131SOL    HW229925   1.905   5.331   2.459 -0.6960  2.4471  0.7815
42132SOL     OW29926   3.793   9.331  10.834 -0.4549  0.8932  0.3776
42132SOL    HW129927   3.839   9.248  10.846  0.7755  1.2584 -1.3414
42132SOL    HW229928   3.733   9.314  10.762 -0.3334  1.4413  0.1472
42133SOL     OW29929   8.940   9.373   5.888 -0.0489 -0.5258 -0.3663
42133SOL    HW129930   8.928   9.406   5.799 -1.7537  0.5783  0.2262
42133SOL    HW229931   8.958   9.452   5.940 -2.7092 -0.6356  0.8435
42134SOL     OW29932   4.915   8.916   6.678  0.2482  0.3408  0.0658
42134SOL    HW129933   4.858   8.850   6.716  0.5924 -0.1913 -0.3142
42134SOL    HW229934   4.984   8.865   6.635 -0.8159  0.8401 -2.4042
42135SOL     OW29935   7.737  10.889   9.345  0.0996 -0.2292 -0.3603
42135SOL    HW129936   7.816  10.940   9.328  0.1483 -0.0923  0.2564
42135SOL    HW229937   7.767  10.798   9.349 -0.0502 -0.3650 -1.8722
42136SOL     OW29938   3.446   4.584   2.468 -0.3050  0.1413  0.2027
42136SOL    HW129939   3.487   4.581   2.382 -0.6401 -0.9109  0.0669
42136SOL    HW229940   3.466   4.671   2.502  0.8130  0.1489 -0.4535
42137SOL     OW29941   2.304   4.110   7.481  0.2183 -0.5799 -0.4703
42137SOL    HW129942   2.229   4.090   7.538  0.6498 -1.1182 -0.0778
42137SOL    HW229943   2.306   4.038   7.418 -0.1235 -0.1008 -1.0404
42138SOL     OW29944   3.829   3.665   5.405 -0.3705  0.1702  0.2964
42138SOL    HW129945   3.839   3.738   5.344 -0.5801  1.2010  1.4420
42138SOL    HW229946   3.785   3.597   5.355 -1.3970  1.3364 -0.4475
42139SOL     OW29947   7.005   4.067   6.800 -0.1327  0.2776 -0.1198
42139SOL    HW129948   7.027   4.150   6.844  2.2654 -0.1591 -0.3525
42139SOL    HW229949   7.083   4.013   6.811 -0.7158 -1.0650 -2.0767
42140SOL     OW29950   6.526   9.463  10.235 -0.2503 -0.3622 -0.5967
42140SOL    HW129951   6.526   9.370  10.211  2.4760 -0.3660 -0.9014
42140SOL    HW229952   6.599   9.500  10.185 -0.4280  1.6628  0.5526
42141SOL     OW29953  10.875  11.030   4.187  0.4475  0.0949 -0.5517
42141SOL    HW129954  10.893  11.053   4.278 -0.4828 -0.3338 -0.2492
42141SOL    HW229955  10.785  11.058   4.172 -0.1555 -1.7981 -0.6763
42142SOL     OW29956   7.733   7.139   9.049 -0.5139  0.3993 -0.1432
42142SOL    HW129957   7.722   7.229   9.079 -1.9809  0.4952 -0.8998
42142SOL    HW229958   7.809   7.143   8.989  0.1317  0.8922  0.6843
42143SOL     OW29959   7.101   7.826  10.117  0.4296  0.0266  0.2621
42143SOL    HW129960   7.012   7.811  10.149  0.5123  1.4801  1.3181
42143SOL    HW229961   7.137   7.738  10.103 -0.2445 -0.6832  2.5305
42144SOL     OW29962   8.592   3.586   6.172 -0.1481 -0.1672  0.2529
42144SOL    HW129963   8.618   3.604   6.262  1.3578 -0.5674 -0.0768
42144SOL    HW229964   8.583   3.672   6.132 -2.2958  0.0907  1.1233
42145SOL     OW29965   1.532   9.815   4.639  0.4577 -0.2163 -0.5810
42145SOL    HW129966   1.462   9.760   4.605  0.9714 -0.2103 -1.6758
42145SOL    HW229967   1.486   9.885   4.685 -0.3002  0.2090 -1.9286
42146SOL     OW29968  10.613   4.628   4.818  0.1528  0.3908  0.1847
42146SOL    HW129969  10.632   4.677   4.738  0.3267  0.4032  0.2327
42146SOL    HW229970  10.519   4.609   4.814  0.1594  0.4068 -0.0139
42147SOL     OW29971  10.800   8.308  10.194 -0.4176  0.0683 -0.0138
42147SOL    HW129972  10.883   8.278  10.230 -0.9333 -0.8598  0.4218
42147SOL    HW229973  10.793   8.265  10.109  0.8857  2.3975 -1.4191
42148SOL     OW29974   2.626   0.058   7.485  0.6821 -0.6194 -0.6312
42148SOL    HW129975   2.541   0.017   7.503  0.7559 -0.7973 -0.6915
42148SOL    HW229976   2.616   0.096   7.398  0.1128  0.7830  0.0074
42149SOL     OW29977   3.724   4.719   3.981  0.3100  0.3596  0.2227
42149SOL    HW129978   3.759   4.633   3.961  0.6191  0.6318 -0.4339
42149SOL    HW229979   3.753   4.737   4.071  2.7349  0.9931 -0.6254
42150SOL     OW29980   5.000  10.953   2.509 -0.1782 -0.2429  0.0520
42150SOL    HW129981   4.974  10.949   2.417  0.7132 -0.3849 -0.2001
42150SOL    HW229982   5.055  11.031   2.515  0.8361 -0.9529  0.1770
42151SOL     OW29983   6.485   9.706  10.688  0.0261 -0.0526 -0.5150
42151SOL    HW129984   6.473   9.711  10.593 -0.6358 -2.7463 -0.6659
42151SOL    HW229985   6.399   9.728  10.724  0.3639  1.2926 -0.4989
42152SOL     OW29986   1.749   2.141   7.475 -0.6189  0.1518 -0.0790
42152SOL    HW129987   1.779   2.104   7.392 -0.6857  0.3978 -0.2153
42152SOL    HW229988   1.828   2.169   7.519 -0.6244  0.5790 -0.3314
42153SOL     OW29989   0.043   5.991   2.457  0.0251  0.0322  0.3693
42153SOL    HW129990  -0.011   5.939   2.515 -0.8120  0.4340 -0.0343
42153SOL    HW229991  -0.012   6.006   2.380  0.5956  0.7098  0.0855
42154SOL     OW29992   2.159   0.478   4.360  0.2303  0.1296  0.1682
42154SOL    HW129993   2.074   0.486   4.403  1.4259  1.5970  2.4764
42154SOL    HW229994   2.217   0.444   4.428  1.9699  1.3809 -0.6269
42155SOL     OW29995   8.285   4.955   7.324  0.0820  0.1186  0.2922
42155SOL    HW129996   8.366   4.975   7.278  1.3567  0.7072  2.6514
42155SOL    HW229997   8.305   4.877   7.376 -0.1376  1.4690  2.5111
42156SOL     OW29998   5.965   9.422   8.744 -0.4301 -0.6164  0.2555
42156SOL    HW129999   5.979   9.509   8.706  1.1107 -0.8833  0.1332
42156SOL    HW230000   5.899   9.382   8.688  1.7100 -0.9821 -2.2120
42157SOL     OW30001  10.242  10.456   2.875  0.3021 -0.3311 -0.0615
42157SOL    HW130002  10.258  10.452   2.781 -0.4769  0.7611 -0.2533
42157SOL    HW230003  10.314  10.509   2.910 -1.2439  2.2902 -0.5638
42158SOL     OW30004   3.061   9.527   3.227 -0.1970  0.4383 -0.1162
42158SOL    HW130005   3.089   9.452   3.174 -0.4998  0.0559  0.2638
42158SOL    HW230006   2.984   9.496   3.275 -0.6767  1.1692 -0.3879
42159SOL     OW30007   0.576   2.472   3.100 -0.4245 -0.0394  0.5838
42159SOL    HW130008   0.573   2.526   3.021 -2.5730  0.5455  1.0173
42159SOL    HW230009   0.546   2.529   3.170 -0.7960 -1.2072  1.4171
42160SOL     OW30010   4.367   8.537   4.892  0.3503 -0.4440  0.4938
42160SOL    HW130011   4.340   8.545   4.801 -1.1292 -1.8743  0.7684
42160SOL    HW230012   4.460   8.516   4.888  0.3405 -0.3121 -0.6690
42161SOL     OW30013   2.594   8.209   1.884 -0.3831  0.0749  0.3728
42161SOL    HW130014   2.576   8.199   1.977 -2.4008  0.0840  0.0403
42161SOL    HW230015   2.580   8.302   1.866  0.0114  0.0788  0.0606
42162SOL     OW30016   1.224   1.290   4.082  0.5521 -0.3442  0.5003
42162SOL    HW130017   1.249   1.304   4.173  1.3403  0.2374  0.2034
42162SOL    HW230018   1.271   1.358   4.033 -0.3579 -0.2406 -0.2684
42163SOL     OW30019   1.110   8.063   5.622 -0.5791 -0.0821  0.1092
42163SOL    HW130020   1.068   8.037   5.540 -1.0301  1.5607 -0.2026
42163SOL    HW230021   1.076   8.000   5.686 -0.6894 -1.0041 -0.8279
42164SOL     OW30022   8.563   0.543   2.432 -0.4362  0.0866 -0.0870
42164SOL    HW130023   8.582   0.607   2.363  1.6210 -0.3178  0.0297
42164SOL    HW230024   8.589   0.459   2.394  0.4816 -0.1722  1.0591
42165SOL     OW30025   8.008   9.038   5.361 -0.3891  0.1840  0.5106
42165SOL    HW130026   8.101   9.058   5.348 -0.1928 -0.7145  0.4290
42165SOL    HW230027   7.961   9.112   5.322  0.2583 -0.2576 -1.1863
42166SOL     OW30028   5.583  10.233   4.101  0.1287 -0.7982  0.4572
42166SOL    HW130029   5.566  10.192   4.017  0.7545  0.3347 -0.2407
42166SOL    HW230030   5.509  10.293   4.114  0.3522 -0.5046  0.3988
42167SOL     OW30031   0.548   6.606   3.888  0.1127 -0.3213  0.3344
42167SOL    HW130032   0.616   6.544   3.912 -0.4295 -2.3155 -2.7130
42167SOL    HW230033   0.593   6.671   3.834 -0.0216 -0.4552  0.0583
42168SOL     OW30034   5.134  11.111   0.985 -0.0548 -0.0848  0.0275
42168SOL    HW130035   5.221  11.134   0.953 -0.3280 -1.9102 -2.2583
42168SOL    HW230036   5.079  11.108   0.907 -1.8659 -0.3677  1.2372
42169SOL     OW30037   0.065   1.110   3.489  0.1262  0.7669  0.3874
42169SOL    HW130038   0.106   1.162   3.420 -0.0288  0.0803 -0.2359
42169SOL    HW230039  -0.017   1.080   3.451  0.1782  0.1340  0.7556
42170SOL     OW30040   2.597   8.168   7.944  0.2528  0.2722  0.1648
42170SOL    HW130041   2.632   8.146   7.858  1.3826  1.0703  0.3985
42170SOL    HW230042   2.673   8.170   8.002 -0.1554  2.0851  0.6906
42171SOL     OW30043   2.554   3.881   3.134 -0.6349  0.1025  0.2561
42171SOL    HW130044   2.619   3.855   3.200 -0.0925 -0.7048 -0.5707
42171SOL    HW230045   2.592   3.960   3.094 -0.6785  0.2458  0.4931
42172SOL     OW30046   6.183   1.044   3.442  0.2272 -0.1126  0.2195
42172SOL    HW130047   6.247   1.107   3.410 -0.5108  0.8219  0.5374
42172SOL    HW230048   6.100   1.071   3.402 -0.4165  0.1299  1.6450
42173SOL     OW30049   5.360  10.521   6.674  0.7950  0.0003 -0.3941
42173SOL    HW130050   5.296  10.480   6.616 -1.7990  0.1877  2.1252
42173SOL    HW230051   5.376  10.455   6.741  3.2919 -0.0008 -0.9095
42174SOL     OW30052   6.794   6.680   5.601 -0.5574 -0.6016  0.7035
42174SOL    HW130053   6.880   6.720   5.592 -0.2105 -1.5583 -0.5201
42174SOL    HW230054   6.781   6.632   5.519 -1.9413 -1.0781  1.1713
42175SOL     OW30055   7.522   8.104   0.172  0.5854 -0.0357  0.6540
42175SOL    HW130056   7.430   8.112   0.195 -0.0350 -1.7054 -0.9775
42175SOL    HW230057   7.561   8.056   0.245 -0.2114 -0.7116  0.6510
42176SOL     OW30058   2.815   9.734   4.519 -0.3088 -0.2933  0.0925
42176SOL    HW130059   2.779   9.822   4.533  0.3153  0.2918 -1.7407
42176SOL    HW230060   2.844   9.734   4.428 -0.4450 -2.4733 -0.0000
42177SOL     OW30061   5.828   7.399  10.375  0.0923  0.4060 -0.5193
42177SOL    HW130062   5.834   7.494  10.387  1.6360  0.2480  0.2264
42177SOL    HW230063   5.918   7.371  10.360 -0.4875 -0.7943 -2.1126
42178SOL     OW30064   5.348   0.394   5.928 -0.4230 -0.5185 -0.2349
42178SOL    HW130065   5.311   0.475   5.895 -2.6626 -0.9166  1.0749
42178SOL    HW230066   5.339   0.332   5.855 -0.9958 -0.2229 -0.4181
42179SOL     OW30067   0.503   3.511   1.072  0.0817  0.1208  0.1087
42179SOL    HW130068   0.417   3.498   1.033  0.3628  0.3359 -0.5996
42179SOL    HW230069   0.503   3.456   1.150  0.0807 -1.6267 -1.0650
42180SOL     OW30070   5.695   4.972   2.008 -0.1270 -0.2197 -0.1942
42180SOL    HW130071   5.611   4.944   2.045 -0.8290 -0.2455 -1.7231
42180SOL    HW230072   5.761   4.932   2.065 -1.1276 -1.9998 -0.1983
42181SOL     OW30073   2.475   8.158   4.490 -0.3978  0.4414 -0.5703
42181SOL    HW130074   2.382   8.181   4.493  0.0404  2.3862 -0.1073
42181SOL    HW230075   2.512   8.216   4.424  0.4224 -0.6592 -1.1126
42182SOL     OW30076   8.300   4.847   1.272 -0.2063  0.3541  0.2983
42182SOL    HW130077   8.383   4.799   1.263 -0.1702  0.1677  1.4751
42182SOL    HW230078   8.326   4.939   1.272 -0.1954  0.3755 -1.1359
42183SOL     OW30079   4.609   7.698   6.689  0.2502  0.3983  0.0982
42183SOL    HW130080   4.595   7.635   6.618 -1.9949 -0.7268  1.4264
42183SOL    HW230081   4.633   7.644   6.764  1.7237  1.4921  0.4456
42184SOL     OW30082   1.791   9.816   7.350 -0.4508  0.3934 -0.0731
42184SOL    HW130083   1.834   9.888   7.304 -0.1590  0.5955  0.5071
42184SOL    HW230084   1.732   9.859   7.412  0.2124  0.1546  0.7470
42185SOL     OW30085   0.049   7.747   4.605  0.3193 -0.0565 -0.1278
42185SOL    HW130086   0.010   7.667   4.639  0.3785  0.2441  0.6732
42185SOL    HW230087  -0.024   7.794   4.566  0.3559 -0.6759 -0.9577
42186SOL     OW30088   1.069   9.785   9.472 -0.4206 -0.0155  0.4723
42186SOL    HW130089   1.060   9.867   9.521 -1.3060  0.1106  0.1073
42186SOL    HW230090   1.162   9.782   9.448 -0.1042  0.2263  1.6123
42187SOL     OW30091   1.174   4.791   9.590 -0.4909  0.2713 -0.4622
42187SOL    HW130092   1.106   4.764   9.652 -0.6815  1.4382 -0.1340
42187SOL    HW230093   1.220   4.710   9.568  0.8617  0.0432  2.7001
42188SOL     OW30094   0.696   2.341   2.767  0.1906  0.4325 -0.0478
42188SOL    HW130095   0.712   2.271   2.705  0.8656 -0.7581  1.3904
42188SOL    HW230096   0.608   2.325   2.800  0.4885 -0.0030  0.5654
42189SOL     OW30097   1.084   9.471   6.449  0.5661 -0.6084  0.1255
42189SOL    HW130098   1.002   9.424   6.433  0.9612 -1.4975  0.6236
42189SOL    HW230099   1.099   9.521   6.369 -0.1275 -0.9442 -0.2242
42190SOL     OW30100   8.371   8.367   7.771  0.1906  0.9395 -0.2511
42190SOL    HW130101   8.347   8.459   7.780 -0.2898  1.1408 -2.8938
42190SOL    HW230102   8.296   8.320   7.806 -1.0448  1.5948 -1.8990
42191SOL     OW30103   7.724   8.289   5.132 -0.6269  0.5049 -0.0199
42191SOL    HW130104   7.782   8.307   5.058 -1.9822 -0.2613 -1.3316
42191SOL    HW230105   7.782   8.287   5.208  1.4191 -2.1848 -1.4610
42192SOL     OW30106   4.591   7.354   9.052 -0.0267  0.4682  0.0186
42192SOL    HW130107   4.555   7.336   9.138  0.8623 -0.3174  0.2469
42192SOL    HW230108   4.548   7.291   8.994 -1.0048  1.3404 -0.2146
42193SOL     OW30109   5.715   7.640   8.209 -0.1090 -0.3228 -0.6738
42193SOL    HW130110   5.720   7.627   8.114 -1.5792 -0.8368 -0.7098
42193SOL    HW230111   5.719   7.735   8.221  1.1320 -0.2977 -1.1519
42194SOL     OW30112   2.392   2.018   9.481  0.3295 -0.2265  1.1355
42194SOL    HW130113   2.465   2.022   9.543  2.3760  0.4388 -1.1751
42194SOL    HW230114   2.422   1.958   9.413 -0.7536  1.0093 -0.4855
42195SOL     OW30115   0.777   1.660   4.043  0.3764  0.0791  0.0756
42195SOL    HW130116   0.776   1.659   3.948 -0.7344 -0.5668  0.0740
42195SOL    HW230117   0.684   1.664   4.068  0.6073 -0.6419  1.1215
42196SOL     OW30118   9.114   8.946  10.934  0.3757  0.0357 -0.3303
42196SOL    HW130119   9.146   9.012  10.996 -0.2601  0.5275 -0.5100
42196SOL    HW230120   9.049   8.993  10.881 -2.0630 -1.3579  1.2433
42197SOL     OW30121  10.761  10.389   5.234 -0.2262 -0.0363  0.3622
42197SOL    HW130122  10.749  10.463   5.293 -2.0894  0.1942 -0.2392
42197SOL    HW230123  10.828  10.335   5.276 -1.7058 -0.0660  2.8725
42198SOL     OW30124   5.794   7.710   6.945  0.3888  0.0691  0.2258
42198SOL    HW130125   5.831   7.798   6.958 -0.3034  0.4682 -0.4206
42198SOL    HW230126   5.854   7.652   6.992  0.6575  0.9201  0.9698
42199SOL     OW30127  10.494   9.697   4.977 -0.2009 -0.3672  0.0533
42199SOL    HW130128  10.571   9.662   4.933 -0.3959 -1.1864  0.3459
42199SOL    HW230129  10.423   9.685   4.914 -0.4797 -1.5355  0.5568
42200SOL     OW30130   6.556   5.464   9.086 -0.7918  0.1377 -0.0231
42200SOL    HW130131   6.468   5.430   9.103 -0.7095  0.3455  0.8504
42200SOL    HW230132   6.577   5.431   8.999 -0.9218 -1.6536  0.5668
42201SOL     OW30133   4.134   4.328   4.728 -0.2168 -0.0558  0.3878
42201SOL    HW130134   4.148   4.398   4.664 -1.4074 -0.2564 -0.1166
42201SOL    HW230135   4.221   4.292   4.744  0.0595 -0.2926 -1.4629
42202SOL     OW30136  10.018   7.097   7.958  0.0742  0.0320 -0.0927
42202SOL    HW130137   9.926   7.082   7.979  0.3634 -1.0690  0.4940
42202SOL    HW230138  10.038   7.182   7.998 -0.1727 -0.6644  1.6122
42203SOL     OW30139   6.482   2.498   0.775  0.2360 -0.4383 -0.5358
42203SOL    HW130140   6.427   2.572   0.747  1.4576 -0.0053 -1.8945
42203SOL    HW230141   6.538   2.535   0.844  0.8408 -0.0706 -1.2093
42204SOL     OW30142   0.752  11.041   3.466  0.0527 -0.2780 -0.2555
42204SOL    HW130143   0.768  10.950   3.441  1.4636 -0.5513  1.4576
42204SOL    HW230144   0.716  11.035   3.555  1.7476  0.8625  0.5596
42205SOL     OW30145   2.841   2.051   7.031  0.3434 -0.1063  0.2477
42205SOL    HW130146   2.930   2.050   7.064 -0.1304 -1.4924  1.6153
42205SOL    HW230147   2.790   2.093   7.100 -0.0869  0.6142 -0.4892
42206SOL     OW30148   5.278   7.649  10.708  0.3875 -0.4274 -0.7191
42206SOL    HW130149   5.320   7.620  10.626  0.6948  0.7134 -0.9840
42206SOL    HW230150   5.343   7.631  10.776  1.3160  1.1989 -1.1087
42207SOL     OW30151   9.357   4.059   4.043 -1.1788 -0.4049 -0.0054
42207SOL    HW130152   9.306   3.980   4.024  0.8348 -2.5687  2.7616
42207SOL    HW230153   9.327   4.087   4.130 -0.6707  0.9156 -0.2207
42208SOL     OW30154   8.864   0.957   1.197 -0.2556 -0.4193  0.5274
42208SOL    HW130155   8.932   1.018   1.224  0.6196 -1.2820  0.3086
42208SOL    HW230156   8.907   0.898   1.135 -0.5992 -2.3453  2.0138
42209SOL     OW30157   7.136  10.067   8.004  0.1224 -0.3131 -0.1751
42209SOL    HW130158   7.111  10.080   7.913 -1.6975 -2.0868  0.0249
42209SOL    HW230159   7.222  10.025   8.000  1.6713  2.6435 -0.9338
42210SOL     OW30160   9.966   3.819   2.428 -0.1233 -0.3548  0.1138
42210SOL    HW130161  10.032   3.750   2.414  0.9698  0.5898  0.4999
42210SOL    HW230162   9.882   3.775   2.410  0.6502 -1.3539 -1.2981
42211SOL     OW30163   9.164   3.931   2.506 -0.6993 -0.6967  0.4409
42211SOL    HW130164   9.166   4.016   2.551 -2.5909 -0.6176  0.4640
42211SOL    HW230165   9.129   3.870   2.571  3.0302 -2.1628  1.3108
42212SOL     OW30166   5.305   1.848   7.584 -0.1725  0.0805  1.3087
42212SOL    HW130167   5.253   1.807   7.653  0.7592 -0.8083  1.4866
42212SOL    HW230168   5.388   1.802   7.585  0.0881  0.4884  0.0100
42213SOL     OW30169   0.493   3.584   8.367  0.3515  0.0178  0.0753
42213SOL    HW130170   0.436   3.535   8.308  2.0833  0.1958 -1.8437
42213SOL    HW230171   0.441   3.596   8.446 -1.2663 -2.1602 -0.5717
42214SOL     OW30172   8.431   4.291   6.777  0.2058 -0.1525 -0.4708
42214SOL    HW130173   8.353   4.321   6.823  0.5085 -1.5692  1.0149
42214SOL    HW230174   8.398   4.251   6.696 -0.3932  1.3740 -1.0208
42215SOL     OW30175  10.136   8.769   8.276 -0.1658  0.3471 -0.1562
42215SOL    HW130176  10.202   8.760   8.208 -0.2370  0.2476 -0.2126
42215SOL    HW230177  10.176   8.732   8.354 -0.0019  0.6609 -0.0908
42216SOL     OW30178   5.867  10.624   4.444 -0.4561  0.3670 -0.4202
42216SOL    HW130179   5.888  10.572   4.366  1.3722 -0.5227  0.5973
42216SOL    HW230180   5.936  10.602   4.506 -2.4767  0.1613  1.9002
42217SOL     OW30181   7.287   0.542   3.482  0.2073  0.5708 -0.2198
42217SOL    HW130182   7.207   0.592   3.466 -0.8193 -1.1469 -0.7002
42217SOL    HW230183   7.314   0.567   3.570 -1.4168  0.4688  0.3255
42218SOL     OW30184   8.776   5.981   7.586  0.0882  0.2761 -0.4538
42218SOL    HW130185   8.871   5.982   7.599  0.2846  0.9350 -1.7460
42218SOL    HW230186   8.761   5.914   7.520 -0.7766 -2.3405  2.1952
42219SOL     OW30187   8.688   3.974   5.101  0.0925  0.3982  0.3664
42219SOL    HW130188   8.726   4.051   5.143  0.2761  0.6049 -0.1610
42219SOL    HW230189   8.627   3.938   5.165 -0.2603  1.1888  0.4849
42220SOL     OW30190   8.765   1.738   5.777  0.0992 -0.1596 -0.1045
42220SOL    HW130191   8.792   1.661   5.828 -0.3205 -0.0396  0.3043
42220SOL    HW230192   8.695   1.778   5.829  1.1261  1.1883  0.3038
42221SOL     OW30193   6.846  10.671   1.688 -0.3403 -0.0446 -0.1088
42221SOL    HW130194   6.765  10.635   1.653  0.0138 -0.4398 -0.5366
42221SOL    HW230195   6.885  10.599   1.737  0.9689 -0.6755 -1.9740
42222SOL     OW30196   9.419   5.229   4.967 -0.5512 -0.6095 -0.0438
42222SOL    HW130197   9.409   5.171   5.042  0.0802  0.7799  1.1805
42222SOL    HW230198   9.345   5.290   4.974  0.8320  1.0738  0.9790
42223SOL     OW30199   1.692   7.884   5.932 -0.0739  0.2095  0.1757
42223SOL    HW130200   1.651   7.841   6.007 -0.4967 -0.6914 -0.5511
42223SOL    HW230201   1.782   7.902   5.960 -0.3523  0.3011  1.0477
42224SOL     OW30202   4.818   1.021  10.065 -0.4353  0.2678 -0.4302
42224SOL    HW130203   4.845   0.931  10.083  2.7819  1.1107 -0.4675
42224SOL    HW230204   4.782   1.052  10.148  1.2360 -0.1738  0.5029
42225SOL     OW30205   4.970   6.449   1.066  0.2506  0.1552 -0.1252
42225SOL    HW130206   5.053   6.488   1.041  1.1363 -1.0616  0.7780
42225SOL    HW230207   4.941   6.401   0.989  0.2948  0.7209 -0.4957
42226SOL     OW30208   8.098   9.729   0.567  0.0621 -0.0796 -0.9775
42226SOL    HW130209   8.016   9.681   0.586 -0.4918  0.1481 -2.6354
42226SOL    HW230210   8.158   9.700   0.635 -1.8176  0.9029  1.2565
42227SOL     OW30211   3.763   8.398   3.879  0.6157  0.1974  0.3619
42227SOL    HW130212   3.707   8.350   3.818  0.5095 -0.0042  0.6160
42227SOL    HW230213   3.713   8.476   3.902  0.8828  0.5450 -0.2264
42228SOL     OW30214   2.026   5.160  10.771  0.2348  0.0828 -0.5218
42228SOL    HW130215   1.994   5.230  10.714 -3.7984 -1.8269 -0.9676
42228SOL    HW230216   1.975   5.169  10.851  0.7694 -1.3924  0.0247
42229SOL     OW30217   8.476  10.639   7.563 -0.2000  0.2834 -0.2115
42229SOL    HW130218   8.568  10.612   7.561 -0.4686 -0.6647 -1.4411
42229SOL    HW230219   8.470  10.707   7.495 -0.3014  0.7740  0.2800
42230SOL     OW30220   7.056   5.726   8.207 -0.2686 -0.2962  0.3807
42230SOL    HW130221   7.000   5.712   8.283 -0.4588 -0.7502  0.1588
42230SOL    HW230222   7.078   5.638   8.177  1.6008 -0.1567  1.2189
42231SOL     OW30223   7.355   8.460   0.260 -0.1023  0.2962  0.0101
42231SOL    HW130224   7.370   8.541   0.212 -0.4852 -0.4523 -1.4519
42231SOL    HW230225   7.282   8.418   0.213 -0.5417 -0.4406  1.3118
42232SOL     OW30226   6.730   5.064   1.231  0.1259  0.3481 -0.1942
42232SOL    HW130227   6.739   5.096   1.321  0.1303 -1.4834  0.5053
42232SOL    HW230228   6.748   5.140   1.176  3.6384  0.7604  1.3001
42233SOL     OW30229   5.276   0.141   2.855 -0.5911 -0.0089  0.3477
42233SOL    HW130230   5.245   0.223   2.892  0.4141 -0.2162  1.7582
42233SOL    HW230231   5.349   0.115   2.912  0.5426 -0.7578 -1.3611
42234SOL     OW30232   3.348   1.636   7.572 -0.5209 -0.4248  0.6855
42234SOL    HW130233   3.357   1.625   7.477 -4.6023 -0.6293  0.1179
42234SOL    HW230234   3.355   1.730   7.586 -0.9871 -0.2748 -0.0281
42235SOL     OW30235   5.493   8.425   5.064 -0.2271 -0.2916 -0.2304
42235SOL    HW130236   5.492   8.517   5.087 -0.5314 -0.0734 -1.0724
42235SOL    HW230237   5.402   8.397   5.073 -0.3219 -0.2421 -0.9852
42236SOL     OW30238   8.986   2.068   4.837 -0.5901  0.6023 -0.2030
42236SOL    HW130239   9.032   2.133   4.889 -1.6082  1.7523 -0.7121
42236SOL    HW230240   9.029   2.071   4.751 -0.2732  0.1824 -0.0661
42237SOL     OW30241   4.217   2.022   7.636 -0.4065  0.2283 -0.3087
42237SOL    HW130242   4.258   2.044   7.552  1.0821  2.9856  0.9885
42237SOL    HW230243   4.174   1.938   7.621  1.1742 -0.1765 -3.3476
42238SOL     OW30244  11.079  10.513  10.305 -0.2156  0.2500  0.1420
42238SOL    HW130245  11.066  10.551  10.218 -2.6602 -0.1597  0.2355
42238SOL    HW230246  11.144  10.444  10.292 -1.0629 -0.2947 -1.5540
42239SOL     OW30247   1.770   2.570   3.811 -0.1872 -0.5547  0.4670
42239SOL    HW130248   1.814   2.485   3.810  0.8996 -0.0090  0.1181
42239SOL    HW230249   1.769   2.595   3.903 -1.6164 -1.4791  0.7314
42240SOL     OW30250   4.317   3.428   2.062 -0.9228 -0.3902  0.0517
42240SOL    HW130251   4.402   3.396   2.031 -0.1483  0.5062  1.1538
42240SOL    HW230252   4.338   3.475   2.143 -2.5112 -0.3561  0.4659
42241SOL     OW30253   8.486   3.645   4.284  0.5288  0.7056 -0.5760
42241SOL    HW130254   8.414   3.582   4.293  1.3802 -0.1885  0.2392
42241SOL    HW230255   8.476   3.680   4.196 -0.5340  0.1360 -0.7031
42242SOL     OW30256   6.645   5.390   5.670  0.2918 -0.0218 -0.2831
42242SOL    HW130257   6.711   5.370   5.604  1.0543 -1.7694  0.9392
42242SOL    HW230258   6.691   5.445   5.733  0.4036 -0.6679  0.2105
42243SOL     OW30259   3.857   7.442   8.484  0.1801 -0.4993 -0.2427
42243SOL    HW130260   3.764   7.457   8.498 -0.0733 -0.0302 -2.0597
42243SOL    HW230261   3.861   7.374   8.417  1.0918  0.2784 -1.0224
42244SOL     OW30262   5.190   2.682   2.616  0.3035  0.6576  0.5315
42244SOL    HW130263   5.203   2.760   2.563  0.3449 -0.4253 -1.1349
42244SOL    HW230264   5.110   2.700   2.666  0.6619  1.9871  0.6680
42245SOL     OW30265   4.002   7.719   2.461  0.3570 -0.1371 -0.2948
42245SOL    HW130266   4.085   7.756   2.492 -1.3422  2.0333  2.0381
42245SOL    HW230267   4.020   7.694   2.370  2.9306  2.3800 -0.6338
42246SOL     OW30268   4.956  10.334   9.644  0.7592  0.1024 -0.7138
42246SOL    HW130269   4.900  10.280   9.699  0.0524  1.5002 -0.0097
42246SOL    HW230270   4.931  10.312   9.555 -1.2992  1.0245 -0.4274
42247SOL     OW30271   9.188  10.761   6.241 -0.4980  0.5814 -0.3921
42247SOL    HW130272   9.253  10.817   6.198  0.6466  0.1465  0.7175
42247SOL    HW230273   9.155  10.704   6.171  1.7499 -0.5125 -0.6588
42248SOL     OW30274   4.417   8.748   6.020  0.9590 -0.4920 -0.1944
42248SOL    HW130275   4.400   8.703   5.938  1.8107 -0.0788 -0.6107
42248SOL    HW230276   4.513   8.749   6.028  1.1017  2.3117 -0.8684
42249SOL     OW30277   8.449  10.930   1.521 -0.7447 -0.8172 -0.5948
42249SOL    HW130278   8.402  10.883   1.590 -0.1007 -0.6472 -0.0315
42249SOL    HW230279   8.448  10.870   1.447 -2.0321 -0.7284 -0.6714
42250SOL     OW30280   3.900   9.183   0.303 -0.3879  0.5438  0.5551
42250SOL    HW130281   3.956   9.146   0.372 -1.1468  1.5617  1.7615
42250SOL    HW230282   3.905   9.278   0.316  0.4292  0.8540 -1.6142
42251SOL     OW30283   1.603   1.241   4.671 -0.4507  0.0791  0.4743
42251SOL    HW130284   1.544   1.206   4.603  0.1733 -0.6009  0.2733
42251SOL    HW230285   1.633   1.324   4.635 -0.0045 -0.3472 -0.1611
42252SOL     OW30286   7.755   4.979   3.089 -0.4241  0.5170  0.4305
42252SOL    HW130287   7.826   5.010   3.145  0.0911  0.4369 -0.1781
42252SOL    HW230288   7.772   5.019   3.004 -0.5218 -0.3462 -0.0013
42253SOL     OW30289  10.092   9.533   1.845 -0.0471 -0.1513  0.2456
42253SOL    HW130290  10.086   9.622   1.880 -2.1509 -0.1725  0.0560
42253SOL    HW230291  10.171   9.497   1.885 -0.6278  0.8929  2.4983
42254SOL     OW30292   0.834   7.776   5.262 -0.2988  0.6204 -0.0332
42254SOL    HW130293   0.867   7.775   5.352  1.0366 -0.5162 -0.5078
42254SOL    HW230294   0.844   7.867   5.234 -0.7889  0.9969  0.9736
42255SOL     OW30295   9.857   3.303   1.772  0.3441  0.1129 -0.2524
42255SOL    HW130296   9.793   3.289   1.702 -0.3867  0.3307  0.3577
42255SOL    HW230297   9.809   3.353   1.839  0.8945 -0.4608  0.5908
42256SOL     OW30298   0.024   6.176   7.922  0.5914  0.0527 -0.1607
42256SOL    HW130299   0.026   6.090   7.880  1.7710 -0.6178  1.2016
42256SOL    HW230300   0.078   6.232   7.865  0.5042 -0.3135 -0.6059
42257SOL     OW30301  10.808   4.801   6.839 -0.1204  0.5001  0.5901
42257SOL    HW130302  10.813   4.849   6.756  0.2018 -0.5536 -0.0133
42257SOL    HW230303  10.846   4.716   6.820 -1.7532 -0.4464  1.3129
42258SOL     OW30304   7.597   8.280  10.611 -0.0078  0.2806  0.1638
42258SOL    HW130305   7.563   8.221  10.543  0.1790 -1.8962  1.8416
42258SOL    HW230306   7.599   8.227  10.690  0.8520  2.3854  1.6562
42259SOL     OW30307   0.663   9.282   4.889 -0.2679  0.1107  0.0414
42259SOL    HW130308   0.680   9.212   4.825  3.1742  1.8463 -1.1819
42259SOL    HW230309   0.655   9.236   4.973 -0.9920 -1.9146 -1.0507
42260SOL     OW30310   3.660   3.893   6.142 -0.3264 -0.1500 -0.0103
42260SOL    HW130311   3.666   3.861   6.232 -2.5719  0.7660  0.5271
42260SOL    HW230312   3.660   3.814   6.088  0.2635 -0.7423  0.8355
42261SOL     OW30313   6.368   4.568   9.799 -0.1818  0.1775 -0.0876
42261SOL    HW130314   6.418   4.500   9.753 -1.8683  0.2486 -2.2208
42261SOL    HW230315   6.385   4.647   9.748  0.3017  0.9905  1.2892
42262SOL     OW30316   7.315  10.643   5.672 -0.6323  0.2591  0.0044
42262SOL    HW130317   7.349  10.652   5.583 -0.1108  1.2493  0.2933
42262SOL    HW230318   7.243  10.581   5.664  0.1369 -0.5489 -0.9159
42263SOL     OW30319   9.657   3.511   7.044  0.4239 -0.0919 -0.2251
42263SOL    HW130320   9.652   3.459   6.964 -2.3346 -1.4202  0.6851
42263SOL    HW230321   9.583   3.482   7.096  1.4743  1.5185  2.3739
42264SOL     OW30322   2.798   2.398   4.637 -0.2977  0.1283  0.2911
42264SOL    HW130323   2.881   2.376   4.594 -0.1091  1.3956 -0.0307
42264SOL    HW230324   2.736   2.333   4.604  0.4752 -0.6228  0.2639
42265SOL     OW30325   7.823   1.657   3.086  0.1382  0.0867 -0.0912
42265SOL    HW130326   7.786   1.575   3.053  0.0179  0.0776  0.0680
42265SOL    HW230327   7.751   1.719   3.083  0.3641  0.3271 -0.7082
42266SOL     OW30328  10.072   5.817   1.080 -0.0769  0.1702 -0.4774
42266SOL    HW130329  10.154   5.771   1.097 -1.3643 -1.9801  0.3770
42266SOL    HW230330  10.036   5.774   1.002 -0.2915  1.2591 -0.9982
42267SOL     OW30331  10.025   7.556   4.570 -0.3449 -0.2951  0.2406
42267SOL    HW130332  10.075   7.557   4.488  0.2853  2.7998  0.5593
42267SOL    HW230333  10.010   7.648   4.590 -1.7947 -1.0113  2.8599
42268SOL     OW30334   3.097   5.795   8.554 -0.5178 -0.0885  0.2777
42268SOL    HW130335   3.189   5.774   8.568 -0.1152  2.0099  1.0717
42268SOL    HW230336   3.054   5.709   8.548  1.3077 -1.1119  1.0093
42269SOL     OW30337  10.538  10.044   0.941 -0.2006 -0.0436 -0.6530
42269SOL    HW130338  10.485   9.991   1.001 -0.1369  0.2454 -0.3404
42269SOL    HW230339  10.533  10.132   0.977  1.3386 -0.1882 -0.0164
42270SOL     OW30340   2.320   8.046   8.845  0.4399 -0.1227 -0.1666
42270SOL    HW130341   2.382   8.103   8.799 -0.4043  0.5961 -0.4501
42270SOL    HW230342   2.256   8.107   8.882 -0.8196 -0.9188 -0.9602
42271SOL     OW30343   1.757   8.988   8.491  0.4601  0.0291 -0.0276
42271SOL    HW130344   1.789   8.975   8.581 -0.1484 -1.3137  0.0059
42271SOL    HW230345   1.832   9.027   8.445  0.9579  0.2326  0.9257
42272SOL     OW30346   4.855   7.103   9.867 -0.2886  0.2387  0.0096
42272SOL    HW130347   4.868   7.193   9.897 -1.1976  1.0166 -1.7553
42272SOL    HW230348   4.802   7.062   9.935  0.0248  1.0765  0.7761
42273SOL     OW30349   8.970   4.599   7.506  0.1910 -0.0474 -0.0545
42273SOL    HW130350   9.003   4.601   7.417 -0.0101  0.4112 -0.1221
42273SOL    HW230351   8.902   4.532   7.505 -0.7207  0.8522 -0.5801
42274SOL     OW30352   0.533   7.184   2.049  0.0084  0.5837 -0.4517
42274SOL    HW130353   0.477   7.240   1.995 -0.3790 -1.3700 -2.1878
42274SOL    HW230354   0.474   7.117   2.084  0.5671  0.8387  1.0565
42275SOL     OW30355   1.985   5.259   9.032  0.5728  0.6173 -0.0231
42275SOL    HW130356   2.066   5.220   8.999 -0.4985 -1.1496 -0.6906
42275SOL    HW230357   1.977   5.341   8.982 -0.1443 -1.1880 -3.1233
42276SOL     OW30358   0.760   3.155   4.378  0.4561  0.5112  0.0143
42276SOL    HW130359   0.702   3.091   4.421 -0.3313  0.5985 -0.8647
42276SOL    HW230360   0.758   3.232   4.435 -2.0983  1.3389 -1.0526
42277SOL     OW30361   1.705   4.219   8.334  0.2640 -0.6793 -0.4230
42277SOL    HW130362   1.746   4.273   8.402  0.8755 -0.4392 -0.9711
42277SOL    HW230363   1.735   4.130   8.354  1.3573 -0.4614 -1.0173
42278SOL     OW30364   4.537   3.610   1.107 -0.3200  0.2005  0.0868
42278SOL    HW130365   4.589   3.690   1.111 -0.4832  0.3985 -1.2826
42278SOL    HW230366   4.452   3.638   1.073 -0.6758 -0.4199  0.4560
42279SOL     OW30367  10.219   8.330   9.446 -0.0571 -0.4857 -0.2495
42279SOL    HW130368  10.249   8.326   9.355  0.4669 -0.5005 -0.0787
42279SOL    HW230369  10.237   8.243   9.481  2.2189  0.2677  0.6226
42280SOL     OW30370   2.067   3.769   3.905  0.4198  0.0063 -0.0560
42280SOL    HW130371   2.116   3.701   3.950  2.2101  0.2445 -1.5085
42280SOL    HW230372   2.023   3.724   3.834 -1.3722 -0.1683  1.1096
42281SOL     OW30373   5.869   8.055   0.371  0.6575  0.0225 -0.4448
42281SOL    HW130374   5.805   8.077   0.303  0.1963  0.7473  0.1973
42281SOL    HW230375   5.922   7.985   0.333 -0.0589 -0.0913 -1.2639
42282SOL     OW30376   3.090   4.949   7.156  0.0182  0.7611  0.2406
42282SOL    HW130377   3.047   5.014   7.101  0.3467  1.5776  0.9185
42282SOL    HW230378   3.021   4.916   7.213 -0.5432 -0.7815 -1.2296
42283SOL     OW30379   5.555   9.068   7.866 -0.3783  0.5832  0.5614
42283SOL    HW130380   5.583   9.158   7.884 -2.3564  1.4740 -0.4812
42283SOL    HW230381   5.608   9.040   7.791 -0.4890  1.2776  0.2195
42284SOL     OW30382   0.749   5.367   7.724  0.2943  0.3709 -0.4368
42284SOL    HW130383   0.707   5.286   7.752 -0.1421  0.9274  0.5889
42284SOL    HW230384   0.833   5.368   7.769  0.2289  0.5594 -0.3165
42285SOL     OW30385   3.293   4.365   7.426 -0.3384  0.1817 -0.6141
42285SOL    HW130386   3.292   4.396   7.335 -1.2771  0.1874 -0.6171
42285SOL    HW230387   3.384   4.370   7.452 -0.0481  0.1466 -1.5723
42286SOL     OW30388  10.738   9.873   1.590  0.0427 -0.4697 -0.0774
42286SOL    HW130389  10.776   9.909   1.671  0.6256  0.6280 -0.8028
42286SOL    HW230390  10.814   9.844   1.539 -0.2297 -0.1501 -0.6785
42287SOL     OW30391   1.470   0.267   8.852 -0.1810  0.3880  0.7913
42287SOL    HW130392   1.501   0.234   8.768 -0.9549  1.7586 -0.0699
42287SOL    HW230393   1.429   0.191   8.894  3.2767 -1.2536  1.5530
42288SOL     OW30394   1.485   9.772   3.597  0.1230  0.7790  0.1326
42288SOL    HW130395   1.430   9.836   3.642  0.2997  0.6827  0.4874
42288SOL    HW230396   1.547   9.742   3.664  0.5911  0.8656 -0.2518
42289SOL     OW30397   3.822   8.032   7.580 -0.2578  0.3114  0.2442
42289SOL    HW130398   3.766   8.096   7.536 -0.7997 -0.0910  0.3376
42289SOL    HW230399   3.821   7.955   7.522 -1.6833 -0.5528  1.3349
42290SOL     OW30400   2.185   0.807   1.466  0.0406  0.1966 -0.1658
42290SOL    HW130401   2.132   0.858   1.403  1.0111  1.2806 -0.1397
42290SOL    HW230402   2.220   0.735   1.414 -0.3045  0.2788 -0.5264
42291SOL     OW30403   8.713  11.043   3.652  0.6016  0.2266 -0.6664
42291SOL    HW130404   8.666  11.080   3.727 -1.1521  0.9831 -2.0612
42291SOL    HW230405   8.723  10.950   3.673 -1.9260 -0.0563 -0.4417
42292SOL     OW30406   8.963   3.663   7.870 -0.4064 -0.2286  0.2879
42292SOL    HW130407   8.893   3.714   7.830  0.8611  1.2387 -0.1423
42292SOL    HW230408   8.966   3.693   7.961 -0.3394 -0.3068  0.3117
42293SOL     OW30409  11.000   9.680   0.715 -0.1306 -0.0099  0.6800
42293SOL    HW130410  10.988   9.768   0.680 -1.8476  0.2039  1.6828
42293SOL    HW230411  11.028   9.693   0.806 -0.8752 -0.4613  0.9915
42294SOL     OW30412   7.838   8.647   7.927  0.1479 -0.0298  0.4753
42294SOL    HW130413   7.753   8.610   7.951 -0.2772 -0.0096 -0.9479
42294SOL    HW230414   7.821   8.700   7.850  1.3455  0.5113  0.5592
42295SOL     OW30415   5.555   8.157  10.488 -0.2133 -0.1624  0.3611
42295SOL    HW130416   5.573   8.196  10.403  0.6571 -0.3765  0.4371
42295SOL    HW230417   5.468   8.189  10.511 -0.1312  0.5326 -0.2506
42296SOL     OW30418   4.461   4.727  10.729  0.0688  0.0299  0.0227
42296SOL    HW130419   4.411   4.804  10.702  1.4781  0.9704 -0.0649
42296SOL    HW230420   4.421   4.700  10.811 -0.6109  0.7170 -0.0737
42297SOL     OW30421   2.343   1.512  10.191 -0.5762  0.0011  0.3237
42297SOL    HW130422   2.338   1.431  10.241  1.8200 -0.5922 -0.2934
42297SOL    HW230423   2.284   1.497  10.117 -0.7119 -0.8962  0.6010
42298SOL     OW30424   3.821   4.837   4.986 -0.3631 -0.0651 -0.1791
42298SOL    HW130425   3.858   4.762   4.941  0.6407  0.6933 -0.6529
42298SOL    HW230426   3.728   4.834   4.965 -0.8551 -2.5895  1.8795
42299SOL     OW30427  10.177   4.170   0.798 -0.7031 -0.1002  0.2901
42299SOL    HW130428  10.111   4.147   0.733  0.1433 -1.3584 -0.1559
42299SOL    HW230429  10.147   4.128   0.879 -0.6669 -0.3282  0.1861
42300SOL     OW30430  10.518   0.523   7.012  0.0061  0.5613 -0.4844
42300SOL    HW130431  10.605   0.485   7.000 -0.2406  0.0890 -0.8243
42300SOL    HW230432  10.477   0.468   7.079  0.1794  1.1521  0.1204
42301SOL     OW30433   5.915   7.657   4.090 -0.2862  0.1868 -0.0542
42301SOL    HW130434   5.981   7.662   4.020  0.4280 -1.1873  0.4720
42301SOL    HW230435   5.922   7.740   4.136 -0.2636  0.8259 -1.1563
42302SOL     OW30436   4.793   3.071   0.059  0.2105  0.7680  0.3276
42302SOL    HW130437   4.790   3.019  -0.021  0.3740 -1.5406  1.7284
42302SOL    HW230438   4.870   3.039   0.106 -1.1333  0.3967  2.4202
42303SOL     OW30439   1.688   4.157  10.156  0.1805  0.5251  0.1525
42303SOL    HW130440   1.737   4.179  10.077  1.1241 -0.0073  0.5749
42303SOL    HW230441   1.619   4.224  10.161  1.0181  1.4502 -0.3049
42304SOL     OW30442   2.315   8.205   6.104 -0.4844  0.1885  0.0259
42304SOL    HW130443   2.403   8.189   6.069 -1.0986 -0.9791 -1.0588
42304SOL    HW230444   2.289   8.121   6.141 -0.7062  0.8405  1.4124
42305SOL     OW30445   2.200   6.751   1.396  0.0679  0.2936 -0.0436
42305SOL    HW130446   2.280   6.699   1.404 -0.1693 -0.1083 -0.2242
42305SOL    HW230447   2.153   6.711   1.323 -1.1902 -0.6833  1.2426
42306SOL     OW30448   2.655   8.870   0.837 -0.3863  0.1757  0.7827
42306SOL    HW130449   2.598   8.944   0.819 -0.5319  0.0905  0.8941
42306SOL    HW230450   2.633   8.806   0.769  2.3659  1.6637 -1.7169
42307SOL     OW30451  10.225   2.646   8.989 -0.3269 -0.1742 -0.6979
42307SOL    HW130452  10.269   2.574   9.035  0.2081  0.7885  0.3551
42307SOL    HW230453  10.166   2.603   8.928  0.9812 -1.5140 -1.0794
42308SOL     OW30454   5.924  10.419   1.553 -0.6218  0.1061 -0.3207
42308SOL    HW130455   5.917  10.509   1.587 -0.0844 -0.2738  0.8601
42308SOL    HW230456   5.879  10.422   1.469 -0.2862  1.5793 -0.4902
42309SOL     OW30457   7.521   9.440   6.645  0.0064 -0.3601 -0.3769
42309SOL    HW130458   7.483   9.424   6.558 -0.6238 -1.4634  0.0769
42309SOL    HW230459   7.491   9.527   6.669  0.0921 -0.0939 -1.2191
42310SOL     OW30460   2.398   6.128  11.094  0.2764  0.8205  0.3859
42310SOL    HW130461   2.337   6.166  11.030 -0.6743 -0.4683  0.4833
42310SOL    HW230462   2.483   6.165  11.070  0.3669 -1.1579 -3.0067
42311SOL     OW30463   2.675  10.580   6.073  0.1817 -0.8595  0.0783
42311SOL    HW130464   2.764  10.595   6.103  0.3889 -0.4936 -0.6956
42311SOL    HW230465   2.625  10.560   6.153  1.0232 -1.4384  0.4749
42312SOL     OW30466   7.059   3.480   8.391 -0.2932  0.4498  0.3683
42312SOL    HW130467   7.095   3.550   8.337  0.7370  0.0374  0.4942
42312SOL    HW230468   7.074   3.508   8.481 -0.9095  0.5843  0.4308
42313SOL     OW30469   0.357   4.266   8.419 -0.4653 -0.6243  0.2083
42313SOL    HW130470   0.341   4.357   8.393  0.1392 -0.3083  0.9294
42313SOL    HW230471   0.302   4.253   8.496  0.5709 -0.4013  1.0032
42314SOL     OW30472   8.971   6.337   2.686  0.5596  0.0765 -0.3175
42314SOL    HW130473   8.903   6.288   2.732  1.4946 -0.3469  0.6473
42314SOL    HW230474   8.998   6.406   2.747  2.2411 -0.8612  0.0660
42315SOL     OW30475   6.012   2.355   7.968 -0.0514 -0.0864 -0.6775
42315SOL    HW130476   5.951   2.409   7.918  0.1406  0.8916  0.1183
42315SOL    HW230477   6.074   2.418   8.006  2.0090 -1.0918 -2.1798
42316SOL     OW30478   3.672   9.525   5.603  0.2495 -0.1732 -0.3316
42316SOL    HW130479   3.630   9.444   5.633 -1.3490  0.5181 -0.6254
42316SOL    HW230480   3.599   9.584   5.583  1.3550  0.8368 -1.5368
42317SOL     OW30481   2.353   7.116   0.724  0.2999  0.2695  0.1945
42317SOL    HW130482   2.346   7.064   0.804  0.6535 -0.0454  0.0228
42317SOL    HW230483   2.275   7.172   0.725 -0.4758 -0.7900  0.0003
42318SOL     OW30484   2.306   7.413   0.525 -0.3572 -0.0554  0.1146
42318SOL    HW130485   2.314   7.504   0.553 -4.3694  0.4510  0.0903
42318SOL    HW230486   2.328   7.362   0.603 -0.5611  1.0019  0.8749
42319SOL     OW30487   9.228   2.718  10.333 -0.2668  0.2514  0.0725
42319SOL    HW130488   9.280   2.645  10.298  0.2379  0.7593 -0.2692
42319SOL    HW230489   9.173   2.679  10.400  0.3166 -0.3667  0.2033
42320SOL     OW30490   3.487   6.375   3.158 -0.3605 -0.1312 -0.2681
42320SOL    HW130491   3.482   6.466   3.127 -0.7660 -0.2655 -0.6080
42320SOL    HW230492   3.405   6.361   3.206 -0.0688 -0.1593  0.2211
42321SOL     OW30493   2.228   8.240   3.310  0.2369 -0.2040 -0.3121
42321SOL    HW130494   2.246   8.333   3.323  1.6198 -0.3678 -0.8855
42321SOL    HW230495   2.250   8.200   3.393 -1.0006  0.0475  0.1540
42322SOL     OW30496   7.420   9.305   1.997  0.0026 -0.1021 -0.2415
42322SOL    HW130497   7.497   9.361   1.989  0.6460 -1.0125 -0.4063
42322SOL    HW230498   7.358   9.342   1.934  1.3379 -1.0724 -2.2008
42323SOL     OW30499   3.560   7.841  10.558 -0.1505  0.4617  0.3132
42323SOL    HW130500   3.579   7.790  10.479 -0.3449 -1.1672  1.2580
42323SOL    HW230501   3.513   7.779  10.615 -1.5235  2.0916  1.0349
42324SOL     OW30502   5.466   2.650   9.407  0.0009  0.3034  0.8688
42324SOL    HW130503   5.436   2.588   9.341  1.7049  0.3892 -0.0602
42324SOL    HW230504   5.482   2.596   9.485 -2.1333  0.2209  1.2918
42325SOL     OW30505   1.331   9.460   7.271 -1.0060  0.0364 -0.4592
42325SOL    HW130506   1.357   9.552   7.265  2.7066 -0.7891  0.4186
42325SOL    HW230507   1.285   9.454   7.355  2.1696  0.5565  1.4874
42326SOL     OW30508   6.247   1.534   0.622  0.3979 -0.0801 -0.0473
42326SOL    HW130509   6.298   1.453   0.628  0.5413 -0.1023 -1.3472
42326SOL    HW230510   6.312   1.602   0.604  0.4241  0.5440  2.1519
42327SOL     OW30511   1.208   6.170   2.255 -0.1910 -1.2834  0.4541
42327SOL    HW130512   1.168   6.118   2.325 -1.1393 -2.2654 -0.7664
42327SOL    HW230513   1.299   6.143   2.255 -0.3939 -1.9910  0.6859
42328SOL     OW30514   6.324   2.973  11.039 -0.1728  0.6014 -0.2601
42328SOL    HW130515   6.354   2.936  11.121  0.6809  2.7837  0.5065
42328SOL    HW230516   6.230   2.952  11.035 -0.0903 -0.0703  0.9666
42329SOL     OW30517   0.026   6.588   9.043  0.4215  0.2230 -0.1673
42329SOL    HW130518   0.042   6.646   9.117 -1.0080 -2.7386  2.7032
42329SOL    HW230519  -0.068   6.600   9.024  0.6065  0.3839 -1.0023
42330SOL     OW30520   5.350   2.217   1.760 -0.4031 -0.0917 -0.6269
42330SOL    HW130521   5.281   2.166   1.803  0.4065 -0.7258 -0.0547
42330SOL    HW230522   5.340   2.306   1.794 -1.4953  0.0378 -1.2329
42331SOL     OW30523   7.908   8.581  11.042 -0.1105 -0.2812  0.0507
42331SOL    HW130524   7.954   8.586  11.126 -1.5131  1.0655  0.7881
42331SOL    HW230525   7.819   8.609  11.062  0.0652  2.3696 -2.2872
42332SOL     OW30526   3.385   7.332   1.592  0.5935 -0.6694 -0.4935
42332SOL    HW130527   3.472   7.305   1.621  0.5808  0.8596  1.1920
42332SOL    HW230528   3.348   7.254   1.552  0.9453 -2.9227  3.0595
42333SOL     OW30529   1.180   2.836   0.377  0.0779 -0.1371  0.0859
42333SOL    HW130530   1.166   2.838   0.282 -2.0669 -1.0037  0.3371
42333SOL    HW230531   1.097   2.806   0.413  0.6131  0.8986  2.3235
42334SOL     OW30532   2.517   2.639   8.939  0.0248  0.1447  0.3025
42334SOL    HW130533   2.522   2.637   8.844 -0.0861  0.1390  0.2965
42334SOL    HW230534   2.519   2.548   8.966  0.0479  0.1460  0.3054
42335SOL     OW30535   8.137   8.850   5.679 -0.4586  0.0473 -0.0108
42335SOL    HW130536   8.159   8.761   5.705 -1.0676 -0.2170 -0.3787
42335SOL    HW230537   8.111   8.893   5.761  0.6147  0.1375  0.2998
42336SOL     OW30538   2.458   1.652   4.406 -0.3360  0.0331  0.0494
42336SOL    HW130539   2.534   1.599   4.432  0.2448  1.5507  1.6399
42336SOL    HW230540   2.450   1.638   4.312  1.5558 -0.6375 -0.0529
42337SOL     OW30541   4.156  10.746   4.676 -0.4752  0.1955 -0.2251
42337SOL    HW130542   4.087  10.685   4.649  0.0044  0.0027 -1.0535
42337SOL    HW230543   4.140  10.824   4.624  0.1950 -0.0157 -0.7622
42338SOL     OW30544   1.502   3.100   0.320  0.5239 -0.1642  0.4672
42338SOL    HW130545   1.420   3.058   0.344  0.6749 -1.1910 -0.6875
42338SOL    HW230546   1.477   3.189   0.293  0.0826  0.2349  2.0841
42339SOL     OW30547   7.615   1.616   7.213  0.1093 -0.1578 -0.2482
42339SOL    HW130548   7.614   1.698   7.262  0.5624 -0.1937 -0.1748
42339SOL    HW230549   7.688   1.566   7.251  0.0525 -0.4509 -0.5192
42340SOL     OW30550   4.466   7.052   3.616  0.1159  0.8974  0.4117
42340SOL    HW130551   4.404   7.101   3.561  0.8644  0.0289 -1.2497
42340SOL    HW230552   4.496   7.117   3.680 -0.6861  1.9865 -0.2646
42341SOL     OW30553   9.013   3.101   6.478 -0.1153 -0.0582  0.4495
42341SOL    HW130554   8.990   3.099   6.385 -0.4396 -1.3320  0.5472
42341SOL    HW230555   8.988   3.015   6.511 -2.1279  1.1055  2.2258
42342SOL     OW30556   5.565   3.764   6.385 -0.2846 -0.4479 -0.0922
42342SOL    HW130557   5.659   3.782   6.389 -0.1293  0.0343 -3.1260
42342SOL    HW230558   5.527   3.816   6.456  1.4814  1.7703 -0.6546
42343SOL     OW30559   0.985   2.284   2.821 -0.3621  0.1366 -0.3213
42343SOL    HW130560   1.003   2.294   2.915  0.2315 -1.8678 -0.1782
42343SOL    HW230561   0.893   2.309   2.811 -0.2612  0.9550  0.6879
42344SOL     OW30562   6.594   4.092   9.122  0.1631  0.2555 -0.0960
42344SOL    HW130563   6.510   4.108   9.078  0.2526  1.6005  0.1869
42344SOL    HW230564   6.573   4.030   9.192 -0.1568 -1.1831 -1.4116
42345SOL     OW30565   0.419   1.245   3.717 -0.4477  0.2399  0.0913
42345SOL    HW130566   0.473   1.181   3.670 -0.2469  1.4106 -1.3428
42345SOL    HW230567   0.334   1.202   3.727 -0.1357 -0.4890 -0.3011
42346SOL     OW30568   5.090   3.731   8.247 -0.8817  0.5018  0.7049
42346SOL    HW130569   5.022   3.739   8.180 -0.6928 -0.9519  0.2986
42346SOL    HW230570   5.069   3.799   8.311 -2.1880  0.6712  0.1319
42347SOL     OW30571   8.672   7.764   4.129 -0.0973  0.4221 -0.3839
42347SOL    HW130572   8.701   7.706   4.059  0.5715  0.1230  0.1328
42347SOL    HW230573   8.577   7.751   4.132 -0.0808  0.1349 -0.9626
42348SOL     OW30574   5.338   0.842   5.136  0.0225 -0.5636  0.5426
42348SOL    HW130575   5.290   0.923   5.154  0.0928 -0.5610  0.7156
42348SOL    HW230576   5.269   0.777   5.118 -0.0357 -0.4866  0.4867
42349SOL     OW30577   2.073   6.774   4.153 -0.2085 -0.3513 -0.2964
42349SOL    HW130578   2.034   6.812   4.075 -0.3647  0.6080  0.2278
42349SOL    HW230579   2.014   6.798   4.224  0.6002 -0.0610  0.3066
42350SOL     OW30580  10.179   1.643   2.155  0.0925 -0.6804  0.1755
42350SOL    HW130581  10.215   1.660   2.242 -1.6247 -1.5855  1.1151
42350SOL    HW230582  10.255   1.646   2.097  1.1562  0.8485  1.5519
42351SOL     OW30583   1.812   5.032   9.628 -0.7535  0.2306 -0.0933
42351SOL    HW130584   1.751   5.096   9.592  1.2765  1.0932 -2.3407
42351SOL    HW230585   1.888   5.084   9.654 -0.3857 -0.9471  1.2770
42352SOL     OW30586   1.288   9.702   3.834  0.6264  0.5310  0.4229
42352SOL    HW130587   1.321   9.758   3.904  1.2894  1.0472 -0.2859
42352SOL    HW230588   1.203   9.671   3.865 -0.9280  3.8479 -0.1267
42353SOL     OW30589   1.805   5.135   1.193 -0.2753  0.0522 -0.2460
42353SOL    HW130590   1.830   5.197   1.262 -0.3527 -0.4628  0.2588
42353SOL    HW230591   1.867   5.062   1.203 -0.5400 -0.2074 -0.4616
42354SOL     OW30592   5.668   7.929   5.026  0.1517 -0.6298  0.1077
42354SOL    HW130593   5.688   7.862   4.961 -0.2749  0.3259 -1.0415
42354SOL    HW230594   5.752   7.948   5.067  0.5400 -0.7929 -0.6024
42355SOL     OW30595   1.586  10.113   1.842  0.0437 -0.3027 -0.1527
42355SOL    HW130596   1.527  10.188   1.845 -1.5243 -1.1716 -3.7497
42355SOL    HW230597   1.557  10.057   1.914 -0.0049  1.6021  1.3897
42356SOL     OW30598   7.976   9.373   7.995 -0.1007  0.0043  0.0226
42356SOL    HW130599   7.892   9.371   8.042  0.0386 -0.8901  0.2599
42356SOL    HW230600   8.000   9.465   7.992 -2.5090  0.7031 -2.5959
42357SOL     OW30601   8.353   5.284   7.617 -0.3748  0.0395 -0.0459
42357SOL    HW130602   8.300   5.344   7.668  0.4181  1.4464 -0.8132
42357SOL    HW230603   8.295   5.254   7.547 -0.8075 -0.1898  0.4036
42358SOL     OW30604   6.797   5.814   8.132 -0.4210  0.2043 -0.6549
42358SOL    HW130605   6.813   5.907   8.116  2.1953 -0.5127 -3.2238
42358SOL    HW230606   6.885   5.776   8.142 -1.3288 -2.1382 -0.8130
42359SOL     OW30607  10.669   7.648   8.512  0.2493  0.6739  0.1942
42359SOL    HW130608  10.742   7.708   8.530  0.7146 -0.1094  0.9617
42359SOL    HW230609  10.598   7.679   8.568  0.9273 -0.2960  1.6280
42360SOL     OW30610   2.315   4.009   9.562 -0.5236 -0.2268  0.4702
42360SOL    HW130611   2.274   4.065   9.628 -1.7722 -1.1989  0.5564
42360SOL    HW230612   2.362   3.943   9.613 -0.1102 -0.0192  0.3662
42361SOL     OW30613   6.293   2.794   1.125 -0.4281  0.2365 -0.2357
42361SOL    HW130614   6.380   2.832   1.140 -0.6479  0.4464  0.5627
42361SOL    HW230615   6.271   2.753   1.209 -0.4695 -1.1148 -0.8888
42362SOL     OW30616  10.887   3.185   4.392  0.0642  0.1590  0.7404
42362SOL    HW130617  10.795   3.181   4.365 -0.1909  2.1607  1.1663
42362SOL    HW230618  10.934   3.217   4.315  0.4634 -0.9699  0.4863
42363SOL     OW30619   7.662   3.755   1.459 -0.3358 -0.1278  0.1717
42363SOL    HW130620   7.738   3.758   1.400  0.5835  2.1592  1.3786
42363SOL    HW230621   7.670   3.670   1.503  1.8955  0.2752  0.6860
42364SOL     OW30622   6.952   5.995   0.722 -0.5379  0.1109  0.4487
42364SOL    HW130623   7.036   5.962   0.753  0.7802  1.1289 -1.7385
42364SOL    HW230624   6.929   5.938   0.649 -0.1430  1.6235 -0.9243
42365SOL     OW30625   6.775   8.593  10.479 -0.0353 -0.0048 -0.0139
42365SOL    HW130626   6.861   8.566  10.512  1.3787  1.5468 -2.1655
42365SOL    HW230627   6.759   8.678  10.519 -0.2332  0.0356 -0.1769
42366SOL     OW30628   8.330   3.174   7.376  0.6251  0.2606  0.1505
42366SOL    HW130629   8.390   3.164   7.303  2.3638  2.4570  1.1379
42366SOL    HW230630   8.267   3.240   7.347  1.3897  1.2255  0.6161
42367SOL     OW30631   1.399   0.285  10.356 -0.3434 -0.2699  0.3014
42367SOL    HW130632   1.464   0.221  10.385 -0.3859 -0.6677 -0.4518
42367SOL    HW230633   1.340   0.235  10.299 -0.9062  0.2401  0.4211
42368SOL     OW30634   2.267   0.639   4.729 -0.1805  0.2976 -0.3879
42368SOL    HW130635   2.271   0.552   4.690 -1.1358  0.2749 -0.4669
42368SOL    HW230636   2.358   0.664   4.744  0.1772 -0.0118 -1.9083
42369SOL     OW30637   4.063   8.354   4.551  0.2119 -0.1109  0.3815
42369SOL    HW130638   4.020   8.374   4.467  1.2252 -0.8136 -0.3223
42369SOL    HW230639   4.001   8.296   4.596 -0.0844 -0.2023 -0.1348
42370SOL     OW30640   2.728   5.951   8.443 -0.0442 -0.3450 -0.5294
42370SOL    HW130641   2.700   5.911   8.360 -1.4779  2.8711 -1.7588
42370SOL    HW230642   2.821   5.970   8.430 -0.0320 -0.6908 -1.0040
42371SOL     OW30643   6.213   6.728   6.213 -0.1300 -0.1529 -0.2425
42371SOL    HW130644   6.170   6.661   6.160 -1.6921  0.3649  0.2928
42371SOL    HW230645   6.157   6.806   6.202  1.0624  0.7668 -0.0393
42372SOL     OW30646   2.724   5.437   9.246 -0.0897  0.0170  0.4630
42372SOL    HW130647   2.702   5.474   9.331 -1.1892  0.5037 -0.0143
42372SOL    HW230648   2.654   5.467   9.188 -0.3611 -1.7932 -0.2236
42373SOL     OW30649  11.006   8.913   3.572  0.5962  0.8894  0.0426
42373SOL    HW130650  10.931   8.921   3.631 -0.1102  0.9581 -0.8441
42373SOL    HW230651  10.990   8.832   3.523  1.6242  0.3589  0.5431
42374SOL     OW30652   2.988   4.277   8.164 -0.2785  0.2892  0.2194
42374SOL    HW130653   2.915   4.338   8.175 -0.8280 -0.3048 -0.0379
42374SOL    HW230654   3.055   4.327   8.117 -2.3779 -0.4591 -4.0461
42375SOL     OW30655   5.164   9.038   7.966  0.1581 -0.4760 -0.1184
42375SOL    HW130656   5.148   9.002   7.879 -0.5824 -0.7303  0.1148
42375SOL    HW230657   5.078   9.069   7.996  0.9706  3.1487 -1.0054
42376SOL     OW30658   1.418   2.045  10.265 -0.4123 -0.1226  0.2133
42376SOL    HW130659   1.386   2.121  10.216 -1.3315  0.2313  1.3161
42376SOL    HW230660   1.339   1.996  10.288 -0.2730  0.7982  3.0448
42377SOL     OW30661   9.078   5.289   4.307  0.0061 -0.2214  0.2128
42377SOL    HW130662   9.167   5.284   4.343  0.8528  0.6099 -1.6181
42377SOL    HW230663   9.072   5.213   4.250 -0.0621  0.2961 -0.4732
42378SOL     OW30664   9.038   1.366   7.617 -0.4124  0.3808  0.5819
42378SOL    HW130665   9.118   1.316   7.602 -0.3233  0.2057  1.5702
42378SOL    HW230666   8.967   1.305   7.599 -0.3078  0.1055  1.0811
42379SOL     OW30667   1.671   0.247   1.171  0.0500  0.0452 -0.3266
42379SOL    HW130668   1.630   0.283   1.092 -1.3157  0.3072  0.4712
42379SOL    HW230669   1.647   0.154   1.171 -1.6258  0.4310  0.7432
42380SOL     OW30670   6.793   4.713   8.428  0.4236 -0.1973  0.2692
42380SOL    HW130671   6.774   4.803   8.401 -0.6099 -0.5753 -0.3463
42380SOL    HW230672   6.804   4.718   8.523  0.0976  0.5352  0.2738
42381SOL     OW30673   1.565   6.226   0.551 -0.3279 -0.3936 -0.1333
42381SOL    HW130674   1.485   6.259   0.593  0.4439 -0.4943  1.4888
42381SOL    HW230675   1.536   6.198   0.464 -1.7081  1.2189 -0.2599
42382SOL     OW30676   7.198   9.587   9.325  0.3824  0.5123 -0.5988
42382SOL    HW130677   7.209   9.658   9.262  1.3871 -0.8193 -2.0164
42382SOL    HW230678   7.285   9.549   9.335  0.0714  0.1082  0.9317
42383SOL     OW30679   8.946   9.694   6.467  0.1083  0.1094  0.2029
42383SOL    HW130680   8.967   9.742   6.386  1.1365 -0.6943 -0.0375
42383SOL    HW230681   8.851   9.700   6.475 -0.1164 -0.4934 -1.5462
42384SOL     OW30682  10.832   2.145   4.868 -0.1195 -0.3018  0.4463
42384SOL    HW130683  10.822   2.138   4.962  0.0149 -1.7638  0.3730
42384SOL    HW230684  10.812   2.058   4.835 -2.2346  0.6793 -1.0824
42385SOL     OW30685   9.174   2.968   3.825 -0.0791  0.3333  0.4534
42385SOL    HW130686   9.221   2.900   3.873  0.7371  0.1067 -0.6342
42385SOL    HW230687   9.175   3.044   3.883  0.0145 -0.2282  1.1960
42386SOL     OW30688   8.959   5.681  10.463  0.0555 -0.3164 -0.1852
42386SOL    HW130689   9.041   5.722  10.490 -1.0029  2.2994 -0.6775
42386SOL    HW230690   8.919   5.651  10.545  0.9386 -0.5029  0.1790
42387SOL     OW30691   1.962   9.880   2.334  0.0369  0.8646  0.2879
42387SOL    HW130692   1.993   9.842   2.252  1.1056  1.9015  0.1848
42387SOL    HW230693   2.008   9.964   2.340  0.7496  0.3645  2.4545
42388SOL     OW30694   2.212   0.419   2.628  0.3068 -0.1814  0.2512
42388SOL    HW130695   2.253   0.336   2.650 -0.0251  0.0464  1.9453
42388SOL    HW230696   2.133   0.422   2.683 -0.4530  0.6337 -0.8282
42389SOL     OW30697   4.665  10.708   4.333  0.2996  0.3328  0.4070
42389SOL    HW130698   4.598  10.720   4.266  1.4974  0.9545 -0.7272
42389SOL    HW230699   4.648  10.778   4.396 -0.4577  0.1292  0.4411
42390SOL     OW30700   2.427   7.140   8.295  0.0770 -0.2152  0.5515
42390SOL    HW130701   2.381   7.109   8.373 -0.6614  0.7950  0.5338
42390SOL    HW230702   2.512   7.170   8.327 -0.2949  0.3739  1.0058
42391SOL     OW30703   7.186   2.716   9.357 -0.2056 -0.2666  0.4567
42391SOL    HW130704   7.241   2.659   9.302  2.7088  1.0252  1.8436
42391SOL    HW230705   7.150   2.780   9.296  0.9805 -0.3005 -0.3078
42392SOL     OW30706   1.318   9.413   9.329  0.1198 -0.3034  0.2925
42392SOL    HW130707   1.328   9.328   9.286 -1.8105 -0.7216  0.5836
42392SOL    HW230708   1.254   9.460   9.275 -1.6003 -0.4612  2.0922
42393SOL     OW30709   4.142   7.677   7.361  0.4041 -0.2347 -0.2113
42393SOL    HW130710   4.174   7.721   7.282  1.7142 -0.5609  0.1021
42393SOL    HW230711   4.209   7.697   7.427 -0.8361  0.3174  0.9199
42394SOL     OW30712   7.637   5.731   4.062 -1.1536 -0.3894 -0.1627
42394SOL    HW130713   7.712   5.695   4.015  0.0598 -0.3547  1.6315
42394SOL    HW230714   7.602   5.658   4.112 -1.1099  0.0047  0.4628
42395SOL     OW30715   6.867   5.069   0.516 -0.8243  0.4089 -0.3879
42395SOL    HW130716   6.949   5.042   0.474 -1.0417  0.8445 -1.1156
42395SOL    HW230717   6.870   5.165   0.514 -0.5204  0.4565  1.2527
42396SOL     OW30718   2.476   9.335  10.516 -0.9825  0.1057  0.5339
42396SOL    HW130719   2.412   9.406  10.518 -0.9126  0.1985 -0.2550
42396SOL    HW230720   2.554   9.374  10.475 -1.5145 -0.8680 -1.5334
42397SOL     OW30721   8.054   7.832   7.974 -0.2251 -0.5480  0.2237
42397SOL    HW130722   8.145   7.842   8.002 -0.2105 -0.0677  0.0107
42397SOL    HW230723   8.058   7.830   7.878 -0.3685 -1.2668  0.2195
42398SOL     OW30724   8.386   1.527   7.021 -0.6690 -0.1983 -0.3575
42398SOL    HW130725   8.457   1.493   6.966 -0.5481  0.1507 -0.4227
42398SOL    HW230726   8.384   1.470   7.097 -0.6001 -0.4703 -0.5586
42399SOL     OW30727   0.157   9.496   0.092 -0.3287 -0.4767 -0.0359
42399SOL    HW130728   0.078   9.550   0.102  0.4462  0.8831 -0.8260
42399SOL    HW230729   0.229   9.558   0.105  0.6031 -1.4443 -0.5047
42400SOL     OW30730   4.186   6.669   6.455 -0.2230 -0.3365 -0.1582
42400SOL    HW130731   4.170   6.763   6.462  1.9633  0.0292  0.4348
42400SOL    HW230732   4.124   6.630   6.517  0.2843  0.8715  1.1642
42401SOL     OW30733   0.293   4.231   3.034  0.1841  0.0342 -0.3806
42401SOL    HW130734   0.212   4.257   2.990 -1.3211 -0.4908  1.9131
42401SOL    HW230735   0.361   4.285   2.993 -1.3389  0.6801 -2.1948
42402SOL     OW30736   7.810   9.161   1.669 -0.1294 -0.0668  0.9057
42402SOL    HW130737   7.807   9.216   1.590 -0.9998  0.9031  1.5725
42402SOL    HW230738   7.836   9.075   1.637 -1.3779  0.0539 -0.6076
42403SOL     OW30739   7.496   1.606   6.966 -0.1821 -0.3577  0.1299
42403SOL    HW130740   7.492   1.511   6.956  0.1961 -0.2287 -1.6594
42403SOL    HW230741   7.535   1.620   7.052  0.1923 -1.8363  0.2234
42404SOL     OW30742   9.691   0.365   3.503  0.3439  0.3957  0.0881
42404SOL    HW130743   9.739   0.436   3.461  1.3082  0.4726  1.2665
42404SOL    HW230744   9.722   0.285   3.460 -0.6143  0.6363 -1.1156
42405SOL     OW30745   2.534   9.045  11.113 -0.2471  0.2969 -0.3192
42405SOL    HW130746   2.525   9.075  11.022 -0.6452  0.2552 -0.2936
42405SOL    HW230747   2.588   8.965  11.107 -3.6160 -2.1320 -0.9988
42406SOL     OW30748   3.173   2.172   5.879  0.3798 -0.1948  0.3324
42406SOL    HW130749   3.110   2.161   5.950  1.0801 -0.5030  0.9216
42406SOL    HW230750   3.139   2.116   5.809 -0.9949  1.0844 -0.0746
42407SOL     OW30751   7.549   9.593   8.563  0.2422  0.4369 -0.1716
42407SOL    HW130752   7.595   9.668   8.600  0.2863 -0.3962  1.5609
42407SOL    HW230753   7.575   9.592   8.470  0.3409  2.4509 -0.2100
42408SOL     OW30754   6.928   0.218   4.625  0.3506 -0.8815 -0.0682
42408SOL    HW130755   6.920   0.279   4.551 -0.1832  0.6512  1.1994
42408SOL    HW230756   6.860   0.245   4.686  0.2702 -2.6091  0.6777
42409SOL     OW30757   2.592   9.727   1.902  0.4351 -0.2491 -0.1815
42409SOL    HW130758   2.662   9.689   1.850  1.2115  1.9659 -0.8703
42409SOL    HW230759   2.551   9.792   1.845 -0.7031  0.0981  0.9660
42410SOL     OW30760   8.211   4.701   3.422  0.0208  0.4371 -0.0062
42410SOL    HW130761   8.300   4.693   3.388  1.1098  1.6217  2.2837
42410SOL    HW230762   8.173   4.614   3.412  0.2253  0.6471 -3.9614
42411SOL     OW30763   3.291   6.972   3.084 -0.6141 -0.3015  0.0644
42411SOL    HW130764   3.240   6.906   3.132 -1.1569  0.3446  0.3854
42411SOL    HW230765   3.264   6.961   2.993 -1.1294 -0.1333  0.1980
42412SOL     OW30766   5.173   2.704   1.684  0.2911 -0.0898 -0.0953
42412SOL    HW130767   5.079   2.712   1.701  0.2774 -1.6637  0.6496
42412SOL    HW230768   5.179   2.643   1.611  0.8084 -2.1972  1.6231
42413SOL     OW30769   4.902   7.387  10.258 -0.7403 -0.5206 -0.2066
42413SOL    HW130770   4.944   7.415  10.340 -1.1233  1.5001 -0.6316
42413SOL    HW230771   4.808   7.393  10.277 -0.8929  2.1012 -1.3479
42414SOL     OW30772   5.230   1.393   9.590  0.0425  0.1694 -0.2834
42414SOL    HW130773   5.255   1.301   9.587  0.3437  0.2164  0.4590
42414SOL    HW230774   5.293   1.437   9.532 -1.3958 -0.3411 -2.3270
42415SOL     OW30775   4.626   7.458   7.798  0.1255 -0.4401  0.5225
42415SOL    HW130776   4.559   7.430   7.735  2.5672 -1.0754 -1.9876
42415SOL    HW230777   4.649   7.378   7.845  1.6550 -1.1114 -1.2452
42416SOL     OW30778   0.257   2.872   3.895  0.1101 -0.4800 -0.3337
42416SOL    HW130779   0.213   2.809   3.839  1.2782 -2.7903  1.1801
42416SOL    HW230780   0.350   2.859   3.877  0.5275 -1.4098  2.1391
42417SOL     OW30781   0.263   0.919   0.974  0.3483 -0.1355  0.0140
42417SOL    HW130782   0.343   0.928   0.923 -0.6588  0.2372 -1.5726
42417SOL    HW230783   0.194   0.955   0.918 -0.8091  0.4113  1.7055
42418SOL     OW30784   1.775  10.597   2.425  0.2300 -0.2799  0.5787
42418SOL    HW130785   1.715  10.630   2.358 -0.2893 -0.3791  0.9815
42418SOL    HW230786   1.719  10.545   2.482  0.8562 -1.0103  0.5279
42419SOL     OW30787   7.778   3.540  10.107  0.1240 -0.7436  0.3100
42419SOL    HW130788   7.844   3.608  10.121  2.6502 -3.1329  0.8593
42419SOL    HW230789   7.704   3.567  10.160  1.5383  0.9277  1.5270
42420SOL     OW30790   8.336   5.921   4.191  0.5681  0.4111 -0.6087
42420SOL    HW130791   8.322   5.984   4.120  1.9443  2.0721  0.5070
42420SOL    HW230792   8.259   5.864   4.188 -0.5187  1.8535 -1.9731
42421SOL     OW30793   7.398  10.063   1.942 -0.3644 -0.4968 -0.5378
42421SOL    HW130794   7.326  10.084   1.882 -0.7224 -1.6661 -0.5526
42421SOL    HW230795   7.408   9.968   1.934 -0.2219 -0.6369  1.0202
42422SOL     OW30796   6.967   6.117   4.131  0.0219  0.2339  0.7407
42422SOL    HW130797   6.987   6.024   4.128  1.2471  0.4920 -1.3115
42422SOL    HW230798   6.886   6.123   4.181 -0.5306 -2.0108  0.2372
42423SOL     OW30799   1.574  10.950   6.826 -0.4454  0.4328 -0.2606
42423SOL    HW130800   1.545  10.877   6.771  0.2311  1.0449 -1.4714
42423SOL    HW230801   1.549  10.924   6.915 -1.6036 -0.5644 -0.8436
42424SOL     OW30802   0.879   2.376   5.296  0.1481 -0.6253  0.4265
42424SOL    HW130803   0.791   2.349   5.270  0.2443 -0.7673  0.2385
42424SOL    HW230804   0.866   2.433   5.371 -0.1603  0.0284 -0.1128
42425SOL     OW30805   3.869   4.945  11.045 -0.3129  0.2695  0.1679
42425SOL    HW130806   3.848   4.997  10.967 -2.4842 -1.3284 -0.3997
42425SOL    HW230807   3.846   5.001  11.119  1.5315  1.7104 -0.2733
42426SOL     OW30808   7.670   9.494   1.661 -0.4617 -0.2551  0.3642
42426SOL    HW130809   7.628   9.579   1.674 -0.7474 -0.4321  0.6150
42426SOL    HW230810   7.738   9.490   1.729  1.3905  0.9041 -1.3002
42427SOL     OW30811   6.671   4.836   3.800  0.5701  0.0486  0.2224
42427SOL    HW130812   6.587   4.794   3.822  0.9622 -0.2750  1.1325
42427SOL    HW230813   6.721   4.836   3.882  0.4001  2.8024  0.4368
42428SOL     OW30814   9.615   5.543   1.224  0.4629  0.0043  0.5985
42428SOL    HW130815   9.590   5.535   1.132 -0.8684 -1.8320  1.0841
42428SOL    HW230816   9.632   5.637   1.235  0.1785  0.3442 -1.3827
42429SOL     OW30817   7.040   4.839   7.227  0.0930  0.1610  0.2921
42429SOL    HW130818   7.025   4.756   7.273  2.1613 -0.4914 -0.0804
42429SOL    HW230819   7.094   4.891   7.287  1.5133 -0.0903 -0.6919
42430SOL     OW30820   5.082   3.913   8.933  0.0686 -0.1888  0.4739
42430SOL    HW130821   5.149   3.971   8.895 -1.9122  2.1410  0.2881
42430SOL    HW230822   5.084   3.835   8.877  1.9577  0.2210 -0.1005
42431SOL     OW30823   9.079   1.599   6.298 -0.1145  0.4816 -0.1243
42431SOL    HW130824   9.129   1.528   6.258 -0.5842  0.2563 -0.3159
42431SOL    HW230825   9.120   1.679   6.264  0.9092  0.3251  0.6926
42432SOL     OW30826   1.670   2.167   4.904 -0.2352  0.0274  0.0491
42432SOL    HW130827   1.661   2.167   4.999 -1.6536 -1.7377 -0.0346
42432SOL    HW230828   1.761   2.140   4.889 -0.4779 -1.3959  0.9319
42433SOL     OW30829  10.053   5.012   7.064  0.0791  0.3497  0.2944
42433SOL    HW130830  10.087   4.956   6.994  0.0799  1.5935 -0.7411
42433SOL    HW230831   9.963   5.033   7.036 -0.5997 -0.6549  1.6149
42434SOL     OW30832   6.058   5.022   4.246  0.4764  0.0232  0.7531
42434SOL    HW130833   6.107   5.053   4.323  0.1155  0.1538  0.9336
42434SOL    HW230834   6.120   4.966   4.199  1.6728  2.1227 -0.3538
42435SOL     OW30835   1.626   9.923   6.517 -0.1064  0.2503  0.0477
42435SOL    HW130836   1.566   9.982   6.472 -1.4395 -1.1661 -0.1187
42435SOL    HW230837   1.598   9.926   6.609 -1.1855 -1.1896 -0.1885
42436SOL     OW30838   9.924   9.045   7.461 -0.0593 -0.3321  0.4901
42436SOL    HW130839   9.829   9.035   7.450  0.0807 -0.9737 -0.2407
42436SOL    HW230840   9.942   9.135   7.434 -0.4145 -0.3189  0.2885
42437SOL     OW30841   6.765   4.679   7.692 -0.2652  0.9924 -0.4984
42437SOL    HW130842   6.747   4.687   7.786  1.4406  0.6875 -0.1051
42437SOL    HW230843   6.698   4.620   7.660 -0.1632  0.1363  0.7846
42438SOL     OW30844  10.768   7.251   0.550 -0.5840 -0.0409 -0.2122
42438SOL    HW130845  10.841   7.226   0.607  0.3152  1.6686 -0.5438
42438SOL    HW230846  10.731   7.168   0.520  1.0586 -0.9651  0.1954
42439SOL     OW30847   2.285   7.797   7.233 -0.7903  0.0488 -0.1572
42439SOL    HW130848   2.191   7.813   7.219 -0.6769  0.2661 -0.6654
42439SOL    HW230849   2.329   7.851   7.168 -0.3649 -1.3343 -1.0574
42440SOL     OW30850   8.030   5.695   1.776 -0.1949 -0.6349  0.0758
42440SOL    HW130851   7.948   5.693   1.727 -1.4642 -0.2070  2.0875
42440SOL    HW230852   8.045   5.604   1.801 -0.8597 -0.5255  0.9242
42441SOL     OW30853   9.542   5.232   3.864 -0.2879  0.3144  0.2884
42441SOL    HW130854   9.633   5.254   3.845 -1.1210  1.3057 -3.6010
42441SOL    HW230855   9.524   5.271   3.950  2.0362  3.2395 -0.3815
42442SOL     OW30856   3.673  10.619   2.089  0.2791 -0.6853  0.3644
42442SOL    HW130857   3.690  10.535   2.046 -0.3060 -0.3217 -0.6096
42442SOL    HW230858   3.758  10.664   2.087  0.6238 -1.2854  0.9983
42443SOL     OW30859  10.467   4.387   5.429 -0.3594  0.1365  0.0104
42443SOL    HW130860  10.529   4.418   5.495 -0.6450 -2.2379  1.5195
42443SOL    HW230861  10.430   4.306   5.466 -4.0202  1.1370 -1.0207
42444SOL     OW30862   8.105  10.699   9.270  0.7620 -0.1359 -0.2455
42444SOL    HW130863   8.013  10.685   9.295  0.5474  0.6367 -0.5513
42444SOL    HW230864   8.154  10.637   9.322 -0.0111 -1.1533 -0.6993
42445SOL     OW30865   8.801   8.203   8.784 -0.0277  0.4273 -0.3848
42445SOL    HW130866   8.751   8.212   8.865  1.9947  0.6566  0.8979
42445SOL    HW230867   8.786   8.285   8.737 -0.0331  0.9265  0.4725
42446SOL     OW30868   9.436   8.368   2.393 -0.0809 -0.4005 -0.0835
42446SOL    HW130869   9.412   8.389   2.483  0.0813  0.0918 -0.1526
42446SOL    HW230870   9.388   8.287   2.373 -1.0026  0.1057  0.0618
42447SOL     OW30871   8.030   6.233   3.322  0.0692 -0.5789 -0.2695
42447SOL    HW130872   7.962   6.296   3.345 -0.4470 -1.1292 -0.2682
42447SOL    HW230873   8.079   6.276   3.251  0.7980  0.5327  0.8673
42448SOL     OW30874   0.383   4.207   8.147 -0.0351  0.0760  0.4354
42448SOL    HW130875   0.393   4.300   8.127 -1.5418  0.3480  0.8162
42448SOL    HW230876   0.354   4.205   8.238 -0.6738 -0.7307  0.2224
42449SOL     OW30877   4.840   4.613   9.478 -0.3481  0.1769 -0.2946
42449SOL    HW130878   4.892   4.543   9.440  0.9730  1.3574 -0.7204
42449SOL    HW230879   4.811   4.666   9.403 -1.9079 -0.2605 -0.0425
42450SOL     OW30880  10.845   1.426   1.464  0.6306 -0.3962  0.2757
42450SOL    HW130881  10.773   1.366   1.482 -0.9466  1.3727  0.1746
42450SOL    HW230882  10.874   1.457   1.550  1.2527 -1.0579  0.3130
42451SOL     OW30883   9.044   9.095   7.828 -0.0974  0.4612  0.1663
42451SOL    HW130884   9.100   9.018   7.843  0.7319  0.2699 -3.1353
42451SOL    HW230885   9.105   9.169   7.832 -0.4619  0.7263  0.9602
42452SOL     OW30886   3.629   7.243   1.725 -0.5207 -0.2758  0.0709
42452SOL    HW130887   3.669   7.314   1.775 -1.1447 -0.5892  1.0371
42452SOL    HW230888   3.700   7.180   1.712 -0.9571 -1.5084  3.0176
42453SOL     OW30889  11.034   3.148   4.623 -0.3065 -0.4443 -0.2982
42453SOL    HW130890  10.978   3.169   4.549 -1.6083  1.6359  1.1649
42453SOL    HW230891  11.000   3.064   4.656  0.0068 -1.1646 -1.7186
42454SOL     OW30892   9.774   4.003  10.061 -0.2500  0.1921  0.3292
42454SOL    HW130893   9.778   4.060  10.138  1.8259 -0.3998  0.7300
42454SOL    HW230894   9.700   4.036  10.010 -2.4811 -0.1182  3.0876
42455SOL     OW30895  10.486   0.735  10.543  0.1194  0.2916 -0.0750
42455SOL    HW130896  10.535   0.772  10.617 -2.5404 -0.0503  2.0103
42455SOL    HW230897  10.515   0.644  10.537  0.0978  0.2212  0.8185
42456SOL     OW30898   2.128   6.008   6.122 -0.3499  0.3105  0.6071
42456SOL    HW130899   2.186   5.952   6.174  0.2209  0.7106  0.4119
42456SOL    HW230900   2.166   6.008   6.035 -0.3898  0.9233  0.5794
42457SOL     OW30901   4.938   4.258   1.439  0.4016 -0.6312 -0.0344
42457SOL    HW130902   4.935   4.185   1.500 -1.6029 -0.5130  0.0938
42457SOL    HW230903   4.896   4.224   1.359  2.5848 -0.6527 -1.2458
42458SOL     OW30904   0.654   7.432   0.733 -0.1363 -0.1127  0.0975
42458SOL    HW130905   0.732   7.458   0.781  0.0666  0.4572 -0.5224
42458SOL    HW230906   0.634   7.507   0.677 -1.3918 -0.0595  0.5647
42459SOL     OW30907   0.024   6.331   9.101  0.2032 -0.7552 -0.2303
42459SOL    HW130908   0.111   6.298   9.077  0.4220 -0.3960  0.0410
42459SOL    HW230909   0.024   6.422   9.069  0.5996 -0.1817  1.3360
42460SOL     OW30910   5.238   1.381   8.569 -0.0030  0.1484 -0.2685
42460SOL    HW130911   5.301   1.322   8.526 -0.9714 -2.1135  1.2194
42460SOL    HW230912   5.169   1.393   8.505  0.1328 -0.4952 -0.5470
42461SOL     OW30913  10.538   7.250   9.504  0.0395  0.3257  0.7555
42461SOL    HW130914  10.469   7.299   9.459 -1.0523 -1.3649  0.4790
42461SOL    HW230915  10.608   7.243   9.439  1.6971  4.2197  1.8408
42462SOL     OW30916   1.189   8.486  10.122 -0.2399  0.0532 -0.1280
42462SOL    HW130917   1.216   8.506  10.032 -0.3508  1.6754  0.1620
42462SOL    HW230918   1.219   8.396  10.137  3.2092  0.9910 -0.5212
42463SOL     OW30919  10.801   6.333   4.381  0.2239 -0.1749  0.3556
42463SOL    HW130920  10.706   6.338   4.384 -0.0505 -3.4038  0.4451
42463SOL    HW230921  10.822   6.330   4.287 -0.0803 -2.2223  0.3012
42464SOL     OW30922   3.716   9.016   1.257 -0.3135 -0.5125  0.1923
42464SOL    HW130923   3.645   8.993   1.197  1.2973 -0.2917 -1.9347
42464SOL    HW230924   3.793   8.972   1.220  1.2598  1.7385  0.5929
42465SOL     OW30925   3.678   1.754   8.280  0.0653 -0.0316 -0.5259
42465SOL    HW130926   3.716   1.816   8.342  0.1167 -2.3923  2.0287
42465SOL    HW230927   3.749   1.694   8.259 -1.0778 -2.1465  1.1700
42466SOL     OW30928   6.545   5.734   0.228  0.0546  0.3876 -0.1855
42466SOL    HW130929   6.640   5.729   0.221  0.1682  0.5964  0.8872
42466SOL    HW230930   6.529   5.818   0.272 -0.6686  0.6749 -0.9601
42467SOL     OW30931   9.298  10.069   3.425 -0.0002 -0.0020 -0.1681
42467SOL    HW130932   9.205  10.060   3.448  0.3397 -1.3612  0.7713
42467SOL    HW230933   9.320   9.988   3.380  0.9097 -0.0230  0.2886
42468SOL     OW30934  10.098   3.040   5.239  0.0981  0.0952  0.0455
42468SOL    HW130935  10.050   3.103   5.185 -0.3521  0.4371  0.8371
42468SOL    HW230936  10.075   3.062   5.329  0.8864 -0.4362  0.3905
42469SOL     OW30937   5.966   2.888   9.449 -0.3140  0.6984  0.2807
42469SOL    HW130938   5.884   2.847   9.478 -0.9093  0.9132 -1.0210
42469SOL    HW230939   5.943   2.931   9.367  1.3940 -0.2775 -0.7688
42470SOL     OW30940   2.851   8.946   2.045 -0.1361 -0.2526  0.3895
42470SOL    HW130941   2.808   9.004   1.982 -0.3958  0.6111  1.3342
42470SOL    HW230942   2.905   8.888   1.991  0.7339  1.3659 -0.5555
42471SOL     OW30943   5.559   8.001   2.181 -0.2228  0.0911  0.3123
42471SOL    HW130944   5.535   8.055   2.106  0.1157  0.0381  0.1646
42471SOL    HW230945   5.631   8.050   2.223  0.1712 -0.3100  0.1051
42472SOL     OW30946   9.186   5.821  10.493 -0.0731  0.2511 -0.3173
42472SOL    HW130947   9.226   5.884  10.554  0.6105  0.0921 -0.5903
42472SOL    HW230948   9.220   5.846  10.407 -1.2807  0.6729 -0.6925
42473SOL     OW30949   5.496  10.311   7.236  0.5013 -0.0748  0.4039
42473SOL    HW130950   5.536  10.285   7.319 -0.3954 -1.5295  0.4205
42473SOL    HW230951   5.542  10.258   7.170  0.4980  0.3054  0.0945
42474SOL     OW30952   9.109   5.002  11.085 -0.6710  0.0067 -0.6070
42474SOL    HW130953   9.149   5.008  11.171  1.8187 -0.2124 -1.6636
42474SOL    HW230954   9.058   4.921  11.089 -1.1277  0.3360  0.8419
42475SOL     OW30955   2.022   6.274   6.436  0.9444 -0.2716 -0.0682
42475SOL    HW130956   2.074   6.196   6.451  0.5154 -0.9848 -2.0000
42475SOL    HW230957   2.002   6.273   6.343 -1.8730  0.3726  0.4069
42476SOL     OW30958   0.712   1.922   8.260  0.6465  0.3589 -0.2389
42476SOL    HW130959   0.713   2.015   8.282  0.1760  0.6786 -1.4691
42476SOL    HW230960   0.656   1.917   8.182 -0.0054 -1.0667  0.3013
42477SOL     OW30961   7.906   2.755   3.561  0.1408 -0.1116 -0.4606
42477SOL    HW130962   7.956   2.750   3.643 -0.6155 -0.2701  0.0040
42477SOL    HW230963   7.934   2.679   3.511  0.8045  0.1301 -0.4652
42478SOL     OW30964   3.596  10.798   1.770  0.0502  0.1190 -0.0614
42478SOL    HW130965   3.593  10.874   1.828  0.0918  0.6775 -0.7773
42478SOL    HW230966   3.507  10.763   1.772  0.2343 -0.3320  0.9307
42479SOL     OW30967  10.753   7.396   5.402 -0.0144 -0.0474 -0.4343
42479SOL    HW130968  10.697   7.322   5.380 -2.7939  1.1133  2.0254
42479SOL    HW230969  10.749   7.401   5.498  4.3047  0.2714 -0.0799
42480SOL     OW30970   9.250   9.632   4.054 -0.8067  0.2748 -0.3402
42480SOL    HW130971   9.197   9.650   4.132 -0.9750  3.5456 -1.0496
42480SOL    HW230972   9.197   9.666   3.981  0.5369 -0.1250 -1.5415
42481SOL     OW30973   8.758   5.204   2.611  0.2390 -0.1552 -0.0332
42481SOL    HW130974   8.843   5.202   2.656 -0.7839 -1.7154  1.9871
42481SOL    HW230975   8.779   5.234   2.522  2.9270 -0.7366  0.3094
42482SOL     OW30976   8.305   4.988   0.212  0.4794 -0.5557 -0.9680
42482SOL    HW130977   8.282   5.072   0.251 -3.2324 -0.9110 -2.0543
42482SOL    HW230978   8.381   5.007   0.156  2.0189  1.1983  1.4976
42483SOL     OW30979   3.180   6.997   2.381  0.0322  0.4376  0.4991
42483SOL    HW130980   3.142   7.082   2.358 -1.9566 -0.5726 -0.2218
42483SOL    HW230981   3.167   6.943   2.303 -2.3588 -1.6426  2.1704
42484SOL     OW30982   0.857   4.264   0.087  0.0453 -0.3025  0.2143
42484SOL    HW130983   0.781   4.210   0.107  0.6264 -1.2226  0.0300
42484SOL    HW230984   0.931   4.217   0.127  0.4368  0.8847  0.9084
42485SOL     OW30985   2.947   8.133   4.181 -0.7975 -0.4453 -0.4439
42485SOL    HW130986   2.858   8.164   4.165 -0.6435 -0.1326 -0.7090
42485SOL    HW230987   2.938   8.070   4.253 -1.1534  0.0262 -0.0673
42486SOL     OW30988   1.248   0.173  10.160  0.5540 -0.2939 -0.6735
42486SOL    HW130989   1.280   0.160  10.070  1.3910  1.8907 -0.7560
42486SOL    HW230990   1.155   0.193  10.149  0.4443 -0.9189 -0.9566
42487SOL     OW30991   8.531   9.180   0.497 -0.3655  0.5716 -0.1856
42487SOL    HW130992   8.622   9.187   0.471 -0.9159  1.0158 -2.1296
42487SOL    HW230993   8.516   9.087   0.512  0.0415  0.3009 -1.3681
42488SOL     OW30994   6.383   3.328   1.178  0.0133  0.3252  0.3602
42488SOL    HW130995   6.408   3.340   1.086 -0.3785  0.5829  0.2859
42488SOL    HW230996   6.434   3.253   1.207 -0.6107 -0.3970 -0.3627
42489SOL     OW30997   8.634   5.028   3.756 -0.2631 -0.3758 -0.5867
42489SOL    HW130998   8.717   5.048   3.797 -0.6307 -1.0491  0.5228
42489SOL    HW230999   8.648   5.046   3.663  1.0738 -0.3650 -0.3967
42490SOL     OW31000   8.022   5.974   5.058 -0.0509 -0.0175  0.3903
42490SOL    HW131001   8.045   6.001   5.147 -0.5819 -1.0719  0.8655
42490SOL    HW231002   7.983   5.887   5.069 -0.6520  0.0841 -0.8123
42491SOL     OW31003   7.640   4.122   7.358  0.4091  0.2227  0.1089
42491SOL    HW131004   7.667   4.193   7.418  0.4459  0.3943 -0.1086
42491SOL    HW231005   7.547   4.138   7.343 -0.7972 -2.2924  3.5241
42492SOL     OW31006   7.900   0.900   1.251 -0.4389  0.2245  0.0054
42492SOL    HW131007   7.881   0.993   1.242 -1.2992 -0.0208 -1.0944
42492SOL    HW231008   7.814   0.859   1.263 -0.2166 -0.5333 -0.8171
42493SOL     OW31009   8.007   3.246   9.024  0.3875 -0.2334 -0.3036
42493SOL    HW131010   8.000   3.307   8.950  2.6325  1.0263  0.4242
42493SOL    HW231011   8.096   3.211   9.018  0.0265 -1.4406  0.8406
42494SOL     OW31012   2.236   4.018   5.065  0.6741  0.2937  0.0591
42494SOL    HW131013   2.238   4.100   5.114  0.7166  0.4963 -0.2788
42494SOL    HW231014   2.216   4.044   4.975  1.9580  0.0700 -0.3136
42495SOL     OW31015   2.949   9.042   1.697 -0.2856  0.3465 -0.4573
42495SOL    HW131016   2.953   8.958   1.744 -1.0336 -1.2719 -3.0974
42495SOL    HW231017   2.908   9.101   1.760  0.6835 -1.0844  1.6746
42496SOL     OW31018   3.225   9.756   7.954 -0.4556  0.0368 -0.2441
42496SOL    HW131019   3.227   9.666   7.987  0.7738 -0.1765 -0.8382
42496SOL    HW231020   3.139   9.789   7.980 -0.9342 -1.3108 -0.0227
42497SOL     OW31021  10.132   2.271   7.758  0.3579 -0.2975 -0.2976
42497SOL    HW131022  10.080   2.292   7.680  1.6486  0.6041 -0.9675
42497SOL    HW231023  10.159   2.180   7.744 -0.1142 -0.4130 -0.4870
42498SOL     OW31024  10.569   7.124  11.126  0.3576  0.4785  0.0233
42498SOL    HW131025  10.626   7.166  11.062  1.3398  0.4120  0.8263
42498SOL    HW231026  10.592   7.166  11.209 -1.1654  0.8349  0.2846
42499SOL     OW31027   0.815   6.296   7.642 -0.0840 -0.0117  0.5808
42499SOL    HW131028   0.907   6.270   7.641 -0.3992 -1.3634  1.9663
42499SOL    HW231029   0.789   6.293   7.550  1.1673  0.1082  0.1963
42500SOL     OW31030   9.989   9.014   7.119 -0.1802  0.0802 -0.7599
42500SOL    HW131031  10.079   8.982   7.131 -0.2334  0.1916 -0.0157
42500SOL    HW231032   9.994   9.072   7.044  0.0134 -1.3062 -1.8688
42501SOL     OW31033   2.419   7.206   2.889  0.1314 -0.4211 -0.8956
42501SOL    HW131034   2.431   7.297   2.917 -0.8063  0.0507 -1.9578
42501SOL    HW231035   2.327   7.187   2.909 -0.0957 -0.6234 -2.0693
42502SOL     OW31036   1.636   1.731   9.563 -0.0957 -0.9952  0.3004
42502SOL    HW131037   1.653   1.684   9.481  1.7793 -1.3271  0.8270
42502SOL    HW231038   1.543   1.755   9.558 -0.6134 -2.9893 -0.8864
42503SOL     OW31039  10.421   9.283   1.687 -0.4188  0.3818  0.0962
42503SOL    HW131040  10.443   9.335   1.765 -1.1896  0.1014  0.5196
42503SOL    HW231041  10.460   9.197   1.704  0.2003  0.5907 -0.2522
42504SOL     OW31042   0.107   7.439   3.245 -0.0557  0.6747  0.4143
42504SOL    HW131043   0.031   7.466   3.298 -0.9100  3.0080 -1.7877
42504SOL    HW231044   0.101   7.344   3.241 -0.8515  0.5114  3.0978
42505SOL     OW31045   5.617   0.287   6.699  0.0211  0.4354 -0.0598
42505SOL    HW131046   5.654   0.375   6.689  1.8029 -0.3438 -0.7263
42505SOL    HW231047   5.683   0.238   6.747 -1.0054 -0.5227  0.4123
42506SOL     OW31048   7.072   0.042   7.203 -0.0929 -0.0634 -0.6383
42506SOL    HW131049   7.109   0.125   7.174  0.2951  0.1412  0.3956
42506SOL    HW231050   7.081  -0.016   7.128 -0.2872  0.8027 -1.3454
42507SOL     OW31051   2.656   9.248   4.508 -0.3741 -0.2332  0.7265
42507SOL    HW131052   2.605   9.321   4.473 -0.1641 -0.7093 -0.6128
42507SOL    HW231053   2.728   9.290   4.555  0.5753  0.4885 -1.2496
42508SOL     OW31054   0.679   3.496   3.468 -0.1610  0.4664  0.2275
42508SOL    HW131055   0.587   3.475   3.488 -0.0363 -0.8362 -0.3931
42508SOL    HW231056   0.677   3.586   3.437 -1.0080  0.9431  1.5877
42509SOL     OW31057   2.742   8.440   3.478 -0.6718  0.1534  0.4475
42509SOL    HW131058   2.794   8.481   3.409 -0.8334  0.8557  0.7255
42509SOL    HW231059   2.770   8.349   3.480 -1.2964 -0.0917 -1.1268
42510SOL     OW31060   5.081   8.163   8.244  0.0856 -0.2588 -0.2060
42510SOL    HW131061   5.009   8.118   8.288  2.1802 -1.4480  2.3130
42510SOL    HW231062   5.159   8.139   8.295  2.1461  1.7573 -2.1546
42511SOL     OW31063   5.848   1.023   7.027  0.3816 -0.0647  0.1068
42511SOL    HW131064   5.940   1.012   7.001  0.2749  0.1628 -0.3698
42511SOL    HW231065   5.809   0.936   7.015  0.6300 -0.2667  0.7121
42512SOL     OW31066   0.707   3.563   9.315 -0.1460  0.1725 -0.2917
42512SOL    HW131067   0.687   3.535   9.226  0.3100 -0.4921 -0.1865
42512SOL    HW231068   0.789   3.611   9.308 -0.2544  0.3643 -0.2684
42513SOL     OW31069   3.407  11.096   9.354 -0.0314  0.1677  0.4124
42513SOL    HW131070   3.467  11.139   9.293 -0.7272  2.2708  1.1238
42513SOL    HW231071   3.396  11.008   9.319  2.7160  0.0053 -0.2659
42514SOL     OW31072  10.866   8.346   6.532  0.0377 -0.0589 -0.0591
42514SOL    HW131073  10.875   8.329   6.438 -1.6406 -0.2813 -0.2079
42514SOL    HW231074  10.940   8.300   6.572  2.3976  2.2387 -1.4439
42515SOL     OW31075   7.602   7.439   9.131  0.0001  0.2808 -0.6092
42515SOL    HW131076   7.515   7.413   9.159 -0.2534  0.8524 -0.8659
42515SOL    HW231077   7.655   7.437   9.211 -0.5808  1.3330 -0.1870
42516SOL     OW31078   1.507   4.586   2.363 -0.5212 -0.1317 -0.1694
42516SOL    HW131079   1.471   4.659   2.313 -1.7593  1.3729  2.7116
42516SOL    HW231080   1.602   4.591   2.348 -0.4629  2.6681  0.6305
42517SOL     OW31081   8.052   3.154   5.822 -0.2676  0.2162  0.1196
42517SOL    HW131082   8.121   3.200   5.776 -1.2114 -0.4330 -2.1149
42517SOL    HW231083   7.986   3.221   5.841 -0.0302  0.4289  0.1882
42518SOL     OW31084   9.529   7.335   1.742 -0.3225 -0.1574  0.1477
42518SOL    HW131085   9.481   7.389   1.805 -1.1113 -0.8207  0.1320
42518SOL    HW231086   9.512   7.245   1.771 -0.8011 -0.4736 -1.0817
42519SOL     OW31087   1.354   1.580   2.597 -0.1997 -0.4567 -0.2874
42519SOL    HW131088   1.339   1.522   2.522  0.5258  1.0194 -1.6349
42519SOL    HW231089   1.280   1.640   2.597  0.3437  0.2299 -0.5094
42520SOL     OW31090   4.732   6.788   3.943 -0.2565 -0.1900  0.1045
42520SOL    HW131091   4.694   6.850   4.006 -0.0359 -0.4240  0.4760
42520SOL    HW231092   4.815   6.761   3.984 -1.6891 -3.0276  1.4225
42521SOL     OW31093  10.368   2.830   6.381  0.7360 -0.4901  0.1231
42521SOL    HW131094  10.426   2.902   6.358 -1.2045  1.0315 -0.3350
42521SOL    HW231095  10.349   2.786   6.298 -1.4177  1.1905 -0.3679
42522SOL     OW31096   2.092   9.762   6.291  0.0360 -0.5007  0.4882
42522SOL    HW131097   2.002   9.745   6.263 -0.1974 -0.0405  0.9325
42522SOL    HW231098   2.101   9.858   6.286  0.6654 -0.5813 -0.0489
42523SOL     OW31099   4.901   4.752  10.517 -0.1322 -0.1415 -0.2068
42523SOL    HW131100   4.973   4.688  10.512 -0.0467 -0.1756  1.0510
42523SOL    HW231101   4.840   4.713  10.579  0.1040  1.1664  0.8910
42524SOL     OW31102   5.859   2.271   8.533 -0.1597  0.6059  0.1258
42524SOL    HW131103   5.877   2.259   8.440  0.8347 -0.4624  0.4267
42524SOL    HW231104   5.915   2.344   8.560  1.0717 -0.3374  0.2644
42525SOL     OW31105   3.285  10.025   8.063  0.2570 -0.6204  0.3645
42525SOL    HW131106   3.227  10.067   8.000 -1.4773 -1.3208  1.4182
42525SOL    HW231107   3.314   9.945   8.019 -0.9884 -1.1384  0.4377
42526SOL     OW31108   6.552  10.444   6.291 -0.0801 -0.6301  0.3253
42526SOL    HW131109   6.530  10.537   6.284  2.8918  0.1419 -0.1457
42526SOL    HW231110   6.545  10.424   6.384  0.1328  0.3388  0.5589
42527SOL     OW31111   2.635  10.542   2.350  0.3076 -0.0298  1.0174
42527SOL    HW131112   2.710  10.519   2.404  0.0035 -0.7845  1.1364
42527SOL    HW231113   2.564  10.557   2.412  0.1438 -0.1749  0.8694
42528SOL     OW31114   9.082   6.115   4.326 -0.7499  0.1538 -0.8256
42528SOL    HW131115   9.144   6.046   4.304  1.0323  1.1917  0.5632
42528SOL    HW231116   9.078   6.170   4.248 -1.3748 -0.9099 -1.5650
42529SOL     OW31117   5.923   7.902   4.212  0.4965 -0.1636  0.4614
42529SOL    HW131118   5.906   7.945   4.128  0.9251  1.2354  1.0597
42529SOL    HW231119   5.992   7.955   4.252 -0.0304 -0.5216  1.8995
42530SOL     OW31120   6.907   3.218   8.093  0.1919  0.1741 -0.3742
42530SOL    HW131121   6.987   3.204   8.042  0.7246  0.9515  0.2241
42530SOL    HW231122   6.933   3.204   8.184 -0.0765  1.4954 -0.0744
42531SOL     OW31123   6.352   5.454   1.512 -0.0334  0.1334 -0.0353
42531SOL    HW131124   6.258   5.459   1.494 -0.1869 -0.4790  0.5262
42531SOL    HW231125   6.393   5.512   1.448 -0.6612 -0.8445 -1.3453
42532SOL     OW31126   7.618   7.033   8.124 -0.1160  0.3634  0.0337
42532SOL    HW131127   7.550   7.085   8.165 -1.0753 -1.1108  0.3865
42532SOL    HW231128   7.674   7.005   8.197 -0.5254 -0.3989  0.0639
42533SOL     OW31129   8.658   9.097   9.759  0.0940 -0.5143  0.2963
42533SOL    HW131130   8.572   9.097   9.716  0.4268 -0.0022 -0.3884
42533SOL    HW231131   8.705   9.025   9.719 -0.0632 -0.8974  0.7890
42534SOL     OW31132   8.187   3.667   1.475 -0.4638  0.0552 -0.2465
42534SOL    HW131133   8.206   3.573   1.469 -0.5583  0.0400 -0.3028
42534SOL    HW231134   8.207   3.701   1.388 -1.1118 -0.0359 -0.4329
42535SOL     OW31135   2.423   0.950   9.081  0.0651  0.1150 -0.4093
42535SOL    HW131136   2.492   1.016   9.077  1.1690 -0.8615  1.0999
42535SOL    HW231137   2.463   0.871   9.044 -0.3273 -0.3837  0.2023
42536SOL     OW31138   2.355   4.124  10.010  0.1397  0.3382 -0.2850
42536SOL    HW131139   2.349   4.038  10.053  2.9434 -1.2806 -2.7439
42536SOL    HW231140   2.391   4.182  10.077  0.9931 -1.1746  0.6160
42537SOL     OW31141   1.756   9.086   7.703 -0.7759 -0.2271 -0.3857
42537SOL    HW131142   1.782   9.051   7.617 -2.4982 -1.0701 -0.6091
42537SOL    HW231143   1.738   9.178   7.687 -2.6977 -0.7142 -1.3769
42538SOL     OW31144  10.188   7.465   4.973  0.1568 -0.0146  0.2866
42538SOL    HW131145  10.252   7.412   4.926 -0.3755 -1.4030  1.0492
42538SOL    HW231146  10.103   7.430   4.945 -0.1948  0.1628  1.0889
42539SOL     OW31147   8.125  11.089   4.177  0.0334 -0.2128 -0.3224
42539SOL    HW131148   8.198  11.102   4.238 -0.3462  0.4777  0.0013
42539SOL    HW231149   8.054  11.056   4.233 -0.1270 -0.1796 -0.5084
42540SOL     OW31150  10.494  10.982   4.651 -0.8127  0.2090  0.3220
42540SOL    HW131151  10.439  10.970   4.728 -0.9522  0.5332  0.2728
42540SOL    HW231152  10.552  10.905   4.651 -1.3273 -0.1805  0.3188
42541SOL     OW31153   5.515   7.223   1.942 -0.1847  0.0432 -0.1417
42541SOL    HW131154   5.486   7.280   2.013  0.6805 -0.5495  0.7214
42541SOL    HW231155   5.532   7.282   1.869 -0.7908  0.7039  0.2431
42542SOL     OW31156   6.809   1.257   6.079 -0.1627  0.0625  0.1833
42542SOL    HW131157   6.800   1.332   6.021  0.6941  0.1629  0.1690
42542SOL    HW231158   6.826   1.294   6.165  1.9573 -0.0832 -0.1092
42543SOL     OW31159  10.660   9.284   2.479 -0.4662  0.1369 -0.2105
42543SOL    HW131160  10.607   9.338   2.421 -0.7158  0.5796  0.4210
42543SOL    HW231161  10.668   9.200   2.434  1.9029  1.3861 -2.3579
42544SOL     OW31162   0.438   5.517   8.971 -0.5596  0.1442  0.3163
42544SOL    HW131163   0.377   5.529   9.043  0.6241  0.6460  1.2789
42544SOL    HW231164   0.424   5.593   8.914 -1.6568 -0.3724 -0.1287
42545SOL     OW31165   5.062   2.534   5.026  0.0615 -0.1013 -0.0152
42545SOL    HW131166   5.085   2.454   4.978 -0.4049 -0.6076  0.5867
42545SOL    HW231167   5.144   2.583   5.033  0.8637 -1.5774  1.5515
42546SOL     OW31168   2.081  10.098   3.431 -0.1859 -0.1432  0.3155
42546SOL    HW131169   2.093  10.070   3.522  0.0369 -0.9483  0.0430
42546SOL    HW231170   1.992  10.135   3.429 -1.2494 -2.5398  0.2898
42547SOL     OW31171   6.572   1.927  10.069  0.2771  0.7852  0.0305
42547SOL    HW131172   6.501   1.956  10.126  0.9795 -1.9982  2.5986
42547SOL    HW231173   6.651   1.964  10.108  0.7300 -0.8894  0.8059
42548SOL     OW31174  10.193   2.259   6.933 -0.3979  0.0939  0.4726
42548SOL    HW131175  10.121   2.232   6.875  0.3993 -0.6844 -0.1901
42548SOL    HW231176  10.266   2.278   6.873 -0.3202  1.8024  1.0753
42549SOL     OW31177   6.233   8.141   0.991  0.0750  0.3338 -0.2736
42549SOL    HW131178   6.289   8.218   0.995  0.9282 -0.3129  1.2082
42549SOL    HW231179   6.201   8.138   0.901 -1.2577  3.2608 -0.0007
42550SOL     OW31180   9.353   1.248   9.389 -0.1407  0.4262 -0.4004
42550SOL    HW131181   9.427   1.309   9.388  1.0079 -0.8484  0.7786
42550SOL    HW231182   9.372   1.186   9.319 -0.7011  0.7573 -0.8478
42551SOL     OW31183   0.980   5.199   4.304 -0.4661 -0.2245  0.2269
42551SOL    HW131184   0.987   5.262   4.375 -1.3659 -0.2242  0.3247
42551SOL    HW231185   0.989   5.252   4.224  1.5575 -0.3492  0.3071
42552SOL     OW31186   0.971   0.090   3.353 -0.1353 -0.1376 -0.9504
42552SOL    HW131187   0.918   0.029   3.404 -0.1859 -0.6419 -1.5996
42552SOL    HW231188   0.974   0.170   3.407  0.5819 -0.9566  0.2581
42553SOL     OW31189   1.332   1.172   5.946  0.0566  0.7077  0.5690
42553SOL    HW131190   1.246   1.172   5.903  0.5029  3.1368 -0.4986
42553SOL    HW231191   1.391   1.133   5.881  0.6185  3.8256 -1.0013
42554SOL     OW31192  10.984   3.995   4.717 -0.3523  0.3570 -0.1473
42554SOL    HW131193  11.038   4.002   4.638  0.0968  0.7651  0.1888
42554SOL    HW231194  10.895   4.015   4.686 -0.1196  0.9070 -0.4817
42555SOL     OW31195   0.003   4.206   2.442  0.2800  0.1693 -0.1801
42555SOL    HW131196   0.067   4.150   2.399  0.6363  0.8220 -0.5088
42555SOL    HW231197  -0.079   4.156   2.436  0.8092 -0.8403  0.5861
42556SOL     OW31198   4.250   6.664   6.169  0.3348  0.3258  0.3089
42556SOL    HW131199   4.169   6.682   6.122  0.1597 -0.2693  0.3798
42556SOL    HW231200   4.222   6.633   6.255  0.5707 -1.8315 -0.3263
42557SOL     OW31201   2.582   8.341   3.769 -0.3396  0.1392 -0.7461
42557SOL    HW131202   2.515   8.384   3.717 -2.1199 -1.9260 -0.2772
42557SOL    HW231203   2.596   8.400   3.843 -3.0102 -0.1968  0.1141
42558SOL     OW31204   6.961   5.419   3.116 -0.0559  0.4850 -0.5950
42558SOL    HW131205   7.038   5.377   3.157  0.6056  1.0561 -1.2383
42558SOL    HW231206   6.994   5.501   3.081 -1.2946  1.4588  0.4249
42559SOL     OW31207   6.195   6.123   4.793 -1.0863 -0.3983 -0.6653
42559SOL    HW131208   6.278   6.165   4.813 -0.3805 -2.7174  1.9657
42559SOL    HW231209   6.216   6.055   4.730 -1.6144  0.8725 -2.2893
42560SOL     OW31210   4.956  10.711   4.240 -0.1833  0.0180  0.2336
42560SOL    HW131211   4.861  10.717   4.245 -0.4676 -0.9581 -2.4328
42560SOL    HW231212   4.975  10.619   4.259  0.1196  0.0184 -0.0551
42561SOL     OW31213   5.006   1.980  11.042 -0.0090 -0.2971 -0.1765
42561SOL    HW131214   4.981   2.022  11.124  1.5939  1.0446 -0.3238
42561SOL    HW231215   4.928   1.932  11.015 -0.9751  0.2637  1.4760
42562SOL     OW31216  10.398   0.635   5.149 -0.4383 -0.1080  0.0320
42562SOL    HW131217  10.351   0.666   5.227  0.2915 -1.4360  1.0351
42562SOL    HW231218  10.476   0.691   5.144 -0.4951 -0.0086  0.2405
42563SOL     OW31219  10.601   5.435   4.949 -0.2116  0.6957  0.1169
42563SOL    HW131220  10.598   5.359   5.008 -0.7184  1.1219  0.6547
42563SOL    HW231221  10.641   5.401   4.869 -2.5396 -0.7560 -0.5337
42564SOL     OW31222   5.469   0.146   7.741 -0.7781  0.2421  0.0940
42564SOL    HW131223   5.442   0.231   7.774  1.7535  0.6857  1.2428
42564SOL    HW231224   5.448   0.149   7.647 -0.5035  2.2341  0.0503
42565SOL     OW31225   9.347   5.678   7.343  0.0105 -0.1708 -0.0194
42565SOL    HW131226   9.432   5.646   7.312  0.2133 -0.9878  1.3104
42565SOL    HW231227   9.289   5.668   7.268  1.7577  3.6721 -2.1892
42566SOL     OW31228  10.457   7.035   7.291 -0.4200  0.1582  0.0880
42566SOL    HW131229  10.538   6.984   7.289 -1.5950 -1.8191  0.0558
42566SOL    HW231230  10.431   7.044   7.199 -0.7219 -0.0774  0.1451
42567SOL     OW31231  10.490   9.255   8.236 -0.4840  0.3643  0.5507
42567SOL    HW131232  10.467   9.242   8.328 -1.0277  1.1624  0.5366
42567SOL    HW231233  10.408   9.243   8.189 -1.0237  3.3646  0.5112
42568SOL     OW31234  10.447   6.715   0.065  0.0189  0.1184 -0.0655
42568SOL    HW131235  10.412   6.727   0.153 -0.9408 -1.7204 -0.1395
42568SOL    HW231236  10.519   6.652   0.076 -0.9583 -1.1654 -0.7141
42569SOL     OW31237   5.020   5.696  10.453  0.3454  0.4740  0.8933
42569SOL    HW131238   4.997   5.620  10.507 -1.2451  0.2898  0.0254
42569SOL    HW231239   5.109   5.677  10.422 -0.3059 -1.4709  0.0307
42570SOL     OW31240   3.001   4.505   2.076  0.5225 -0.0988 -0.3957
42570SOL    HW131241   2.976   4.495   1.984  1.8070 -1.1382 -0.6549
42570SOL    HW231242   2.974   4.594   2.099 -2.2656 -0.7080 -0.9663
42571SOL     OW31243   2.459   8.702   4.702 -0.2761  0.7492 -0.5989
42571SOL    HW131244   2.417   8.782   4.732  1.9411  1.9151 -0.3813
42571SOL    HW231245   2.548   8.707   4.738  0.4065 -1.0358 -1.9037
42572SOL     OW31246  11.101   3.057   9.590  0.1048  0.3663 -0.1505
42572SOL    HW131247  11.128   3.100   9.671  0.4933 -1.4502  0.7430
42572SOL    HW231248  11.167   2.989   9.576  0.1529  0.7615 -2.1286
42573SOL     OW31249   1.426  10.187   8.131 -0.1190 -0.7469 -0.1604
42573SOL    HW131250   1.449  10.118   8.068  0.1043  0.3229 -1.2822
42573SOL    HW231251   1.489  10.257   8.113 -1.1698  0.2708  0.0789
42574SOL     OW31252  10.919  10.321   6.873  0.4769 -0.3731 -0.0909
42574SOL    HW131253  10.935  10.228   6.859  0.1563 -0.6617  1.3399
42574SOL    HW231254  11.006  10.360   6.875  0.8218 -1.1345  2.3703
42575SOL     OW31255   9.077   2.687  10.031  0.3050  0.2402  0.2081
42575SOL    HW131256   9.060   2.637  10.111  0.8733 -0.3452 -0.0242
42575SOL    HW231257   9.118   2.768  10.062  0.3994  0.0775  0.5177
42576SOL     OW31258   7.232   7.797   8.169  0.1838  0.2358 -0.1305
42576SOL    HW131259   7.284   7.877   8.164 -0.2553  0.8649  3.1461
42576SOL    HW231260   7.294   7.728   8.193  0.1864  0.0707 -0.6002
42577SOL     OW31261   3.073  10.837   4.315 -0.0298  0.3567 -0.7361
42577SOL    HW131262   3.107  10.751   4.340 -1.1876 -0.6501 -2.4086
42577SOL    HW231263   3.131  10.900   4.358  1.0495 -1.2534  0.2543
42578SOL     OW31264  10.425   0.123   6.810  0.2561  0.8364 -0.2921
42578SOL    HW131265  10.362   0.187   6.844  0.5327  0.9550 -0.0001
42578SOL    HW231266  10.373   0.044   6.796  0.3948  0.2873  1.8726
42579SOL     OW31267   8.299   1.694   8.708  0.0952  0.0128  0.5445
42579SOL    HW131268   8.301   1.772   8.653  1.1331  0.3152  1.0044
42579SOL    HW231269   8.363   1.711   8.777 -1.0306 -0.4403  1.7500
42580SOL     OW31270   7.836   1.686  10.070  0.3704  0.1755 -0.1673
42580SOL    HW131271   7.760   1.633  10.045 -1.0948  2.2510 -0.3283
42580SOL    HW231272   7.863   1.650  10.154 -0.4252 -0.9719 -0.3749
42581SOL     OW31273  10.234   8.936   2.472  0.7280 -0.1839  0.3701
42581SOL    HW131274  10.154   8.987   2.483  0.6098 -0.4178  0.6253
42581SOL    HW231275  10.209   8.847   2.497  0.9034 -0.3927 -0.1778
42582SOL     OW31276   9.571   7.919   7.801  0.1051  0.5310  0.1145
42582SOL    HW131277   9.517   7.847   7.835 -0.1875  1.2027  1.1058
42582SOL    HW231278   9.626   7.945   7.875 -0.1269  1.6352 -0.0873
42583SOL     OW31279  10.899   9.458   0.057  0.0138 -0.5119  0.3576
42583SOL    HW131280  10.902   9.481   0.150 -1.8066  1.0191  0.1040
42583SOL    HW231281  10.951   9.525   0.014  0.7730 -1.1623  0.2381
42584SOL     OW31282   8.972   8.556   5.923 -0.0787 -0.1621  0.3482
42584SOL    HW131283   8.928   8.578   6.005 -1.4646  1.8182 -0.8322
42584SOL    HW231284   8.980   8.640   5.877  2.1738 -0.9536 -0.8563
42585SOL     OW31285   4.878   5.361   4.101  0.3984 -0.8765  0.1756
42585SOL    HW131286   4.865   5.267   4.112 -1.1257 -0.5526  1.6735
42585SOL    HW231287   4.890   5.394   4.190  0.1917  0.4260 -0.2529
42586SOL     OW31288   3.145   0.484   7.778  0.0736 -0.2638 -0.4637
42586SOL    HW131289   3.144   0.396   7.816 -0.0868 -0.9075 -1.9114
42586SOL    HW231290   3.159   0.542   7.853  1.0909 -1.5699  0.4001
42587SOL     OW31291   4.954   7.304   4.868  0.4750 -0.6208 -0.0027
42587SOL    HW131292   4.859   7.299   4.861  0.4260 -0.9095  0.7104
42587SOL    HW231293   4.970   7.379   4.925  0.5881 -1.5245  1.2070
42588SOL     OW31294   6.307  10.165   6.786  0.6836  0.7334 -0.0140
42588SOL    HW131295   6.259  10.216   6.851 -0.7599  0.2674 -0.6781
42588SOL    HW231296   6.399  10.174   6.812  0.3161  2.2116  0.8910
42589SOL     OW31297   5.455   0.268   9.339  0.2916 -0.0326 -0.1304
42589SOL    HW131298   5.418   0.340   9.390  1.1098 -0.6914  1.4635
42589SOL    HW231299   5.534   0.305   9.299 -0.2749  0.4493 -0.8095
42590SOL     OW31300   6.279  10.250   9.371  0.0626  0.6422  0.3291
42590SOL    HW131301   6.254  10.318   9.434  0.4952  0.0635  1.1593
42590SOL    HW231302   6.373  10.238   9.386  0.2261  0.6637 -0.6146
42591SOL     OW31303   4.439   3.671  10.457  0.5125  0.4476  0.2458
42591SOL    HW131304   4.430   3.589  10.505 -0.8515  0.8727  0.7715
42591SOL    HW231305   4.530   3.699  10.474  0.7678 -0.5782  0.6413
42592SOL     OW31306   8.950   2.360   8.661 -0.8109  0.1491 -0.0231
42592SOL    HW131307   9.036   2.386   8.695 -0.5841 -1.8497  1.1159
42592SOL    HW231308   8.962   2.355   8.566 -0.1912  1.5923 -0.0457
42593SOL     OW31309   4.459   3.771   6.521  0.6357  0.3035 -0.6308
42593SOL    HW131310   4.517   3.780   6.596 -0.6941  1.0176  0.3652
42593SOL    HW231311   4.489   3.836   6.458  0.0239  1.7354  0.5019
42594SOL     OW31312   7.996   9.919   9.133  0.2849  0.0186  0.3036
42594SOL    HW131313   7.931   9.961   9.190 -0.1703 -0.6408  0.2869
42594SOL    HW231314   7.965   9.829   9.126  0.7232 -0.0740 -0.4286
42595SOL     OW31315   9.317   0.535   9.566 -0.3666 -0.5702  0.4650
42595SOL    HW131316   9.381   0.478   9.524 -1.1400 -2.0169  1.1822
42595SOL    HW231317   9.365   0.615   9.585  0.4021 -0.4386 -1.7712
42596SOL     OW31318   6.032   5.926   2.302 -0.3487  0.2597  0.0001
42596SOL    HW131319   6.121   5.896   2.320 -0.6663 -0.4534  0.3978
42596SOL    HW231320   6.044   6.008   2.254  0.5360 -0.5438 -1.2170
42597SOL     OW31321   3.879   7.506   5.216  0.1086  0.4676 -0.5486
42597SOL    HW131322   3.841   7.418   5.210 -0.8498  0.4171  3.2071
42597SOL    HW231323   3.972   7.490   5.231 -0.2288 -0.0967  1.3152
42598SOL     OW31324  10.965   5.803   9.362  0.2394 -0.5816 -0.1591
42598SOL    HW131325  10.889   5.792   9.305  0.6100  1.0923 -1.0679
42598SOL    HW231326  11.008   5.718   9.362 -0.8865 -1.1678 -0.7415
42599SOL     OW31327  10.910   4.425   2.125  0.0796 -0.3566 -0.2978
42599SOL    HW131328  10.939   4.350   2.177 -1.4403  0.1939  1.4531
42599SOL    HW231329  10.888   4.492   2.190 -1.3264  0.5817 -1.6639
42600SOL     OW31330   5.038   7.168   1.094  0.3962  0.1306 -0.2525
42600SOL    HW131331   5.044   7.185   1.188  2.1060  1.9691 -0.6535
42600SOL    HW231332   4.980   7.237   1.061  1.3279  0.6600 -0.8084
42601SOL     OW31333   5.980   4.109   2.075 -0.0875 -0.5130 -0.4048
42601SOL    HW131334   6.011   4.162   2.149 -0.9466  2.5530 -2.0562
42601SOL    HW231335   5.885   4.110   2.083 -0.2430  0.6658 -1.9833
42602SOL     OW31336   8.849   3.857   1.559 -0.4353 -0.0501 -0.2447
42602SOL    HW131337   8.855   3.953   1.564 -0.3717 -0.0467 -0.3933
42602SOL    HW231338   8.825   3.840   1.468  1.2572 -0.2670 -0.6821
42603SOL     OW31339   3.177   7.973   6.503 -0.6305 -0.1028 -0.0677
42603SOL    HW131340   3.250   7.913   6.515  1.2240  2.0827  0.2061
42603SOL    HW231341   3.135   7.977   6.589 -0.3400 -0.4583  0.0928
42604SOL     OW31342   0.098   5.686   2.614 -0.7641 -0.7392 -0.2548
42604SOL    HW131343   0.147   5.654   2.539 -0.2378 -0.5410 -0.0047
42604SOL    HW231344   0.031   5.620   2.630  1.8220 -3.1435  1.8237
42605SOL     OW31345   2.882   9.453   4.167 -0.2086  0.4092  0.5145
42605SOL    HW131346   2.876   9.367   4.127  1.0998 -0.6311  2.4134
42605SOL    HW231347   2.976   9.471   4.170 -0.1879  0.2428  3.3725
42606SOL     OW31348   8.854   1.639   1.980  1.0092  0.2449  0.7422
42606SOL    HW131349   8.809   1.683   2.052  1.7802  1.3196  0.5851
42606SOL    HW231350   8.866   1.707   1.914 -3.2425 -1.4668 -2.2451
42607SOL     OW31351   2.329   7.932   2.937 -0.0087  0.0903 -0.0297
42607SOL    HW131352   2.235   7.950   2.939 -0.1821 -0.3225 -1.8733
42607SOL    HW231353   2.367   8.010   2.897  0.4455  0.2578  0.7191
42608SOL     OW31354   4.544   7.320   2.044 -0.4271 -0.3509 -0.5382
42608SOL    HW131355   4.498   7.402   2.063  2.9003  1.7009 -0.5854
42608SOL    HW231356   4.556   7.278   2.129  0.4009  0.7170 -0.1165
42609SOL     OW31357   8.671   6.956   7.357  0.5517  0.4746  0.3807
42609SOL    HW131358   8.684   7.038   7.406  3.3755  0.5269 -0.3239
42609SOL    HW231359   8.737   6.897   7.391 -0.0335 -0.8165 -0.6511
42610SOL     OW31360   0.563   7.440   2.519  0.2598 -0.1983 -0.3241
42610SOL    HW131361   0.530   7.442   2.609 -0.4692  0.5432 -0.5918
42610SOL    HW231362   0.485   7.431   2.465  0.4914  1.3732 -0.9662
42611SOL     OW31363   1.651   5.351   0.267 -0.5585  0.2715 -0.2312
42611SOL    HW131364   1.681   5.435   0.302  0.2978 -0.3109  0.4601
42611SOL    HW231365   1.567   5.371   0.226  0.2404  1.7427 -1.2586
42612SOL     OW31366   1.610   6.816  11.024 -0.5400  0.2033  0.4411
42612SOL    HW131367   1.675   6.788  11.088 -0.8044 -2.0392 -0.1855
42612SOL    HW231368   1.660   6.837  10.945 -0.5110 -2.4645 -0.3666
42613SOL     OW31369   4.765   6.915   9.644 -0.0521 -0.0167 -0.3556
42613SOL    HW131370   4.810   6.947   9.566  0.8252 -0.3519  0.0028
42613SOL    HW231371   4.794   6.973   9.714 -0.8817  0.3195 -0.2844
42614SOL     OW31372  10.363   6.264   4.685 -0.7939  0.1386  0.0742
42614SOL    HW131373  10.344   6.358   4.689  1.0664  0.4945  2.9371
42614SOL    HW231374  10.334   6.230   4.770  1.2486 -1.2828  0.2644
42615SOL     OW31375   1.097   0.770  10.152  0.2035 -0.7767 -0.3132
42615SOL    HW131376   1.158   0.821  10.099  0.0593  0.9386  1.1019
42615SOL    HW231377   1.052   0.713  10.088  1.2434 -0.0525 -1.7607
42616SOL     OW31378   0.247   6.020   1.569 -0.0047  0.1929 -0.0622
42616SOL    HW131379   0.185   6.030   1.497  0.7152  1.5565 -0.5208
42616SOL    HW231380   0.259   6.109   1.603 -0.6984 -0.4746  2.0694
42617SOL     OW31381   1.050   1.032   3.767  0.2511 -0.2168  0.0249
42617SOL    HW131382   1.108   1.052   3.693 -0.0022 -0.0768 -0.1377
42617SOL    HW231383   0.977   1.094   3.758  0.8413  0.6775  1.1224
42618SOL     OW31384   1.869   2.223   0.934  0.1132  0.0167 -0.3402
42618SOL    HW131385   1.912   2.177   0.862 -2.0193 -0.1116 -1.5987
42618SOL    HW231386   1.840   2.154   0.993  1.3203  0.0914  0.3834
42619SOL     OW31387   7.578   7.130   2.254 -0.1898 -0.4840  0.2996
42619SOL    HW131388   7.568   7.080   2.173 -1.2681  0.3535 -0.0944
42619SOL    HW231389   7.573   7.064   2.324 -2.2091 -0.8826 -0.1797
42620SOL     OW31390   7.412   7.159   6.219 -0.3435  0.1086 -0.4662
42620SOL    HW131391   7.327   7.133   6.183  0.1540 -1.5911 -0.4872
42620SOL    HW231392   7.404   7.254   6.233 -1.7951  0.1961 -1.6364
42621SOL     OW31393   9.581   4.838   3.270 -0.0367 -0.3816  0.2278
42621SOL    HW131394   9.627   4.905   3.220 -0.4312  0.0757  0.4738
42621SOL    HW231395   9.545   4.779   3.204  3.5263 -2.5989  0.0021
42622SOL     OW31396  10.358   1.553   4.353  0.8750  0.1883  0.4327
42622SOL    HW131397  10.444   1.551   4.311  0.7225 -1.9020  0.0919
42622SOL    HW231398  10.348   1.465   4.391 -1.2225  0.2799  0.2138
42623SOL     OW31399   4.823   2.433   9.537  0.2696  0.0894  0.0276
42623SOL    HW131400   4.860   2.363   9.482  0.4734 -1.2662  1.7789
42623SOL    HW231401   4.729   2.413   9.542 -0.2962  1.9212 -2.1563
42624SOL     OW31402   9.142  11.059   1.955 -0.1685 -0.2686  0.7020
42624SOL    HW131403   9.205  11.130   1.968 -1.3966  1.6723 -2.5670
42624SOL    HW231404   9.063  11.087   2.002  0.5333 -1.5884  2.8408
42625SOL     OW31405   9.284   0.981   5.961 -0.0920  0.3651 -0.2049
42625SOL    HW131406   9.336   0.981   6.040 -0.2549  2.5742 -0.0261
42625SOL    HW231407   9.331   0.924   5.900  1.8180  1.2077  0.4004
42626SOL     OW31408   6.660   8.316   8.352 -0.1883 -0.6573  0.4143
42626SOL    HW131409   6.625   8.258   8.419 -1.6790 -1.3208 -0.8583
42626SOL    HW231410   6.746   8.342   8.384 -2.0918  1.8288  4.2472
42627SOL     OW31411   4.972   9.606   9.163 -0.0604 -0.1956 -0.0392
42627SOL    HW131412   5.050   9.662   9.165 -0.1624 -0.0750  0.8692
42627SOL    HW231413   4.996   9.529   9.214 -1.2583  0.8495  2.2411
42628SOL     OW31414  10.309   8.038   6.097 -0.0583  0.4875  0.0197
42628SOL    HW131415  10.346   8.125   6.115  1.0003 -0.1702  1.1056
42628SOL    HW231416  10.384   7.980   6.095 -0.6582 -0.3089 -1.5840
42629SOL     OW31417   2.933   3.159   1.297 -0.3565 -0.3527  0.1585
42629SOL    HW131418   2.864   3.096   1.315 -0.1355 -1.2476 -1.8526
42629SOL    HW231419   2.917   3.188   1.207  0.9473  0.6410  0.2048
42630SOL     OW31420   1.943   6.930   6.581  0.3426 -0.0848  0.0151
42630SOL    HW131421   1.906   6.865   6.640  0.4417 -0.1568 -0.0011
42630SOL    HW231422   2.026   6.955   6.621  0.3702 -0.0710 -0.0495
42631SOL     OW31423   2.381   6.927   4.490  0.1349 -0.0360  0.1163
42631SOL    HW131424   2.405   7.020   4.490  0.2900 -0.0576  1.5157
42631SOL    HW231425   2.449   6.884   4.542 -0.7549 -0.6959  0.7684
42632SOL     OW31426   6.401  10.083   0.798 -0.0205 -0.9609  0.6716
42632SOL    HW131427   6.336  10.124   0.855 -0.2441 -0.3529 -0.0011
42632SOL    HW231428   6.366  10.096   0.710 -0.4685 -3.2731  0.4524
42633SOL     OW31429   0.263   3.742   1.845 -0.2619 -0.1346  0.4217
42633SOL    HW131430   0.268   3.772   1.754  1.1259 -0.9149  0.2041
42633SOL    HW231431   0.325   3.669   1.849 -0.4796 -0.2607  1.9381
42634SOL     OW31432   8.347  10.669   1.951 -0.0953 -0.6338 -0.0955
42634SOL    HW131433   8.253  10.684   1.961  0.0704  0.1204  0.4286
42634SOL    HW231434   8.355  10.574   1.941 -0.7542 -0.9950  2.1767
42635SOL     OW31435   1.556   2.532   7.184  0.3167  0.0882 -0.6423
42635SOL    HW131436   1.628   2.546   7.123 -0.1430 -0.7331 -1.3957
42635SOL    HW231437   1.578   2.586   7.260  1.2869  0.5167 -1.2122
42636SOL     OW31438   7.692   2.612   6.507 -0.0165 -0.2908 -0.2902
42636SOL    HW131439   7.701   2.564   6.425  0.0478 -0.0866 -0.4032
42636SOL    HW231440   7.721   2.551   6.575 -0.6711 -0.6824 -0.3543
42637SOL     OW31441   0.612   1.113   6.843 -0.3842 -0.3337  0.3805
42637SOL    HW131442   0.663   1.104   6.762 -1.4195  1.7753 -0.5669
42637SOL    HW231443   0.544   1.046   6.836 -0.1804 -0.4771 -0.2660
42638SOL     OW31444   0.555  10.916   2.456  0.3180  0.2112 -0.2386
42638SOL    HW131445   0.503  10.891   2.533  0.2309  0.7573 -0.1168
42638SOL    HW231446   0.498  10.974   2.406  0.0567 -0.8194 -1.1626
42639SOL     OW31447   1.336   1.738   5.402 -0.5521 -0.1246 -0.0568
42639SOL    HW131448   1.295   1.670   5.349 -0.8210  0.7081 -0.9400
42639SOL    HW231449   1.409   1.693   5.445 -0.1556 -0.7854 -1.3453
42640SOL     OW31450   1.446   0.854   1.196  0.3419  0.4433  0.0198
42640SOL    HW131451   1.385   0.891   1.133 -0.7105  0.9162  1.2726
42640SOL    HW231452   1.423   0.761   1.202  0.0939  0.5082  0.0830
42641SOL     OW31453   1.940   1.450   5.302  0.6949  0.0023  0.1824
42641SOL    HW131454   2.002   1.495   5.245  0.1680  0.9392  0.3229
42641SOL    HW231455   1.923   1.367   5.258  1.2114  0.2036 -0.4101
42642SOL     OW31456   0.236   6.426   0.238  0.6123  0.0275  0.4778
42642SOL    HW131457   0.192   6.364   0.296  0.5978 -1.8120 -1.3593
42642SOL    HW231458   0.315   6.380   0.209  0.3508  0.6154 -1.3420
42643SOL     OW31459   4.103   7.223  10.415 -0.2664  0.9318 -0.2244
42643SOL    HW131460   4.137   7.311  10.399  1.6715  0.9620  3.2054
42643SOL    HW231461   4.174   7.164  10.387 -0.2538  0.6413  0.3949
42644SOL     OW31462   8.146   0.643   6.619  0.2169 -0.1084  0.5091
42644SOL    HW131463   8.154   0.673   6.710 -0.6126 -0.9865  0.8896
42644SOL    HW231464   8.213   0.692   6.572  2.0117 -1.0300  1.9628
42645SOL     OW31465   9.199   3.015   6.049 -0.0148  0.6462 -0.1883
42645SOL    HW131466   9.142   2.944   6.075  1.3660 -0.6436 -0.5442
42645SOL    HW231467   9.141   3.082   6.013 -1.3099 -0.4041 -0.0905
42646SOL     OW31468   9.702   5.000   8.398  0.3831 -0.0044 -0.0645
42646SOL    HW131469   9.730   4.944   8.326  1.0996 -0.5405  0.6053
42646SOL    HW231470   9.783   5.019   8.446  0.3585  2.5518 -0.8952
42647SOL     OW31471   5.510   1.236   0.161  0.5337 -0.1585  0.4327
42647SOL    HW131472   5.506   1.159   0.218  1.5536 -1.5733 -1.3140
42647SOL    HW231473   5.493   1.202   0.073 -0.4939  1.8724 -0.2326
42648SOL     OW31474   4.224   3.999   7.753  0.2769  0.4483  0.1147
42648SOL    HW131475   4.260   3.959   7.674 -0.5391 -2.3719  1.0587
42648SOL    HW231476   4.301   4.024   7.804  0.8216  0.4406 -0.6789
42649SOL     OW31477   6.644   8.099   0.949  0.5848  0.2717  0.1149
42649SOL    HW131478   6.601   8.138   0.874 -1.7041 -1.6516  0.3059
42649SOL    HW231479   6.574   8.080   1.011  2.1893  0.2859  2.0596
42650SOL     OW31480   4.587   7.939  10.574  0.6000 -0.3149 -0.0049
42650SOL    HW131481   4.594   7.917  10.481  0.3565  0.6489 -0.2654
42650SOL    HW231482   4.514   7.887  10.605 -0.3967  0.5640 -0.7643
42651SOL     OW31483   9.148   2.766   1.649 -0.0063 -0.4648 -0.5715
42651SOL    HW131484   9.079   2.821   1.685  1.1956  0.9976 -0.3694
42651SOL    HW231485   9.229   2.813   1.670  0.9568 -1.3784 -2.0383
42652SOL     OW31486   0.157   7.189  10.565  0.1374  0.1369  0.2863
42652SOL    HW131487   0.229   7.159  10.510 -0.0053  0.9154 -0.3472
42652SOL    HW231488   0.200   7.235  10.637  0.2784  1.1446 -0.4189
42653SOL     OW31489   7.586   4.692   4.505 -0.4126 -0.3979  0.1308
42653SOL    HW131490   7.636   4.770   4.529  1.8233 -1.6084 -0.3313
42653SOL    HW231491   7.598   4.632   4.579 -0.5974 -0.9580 -0.2845
42654SOL     OW31492   4.602   0.081  10.238  0.1005  0.0209  0.6324
42654SOL    HW131493   4.603   0.114  10.328  0.4883 -1.1363  1.0734
42654SOL    HW231494   4.521   0.030  10.232 -0.3436  0.7661  0.0526
42655SOL     OW31495   5.132   3.829   9.738  0.1143  0.0882 -0.1490
42655SOL    HW131496   5.201   3.788   9.790  1.4393  1.2845 -0.9117
42655SOL    HW231497   5.146   3.796   9.649 -0.8571 -0.3386 -0.1590
42656SOL     OW31498   3.366   1.670   5.734  0.6105 -0.2816  0.1210
42656SOL    HW131499   3.271   1.661   5.721  0.5720 -0.3256  0.4362
42656SOL    HW231500   3.375   1.749   5.786  0.7885  0.0739 -0.4399
42657SOL     OW31501   6.253   1.791   0.019  0.6083  0.3419 -0.2930
42657SOL    HW131502   6.238   1.775   0.113  2.9844  1.1712  0.2929
42657SOL    HW231503   6.337   1.749   0.001 -0.4106 -0.9438 -2.4311
42658SOL     OW31504   9.032  10.228   2.176 -0.0670 -0.0987  0.1641
42658SOL    HW131505   8.969  10.275   2.230 -1.2566 -1.9966  0.5356
42658SOL    HW231506   9.018  10.262   2.087 -1.7301 -0.5495  0.2231
42659SOL     OW31507   7.539   4.394  10.358  0.0568 -0.2309  0.1121
42659SOL    HW131508   7.558   4.448  10.434 -0.5268  0.2373 -0.0700
42659SOL    HW231509   7.495   4.453  10.297 -0.4616 -0.8695 -0.1420
42660SOL     OW31510   6.960   5.513   2.456  0.7408  0.2576  0.5030
42660SOL    HW131511   6.875   5.515   2.413  0.2096  0.3557  1.5393
42660SOL    HW231512   7.010   5.447   2.407  0.0430  0.1229 -0.0401
42661SOL     OW31513   0.737   3.853   1.781 -0.4113  0.2648  0.6808
42661SOL    HW131514   0.772   3.905   1.708 -1.2534 -0.4604 -0.2852
42661SOL    HW231515   0.814   3.820   1.826  0.1378  0.4930 -0.0613
42662SOL     OW31516  10.932   6.330   5.443  0.3149  0.2458 -0.1335
42662SOL    HW131517  10.858   6.380   5.407 -0.3761 -1.2009 -0.7960
42662SOL    HW231518  10.978   6.393   5.499  0.1361  1.9504 -1.7864
42663SOL     OW31519   2.412   7.619   2.214 -0.9355  0.0567 -0.5808
42663SOL    HW131520   2.444   7.574   2.135  0.2305  2.7364 -1.7863
42663SOL    HW231521   2.375   7.701   2.181 -0.0504  1.4647  1.6542
42664SOL     OW31522   3.188   1.133   6.043 -0.1164 -0.2506 -0.6013
42664SOL    HW131523   3.093   1.131   6.038 -0.1047  0.6057 -1.6815
42664SOL    HW231524   3.212   1.217   6.005  1.0718 -0.4351 -0.3052
42665SOL     OW31525   5.461  10.532   4.756  0.1485  0.5734  0.7151
42665SOL    HW131526   5.557  10.526   4.751  0.0972 -1.1092  1.1037
42665SOL    HW231527   5.429  10.481   4.682 -0.4559  0.6515  0.9145
42666SOL     OW31528  10.485   9.526   1.253  0.1261 -0.0234  0.2323
42666SOL    HW131529  10.496   9.597   1.316 -0.5495 -0.4147  0.8044
42666SOL    HW231530  10.498   9.446   1.303  1.2469 -0.3172 -0.4851
42667SOL     OW31531   8.345   7.059   1.571  0.1750  0.2420 -0.2377
42667SOL    HW131532   8.263   7.050   1.520  2.2315 -2.8496 -3.5402
42667SOL    HW231533   8.340   6.988   1.635 -0.3109  1.0114  0.5965
42668SOL     OW31534   4.314   5.526   8.065 -0.2989 -0.6183 -0.2145
42668SOL    HW131535   4.362   5.583   8.005  1.9947 -1.6999  0.4607
42668SOL    HW231536   4.275   5.459   8.008 -0.4092 -0.1354 -0.7206
42669SOL     OW31537  10.442   8.280   6.158  0.2316  0.1440  0.9083
42669SOL    HW131538  10.440   8.375   6.156 -1.0109  0.1376  1.0851
42669SOL    HW231539  10.484   8.255   6.075 -2.2697  0.8052 -0.6648
42670SOL     OW31540   4.180   3.779   3.124  0.6906 -0.1899  0.3761
42670SOL    HW131541   4.265   3.734   3.123  0.7032 -0.1822  0.7330
42670SOL    HW231542   4.144   3.760   3.211  0.1237 -0.5616  0.0637
42671SOL     OW31543   5.456   7.905  10.825 -0.4512 -0.3650  0.2408
42671SOL    HW131544   5.489   7.826  10.867  1.4730  0.1831 -0.1204
42671SOL    HW231545   5.384   7.875  10.769  0.6031 -1.9711 -0.3300
42672SOL     OW31546   0.242   9.792   9.203 -0.1162  0.5538  0.3159
42672SOL    HW131547   0.276   9.703   9.198 -0.6251  0.3812 -0.2155
42672SOL    HW231548   0.248   9.814   9.296  1.8097  0.6986  0.1919
42673SOL     OW31549   0.281   2.753   0.756 -0.2107 -0.0495  0.1985
42673SOL    HW131550   0.362   2.739   0.707 -0.3125  0.3864 -0.0918
42673SOL    HW231551   0.237   2.825   0.711 -0.5293  0.0400  0.6466
42674SOL     OW31552   4.985   4.346   5.925  0.1294 -0.1519 -0.6532
42674SOL    HW131553   4.951   4.256   5.928  0.4386 -0.3001 -1.2507
42674SOL    HW231554   4.966   4.382   6.011  0.5732 -1.0083 -0.1815
42675SOL     OW31555   4.954   9.672   9.420 -0.0006  0.1861 -0.2579
42675SOL    HW131556   4.887   9.738   9.438 -0.7515 -1.0091  1.5971
42675SOL    HW231557   4.947   9.657   9.326  1.0304  3.5621 -1.0259
42676SOL     OW31558   9.034   1.993   0.620  0.2972  0.4672  0.1683
42676SOL    HW131559   8.968   2.047   0.576 -0.4415  0.0338  0.7190
42676SOL    HW231560   9.113   2.006   0.569  0.2109  2.2809  0.4557
42677SOL     OW31561   5.057   7.242   0.502 -0.5852  0.0586  0.5698
42677SOL    HW131562   4.964   7.240   0.482 -0.3498 -0.4334 -0.5451
42677SOL    HW231563   5.078   7.335   0.511 -0.9631  0.2273 -0.2705
42678SOL     OW31564  10.736   2.030   7.549 -0.8831  0.0272 -0.1265
42678SOL    HW131565  10.665   2.050   7.609 -1.1495  1.2393 -0.8196
42678SOL    HW231566  10.725   1.937   7.529 -0.0562 -0.7638  2.5957
42679SOL     OW31567   0.112   2.391   7.942 -0.2833  0.1157  0.3467
42679SOL    HW131568   0.108   2.443   7.862  2.2162  0.9048  0.6318
42679SOL    HW231569   0.047   2.430   8.000  1.6437  3.2547  0.6527
42680SOL     OW31570   8.043   4.462   4.753  0.0418 -0.0714  0.0584
42680SOL    HW131571   8.005   4.549   4.737 -0.2171 -0.0041  0.9337
42680SOL    HW231572   7.993   4.403   4.697 -0.6414  0.1777  0.3861
42681SOL     OW31573   9.560   3.196   9.103 -0.0576 -0.1885 -0.5130
42681SOL    HW131574   9.512   3.184   9.185 -0.4933 -0.7742 -0.8478
42681SOL    HW231575   9.498   3.170   9.035  0.6722 -0.7631 -0.9640
42682SOL     OW31576   3.529   7.360   2.149 -0.0719  0.2039 -0.1499
42682SOL    HW131577   3.545   7.454   2.154  1.6071 -0.0153 -0.7315
42682SOL    HW231578   3.616   7.321   2.142 -0.5954 -1.5501  1.9809
42683SOL     OW31579   7.220   6.055  11.102 -0.1714 -0.1758 -0.3775
42683SOL    HW131580   7.172   6.132  11.071 -0.1381 -0.2360 -0.5766
42683SOL    HW231581   7.191   5.983  11.046  0.2984 -0.1724 -0.6356
42684SOL     OW31582   0.778   4.203  10.391 -0.1232 -0.4497  0.0639
42684SOL    HW131583   0.801   4.152  10.313 -1.5466 -1.0495  0.0158
42684SOL    HW231584   0.822   4.157  10.463 -2.5979 -2.7683  0.2559
42685SOL     OW31585   5.517   8.814   4.198  0.1283 -0.3294  0.4882
42685SOL    HW131586   5.574   8.756   4.248  0.9708 -0.3885 -0.4898
42685SOL    HW231587   5.428   8.793   4.227  0.5258 -1.0344  1.2280
42686SOL     OW31588   1.487   7.040   9.535 -0.6151  0.2558  0.2465
42686SOL    HW131589   1.484   7.111   9.471 -1.4576 -0.8128 -0.9600
42686SOL    HW231590   1.492   7.084   9.620 -1.2794  1.7419 -0.4522
42687SOL     OW31591   4.805   9.771   4.359  0.5843  0.4204 -0.3537
42687SOL    HW131592   4.715   9.739   4.346  0.0754  0.6520  2.0077
42687SOL    HW231593   4.838   9.787   4.271 -2.1280  1.5189 -1.2862
42688SOL     OW31594   5.101  11.022   3.626 -0.4671  0.5293 -0.2879
42688SOL    HW131595   5.185  11.061   3.650 -0.3138  1.1273 -1.7122
42688SOL    HW231596   5.043  11.040   3.700  0.4591  0.7368  0.3965
42689SOL     OW31597   9.673   0.834   8.055 -0.4048 -0.1452 -0.0195
42689SOL    HW131598   9.746   0.774   8.073  0.1585  0.4840 -0.1853
42689SOL    HW231599   9.614   0.824   8.130  0.0384 -0.3736  0.3002
42690SOL     OW31600   4.025   4.193   8.298 -0.0662  0.5135  0.0949
42690SOL    HW131601   4.001   4.197   8.205 -3.8101 -2.3221  0.7291
42690SOL    HW231602   4.102   4.138   8.300 -0.5310 -0.2490 -1.2990
42691SOL     OW31603   2.124   9.407   7.238  0.0576  0.0516  0.2750
42691SOL    HW131604   2.171   9.387   7.157 -0.0042 -0.3241  0.3283
42691SOL    HW231605   2.037   9.435   7.210 -0.2030 -0.7713  0.2322
42692SOL     OW31606   1.325   1.417   7.196  0.3505  0.3733  0.1428
42692SOL    HW131607   1.251   1.477   7.190 -0.9897 -1.0478  1.5237
42692SOL    HW231608   1.292   1.335   7.160  0.6163 -0.7871  2.4212
42693SOL     OW31609   9.567   2.752   5.567 -0.3292  0.4896 -0.3889
42693SOL    HW131610   9.599   2.784   5.483  1.3525  1.7685  0.6872
42693SOL    HW231611   9.580   2.825   5.627 -2.9407  0.1640  0.7140
42694SOL     OW31612   6.952   8.504   9.592 -0.1251 -0.5789  0.8402
42694SOL    HW131613   7.024   8.545   9.640  0.6243 -1.8191  0.8023
42694SOL    HW231614   6.992   8.469   9.512 -1.3865  1.6510 -0.9019
42695SOL     OW31615   8.605   9.603   7.365 -0.1531 -0.0906  0.3854
42695SOL    HW131616   8.547   9.556   7.305  0.2708 -0.4484  0.2505
42695SOL    HW231617   8.659   9.534   7.405 -0.8143  0.0708  1.6114
42696SOL     OW31618   5.589   8.940   7.594 -0.6587  0.1716  0.1889
42696SOL    HW131619   5.521   8.998   7.560  0.9223  1.8536 -0.2506
42696SOL    HW231620   5.628   8.900   7.515 -1.7855 -1.6482  0.4836
42697SOL     OW31621   8.950   4.694   7.928 -0.1907 -0.1659  0.0912
42697SOL    HW131622   8.936   4.727   8.017  0.7211  0.0080  0.1757
42697SOL    HW231623   8.993   4.610   7.940  1.6954  0.7092 -0.1913
42698SOL     OW31624   7.222   4.480   7.324  0.3789  0.0522 -0.0575
42698SOL    HW131625   7.156   4.459   7.390  0.1108  0.5631 -0.1573
42698SOL    HW231626   7.260   4.563   7.353  1.1620 -0.3663  0.1316
42699SOL     OW31627   4.293   2.802   4.176 -0.0997  0.0259 -0.1114
42699SOL    HW131628   4.361   2.866   4.199 -0.0850  0.4749 -1.3446
42699SOL    HW231629   4.320   2.722   4.220 -1.4248  1.4089  3.6200
42700SOL     OW31630   4.630   6.296   4.857  0.1103  0.0715  0.0060
42700SOL    HW131631   4.650   6.237   4.784  0.5458  0.0329  0.1559
42700SOL    HW231632   4.629   6.383   4.818  1.4735  0.1716  0.1598
42701SOL     OW31633   9.614   0.539   2.938  0.3601 -0.7318  0.4151
42701SOL    HW131634   9.577   0.473   2.879 -0.5464  0.0520  0.0823
42701SOL    HW231635   9.635   0.492   3.018 -0.4631 -1.3823  0.2514
42702SOL     OW31636   1.485  10.508   2.039 -0.3877 -0.4309  0.0305
42702SOL    HW131637   1.508  10.533   1.949  0.8438 -1.9093 -0.1092
42702SOL    HW231638   1.429  10.431   2.028  1.3151 -1.8085  0.5026
42703SOL     OW31639   6.022   8.721   1.160  0.0706 -0.2805  0.4175
42703SOL    HW131640   6.098   8.665   1.142 -0.5530 -1.4950  1.3687
42703SOL    HW231641   5.946   8.665   1.139 -0.5726  0.7685 -0.1221
42704SOL     OW31642   2.199   8.811  10.836  0.2723  0.3615 -0.6014
42704SOL    HW131643   2.179   8.731  10.886  0.0965  1.6628  1.5200
42704SOL    HW231644   2.263   8.782  10.771  0.9313 -1.3374  0.7062
42705SOL     OW31645   4.619   0.810   8.371  0.4309 -0.3967 -0.5141
42705SOL    HW131646   4.696   0.821   8.315 -0.7568  3.0084 -1.7553
42705SOL    HW231647   4.647   0.837   8.458  0.9921 -0.5916 -0.6345
42706SOL     OW31648   6.670   9.646   4.115  0.7540  0.3364 -0.2193
42706SOL    HW131649   6.705   9.724   4.073  0.8596  0.8455  0.7773
42706SOL    HW231650   6.576   9.663   4.123  0.6505  0.0188 -0.7006
42707SOL     OW31651   0.554   0.777   7.878  0.0857  0.0153 -0.1575
42707SOL    HW131652   0.511   0.861   7.894  1.6285  0.6396  0.8887
42707SOL    HW231653   0.630   0.798   7.824 -0.2785 -0.9255 -1.0760
42708SOL     OW31654   7.565   5.038   7.207  0.1810  0.0933 -0.0430
42708SOL    HW131655   7.585   5.054   7.299  1.9301 -3.2716  0.3226
42708SOL    HW231656   7.639   5.075   7.159  0.0731  0.4196  0.0428
42709SOL     OW31657   8.548   6.645   6.608  0.8276  0.3450 -0.3486
42709SOL    HW131658   8.626   6.639   6.663  1.0414 -0.7224 -0.7485
42709SOL    HW231659   8.510   6.730   6.630  1.5422  0.4396  0.5961
42710SOL     OW31660   5.107   7.074   4.920 -0.2857 -0.4446  0.3589
42710SOL    HW131661   5.052   6.996   4.920 -0.1944 -0.5191 -1.0346
42710SOL    HW231662   5.049   7.145   4.893 -0.4599  0.0770  1.9659
42711SOL     OW31663   7.430   0.357   7.658 -0.1098  0.1802 -0.4206
42711SOL    HW131664   7.455   0.264   7.659 -1.1741 -0.1224 -0.9773
42711SOL    HW231665   7.487   0.396   7.591  0.2711 -0.0917 -0.2553
42712SOL     OW31666   5.539   1.153   1.363 -0.3598  0.0652  0.0899
42712SOL    HW131667   5.513   1.158   1.455 -0.1972  0.2223  0.1273
42712SOL    HW231668   5.469   1.201   1.317  0.7804  2.1292  0.3736
42713SOL     OW31669   1.407   0.515   4.316 -0.0241  0.5391 -0.1397
42713SOL    HW131670   1.361   0.464   4.250  2.3698 -0.8487 -0.8614
42713SOL    HW231671   1.359   0.498   4.397 -1.8705  0.7300 -1.1401
42714SOL     OW31672   2.158   7.202   4.429  0.3625 -0.5540 -0.4818
42714SOL    HW131673   2.161   7.294   4.400  0.7163 -1.0581 -2.1412
42714SOL    HW231674   2.087   7.200   4.493  0.2352  0.8509 -0.5330
42715SOL     OW31675   0.722   1.030   9.167 -0.0295 -0.0543  0.3138
42715SOL    HW131676   0.686   1.110   9.129  0.6494  0.6248  1.0553
42715SOL    HW231677   0.815   1.050   9.183 -0.4053 -0.0500  2.9027
42716SOL     OW31678   9.863   9.899   4.634  0.0260 -0.0105 -0.8025
42716SOL    HW131679   9.774   9.904   4.597 -0.1467 -1.5563 -0.6735
42716SOL    HW231680   9.920   9.924   4.562 -0.4257 -0.8150 -1.4586
42717SOL     OW31681   2.952   7.408   5.755 -0.7775  0.3915  0.2836
42717SOL    HW131682   2.976   7.501   5.762 -0.5420  0.2492  1.5365
42717SOL    HW231683   2.955   7.390   5.661  1.3405  1.0925  0.1635
42718SOL     OW31684   1.320   5.221   6.166  0.7628 -0.2614 -0.1395
42718SOL    HW131685   1.299   5.175   6.085  1.1845  1.8321 -1.5211
42718SOL    HW231686   1.410   5.253   6.152 -0.2619  2.8633 -0.2765
42719SOL     OW31687   6.422  11.095   2.635  0.0784  0.4337 -0.3815
42719SOL    HW131688   6.506  11.055   2.657  0.4914  1.3821 -0.1784
42719SOL    HW231689   6.364  11.021   2.614  0.1148 -0.4336  2.2910
42720SOL     OW31690   6.773   9.236  10.766  0.1824 -0.2962  0.1756
42720SOL    HW131691   6.743   9.250  10.676 -1.0653 -2.3109  0.2167
42720SOL    HW231692   6.733   9.307  10.816 -3.0170 -1.6992 -0.1374
42721SOL     OW31693   2.234   0.597   2.998  0.2128 -0.4279  0.2122
42721SOL    HW131694   2.289   0.519   3.009  1.1325 -0.0525 -1.4848
42721SOL    HW231695   2.292   0.670   3.017  0.4442 -0.0137 -1.8543
42722SOL     OW31696   6.194   9.203   8.795 -0.3826  0.1449  0.0659
42722SOL    HW131697   6.247   9.230   8.720  1.7887 -0.0984  1.4185
42722SOL    HW231698   6.142   9.281   8.817 -0.9390  0.2661 -1.5555
42723SOL     OW31699   3.402   6.700   1.788  0.1720 -0.5222 -0.3178
42723SOL    HW131700   3.458   6.629   1.757 -0.2178 -0.8566 -0.2482
42723SOL    HW231701   3.443   6.779   1.753  0.9629 -0.7243  0.1170
42724SOL     OW31702   6.304   3.853   9.536 -0.4851  0.0744 -0.4750
42724SOL    HW131703   6.365   3.780   9.530  0.5502  0.9411 -1.0684
42724SOL    HW231704   6.230   3.828   9.482  0.4759  0.0135 -1.8173
42725SOL     OW31705   8.729   1.323   2.729  0.2828  0.1640 -0.2824
42725SOL    HW131706   8.676   1.342   2.806 -0.2443  1.2228 -0.8988
42725SOL    HW231707   8.678   1.258   2.680 -0.0610  0.5814 -0.4745
42726SOL     OW31708   3.880   5.382   0.647  0.1655 -0.7694 -0.1613
42726SOL    HW131709   3.920   5.350   0.566 -0.6068  0.2375 -0.9820
42726SOL    HW231710   3.799   5.425   0.618  0.6573  1.0272  0.9276
42727SOL     OW31711   0.762   7.877   7.004 -0.3928  0.1341 -0.2649
42727SOL    HW131712   0.735   7.932   6.931 -1.0076 -0.1859 -0.2820
42727SOL    HW231713   0.715   7.911   7.079  1.8268  1.8381  0.4827
42728SOL     OW31714   6.286   3.130   5.654 -0.2882  0.1429  0.1237
42728SOL    HW131715   6.288   3.204   5.714 -0.1873  0.3766 -0.1657
42728SOL    HW231716   6.334   3.061   5.699  1.2628  0.8450 -0.3664
42729SOL     OW31717  11.088   1.809   6.242 -1.0058 -0.7360 -0.0088
42729SOL    HW131718  11.047   1.876   6.296 -1.2435  0.0266 -1.1035
42729SOL    HW231719  11.045   1.817   6.157 -0.0367 -1.3216 -0.5728
42730SOL     OW31720   1.964  10.395  10.136  0.0197 -0.1131  0.4609
42730SOL    HW131721   1.934  10.353  10.056 -2.2895 -0.4613  1.4331
42730SOL    HW231722   1.923  10.346  10.206 -0.7684  2.2011  1.7268
42731SOL     OW31723   5.607   7.063   2.496 -0.0175 -0.3703  0.3624
42731SOL    HW131724   5.655   7.018   2.427  0.5184  0.4528  0.1793
42731SOL    HW231725   5.565   6.993   2.546 -1.1980 -0.9288 -1.3555
42732SOL     OW31726   7.147   6.102   3.455  0.3175 -0.0927 -0.4759
42732SOL    HW131727   7.160   6.054   3.373  0.5171 -0.5437 -0.1867
42732SOL    HW231728   7.233   6.137   3.475  0.3663 -0.3433 -0.2408
42733SOL     OW31729   5.127   4.290   6.579 -0.1614 -0.0368 -0.5493
42733SOL    HW131730   5.202   4.246   6.539 -1.6102 -2.1062 -1.1533
42733SOL    HW231731   5.069   4.218   6.604 -1.0184  1.3861  1.8587
42734SOL     OW31732  10.426   5.175   6.157  0.2012 -0.7610 -0.3114
42734SOL    HW131733  10.476   5.247   6.117  1.1582 -0.2832  1.6422
42734SOL    HW231734  10.358   5.155   6.093  0.6320  1.0970 -1.4193
42735SOL     OW31735  10.385   4.745   6.616 -0.1032  0.1431  0.6795
42735SOL    HW131736  10.343   4.715   6.536  0.6227  1.5221 -0.2673
42735SOL    HW231737  10.374   4.673   6.678 -2.2451 -0.2575 -0.0812
42736SOL     OW31738  10.882   7.793   8.568  0.3312  0.1027  0.2438
42736SOL    HW131739  10.963   7.769   8.524  0.7001 -2.1613  1.9301
42736SOL    HW231740  10.905   7.869   8.621  1.4809 -0.6855  0.9208
42737SOL     OW31741   8.163   3.873   8.154 -0.1855 -0.1405 -0.1401
42737SOL    HW131742   8.256   3.854   8.172  0.1791 -0.0483 -1.7741
42737SOL    HW231743   8.116   3.801   8.194  0.4546  0.5266  1.9538
42738SOL     OW31744  10.358   4.086   3.617  0.0311 -0.2721 -0.5744
42738SOL    HW131745  10.416   4.050   3.549 -1.2023 -0.9711 -1.2870
42738SOL    HW231746  10.292   4.134   3.567 -0.4127 -0.0833  0.1970
42739SOL     OW31747   9.648   5.460   0.287  0.3701  0.1547 -0.2054
42739SOL    HW131748   9.709   5.532   0.271 -1.2126  1.6128  0.0090
42739SOL    HW231749   9.607   5.483   0.370 -1.3289 -0.1391 -0.9363
42740SOL     OW31750   6.923   2.953   5.214 -0.0815 -0.3885 -0.0653
42740SOL    HW131751   6.910   2.999   5.131 -2.1226  0.1167  0.4892
42740SOL    HW231752   6.955   3.019   5.274  0.5056 -0.5544 -0.1801
42741SOL     OW31753   7.126  10.483   1.807 -0.1275 -0.2734  0.8625
42741SOL    HW131754   7.187  10.409   1.808  0.7757  0.4103 -0.5762
42741SOL    HW231755   7.041  10.443   1.787  0.1651 -1.0250  1.0729
42742SOL     OW31756   2.135  10.187   0.634  0.1651 -0.2357 -0.0402
42742SOL    HW131757   2.140  10.234   0.717  0.1779  0.6226 -0.5075
42742SOL    HW231758   2.167  10.099   0.653  0.8830  0.1781  0.6932
42743SOL     OW31759   3.069   8.193   1.195 -0.6040 -0.1001  0.1782
42743SOL    HW131760   3.107   8.271   1.235  0.8911 -1.4143  1.4476
42743SOL    HW231761   3.036   8.223   1.110  1.1552  1.6238  0.0420
42744SOL     OW31762   1.204   9.299   9.016 -0.2251 -0.4617  0.0846
42744SOL    HW131763   1.143   9.227   9.030 -0.8958 -0.2488 -1.6116
42744SOL    HW231764   1.236   9.287   8.927  0.9646  0.3823  0.3680
42745SOL     OW31765   5.431   7.417   9.817  0.0556 -0.1364  0.0517
42745SOL    HW131766   5.344   7.443   9.847  0.0065 -0.9325  0.6257
42745SOL    HW231767   5.479   7.499   9.806 -0.4946  0.2584  0.5669
42746SOL     OW31768   6.284   4.897   4.944  0.3801 -0.1658  0.5692
42746SOL    HW131769   6.377   4.920   4.946  0.7077 -1.0218 -1.5792
42746SOL    HW231770   6.283   4.806   4.914 -1.1849  0.1732 -0.5029
42747SOL     OW31771   4.107  10.125   4.220 -0.1294  0.3175  0.3402
42747SOL    HW131772   4.188  10.134   4.270 -0.9889  2.3419  1.5210
42747SOL    HW231773   4.049  10.074   4.277 -0.3878  0.7534  0.4764
42748SOL     OW31774   3.325   5.638   6.405 -0.0830 -0.1828  0.4514
42748SOL    HW131775   3.369   5.706   6.456  2.0604  0.5601 -2.1106
42748SOL    HW231776   3.232   5.662   6.407  0.7532  4.3898 -2.1930
42749SOL     OW31777   7.341   0.038  10.825  0.2104 -0.0912 -0.5002
42749SOL    HW131778   7.378  -0.007  10.901  0.2059  0.4595 -0.1699
42749SOL    HW231779   7.359  -0.021  10.751 -0.4648 -0.9878  0.0373
42750SOL     OW31780   3.826   9.410   3.375 -0.1980 -0.3036  0.2540
42750SOL    HW131781   3.782   9.494   3.382 -0.2000 -0.0066 -2.3097
42750SOL    HW231782   3.760   9.351   3.338  1.0390 -0.2065 -2.3215
42751SOL     OW31783   8.129   4.102   1.689  0.0562 -0.1931 -0.6187
42751SOL    HW131784   8.102   4.181   1.736  0.4715  0.5501 -1.5870
42751SOL    HW231785   8.203   4.068   1.740 -1.9716 -1.7177  1.5197
42752SOL     OW31786   5.278  10.169   4.154  0.3736 -0.2462  0.0805
42752SOL    HW131787   5.204  10.115   4.184  0.0125 -0.6194 -1.3862
42752SOL    HW231788   5.251  10.259   4.173 -0.7320 -0.3363 -0.9596
42753SOL     OW31789   0.600   7.499  10.038 -0.4186 -0.0840 -0.1707
42753SOL    HW131790   0.582   7.418  10.086 -1.4557  0.0747 -0.2615
42753SOL    HW231791   0.695   7.510  10.045  0.0719 -2.3865 -1.8906
42754SOL     OW31792   0.710   7.570   6.088 -0.4326  0.0541 -0.6411
42754SOL    HW131793   0.805   7.565   6.083 -0.5593 -1.6313 -2.6729
42754SOL    HW231794   0.682   7.483   6.115 -1.3905  0.8779  1.1704
42755SOL     OW31795   9.491   3.228   4.435 -0.5416 -0.4180  0.6783
42755SOL    HW131796   9.518   3.191   4.351 -1.2925  1.1085 -0.2894
42755SOL    HW231797   9.547   3.185   4.500 -0.6893 -2.4515 -0.4529
42756SOL     OW31798   5.563   3.307   7.330  0.3894  0.6432  0.3808
42756SOL    HW131799   5.521   3.236   7.280  0.1873  0.1709  1.2102
42756SOL    HW231800   5.548   3.385   7.276 -0.0323  0.1840 -0.1870
42757SOL     OW31801   0.894   1.381   8.656  0.2770  0.3158  0.0442
42757SOL    HW131802   0.917   1.422   8.739 -0.0086 -1.2593  0.9405
42757SOL    HW231803   0.977   1.374   8.609  0.6373  0.1633  0.6945
42758SOL     OW31804   6.810   1.270   1.069 -0.4795 -0.4348 -0.2130
42758SOL    HW131805   6.748   1.336   1.101 -0.8221 -0.6754 -0.3794
42758SOL    HW231806   6.885   1.278   1.128 -0.4573  0.2043 -0.3210
42759SOL     OW31807   7.544   6.750   1.752  0.2274  0.2702  0.6003
42759SOL    HW131808   7.567   6.813   1.683  3.0107 -2.1570 -0.9106
42759SOL    HW231809   7.488   6.686   1.707 -0.3353  0.1848  1.4061
42760SOL     OW31810   2.122   6.472   2.241 -0.3654 -0.1055  0.6929
42760SOL    HW131811   2.028   6.485   2.243 -0.3894  0.7723 -1.8264
42760SOL    HW231812   2.152   6.523   2.165  2.1399 -0.3492  1.4038
42761SOL     OW31813  10.267   4.307   4.239  0.7115  0.0837 -0.1654
42761SOL    HW131814  10.328   4.374   4.270  0.7262  0.0133 -0.0439
42761SOL    HW231815  10.257   4.326   4.145  0.2742  0.6058 -0.0155
42762SOL     OW31816  10.904   1.771   9.930  0.0966  0.0775  0.3237
42762SOL    HW131817  10.992   1.808   9.924  1.0926 -1.8648  2.0348
42762SOL    HW231818  10.859   1.824   9.996 -1.3566  3.3298 -2.9245
42763SOL     OW31819   1.887   2.330   8.290  0.2156 -0.0138 -0.0790
42763SOL    HW131820   1.839   2.352   8.369  0.6862  0.1962  0.1484
42763SOL    HW231821   1.918   2.414   8.256 -1.1207  0.0650 -1.2370
42764SOL     OW31822   6.965   2.421   2.816 -0.1288 -0.1574  0.1318
42764SOL    HW131823   7.006   2.344   2.856  0.4397  0.7790  1.4456
42764SOL    HW231824   7.023   2.494   2.840 -1.1916  0.8322 -0.2069
42765SOL     OW31825  10.874   4.967   4.623  0.5358 -0.2063  0.0377
42765SOL    HW131826  10.814   4.892   4.616  0.9746 -0.7624  1.7460
42765SOL    HW231827  10.825   5.031   4.674  1.3108 -0.6180  1.3448
42766SOL     OW31828   7.927   3.886   1.351  0.3576  0.0567 -0.0596
42766SOL    HW131829   8.017   3.894   1.384  0.3317  0.0513  0.0128
42766SOL    HW231830   7.885   3.967   1.377  0.8818  0.9188 -1.7810
42767SOL     OW31831   8.366  10.718   9.622  0.0747 -0.7706 -0.2049
42767SOL    HW131832   8.447  10.667   9.622  0.4963 -0.2292 -2.5313
42767SOL    HW231833   8.388  10.799   9.575 -2.0464 -1.1038 -1.9623
42768SOL     OW31834   6.531   5.535   7.607  0.4269  0.5344  0.2095
42768SOL    HW131835   6.451   5.506   7.649  0.5170  2.2849  1.7177
42768SOL    HW231836   6.517   5.629   7.591  1.5332  0.5203 -1.0328
42769SOL     OW31837   3.413   1.678   1.628  0.1403  0.0016 -0.2588
42769SOL    HW131838   3.413   1.598   1.681  0.5411  0.4543  0.4409
42769SOL    HW231839   3.504   1.709   1.631  0.0609  0.3099 -0.8066
42770SOL     OW31840   3.974   6.583   0.980 -0.2833  0.3828  0.1894
42770SOL    HW131841   3.957   6.490   0.996  0.2311  0.0032 -1.3150
42770SOL    HW231842   4.040   6.584   0.911 -0.2498  1.8698  0.2132
42771SOL     OW31843   5.821   5.240   6.655 -0.2847 -0.9058  0.2262
42771SOL    HW131844   5.908   5.227   6.617 -1.3105 -1.4473 -2.0610
42771SOL    HW231845   5.768   5.276   6.584 -1.9955 -0.7350  1.5222
42772SOL     OW31846   3.980   7.980  10.565  0.0477  1.0780  0.3812
42772SOL    HW131847   4.045   7.936  10.509  1.3292  2.0600  1.0313
42772SOL    HW231848   3.918   8.019  10.503 -0.7384 -0.9974 -0.2213
42773SOL     OW31849   1.247  10.851   9.652  0.2253 -0.3826 -0.1332
42773SOL    HW131850   1.280  10.889   9.571 -0.7405 -0.2080 -0.4660
42773SOL    HW231851   1.205  10.924   9.697  0.4631 -0.5509  0.3590
42774SOL     OW31852   0.169   3.634   8.411 -0.5436  0.4984 -0.4621
42774SOL    HW131853   0.158   3.697   8.340  0.1212 -0.4531 -1.4388
42774SOL    HW231854   0.083   3.592   8.420 -0.1702 -0.6993 -2.0248
42775SOL     OW31855   6.827   5.734   0.210 -0.4711 -0.1349  0.0143
42775SOL    HW131856   6.873   5.815   0.188  0.2766 -0.3537  0.6894
42775SOL    HW231857   6.896   5.667   0.207 -1.3296 -1.0054 -1.8846
42776SOL     OW31858   2.870   1.511   9.724  0.3512 -0.0207  0.7411
42776SOL    HW131859   2.901   1.422   9.709  0.9910  0.1393  1.0697
42776SOL    HW231860   2.800   1.523   9.660 -0.2086 -0.9944  1.1397
42777SOL     OW31861   4.589   7.919   4.855 -0.2366 -0.1878  0.2821
42777SOL    HW131862   4.540   7.934   4.774 -0.3762  0.3330  0.4608
42777SOL    HW231863   4.642   7.998   4.865  0.3714 -0.5968  0.2816
42778SOL     OW31864   8.421   4.669   4.696 -0.6114  0.3753 -0.0878
42778SOL    HW131865   8.422   4.740   4.631 -2.3521  1.3499  0.8793
42778SOL    HW231866   8.440   4.713   4.779 -1.3106 -0.3540  0.4705
42779SOL     OW31867   8.103   2.750   8.847  0.7838 -0.5911 -0.2102
42779SOL    HW131868   8.171   2.813   8.873  0.0719  1.1363 -2.2100
42779SOL    HW231869   8.103   2.754   8.751 -1.2052 -1.6094 -0.2959
42780SOL     OW31870   5.299   6.852   4.460  0.2949 -0.2339 -0.1604
42780SOL    HW131871   5.301   6.776   4.518 -0.1430  1.0494  1.5867
42780SOL    HW231872   5.206   6.872   4.450  0.4605  1.7216  1.6826
42781SOL     OW31873   8.506  10.916   2.908  0.5088 -0.2935 -0.2968
42781SOL    HW131874   8.531  10.916   3.001 -0.4694 -0.1898 -0.0231
42781SOL    HW231875   8.410  10.924   2.909  0.2964 -2.2371 -1.2644
42782SOL     OW31876   4.162   2.632   6.174 -0.1474 -0.4138  0.2294
42782SOL    HW131877   4.099   2.664   6.239  0.8861  0.9444  0.6192
42782SOL    HW231878   4.113   2.634   6.091 -1.0835 -0.9160  0.7485
42783SOL     OW31879   7.631   9.981   4.742  0.0905  0.3431 -0.1909
42783SOL    HW131880   7.676  10.060   4.770 -0.2562  1.5772 -2.7916
42783SOL    HW231881   7.678   9.952   4.664 -1.7881 -0.0274 -1.2608
42784SOL     OW31882   4.395   0.167   4.311 -0.0554  0.2215 -0.2017
42784SOL    HW131883   4.446   0.122   4.245 -0.8692  0.6972 -1.1794
42784SOL    HW231884   4.323   0.106   4.332 -0.4004  0.5006 -0.5510
42785SOL     OW31885   5.054   5.638   6.007  0.2269 -0.1521 -0.0125
42785SOL    HW131886   5.113   5.634   6.083 -0.0039 -1.1963  0.1295
42785SOL    HW231887   5.081   5.717   5.960  1.0138 -0.0165  0.6358
42786SOL     OW31888   7.648   5.175   2.436 -0.0336  0.7588 -0.4959
42786SOL    HW131889   7.642   5.097   2.492  2.6183  2.4550  2.4727
42786SOL    HW231890   7.719   5.155   2.375 -0.8670  0.0730 -1.2755
42787SOL     OW31891  10.067   5.499   0.334 -0.2268  0.9995 -0.3389
42787SOL    HW131892  10.146   5.495   0.388 -1.0704 -1.3967  0.8627
42787SOL    HW231893  10.098   5.515   0.245  1.9276 -2.2172 -0.3353
42788SOL     OW31894   3.951   6.007   0.948 -0.4633  0.3190  0.2677
42788SOL    HW131895   3.856   6.020   0.950 -0.7079 -1.2627  0.0874
42788SOL    HW231896   3.974   5.989   1.039 -0.5199 -0.4104  0.1428
42789SOL     OW31897   1.475   4.556   9.595 -0.2387  0.1153  0.7228
42789SOL    HW131898   1.520   4.478   9.563  0.2374  1.1116 -1.1547
42789SOL    HW231899   1.544   4.612   9.631 -0.0819  1.1076 -1.0335
42790SOL     OW31900  11.032   6.244   8.170  0.3649  0.4036  0.2512
42790SOL    HW131901  11.033   6.165   8.224  0.8869  0.9186  1.0169
42790SOL    HW231902  11.062   6.215   8.084 -1.7491 -0.6953 -0.1817
42791SOL     OW31903  11.029   8.303  11.021 -0.5363 -0.3118  0.3922
42791SOL    HW131904  11.074   8.361  10.960 -0.3598 -0.1345  0.6855
42791SOL    HW231905  10.937   8.324  11.011 -0.5432 -0.5659 -0.0998
42792SOL     OW31906   2.773   8.204   6.064  0.2435  0.3802  0.1871
42792SOL    HW131907   2.690   8.239   6.030 -0.2064 -1.1796 -0.4208
42792SOL    HW231908   2.812   8.159   5.989  1.6124  0.9907  0.4995
42793SOL     OW31909  10.962   7.208   8.212  0.0518  0.1473 -0.0071
42793SOL    HW131910  10.974   7.145   8.283  1.0018 -0.0110 -0.2892
42793SOL    HW231911  10.873   7.193   8.181 -0.0201 -0.4836  0.4859
42794SOL     OW31912   1.530   3.179   4.418  0.0688  0.4661  0.0365
42794SOL    HW131913   1.466   3.123   4.375  0.2829  0.1226  0.1601
42794SOL    HW231914   1.548   3.248   4.354 -1.1144  1.0986  0.3572
42795SOL     OW31915   6.643   4.954   7.841 -0.1492 -0.0833  0.0572
42795SOL    HW131916   6.676   5.040   7.866  0.5067  0.4831 -2.4377
42795SOL    HW231917   6.669   4.896   7.913 -0.1402  1.6775  1.5394
42796SOL     OW31918   8.576   3.960  11.097  0.3050  0.0232  0.0023
42796SOL    HW131919   8.634   4.034  11.118  1.4404 -0.6348 -0.6865
42796SOL    HW231920   8.621   3.884  11.133  0.2840 -0.6003 -1.2232
42797SOL     OW31921   5.638   2.599   8.688 -0.1077  0.4354  0.0712
42797SOL    HW131922   5.723   2.556   8.684 -0.1634  0.4074 -1.1384
42797SOL    HW231923   5.647   2.676   8.631 -0.1408  1.8267  1.8707
42798SOL     OW31924   4.387   7.774   8.556 -0.3951 -0.2716  0.0658
42798SOL    HW131925   4.326   7.827   8.505  0.5887  0.1534 -0.7101
42798SOL    HW231926   4.472   7.789   8.514  0.2100 -0.9924  1.0016
42799SOL     OW31927   9.773   1.010   2.566 -0.1789 -0.3267  0.2001
42799SOL    HW131928   9.821   0.969   2.638  0.8399 -0.2390 -0.4007
42799SOL    HW231929   9.816   0.978   2.487  0.2131  1.3255 -0.3097
42800SOL     OW31930   6.885   5.497   4.599 -0.1941 -0.6522  0.3250
42800SOL    HW131931   6.912   5.422   4.545 -0.6657 -0.8356  0.3426
42800SOL    HW231932   6.791   5.503   4.586  0.0153  0.8995 -0.9131
42801SOL     OW31933   4.331  10.451   7.128  0.2000 -0.2989 -0.5649
42801SOL    HW131934   4.366  10.508   7.059 -0.3709  0.3043 -0.3653
42801SOL    HW231935   4.400  10.387   7.143  1.2571  0.9159 -0.1045
42802SOL     OW31936   5.836   1.280  10.644  0.6955  0.7084  0.5516
42802SOL    HW131937   5.822   1.212  10.577  1.8801  1.3391 -0.3732
42802SOL    HW231938   5.869   1.232  10.720 -2.1354 -0.2315  1.3118
42803SOL     OW31939   3.209  10.810   6.036 -0.2021  0.0570  0.0940
42803SOL    HW131940   3.188  10.823   6.128  0.5550  0.9353  0.1575
42803SOL    HW231941   3.165  10.881   5.990 -0.3046 -0.1828 -0.1858
42804SOL     OW31942  10.097   2.468   1.094  0.5818  0.2655 -0.5272
42804SOL    HW131943  10.086   2.418   1.013  1.3521 -0.8723  0.0499
42804SOL    HW231944  10.040   2.425   1.157  1.9553 -0.5172  0.2280
42805SOL     OW31945   0.699   4.541   7.439 -0.5901  0.2654  0.0347
42805SOL    HW131946   0.687   4.492   7.521 -1.5103  4.2277  2.5466
42805SOL    HW231947   0.619   4.592   7.430  0.6345  1.9665 -1.8545
42806SOL     OW31948   0.756   5.264   3.849 -0.5107 -0.1083  0.2896
42806SOL    HW131949   0.708   5.261   3.766 -1.6104 -2.7071  0.9035
42806SOL    HW231950   0.841   5.301   3.826 -1.3400  0.7484 -1.6614
42807SOL     OW31951   9.387   2.719   1.079  0.3058 -0.8512 -0.0779
42807SOL    HW131952   9.324   2.694   1.147 -0.6724 -1.9170 -1.3049
42807SOL    HW231953   9.339   2.780   1.023  1.2018  0.2649  0.3315
42808SOL     OW31954   4.983   2.312   7.437 -0.2493  0.3187  0.0499
42808SOL    HW131955   5.044   2.241   7.460 -0.6499  0.0536  0.3023
42808SOL    HW231956   4.897   2.280   7.464 -0.3754  1.0971  0.6035
42809SOL     OW31957   9.689   8.701   9.812 -0.1762 -0.5022  0.3402
42809SOL    HW131958   9.736   8.704   9.895  0.0972 -1.0497  0.2077
42809SOL    HW231959   9.757   8.712   9.746 -0.7022  3.4904  0.2002
42810SOL     OW31960   9.751   3.087   3.003 -0.0392  0.1324  0.0716
42810SOL    HW131961   9.817   3.154   3.018  0.5774 -0.5129  0.3073
42810SOL    HW231962   9.774   3.016   3.063 -0.1026 -0.6977 -0.8568
42811SOL     OW31963   7.067   3.136   6.845  0.4619  0.1111  0.2204
42811SOL    HW131964   7.134   3.091   6.794  0.8379 -1.1197  1.7239
42811SOL    HW231965   7.108   3.151   6.930 -1.3987 -1.5035  1.4980
42812SOL     OW31966   2.914  10.233   3.305  0.2649  0.1408 -0.6744
42812SOL    HW131967   2.853  10.210   3.235 -0.2495  0.8014 -0.4603
42812SOL    HW231968   2.874  10.309   3.347  1.3655  0.7541 -0.6868
42813SOL     OW31969   9.430   0.631   4.463  0.2074 -0.4966  1.0133
42813SOL    HW131970   9.412   0.608   4.554 -1.0259  0.4506  1.0238
42813SOL    HW231971   9.444   0.726   4.464 -0.7937 -0.3238  0.0732
42814SOL     OW31972   9.255   5.301   1.795 -0.0530  0.5671  0.9406
42814SOL    HW131973   9.314   5.354   1.741  0.0072 -0.1029  0.3371
42814SOL    HW231974   9.265   5.212   1.761  0.6645 -0.0451  2.6335
42815SOL     OW31975  10.996   1.042  10.255  0.3757  0.1877 -0.3053
42815SOL    HW131976  10.956   0.961  10.287  1.2258  0.2671  1.0375
42815SOL    HW231977  10.928   1.084  10.203 -2.5308  1.7686  4.1609
42816SOL     OW31978  10.776   7.179   9.345  0.2501 -0.0164  0.5270
42816SOL    HW131979  10.836   7.113   9.380  0.8478 -0.1507 -0.6957
42816SOL    HW231980  10.824   7.262   9.354  0.5246 -0.0897 -0.2145
42817SOL     OW31981   0.002   8.724   1.548 -0.4422 -0.2636  0.3410
42817SOL    HW131982   0.065   8.743   1.478  0.7536 -2.3464  0.7785
42817SOL    HW231983  -0.079   8.702   1.502  0.0694 -0.7240 -0.3593
42818SOL     OW31984   4.450   0.451   6.124 -0.2699  0.0590  0.3352
42818SOL    HW131985   4.479   0.535   6.160  0.5333 -0.7789  1.7524
42818SOL    HW231986   4.422   0.401   6.201 -0.9538 -0.8869 -0.5150
42819SOL     OW31987   7.128   8.731   5.968  0.0241  0.6935 -0.6003
42819SOL    HW131988   7.086   8.651   6.000 -0.5152  1.0404 -0.4352
42819SOL    HW231989   7.144   8.713   5.875 -0.4081  0.5228 -0.6458
42820SOL     OW31990   9.731   6.884   5.384  0.1680  0.2489  0.3923
42820SOL    HW131991   9.693   6.823   5.448  1.7619  0.9707  2.1023
42820SOL    HW231992   9.689   6.860   5.302 -0.9187 -1.6689  1.4185
42821SOL     OW31993   1.865   6.150   6.951  0.0847  0.5639  0.2618
42821SOL    HW131994   1.919   6.073   6.970 -0.9335 -0.9427 -2.4739
42821SOL    HW231995   1.775   6.122   6.970 -0.4548  0.5262 -2.1000
42822SOL     OW31996   9.036   2.122   3.699  0.1772 -0.7639  0.5239
42822SOL    HW131997   9.027   2.121   3.794 -2.1497 -1.1710  0.3555
42822SOL    HW231998   9.131   2.120   3.684  0.6040 -2.2802  2.8105
42823SOL     OW31999  10.133   9.036   8.962 -0.7209  0.2898 -0.5940
42823SOL    HW132000  10.185   9.047   8.882  0.0828  1.1469  0.0293
42823SOL    HW232001  10.174   8.962   9.007  1.1115  2.0165  0.7280
42824SOL     OW32002   1.470   7.052   6.809  0.5100  0.4369 -0.4420
42824SOL    HW132003   1.468   7.075   6.716  0.5938  1.3173 -0.2332
42824SOL    HW232004   1.452   7.134   6.855  0.7381  0.0697  0.3264
42825SOL     OW32005   0.974   6.468   5.706 -0.3908 -0.1215  0.1354
42825SOL    HW132006   1.037   6.437   5.641  1.3060  1.1982  1.0449
42825SOL    HW232007   0.897   6.492   5.655 -0.0201 -1.3629 -1.0771
42826SOL     OW32008   2.155   8.101   8.023 -0.4468 -0.2157 -0.2631
42826SOL    HW132009   2.089   8.124   7.959  0.4327 -1.5178 -1.7207
42826SOL    HW232010   2.110   8.043   8.085 -0.6510 -1.3194 -1.3967
42827SOL     OW32011   7.715   8.543   3.108  0.1310  0.1842 -0.1895
42827SOL    HW132012   7.682   8.626   3.072  1.6396  1.1563  0.5668
42827SOL    HW232013   7.748   8.566   3.195  0.7900 -1.1700 -0.0557
42828SOL     OW32014   8.434   4.808  10.577  0.0675  0.1086 -0.2299
42828SOL    HW132015   8.364   4.870  10.596  0.2648  1.0645 -2.3306
42828SOL    HW232016   8.458   4.826  10.486  0.0631 -3.1386 -0.9961
42829SOL     OW32017   8.643   3.189   7.556 -0.2518  0.2676  0.0608
42829SOL    HW132018   8.707   3.148   7.614 -0.0266 -0.9622 -1.0050
42829SOL    HW232019   8.563   3.192   7.608 -0.3852 -1.9375  0.0811
42830SOL     OW32020   8.345   2.164   7.864  0.0174 -0.5211  0.4238
42830SOL    HW132021   8.322   2.254   7.889 -0.2290 -0.5818  0.4258
42830SOL    HW232022   8.415   2.173   7.800  0.3798 -0.3462  0.8432
42831SOL     OW32023   5.260   5.381   3.441 -0.0840  0.2265 -0.2497
42831SOL    HW132024   5.335   5.321   3.441 -0.2112  0.0595 -0.7360
42831SOL    HW232025   5.262   5.423   3.527  1.0323  0.7940 -0.5374
42832SOL     OW32026   6.054  10.947   8.281  0.2256  0.2910  0.2569
42832SOL    HW132027   5.959  10.945   8.269 -0.1973  0.3528  2.8925
42832SOL    HW232028   6.079  10.855   8.292  0.4529  0.2839 -0.3179
42833SOL     OW32029   1.297  10.834   0.720  0.0780 -1.2748 -0.5276
42833SOL    HW132030   1.276  10.790   0.638  0.6584 -1.8592 -0.3725
42833SOL    HW232031   1.339  10.916   0.694 -1.3445 -0.6016 -0.8227
42834SOL     OW32032   5.921   5.798   1.376 -0.2035  0.0610  0.6182
42834SOL    HW132033   5.842   5.758   1.341  0.4320 -0.2106 -0.5638
42834SOL    HW232034   5.889   5.863   1.439 -1.6088  2.3673 -2.1983
42835SOL     OW32035   3.074   3.506   9.346  0.2163  0.3362  0.3515
42835SOL    HW132036   3.081   3.600   9.328  0.8468  0.0537 -1.0296
42835SOL    HW232037   2.999   3.498   9.405 -0.1968  1.6462  0.0331
42836SOL     OW32038  10.698   4.835  10.269  0.0520  0.1574  0.1075
42836SOL    HW132039  10.657   4.812  10.186 -1.0564  0.7927  0.4554
42836SOL    HW232040  10.683   4.760  10.326 -2.3436  1.0725  0.8121
42837SOL     OW32041   1.503   8.332   4.548 -0.3783 -0.3646 -0.1035
42837SOL    HW132042   1.488   8.425   4.529  1.2768  0.0353  0.3446
42837SOL    HW232043   1.543   8.333   4.635 -1.1822 -1.5871  0.2958
42838SOL     OW32044   2.525   9.946   0.163 -0.3305  0.5219 -0.3548
42838SOL    HW132045   2.579   9.911   0.093  0.4984  0.3992  0.3213
42838SOL    HW232046   2.573  10.024   0.192 -0.7620  0.6776 -0.0570
42839SOL     OW32047  10.544   2.276   4.835 -0.3049 -0.0404  0.2058
42839SOL    HW132048  10.580   2.190   4.815  0.4493  0.1460  0.7212
42839SOL    HW232049  10.574   2.295   4.923  1.1225  1.5529 -0.5760
42840SOL     OW32050   4.085  10.935   6.325 -0.8050  0.0324 -0.3371
42840SOL    HW132051   3.999  10.897   6.342 -0.7304  0.1404  0.3124
42840SOL    HW232052   4.090  11.009   6.385 -0.4191  0.2652 -0.6573
42841SOL     OW32053   1.718   2.566   9.824 -0.0623  0.5527 -0.3949
42841SOL    HW132054   1.748   2.543   9.912 -0.8222 -0.0627 -0.2872
42841SOL    HW232055   1.691   2.483   9.786  1.1135  0.6718 -1.5505
42842SOL     OW32056   7.087   8.225   6.390  0.6797  0.5937  0.2757
42842SOL    HW132057   7.075   8.314   6.423 -0.8113  0.3074  0.5769
42842SOL    HW232058   7.158   8.189   6.442  1.2472  1.5827  0.1974
42843SOL     OW32059   4.634  10.985   3.482 -0.0389  0.3494  0.4713
42843SOL    HW132060   4.660  11.002   3.391  1.1327  0.5812  0.8410
42843SOL    HW232061   4.539  10.973   3.477 -0.1001  1.1282 -0.6712
42844SOL     OW32062   5.660  11.120   7.375  0.0539 -0.0980 -0.3721
42844SOL    HW132063   5.599  11.184   7.412  1.8135  1.4344  0.0360
42844SOL    HW232064   5.700  11.077   7.451  2.2167  1.6547 -0.3978
42845SOL     OW32065   4.231   2.593   9.209 -0.2131 -0.4374 -0.3876
42845SOL    HW132066   4.266   2.653   9.143 -1.4800  1.9204  0.9791
42845SOL    HW232067   4.139   2.582   9.185 -0.8563  0.9563  1.2484
42846SOL     OW32068   7.007   4.883   5.539 -0.4371 -0.4847 -0.4105
42846SOL    HW132069   7.102   4.880   5.525 -0.1246 -0.1767  1.3852
42846SOL    HW232070   6.986   4.976   5.541 -0.4534 -0.4973  0.9667
42847SOL     OW32071   2.525  10.473   6.291 -0.4302  0.1774  0.4059
42847SOL    HW132072   2.446  10.452   6.341 -0.5845  1.3072  0.6562
42847SOL    HW232073   2.573  10.390   6.287 -1.1053 -0.2716  1.1734
42848SOL     OW32074   8.104   5.544   7.638 -0.0633  0.1715  0.3206
42848SOL    HW132075   8.051   5.546   7.559  1.0471 -2.1369 -0.5764
42848SOL    HW232076   8.067   5.472   7.690  0.8347 -0.0443  0.6753
42849SOL     OW32077   7.173   1.791   9.939  0.3223  0.2553  0.2092
42849SOL    HW132078   7.091   1.801   9.892  1.9351 -0.2841 -2.9515
42849SOL    HW232079   7.190   1.877   9.977 -0.9639  0.7730 -0.3556
42850SOL     OW32080   9.582  10.132   9.441  0.1125 -0.2760 -0.1060
42850SOL    HW132081   9.491  10.159   9.440  0.4060  0.8197  1.0840
42850SOL    HW232082   9.630  10.208   9.407  0.5918 -0.8815 -0.8285
42851SOL     OW32083   1.861   4.426   6.638  0.6090 -0.0360  0.2218
42851SOL    HW132084   1.921   4.395   6.570  0.3342  0.3161 -0.1924
42851SOL    HW232085   1.791   4.469   6.589 -0.4406 -1.2177  0.6442
42852SOL     OW32086   6.610   9.519  11.109 -0.5115  0.5665  0.3427
42852SOL    HW132087   6.631   9.429  11.135  1.8951  1.2866  1.0465
42852SOL    HW232088   6.569   9.558  11.186 -0.9235  0.2947  0.2654
42853SOL     OW32089   7.132  10.304   8.532  0.4746 -0.4567 -0.6418
42853SOL    HW132090   7.046  10.345   8.531  0.2687 -0.8921 -0.9043
42853SOL    HW232091   7.171  10.332   8.615 -0.1797 -0.7914 -0.2192
42854SOL     OW32092   6.083   4.080   7.484  0.4013  0.5739 -0.3903
42854SOL    HW132093   6.073   4.119   7.571  1.5905  1.1828 -0.5028
42854SOL    HW232094   6.170   4.040   7.486 -0.0817 -0.5494 -0.8807
42855SOL     OW32095  10.922   1.431   2.145 -0.5490 -0.6570 -0.3359
42855SOL    HW132096  10.959   1.519   2.146 -0.0354 -0.8631 -0.4841
42855SOL    HW232097  10.835   1.441   2.183 -1.3149  0.2700 -2.1994
42856SOL     OW32098   3.131   8.921  10.707 -0.4600  0.1325 -0.3829
42856SOL    HW132099   3.218   8.885  10.726 -0.7044  0.0656  0.6666
42856SOL    HW232100   3.137   9.013  10.730 -0.9703 -0.1047  0.7743
42857SOL     OW32101   2.777   0.931   8.129  0.3016  0.5297 -0.0377
42857SOL    HW132102   2.698   0.913   8.179  0.7021  0.0626  0.4479
42857SOL    HW232103   2.794   0.849   8.082 -0.0251  0.9377 -0.8797
42858SOL     OW32104   7.437   5.715   1.034  0.0989  0.3277 -0.5947
42858SOL    HW132105   7.437   5.733   0.940  2.4040 -0.4563 -0.8046
42858SOL    HW232106   7.385   5.635   1.043  1.3384 -0.6171 -1.4780
42859SOL     OW32107   8.280   1.340   1.254  0.4843 -0.5241 -0.1425
42859SOL    HW132108   8.320   1.366   1.171  1.5177 -1.4442  0.0398
42859SOL    HW232109   8.236   1.257   1.234 -0.7865  0.1385 -0.1762
42860SOL     OW32110   0.190   1.166   7.772 -0.2240  0.4637  0.5557
42860SOL    HW132111   0.239   1.249   7.775  0.4581  0.0645  0.9070
42860SOL    HW232112   0.234   1.114   7.705 -1.7763  1.0367 -0.9888
42861SOL     OW32113   6.977   2.856  10.627 -0.4731 -0.1072 -0.2779
42861SOL    HW132114   7.058   2.898  10.656 -0.5668  1.0252 -1.5750
42861SOL    HW232115   7.003   2.765  10.609  0.3216  0.0406  0.0606
42862SOL     OW32116   1.619   2.093   8.134  0.0924 -0.5179 -0.7504
42862SOL    HW132117   1.603   2.094   8.228 -2.8560 -1.7538 -1.1439
42862SOL    HW232118   1.667   2.175   8.118 -2.6347  1.7433  1.3810
42863SOL     OW32119   7.456   8.921   8.686  0.0971  0.0495 -0.3786
42863SOL    HW132120   7.546   8.951   8.695 -0.4258  2.1506 -1.5126
42863SOL    HW232121   7.434   8.938   8.594 -1.5276 -0.2108 -0.0646
42864SOL     OW32122   2.812   2.985   7.283 -0.1183 -0.0112 -0.2660
42864SOL    HW132123   2.883   2.921   7.272 -0.2038 -0.0929 -0.3382
42864SOL    HW232124   2.795   3.018   7.195 -0.2040 -0.0276 -0.2556
42865SOL     OW32125   2.452   4.937  10.576  0.1831 -0.0532 -0.0980
42865SOL    HW132126   2.460   4.949  10.671  2.0329 -2.4844  0.1420
42865SOL    HW232127   2.530   4.888  10.552 -0.0304  0.8648 -2.9960
42866SOL     OW32128  10.436   8.170   3.830 -0.3096 -0.1179  0.2241
42866SOL    HW132129  10.531   8.180   3.839 -0.4305  2.6918 -0.5153
42866SOL    HW232130  10.400   8.212   3.908 -0.9342  0.0601 -0.1474
42867SOL     OW32131   7.302   8.379   4.862  0.3364  0.0898 -0.1649
42867SOL    HW132132   7.254   8.324   4.924  1.0084 -2.3814 -1.6925
42867SOL    HW232133   7.299   8.466   4.900 -1.6625 -0.7801  1.9161
42868SOL     OW32134   7.692  10.034   6.212 -0.0727  0.2980 -0.0461
42868SOL    HW132135   7.765   9.997   6.161 -0.8261  0.8566 -1.5926
42868SOL    HW232136   7.621   9.970   6.201 -0.1860  0.3254  0.4985
42869SOL     OW32137   9.836   1.581   6.868 -0.4618  0.6355  0.2145
42869SOL    HW132138   9.763   1.635   6.839 -0.7654  0.4240  0.5813
42869SOL    HW232139   9.823   1.498   6.822  0.0833  0.9124 -0.4604
42870SOL     OW32140   8.684   9.508   1.603  0.0434 -0.2227 -0.5622
42870SOL    HW132141   8.757   9.513   1.541  0.3472  1.8282 -0.1293
42870SOL    HW232142   8.612   9.551   1.558  0.2402  1.2108  0.3948
42871SOL     OW32143   8.209   1.468   4.899  0.4437 -0.4255 -0.0380
42871SOL    HW132144   8.183   1.489   4.989  2.0388  1.6127  0.0245
42871SOL    HW232145   8.127   1.471   4.849 -0.0545  1.8414  0.7986
42872SOL     OW32146   5.870   9.471   3.582 -0.6775 -0.1083  0.3050
42872SOL    HW132147   5.892   9.491   3.490  2.9302 -2.4585  0.4488
42872SOL    HW232148   5.857   9.376   3.583  1.4472 -0.4614  2.4717
42873SOL     OW32149   5.084   3.617   6.818 -0.0630  0.0467 -0.3160
42873SOL    HW132150   5.054   3.654   6.735 -1.4979  0.1191  0.2089
42873SOL    HW232151   5.115   3.529   6.796  0.9675  0.5840 -1.1458
42874SOL     OW32152   2.408   8.786  10.630 -0.2756 -0.3771  0.2593
42874SOL    HW132153   2.381   8.875  10.606  0.2665  0.7171  3.1827
42874SOL    HW232154   2.504   8.790  10.629 -0.2454 -0.6617  1.1988
42875SOL     OW32155   7.008   9.951   0.103  0.0665 -0.9880  0.1757
42875SOL    HW132156   6.949  10.020   0.073  0.1595 -0.5583  0.9674
42875SOL    HW232157   6.990   9.877   0.044  1.3066  0.2990 -1.9157
42876SOL     OW32158   7.876   0.179   9.526 -0.1306  0.3655 -0.4429
42876SOL    HW132159   7.896   0.166   9.618  0.9101  0.6096 -0.6228
42876SOL    HW232160   7.910   0.100   9.483 -2.7996 -0.9212 -0.3535
42877SOL     OW32161   3.122   7.851   3.845  0.2369  0.0596  0.1020
42877SOL    HW132162   3.104   7.772   3.895 -0.7464  0.6561  0.7214
42877SOL    HW232163   3.197   7.829   3.790  1.1539 -0.7114  1.6251
42878SOL     OW32164   0.672   1.944   5.903 -1.0618 -0.2178 -0.9195
42878SOL    HW132165   0.577   1.945   5.907 -1.0674 -0.7617 -0.9247
42878SOL    HW232166   0.700   1.978   5.989 -1.2564  0.5158 -1.1390
42879SOL     OW32167   6.777   4.209   3.292  0.3466 -0.4497  0.0041
42879SOL    HW132168   6.749   4.275   3.355 -0.3500 -1.3046  0.6267
42879SOL    HW232169   6.795   4.257   3.211  0.0040  0.5010  0.4866
42880SOL     OW32170  10.784  11.088   5.150 -0.2297 -0.1914  0.1144
42880SOL    HW132171  10.869  11.128   5.171  0.0606 -0.8250  0.1816
42880SOL    HW232172  10.793  11.057   5.060 -0.9568  1.1713 -0.4571
42881SOL     OW32173  10.314   8.686  10.920  0.1554 -0.1881  0.0986
42881SOL    HW132174  10.340   8.778  10.914  0.6112 -0.3824 -1.3691
42881SOL    HW232175  10.245   8.685  10.987  0.6714  1.0871  0.6813
42882SOL     OW32176   4.208  10.953   7.235  0.0144  0.3288  0.0218
42882SOL    HW132177   4.113  10.940   7.234  0.2788 -2.0381 -0.9014
42882SOL    HW232178   4.226  11.007   7.159 -0.2913 -2.9234 -2.6034
42883SOL     OW32179   0.210   9.456   7.410 -0.4540  0.8245 -0.1109
42883SOL    HW132180   0.137   9.479   7.467 -0.0030 -1.5540  1.5340
42883SOL    HW232181   0.281   9.515   7.437 -0.1459 -0.4857  2.0779
42884SOL     OW32182   3.440  10.537  10.187  0.1287  1.1267 -0.4987
42884SOL    HW132183   3.399  10.489  10.115  0.7570 -0.1388 -0.0478
42884SOL    HW232184   3.505  10.477  10.222 -1.9458  0.5372  2.8482
42885SOL     OW32185   4.369   7.317   0.063  0.2362 -0.2772  0.0384
42885SOL    HW132186   4.424   7.383   0.020 -1.5467  1.0103 -0.3750
42885SOL    HW232187   4.325   7.272  -0.010 -1.2571  0.5287  0.4211
42886SOL     OW32188   7.701   2.588   3.857 -0.2560 -0.0272 -0.2114
42886SOL    HW132189   7.783   2.560   3.899 -0.1826  2.7576  1.7721
42886SOL    HW232190   7.672   2.511   3.809  2.6441 -1.6584  0.3898
42887SOL     OW32191  10.759  10.998   2.678  0.3046 -0.1483  0.0480
42887SOL    HW132192  10.697  11.071   2.682 -1.8091 -1.8842  1.8971
42887SOL    HW232193  10.742  10.956   2.594 -0.5623 -0.1635  0.2152
42888SOL     OW32194   1.322   8.913   9.612  0.3275 -0.5713  0.4539
42888SOL    HW132195   1.345   8.937   9.702  0.3117  1.2657  0.0035
42888SOL    HW232196   1.404   8.917   9.564  0.2932 -1.3021  0.3332
42889SOL     OW32197   0.257   4.508   4.668  0.2632 -0.6083 -0.0364
42889SOL    HW132198   0.170   4.470   4.685 -0.1141  0.3569  0.2769
42889SOL    HW232199   0.248   4.548   4.581  0.2372 -0.0926  0.1995
42890SOL     OW32200   2.975   8.504   3.124 -0.1342  0.0483 -0.2720
42890SOL    HW132201   2.954   8.596   3.109 -0.7688 -0.2802 -1.5859
42890SOL    HW232202   2.892   8.458   3.117  0.2596 -0.6937 -0.2430
42891SOL     OW32203   1.495   7.809   9.770 -0.0546  0.1910 -0.3025
42891SOL    HW132204   1.536   7.840   9.851 -0.1711 -0.7364  0.1265
42891SOL    HW232205   1.563   7.758   9.727 -0.7320 -1.3993  0.4363
42892SOL     OW32206   1.534   0.712  10.880  0.4650 -0.1076  0.5141
42892SOL    HW132207   1.512   0.652  10.951  2.8483  1.2388  2.5387
42892SOL    HW232208   1.597   0.664  10.827 -2.1493 -1.5483 -1.5361
42893SOL     OW32209   1.956   7.515   8.762  0.2814 -0.4753  0.3106
42893SOL    HW132210   2.026   7.528   8.825  2.2409 -2.5337 -1.3008
42893SOL    HW232211   1.970   7.582   8.696  0.0504 -0.2112  0.5250
42894SOL     OW32212   0.727   4.562   5.738  0.0188 -0.3386  0.0482
42894SOL    HW132213   0.751   4.653   5.717 -0.7947  0.1450  1.1349
42894SOL    HW232214   0.641   4.550   5.698  0.9285 -1.2723 -1.7243
42895SOL     OW32215   1.420   2.554   2.424 -0.2956  0.2596  0.2967
42895SOL    HW132216   1.343   2.521   2.378  0.1595 -0.3342 -0.0585
42895SOL    HW232217   1.389   2.631   2.472 -1.2184 -0.2922  0.5928
42896SOL     OW32218   3.061  10.570   3.196  0.3252  0.1549 -0.1604
42896SOL    HW132219   2.988  10.512   3.172  0.2298 -0.4849  1.5190
42896SOL    HW232220   3.136  10.534   3.148 -0.3344  0.5266 -1.5279
42897SOL     OW32221   5.682   9.943   6.852 -0.1187  0.1950 -0.1834
42897SOL    HW132222   5.672  10.034   6.880  0.3797  0.0416  0.5274
42897SOL    HW232223   5.752   9.909   6.907  1.1015 -0.0561 -1.8228
42898SOL     OW32224   4.590  11.040   9.903 -0.4744 -0.5473 -0.2529
42898SOL    HW132225   4.566  10.951   9.929  1.3862 -0.7745  0.8280
42898SOL    HW232226   4.561  11.095   9.976 -0.1349 -0.4846 -0.1642
42899SOL     OW32227   2.174   2.864   5.847 -0.2723 -0.3237 -1.0343
42899SOL    HW132228   2.172   2.916   5.927  1.6176  0.3935 -1.4116
42899SOL    HW232229   2.082   2.856   5.822 -0.8699 -0.1298  0.8966
42900SOL     OW32230   5.944   3.718   2.397 -0.4334  0.4917  0.0109
42900SOL    HW132231   5.912   3.712   2.307 -0.2286 -0.1763 -0.0240
42900SOL    HW232232   5.880   3.774   2.441 -1.0959  0.0042 -0.3041
42901SOL     OW32233   3.212   3.025   7.134 -0.7446  0.2729  0.2310
42901SOL    HW132234   3.205   3.120   7.134  1.2137  0.4823 -1.6261
42901SOL    HW232235   3.168   2.998   7.053 -3.1611 -0.6732  1.7385
42902SOL     OW32236   9.943   8.989   3.809  0.2169  0.7259 -0.3682
42902SOL    HW132237   9.856   9.000   3.769  1.6110  2.3976 -3.2631
42902SOL    HW232238   9.961   8.896   3.803 -1.7102  0.1588  1.2680
42903SOL     OW32239  10.651  10.883  10.915  0.9475  0.2284 -0.3383
42903SOL    HW132240  10.705  10.828  10.973 -0.6903 -0.1875  0.8609
42903SOL    HW232241  10.714  10.925  10.857  2.3233 -2.6137 -1.0927
42904SOL     OW32242   9.626   6.611   6.653 -0.4955 -0.3743 -0.0020
42904SOL    HW132243   9.586   6.697   6.649  0.6728  0.2391  0.7533
42904SOL    HW232244   9.708   6.620   6.605 -0.4047 -1.0835  0.0081
42905SOL     OW32245   0.735   7.452   8.638  0.0113  0.1689  0.2006
42905SOL    HW132246   0.711   7.534   8.596  1.7555  1.4718  1.5919
42905SOL    HW232247   0.661   7.432   8.695 -0.1115  1.1913  0.4209
42906SOL     OW32248   3.182   0.146   1.922  0.1227  0.5646 -0.0399
42906SOL    HW132249   3.165   0.137   1.829  0.9812  1.1935 -0.2713
42906SOL    HW232250   3.098   0.128   1.964 -0.5563  1.4036 -0.9976
42907SOL     OW32251   1.614   3.819   8.665  0.3961  0.1022  0.3041
42907SOL    HW132252   1.702   3.856   8.652 -0.0436  1.1513  0.2673
42907SOL    HW232253   1.621   3.770   8.747  0.2487  2.6838  1.9792
42908SOL     OW32254  10.123   5.978   9.106 -0.4346 -0.6518 -0.5696
42908SOL    HW132255  10.056   5.952   9.169  0.3580  0.8185  0.9658
42908SOL    HW232256  10.198   6.003   9.160 -0.2195  2.1543 -1.9975
42909SOL     OW32257   1.167   1.829   8.062  0.2038 -0.3342  0.7992
42909SOL    HW132258   1.145   1.876   7.981  0.1590 -1.2167  0.2830
42909SOL    HW232259   1.217   1.892   8.114  0.7018  0.0729 -0.1471
42910SOL     OW32260   4.925   7.372   3.660 -0.4920 -0.2036  0.7562
42910SOL    HW132261   5.000   7.399   3.713 -1.3928  0.5960  1.6468
42910SOL    HW232262   4.861   7.443   3.671 -1.0634 -0.4702 -0.6551
42911SOL     OW32263   2.170   2.922   0.765 -0.1507 -0.0299 -0.6994
42911SOL    HW132264   2.154   2.989   0.698  0.3874  0.7188 -0.0978
42911SOL    HW232265   2.225   2.857   0.721  1.7914  1.3875 -0.4830
42912SOL     OW32266   1.749   4.939   8.632  0.2087 -0.1169  0.1592
42912SOL    HW132267   1.773   4.998   8.703  1.5228 -0.5523  0.0958
42912SOL    HW232268   1.798   4.970   8.557 -1.3209  0.4575 -0.6524
42913SOL     OW32269   3.764   8.099   5.388 -0.0049  0.4236  0.2152
42913SOL    HW132270   3.819   8.101   5.309  1.4168 -0.0994  1.1376
42913SOL    HW232271   3.769   8.189   5.422 -0.0257  0.4718  0.0913
42914SOL     OW32272   0.443   9.999   6.214  0.3902  0.3579 -0.1416
42914SOL    HW132273   0.381   9.950   6.159 -0.3429 -1.7397  2.3463
42914SOL    HW232274   0.521  10.007   6.160 -0.3708 -1.3475 -1.6197
42915SOL     OW32275   6.416   8.720   8.140 -0.2707  0.2632 -0.0105
42915SOL    HW132276   6.504   8.695   8.168 -0.2822 -1.1971 -1.1704
42915SOL    HW232277   6.421   8.722   8.045 -0.7870  3.0058 -0.0811
42916SOL     OW32278   3.986   1.693   7.289  0.1337 -0.8053  0.1589
42916SOL    HW132279   4.073   1.664   7.314  0.5850  1.1201  0.9953
42916SOL    HW232280   4.000   1.748   7.211 -0.5924 -2.0347 -0.8884
42917SOL     OW32281   9.168   4.262   1.066 -0.0308 -0.5507 -0.1660
42917SOL    HW132282   9.115   4.311   1.128  1.2794  0.4424  0.2206
42917SOL    HW232283   9.116   4.260   0.986 -1.0316 -0.3973  0.4719
42918SOL     OW32284   8.976  10.721   5.573 -0.2358  0.4731  0.1050
42918SOL    HW132285   9.002  10.755   5.487 -0.1146  0.7344  0.2432
42918SOL    HW232286   8.909  10.655   5.554 -0.3875  0.7089 -0.1755
42919SOL     OW32287   6.709   1.730  10.957  0.1068  0.0921 -0.2048
42919SOL    HW132288   6.781   1.740  11.018  0.5104  1.0281 -0.8088
42919SOL    HW232289   6.751   1.705  10.874 -0.2932  0.2442 -0.4586
42920SOL     OW32290   7.002   8.477   6.916 -0.3046 -0.3575 -0.2324
42920SOL    HW132291   6.925   8.532   6.898  0.7567  1.6343  1.0618
42920SOL    HW232292   7.001   8.464   7.011  1.3770  0.3763 -0.0871
42921SOL     OW32293   6.304   1.351   9.136 -0.7271 -0.2003 -0.3726
42921SOL    HW132294   6.218   1.394   9.139 -2.2334 -2.9622 -0.3951
42921SOL    HW232295   6.287   1.262   9.164  2.1042 -0.9894 -0.8246
42922SOL     OW32296   7.903   8.737  10.540  0.2553  0.2556  0.0442
42922SOL    HW132297   7.974   8.752  10.602  0.9781  0.9641 -0.9367
42922SOL    HW232298   7.862   8.655  10.569  1.5608 -0.2413  0.5209
42923SOL     OW32299   6.296   9.906   7.330  0.2967 -0.6801  0.1389
42923SOL    HW132300   6.250   9.882   7.250  0.9485 -2.7084  0.3081
42923SOL    HW232301   6.246   9.864   7.400  0.0460  0.6077  0.7586
42924SOL     OW32302   3.868   2.319   2.452  0.3549  0.9085  0.9967
42924SOL    HW132303   3.911   2.404   2.452  2.5342 -0.1149  1.0540
42924SOL    HW232304   3.935   2.258   2.484 -0.9574 -0.9045  0.4797
42925SOL     OW32305   9.702   7.886   9.182 -0.0931 -0.2247 -0.3096
42925SOL    HW132306   9.727   7.870   9.273 -1.8281 -1.1668  0.0374
42925SOL    HW232307   9.779   7.861   9.131  0.1673 -1.7877  0.7765
42926SOL     OW32308   6.151   7.127   5.520 -0.5442  0.4511 -0.7527
42926SOL    HW132309   6.149   7.192   5.590 -1.0046 -0.4296  0.0678
42926SOL    HW232310   6.107   7.170   5.446  0.8060  1.7498 -0.8558
42927SOL     OW32311   3.068   9.826   3.388  0.8621  0.0219 -0.1084
42927SOL    HW132312   3.044   9.843   3.297 -0.2068 -0.4734  0.0685
42927SOL    HW232313   3.000   9.766   3.420  0.9314  0.5879  1.1582
42928SOL     OW32314   3.205   3.132  10.179  0.4649 -0.1728  0.1455
42928SOL    HW132315   3.121   3.115  10.138 -1.1745  0.0819  3.1225
42928SOL    HW232316   3.260   3.058  10.153 -1.4449 -1.6206  0.0011
42929SOL     OW32317   9.177   7.085   1.708 -0.0779 -0.2124 -0.1901
42929SOL    HW132318   9.249   7.031   1.673 -1.3345 -2.6234  0.7102
42929SOL    HW232319   9.107   7.023   1.724 -1.6226  1.7484  1.0308
42930SOL     OW32320   1.956   0.049   7.407  1.1005  0.0710  0.0258
42930SOL    HW132321   1.957   0.119   7.473 -0.3323 -0.5209  0.7192
42930SOL    HW232322   1.943   0.095   7.324 -1.2602  0.5820  0.6198
42931SOL     OW32323   0.058   2.924   2.423  0.0098 -0.4710 -0.6293
42931SOL    HW132324   0.029   2.947   2.512  1.1650 -1.4114  0.0256
42931SOL    HW232325   0.051   2.828   2.420  0.1519 -0.4609 -1.5057
42932SOL     OW32326   7.106   5.654   3.027  0.0768  0.4282  0.4291
42932SOL    HW132327   7.102   5.732   2.972  0.7745 -0.4397 -0.8999
42932SOL    HW232328   7.197   5.651   3.058  0.0826  0.0775  0.3813
42933SOL     OW32329   5.929   7.146   7.850 -0.4803 -0.1264 -0.0416
42933SOL    HW132330   6.020   7.147   7.877 -0.2202 -2.6087 -0.6241
42933SOL    HW232331   5.886   7.086   7.912 -1.6442  0.6738 -0.0339
42934SOL     OW32332   8.037   4.466   1.296 -0.0042  0.2539  0.2060
42934SOL    HW132333   8.094   4.509   1.232  0.9749 -0.2876  0.6943
42934SOL    HW232334   8.080   4.479   1.380  0.0887 -1.2631  0.4224
42935SOL     OW32335   9.440   4.195   8.762  0.8411 -0.4717 -0.1760
42935SOL    HW132336   9.360   4.205   8.814  0.8574  1.0894 -0.4122
42935SOL    HW232337   9.409   4.180   8.673  0.7979  0.3156 -0.2996
42936SOL     OW32338   9.768   0.444   8.950  0.2684  0.3196  0.2526
42936SOL    HW132339   9.701   0.506   8.979 -0.1438  0.5663 -1.1617
42936SOL    HW232340   9.844   0.498   8.929  0.8175  0.0742  1.4757
42937SOL     OW32341   4.087   5.802   6.870 -0.4036  0.1769 -0.2154
42937SOL    HW132342   4.028   5.778   6.941 -1.8920  1.1503 -1.0887
42937SOL    HW232343   4.046   5.768   6.791 -0.5891  2.1459 -1.0190
42938SOL     OW32344   0.532  10.608   0.356 -0.3279 -0.3219  0.3730
42938SOL    HW132345   0.575  10.635   0.437 -0.6574 -1.7953  1.0843
42938SOL    HW232346   0.549  10.679   0.294 -0.8003  1.2622  1.9739
42939SOL     OW32347   7.321   2.867   8.468 -0.3153 -0.1291  0.4077
42939SOL    HW132348   7.337   2.826   8.383  0.2905  2.2251 -0.7062
42939SOL    HW232349   7.402   2.851   8.518 -0.9374 -2.1257  0.8943
42940SOL     OW32350   1.446   4.924   0.110  0.6056  0.0161 -0.2437
42940SOL    HW132351   1.427   4.900   0.019  0.6216  2.3204 -0.9155
42940SOL    HW232352   1.538   4.953   0.109  0.7562 -0.3834  0.6218
42941SOL     OW32353   4.579   6.030  10.929  0.4654  0.1997  0.1004
42941SOL    HW132354   4.652   5.968  10.926  0.7473  0.5623 -1.1577
42941SOL    HW232355   4.613   6.110  10.888 -0.1995  0.8600  0.8032
42942SOL     OW32356   1.800   7.114   0.578 -0.5002 -0.7140  0.6191
42942SOL    HW132357   1.835   7.137   0.492 -1.8605 -2.3903 -0.4424
42942SOL    HW232358   1.751   7.192   0.605  2.4583  1.0348  1.3769
42943SOL     OW32359   2.183   1.427   2.461  0.0322  0.8340  0.1599
42943SOL    HW132360   2.126   1.419   2.384 -0.0932  2.4031  0.0594
42943SOL    HW232361   2.142   1.371   2.527  0.1573 -0.5607 -0.9075
42944SOL     OW32362   4.203   3.070   5.411 -0.1915  0.1828 -0.1800
42944SOL    HW132363   4.254   3.146   5.382  0.2558 -0.1198 -0.1936
42944SOL    HW232364   4.226   3.060   5.504  0.3751 -0.4285 -0.3835
42945SOL     OW32365   2.485  10.638   4.680 -0.0364 -0.0550 -0.1078
42945SOL    HW132366   2.524  10.566   4.630 -1.3323  0.2862 -1.6840
42945SOL    HW232367   2.452  10.698   4.614  0.5006  1.7429  1.1725
42946SOL     OW32368   6.664  10.566   7.967  0.3098  0.9191  0.5112
42946SOL    HW132369   6.681  10.657   7.942  0.1645  0.3002 -2.0862
42946SOL    HW232370   6.748  10.534   8.000  0.6328  1.6757  0.4520
42947SOL     OW32371   2.183  10.017   4.075  0.7966 -0.2002 -0.2290
42947SOL    HW132372   2.264  10.056   4.105  0.3135 -0.5782  1.6967
42947SOL    HW232373   2.121  10.033   4.146 -0.5804 -0.6925 -1.2725
42948SOL     OW32374   2.856   6.247   8.600 -0.2399  0.6761  0.0716
42948SOL    HW132375   2.803   6.263   8.521  0.6238  0.3258 -0.5969
42948SOL    HW232376   2.792   6.243   8.671 -1.0277  1.1225 -0.5914
42949SOL     OW32377   4.614   5.998   1.836 -0.3785  0.0020 -0.4741
42949SOL    HW132378   4.541   5.952   1.878 -0.7191 -0.5598 -1.6517
42949SOL    HW232379   4.680   6.004   1.905 -1.2689 -0.0740  0.4175
42950SOL     OW32380   2.589   8.421   0.884 -0.1987 -0.0775 -0.3196
42950SOL    HW132381   2.606   8.500   0.833  0.2452 -0.7719 -1.2536
42950SOL    HW232382   2.493   8.417   0.891 -0.2435  0.2496 -0.7336
42951SOL     OW32383   5.650  10.442   6.040  0.7138  0.1589  0.0717
42951SOL    HW132384   5.741  10.470   6.052  0.6020  0.4676  0.2019
42951SOL    HW232385   5.645  10.357   6.082  0.8780  0.2612  0.2965
42952SOL     OW32386   8.194   9.409   0.978  0.0988 -0.4326 -0.0941
42952SOL    HW132387   8.172   9.318   0.957 -0.7616 -0.8096  2.2254
42952SOL    HW232388   8.253   9.403   1.053 -0.0081  0.9249  0.1230
42953SOL     OW32389   5.153  10.580   5.684  0.0674  0.1140  0.2843
42953SOL    HW132390   5.236  10.533   5.691  0.4056  0.6093 -0.3046
42953SOL    HW232391   5.169  10.663   5.729 -0.4370 -0.1966  1.0649
42954SOL     OW32392   6.449   4.130   8.775 -0.2460  0.4001 -0.1722
42954SOL    HW132393   6.517   4.124   8.709 -0.0524 -0.0176  0.0557
42954SOL    HW232394   6.451   4.221   8.805  0.2110  0.3858 -0.1651
42955SOL     OW32395  10.123   0.268   7.198 -0.3064  0.0390 -0.1258
42955SOL    HW132396  10.050   0.206   7.204  0.4029 -0.6999  1.9496
42955SOL    HW232397  10.085   0.352   7.226 -0.7057  0.0049 -0.5488
42956SOL     OW32398   6.929   3.612   9.037  0.2462  0.1374  0.0326
42956SOL    HW132399   6.864   3.545   9.060 -0.0758  0.7593  0.9919
42956SOL    HW232400   6.877   3.685   9.002  0.1975  1.3128  2.3414
42957SOL     OW32401   4.728   5.139   3.703  0.1933  0.1702  0.1268
42957SOL    HW132402   4.755   5.137   3.795  0.6405  1.9067  0.0691
42957SOL    HW232403   4.803   5.105   3.655 -0.0540 -0.7727  0.3968
42958SOL     OW32404   7.389   7.566   6.994 -0.2303  0.0735  0.1671
42958SOL    HW132405   7.457   7.515   6.950  0.0465 -1.1760  1.9673
42958SOL    HW232406   7.437   7.639   7.035 -0.0682 -0.3467  0.7418
42959SOL     OW32407  10.585   8.544   5.028 -0.1841 -0.0563 -0.6294
42959SOL    HW132408  10.650   8.609   5.053  0.4983 -0.4246 -1.3957
42959SOL    HW232409  10.521   8.592   4.975 -2.1798  0.9521  2.4304
42960SOL     OW32410   5.298   4.404   0.921 -0.5699 -0.0051  0.2271
42960SOL    HW132411   5.297   4.492   0.884  2.2406  0.3098  0.6459
42960SOL    HW232412   5.315   4.347   0.846 -0.3698  0.0489  0.2296
42961SOL     OW32413   1.428   3.218   9.103 -0.0671 -0.4024  0.4765
42961SOL    HW132414   1.511   3.260   9.126 -0.6949  0.8073  0.6087
42961SOL    HW232415   1.397   3.178   9.184 -0.9332  1.5068  1.1495
42962SOL     OW32416   5.885  10.793   6.752  0.5179  0.2606 -0.0464
42962SOL    HW132417   5.935  10.774   6.831 -0.7712  0.9682  0.9758
42962SOL    HW232418   5.823  10.721   6.745  1.3023 -0.3417 -1.0150
42963SOL     OW32419   5.128   4.548   0.063 -0.0174 -0.7773 -0.1711
42963SOL    HW132420   5.044   4.585   0.038  0.4865  0.0822 -0.5947
42963SOL    HW232421   5.106   4.460   0.095 -0.9411 -0.9866 -1.3198
42964SOL     OW32422   4.955   8.397   1.422  0.4762  0.0386 -0.1939
42964SOL    HW132423   4.885   8.355   1.471  0.1850 -0.5379 -1.0844
42964SOL    HW232424   4.912   8.466   1.372  0.0827 -1.7957 -2.5597
42965SOL     OW32425   5.547   4.140   2.691 -0.8073 -0.1159  0.0535
42965SOL    HW132426   5.565   4.076   2.760 -0.9845  0.9433  1.1145
42965SOL    HW232427   5.633   4.171   2.664 -0.7706  0.1753  0.4951
42966SOL     OW32428   7.341   8.881   8.027  0.7082  0.2777  0.2376
42966SOL    HW132429   7.371   8.902   8.115  0.1970  0.0226  0.4733
42966SOL    HW232430   7.421   8.885   7.973  1.2960 -1.0546  0.9738
42967SOL     OW32431  10.369   2.618   6.811 -0.5510 -0.3063  0.0489
42967SOL    HW132432  10.433   2.668   6.861 -0.4851 -1.3216  1.0225
42967SOL    HW232433  10.372   2.530   6.849 -2.0472 -0.5479 -0.3040
42968SOL     OW32434   7.848   6.759  10.962 -0.4284  0.0794  0.2473
42968SOL    HW132435   7.797   6.738  11.041 -0.4184 -1.5396 -0.1487
42968SOL    HW232436   7.911   6.687  10.954 -0.4720  0.1815 -1.2650
42969SOL     OW32437   7.525   9.822   6.200 -0.4921  0.1868  0.0797
42969SOL    HW132438   7.464   9.779   6.140 -0.1683 -0.7869  0.4278
42969SOL    HW232439   7.530   9.763   6.276  0.8459  0.2588  0.0742
42970SOL     OW32440   8.130   0.652  10.628  0.4307  0.0209  0.6328
42970SOL    HW132441   8.052   0.703  10.649 -0.4403 -0.4810 -1.1720
42970SOL    HW232442   8.174   0.640  10.712 -0.7303  1.4335  1.4990
42971SOL     OW32443   1.264   1.600   2.920 -0.0403  0.6091 -0.0062
42971SOL    HW132444   1.353   1.597   2.958 -0.0747  1.1244  0.1131
42971SOL    HW232445   1.250   1.511   2.889  0.9933  0.8086 -1.1186
42972SOL     OW32446  10.773   1.113   2.370 -0.5708 -0.0024 -0.4375
42972SOL    HW132447  10.812   1.135   2.286  0.6527 -2.0414 -0.4759
42972SOL    HW232448  10.847   1.111   2.431 -1.0995 -0.7079  0.1954
42973SOL     OW32449   9.002   0.814   3.552 -0.6264 -0.0446 -0.0369
42973SOL    HW132450   9.030   0.851   3.469 -0.2520  0.8106  0.4624
42973SOL    HW232451   8.992   0.720   3.535 -0.7284  0.1491 -1.0837
42974SOL     OW32452   7.666   1.408  10.017 -0.0136 -0.0524  0.0120
42974SOL    HW132453   7.706   1.325  10.040 -1.0071 -0.5415  0.0370
42974SOL    HW232454   7.703   1.431   9.932  1.2022  0.1162  0.5712
42975SOL     OW32455   9.931   4.383   7.216  0.6303  0.2374  0.0775
42975SOL    HW132456   9.915   4.464   7.168  0.4540  0.1932  0.0606
42975SOL    HW232457   9.919   4.407   7.308  1.9463  0.5588  0.1835
42976SOL     OW32458   8.341   5.736   6.176 -0.3173 -0.1461  0.4298
42976SOL    HW132459   8.395   5.763   6.250  0.6613  0.8987 -0.6176
42976SOL    HW232460   8.404   5.711   6.109 -1.0579  1.8580 -1.1134
42977SOL     OW32461   2.098   8.913   6.985  0.2963 -0.1388  0.2232
42977SOL    HW132462   2.067   8.898   6.895 -0.2157 -0.2363  0.4122
42977SOL    HW232463   2.055   8.844   7.036  0.3453  0.1053  0.5927
42978SOL     OW32464   0.036  10.622   2.360 -0.3521 -0.4450  0.0507
42978SOL    HW132465   0.089  10.575   2.424  0.3495 -1.2910 -1.1159
42978SOL    HW232466  -0.025  10.674   2.413  1.3927  0.3007  1.4336
42979SOL     OW32467   8.796   6.407   6.927  0.6351  0.4190  0.0430
42979SOL    HW132468   8.882   6.383   6.891  0.8097 -0.9479  1.2788
42979SOL    HW232469   8.813   6.426   7.019 -0.5067 -0.6951  0.5130
42980SOL     OW32470   8.210   3.393   1.503 -0.2786  0.6706 -0.1225
42980SOL    HW132471   8.240   3.411   1.592  0.9272  0.3555 -0.4484
42980SOL    HW232472   8.136   3.333   1.515  0.0168  0.4428  0.6570
42981SOL     OW32473   3.835   9.755   5.229  0.1878  0.3183  0.3311
42981SOL    HW132474   3.816   9.665   5.257  0.6010  0.6018  1.6021
42981SOL    HW232475   3.913   9.780   5.279  0.3754  1.2210 -0.3778
42982SOL     OW32476   4.777   5.594   9.497 -0.2383 -0.2226 -0.1267
42982SOL    HW132477   4.708   5.595   9.431 -0.0367 -0.0098 -0.3358
42982SOL    HW232478   4.748   5.658   9.563 -0.2847 -0.2005 -0.1689
42983SOL     OW32479   9.255   0.852   3.609 -0.0004  0.6560  0.6300
42983SOL    HW132480   9.276   0.816   3.523  0.4136  3.0362 -0.3334
42983SOL    HW232481   9.159   0.855   3.610  0.0049  1.7774 -0.2926
42984SOL     OW32482   0.365   7.396   6.818  0.2313  0.5402  0.4767
42984SOL    HW132483   0.372   7.303   6.798 -1.8916  0.5189 -0.4032
42984SOL    HW232484   0.380   7.401   6.913  1.5952 -0.5111  0.3476
42985SOL     OW32485   1.943   8.459   1.317  0.6121 -0.0952  0.2704
42985SOL    HW132486   1.975   8.464   1.408 -1.2714  1.4358  0.9050
42985SOL    HW232487   1.856   8.420   1.325  0.5292 -0.1772 -0.9355
42986SOL     OW32488   0.089  10.341   9.289 -0.1806  0.2101 -0.8152
42986SOL    HW132489   0.136  10.280   9.346 -1.1786 -0.6631 -0.8989
42986SOL    HW232490   0.008  10.360   9.336  0.2858  1.8028 -0.6081
42987SOL     OW32491   9.412   3.014  10.103  0.5036 -0.3872  0.0767
42987SOL    HW132492   9.405   3.107  10.125 -0.0166 -0.5140  0.4499
42987SOL    HW232493   9.439   3.014  10.011  0.5596  0.1325  0.0896
42988SOL     OW32494   0.762   5.992   8.978 -0.2829 -0.2942 -0.1663
42988SOL    HW132495   0.829   5.942   9.025  0.4761  0.8306 -0.0052
42988SOL    HW232496   0.795   5.998   8.888  0.4002  1.1579  0.1464
42989SOL     OW32497   6.050   4.460   5.374 -0.0278  0.1954 -0.6667
42989SOL    HW132498   6.056   4.365   5.368 -1.5387  0.1220 -1.3531
42989SOL    HW232499   6.141   4.490   5.372  0.4560 -1.2099 -0.6753
42990SOL     OW32500  10.715  10.058   9.688 -0.1047  0.3498  0.2330
42990SOL    HW132501  10.662   9.988   9.649  1.4752  0.1334 -1.6619
42990SOL    HW232502  10.656  10.133   9.691 -1.1851 -0.4751  0.3044
42991SOL     OW32503   3.747   0.369   4.350 -0.5147  0.3889 -0.0441
42991SOL    HW132504   3.736   0.287   4.302 -1.3688  0.7645 -0.5236
42991SOL    HW232505   3.743   0.345   4.442 -0.6927 -0.1166 -0.1813
42992SOL     OW32506   0.839   6.418   2.635  0.0300  0.5725  0.0444
42992SOL    HW132507   0.888   6.496   2.610  0.8270  0.7926  2.1446
42992SOL    HW232508   0.904   6.348   2.640 -0.2070  0.3933  0.8111
42993SOL     OW32509  10.300   7.277   2.087 -0.2862  0.1828  0.3083
42993SOL    HW132510  10.376   7.335   2.080  0.7756 -1.1948 -0.0123
42993SOL    HW232511  10.252   7.292   2.005 -0.3712  1.0520  0.5057
42994SOL     OW32512   6.769   3.274   5.367 -0.4354 -0.3354  0.3887
42994SOL    HW132513   6.693   3.230   5.406  0.3309 -0.9954  1.1646
42994SOL    HW232514   6.735   3.360   5.341 -1.8975 -1.2786 -0.9848
42995SOL     OW32515   6.883   9.395   7.615 -0.1163  0.1910 -0.2799
42995SOL    HW132516   6.974   9.369   7.604 -0.3930  0.2390 -3.6370
42995SOL    HW232517   6.889   9.484   7.650  1.0781 -0.1457  0.4459
42996SOL     OW32518   0.009   0.895   6.979  0.8363  0.6287  0.0278
42996SOL    HW132519  -0.019   0.898   7.070 -2.2031 -2.2193 -0.6285
42996SOL    HW232520   0.077   0.828   6.977  0.9323  0.7206  0.2201
42997SOL     OW32521  10.649   8.052   6.643  0.0210 -0.1270  0.3661
42997SOL    HW132522  10.621   7.960   6.642  0.3312 -0.2291  0.6762
42997SOL    HW232523  10.680   8.068   6.554 -1.7755  0.2386 -0.2425
42998SOL     OW32524   2.403   5.834   2.744 -0.2044  0.8063 -0.2864
42998SOL    HW132525   2.354   5.801   2.819  0.1618  0.9980  0.0442
42998SOL    HW232526   2.345   5.821   2.669 -1.0818  1.7582  0.2020
42999SOL     OW32527   0.159   0.672   8.747  0.0678  0.4463 -0.2454
42999SOL    HW132528   0.145   0.755   8.793 -0.3153  0.8286 -1.0274
42999SOL    HW232529   0.110   0.607   8.798 -0.3699  0.8668 -0.1200
43000SOL     OW32530   7.802   9.824   5.547  0.6074  0.2744  0.1383
43000SOL    HW132531   7.881   9.789   5.507  0.3671 -0.2283  0.1051
43000SOL    HW232532   7.834   9.886   5.613  1.0477 -0.3531  0.5274
43001SOL     OW32533   7.408   7.623  10.943 -0.4679  0.1286 -0.6101
43001SOL    HW132534   7.329   7.568  10.935  0.2226 -0.8931 -0.6212
43001SOL    HW232535   7.467   7.572  10.997 -0.6954  1.9413  1.4708
43002SOL     OW32536   7.840  10.223   6.726 -0.1713  0.5419  0.3614
43002SOL    HW132537   7.854  10.176   6.644 -1.1083 -1.8290  1.4367
43002SOL    HW232538   7.919  10.275   6.739  0.2212  0.5276 -1.7472
43003SOL     OW32539  10.609   8.637   2.101 -0.3600  0.3937  0.5208
43003SOL    HW132540  10.563   8.555   2.118  0.4577 -0.3497 -0.7015
43003SOL    HW232541  10.635   8.631   2.009  0.6722  1.5457  0.7138
43004SOL     OW32542   0.217   1.741   3.643  0.2854  0.0096 -0.2458
43004SOL    HW132543   0.271   1.796   3.701 -0.8267  0.6225  0.2275
43004SOL    HW232544   0.219   1.786   3.559  0.1044  0.2920 -0.0985
43005SOL     OW32545   3.582   1.845   7.909  0.3393 -0.0307  0.1574
43005SOL    HW132546   3.543   1.875   7.991  1.2708  0.0800  0.5645
43005SOL    HW232547   3.676   1.855   7.921  0.6971 -2.8073  0.1924
43006SOL     OW32548   7.462   1.442   5.014 -0.4317  0.0668  0.2430
43006SOL    HW132549   7.398   1.438   5.086 -1.7004  0.5750 -0.8205
43006SOL    HW232550   7.458   1.355   4.975 -1.9611  0.6569 -1.0238
43007SOL     OW32551   7.302   4.396   3.803  0.4323  0.1767  0.1328
43007SOL    HW132552   7.377   4.372   3.748 -1.1146 -1.5133 -1.3611
43007SOL    HW232553   7.317   4.350   3.886  1.7115  1.0076  0.3910
43008SOL     OW32554   5.105   4.435   3.622 -0.0409 -0.0394 -0.3079
43008SOL    HW132555   5.157   4.415   3.699 -0.9559 -0.5402  0.2009
43008SOL    HW232556   5.050   4.358   3.609 -0.1589  0.1871 -1.2496
43009SOL     OW32557   9.954   5.285   3.478  0.9442  0.4408  0.8225
43009SOL    HW132558   9.898   5.210   3.459  1.3242 -0.6985  3.7101
43009SOL    HW232559  10.042   5.254   3.455  0.7625  1.3324 -1.3032
43010SOL     OW32560   9.236  10.898   7.145  0.5074  0.6901 -1.0058
43010SOL    HW132561   9.274  10.813   7.121 -0.3383 -0.0459  0.1134
43010SOL    HW232562   9.152  10.900   7.100 -0.0979  0.2812  0.0553
43011SOL     OW32563   4.081   4.180   5.886 -0.0601 -0.3773 -0.0561
43011SOL    HW132564   3.986   4.168   5.883 -0.2360  0.9430 -0.2715
43011SOL    HW232565   4.097   4.264   5.841  1.5551 -2.3188 -3.5805
43012SOL     OW32566   0.634   0.792   5.318 -0.0394 -0.2179  0.1026
43012SOL    HW132567   0.588   0.822   5.396 -0.0479  0.9659 -0.3322
43012SOL    HW232568   0.655   0.873   5.270  3.3550 -0.5970  0.7335
43013SOL     OW32569   5.466   5.106   2.847 -0.1961 -0.2237 -0.1206
43013SOL    HW132570   5.423   5.125   2.763 -0.5199  1.8777  0.4690
43013SOL    HW232571   5.402   5.055   2.896  0.0152 -1.5185 -1.1322
43014SOL     OW32572   4.903   3.610   0.810  0.6581  0.2264  0.3959
43014SOL    HW132573   4.978   3.631   0.865  0.3799 -1.3227  1.4120
43014SOL    HW232574   4.881   3.519   0.832  0.0030 -0.1595 -1.6634
43015SOL     OW32575   5.173   0.642   2.694  0.4623  0.0408 -0.4251
43015SOL    HW132576   5.263   0.609   2.696  0.0731 -0.9908  1.4213
43015SOL    HW232577   5.119   0.564   2.688 -0.3633  0.6800 -2.5601
43016SOL     OW32578  10.525   3.933   1.487  0.4900  0.3439  0.2650
43016SOL    HW132579  10.476   3.957   1.566 -1.2078 -0.1523 -0.5941
43016SOL    HW232580  10.551   4.017   1.448 -1.4568  0.7343 -0.3081
43017SOL     OW32581  10.089   4.714   8.545 -0.1109 -0.3524  0.1237
43017SOL    HW132582  10.122   4.776   8.611 -0.4263 -0.0791  0.0263
43017SOL    HW232583  10.082   4.631   8.591  0.6748 -0.4076  0.1607
43018SOL     OW32584   4.230   3.764   3.812 -0.2495  0.6559  0.7458
43018SOL    HW132585   4.225   3.791   3.720 -1.1508 -0.5770  0.3993
43018SOL    HW232586   4.153   3.803   3.853 -0.3173  0.4986  0.7693
43019SOL     OW32587   7.711   7.829  10.321 -0.3889 -0.0455 -0.5087
43019SOL    HW132588   7.775   7.781  10.374  1.2165  1.5720 -0.8611
43019SOL    HW232589   7.674   7.763  10.262 -0.1065 -1.3041  0.6777
43020SOL     OW32590   1.456   1.635   7.864 -0.6736  0.0945  0.7276
43020SOL    HW132591   1.459   1.714   7.919  0.1675  0.0277  0.7873
43020SOL    HW232592   1.548   1.611   7.851 -0.8710 -0.0450 -0.5023
43021SOL     OW32593  10.595   1.438   2.702 -0.1014 -0.1144  0.0072
43021SOL    HW132594  10.629   1.358   2.663  0.5729  0.2003 -0.0583
43021SOL    HW232595  10.615   1.430   2.796  1.1114  0.5332 -0.1786
43022SOL     OW32596   7.209   3.842   9.056 -0.3500  0.0238 -0.0991
43022SOL    HW132597   7.296   3.811   9.030 -0.3771 -0.7205  0.6678
43022SOL    HW232598   7.175   3.773   9.112 -1.9474 -0.2548 -1.3510
43023SOL     OW32599   1.230   1.187   0.952 -0.3020 -0.4227 -0.3388
43023SOL    HW132600   1.256   1.095   0.948  0.6470 -0.1889  0.1088
43023SOL    HW232601   1.245   1.220   0.864  0.6170 -0.3824 -0.1767
43024SOL     OW32602   8.076   9.346   4.908 -0.0253 -0.5019  0.1937
43024SOL    HW132603   8.087   9.441   4.914 -0.8619 -0.5043  2.4217
43024SOL    HW232604   8.155   9.310   4.946 -1.0117 -0.6263  2.2426
43025SOL     OW32605   3.075   4.132   6.831  0.0181  0.2919 -0.3686
43025SOL    HW132606   3.090   4.059   6.772 -1.5192 -0.4678  0.1293
43025SOL    HW232607   3.160   4.177   6.836  1.0771 -1.6077 -0.4597
43026SOL     OW32608   1.484   9.861  10.919  0.1573 -0.4278  0.4222
43026SOL    HW132609   1.558   9.815  10.959 -0.2634 -0.8437  0.7456
43026SOL    HW232610   1.423   9.875  10.992 -0.0495 -0.0331  0.1747
43027SOL     OW32611  10.953   9.611   3.774 -0.4320  0.2583  0.5144
43027SOL    HW132612  10.873   9.558   3.769 -1.9967  2.2214  2.5679
43027SOL    HW232613  10.927   9.696   3.738 -0.4932  2.0601  4.3056
43028SOL     OW32614   1.322   7.799   7.393 -0.4965  0.2476  0.4039
43028SOL    HW132615   1.256   7.769   7.456  0.6269 -2.2199  0.4951
43028SOL    HW232616   1.283   7.879   7.355 -2.0362  0.7631  2.8024
43029SOL     OW32617   0.621   2.801   1.768  0.0707 -0.0463 -0.1530
43029SOL    HW132618   0.586   2.887   1.742  0.0626  0.7189  2.1487
43029SOL    HW232619   0.606   2.797   1.862  1.1149 -2.1249 -0.0258
43030SOL     OW32620   0.760   2.379   0.636 -0.5519 -0.0823 -0.1483
43030SOL    HW132621   0.789   2.441   0.703 -0.4519 -0.4468  0.1456
43030SOL    HW232622   0.711   2.312   0.684 -1.0141 -0.0158 -0.5162
43031SOL     OW32623   9.853   3.368   7.154 -0.7924  0.3259 -0.0463
43031SOL    HW132624   9.812   3.333   7.233 -0.8736  0.5775  0.0245
43031SOL    HW232625   9.790   3.433   7.122  0.5456  2.4633  1.3579
43032SOL     OW32626  10.094   8.498   7.199 -0.6106 -0.3750 -0.5056
43032SOL    HW132627  10.092   8.558   7.125  0.4456 -1.4584 -1.4649
43032SOL    HW232628  10.107   8.411   7.160 -2.7408 -1.3676  0.7803
43033SOL     OW32629   4.585  10.568   4.634 -0.2660 -0.0990  0.4082
43033SOL    HW132630   4.576  10.519   4.716  0.5639 -0.7228  0.1347
43033SOL    HW232631   4.509  10.542   4.582 -0.3374 -0.3548  0.6362
43034SOL     OW32632  10.172   0.138   4.136 -0.5837 -0.6122  0.3939
43034SOL    HW132633  10.152   0.228   4.110 -0.2348 -0.5099  0.4762
43034SOL    HW232634  10.160   0.086   4.057  2.1417 -0.0683 -0.4904
43035SOL     OW32635   5.937   0.753   3.370  0.0428 -0.4553 -0.1424
43035SOL    HW132636   5.923   0.666   3.407  0.8025 -1.6183 -2.4075
43035SOL    HW232637   6.033   0.764   3.370  0.1133 -0.7666 -2.2261
43036SOL     OW32638   2.992   2.892   7.600  0.3982  0.0152  0.4260
43036SOL    HW132639   2.954   2.857   7.520  2.7002 -1.9693  0.1060
43036SOL    HW232640   3.043   2.967   7.572  0.0706  0.1745  0.2516
43037SOL     OW32641   4.101  10.555   9.587 -0.4266  0.4070  0.5849
43037SOL    HW132642   4.027  10.532   9.643 -0.5533 -0.3293  0.1286
43037SOL    HW232643   4.100  10.490   9.518 -0.3146  1.3479 -0.3261
43038SOL     OW32644   3.660  10.144  10.484  0.1291 -0.6935  0.5717
43038SOL    HW132645   3.726  10.205  10.450 -1.5281  0.2641 -1.1317
43038SOL    HW232646   3.689  10.124  10.573  1.4742  1.4853  0.6997
43039SOL     OW32647   5.870   6.151   2.029 -0.2634 -0.2819  0.0214
43039SOL    HW132648   5.865   6.097   1.951 -0.9818 -1.3555  0.7801
43039SOL    HW232649   5.946   6.118   2.077  0.2403  0.4447 -0.2561
43040SOL     OW32650   9.612  10.508   1.711 -0.4067  0.3549 -0.5488
43040SOL    HW132651   9.623  10.603   1.701  0.1039  0.2065 -1.4454
43040SOL    HW232652   9.677  10.470   1.652 -0.9734 -0.5575 -0.5935
43041SOL     OW32653   4.608   3.751   0.553  0.0976 -0.0029  0.0213
43041SOL    HW132654   4.551   3.821   0.583 -0.9329 -1.0949  0.6758
43041SOL    HW232655   4.597   3.751   0.458 -1.0195 -0.2086  0.1396
43042SOL     OW32656   1.831   9.234   6.693  0.0241 -0.3345 -0.0460
43042SOL    HW132657   1.889   9.309   6.705  0.4016 -0.7178  0.5459
43042SOL    HW232658   1.743   9.272   6.689  0.1570  0.0953  0.8714
43043SOL     OW32659   9.818   4.727   5.386  0.4991  0.2228  0.7232
43043SOL    HW132660   9.849   4.654   5.441  3.3740  0.2517 -0.6868
43043SOL    HW232661   9.790   4.686   5.305 -0.6696  0.4665  0.9888
43044SOL     OW32662  10.615   4.158   2.431 -0.2463  0.0824 -0.6353
43044SOL    HW132663  10.570   4.124   2.507 -0.3677  1.0442 -0.2605
43044SOL    HW232664  10.556   4.139   2.358  0.8330 -2.8309 -0.8892
43045SOL     OW32665   5.085   6.997   9.100 -0.0402  0.3398  0.8928
43045SOL    HW132666   5.012   6.943   9.131  0.5466 -2.1124 -1.5663
43045SOL    HW232667   5.163   6.948   9.125  0.4986 -0.5893 -2.1995
43046SOL     OW32668   0.922  11.077  10.471  0.2352 -0.0116 -0.1082
43046SOL    HW132669   0.884  11.000  10.431  2.3695 -1.3683  0.2967
43046SOL    HW232670   0.904  11.067  10.565 -0.4953  0.6072 -0.1749
43047SOL     OW32671   2.061   8.777   5.939  0.1310  0.4622  0.5874
43047SOL    HW132672   2.081   8.868   5.916 -1.3708  0.4139 -1.1795
43047SOL    HW232673   2.008   8.783   6.019 -1.4148  1.3229 -0.4473
43048SOL     OW32674   8.086   2.429   3.838  0.2422 -0.3656 -0.4960
43048SOL    HW132675   8.040   2.347   3.821  1.2020 -1.0687  0.2031
43048SOL    HW232676   8.034   2.472   3.906  2.0579 -2.5198  2.4898
43049SOL     OW32677   1.796   3.077   8.225  0.1977  0.1472 -0.2048
43049SOL    HW132678   1.708   3.086   8.188  0.0447 -0.5884 -0.0297
43049SOL    HW232679   1.836   3.007   8.174  1.3023  1.5900 -1.4318
43050SOL     OW32680   6.094   2.502   4.165  0.4198 -0.3261  0.3026
43050SOL    HW132681   6.154   2.526   4.235 -0.5620  0.0434  1.0473
43050SOL    HW232682   6.007   2.522   4.200 -0.4539 -3.9303  0.5817
43051SOL     OW32683  10.894   5.829   2.950  0.0177 -0.8030  0.1106
43051SOL    HW132684  10.870   5.738   2.968  0.2973 -1.0945 -0.9452
43051SOL    HW232685  10.987   5.825   2.927  0.1603 -0.1751  0.5410
43052SOL     OW32686   1.268   2.511   3.305 -0.3160 -0.3495  0.4904
43052SOL    HW132687   1.222   2.590   3.276  0.1507  0.2026  1.2441
43052SOL    HW232688   1.219   2.481   3.381  1.5703  1.2941  2.4685
43053SOL     OW32689   4.855   1.922  10.677 -0.2507  0.1657  0.3213
43053SOL    HW132690   4.764   1.936  10.652 -0.3307 -0.2676  0.3752
43053SOL    HW232691   4.893   2.010  10.679 -0.5848  0.3172 -0.0118
43054SOL     OW32692   3.726   8.132  10.669 -0.3402 -0.0758  0.1902
43054SOL    HW132693   3.631   8.136  10.664 -0.5383 -2.6111  0.7422
43054SOL    HW232694   3.746   8.040  10.682  2.1853  0.4442  0.5890
43055SOL     OW32695   0.840   8.859   2.357  0.0905 -0.0084 -0.3924
43055SOL    HW132696   0.865   8.774   2.321 -0.5302 -0.8526  1.0975
43055SOL    HW232697   0.747   8.851   2.377  0.3864  0.3936  1.3490
43056SOL     OW32698   8.020   7.780   7.664 -0.2682  0.1620  0.1450
43056SOL    HW132699   8.039   7.794   7.571  0.0709  1.0572  0.3461
43056SOL    HW232700   7.989   7.689   7.668  0.4186 -0.1276 -0.7353
43057SOL     OW32701   7.401   9.055   4.283 -0.3923  0.3413 -0.3376
43057SOL    HW132702   7.389   8.985   4.219 -1.7039 -0.6662  0.9571
43057SOL    HW232703   7.490   9.088   4.266 -0.5422 -0.1462 -2.3783
43058SOL     OW32704   1.982   2.042   7.742  0.0261 -0.4528 -0.0594
43058SOL    HW132705   2.007   2.094   7.665  3.4076  1.7777  2.2619
43058SOL    HW232706   1.910   2.092   7.781  1.8342  1.4745  0.9853
43059SOL     OW32707   3.239  10.589   0.626  0.1389  0.1236  0.4035
43059SOL    HW132708   3.147  10.582   0.599 -0.0616 -0.7962  1.2703
43059SOL    HW232709   3.236  10.640   0.707  0.4344  0.3693  0.2608
43060SOL     OW32710   8.599   0.599  10.674  0.4644  0.2305 -1.0875
43060SOL    HW132711   8.573   0.507  10.681 -0.1584  0.4479 -0.4160
43060SOL    HW232712   8.637   0.607  10.587 -0.0466 -0.5256 -1.3887
43061SOL     OW32713   3.914   4.154   2.069  0.0190  0.0239  0.3950
43061SOL    HW132714   3.861   4.194   2.138 -1.0656  0.4017 -0.6188
43061SOL    HW232715   3.884   4.197   1.989  0.0228 -1.6340 -0.5272
43062SOL     OW32716   5.229   7.616   4.836  0.3116  0.3306 -0.1984
43062SOL    HW132717   5.147   7.660   4.859 -0.5277 -0.9296 -0.6961
43062SOL    HW232718   5.226   7.533   4.883  0.8701 -0.1338 -0.9605
43063SOL     OW32719   8.069   0.738  10.343  0.6841  0.3870 -0.7350
43063SOL    HW132720   8.093   0.722  10.434  1.8123 -0.6728 -1.1930
43063SOL    HW232721   8.004   0.670  10.324  0.2366  0.7860 -0.6475
43064SOL     OW32722   3.742   8.342   0.309 -0.3944  0.1218  0.0891
43064SOL    HW132723   3.766   8.259   0.267  0.3420  0.1487  0.4525
43064SOL    HW232724   3.760   8.328   0.402  1.3444  1.2579 -0.0450
43065SOL     OW32725   4.953   2.732   9.345  0.2085 -0.2147  0.8839
43065SOL    HW132726   4.963   2.755   9.437  0.6401 -0.7918  0.9877
43065SOL    HW232727   4.988   2.643   9.339 -0.8368 -0.6064  0.3829
43066SOL     OW32728   6.817   9.591   8.457  0.2509 -0.3296  0.4553
43066SOL    HW132729   6.896   9.629   8.495  1.7420 -1.7425 -1.0733
43066SOL    HW232730   6.799   9.513   8.510 -2.1269  1.6241  2.8451
43067SOL     OW32731   4.537   2.238   6.970 -0.4542 -0.6130  0.3180
43067SOL    HW132732   4.499   2.151   6.980 -0.3121 -0.8919 -1.2650
43067SOL    HW232733   4.624   2.222   6.932  0.1365  0.1609  1.2819
43068SOL     OW32734   8.243   5.995   9.232 -0.0114 -1.1763 -0.0225
43068SOL    HW132735   8.253   5.899   9.227 -1.0275 -1.2487 -1.0638
43068SOL    HW232736   8.333   6.028   9.226  0.6160 -2.1000  2.8079
43069SOL     OW32737  10.450   4.335   1.412  0.1219 -0.0034 -0.0092
43069SOL    HW132738  10.530   4.320   1.462 -0.5572 -1.0867  0.7824
43069SOL    HW232739  10.393   4.384   1.472  0.5731  1.7690 -0.9546
43070SOL     OW32740  10.120   0.056   9.695 -0.1634 -0.1034 -0.5077
43070SOL    HW132741  10.126   0.007   9.777  0.4461  2.1459  0.8719
43070SOL    HW232742  10.203   0.037   9.650 -0.1846 -0.7765 -0.2720
43071SOL     OW32743   2.627   7.106   0.880  0.3379 -0.5751 -0.3885
43071SOL    HW132744   2.536   7.108   0.909  0.6324 -0.1545  0.5473
43071SOL    HW232745   2.647   7.196   0.856  0.4418 -0.7049 -0.7895
43072SOL     OW32746   2.955   4.929  10.025 -0.0873  0.0732 -0.0492
43072SOL    HW132747   2.878   4.977  10.055 -0.2588  0.1149 -0.5562
43072SOL    HW232748   2.941   4.840  10.058  0.4602  0.4578  1.3037
43073SOL     OW32749   4.590   6.855   4.246  0.4139 -0.3350  0.1665
43073SOL    HW132750   4.609   6.942   4.210 -1.3181 -0.0132 -0.0444
43073SOL    HW232751   4.627   6.858   4.334 -0.3233  0.9181  0.4622
43074SOL     OW32752   9.708   4.463  10.155 -0.8838 -0.2545  0.3968
43074SOL    HW132753   9.730   4.437  10.065  0.1747 -1.5855  0.9979
43074SOL    HW232754   9.735   4.554  10.161  2.1431 -1.0349  0.2718
43075SOL     OW32755   9.069   6.519  10.819  0.1992  0.7724 -0.1830
43075SOL    HW132756   9.064   6.614  10.806  1.2701  0.5483 -2.9839
43075SOL    HW232757   8.985   6.486  10.787 -1.2098  0.8498  3.0856
43076SOL     OW32758   2.242   8.823   3.139  0.6239 -0.4343  0.0802
43076SOL    HW132759   2.220   8.738   3.100 -1.6834 -0.2740  0.8663
43076SOL    HW232760   2.309   8.860   3.081 -0.9482 -1.2095 -2.3737
43077SOL     OW32761   0.428   0.772   1.725  0.2808  0.0554 -0.1940
43077SOL    HW132762   0.348   0.738   1.684 -0.4366  0.6135  0.6852
43077SOL    HW232763   0.495   0.763   1.658 -0.5107 -0.4614 -0.9478
43078SOL     OW32764   6.924   7.557   4.982  0.5748  0.0727  0.2656
43078SOL    HW132765   6.922   7.652   4.988  0.3026  0.3074 -2.3879
43078SOL    HW232766   6.835   7.531   4.959  0.7259 -0.7849  0.5816
43079SOL     OW32767   1.911  10.018   1.171 -0.0914 -0.0132 -0.5040
43079SOL    HW132768   1.932  10.080   1.240  0.6472 -0.6550 -0.1341
43079SOL    HW232769   1.830  10.051   1.132  0.3863  1.2770 -0.4442
43080SOL     OW32770   0.123   8.222   6.879 -0.5595  0.1708 -0.0422
43080SOL    HW132771   0.150   8.304   6.920  0.2839 -0.8927  1.6551
43080SOL    HW232772   0.199   8.164   6.890 -1.0704 -0.7885 -1.3601
43081SOL     OW32773   5.588   1.087   8.033 -0.2102  0.0232  1.2262
43081SOL    HW132774   5.679   1.098   8.007 -0.2993  1.7217  1.5291
43081SOL    HW232775   5.541   1.070   7.951  0.2106  0.3376  0.9182
43082SOL     OW32776   1.442   5.342   0.644 -0.3863 -0.3375  0.6947
43082SOL    HW132777   1.394   5.276   0.595 -0.1436  0.4858 -0.7016
43082SOL    HW232778   1.534   5.313   0.641 -0.1237  0.5319 -0.7981
43083SOL     OW32779  11.097   9.625   8.125 -0.4785 -0.5338  0.2544
43083SOL    HW132780  11.107   9.652   8.216 -1.1436  0.0991  0.1455
43083SOL    HW232781  11.170   9.564   8.110 -1.5436 -2.2761  1.8017
43084SOL     OW32782   4.799   7.060   3.726  0.4506  0.4239 -0.1076
43084SOL    HW132783   4.829   7.125   3.662 -0.0411  1.4681  0.6911
43084SOL    HW232784   4.715   7.093   3.756 -1.3711 -2.1753 -1.9049
43085SOL     OW32785   9.597   8.020   1.507  1.1666  0.7868 -0.5758
43085SOL    HW132786   9.526   7.956   1.516  1.1521  1.0267  1.4222
43085SOL    HW232787   9.569   8.076   1.435 -0.2166  0.2784 -0.4674
43086SOL     OW32788   7.717   7.033   1.014  0.3300  0.0756  0.4800
43086SOL    HW132789   7.693   7.099   0.949 -0.8267 -1.3110 -0.5489
43086SOL    HW232790   7.719   6.951   0.966  2.2188 -0.6203  1.6368
43087SOL     OW32791   8.464   9.276   3.923  0.0862  0.0780  0.0287
43087SOL    HW132792   8.422   9.250   3.841 -2.5454  3.2269  0.2118
43087SOL    HW232793   8.558   9.261   3.907 -0.4556 -0.7893 -2.9774
43088SOL     OW32794   0.057   0.675   0.904 -0.2936 -0.2235 -0.0758
43088SOL    HW132795   0.132   0.722   0.868 -0.7583  0.1586 -0.5568
43088SOL    HW232796   0.074   0.673   0.999  1.4654 -2.1692 -0.3600
43089SOL     OW32797  10.333   9.327   4.012  0.3757  0.2681  0.2007
43089SOL    HW132798  10.299   9.358   4.096  1.6659  1.5286  0.3070
43089SOL    HW232799  10.364   9.238   4.029 -1.3023 -0.2864  0.4955
43090SOL     OW32800  10.756   5.472  10.227  0.1316  0.2376 -0.3000
43090SOL    HW132801  10.667   5.451  10.199 -0.2218 -0.4112  1.2516
43090SOL    HW232802  10.787   5.534  10.161 -1.4893  0.5318 -0.8318
43091SOL     OW32803   7.605   8.222   3.519 -0.1797  0.3774 -0.2027
43091SOL    HW132804   7.658   8.158   3.566  2.2953  2.9206  0.7539
43091SOL    HW232805   7.664   8.258   3.453 -1.0644  2.4078  0.0236
43092SOL     OW32806   5.652   9.023   4.652  0.4232 -0.6454 -0.0619
43092SOL    HW132807   5.714   9.062   4.714  0.4816 -1.5414  0.4617
43092SOL    HW232808   5.704   9.007   4.574 -0.0851  2.2899 -1.1233
43093SOL     OW32809   1.249   3.439   7.291  0.0021  0.4444  0.1552
43093SOL    HW132810   1.167   3.484   7.268 -0.5116 -0.4504  0.1987
43093SOL    HW232811   1.290   3.496   7.356 -1.2423  0.2625  1.1337
43094SOL     OW32812   6.250   2.572   4.924 -0.1111 -0.6472  0.2251
43094SOL    HW132813   6.195   2.641   4.961  0.3877 -0.4794  0.6588
43094SOL    HW232814   6.290   2.612   4.846  2.2805  0.4919  1.9205
43095SOL     OW32815   7.508   3.577   9.717 -0.4459  0.3383  0.1870
43095SOL    HW132816   7.573   3.646   9.730  0.4153 -0.4739  0.3037
43095SOL    HW232817   7.552   3.513   9.661 -0.8711 -0.5916  0.8919
43096SOL     OW32818   3.259   8.158   4.992 -0.1024  0.4256 -0.3505
43096SOL    HW132819   3.169   8.145   4.962 -1.2928  0.4643  2.8441
43096SOL    HW232820   3.261   8.247   5.026  0.3115 -0.4372  2.0587
43097SOL     OW32821   5.916   9.144  10.008  0.2852  0.1168  0.0331
43097SOL    HW132822   5.883   9.091  10.081  2.0256 -1.3333 -0.1797
43097SOL    HW232823   5.885   9.098   9.930  0.3500  0.3901 -0.1529
43098SOL     OW32824   1.355   7.921   0.288  0.2732 -0.5819  0.2735
43098SOL    HW132825   1.405   7.863   0.346 -0.2870 -1.6875 -0.3043
43098SOL    HW232826   1.301   7.861   0.236  1.7188  0.2192 -2.3368
43099SOL     OW32827   6.873   8.154   5.920  0.1052  0.0351  0.1892
43099SOL    HW132828   6.812   8.145   5.993 -0.0215 -0.2687  0.0520
43099SOL    HW232829   6.952   8.191   5.958  0.0829 -0.2367  0.5044
43100SOL     OW32830   2.084   2.875   1.924 -0.6874  0.1891 -1.0127
43100SOL    HW132831   2.069   2.872   1.829  0.8202 -0.9146 -1.2592
43100SOL    HW232832   2.176   2.903   1.932 -0.2234 -1.5099  0.0235
43101SOL     OW32833   2.172   5.174   8.867 -0.0225 -0.4994  0.1669
43101SOL    HW132834   2.195   5.081   8.871 -3.5815 -1.5013  1.8007
43101SOL    HW232835   2.146   5.188   8.775 -0.5604 -1.4790  0.1529
43102SOL     OW32836   9.433   1.846   9.805 -0.3253  0.6944  0.3637
43102SOL    HW132837   9.353   1.794   9.802  0.7153 -1.1377  2.0449
43102SOL    HW232838   9.452   1.856   9.898  2.7140 -1.1497  0.0759
43103SOL     OW32839   0.582  10.226   5.583  0.0478 -0.1066  0.4372
43103SOL    HW132840   0.672  10.259   5.581 -0.4225  1.2743  1.2325
43103SOL    HW232841   0.537  10.281   5.647 -1.7980  0.3166 -1.1366
43104SOL     OW32842   2.807   2.962   1.631 -0.0897  0.0373 -0.9397
43104SOL    HW132843   2.893   2.976   1.670 -0.1538 -2.5687  0.4460
43104SOL    HW232844   2.748   3.017   1.683  0.2557 -1.1794  0.8624
43105SOL     OW32845   3.721   8.563   0.710 -0.4464  0.6852 -0.3516
43105SOL    HW132846   3.653   8.503   0.740  0.8017 -0.5220  0.1569
43105SOL    HW232847   3.698   8.647   0.750 -0.8303 -0.0474  1.0293
43106SOL     OW32848   7.575  10.572   3.995 -0.0698 -0.3398  0.1416
43106SOL    HW132849   7.636  10.644   3.977 -0.5399 -0.0946 -0.5105
43106SOL    HW232850   7.626  10.510   4.047  0.1512  0.7553  1.2735
43107SOL     OW32851   6.384   5.566   3.616 -0.4815 -0.5242 -0.0426
43107SOL    HW132852   6.325   5.493   3.596 -0.2286 -1.3355  1.9293
43107SOL    HW232853   6.470   5.534   3.590 -0.5355 -0.4346 -0.3349
43108SOL     OW32854   5.072   7.588   7.668 -0.4525  0.0340 -0.3371
43108SOL    HW132855   5.118   7.651   7.724 -1.3356  1.1124 -0.7796
43108SOL    HW232856   5.089   7.619   7.579  3.1659 -3.1449 -1.0086
43109SOL     OW32857   2.844   2.916   1.067  0.2293  0.4887  0.8198
43109SOL    HW132858   2.846   2.976   0.993  0.2787 -0.5532 -0.0342
43109SOL    HW232859   2.751   2.895   1.078  0.4193 -1.3015 -0.5740
43110SOL     OW32860   5.950   5.403   4.665  0.1715  0.4361 -0.1892
43110SOL    HW132861   5.990   5.409   4.752 -0.4019  0.6190  0.0601
43110SOL    HW232862   5.966   5.312   4.639  0.4566  0.4131  0.0515
43111SOL     OW32863   5.835   1.158   5.871 -0.3961 -0.0314  0.0009
43111SOL    HW132864   5.912   1.183   5.922  0.5711 -1.1025 -0.8690
43111SOL    HW232865   5.828   1.225   5.803  0.1020 -0.2298 -0.2466
43112SOL     OW32866   2.476   5.092   9.491  0.7421 -1.0008 -0.3013
43112SOL    HW132867   2.460   5.146   9.414 -0.0355  1.4618  1.4424
43112SOL    HW232868   2.408   5.024   9.487 -0.4609  0.1831 -0.8860
43113SOL     OW32869   2.483   9.615   8.958 -0.4228 -0.1150  0.4736
43113SOL    HW132870   2.490   9.633   9.052  1.6206 -0.8147  0.4949
43113SOL    HW232871   2.573   9.611   8.927 -0.9007 -3.0482 -0.8899
43114SOL     OW32872   7.584   7.792   9.820  0.2467  0.2645  0.3228
43114SOL    HW132873   7.674   7.790   9.787  0.0541  1.8590 -0.3506
43114SOL    HW232874   7.532   7.825   9.747 -1.0292 -1.3414  0.4546
43115SOL     OW32875   5.787   7.276   2.401  0.0969 -0.2854  0.3017
43115SOL    HW132876   5.741   7.213   2.346 -0.9029  1.2193 -0.6773
43115SOL    HW232877   5.754   7.259   2.489  0.1745 -1.3889  0.1307
43116SOL     OW32878   0.476   4.057   2.807 -0.0615 -0.0932  0.3185
43116SOL    HW132879   0.386   4.026   2.813 -0.4647  0.2169 -2.7318
43116SOL    HW232880   0.523   3.989   2.759  0.5632  1.0732 -0.8045
43117SOL     OW32881   7.211   1.993   3.862 -0.5078 -0.6780  0.2337
43117SOL    HW132882   7.211   1.956   3.774 -1.1971  1.1153 -0.5829
43117SOL    HW232883   7.295   2.037   3.870 -0.2135 -1.3108  0.7047
43118SOL     OW32884   7.000   9.982   7.411  0.0391  0.4346 -0.1212
43118SOL    HW132885   6.945  10.028   7.346 -0.5030 -1.2747 -0.9234
43118SOL    HW232886   7.060   9.930   7.358 -0.1366 -0.6812  0.7627
43119SOL     OW32887   7.227   9.784   2.095  0.0971  0.0472  0.0638
43119SOL    HW132888   7.144   9.760   2.135  0.5762 -1.7292  0.0766
43119SOL    HW232889   7.277   9.824   2.166 -0.0927 -0.5304  0.5345
43120SOL     OW32890   0.507   9.885   8.156  0.2960 -0.6145  0.3931
43120SOL    HW132891   0.514   9.792   8.179  2.9959 -0.6938 -0.4550
43120SOL    HW232892   0.569   9.928   8.214 -0.0051  0.5128 -0.1059
43121SOL     OW32893   4.365   7.218   2.365 -0.0853 -0.0674 -0.2253
43121SOL    HW132894   4.430   7.173   2.418  0.3642  0.7426 -0.0784
43121SOL    HW232895   4.288   7.224   2.421 -0.7103 -2.0308 -0.7840
43122SOL     OW32896   0.577   6.587   5.917  0.3003  0.1233  0.5992
43122SOL    HW132897   0.626   6.604   5.997 -0.9628  0.6212  1.2962
43122SOL    HW232898   0.597   6.662   5.861 -0.1449  0.6473  1.1284
43123SOL     OW32899   8.702   7.794   3.060 -0.0069  0.3656  0.1356
43123SOL    HW132900   8.765   7.864   3.041 -1.0788  1.5673  0.8596
43123SOL    HW232901   8.751   7.731   3.113  0.7125  1.0429  0.2831
43124SOL     OW32902   9.263   0.167  10.474  0.2483  0.1107 -1.0725
43124SOL    HW132903   9.280   0.090  10.529 -1.1030  0.6736  0.2293
43124SOL    HW232904   9.254   0.132  10.385 -1.5490 -1.4505 -0.3401
43125SOL     OW32905  10.258   1.067   4.198  0.2171 -0.5631 -0.4620
43125SOL    HW132906  10.306   1.105   4.125  0.5642 -0.8736 -0.3990
43125SOL    HW232907  10.172   1.107   4.194  0.7174  0.5878 -0.1166
43126SOL     OW32908   0.386   0.391   2.978  0.5634  0.1562 -0.1206
43126SOL    HW132909   0.318   0.390   2.910 -0.2623 -0.0575  0.6861
43126SOL    HW232910   0.368   0.313   3.031  1.0913  0.4007  0.4321
43127SOL     OW32911   2.755   2.137   6.740 -0.7419 -0.5938  0.0766
43127SOL    HW132912   2.661   2.129   6.754 -0.6075 -1.5550  0.4732
43127SOL    HW232913   2.792   2.147   6.827 -0.4099 -0.9498 -0.0186
43128SOL     OW32914  10.256   8.522   3.628  0.3723 -0.4705 -0.6621
43128SOL    HW132915  10.195   8.449   3.635  1.3296 -1.5561 -2.6114
43128SOL    HW232916  10.340   8.486   3.655  0.5370  0.4390  0.0754
43129SOL     OW32917   0.338   3.245   1.012  0.3959  0.7413 -0.3829
43129SOL    HW132918   0.324   3.297   0.933 -2.6105  0.2444 -0.2896
43129SOL    HW232919   0.324   3.154   0.984 -0.5079  0.5447  0.6513
43130SOL     OW32920   3.983   3.306   3.243 -0.0370  0.0925  0.5560
43130SOL    HW132921   4.056   3.317   3.305  0.2816 -0.3178  0.2594
43130SOL    HW232922   3.947   3.394   3.232  1.4082  0.5758 -0.5161
43131SOL     OW32923   8.504   8.744   8.907  0.2696 -0.1515  0.9209
43131SOL    HW132924   8.455   8.825   8.894 -1.6598 -1.3026  0.6859
43131SOL    HW232925   8.530   8.747   9.000  1.4062  1.3068  0.6000
43132SOL     OW32926   7.799   6.832   5.563  0.5376  0.3819 -0.0299
43132SOL    HW132927   7.713   6.857   5.529 -0.6818 -2.5223  0.7007
43132SOL    HW232928   7.814   6.892   5.636 -1.9356 -0.4678  1.2649
43133SOL     OW32929   8.349   2.031   0.462  1.0530  0.3004 -0.5072
43133SOL    HW132930   8.349   2.126   0.475 -0.8134  0.3501 -0.6440
43133SOL    HW232931   8.385   1.996   0.544  3.0730  1.1313 -0.9699
43134SOL     OW32932   2.103   6.928   1.092  0.0070 -0.2078 -0.5738
43134SOL    HW132933   2.008   6.937   1.104  0.2853 -0.3781  3.0802
43134SOL    HW232934   2.119   6.834   1.089  0.0690 -0.1778 -1.3723
43135SOL     OW32935   9.886   4.333   3.678 -0.0500  0.3256  0.1145
43135SOL    HW132936   9.852   4.308   3.592  0.9571  0.1224 -0.2345
43135SOL    HW232937   9.824   4.295   3.740  0.3117 -1.2719 -0.4647
43136SOL     OW32938   3.735   6.314   7.252  0.0267  0.4320 -0.1644
43136SOL    HW132939   3.769   6.288   7.167  0.3573  2.4659 -0.6991
43136SOL    HW232940   3.807   6.362   7.293 -0.1924 -0.3527  1.1956
43137SOL     OW32941   7.807   0.414   1.504  0.3694 -0.0601 -0.4597
43137SOL    HW132942   7.773   0.392   1.417  0.8813 -0.8661 -0.4685
43137SOL    HW232943   7.729   0.425   1.558  0.0696 -1.6829 -0.5225
43138SOL     OW32944   3.532   3.539   5.540 -0.4676  0.0246 -0.0299
43138SOL    HW132945   3.554   3.567   5.451 -1.0858  0.6032 -0.0141
43138SOL    HW232946   3.544   3.444   5.539  1.6021  0.2538 -0.1144
43139SOL     OW32947   7.003  11.030   1.113 -0.0067 -0.0159  0.0800
43139SOL    HW132948   6.935  10.963   1.111 -1.6273  1.5611 -0.3699
43139SOL    HW232949   7.026  11.037   1.206  1.7712 -2.6301 -0.0708
43140SOL     OW32950   3.140  10.456   8.339 -0.5165 -0.2538  0.4930
43140SOL    HW132951   3.225  10.445   8.295 -0.7871 -0.8239  0.0947
43140SOL    HW232952   3.163  10.480   8.428  0.0853 -0.7664  0.4900
43141SOL     OW32953   9.582   6.373   8.182 -0.2027  0.4823 -0.2117
43141SOL    HW132954   9.670   6.363   8.217 -0.5736  1.4739  1.0761
43141SOL    HW232955   9.525   6.334   8.248 -0.6816 -1.6893 -1.7811
43142SOL     OW32956  10.288   4.878   9.920 -0.4447  0.3427  0.5143
43142SOL    HW132957  10.287   4.916  10.008 -0.7842  0.5004  0.4408
43142SOL    HW232958  10.231   4.934   9.868 -0.6648 -0.0567  0.3179
43143SOL     OW32959   4.085   3.038   4.181  0.7315  0.5330  0.0269
43143SOL    HW132960   4.136   2.964   4.214 -0.4535 -0.4177 -0.2056
43143SOL    HW232961   4.136   3.115   4.206  1.9206 -0.3470  0.4095
43144SOL     OW32962   7.160   3.649   8.185 -0.2968  0.1335  0.2288
43144SOL    HW132963   7.131   3.734   8.152 -1.3225  0.4047  1.7215
43144SOL    HW232964   7.244   3.634   8.142  0.1420  2.1297  0.2996
43145SOL     OW32965   8.214  10.184   8.681  0.3771  0.0386  0.2526
43145SOL    HW132966   8.191  10.165   8.590  1.9938  0.7086 -0.3389
43145SOL    HW232967   8.141  10.237   8.713 -0.8310 -1.2741 -0.2168
43146SOL     OW32968   8.976   0.645   7.683  0.0028  0.8682  0.0354
43146SOL    HW132969   8.983   0.675   7.593 -0.1914  0.9205  0.0356
43146SOL    HW232970   9.011   0.556   7.682  0.2144  0.9536 -0.0450
43147SOL     OW32971   8.749   6.329   2.456  0.3238  0.1669 -0.0061
43147SOL    HW132972   8.733   6.261   2.391 -0.6075 -0.0996  0.4948
43147SOL    HW232973   8.845   6.335   2.461  0.4251  0.3699 -1.5694
43148SOL     OW32974   1.579   4.801   3.444 -0.5899 -0.0280  0.1730
43148SOL    HW132975   1.616   4.853   3.515  1.4275 -0.6524 -0.3658
43148SOL    HW232976   1.497   4.846   3.422  0.2730  1.9970  0.8015
43149SOL     OW32977   9.280   4.365   3.467  0.0152 -0.3282  0.2648
43149SOL    HW132978   9.209   4.424   3.491  0.8826  0.5519  0.7267
43149SOL    HW232979   9.268   4.290   3.525  1.1492  1.0847  2.4589
43150SOL     OW32980   8.920   0.831   1.531  0.0433  0.0577  0.2241
43150SOL    HW132981   8.877   0.893   1.473 -2.2853 -1.3497  0.3180
43150SOL    HW232982   8.984   0.883   1.580 -1.7977  2.3590  0.3095
43151SOL     OW32983   7.932   9.901   6.065 -0.1865  0.4109  0.7838
43151SOL    HW132984   7.950   9.807   6.069  0.4541  0.5210  0.5425
43151SOL    HW232985   8.017   9.943   6.079 -0.5237  0.9642  1.2341
43152SOL     OW32986   7.806   0.686  10.185 -0.1734 -0.4108  0.2497
43152SOL    HW132987   7.812   0.737  10.266 -1.1655 -0.7481  0.5574
43152SOL    HW232988   7.831   0.597  10.210  2.4830  0.0493 -0.4867
43153SOL     OW32989   5.634   0.683  10.354 -0.2186 -0.1121 -0.0108
43153SOL    HW132990   5.636   0.630  10.434  1.0557  0.3227  0.2626
43153SOL    HW232991   5.609   0.621  10.285 -2.0129 -0.3504  0.8001
43154SOL     OW32992   7.287   4.129   2.121  0.3515 -0.4108  0.2909
43154SOL    HW132993   7.274   4.223   2.110 -0.2923 -0.5633 -0.2648
43154SOL    HW232994   7.376   4.121   2.156  1.1294  0.2923 -1.4484
43155SOL     OW32995   9.717   1.024   0.175  0.0087 -0.3136 -0.4952
43155SOL    HW132996   9.798   1.044   0.221  0.1750 -1.4065 -0.2891
43155SOL    HW232997   9.649   1.032   0.241  0.0177  0.0182 -0.5253
43156SOL     OW32998   6.967   4.680   4.978  0.3005  0.4311 -0.6201
43156SOL    HW132999   6.931   4.611   5.033 -1.0693  1.2098 -0.5101
43156SOL    HW233000   7.053   4.646   4.951 -0.1580 -1.1179 -0.2308
43157SOL     OW33001   5.482   7.755  10.087 -0.2860 -0.4301 -0.3868
43157SOL    HW133002   5.511   7.750  10.177 -0.5132 -0.6672 -0.3267
43157SOL    HW233003   5.392   7.787  10.092 -0.3864 -0.6893 -0.5157
43158SOL     OW33004   7.985   9.960   3.176 -0.3527  0.3639  0.1857
43158SOL    HW133005   8.005   9.916   3.258  0.9941  1.1734  0.3227
43158SOL    HW233006   7.894   9.938   3.158 -0.4955 -0.2803  1.6078
43159SOL     OW33007   4.297   0.066   3.497 -0.3209 -0.4092 -0.0269
43159SOL    HW133008   4.303  -0.027   3.516 -0.6460 -0.2839  0.7543
43159SOL    HW233009   4.298   0.072   3.402 -0.7679 -1.2480 -0.0907
43160SOL     OW33010   1.451   9.455   2.061 -0.7413 -0.1894  0.4286
43160SOL    HW133011   1.503   9.384   2.098  0.4684 -0.0810 -1.0069
43160SOL    HW233012   1.475   9.532   2.114 -0.8570 -0.5086  0.9552
43161SOL     OW33013   7.611   5.541   4.941  0.2994  0.3816  0.7148
43161SOL    HW133014   7.664   5.621   4.936  0.7188  0.0726  0.1210
43161SOL    HW233015   7.536   5.566   4.995  0.8213  0.9581  1.1957
43162SOL     OW33016   7.403   6.609   9.389 -0.3937  0.2772 -0.0098
43162SOL    HW133017   7.339   6.620   9.318 -0.1900  0.8877 -0.1038
43162SOL    HW233018   7.479   6.659   9.361  0.0748 -0.3139  0.1770
43163SOL     OW33019   7.385   4.576   8.137 -0.3428 -0.0771 -0.6336
43163SOL    HW133020   7.402   4.633   8.212  1.3404 -0.0385 -1.0136
43163SOL    HW233021   7.294   4.596   8.112 -0.4309  1.0012  0.4473
43164SOL     OW33022   6.981   2.609   3.429 -0.6916  0.2040 -0.1413
43164SOL    HW133023   6.901   2.584   3.382 -2.2581  0.8736  1.9543
43164SOL    HW233024   6.984   2.705   3.422 -1.8204  0.4937  2.1986
43165SOL     OW33025   4.546   8.150   5.626 -0.0385  0.3447 -0.0893
43165SOL    HW133026   4.608   8.168   5.697 -0.4770  1.1655  0.0986
43165SOL    HW233027   4.517   8.060   5.641 -0.5660  0.6984  1.1232
43166SOL     OW33028   8.997   7.457   0.660  0.0783  0.1078  0.0266
43166SOL    HW133029   8.977   7.524   0.594 -0.1142  0.5558  0.5347
43166SOL    HW233030   8.953   7.378   0.628 -1.0808  0.6417  0.2557
43167SOL     OW33031  10.662   4.605   5.102 -0.0177  0.2720 -0.0581
43167SOL    HW133032  10.614   4.522   5.097 -1.3576  1.0760 -1.7069
43167SOL    HW233033  10.685   4.625   5.011 -2.6371  3.2585 -0.2629
43168SOL     OW33034   8.892   5.581   9.801 -0.6783  0.2896  0.2862
43168SOL    HW133035   8.959   5.559   9.736 -1.4093 -0.2163 -0.3123
43168SOL    HW233036   8.940   5.628   9.870  0.2726  0.0067 -0.1653
43169SOL     OW33037   0.447   7.048   5.528  0.1995 -0.5665 -0.1809
43169SOL    HW133038   0.409   6.984   5.468  1.5917  0.3285 -2.1206
43169SOL    HW233039   0.525   7.005   5.563  1.2601  0.0811 -1.6562
43170SOL     OW33040   1.668   6.635   9.758  0.0841 -0.1445 -0.0330
43170SOL    HW133041   1.712   6.677   9.685 -0.0858  1.2635  0.6286
43170SOL    HW233042   1.622   6.707   9.802  1.0603 -0.7388  2.0787
43171SOL     OW33043   1.507   3.789  10.220 -0.3185 -0.9887  0.3390
43171SOL    HW133044   1.555   3.772  10.139 -1.0331  0.6571 -0.4876
43171SOL    HW233045   1.417   3.805  10.191 -0.1915  1.7018  1.1771
43172SOL     OW33046   1.359   0.623   0.844  0.4095 -0.1282 -0.6963
43172SOL    HW133047   1.264   0.628   0.845  0.4407  1.0076 -1.7312
43172SOL    HW233048   1.382   0.606   0.753  1.2353  0.7302 -0.6655
43173SOL     OW33049   9.684   4.984  10.364 -0.1813 -0.2484 -0.8623
43173SOL    HW133050   9.716   5.066  10.402  0.8191 -0.4539 -1.2247
43173SOL    HW233051   9.640   5.011  10.284  0.3899 -0.0797 -1.1268
43174SOL     OW33052   9.742   1.661   4.779 -0.6205 -0.1813  0.3099
43174SOL    HW133053   9.666   1.655   4.837 -0.2293  0.8781  0.9538
43174SOL    HW233054   9.817   1.662   4.838 -0.0971 -1.0728 -0.3126
43175SOL     OW33055   2.817   7.385   0.675  0.0406  0.2229  0.5882
43175SOL    HW133056   2.740   7.373   0.731 -1.1689  2.6779 -0.4051
43175SOL    HW233057   2.782   7.414   0.591  1.9388 -1.3682 -0.8475
43176SOL     OW33058  10.474   9.489   4.416  0.4893  0.2727 -0.3323
43176SOL    HW133059  10.393   9.524   4.380  0.6786  0.0167 -1.0135
43176SOL    HW233060  10.451   9.465   4.506 -0.7474 -1.5933 -1.0866
43177SOL     OW33061   8.425  10.837   1.242  0.1402  0.4537  0.0037
43177SOL    HW133062   8.376  10.809   1.164 -1.1454  0.5171  0.7736
43177SOL    HW233063   8.507  10.871   1.206 -0.8665  1.5030 -1.4316
43178SOL     OW33064   1.007   4.840   7.168  0.1042  0.0838 -0.6794
43178SOL    HW133065   0.941   4.772   7.156 -0.6791  0.5714  0.6501
43178SOL    HW233066   1.068   4.803   7.232  1.2245 -0.4159 -1.9978
43179SOL     OW33067   0.061   3.780   4.739 -0.4695 -0.0959  0.3829
43179SOL    HW133068   0.143   3.779   4.688 -0.0485  1.4799  0.9800
43179SOL    HW233069   0.024   3.867   4.725 -2.1663 -0.8470 -0.0170
43180SOL     OW33070   6.537   4.801   3.433 -0.7516  0.4564 -0.5497
43180SOL    HW133071   6.602   4.773   3.498 -2.8307 -0.5118  1.2170
43180SOL    HW233072   6.531   4.728   3.371 -0.0033  0.6663 -0.8837
43181SOL     OW33073   2.289   0.242   9.361 -0.2106 -0.4679 -0.1446
43181SOL    HW133074   2.279   0.223   9.454  2.8345  0.6672  0.5468
43181SOL    HW233075   2.213   0.296   9.339 -1.5386 -1.6357  1.3579
43182SOL     OW33076   7.946   3.898   1.790 -0.3746 -0.3143 -0.1455
43182SOL    HW133077   7.979   3.987   1.776  0.6956 -0.6395  0.2276
43182SOL    HW233078   7.852   3.905   1.775 -0.3570  0.9541  0.2251
43183SOL     OW33079   2.502   1.097   9.605 -0.0256 -0.6885  0.6311
43183SOL    HW133080   2.575   1.086   9.665 -0.1546  0.0782  0.9367
43183SOL    HW233081   2.424   1.079   9.658 -0.0250 -2.6661  0.0211
43184SOL     OW33082   5.213   4.842  10.268  0.1717  0.1498 -0.6619
43184SOL    HW133083   5.261   4.781  10.211  0.4284  0.4045 -0.7181
43184SOL    HW233084   5.233   4.813  10.357 -2.3725 -1.9749 -0.6449
43185SOL     OW33085   6.070  10.512  10.430  0.6527 -0.5680  0.2123
43185SOL    HW133086   6.095  10.470  10.512  0.1890  2.8608  2.2898
43185SOL    HW233087   5.977  10.530  10.439  0.2535 -1.3888 -1.7491
43186SOL     OW33088  10.219   2.443   5.236  0.1615 -0.3997  0.0486
43186SOL    HW133089  10.254   2.525   5.269  0.3516 -0.5320  0.1761
43186SOL    HW233090  10.296   2.388   5.222  0.1653 -0.0794 -1.3657
43187SOL     OW33091   9.287   4.672   2.950  0.7287  0.2377 -0.5587
43187SOL    HW133092   9.246   4.586   2.942  0.4946  0.4389 -1.6624
43187SOL    HW233093   9.227   4.721   3.007  0.2423  0.0365 -0.8893
43188SOL     OW33094   3.631   2.498  10.207  0.1020 -0.2665  0.1004
43188SOL    HW133095   3.666   2.475  10.121 -1.6820  0.9115 -1.0094
43188SOL    HW233096   3.631   2.594  10.208 -0.5852 -0.2620  1.1320
43189SOL     OW33097   7.077   7.075   1.996  0.1821 -0.0029  0.0618
43189SOL    HW133098   7.096   7.021   2.073 -0.2245 -0.7725 -0.3662
43189SOL    HW233099   7.161   7.083   1.951  0.6230  1.2181  1.0455
43190SOL     OW33100   7.622   0.282  11.002 -0.5324  0.2924 -0.5123
43190SOL    HW133101   7.626   0.290  10.907  1.3195  0.4496 -0.4584
43190SOL    HW233102   7.652   0.193  11.020  0.0826  0.5864 -0.0419
43191SOL     OW33103   0.785   7.441   6.928 -0.5795  0.9225 -0.3377
43191SOL    HW133104   0.713   7.499   6.903 -0.3436  0.5853 -1.9396
43191SOL    HW233105   0.785   7.373   6.860 -0.7802 -0.9126  1.4177
43192SOL     OW33106   7.704   3.893   8.369 -0.1982  0.1992  0.1444
43192SOL    HW133107   7.716   3.975   8.416  0.1419 -0.3195  0.9954
43192SOL    HW233108   7.752   3.828   8.421 -0.8835 -0.6315 -0.2263
43193SOL     OW33109  11.062   8.069   9.292 -0.2400 -0.3588  0.2136
43193SOL    HW133110  11.146   8.024   9.290 -0.7382 -1.5427  2.6927
43193SOL    HW233111  11.080   8.153   9.334 -0.0274  0.1203 -0.8034
43194SOL     OW33112   6.181   9.012   2.968 -0.1365  0.2121  0.4782
43194SOL    HW133113   6.203   9.051   2.883 -1.7572  1.0424  0.3986
43194SOL    HW233114   6.265   8.987   3.005  0.7392  1.2213 -0.7249
43195SOL     OW33115   5.576   0.163   1.264  0.1484 -0.2954 -0.7951
43195SOL    HW133116   5.576   0.217   1.186  0.2323  1.9047  0.6445
43195SOL    HW233117   5.649   0.195   1.317 -0.9221 -0.5376  0.9293
43196SOL     OW33118   3.485   9.153   2.795  0.0384  0.2690  0.6327
43196SOL    HW133119   3.413   9.158   2.858 -0.0927  1.6967  0.4018
43196SOL    HW233120   3.541   9.084   2.829 -0.7814  0.0156  1.5233
43197SOL     OW33121   4.144   0.219   4.630 -0.3230  0.7577 -0.3047
43197SOL    HW133122   4.071   0.174   4.589 -0.5771 -0.1838  1.1174
43197SOL    HW233123   4.104   0.297   4.670 -0.5632  0.2890  0.3976
43198SOL     OW33124   6.013   5.545   7.949 -0.1081  0.0785 -0.4842
43198SOL    HW133125   5.980   5.498   8.026  1.1236  0.8209  0.5427
43198SOL    HW233126   6.000   5.484   7.877 -1.5062 -0.5518  0.2614
43199SOL     OW33127   8.014   9.004   2.821 -0.0907 -0.1038  0.0928
43199SOL    HW133128   8.022   8.947   2.744 -0.6432 -0.5251  0.3431
43199SOL    HW233129   7.936   8.973   2.866 -0.9554  1.4555 -0.2670
43200SOL     OW33130   4.265   0.789   0.685 -0.0534 -0.1673 -0.1468
43200SOL    HW133131   4.291   0.699   0.667 -1.3910 -0.2988 -1.5672
43200SOL    HW233132   4.183   0.801   0.637 -0.9700  1.1884  1.6392
43201SOL     OW33133   7.461   7.885   2.626 -0.0835 -0.5429 -0.1452
43201SOL    HW133134   7.442   7.904   2.718  1.8434 -0.4692  0.2769
43201SOL    HW233135   7.502   7.964   2.593  2.4712 -1.7414 -0.0489
43202SOL     OW33136   6.680   7.486   7.300 -0.0738 -0.3499 -0.2383
43202SOL    HW133137   6.707   7.414   7.243 -1.3873 -0.6693 -0.4871
43202SOL    HW233138   6.676   7.562   7.242  1.2408 -0.0657  0.0095
43203SOL     OW33139   1.132   4.951   8.230 -0.2619  0.1434 -0.4040
43203SOL    HW133140   1.097   4.960   8.318  0.6572  1.5877 -0.1545
43203SOL    HW233141   1.174   4.865   8.229 -0.4212  0.0513  0.5199
43204SOL     OW33142   9.674   3.598   8.241 -0.2458 -0.4023  0.3812
43204SOL    HW133143   9.733   3.560   8.176  0.3304 -0.4848  0.9442
43204SOL    HW233144   9.601   3.536   8.245  0.2309 -0.9661  0.5880
43205SOL     OW33145   3.381   1.286   4.876  0.1067  0.6864 -0.7656
43205SOL    HW133146   3.314   1.294   4.944  0.6097  1.6080 -0.3564
43205SOL    HW233147   3.341   1.326   4.799 -1.5115 -2.6854 -1.8917
43206SOL     OW33148   0.236   7.228   5.292  0.0129  0.1782  0.1165
43206SOL    HW133149   0.278   7.183   5.220  0.1718  2.1848 -1.1251
43206SOL    HW233150   0.257   7.176   5.369  1.8393 -0.7439 -0.9531
43207SOL     OW33151   5.984   8.536   5.710 -0.3198 -0.4228 -0.1767
43207SOL    HW133152   6.072   8.518   5.742 -0.8184  0.5014  1.8257
43207SOL    HW233153   5.928   8.526   5.786 -1.9744 -0.9395 -1.4025
43208SOL     OW33154   1.694   8.800   5.557 -0.1046 -0.0650 -0.3322
43208SOL    HW133155   1.716   8.893   5.568  1.8814 -0.6177  0.9801
43208SOL    HW233156   1.599   8.797   5.559 -0.2290  2.0096 -1.0711
43209SOL     OW33157   7.516   5.309   0.485 -0.1242 -0.2154  0.2166
43209SOL    HW133158   7.600   5.298   0.440 -0.1088  1.4041 -0.1875
43209SOL    HW233159   7.529   5.385   0.541 -0.4761 -1.5669  2.2502
43210SOL     OW33160   6.080   1.995   3.062 -0.2534 -0.0701 -0.2821
43210SOL    HW133161   6.166   2.029   3.087 -0.6376  0.2059  0.7428
43210SOL    HW233162   6.020   2.067   3.082 -0.4162  1.0519 -4.0637
43211SOL     OW33163   9.148   9.456   4.418 -0.2467  0.1106  0.4785
43211SOL    HW133164   9.169   9.385   4.357  0.4090  0.8196 -0.1525
43211SOL    HW233165   9.206   9.442   4.492 -0.8570 -0.6025  0.8367
43212SOL     OW33166   2.377   3.263   0.203  0.1472 -0.0076  0.4268
43212SOL    HW133167   2.451   3.262   0.263 -0.5819  1.3707  1.3931
43212SOL    HW233168   2.312   3.319   0.245 -1.1799 -0.6045 -0.7292
43213SOL     OW33169   3.595   5.880   7.878  0.8367 -0.2203 -0.4477
43213SOL    HW133170   3.526   5.823   7.913  0.5278 -0.5189 -1.5327
43213SOL    HW233171   3.574   5.967   7.913  1.7657 -0.8511  1.8969
43214SOL     OW33172   2.626   3.820   9.196  0.2468  0.0374  0.1260
43214SOL    HW133173   2.652   3.896   9.249 -0.9269  0.3864  0.2382
43214SOL    HW233174   2.530   3.820   9.200  0.1156 -0.0166 -1.8566
43215SOL     OW33175  10.576   6.670   0.789 -0.2898  0.4403 -0.1433
43215SOL    HW133176  10.482   6.663   0.803 -0.1878 -1.1924 -0.1390
43215SOL    HW233177  10.600   6.590   0.743  1.2136  0.4629  0.5277
43216SOL     OW33178   3.856   7.557   0.039  0.2583 -0.0444  0.4955
43216SOL    HW133179   3.948   7.532   0.050  0.1549  0.0670  1.7118
43216SOL    HW233180   3.842   7.553  -0.056  1.0926 -1.5636  0.3891
43217SOL     OW33181  10.907   1.985   6.346 -0.8081 -0.2510 -1.2703
43217SOL    HW133182  10.833   2.000   6.405 -0.4758  0.8688 -1.1189
43217SOL    HW233183  10.881   2.025   6.264 -0.6053 -0.3650 -1.3903
43218SOL     OW33184  10.465   9.108   5.491 -0.1052 -0.2238 -0.4417
43218SOL    HW133185  10.556   9.098   5.518  0.2726  1.9943 -0.6955
43218SOL    HW233186  10.440   9.023   5.455  1.3269 -1.3621  1.1375
43219SOL     OW33187   3.620   3.625   3.352 -0.0734  0.0510  0.1612
43219SOL    HW133188   3.583   3.677   3.281 -2.2346 -2.2635 -0.5474
43219SOL    HW233189   3.584   3.663   3.432 -0.4238  0.5556 -0.2345
43220SOL     OW33190  10.310   4.076  10.919 -0.1084  0.2551  0.1516
43220SOL    HW133191  10.399   4.063  10.952  1.2013  1.0180 -2.7899
43220SOL    HW233192  10.300   4.171  10.915 -0.9396  0.1718  0.1161
43221SOL     OW33193   7.013   6.303  11.037  0.2704  0.1993 -0.4439
43221SOL    HW133194   7.081   6.327  10.975  1.0308  2.6011  1.1455
43221SOL    HW233195   6.931   6.312  10.988  0.8785  1.3126 -1.3039
43222SOL     OW33196   4.121   4.881  10.358 -0.1807  0.0075 -0.6838
43222SOL    HW133197   4.188   4.890  10.426 -0.6666  0.0669 -0.2122
43222SOL    HW233198   4.140   4.796  10.318 -1.0630 -0.9401  0.8103
43223SOL     OW33199   7.732   3.427   0.224  0.2568  0.4613 -0.7256
43223SOL    HW133200   7.789   3.392   0.155  0.9307  0.4598 -0.1821
43223SOL    HW233201   7.644   3.423   0.187  0.6916  1.1954 -1.8894
43224SOL     OW33202   2.295  10.336   3.182  0.2026 -0.1857 -0.2645
43224SOL    HW133203   2.381  10.376   3.194  0.3653 -0.5811 -0.0746
43224SOL    HW233204   2.233  10.401   3.214  0.4474  0.0136 -0.1943
43225SOL     OW33205   9.091   2.571   8.984  0.0774  0.2883 -0.2301
43225SOL    HW133206   9.088   2.516   9.063  1.2153 -0.3312 -0.5929
43225SOL    HW233207   9.103   2.660   9.017  1.9257 -0.1158  0.2991
43226SOL     OW33208   0.266   3.950   8.063 -0.5137 -0.1574  0.0384
43226SOL    HW133209   0.328   3.878   8.070 -0.4249 -0.0065  0.9382
43226SOL    HW233210   0.318   4.029   8.079 -0.8975 -0.0221  0.6872
43227SOL     OW33211   7.913   3.103   0.307  0.3625 -0.1433 -0.4345
43227SOL    HW133212   7.959   3.110   0.223  0.5713  0.9997 -0.2338
43227SOL    HW233213   7.822   3.087   0.284  0.2807  0.9598 -0.8932
43228SOL     OW33214   0.367   6.413   2.799  0.9980  0.0665  0.3419
43228SOL    HW133215   0.397   6.359   2.871  0.8411  0.4373  0.6882
43228SOL    HW233216   0.356   6.352   2.726  0.4588 -0.4313  0.8309
43229SOL     OW33217   3.322   2.922  10.067  0.2671  0.0868  0.2288
43229SOL    HW133218   3.272   2.842  10.078 -0.3779  0.4740  0.1780
43229SOL    HW233219   3.303   2.950   9.977 -0.2008  0.7403  0.5168
43230SOL     OW33220   3.908   3.768   7.308 -0.4260 -0.1696  0.3157
43230SOL    HW133221   3.838   3.718   7.266 -0.5336 -0.3499  0.7062
43230SOL    HW233222   3.983   3.757   7.249 -0.1820 -1.5719  0.8640
43231SOL     OW33223   1.666   4.559   6.500  0.1307  0.4959 -0.1628
43231SOL    HW133224   1.662   4.642   6.547  1.6352  1.3197 -1.3852
43231SOL    HW233225   1.624   4.577   6.416 -0.7023 -0.3890  0.0322
43232SOL     OW33226   0.018   4.698   5.596  0.6246 -0.5835 -0.0586
43232SOL    HW133227  -0.048   4.631   5.614 -2.9309  2.6481  0.1139
43232SOL    HW233228   0.049   4.678   5.508 -1.1996 -1.7635 -0.4875
43233SOL     OW33229   9.370   1.574  10.808 -0.0896 -0.2656  0.5415
43233SOL    HW133230   9.365   1.598  10.900 -1.1040 -1.1857  0.7484
43233SOL    HW233231   9.414   1.489  10.807  1.7701  0.6487 -0.0234
43234SOL     OW33232   2.000   4.586   2.797 -0.7068  0.6781 -0.0963
43234SOL    HW133233   2.011   4.531   2.875  1.8739  1.6024  0.2797
43234SOL    HW233234   1.972   4.526   2.729 -1.5878 -0.4107  1.1762
43235SOL     OW33235   3.393   5.708  10.200  0.2356  0.5573  0.1379
43235SOL    HW133236   3.307   5.747  10.189  0.5618  1.6488  1.2069
43235SOL    HW233237   3.383   5.646  10.272  0.0951 -0.1488 -0.4819
43236SOL     OW33238   4.034   5.100  10.546 -0.1580 -0.5505  0.3491
43236SOL    HW133239   3.984   5.075  10.624  0.6642 -0.5681  0.8775
43236SOL    HW233240   4.114   5.048  10.551 -0.1235 -0.6008 -0.5489
43237SOL     OW33241   0.051   2.318   8.545 -0.0595 -0.0323 -0.0973
43237SOL    HW133242  -0.011   2.265   8.595 -0.6287  1.4833  0.8579
43237SOL    HW233243  -0.001   2.390   8.511  1.0838  1.0418  0.3654
43238SOL     OW33244   6.018   2.513  11.013  0.2206  0.1454 -0.5031
43238SOL    HW133245   6.053   2.424  11.007  1.5279  0.5608  0.4997
43238SOL    HW233246   6.076   2.564  10.956  0.0212  0.5056 -0.3810
43239SOL     OW33247   8.018   4.766   1.265 -0.0065 -0.3778 -0.1857
43239SOL    HW133248   7.989   4.709   1.337  1.6269  0.8357  1.4941
43239SOL    HW233249   8.112   4.775   1.278  0.0352  1.2958 -1.4554
43240SOL     OW33250   5.066   4.366   6.916 -0.0626  0.0609 -0.0875
43240SOL    HW133251   5.003   4.294   6.914 -1.3959  1.1796 -0.0541
43240SOL    HW233252   5.015   4.443   6.891  1.1339  1.1230  0.6343
43241SOL     OW33253   5.142   6.672   1.173  0.1240 -0.0840  0.2829
43241SOL    HW133254   5.169   6.721   1.251 -0.7529 -0.6955  0.9925
43241SOL    HW233255   5.111   6.740   1.113  0.8090  0.3984  0.4525
43242SOL     OW33256  10.068   2.359   8.480 -0.3147 -0.2471 -0.0595
43242SOL    HW133257  10.160   2.329   8.484  0.0611  0.8314 -0.3775
43242SOL    HW233258  10.018   2.283   8.508  0.7973 -0.1525  2.4017
43243SOL     OW33259   7.481   5.242   5.086 -0.1395 -0.1069 -0.0995
43243SOL    HW133260   7.564   5.200   5.108  0.4685  0.1511 -1.7036
43243SOL    HW233261   7.500   5.336   5.092 -0.6395 -0.0429  0.5807
43244SOL     OW33262  10.020   4.880   6.767 -0.2860  0.1557  0.8337
43244SOL    HW133263  10.010   4.945   6.698 -2.1754 -0.3471  0.5823
43244SOL    HW233264   9.969   4.805   6.737  0.9602 -1.0491  1.6214
43245SOL     OW33265  11.039   9.992   5.250  0.0887 -0.0910  0.1903
43245SOL    HW133266  10.958   9.965   5.294  0.1639 -0.5005  0.0823
43245SOL    HW233267  11.014  10.068   5.198  0.1327  0.8066  1.4302
43246SOL     OW33268  10.050  11.014   1.115  0.1969  0.6555  0.4749
43246SOL    HW133269   9.982  11.081   1.120  0.7467  1.2159  0.5616
43246SOL    HW233270  10.133  11.063   1.113  0.7136 -0.0417  2.2876
43247SOL     OW33271   2.975   9.312   8.372  0.1197  0.6065  0.4591
43247SOL    HW133272   2.980   9.328   8.466  0.6212  0.4352  0.4678
43247SOL    HW233273   3.065   9.291   8.347 -0.2215 -0.6513  0.1860
43248SOL     OW33274   8.060   1.222   2.565 -0.1857  0.2196 -0.1171
43248SOL    HW133275   8.125   1.277   2.522 -0.7462  1.1438  0.1868
43248SOL    HW233276   8.002   1.194   2.494 -0.1180  0.3428 -0.2229
43249SOL     OW33277   6.120   1.199   4.088  0.2231 -0.2144 -0.4174
43249SOL    HW133278   6.024   1.209   4.084  0.1996 -0.5618 -0.8616
43249SOL    HW233279   6.154   1.284   4.060  0.0471  0.0856  0.2689
43250SOL     OW33280   8.441   5.860   3.767 -0.0380 -0.4331  0.0413
43250SOL    HW133281   8.459   5.780   3.817  0.0307  0.4311  1.4382
43250SOL    HW233282   8.511   5.864   3.702  1.6851 -0.0334  1.8123
43251SOL     OW33283   7.048   6.195   9.418  0.7787  0.2272 -0.1893
43251SOL    HW133284   7.089   6.193   9.332  0.1567 -1.7811 -0.4904
43251SOL    HW233285   6.954   6.200   9.400  0.5723 -1.2470  0.2949
43252SOL     OW33286   0.877   3.468   3.646 -0.0788  0.0054  0.1953
43252SOL    HW133287   0.945   3.470   3.580 -0.1125 -2.6598 -0.0312
43252SOL    HW233288   0.797   3.494   3.600  0.0171 -1.2023 -0.6936
43253SOL     OW33289  10.870   4.096   6.437  0.4291 -0.2539  0.9629
43253SOL    HW133290  10.811   4.167   6.463  2.2757  2.2387 -1.1480
43253SOL    HW233291  10.823   4.052   6.366  0.6131  1.0741 -0.0215
43254SOL     OW33292   8.839   5.497   4.689  0.3040 -0.2599  0.0710
43254SOL    HW133293   8.746   5.518   4.678 -0.1581 -2.4712 -0.8811
43254SOL    HW233294   8.867   5.469   4.602  1.3824 -1.3565  0.7458
43255SOL     OW33295   5.710   1.522   3.112 -0.3039 -0.8688  0.0384
43255SOL    HW133296   5.741   1.442   3.155  1.8142 -1.2829 -2.0350
43255SOL    HW233297   5.788   1.558   3.070 -1.8862  0.4279 -1.9794
43256SOL     OW33298   9.981   3.955   9.883  0.3133 -0.3021 -0.0014
43256SOL    HW133299   9.920   3.968   9.955  0.2803 -0.0902 -0.0668
43256SOL    HW233300  10.006   3.863   9.889 -0.6774 -0.6149 -0.4853
43257SOL     OW33301   2.706   1.462   2.919  0.1732  0.0664  0.5870
43257SOL    HW133302   2.657   1.540   2.893 -0.3291  0.0628  1.4804
43257SOL    HW233303   2.713   1.410   2.839  0.2438  0.8813  0.0543
43258SOL     OW33304   9.071   9.076   6.484  0.0062 -0.2542 -0.4416
43258SOL    HW133305   9.124   9.074   6.404  0.1595  0.1417 -0.3560
43258SOL    HW233306   9.126   9.123   6.547  0.2974 -1.4408  0.2024
43259SOL     OW33307   6.480   3.410   6.025  0.1666  0.3634  0.5355
43259SOL    HW133308   6.505   3.393   6.116 -0.4192 -1.7755  0.3543
43259SOL    HW233309   6.523   3.493   6.003  0.8835  0.5774  2.5223
43260SOL     OW33310   3.499   8.930  10.647  0.0013 -0.1868  0.1621
43260SOL    HW133311   3.438   8.926  10.573  0.4704 -1.3569 -0.1841
43260SOL    HW233312   3.444   8.918  10.724 -0.5317  1.3318  0.0427
43261SOL     OW33313   4.585   4.803   0.304  0.4440 -0.1313  0.2128
43261SOL    HW133314   4.511   4.822   0.362  0.8131  0.7045  0.4220
43261SOL    HW233315   4.580   4.870   0.236  0.8687 -0.2264  0.0852
43262SOL     OW33316  10.165   4.939   4.827 -0.5010  0.2125  0.1551
43262SOL    HW133317  10.108   4.900   4.894 -0.6709  0.3495  0.0913
43262SOL    HW233318  10.106   4.958   4.754 -0.4619  0.8197  0.2828
43263SOL     OW33319   7.894   2.732   5.243 -0.5215 -0.3085 -0.2767
43263SOL    HW133320   7.887   2.784   5.163 -1.2847  0.7643  0.4641
43263SOL    HW233321   7.981   2.754   5.278 -0.3985 -0.3831 -0.5294
43264SOL     OW33322   0.122   6.754   5.199 -0.5154  0.5479  0.1617
43264SOL    HW133323   0.167   6.733   5.117  0.3230 -2.0761  1.1974
43264SOL    HW233324   0.035   6.784   5.171 -1.4046 -3.2466 -1.7377
43265SOL     OW33325   1.244   8.222   6.911 -0.1202 -0.4958 -0.5522
43265SOL    HW133326   1.152   8.207   6.892 -0.4209  0.7128 -0.1167
43265SOL    HW233327   1.277   8.137   6.940 -1.6935 -0.4002  1.7305
43266SOL     OW33328   9.539   8.962   5.002  0.4979  0.1866  0.2703
43266SOL    HW133329   9.542   9.057   5.002 -0.0343  0.2119  0.8231
43266SOL    HW233330   9.450   8.941   4.974 -0.4166 -0.0665  3.0457
43267SOL     OW33331   7.971   1.215   0.155  0.1488 -0.7432 -0.0821
43267SOL    HW133332   7.981   1.125   0.126 -0.0920 -0.5290 -0.8539
43267SOL    HW233333   8.059   1.252   0.151  0.1883 -0.8410 -0.1076
43268SOL     OW33334  10.391   5.961   3.065  0.4699  0.3236 -0.5675
43268SOL    HW133335  10.364   5.915   3.145 -0.9751  3.4585  0.9191
43268SOL    HW233336  10.487   5.960   3.068  0.4397 -0.3994  0.7104
43269SOL     OW33337   4.425   6.202   9.398  0.2055  0.4652  0.4577
43269SOL    HW133338   4.357   6.250   9.446  0.9518 -0.3835  2.4490
43269SOL    HW233339   4.506   6.223   9.443  0.4711 -3.3993  2.1783
43270SOL     OW33340  10.436   0.042   5.992 -0.3369 -0.1549 -0.1754
43270SOL    HW133341  10.400  -0.038   5.953 -0.2083 -0.9838  1.3175
43270SOL    HW233342  10.423   0.109   5.926 -2.1030 -1.0249 -0.7717
43271SOL     OW33343   8.908   5.634   3.736  0.1854  0.0482  0.1437
43271SOL    HW133344   8.900   5.714   3.683  1.0983  0.4900  0.6332
43271SOL    HW233345   8.818   5.605   3.749 -0.0893  0.1220 -1.3325
43272SOL     OW33346   7.437   9.038  10.817 -0.1831 -0.1446 -0.5589
43272SOL    HW133347   7.532   9.052  10.827 -0.5132  0.5108  3.1294
43272SOL    HW233348   7.406   9.116  10.772  0.7195  1.0644  0.8258
43273SOL     OW33349   6.849   3.696   2.491  0.2461 -0.3158  0.2143
43273SOL    HW133350   6.857   3.694   2.586 -0.2954  1.1554  0.3231
43273SOL    HW233351   6.876   3.785   2.467 -0.5586 -0.3494 -0.8959
43274SOL     OW33352   7.023   4.390   5.063 -0.0078 -1.1130  0.0273
43274SOL    HW133353   6.980   4.370   4.980  0.5583 -1.4989 -0.1773
43274SOL    HW233354   7.112   4.356   5.053  0.3543 -0.3115  0.4369
43275SOL     OW33355   5.864  10.460   9.507  0.1374  0.3728 -0.6498
43275SOL    HW133356   5.827  10.413   9.432  0.6154 -0.0726 -0.6125
43275SOL    HW233357   5.807  10.436   9.581  0.9654 -0.9916 -0.4159
43276SOL     OW33358   8.374   6.861   9.074 -0.3342 -0.0861 -0.5194
43276SOL    HW133359   8.463   6.858   9.040 -0.3575  0.4659 -0.6437
43276SOL    HW233360   8.325   6.798   9.021 -0.3506  0.6984 -1.4683
43277SOL     OW33361   1.195   0.944   8.712 -0.0212  1.2348 -0.0950
43277SOL    HW133362   1.157   0.888   8.643 -0.8064  1.9311 -0.2412
43277SOL    HW233363   1.207   1.029   8.670  0.2522  1.4481  0.4073
43278SOL     OW33364   9.085   2.545   4.316 -0.0965 -0.0459  0.3303
43278SOL    HW133365   9.117   2.629   4.285  0.3312  0.2850  1.5878
43278SOL    HW233366   9.150   2.482   4.285  0.0010  0.1946  0.0439
43279SOL     OW33367   6.912   1.300   0.010  0.5718 -0.0628  0.1590
43279SOL    HW133368   6.894   1.376  -0.045 -0.8638  0.4698  1.2781
43279SOL    HW233369   6.862   1.229  -0.030  2.1710 -0.5500 -1.0740
43280SOL     OW33370   5.556   4.894   5.085 -0.1989  0.0997 -0.5936
43280SOL    HW133371   5.477   4.933   5.049  0.0201  0.9908 -0.1399
43280SOL    HW233372   5.627   4.931   5.032  0.0737  0.9524  0.3298
43281SOL     OW33373  10.443   1.893   2.397  0.0631 -0.0525  0.7446
43281SOL    HW133374  10.355   1.878   2.361 -1.0236  1.7074  2.4720
43281SOL    HW233375  10.475   1.805   2.418 -0.6883 -0.8394 -1.1241
43282SOL     OW33376   2.708   4.045  10.282 -0.5553 -0.2354 -0.0352
43282SOL    HW133377   2.774   4.112  10.262  0.3683 -1.3779 -0.9845
43282SOL    HW233378   2.700   4.047  10.377 -1.3985  1.9751 -0.0828
43283SOL     OW33379  10.417   4.248   0.935  0.9278 -0.5963  0.2455
43283SOL    HW133380  10.385   4.280   1.019 -0.4521 -1.6017  0.1406
43283SOL    HW233381  10.339   4.213   0.891  1.6984 -0.5373 -1.2485
43284SOL     OW33382   1.197   8.566  10.729 -0.4244  0.0034 -0.4005
43284SOL    HW133383   1.231   8.558  10.640 -0.3823  0.3385 -0.4144
43284SOL    HW233384   1.113   8.612  10.718 -0.2764  0.3135 -0.2357
43285SOL     OW33385   1.838   2.448   7.507 -0.1555  0.2930  0.1358
43285SOL    HW133386   1.761   2.461   7.563 -0.0739 -1.3514  0.6882
43285SOL    HW233387   1.803   2.445   7.418 -0.3920  2.0615  0.1262
43286SOL     OW33388   5.333   9.337   0.316  0.3835 -0.0527  0.1003
43286SOL    HW133389   5.360   9.418   0.359 -0.5186 -0.0991  0.7911
43286SOL    HW233390   5.413   9.304   0.274  0.2632  2.4543 -2.3807
43287SOL     OW33391   0.589   2.458   6.928  0.6747 -0.6875 -0.1401
43287SOL    HW133392   0.534   2.491   6.999  0.3864 -0.2862 -0.5422
43287SOL    HW233393   0.592   2.529   6.864 -0.3586 -1.5836 -1.2502
43288SOL     OW33394   4.773   9.194   7.224  0.4478  0.1198  0.3596
43288SOL    HW133395   4.796   9.238   7.142 -1.8230  0.9591  0.1144
43288SOL    HW233396   4.786   9.261   7.291  2.4691 -0.6162  0.7827
43289SOL     OW33397   5.726   7.908   8.166 -0.2083 -0.1467 -0.0288
43289SOL    HW133398   5.742   7.929   8.074 -1.6689  1.0488 -0.0338
43289SOL    HW233399   5.782   7.968   8.215  0.0798 -0.3447 -0.1090
43290SOL     OW33400   4.794   6.642   9.655  0.5809 -0.2008 -0.0674
43290SOL    HW133401   4.774   6.735   9.659 -0.2007 -0.2552 -1.8894
43290SOL    HW233402   4.714   6.599   9.684  1.2327 -0.3509  1.6737
43291SOL     OW33403  10.515   4.152   5.031  0.4539 -1.0067  0.1696
43291SOL    HW133404  10.515   4.123   4.940 -1.1495  0.6958 -0.4340
43291SOL    HW233405  10.545   4.243   5.027 -2.0437 -0.0678  0.9705
43292SOL     OW33406   2.667   2.587   3.803 -0.0211  0.0509  0.3174
43292SOL    HW133407   2.640   2.678   3.798 -1.0721 -0.2207  0.7561
43292SOL    HW233408   2.672   2.568   3.897 -0.9597 -0.6445  0.2509
43293SOL     OW33409  11.102   1.874  10.290 -0.6713  0.4784 -0.1600
43293SOL    HW133410  11.072   1.958  10.255  1.6043  2.0487  1.4408
43293SOL    HW233411  11.182   1.855  10.241 -1.0696 -0.7079 -0.3834
43294SOL     OW33412   9.221   9.647   8.267  0.3177 -0.0272 -0.4722
43294SOL    HW133413   9.300   9.618   8.313 -1.2019 -0.4938  2.0644
43294SOL    HW233414   9.201   9.575   8.208  1.2665 -0.3244 -0.4567
43295SOL     OW33415   5.401   4.098   2.470 -0.5809 -0.1939  0.4754
43295SOL    HW133416   5.327   4.155   2.492 -0.3637 -0.8871  3.3744
43295SOL    HW233417   5.456   4.099   2.548  1.1783 -1.7338 -0.6658
43296SOL     OW33418   1.200   7.222   7.761  0.0623  0.4734  0.0871
43296SOL    HW133419   1.110   7.191   7.752 -0.0080  1.2301 -2.7097
43296SOL    HW233420   1.252   7.142   7.766 -0.6218  0.0100  0.0069
43297SOL     OW33421   7.342   5.257   7.068  0.1849 -0.0021  0.6889
43297SOL    HW133422   7.295   5.278   7.149  0.6071 -0.5485  1.0786
43297SOL    HW233423   7.411   5.196   7.095  2.2700  2.1003  0.4529
43298SOL     OW33424   1.544   7.876   4.477  0.2842  0.5714  0.0476
43298SOL    HW133425   1.508   7.865   4.565  1.8111 -0.9527  0.5493
43298SOL    HW233426   1.620   7.817   4.475  0.3386  0.6385 -2.2712
43299SOL     OW33427   1.310   0.586   5.320 -0.0855  0.2122  0.4167
43299SOL    HW133428   1.246   0.520   5.346  0.0570 -0.3076 -0.5184
43299SOL    HW233429   1.352   0.612   5.402 -1.5473  0.6504  1.0744
43300SOL     OW33430   0.405   0.064   6.637 -0.3954  0.0834  0.2286
43300SOL    HW133431   0.381  -0.020   6.678 -1.4537  0.4941  0.4753
43300SOL    HW233432   0.343   0.075   6.566  2.0352 -1.1003 -2.2479
43301SOL     OW33433   6.220   6.828   9.746 -1.2367  0.5409 -0.3296
43301SOL    HW133434   6.238   6.893   9.814 -1.6375  1.0395 -0.6964
43301SOL    HW233435   6.299   6.775   9.742 -1.2493  0.4316  0.6114
43302SOL     OW33436   0.057   1.578   1.083  0.9253 -0.2157  0.2213
43302SOL    HW133437   0.056   1.557   1.176  1.0788 -0.8915  0.0720
43302SOL    HW233438   0.039   1.672   1.080 -2.2751 -0.6855  0.7815
43303SOL     OW33439   5.169  10.182   8.976 -0.8031  0.3224 -0.2297
43303SOL    HW133440   5.133  10.227   9.052 -1.0232  0.5399 -0.4641
43303SOL    HW233441   5.216  10.249   8.928  0.0410  0.0179  0.1390
43304SOL     OW33442   8.785   3.218   3.365 -0.3114  0.0917  0.3019
43304SOL    HW133443   8.831   3.139   3.395 -1.5618 -0.2689  1.3824
43304SOL    HW233444   8.762   3.264   3.446 -3.1503 -0.5160 -0.0458
43305SOL     OW33445  10.069   2.337   6.354  0.3356  0.0447 -0.3346
43305SOL    HW133446  10.105   2.278   6.419  0.1638 -0.0380 -0.3129
43305SOL    HW233447   9.981   2.303   6.336  0.2744  0.2314 -0.3995
43306SOL     OW33448   5.044   6.646   2.632 -0.1961 -0.3043 -0.1294
43306SOL    HW133449   4.987   6.594   2.575 -2.4789  1.4952  0.3417
43306SOL    HW233450   5.038   6.605   2.718  0.8755 -1.2697 -0.4832
43307SOL     OW33451   2.898   8.084   6.433 -0.0771  0.1963 -0.3390
43307SOL    HW133452   2.975   8.050   6.477 -0.2500  1.2445  0.8233
43307SOL    HW233453   2.834   8.013   6.436  0.2333 -0.0560  0.2880
43308SOL     OW33454  10.345   3.551   8.951  0.0189  0.1219 -0.4286
43308SOL    HW133455  10.439   3.552   8.971  0.2139 -2.3585 -0.8596
43308SOL    HW233456  10.341   3.526   8.858 -1.0614 -1.2709 -0.0402
43309SOL     OW33457   0.513   4.802   5.793 -0.4433 -0.6548 -0.1952
43309SOL    HW133458   0.590   4.836   5.747 -0.4167 -0.4713 -0.0173
43309SOL    HW233459   0.447   4.792   5.725 -0.2283 -0.9158 -0.3679
43310SOL     OW33460   7.863  10.879   2.665  0.2352  0.1359  0.4508
43310SOL    HW133461   7.901  10.892   2.752  1.1698  0.7299 -0.0217
43310SOL    HW233462   7.816  10.960   2.646  1.2420  0.5931 -0.1680
43311SOL     OW33463   3.964   0.821   5.391  0.3752 -0.1678 -0.7219
43311SOL    HW133464   3.903   0.889   5.362 -0.2719 -0.2474  0.3712
43311SOL    HW233465   4.050   0.855   5.368  0.4026  2.6165  2.5596
43312SOL     OW33466   7.770   1.231   4.020  0.7496 -0.1418  0.0404
43312SOL    HW133467   7.762   1.188   4.104  0.0144  0.1784  0.1454
43312SOL    HW233468   7.686   1.275   4.007  0.9729  0.0941 -0.7018
43313SOL     OW33469   5.304   5.102  10.254  0.5119  0.5854 -0.2300
43313SOL    HW133470   5.351   5.077  10.333  0.3598 -0.4809 -0.4693
43313SOL    HW233471   5.247   5.028  10.234 -0.3367  1.3325 -0.6712
43314SOL     OW33472   8.149   1.100   1.207  0.0534  0.0783  0.4662
43314SOL    HW133473   8.116   1.088   1.296 -3.0075  0.8100 -0.4428
43314SOL    HW233474   8.128   1.018   1.162 -1.4510  0.8652 -0.3519
43315SOL     OW33475   4.038   1.762   8.343  0.0154 -0.0211  0.3488
43315SOL    HW133476   4.055   1.849   8.306 -0.3163  0.0575  0.3762
43315SOL    HW233477   3.984   1.718   8.278  0.2209 -0.2247  0.3152
43316SOL     OW33478   5.625   7.918   8.691 -0.3127 -0.8795  0.4110
43316SOL    HW133479   5.551   7.871   8.730 -1.2621 -0.5739 -0.9380
43316SOL    HW233480   5.682   7.849   8.657 -2.6618 -1.2235 -3.3346
43317SOL     OW33481   5.626   0.929   5.080 -0.4166 -0.0940 -0.0794
43317SOL    HW133482   5.631   0.913   4.985 -1.5582  0.8368 -0.3156
43317SOL    HW233483   5.532   0.935   5.098 -0.1900  1.7684  0.7366
43318SOL     OW33484   0.672   6.760   9.009 -0.5510  0.0180 -0.1176
43318SOL    HW133485   0.661   6.730   9.099  2.1564  3.6379  1.6698
43318SOL    HW233486   0.596   6.815   8.992  0.6879  2.4617  1.6043
43319SOL     OW33487   0.745   1.679   0.192 -1.0592  0.0366  0.0552
43319SOL    HW133488   0.660   1.639   0.210 -0.7528 -0.7358 -0.1538
43319SOL    HW233489   0.765   1.651   0.102 -0.5004  0.0558  0.1737
43320SOL     OW33490   2.614   1.858   8.106  0.5032 -0.2815  0.0911
43320SOL    HW133491   2.703   1.842   8.073  0.4968 -0.6770  0.2551
43320SOL    HW233492   2.627   1.917   8.180  0.3531  2.2635 -1.7609
43321SOL     OW33493   8.251   1.029   3.776 -0.7813 -0.5033 -0.1743
43321SOL    HW133494   8.342   1.003   3.792 -0.3824 -0.2428 -1.8027
43321SOL    HW233495   8.238   1.108   3.828 -0.2574 -0.8628  0.5096
43322SOL     OW33496   8.222  10.632   6.819 -0.0094  0.5990 -0.2545
43322SOL    HW133497   8.282  10.604   6.888 -0.1627 -0.9159 -0.7039
43322SOL    HW233498   8.253  10.719   6.795  0.5213  0.8323  1.1758
43323SOL     OW33499   3.911   5.921   8.150  0.4028 -0.2617 -0.1813
43323SOL    HW133500   3.964   5.983   8.100  0.5796  0.2098  0.5805
43323SOL    HW233501   3.835   5.973   8.178 -0.3995 -0.8886 -1.1419
43324SOL     OW33502   0.491  10.992   8.035  0.2391 -0.1206  0.3043
43324SOL    HW133503   0.539  10.939   7.971  0.5756  1.3923 -0.7582
43324SOL    HW233504   0.400  10.965   8.025  0.5674 -1.4780  0.7904
43325SOL     OW33505   2.733   1.996   4.439  0.4725  0.1446 -0.3422
43325SOL    HW133506   2.814   2.013   4.487  0.8533 -0.0820 -0.9050
43325SOL    HW233507   2.664   2.028   4.498  1.0224  1.4400 -0.3518
43326SOL     OW33508   6.366   7.130   7.578 -0.1070 -0.1558  0.2909
43326SOL    HW133509   6.400   7.140   7.489  0.6364  0.5279  0.6319
43326SOL    HW233510   6.353   7.036   7.589  1.7636 -0.4668  0.1411
43327SOL     OW33511   3.729   3.004   2.148 -0.2754 -0.4685  0.2293
43327SOL    HW133512   3.751   3.084   2.197  0.0282 -0.4237  0.0261
43327SOL    HW233513   3.639   2.984   2.174 -0.4347  0.0705  0.1112
43328SOL     OW33514   8.089  10.955   3.940  0.0406 -0.5990  0.3484
43328SOL    HW133515   8.113  11.010   4.015 -0.4033 -1.4036  1.0882
43328SOL    HW233516   8.001  10.984   3.917 -0.1021 -0.8464  0.5894
43329SOL     OW33517   0.320   3.015   2.350 -0.0951 -0.2355 -0.2968
43329SOL    HW133518   0.225   3.016   2.353 -0.2326  2.6086 -2.1782
43329SOL    HW233519   0.347   3.015   2.442 -1.8485 -0.9605  0.2644
43330SOL     OW33520   9.030   9.689   5.674  0.1396 -0.1539 -0.3399
43330SOL    HW133521   9.045   9.782   5.657  0.4926 -0.0813  0.3591
43330SOL    HW233522   8.960   9.688   5.740 -1.6174 -0.4424 -2.1035
43331SOL     OW33523   5.638  10.466   5.044 -0.0477 -0.1487  0.2275
43331SOL    HW133524   5.641  10.428   4.956 -2.1477  0.7481 -0.2915
43331SOL    HW233525   5.637  10.390   5.102 -1.0297 -0.8344 -0.6395
43332SOL     OW33526   2.247   3.511   7.283 -0.0030  0.1234 -0.2408
43332SOL    HW133527   2.236   3.437   7.223 -1.0247 -0.6736  0.8906
43332SOL    HW233528   2.158   3.537   7.306  0.3492  1.5133 -0.3564
43333SOL     OW33529   3.162   8.212   2.751 -0.3351  0.5882 -0.0217
43333SOL    HW133530   3.125   8.161   2.680  0.7387 -1.2484  0.6542
43333SOL    HW233531   3.087   8.246   2.799 -1.0818 -0.0950 -0.6849
43334SOL     OW33532   1.602   2.846   2.105 -0.1978  0.6803 -0.0105
43334SOL    HW133533   1.525   2.887   2.144  0.5080  0.4155  1.7740
43334SOL    HW233534   1.640   2.914   2.049 -2.2618  0.4746 -1.7925
43335SOL     OW33535   7.541   0.936   8.331  0.7298  0.1967  0.3727
43335SOL    HW133536   7.521   1.021   8.370 -2.7224 -0.9642  1.4935
43335SOL    HW233537   7.499   0.939   8.245 -2.4068 -1.3488  1.6881
43336SOL     OW33538   1.670   8.870   2.212 -0.1411  0.1959 -0.5222
43336SOL    HW133539   1.653   8.964   2.203  2.1796  0.6436 -0.7601
43336SOL    HW233540   1.590   8.835   2.250 -0.6190  2.4686  0.7255
43337SOL     OW33541   0.412   5.938   3.536 -0.0140 -0.1959  0.2528
43337SOL    HW133542   0.371   6.021   3.509 -0.7550 -0.4377  0.6284
43337SOL    HW233543   0.493   5.965   3.578 -0.0703  0.3230  0.0434
43338SOL     OW33544   4.692   3.907   3.985  0.0997  0.0886 -0.4985
43338SOL    HW133545   4.675   4.000   3.967 -1.2320  0.1230  0.7281
43338SOL    HW233546   4.693   3.901   4.081  0.5188 -1.1150 -0.5598
43339SOL     OW33547   9.059  10.767   4.422 -0.2541 -0.5829  0.2589
43339SOL    HW133548   9.013  10.751   4.504  0.8470  1.7787  1.4414
43339SOL    HW233549   9.111  10.687   4.408 -0.2091 -0.9215  2.0559
43340SOL     OW33550   4.087   7.464   0.403 -0.1561 -0.6625 -0.1239
43340SOL    HW133551   4.035   7.513   0.466  0.9932 -0.8647  1.0392
43340SOL    HW233552   4.145   7.410   0.457  0.3456 -1.4182 -1.3633
43341SOL     OW33553  10.726   2.099   0.856  0.3258 -0.1346  0.1602
43341SOL    HW133554  10.777   2.107   0.936  0.4491  0.6368  0.0153
43341SOL    HW233555  10.772   2.154   0.793 -0.1617 -0.1754 -0.2409
43342SOL     OW33556   9.919  10.592   0.398 -0.2719 -0.0755 -0.2101
43342SOL    HW133557   9.939  10.498   0.392 -0.2906 -0.0680 -0.3799
43342SOL    HW233558   9.987  10.634   0.346  0.4529  0.0975  0.8311
43343SOL     OW33559   9.821   5.669   0.318  0.2552 -0.1724 -0.0620
43343SOL    HW133560   9.839   5.763   0.315  0.6403 -0.1917  1.0429
43343SOL    HW233561   9.906   5.629   0.333  0.0810 -0.6965 -0.4456
43344SOL     OW33562   0.778   1.240   4.221 -0.6923  0.2663  0.2029
43344SOL    HW133563   0.776   1.244   4.125  0.3834  0.4568  0.1739
43344SOL    HW233564   0.700   1.288   4.249 -0.3461  1.3258 -0.5703
43345SOL     OW33565   5.564   8.671  10.689  0.9193 -0.5201 -0.1329
43345SOL    HW133566   5.633   8.723  10.648 -0.4799  0.5503 -1.2794
43345SOL    HW233567   5.522   8.626  10.615 -0.0236 -0.6033  0.4452
43346SOL     OW33568   8.247   0.608   2.280 -0.3022 -0.1512  0.3077
43346SOL    HW133569   8.258   0.685   2.224 -1.0919 -0.5760 -0.4586
43346SOL    HW233570   8.244   0.643   2.369  1.1111  0.5229  0.1196
43347SOL     OW33571   1.272   5.073   4.708  0.1631  0.6236  0.2945
43347SOL    HW133572   1.221   5.130   4.765  0.4919  0.5205  0.6913
43347SOL    HW233573   1.212   5.052   4.636  0.1395  1.7145 -0.0169
43348SOL     OW33574   9.846  11.071   4.638 -0.2880 -0.4207  0.4435
43348SOL    HW133575   9.816  11.047   4.551 -1.3906  0.3127  0.5960
43348SOL    HW233576   9.770  11.058   4.695 -0.1472  0.8308  0.9661
43349SOL     OW33577   7.909   7.357  10.238  0.4050  0.1193 -0.8446
43349SOL    HW133578   7.860   7.369  10.320 -2.3846 -1.0048 -2.2417
43349SOL    HW233579   7.994   7.323  10.266 -1.5324 -3.3102  1.5284
43350SOL     OW33580   5.202   0.281   7.800 -0.3394  0.1697 -0.5018
43350SOL    HW133581   5.114   0.318   7.788 -0.0151  1.1828  0.1451
43350SOL    HW233582   5.188   0.205   7.856 -0.5520  1.8827  1.9560
43351SOL     OW33583   4.623   5.875   4.012  0.0192 -0.1015 -0.2231
43351SOL    HW133584   4.673   5.805   4.055  0.0843 -0.2977 -0.6106
43351SOL    HW233585   4.669   5.890   3.929  1.0328  1.6042  0.5944
43352SOL     OW33586   3.355   7.264  10.457  0.0226 -0.2760 -0.5190
43352SOL    HW133587   3.441   7.278  10.418  0.0632  0.8460 -0.0504
43352SOL    HW233588   3.311   7.204  10.397  0.8718 -0.3078 -1.1216
43353SOL     OW33589   8.140   0.929   5.351  0.3760 -0.0504  0.4126
43353SOL    HW133590   8.193   0.998   5.312 -1.2288  1.0339  0.0653
43353SOL    HW233591   8.196   0.851   5.347  0.9247  0.3694 -2.6063
43354SOL     OW33592  10.500   3.656   7.300 -0.1322 -0.3400  0.3204
43354SOL    HW133593  10.432   3.699   7.248  1.7081  0.9779 -1.1281
43354SOL    HW233594  10.508   3.711   7.378  0.1765  0.2889 -0.1434
43355SOL     OW33595   9.512   0.227   4.610 -0.3056 -0.0563 -0.0629
43355SOL    HW133596   9.537   0.138   4.588 -0.4163 -0.1354  0.1305
43355SOL    HW233597   9.508   0.273   4.525 -0.1986 -0.2196 -0.1564
43356SOL     OW33598   6.953   9.384   2.033 -0.2036  0.4652  0.4422
43356SOL    HW133599   6.903   9.322   1.980  1.9452 -1.8047  0.8392
43356SOL    HW233600   6.902   9.392   2.114 -0.6730 -0.6525  0.2846
43357SOL     OW33601   5.120   5.886   4.575 -0.3533 -0.0207 -0.7623
43357SOL    HW133602   5.179   5.842   4.514  0.0235 -0.9098  0.2156
43357SOL    HW233603   5.169   5.962   4.605  0.4252 -0.8839  0.2301
43358SOL     OW33604   6.161   8.619   7.877  0.0711  0.0002  0.3545
43358SOL    HW133605   6.142   8.713   7.876  2.4540  0.5242 -1.3167
43358SOL    HW233606   6.119   8.586   7.798 -1.8061 -0.6694  1.5421
43359SOL     OW33607   5.376   7.544   6.737 -0.1855  0.0325  0.4266
43359SOL    HW133608   5.469   7.547   6.713 -0.2726  0.2669  0.1154
43359SOL    HW233609   5.346   7.634   6.732  0.1734  0.3792  3.0351
43360SOL     OW33610   3.721   8.026   4.430 -0.3966 -0.2938  0.3760
43360SOL    HW133611   3.688   8.096   4.374 -2.0776 -1.2059  0.1530
43360SOL    HW233612   3.728   8.065   4.517  0.2928  0.5743 -0.0524
43361SOL     OW33613   0.557   6.218  10.245 -0.1765  0.1531  0.3854
43361SOL    HW133614   0.550   6.234  10.339  0.1082 -1.9306  0.7943
43361SOL    HW233615   0.619   6.285  10.214 -1.6940  2.0734  1.2890
43362SOL     OW33616   2.344   1.007   0.117 -0.3598 -0.2117 -0.5543
43362SOL    HW133617   2.339   1.020   0.212 -2.2671  0.1797 -0.6525
43362SOL    HW233618   2.316   0.917   0.103  3.8001 -1.6836 -0.5425
43363SOL     OW33619  11.045   7.486   8.996  0.5074 -0.4666  0.0197
43363SOL    HW133620  11.059   7.570   9.039  0.6729 -1.1415  1.3432
43363SOL    HW233621  10.960   7.494   8.953  1.5880  1.1884 -1.9247
43364SOL     OW33622  10.335   1.165  10.724 -0.4060 -0.1457  0.2415
43364SOL    HW133623  10.282   1.214  10.662  0.3016 -0.4783 -0.6396
43364SOL    HW233624  10.327   1.214  10.806  1.4500  2.3382 -0.9384
43365SOL     OW33625   8.406   9.436   0.471  0.0090  1.0510 -0.3998
43365SOL    HW133626   8.366   9.478   0.547  1.3873  1.6144  0.0450
43365SOL    HW233627   8.425   9.347   0.501 -3.4197 -0.2013 -1.5179
43366SOL     OW33628   0.697   5.080   2.922  0.2373 -0.5547  0.2606
43366SOL    HW133629   0.769   5.114   2.869  0.5983 -1.1664  0.3481
43366SOL    HW233630   0.729   4.996   2.955 -0.9747 -1.4270 -0.6965
43367SOL     OW33631   1.961   5.263   6.747  0.3454  0.2709 -0.1769
43367SOL    HW133632   1.929   5.239   6.661  0.4143 -0.3734 -0.0287
43367SOL    HW233633   1.914   5.206   6.808  0.0413  0.9578  0.2463
43368SOL     OW33634  10.811   6.002   1.833 -0.3795 -0.2571 -0.2290
43368SOL    HW133635  10.858   5.937   1.885  0.0526  1.1537  1.2358
43368SOL    HW233636  10.724   6.006   1.872 -0.8274 -0.8776 -1.1522
43369SOL     OW33637   5.408   7.545   7.873 -0.5072  0.5550 -0.0687
43369SOL    HW133638   5.355   7.624   7.869 -1.1103  0.1518 -0.1368
43369SOL    HW233639   5.381   7.494   7.796 -0.0590  0.3271 -0.0769
43370SOL     OW33640   7.793   8.177   9.314 -0.1413 -0.9906  0.1356
43370SOL    HW133641   7.871   8.146   9.269  0.4045 -0.0384  0.4023
43370SOL    HW233642   7.766   8.255   9.266 -0.2940 -0.6968  0.6911
43371SOL     OW33643   2.166   0.572   6.263 -0.1624  0.3380 -0.7862
43371SOL    HW133644   2.092   0.533   6.217 -0.2744  0.3408 -0.6073
43371SOL    HW233645   2.225   0.498   6.280  0.1132  0.4146 -1.3747
43372SOL     OW33646   3.975   5.561   2.379 -0.1446  0.1215  0.0509
43372SOL    HW133647   3.917   5.622   2.332 -0.4704 -1.1188 -1.2356
43372SOL    HW233648   3.945   5.474   2.352  0.2471 -0.6347  1.9148
43373SOL     OW33649   3.267   7.417  10.099  0.0157 -0.4051  0.1585
43373SOL    HW133650   3.327   7.489  10.118 -0.4000  0.0392 -0.1701
43373SOL    HW233651   3.190   7.436  10.153  0.3159 -1.1833  0.8782
43374SOL     OW33652   9.912   9.043   5.551  0.3124 -0.0558 -0.6280
43374SOL    HW133653   9.862   9.075   5.627  1.3704  1.1987 -0.4309
43374SOL    HW233654   9.965   9.117   5.524  0.9247 -0.8898 -1.8115
43375SOL     OW33655   3.440   7.121   9.271  0.7930  0.1086  0.4128
43375SOL    HW133656   3.434   7.098   9.178 -0.6244  0.2928  0.4255
43375SOL    HW233657   3.414   7.213   9.274 -1.9704 -0.6084  1.2480
43376SOL     OW33658   1.793   9.063   0.918 -0.6602  0.1285 -0.2680
43376SOL    HW133659   1.787   9.018   0.833 -0.1009  0.5969 -0.5602
43376SOL    HW233660   1.864   9.018   0.964  0.9989  1.6902 -1.1853
43377SOL     OW33661   2.700   4.684  10.995  0.4766  0.3129  0.0568
43377SOL    HW133662   2.738   4.672  10.908 -2.4708  2.5125 -1.7392
43377SOL    HW233663   2.713   4.777  11.014 -1.4432  0.5174  0.5945
43378SOL     OW33664   0.849   5.382   1.104 -0.0657 -0.4633  0.3831
43378SOL    HW133665   0.762   5.420   1.092  0.1624 -0.4849 -1.9396
43378SOL    HW233666   0.832   5.288   1.116 -0.3909 -0.9004 -2.5804
43379SOL     OW33667  10.145  10.048   9.753 -0.1291 -0.0691 -0.3883
43379SOL    HW133668  10.183  10.026   9.668 -0.5028 -0.3251 -0.4895
43379SOL    HW233669  10.051  10.034   9.742 -0.1513 -0.3440  0.1431
43380SOL     OW33670   9.947   7.225   5.160 -0.1341  0.4350 -0.0098
43380SOL    HW133671   9.980   7.310   5.188  1.3663 -0.3722  0.8491
43380SOL    HW233672   9.861   7.218   5.201  0.6526  0.6651  1.8005
43381SOL     OW33673   5.626  10.595  11.054 -0.8270 -0.1905 -0.0447
43381SOL    HW133674   5.546  10.557  11.092 -0.7453  0.9009  1.2864
43381SOL    HW233675   5.609  10.689  11.052  0.4144  0.0513  0.2289
43382SOL     OW33676   1.019  11.055   9.871 -0.3384  0.4826 -0.5162
43382SOL    HW133677   0.985  11.088   9.788  0.8542 -1.7757 -2.0248
43382SOL    HW233678   1.003  10.961   9.868 -0.6479  0.3706  2.0516
43383SOL     OW33679   8.308   5.999   8.464  0.0572  0.0847 -0.0147
43383SOL    HW133680   8.231   5.960   8.504  0.4242  0.7503  1.4179
43383SOL    HW233681   8.354   5.926   8.423 -0.8848 -0.4506 -0.1466
43384SOL     OW33682   7.611   7.406   7.133  0.4689 -0.0227 -0.4388
43384SOL    HW133683   7.690   7.383   7.085  1.2167  0.6474  0.4365
43384SOL    HW233684   7.601   7.336   7.198  0.4459 -0.0088 -0.4271
43385SOL     OW33685   6.886   2.033   5.681  0.3269  0.1993 -0.0321
43385SOL    HW133686   6.934   1.999   5.606 -0.6445 -0.7226 -0.2570
43385SOL    HW233687   6.844   2.112   5.648 -1.2487 -0.9475 -0.9186
43386SOL     OW33688   2.675   8.229   8.716 -0.1130  0.0625  0.6224
43386SOL    HW133689   2.689   8.158   8.654  0.7380 -1.3481  2.3422
43386SOL    HW233690   2.631   8.297   8.665 -0.0025 -1.2565 -1.3444
43387SOL     OW33691   0.606   7.030   4.400  0.3544 -0.2237  0.0395
43387SOL    HW133692   0.632   7.062   4.313 -1.9242  0.3979 -0.4993
43387SOL    HW233693   0.634   7.099   4.460  0.6718  0.0357 -0.3973
43388SOL     OW33694   8.951   0.178   3.494 -0.1379 -0.1884 -0.4749
43388SOL    HW133695   9.035   0.222   3.489 -0.3209  0.2619  0.2365
43388SOL    HW233696   8.929   0.178   3.587 -1.6404  1.0833 -0.7939
43389SOL     OW33697   2.963  10.862   8.039 -0.0160 -0.5243 -0.6857
43389SOL    HW133698   3.028  10.835   8.103  0.6087  0.2981 -0.9456
43389SOL    HW233699   2.977  10.804   7.964  1.0151  0.1846 -1.0725
43390SOL     OW33700   1.267   6.565   4.839  0.2752 -0.0301  0.0140
43390SOL    HW133701   1.339   6.619   4.871  1.2058 -0.7078 -0.8386
43390SOL    HW233702   1.309   6.482   4.815 -0.7568 -0.3686 -0.6964
43391SOL     OW33703   5.384   6.684   7.820 -0.1452 -0.1594  0.7119
43391SOL    HW133704   5.473   6.653   7.835 -0.4084 -0.7941  1.0551
43391SOL    HW233705   5.388   6.731   7.737  0.3855 -0.7201  0.4059
43392SOL     OW33706   6.462   5.822   8.069 -0.1530  0.5115 -0.1771
43392SOL    HW133707   6.473   5.899   8.014 -1.3631  0.9666  0.1936
43392SOL    HW233708   6.429   5.754   8.010 -1.1859  0.9187 -0.0718
43393SOL     OW33709   9.085   4.184  10.378  0.1826 -0.1388 -0.0935
43393SOL    HW133710   8.998   4.146  10.365  0.0169 -1.0254  2.8291
43393SOL    HW233711   9.068   4.271  10.416  0.6125  0.7577 -1.8513
43394SOL     OW33712   8.309   1.024   3.157  0.2911  0.2639  0.0506
43394SOL    HW133713   8.241   0.986   3.101  1.0261 -1.3651  0.2035
43394SOL    HW233714   8.260   1.068   3.226 -0.6550 -1.4312  0.5339
43395SOL     OW33715   5.341   4.314   6.920  0.7532  0.0074 -0.1396
43395SOL    HW133716   5.252   4.348   6.910  0.7367  0.1047  0.3027
43395SOL    HW233717   5.337   4.258   6.998  1.2987  0.7733  0.4562
43396SOL     OW33718   6.791   3.503  10.191 -0.3850  0.3198 -0.1280
43396SOL    HW133719   6.742   3.512  10.110 -1.4797  0.9968  0.5852
43396SOL    HW233720   6.725   3.495  10.259  0.4677  1.7782  0.9314
43397SOL     OW33721   3.207   3.364   4.231 -0.3233 -0.0728 -0.4667
43397SOL    HW133722   3.240   3.450   4.257  0.7238 -0.4483 -0.4974
43397SOL    HW233723   3.156   3.334   4.306  0.2936  0.0854  0.0263
43398SOL     OW33724   0.606   3.587   0.499 -0.3427 -0.1434 -0.3999
43398SOL    HW133725   0.550   3.576   0.422 -1.6513 -0.3854  0.5447
43398SOL    HW233726   0.603   3.502   0.543 -0.9796  0.4667  0.7843
43399SOL     OW33727   3.316   8.979   2.032  0.0320 -0.1856  0.8007
43399SOL    HW133728   3.284   8.896   2.069 -2.6765  1.4854  2.5142
43399SOL    HW233729   3.260   8.995   1.956  1.2603 -0.3576 -0.1927
43400SOL     OW33730   3.389   9.396   0.969 -0.3474  0.9488  0.3574
43400SOL    HW133731   3.361   9.306   0.983 -2.5240  0.7671 -3.4856
43400SOL    HW233732   3.311   9.449   0.986  0.3456  1.8976  0.7094
43401SOL     OW33733   6.221   1.411  10.409 -0.2866  0.1098 -0.0779
43401SOL    HW133734   6.301   1.462  10.415 -0.6347  0.6368  0.2386
43401SOL    HW233735   6.243   1.336  10.353  0.2682  0.5389 -0.4406
43402SOL     OW33736   0.790   5.211   2.365 -0.0367  0.0950 -0.1550
43402SOL    HW133737   0.755   5.210   2.454  2.2872 -0.2475  0.8381
43402SOL    HW233738   0.756   5.131   2.325 -0.1129 -0.3842  0.8425
43403SOL     OW33739   2.245   1.081   1.957  0.7603  0.7502 -0.6609
43403SOL    HW133740   2.160   1.125   1.951  1.4028  2.3873  1.2986
43403SOL    HW233741   2.223   0.987   1.956 -1.0883  1.1251 -0.0312
43404SOL     OW33742   1.760   9.761   4.518 -0.2577  0.2754 -0.5323
43404SOL    HW133743   1.680   9.770   4.569  0.9019 -1.4338  1.7932
43404SOL    HW233744   1.826   9.732   4.581  2.3187  1.8915 -2.2792
43405SOL     OW33745   0.485   1.851   7.101  0.5265 -0.0704  0.2502
43405SOL    HW133746   0.431   1.866   7.178  0.0726  2.9251 -0.5375
43405SOL    HW233747   0.568   1.895   7.120  0.4350  0.6473 -0.8997
43406SOL     OW33748  10.292   8.546   0.420 -0.5700 -0.0266  0.0566
43406SOL    HW133749  10.268   8.498   0.499 -2.3050  1.6569  0.6303
43406SOL    HW233750  10.302   8.637   0.449 -1.1477  0.6244 -1.6327
43407SOL     OW33751   2.879   7.193   8.843 -0.0831 -0.2028  0.3726
43407SOL    HW133752   2.919   7.197   8.756  0.6655 -2.0849  0.5867
43407SOL    HW233753   2.904   7.276   8.884  1.2724 -0.1405 -0.5079
43408SOL     OW33754   3.515   8.551   5.442  0.1639 -0.0873 -0.2402
43408SOL    HW133755   3.528   8.596   5.359 -0.0113  0.2143 -0.1068
43408SOL    HW233756   3.485   8.620   5.502  0.5859 -0.2400  0.1511
43409SOL     OW33757   8.107   4.208   0.808 -0.0979  0.3239 -0.1752
43409SOL    HW133758   8.088   4.294   0.845 -1.5494  0.2622 -0.7164
43409SOL    HW233759   8.144   4.226   0.721 -0.4649  0.4065 -0.3153
43410SOL     OW33760   1.869   6.439   9.579 -0.4350  0.1508 -0.4905
43410SOL    HW133761   1.917   6.474   9.504 -1.5492  0.0716 -1.2669
43410SOL    HW233762   1.779   6.470   9.567 -1.4024 -2.5536 -1.0099
43411SOL     OW33763  10.945   9.307   1.980  0.0852 -0.2108  0.6399
43411SOL    HW133764  10.906   9.236   1.930 -0.3873  0.8107 -0.4845
43411SOL    HW233765  11.025   9.330   1.932 -0.9016  1.4586 -0.2677
43412SOL     OW33766   7.284   7.431  10.495 -0.0655 -0.1363 -0.1725
43412SOL    HW133767   7.346   7.395  10.432 -0.2145 -1.5104  0.4435
43412SOL    HW233768   7.268   7.360  10.557 -0.0993  1.1053  1.2956
43413SOL     OW33769   9.510  11.097   0.633  0.5266  0.5866  0.3690
43413SOL    HW133770   9.532  11.109   0.725 -1.1425  2.5300  0.5938
43413SOL    HW233771   9.512  11.186   0.596 -0.4739  0.0626 -1.0523
43414SOL     OW33772   3.639   3.809   2.812  0.0648  0.6988  0.2983
43414SOL    HW133773   3.578   3.865   2.764  1.2591  2.2645  0.5265
43414SOL    HW233774   3.721   3.814   2.762  0.2063 -0.8366  0.3515
43415SOL     OW33775   4.303   7.986  10.386 -0.0641 -0.1171  0.2275
43415SOL    HW133776   4.237   7.921  10.363 -0.0647  0.3162 -1.0615
43415SOL    HW233777   4.262   8.070  10.365  0.9366  0.1531 -0.7230
43416SOL     OW33778   5.129   1.361   2.236 -0.0448  0.1535  0.1004
43416SOL    HW133779   5.164   1.397   2.155 -0.7647 -1.3959 -0.9372
43416SOL    HW233780   5.156   1.423   2.303  2.7810  0.1464 -0.9176
43417SOL     OW33781   8.040   5.236   2.114  0.2599 -0.0826  0.3725
43417SOL    HW133782   8.135   5.229   2.127  0.2058  1.9693  2.4870
43417SOL    HW233783   8.030   5.297   2.041  0.5591  0.2761  0.6313
43418SOL     OW33784   6.514   2.403   3.056  0.4459 -0.3810  0.4344
43418SOL    HW133785   6.471   2.361   3.131  1.2368 -0.0892  1.0602
43418SOL    HW233786   6.459   2.379   2.981 -0.2435 -0.8483  1.0707
43419SOL     OW33787  10.782   7.112   1.373 -0.6905  0.8228 -0.0025
43419SOL    HW133788  10.785   7.098   1.279  1.6981  0.1743  0.0969
43419SOL    HW233789  10.832   7.039   1.410 -1.5910  1.0406  1.7809
43420SOL     OW33790   8.883   5.852  10.252  0.1050  0.1682 -0.1276
43420SOL    HW133791   8.833   5.790  10.199  0.3504  0.0919 -0.2695
43420SOL    HW233792   8.915   5.800  10.326  2.3095 -0.4689 -1.4457
43421SOL     OW33793   6.997   0.472   6.529  0.4120 -0.2344 -0.3066
43421SOL    HW133794   6.932   0.427   6.583 -0.8132 -0.2311 -1.7058
43421SOL    HW233795   6.953   0.554   6.503  1.7773  0.7601  0.4046
43422SOL     OW33796   5.354   4.143   9.950 -0.4938  0.5262  0.8559
43422SOL    HW133797   5.432   4.187   9.981 -0.9042  1.8027  0.1371
43422SOL    HW233798   5.322   4.093  10.025 -0.8102  2.5832  2.1413
43423SOL     OW33799   2.649   7.801   5.157  0.0774  0.5913  0.0951
43423SOL    HW133800   2.650   7.877   5.215  0.0199 -2.3606  4.3818
43423SOL    HW233801   2.559   7.770   5.160  0.5637 -0.8863  0.3140
43424SOL     OW33802   3.518   2.786   3.413 -0.3577 -0.3744 -0.1575
43424SOL    HW133803   3.550   2.820   3.330 -1.0080  1.5597  0.3210
43424SOL    HW233804   3.497   2.694   3.396  2.5119 -0.9274 -1.2550
43425SOL     OW33805   7.192   9.558   6.183 -0.4111 -0.0063  0.5682
43425SOL    HW133806   7.245   9.478   6.182  0.0792  0.3181  0.5687
43425SOL    HW233807   7.106   9.529   6.150 -0.0580 -0.4096 -0.0296
43426SOL     OW33808   0.462   2.145   9.048  0.1821 -0.3796  0.4849
43426SOL    HW133809   0.553   2.128   9.023  0.5189  1.4950  0.3106
43426SOL    HW233810   0.410   2.115   8.973  0.9454  1.8471 -1.0360
43427SOL     OW33811   6.347   0.588  10.354 -0.6945  0.2340  0.2290
43427SOL    HW133812   6.286   0.658  10.330  0.6169  1.0469 -0.8381
43427SOL    HW233813   6.387   0.617  10.436 -0.3321  0.6348 -0.0852
43428SOL     OW33814   3.664   5.267   7.171 -0.4460 -0.5058 -0.1188
43428SOL    HW133815   3.617   5.232   7.246  0.5001  0.2559  0.8618
43428SOL    HW233816   3.710   5.343   7.205 -0.8106  0.4803 -1.7173
43429SOL     OW33817   7.922   0.150   9.776 -0.0325  0.4130  0.1231
43429SOL    HW133818   7.980   0.079   9.801 -0.7547  0.3736  1.8889
43429SOL    HW233819   7.917   0.205   9.855 -2.0158  0.6275 -0.0940
43430SOL     OW33820   7.447   6.911   1.100 -0.0369  0.2071  0.4441
43430SOL    HW133821   7.377   6.854   1.132 -0.0657 -0.4124 -0.6607
43430SOL    HW233822   7.491   6.859   1.033  0.0119  1.4438 -0.5120
43431SOL     OW33823  10.453   1.665  10.588  0.6934 -0.6993 -0.1343
43431SOL    HW133824  10.548   1.662  10.595  0.6022  0.0038  2.0026
43431SOL    HW233825  10.436   1.710  10.505  2.2264  0.4760  0.1631
43432SOL     OW33826   3.846   4.036   0.086  0.6339 -0.3229  0.5001
43432SOL    HW133827   3.828   3.973   0.016 -0.4777 -0.9480  1.3125
43432SOL    HW233828   3.759   4.064   0.115  1.1095  1.2049  0.5017
43433SOL     OW33829   1.880   0.239   3.171  0.1732  0.3762 -0.2603
43433SOL    HW133830   1.930   0.319   3.188  0.3985  0.2199 -0.1746
43433SOL    HW233831   1.795   0.270   3.140  0.5711  0.6409 -1.1309
43434SOL     OW33832   7.825  10.794   2.377 -0.2044  0.2848  0.5747
43434SOL    HW133833   7.731  10.812   2.372 -0.2086  0.2325  0.4544
43434SOL    HW233834   7.845  10.796   2.471  0.2409  3.1845  0.5104
43435SOL     OW33835   8.019   1.766   4.673 -0.0024  0.0997 -0.3463
43435SOL    HW133836   7.957   1.839   4.661  0.6090  0.9479  1.3406
43435SOL    HW233837   8.089   1.803   4.726  1.3705 -1.1830 -1.1947
43436SOL     OW33838   6.105   7.409   0.970  0.4932  0.9887 -0.6302
43436SOL    HW133839   6.022   7.406   1.017  0.0123  2.4125 -1.3331
43436SOL    HW233840   6.112   7.322   0.929 -0.5066  0.7492 -0.3233
43437SOL     OW33841   5.420   8.959   5.065 -0.3182 -0.1140  0.3286
43437SOL    HW133842   5.335   9.000   5.050 -0.2246 -0.3527 -0.9764
43437SOL    HW233843   5.477   8.999   4.999 -0.1983 -2.1995 -0.9294
43438SOL     OW33844   1.170   9.513   4.954  0.1153  0.6410  0.2198
43438SOL    HW133845   1.160   9.519   5.049 -1.8626 -0.6191  0.1375
43438SOL    HW233846   1.125   9.591   4.920 -2.7391 -0.8765  0.2223
43439SOL     OW33847  10.189   9.954   7.935 -0.2235 -0.1851  0.4585
43439SOL    HW133848  10.155   9.926   8.020  1.0004 -0.3270  0.9127
43439SOL    HW233849  10.222   9.874   7.895  0.7652  0.1448  0.5857
43440SOL     OW33850   1.961   3.117   7.973  0.0275 -0.4858 -0.2149
43440SOL    HW133851   1.927   3.134   8.061  1.2439  1.4884 -0.0682
43440SOL    HW233852   2.056   3.124   7.982  0.1835 -0.4258 -1.6363
43441SOL     OW33853   4.813   3.517   8.180  0.2826 -0.0114 -0.2041
43441SOL    HW133854   4.778   3.545   8.265 -0.9330 -1.8811 -0.0329
43441SOL    HW233855   4.856   3.595   8.145 -1.2210  1.4621  1.0797
43442SOL     OW33856   4.747   1.457   8.900  0.5081 -0.0760  0.0496
43442SOL    HW133857   4.692   1.526   8.937 -0.5564  0.6193 -2.6285
43442SOL    HW233858   4.705   1.375   8.929 -1.3668  0.4454 -1.0575
43443SOL     OW33859   9.678   9.823   4.913 -0.3006 -0.0404 -0.4028
43443SOL    HW133860   9.729   9.891   4.869 -1.6852  1.7388  0.6312
43443SOL    HW233861   9.588   9.855   4.912 -0.7191 -0.9840  1.7170
43444SOL     OW33862   7.718   3.862   5.976  0.3752 -0.6391 -0.1628
43444SOL    HW133863   7.810   3.871   5.999  0.4216 -1.1012 -0.1491
43444SOL    HW233864   7.716   3.786   5.917  0.2745  0.5629 -1.7529
43445SOL     OW33865   2.137  10.471   6.767 -0.0494 -0.8602  0.6282
43445SOL    HW133866   2.057  10.454   6.816  0.6237 -1.8415  1.4266
43445SOL    HW233867   2.155  10.389   6.721 -0.0255 -0.3275 -0.3422
43446SOL     OW33868   6.588   0.945   3.496  0.5858  0.1683 -0.2345
43446SOL    HW133869   6.564   0.984   3.580  0.7297 -1.0568  0.3979
43446SOL    HW233870   6.683   0.936   3.499  0.3673 -2.9779  0.9533
43447SOL     OW33871   8.215   0.132  10.802  0.4864  0.1719  0.5526
43447SOL    HW133872   8.190   0.115  10.712  0.1023 -0.3394  0.7509
43447SOL    HW233873   8.154   0.080  10.855  0.8110  0.3305  1.1000
43448SOL     OW33874   9.783  10.420   6.202  0.1269  0.0378 -0.2240
43448SOL    HW133875   9.801  10.484   6.134 -0.3745  1.5756  1.0409
43448SOL    HW233876   9.836  10.344   6.178  0.3336  0.7001 -2.0439
43449SOL     OW33877   5.951   7.977  10.788  0.5407 -0.1901  0.5415
43449SOL    HW133878   5.992   7.891  10.782  0.2026 -0.3110 -0.2529
43449SOL    HW233879   5.857   7.959  10.795  0.5039  0.1046  0.8351
43450SOL     OW33880   1.405   4.123   4.174 -0.1304  0.2482 -0.1448
43450SOL    HW133881   1.416   4.176   4.253  0.6082  0.1100 -0.1512
43450SOL    HW233882   1.373   4.185   4.108 -1.8859  0.1407  0.5478
43451SOL     OW33883   2.054   6.216   3.929 -0.5035 -0.4749 -0.1322
43451SOL    HW133884   1.972   6.226   3.977 -0.4197  2.3348 -0.3777
43451SOL    HW233885   2.038   6.256   3.844  0.8692 -0.6453 -0.5006
43452SOL     OW33886   9.254   9.123   4.622  0.4279  0.0206 -0.0283
43452SOL    HW133887   9.325   9.061   4.607  1.1933  0.9826 -0.5166
43452SOL    HW233888   9.296   9.209   4.620 -0.9705  0.7261 -1.8061
43453SOL     OW33889   6.578   0.335   5.248 -0.4899  0.0977 -0.1988
43453SOL    HW133890   6.535   0.249   5.249 -2.3610  0.9773 -0.4116
43453SOL    HW233891   6.521   0.389   5.194  0.2063  1.7071  0.6245
43454SOL     OW33892   8.304   8.281   7.033  0.1325 -0.6763 -0.6022
43454SOL    HW133893   8.220   8.260   6.993 -0.3410  2.2557 -1.3891
43454SOL    HW233894   8.300   8.241   7.120 -2.0326 -0.7212 -0.6717
43455SOL     OW33895   5.989   9.561   5.315 -0.6723 -0.5020  0.0330
43455SOL    HW133896   5.979   9.537   5.223 -1.0320 -0.2185  0.0005
43455SOL    HW233897   5.941   9.643   5.324  0.8103  0.4105  0.0682
43456SOL     OW33898   4.609   9.787   6.074 -0.3047 -0.0586  0.0608
43456SOL    HW133899   4.516   9.787   6.093 -0.6937  1.8163 -1.5215
43456SOL    HW233900   4.614   9.793   5.979  1.4399 -0.2894  0.1022
43457SOL     OW33901  10.495   0.874   2.444  0.4144  0.1266  0.1183
43457SOL    HW133902  10.423   0.816   2.470  1.0490  0.0849  1.8839
43457SOL    HW233903  10.454   0.960   2.435 -0.0246 -0.0724  0.1730
43458SOL     OW33904   8.597   1.855   1.893  0.3520  0.4285 -0.3198
43458SOL    HW133905   8.574   1.780   1.838  2.9817 -1.1322  0.5369
43458SOL    HW233906   8.576   1.827   1.982  3.3528 -0.3135  0.2707
43459SOL     OW33907   3.876   3.358   6.177  0.1316 -0.2550  0.1452
43459SOL    HW133908   3.844   3.311   6.254 -0.7239 -0.5824 -0.3991
43459SOL    HW233909   3.915   3.290   6.122 -0.3940 -0.2236 -0.2801
43460SOL     OW33910   9.121   7.460   3.961 -0.1150 -0.3641  0.2660
43460SOL    HW133911   9.099   7.550   3.986  0.8458  0.6235 -2.1639
43460SOL    HW233912   9.197   7.438   4.015 -0.3691  0.2511  0.8944
43461SOL     OW33913   9.583   1.100   9.295  0.2791  0.0110 -0.3385
43461SOL    HW133914   9.674   1.124   9.312 -0.4342  1.7782  1.3892
43461SOL    HW233915   9.568   1.022   9.349  1.2733 -1.5717 -2.2256
43462SOL     OW33916   6.501   1.024   8.590 -0.4227 -0.2552  0.5697
43462SOL    HW133917   6.560   0.949   8.585  0.4191  0.4798 -1.1758
43462SOL    HW233918   6.418   0.992   8.553  0.5698  0.2002 -2.2543
43463SOL     OW33919   3.627   5.031   4.187 -0.5718 -0.0813 -0.4855
43463SOL    HW133920   3.717   5.045   4.216 -0.1066 -1.7575 -0.9948
43463SOL    HW233921   3.588   4.979   4.257 -0.9772  0.1329 -0.5473
43464SOL     OW33922   3.664   5.701   3.214  0.4869 -0.2815 -0.2589
43464SOL    HW133923   3.604   5.628   3.195  0.7344 -0.5050 -0.1932
43464SOL    HW233924   3.648   5.723   3.305  0.2562 -0.1075 -0.3411
43465SOL     OW33925   2.459   5.957   9.931  0.0760 -0.0864  0.2414
43465SOL    HW133926   2.382   5.903   9.913  0.0971 -0.1781  0.4204
43465SOL    HW233927   2.531   5.895   9.935  0.5451  0.2230 -2.1609
43466SOL     OW33928   0.460   9.943  10.174  0.7672  0.4947  0.2516
43466SOL    HW133929   0.554   9.926  10.163  0.6463  0.1537 -0.3023
43466SOL    HW233930   0.423   9.857  10.192  0.3616  0.3833 -1.0196
43467SOL     OW33931   0.686   7.806   1.040 -0.4471 -0.2016 -0.3271
43467SOL    HW133932   0.646   7.829   1.124 -0.9034  0.7663 -0.7867
43467SOL    HW233933   0.629   7.846   0.975  0.3516 -0.2358 -1.0677
43468SOL     OW33934   3.442   1.188   3.404  0.2303  0.7796 -0.3815
43468SOL    HW133935   3.518   1.142   3.369  0.3165 -0.2302  1.0288
43468SOL    HW233936   3.476   1.239   3.478 -0.4566  0.2748  0.2976
43469SOL     OW33937   3.776   0.069   6.588  0.1140 -0.1437 -0.1007
43469SOL    HW133938   3.813  -0.005   6.637 -2.6992 -1.6645 -0.0501
43469SOL    HW233939   3.731   0.121   6.654 -0.5541 -0.1420 -0.5455
43470SOL     OW33940   1.021  10.431   4.374  0.1539  0.0463  0.4910
43470SOL    HW133941   0.949  10.426   4.311  1.2693  0.7552 -0.8817
43470SOL    HW233942   1.064  10.346   4.368  1.8790  0.9935 -1.7579
43471SOL     OW33943   5.878   0.766   1.366 -0.3466 -0.8816  0.3277
43471SOL    HW133944   5.894   0.853   1.401 -0.8528 -1.1719  1.3064
43471SOL    HW233945   5.877   0.709   1.442 -0.7947 -1.6306 -0.2250
43472SOL     OW33946   0.168   0.693   1.302  0.2745 -0.1792 -0.0030
43472SOL    HW133947   0.221   0.695   1.222 -0.7249  1.5333 -0.6695
43472SOL    HW233948   0.086   0.651   1.274  1.1532 -2.8147  1.0196
43473SOL     OW33949   1.065   0.810   3.155  0.4130 -0.2798 -0.4720
43473SOL    HW133950   1.068   0.847   3.243 -0.1297  1.3239 -1.0800
43473SOL    HW233951   1.086   0.884   3.098 -0.8733 -0.8695 -1.7704
43474SOL     OW33952   1.587   6.596   3.440  0.3150 -0.3622 -0.2542
43474SOL    HW133953   1.539   6.514   3.429 -2.8368  1.3668 -0.5251
43474SOL    HW233954   1.566   6.625   3.529  0.1734  0.8450 -0.6568
43475SOL     OW33955   9.277   3.767   7.786  0.3565  0.2213 -0.2058
43475SOL    HW133956   9.188   3.735   7.767  0.6392  0.9079 -3.1370
43475SOL    HW233957   9.269   3.862   7.784  1.2636  0.2861 -1.1762
43476SOL     OW33958   9.770   7.620   1.946  0.4920  0.3273  0.2456
43476SOL    HW133959   9.717   7.699   1.934 -1.1610 -0.5870  1.1118
43476SOL    HW233960   9.782   7.586   1.858  1.0231  1.4008 -0.1146
43477SOL     OW33961   2.160   5.812   8.851 -0.1170  0.6616 -0.1080
43477SOL    HW133962   2.225   5.850   8.792 -0.5168  0.8177 -0.4514
43477SOL    HW233963   2.107   5.756   8.794 -0.4441  0.7370  0.1227
43478SOL     OW33964   0.114   5.983   4.837 -0.5433 -0.4985  0.0803
43478SOL    HW133965   0.044   6.047   4.826 -1.6600 -1.5941  0.5584
43478SOL    HW233966   0.158   6.009   4.918 -1.2430 -0.5483  0.4891
43479SOL     OW33967   8.453   1.367   9.378 -0.3330  0.2329 -0.0503
43479SOL    HW133968   8.519   1.390   9.312 -0.5071  1.0007  0.0373
43479SOL    HW233969   8.402   1.447   9.390 -0.5986 -0.0370  0.6770
43480SOL     OW33970   9.177   2.610   7.215 -0.2645 -0.2245 -0.0346
43480SOL    HW133971   9.114   2.678   7.236  0.5819  0.3914  0.5704
43480SOL    HW233972   9.159   2.587   7.124 -1.6640 -0.4010  0.2739
43481SOL     OW33973   5.313   8.758   7.456 -0.1825 -0.7101  0.3565
43481SOL    HW133974   5.384   8.720   7.404  1.6302 -0.6435  2.5981
43481SOL    HW233975   5.337   8.738   7.546 -2.2846  0.6153  1.2764
43482SOL     OW33976   9.324   9.629   8.609  0.4931 -0.3536 -0.1065
43482SOL    HW133977   9.383   9.599   8.539  1.0635  0.2522  0.1030
43482SOL    HW233978   9.290   9.548   8.647  0.5702 -0.7011 -0.7472
43483SOL     OW33979   3.464   0.167   8.912  0.7651  0.3035  0.0476
43483SOL    HW133980   3.455   0.185   9.005  0.1425  1.0407 -0.1469
43483SOL    HW233981   3.471   0.071   8.907 -0.0816  0.1882  0.7813
43484SOL     OW33982   9.782   1.572   2.366  0.0514  0.2311 -0.5228
43484SOL    HW133983   9.702   1.621   2.345 -0.7894 -0.9472 -0.1786
43484SOL    HW233984   9.761   1.526   2.447  1.7911  1.4380  0.6868
43485SOL     OW33985   7.534   0.782   4.316 -0.6050 -0.3615 -0.1649
43485SOL    HW133986   7.593   0.719   4.357  0.6937 -0.5184 -2.1209
43485SOL    HW233987   7.450   0.768   4.359 -0.2040 -3.0119 -0.0798
43486SOL     OW33988   9.653   3.792   9.792  0.2870 -0.2240  0.0098
43486SOL    HW133989   9.657   3.697   9.803 -1.4405 -0.4386 -0.8483
43486SOL    HW233990   9.627   3.824   9.878  1.8190 -0.4156  0.5659
43487SOL     OW33991   5.133  10.947   0.216 -0.0355 -0.0458  0.7139
43487SOL    HW133992   5.084  10.886   0.270 -1.4881  0.9385  0.5601
43487SOL    HW233993   5.195  10.988   0.276  0.8458 -1.4951  0.8524
43488SOL     OW33994   7.974   2.471   6.443  0.0565  0.0068 -0.0964
43488SOL    HW133995   7.952   2.503   6.356  0.0645  1.5496  0.4310
43488SOL    HW233996   8.066   2.492   6.454 -0.1606  0.6196  0.6055
43489SOL     OW33997   6.062   6.961   6.527 -0.1089  0.2842 -0.4575
43489SOL    HW133998   6.111   7.039   6.554 -0.2265  0.4326 -0.6720
43489SOL    HW233999   6.069   6.902   6.602 -1.2859  1.0890  0.3128
43490SOL     OW34000   3.531   6.485   7.711  0.5001 -0.1883 -0.1882
43490SOL    HW134001   3.489   6.566   7.742  0.7033  0.9514 -2.6350
43490SOL    HW234002   3.607   6.474   7.767  0.7313  1.6077 -0.0943
43491SOL     OW34003   5.149   5.736   7.604  1.1032 -0.5279 -0.3261
43491SOL    HW134004   5.075   5.791   7.632  2.0560  0.5263  0.2102
43491SOL    HW234005   5.135   5.652   7.648 -0.2808 -0.6763 -1.0053
43492SOL     OW34006   5.081   9.211   7.108  0.5264  0.0231  0.5483
43492SOL    HW134007   5.103   9.282   7.047 -0.1126  0.9357  1.3532
43492SOL    HW234008   5.081   9.132   7.054  0.7705  0.6969 -0.4662
43493SOL     OW34009   1.390   9.946   1.652  0.1610 -0.2969 -0.1701
43493SOL    HW134010   1.406   9.857   1.685  0.4067 -1.2663 -2.6460
43493SOL    HW234011   1.476   9.987   1.652  0.3941 -0.7569 -0.7765
43494SOL     OW34012   7.241   3.334   4.034  0.4053 -0.1109 -0.6475
43494SOL    HW134013   7.251   3.316   4.127 -2.2413 -1.0775 -0.4659
43494SOL    HW234014   7.294   3.268   3.990  3.3222  1.5885  0.1069
43495SOL     OW34015   3.124   4.490   7.627  0.1043 -0.3625  0.3282
43495SOL    HW134016   3.053   4.427   7.623  0.4705 -0.8004  0.6582
43495SOL    HW234017   3.178   4.470   7.550 -1.2733  1.3759 -1.1828
43496SOL     OW34018   3.470   1.546   3.149  0.1781  0.4843  0.7910
43496SOL    HW134019   3.405   1.514   3.086  0.7962  3.0250 -1.3298
43496SOL    HW234020   3.420   1.567   3.227 -1.4050  1.1957 -0.3591
43497SOL     OW34021   2.524   1.305   6.956  0.2078 -0.1734  0.1422
43497SOL    HW134022   2.574   1.385   6.941 -1.3799  1.1005  1.2797
43497SOL    HW234023   2.564   1.266   7.034  0.9445 -0.4590 -0.3758
43498SOL     OW34024   4.377   7.774  10.658 -0.1594 -0.4200 -0.8659
43498SOL    HW134025   4.310   7.728  10.708  1.4948 -1.0186  0.9144
43498SOL    HW234026   4.336   7.793  10.574 -2.6928 -0.3571  0.3113
43499SOL     OW34027   5.592   4.387   2.084 -0.8382  0.5320 -0.1130
43499SOL    HW134028   5.604   4.471   2.128  0.8636 -0.2863  1.1382
43499SOL    HW234029   5.591   4.408   1.991 -0.8848  1.9719  0.1947
43500SOL     OW34030   6.235   4.991   9.416  0.3546  0.4870  0.3180
43500SOL    HW134031   6.265   5.075   9.381  0.7286  1.3059  2.4579
43500SOL    HW234032   6.223   5.007   9.510 -1.6840 -1.2803  0.4221
43501SOL     OW34033   4.420   5.025   7.259 -0.2344 -0.6198  0.2619
43501SOL    HW134034   4.509   4.990   7.249  0.8380  2.4735 -2.7443
43501SOL    HW234035   4.429   5.098   7.320 -0.6318 -0.0650 -0.3345
43502SOL     OW34036  11.090   4.304   3.782 -0.0513 -0.1473 -0.0259
43502SOL    HW134037  11.077   4.389   3.824 -0.7721 -1.3582  2.3876
43502SOL    HW234038  11.159   4.320   3.718 -1.0891  2.5340 -0.6176
43503SOL     OW34039   9.155   9.719   8.823 -0.0356  0.0918  0.3753
43503SOL    HW134040   9.184   9.689   8.908  2.1403  2.2197  0.5092
43503SOL    HW234041   9.229   9.702   8.765  0.0276  2.0585 -0.2029
43504SOL     OW34042   1.930  10.645   0.324 -0.6270  0.4886  0.1982
43504SOL    HW134043   2.025  10.629   0.321 -0.0767  3.3453 -0.3534
43504SOL    HW234044   1.900  10.623   0.236 -0.1744  0.9928 -0.0912
43505SOL     OW34045   4.122   0.968   9.096  0.2171 -0.6235 -0.4801
43505SOL    HW134046   4.127   1.035   9.028 -1.0435 -1.5251 -1.5154
43505SOL    HW234047   4.035   0.929   9.085  0.7078 -2.0569  0.4386
43506SOL     OW34048   4.789   9.273   3.176  0.1708  0.0492 -0.4410
43506SOL    HW134049   4.727   9.287   3.105  0.1394  1.5358 -0.1462
43506SOL    HW234050   4.783   9.352   3.230 -0.6613 -1.4940  1.8979
43507SOL     OW34051   6.685   5.501   8.425 -0.2940  0.1813  0.2338
43507SOL    HW134052   6.638   5.567   8.476  1.9969  0.0257  2.7393
43507SOL    HW234053   6.642   5.419   8.447 -0.8665  0.3977 -0.0532
43508SOL     OW34054   7.439   4.550   2.451 -0.0617 -0.4712  0.3374
43508SOL    HW134055   7.391   4.519   2.374  0.5710  0.9303 -0.6748
43508SOL    HW234056   7.452   4.643   2.435 -1.2114  0.2144  2.8750
43509SOL     OW34057   8.962   8.556   1.760  0.0034 -0.4681 -0.1216
43509SOL    HW134058   9.023   8.616   1.803  0.4565  0.4710 -1.9794
43509SOL    HW234059   9.015   8.478   1.741 -0.0139 -0.5972  0.3343
43510SOL     OW34060   4.728   1.031   2.281 -0.3391 -0.2057 -0.5921
43510SOL    HW134061   4.678   0.997   2.356 -2.0658 -0.0265 -1.5973
43510SOL    HW234062   4.739   0.955   2.224  0.7089 -0.2726 -0.3171
43511SOL     OW34063   2.383   3.923   8.081  0.1097  0.1077  0.1884
43511SOL    HW134064   2.344   3.990   8.138  0.4579 -0.8848  1.6685
43511SOL    HW234065   2.475   3.948   8.074 -0.5068  1.9166 -2.5133
43512SOL     OW34066   9.618  11.021   4.787  0.6137  0.2701  0.0349
43512SOL    HW134067   9.597  10.929   4.799 -0.6228  0.7078  1.6102
43512SOL    HW234068   9.534  11.066   4.797  1.2997  1.6049 -0.0530
43513SOL     OW34069   9.179   0.226   1.064  0.2658 -0.1731  0.8986
43513SOL    HW134070   9.223   0.267   0.990 -0.7596  1.5219  1.1652
43513SOL    HW234071   9.233   0.247   1.140 -0.0856  0.4040  0.9903
43514SOL     OW34072   5.493   6.909   8.266 -0.1252  0.3052 -0.4651
43514SOL    HW134073   5.442   6.888   8.188 -0.6300 -1.3882  0.2572
43514SOL    HW234074   5.430   6.950   8.325 -0.3825 -0.6376 -0.0548
43515SOL     OW34075   4.676  11.021  10.700 -0.2691 -0.2360  0.1188
43515SOL    HW134076   4.658  10.936  10.741 -1.0508  0.5171  1.4187
43515SOL    HW234077   4.590  11.050  10.667  0.0273 -0.0218 -0.4892
43516SOL     OW34078   4.101   9.676   0.551 -0.3525 -0.2258 -0.0892
43516SOL    HW134079   4.120   9.702   0.641 -0.6730 -1.2944  0.3077
43516SOL    HW234080   4.175   9.709   0.500  0.6632 -0.9933  0.8296
43517SOL     OW34081   4.597  10.488   0.736 -0.3401  0.2850 -0.3082
43517SOL    HW134082   4.575  10.536   0.817  0.6769  0.7017 -0.2596
43517SOL    HW234083   4.629  10.403   0.767 -0.4926  0.2301 -0.3013
43518SOL     OW34084   9.650   6.286  10.805  0.8310 -0.1226  0.5156
43518SOL    HW134085   9.640   6.219  10.873  3.2457 -3.0703 -1.7193
43518SOL    HW234086   9.740   6.316  10.814  0.1611  1.9729  0.6442
43519SOL     OW34087   6.266   6.912   5.279 -0.0772 -0.3469 -0.2983
43519SOL    HW134088   6.271   6.958   5.363 -1.0793  0.5897 -0.7253
43519SOL    HW234089   6.324   6.961   5.221  1.1452 -1.3962  0.0007
43520SOL     OW34090   7.776   8.702   6.618 -0.1603 -0.1317 -0.1204
43520SOL    HW134091   7.809   8.742   6.538  2.6114 -1.7659  0.0912
43520SOL    HW234092   7.699   8.652   6.591  0.0866  0.2208 -1.5355
43521SOL     OW34093   0.015   0.026   2.343 -0.0305 -0.0280  0.0682
43521SOL    HW134094  -0.065   0.021   2.396 -0.2351  1.8354 -0.0279
43521SOL    HW234095   0.076   0.075   2.397  0.1193  0.9516 -0.9722
43522SOL     OW34096   4.907   5.247   4.581  0.4050  0.2364 -0.1313
43522SOL    HW134097   4.866   5.332   4.568  1.9457  1.0182 -0.1234
43522SOL    HW234098   4.983   5.265   4.637  0.2803 -1.2846  0.6011
43523SOL     OW34099   6.057   3.532   2.559 -0.5573 -0.3636  0.6871
43523SOL    HW134100   6.150   3.525   2.537 -0.8570 -0.2660 -0.7473
43523SOL    HW234101   6.023   3.595   2.495 -1.4491  0.2326  1.7320
43524SOL     OW34102   3.725   6.851   0.876 -0.1533 -0.0797  0.2557
43524SOL    HW134103   3.783   6.928   0.875  1.4621 -1.2338  0.5685
43524SOL    HW234104   3.770   6.787   0.821 -1.1303 -1.0444  0.5544
43525SOL     OW34105   4.636   8.071   6.720  0.4143  0.4195  0.4426
43525SOL    HW134106   4.652   7.991   6.670  0.2935  1.3282 -1.1090
43525SOL    HW234107   4.723   8.111   6.731  0.3934  0.4111  0.6534
43526SOL     OW34108   2.499   3.037   8.623  0.2564 -0.5832 -0.0162
43526SOL    HW134109   2.492   3.090   8.702  1.4641  1.4934 -1.2070
43526SOL    HW234110   2.411   3.039   8.585 -0.1250 -0.9016  0.8204
43527SOL     OW34111   0.125   1.032   8.013 -0.2835  0.2629  0.0447
43527SOL    HW134112   0.043   1.077   8.034 -1.9260 -1.5187 -1.9756
43527SOL    HW234113   0.152   1.070   7.929 -0.2578 -0.6279 -0.3696
43528SOL     OW34114   1.075   0.208   6.457 -0.5199 -0.2400  0.0288
43528SOL    HW134115   1.023   0.217   6.537  0.0956  0.0867  0.4015
43528SOL    HW234116   1.016   0.233   6.387 -1.3835 -1.4945  0.2716
43529SOL     OW34117   9.880   5.600   2.294 -0.0822  0.0897  0.2061
43529SOL    HW134118   9.896   5.689   2.326  0.1109  0.0707  0.1603
43529SOL    HW234119   9.820   5.613   2.220 -0.7868  0.1070  0.7691
43530SOL     OW34120   8.515   4.692   6.563 -0.2141 -0.2718 -0.0737
43530SOL    HW134121   8.601   4.665   6.533 -0.0701 -4.1749  3.0345
43530SOL    HW234122   8.454   4.630   6.523 -0.9230 -0.5649  1.3626
43531SOL     OW34123   8.164   6.448   4.032  0.1860 -0.3394  0.2039
43531SOL    HW134124   8.133   6.358   4.041  0.5126 -0.3152  1.9193
43531SOL    HW234125   8.259   6.441   4.033  0.2286  0.1049  1.7198
43532SOL     OW34126   3.635   2.915   2.469  0.5936  0.0028  0.2133
43532SOL    HW134127   3.689   2.968   2.528 -0.6059  0.2214  1.1757
43532SOL    HW234128   3.573   2.977   2.431  1.1593 -0.1954 -1.0694
43533SOL     OW34129   5.832   6.118   4.024 -0.1104 -0.0100 -0.9692
43533SOL    HW134130   5.923   6.140   4.046 -0.1049  0.3820 -1.3684
43533SOL    HW234131   5.784   6.200   4.035 -0.3803 -0.1693 -0.9566
43534SOL     OW34132  10.192   9.888   2.643 -0.0054 -0.3219  0.9829
43534SOL    HW134133  10.153   9.815   2.692 -2.9660 -0.0665 -0.8031
43534SOL    HW234134  10.123   9.954   2.639  0.2409 -0.1009 -2.9729
43535SOL     OW34135  10.141   2.205   9.033  0.1660 -0.0766 -0.0497
43535SOL    HW134136  10.211   2.180   8.973  0.7734 -1.5415  1.1786
43535SOL    HW234137  10.092   2.123   9.047  1.1540 -0.2946  2.8029
43536SOL     OW34138   6.373   6.460   3.003  0.5172 -0.0181 -0.0763
43536SOL    HW134139   6.326   6.392   2.955 -1.7878  1.9069 -0.7505
43536SOL    HW234140   6.334   6.542   2.973  2.6366  1.5922  1.2544
43537SOL     OW34141   1.328   5.309   9.349 -0.0611  0.3339  0.4007
43537SOL    HW134142   1.265   5.360   9.298 -0.0694 -0.4089 -0.3609
43537SOL    HW234143   1.386   5.271   9.283  2.0854  2.1367  1.1330
43538SOL     OW34144   6.298   1.037   6.472  0.5235 -0.1207  0.3846
43538SOL    HW134145   6.284   1.129   6.494  1.9096  0.0137  0.7810
43538SOL    HW234146   6.375   1.037   6.415  1.1884 -1.1023  1.2329
43539SOL     OW34147   1.612   2.214   1.200  0.0133 -0.1183  0.8292
43539SOL    HW134148   1.551   2.161   1.252  0.1226  0.3613  1.4571
43539SOL    HW234149   1.696   2.205   1.244  0.8975 -2.2865 -1.0710
43540SOL     OW34150   6.282   9.646   8.999  0.0526  0.7344 -0.5126
43540SOL    HW134151   6.367   9.640   8.956  0.7986  2.9785  0.4572
43540SOL    HW234152   6.220   9.664   8.928  0.4582 -0.2772 -1.1473
43541SOL     OW34153   5.749   9.483   6.224 -1.3124 -0.4061 -0.1727
43541SOL    HW134154   5.689   9.548   6.189  0.2799  1.4681  0.3656
43541SOL    HW234155   5.795   9.449   6.148  1.0278  2.5054 -0.2481
43542SOL     OW34156   4.030   6.835   7.847 -0.6619  0.4678 -0.2592
43542SOL    HW134157   3.963   6.776   7.812 -1.4776  1.8150 -1.0644
43542SOL    HW234158   4.032   6.816   7.941 -0.5000 -1.1955 -0.5754
43543SOL     OW34159   9.846   5.423   7.610 -0.1497 -0.0752 -0.0359
43543SOL    HW134160   9.762   5.418   7.563 -0.9476 -0.0823  1.3297
43543SOL    HW234161   9.852   5.340   7.656  0.8884 -0.2885 -0.5329
43544SOL     OW34162   2.038   1.671   2.084  0.1487 -0.1608  0.5163
43544SOL    HW134163   2.065   1.748   2.134 -2.1527  0.0531  1.5241
43544SOL    HW234164   1.952   1.693   2.048 -1.3576 -2.7679  2.1812
43545SOL     OW34165   1.933  10.926   8.369  0.1327 -0.4699 -0.2038
43545SOL    HW134166   1.918  10.884   8.284 -0.5280 -0.6672 -0.0005
43545SOL    HW234167   1.856  10.982   8.382 -0.4555 -1.4489  0.8499
43546SOL     OW34168   3.252   1.701   1.377  0.2986 -0.2187 -0.9618
43546SOL    HW134169   3.282   1.688   1.467 -0.7272  2.9853 -0.0196
43546SOL    HW234170   3.191   1.629   1.362  0.6814 -0.9733  0.7730
43547SOL     OW34171   1.893   5.876   3.856 -0.4017  0.8854 -0.3565
43547SOL    HW134172   1.985   5.895   3.839  0.4407 -0.8426  1.8345
43547SOL    HW234173   1.850   5.961   3.851  1.7028  2.0996  0.7337
43548SOL     OW34174   5.357   3.009   8.263 -0.1701 -0.1930 -0.3175
43548SOL    HW134175   5.275   3.057   8.255  0.7640  1.7091  0.7804
43548SOL    HW234176   5.336   2.933   8.316 -0.9566  1.0220  1.1698
43549SOL     OW34177   7.812   0.201   2.196  0.2438 -0.0008  0.6942
43549SOL    HW134178   7.747   0.234   2.134  0.2705 -1.4352 -0.1476
43549SOL    HW234179   7.802   0.256   2.273  0.6551  2.2523 -0.7881
43550SOL     OW34180   3.605   1.805   4.447 -0.3023  0.0117 -1.1168
43550SOL    HW134181   3.558   1.888   4.460  0.2314  0.4702 -2.0293
43550SOL    HW234182   3.569   1.770   4.366 -0.9016 -0.9350 -0.4623
43551SOL     OW34183   8.801   7.067   4.011  0.1687 -0.4086 -0.5411
43551SOL    HW134184   8.783   7.154   4.045  2.0318  0.2547 -1.1377
43551SOL    HW234185   8.763   7.067   3.923  0.1130 -0.2250 -0.5179
43552SOL     OW34186  10.229   6.263   4.042 -0.4799 -0.4856 -0.4112
43552SOL    HW134187  10.251   6.325   3.972 -2.0850  2.3706  1.4012
43552SOL    HW234188  10.137   6.242   4.027 -0.8486  0.1863  0.7877
43553SOL     OW34189  10.437   6.301   7.767  0.6270  0.4780 -0.0605
43553SOL    HW134190  10.434   6.205   7.758  1.0907  0.5373 -1.0382
43553SOL    HW234191  10.347   6.326   7.785  0.6723 -0.2218  1.2673
43554SOL     OW34192   3.672   0.632   0.384 -0.2585 -0.0533  0.1327
43554SOL    HW134193   3.736   0.607   0.450  1.0907 -0.5200 -1.3005
43554SOL    HW234194   3.619   0.554   0.371 -0.9973  0.2603  1.1511
43555SOL     OW34195   5.641   8.041   2.789 -0.5610 -0.0204 -0.4833
43555SOL    HW134196   5.606   8.056   2.702 -0.8678  0.3933 -0.2931
43555SOL    HW234197   5.671   7.950   2.788 -1.1705 -0.2220 -0.8071
43556SOL     OW34198   4.221   9.255   7.022  0.3018  0.5544  0.3876
43556SOL    HW134199   4.259   9.168   7.032 -1.8364 -0.5204 -0.0856
43556SOL    HW234200   4.161   9.263   7.096  0.9075  1.9105  0.7690
43557SOL     OW34201   2.548   3.565  10.331 -0.3987 -0.4409  0.3443
43557SOL    HW134202   2.572   3.532  10.417 -0.0030  0.7618  0.7061
43557SOL    HW234203   2.621   3.539  10.274  1.0303  1.6952  1.0872
43558SOL     OW34204   8.290   7.413   5.962  0.1045  0.6497  0.2111
43558SOL    HW134205   8.290   7.345   5.895 -0.8313  1.4690 -0.6684
43558SOL    HW234206   8.377   7.452   5.957  0.2260  0.3321 -0.1426
43559SOL     OW34207   4.936   5.090  10.360  0.4656  0.5349  0.2983
43559SOL    HW134208   4.922   5.105  10.267 -0.7985 -0.3369  0.3278
43559SOL    HW234209   5.017   5.137  10.380  0.7217  0.7805 -1.2184
43560SOL     OW34210   8.301   3.491   5.306  0.7594  0.1697  0.8293
43560SOL    HW134211   8.253   3.437   5.369  0.6450  0.5702  1.0890
43560SOL    HW234212   8.388   3.501   5.344  0.4522  1.0769  1.3287
43561SOL     OW34213   9.020   4.316   1.638  0.3969 -0.6323  0.3402
43561SOL    HW134214   8.949   4.252   1.644  0.7636 -1.0047  0.8439
43561SOL    HW234215   8.976   4.399   1.623 -0.1492 -0.8578  0.6550
43562SOL     OW34216   2.545   4.678   4.106  0.2865 -0.1328  0.1322
43562SOL    HW134217   2.533   4.647   4.196  1.1004 -2.0891 -0.3676
43562SOL    HW234218   2.461   4.659   4.063  0.6482 -1.4251 -0.0691
43563SOL     OW34219  10.163   9.130   4.276 -0.2725 -0.1889  0.3960
43563SOL    HW134220  10.115   9.176   4.345  0.4537 -1.4100  1.7818
43563SOL    HW234221  10.096   9.077   4.233 -1.0025  1.6597 -0.8445
43564SOL     OW34222   9.886   5.521   6.387 -0.3443  0.6641 -0.0793
43564SOL    HW134223   9.926   5.606   6.402  0.1662 -0.0173  3.0956
43564SOL    HW234224   9.795   5.541   6.362  0.3033  2.0936 -1.4481
43565SOL     OW34225   2.805   0.127   3.023 -0.2389  0.3069 -0.0697
43565SOL    HW134226   2.844   0.063   2.964 -0.1164 -0.2271  0.5812
43565SOL    HW234227   2.876   0.153   3.080 -1.0518 -1.6189  1.9656
43566SOL     OW34228   3.780   5.039  10.048 -0.3505  0.5289  0.2250
43566SOL    HW134229   3.839   5.054  10.122 -1.9764  1.6509  1.3550
43566SOL    HW234230   3.694   5.028  10.088 -1.2340  0.8892 -1.4899
43567SOL     OW34231   6.557   4.210   6.584  0.1624 -0.7079 -0.2599
43567SOL    HW134232   6.587   4.291   6.543  0.9603 -0.2678  1.1046
43567SOL    HW234233   6.598   4.141   6.533  3.9182 -0.1506  1.5798
43568SOL     OW34234   4.889   9.010   9.251 -0.4171  0.3734  0.4281
43568SOL    HW134235   4.903   8.929   9.202 -2.4413  0.1899  0.0426
43568SOL    HW234236   4.931   9.078   9.198  0.7689 -0.3242  0.4454
43569SOL     OW34237   6.859   9.406   2.528 -0.2229  0.1403 -0.2055
43569SOL    HW134238   6.893   9.440   2.445  0.0613  0.2075 -0.0634
43569SOL    HW234239   6.780   9.458   2.545  0.1182  0.6238 -0.0714
43570SOL     OW34240   1.144   1.966   1.492  0.4041 -0.3908  0.2766
43570SOL    HW134241   1.194   1.962   1.574 -0.1665  3.0622  0.9421
43570SOL    HW234242   1.155   1.879   1.453  2.0345 -1.6475  3.2053
43571SOL     OW34243   1.024   7.753   4.719  0.2044 -0.5715 -0.0968
43571SOL    HW134244   1.063   7.784   4.637  0.3690 -0.0288  0.1775
43571SOL    HW234245   0.953   7.695   4.691 -0.8103  0.8694 -0.6803
43572SOL     OW34246   7.019   1.661   2.196  0.1719 -0.2191 -0.2935
43572SOL    HW134247   7.075   1.633   2.123  1.0049  1.3884 -0.3121
43572SOL    HW234248   7.012   1.756   2.186 -1.4462 -0.2174  0.5206
43573SOL     OW34249   8.569   6.893   5.639  0.2291  0.3456  0.1338
43573SOL    HW134250   8.643   6.841   5.668 -0.1169 -0.4092 -0.3017
43573SOL    HW234251   8.605   6.954   5.575  0.5662  0.3613  0.3397
43574SOL     OW34252   1.242   1.475   1.698 -0.1610 -0.0091  0.2546
43574SOL    HW134253   1.163   1.425   1.676  1.3809 -2.9440  0.9229
43574SOL    HW234254   1.238   1.484   1.793 -0.0359  0.4784  0.2138
43575SOL     OW34255   0.830   7.880   1.725 -0.1349 -0.1338 -0.0062
43575SOL    HW134256   0.902   7.826   1.693 -0.6896  0.1255 -1.8161
43575SOL    HW234257   0.807   7.936   1.650 -0.7596  1.3448  1.2281
43576SOL     OW34258   5.992   9.418   3.931  0.0015  0.7171 -0.3987
43576SOL    HW134259   6.013   9.358   3.860 -0.7406 -1.6799  1.3021
43576SOL    HW234260   6.037   9.383   4.008 -0.8224  2.0651  0.7713
43577SOL     OW34261   6.021  10.742   6.974  0.3261  0.3041 -0.4858
43577SOL    HW134262   6.089  10.810   6.971  2.4309 -1.6533 -0.2412
43577SOL    HW234263   5.982  10.752   7.061  2.0737 -0.0639  0.3990
43578SOL     OW34264  10.802   8.456   0.399 -0.4281 -0.2587  0.2226
43578SOL    HW134265  10.886   8.485   0.434 -1.7880  1.1690  2.5262
43578SOL    HW234266  10.788   8.370   0.437 -0.1124 -0.4369 -0.0519
43579SOL     OW34267   0.133  11.111   2.062  0.1353  0.4681 -0.0305
43579SOL    HW134268   0.106  11.127   2.153 -0.9045  1.2841 -0.4662
43579SOL    HW234269   0.197  11.180   2.044 -0.1547  0.7116 -0.1278
43580SOL     OW34270   4.589   0.733   6.676  0.1951  0.4939 -0.3936
43580SOL    HW134271   4.559   0.823   6.686 -0.4966 -0.0049  3.7597
43580SOL    HW234272   4.683   0.736   6.693  0.0657  0.3755  0.3611
43581SOL     OW34273  10.768   1.443   4.469  0.3567  0.2995  0.0710
43581SOL    HW134274  10.696   1.388   4.500 -0.4830  1.1844 -0.2566
43581SOL    HW234275  10.818   1.386   4.411  0.2414 -0.4875  0.7198
43582SOL     OW34276   5.268   0.177   1.846 -0.3397  0.6110 -0.0722
43582SOL    HW134277   5.229   0.125   1.775 -0.8963 -0.1530  0.7702
43582SOL    HW234278   5.296   0.112   1.910  1.6520  1.1929 -0.2954
43583SOL     OW34279   4.220   8.311   7.743 -0.0798  0.2633  0.6687
43583SOL    HW134280   4.186   8.269   7.822 -4.1295 -2.5352 -2.1970
43583SOL    HW234281   4.153   8.376   7.720  2.4851  3.2206  0.9461
43584SOL     OW34282   9.146  10.582   5.776  0.5044 -0.0454 -0.0299
43584SOL    HW134283   9.073  10.615   5.724  1.3811  1.0413 -0.6364
43584SOL    HW234284   9.126  10.607   5.866  0.1865  0.3473 -0.2099
43585SOL     OW34285   7.920  10.072   5.016 -0.0637 -0.2838 -0.5384
43585SOL    HW134286   7.853  10.024   5.063  0.1700 -0.9650 -0.8787
43585SOL    HW234287   7.872  10.126   4.953 -0.4138  1.0945  0.8467
43586SOL     OW34288   0.612   0.071   2.290 -0.0588 -0.3865  0.5529
43586SOL    HW134289   0.532   0.020   2.292 -0.2788 -0.0609  0.2592
43586SOL    HW234290   0.619   0.100   2.199  0.2844 -0.2449  0.6228
43587SOL     OW34291   2.914   4.289   0.449 -0.0397 -0.1442  0.4650
43587SOL    HW134292   2.948   4.344   0.380 -0.9546  1.0327  0.9165
43587SOL    HW234293   2.937   4.334   0.530 -1.8247  0.2573  0.8089
43588SOL     OW34294  10.291   7.484   2.874 -0.1419  0.3836 -0.1055
43588SOL    HW134295  10.367   7.485   2.933 -0.8402 -0.4677  0.8417
43588SOL    HW234296  10.215   7.477   2.932 -0.8562 -0.4065 -1.0945
43589SOL     OW34297   5.730   1.779   2.421  0.2335 -0.7565  0.3714
43589SOL    HW134298   5.735   1.819   2.334  1.2228 -3.3697 -0.8836
43589SOL    HW234299   5.667   1.834   2.469  0.2153  1.2027 -1.7157
43590SOL     OW34300   5.581   8.739   0.144  0.2404 -0.0357 -0.0788
43590SOL    HW134301   5.620   8.826   0.149  1.8705 -0.7013 -0.3464
43590SOL    HW234302   5.568   8.724   0.050 -0.6200  0.1591  0.0080
43591SOL     OW34303   4.552   2.682   8.631 -0.4763 -0.1679 -0.5948
43591SOL    HW134304   4.533   2.727   8.548  1.4536  0.5858 -0.6844
43591SOL    HW234305   4.638   2.641   8.616  0.4532  0.9447  1.3786
43592SOL     OW34306  10.067   2.054   4.220  0.2746  0.0362  0.0543
43592SOL    HW134307  10.079   1.985   4.285 -1.1938  0.7419  1.1345
43592SOL    HW234308  10.114   2.129   4.255 -1.3609  0.7313  0.8882
43593SOL     OW34309   7.872   6.758   0.922 -0.1094 -0.1687  0.0367
43593SOL    HW134310   7.856   6.742   0.829  1.1050  0.1024 -0.2395
43593SOL    HW234311   7.790   6.735   0.965 -0.9443  0.4087 -1.1810
43594SOL     OW34312   2.714   4.457   8.347  0.2093  0.1143  0.0813
43594SOL    HW134313   2.778   4.523   8.320  0.1023  0.5282  0.8031
43594SOL    HW234314   2.710   4.397   8.273  0.3857  0.8567 -0.5562
43595SOL     OW34315   4.919   2.477   2.141  0.0220  0.2072  0.1633
43595SOL    HW134316   4.860   2.405   2.164  0.0263  0.2147  0.1980
43595SOL    HW234317   4.994   2.467   2.200 -1.3279  2.0576  2.3708
43596SOL     OW34318   2.447   6.019   2.465  0.2365 -0.4810 -0.1257
43596SOL    HW134319   2.506   6.009   2.540 -0.0929  2.2669  0.6219
43596SOL    HW234320   2.371   5.965   2.486  0.8200 -0.9654  0.7947
43597SOL     OW34321   1.063   6.344   9.452 -0.1779 -0.1832 -0.1951
43597SOL    HW134322   1.154   6.319   9.439 -0.0422  0.0532  0.2601
43597SOL    HW234323   1.060   6.437   9.431  0.0674  0.2280  1.4573
43598SOL     OW34324   7.690   1.184   8.664 -0.5545  0.2153 -0.4097
43598SOL    HW134325   7.690   1.146   8.576  1.3913  0.3283 -0.5030
43598SOL    HW234326   7.690   1.108   8.722  2.1485 -0.0237 -0.5874
43599SOL     OW34327   8.246   8.549   7.151  0.2132 -0.4573  0.2582
43599SOL    HW134328   8.219   8.607   7.080 -2.5391 -0.7982  0.9267
43599SOL    HW234329   8.264   8.465   7.107  0.7789 -0.0554 -0.2893
43600SOL     OW34330   4.630   8.851   4.315 -0.0678 -0.4558 -0.3423
43600SOL    HW134331   4.624   8.916   4.245  0.1144 -0.9238 -0.7974
43600SOL    HW234332   4.565   8.879   4.380  0.0277  0.1927 -0.5197
43601SOL     OW34333   0.357   4.633   0.336  0.0462  0.0076  0.1071
43601SOL    HW134334   0.274   4.674   0.359  0.2114 -1.0080  2.8917
43601SOL    HW234335   0.423   4.683   0.384  0.6715 -1.1426  0.4878
43602SOL     OW34336  10.348   2.621   8.495 -0.0562  0.3231  0.7075
43602SOL    HW134337  10.292   2.599   8.420  0.7229  2.8417 -0.7110
43602SOL    HW234338  10.357   2.538   8.543  1.8231 -2.3034 -3.5804
43603SOL     OW34339   2.456   3.659   8.094 -0.1400 -0.0418 -0.0783
43603SOL    HW134340   2.427   3.744   8.061  0.5177  0.9409  1.7637
43603SOL    HW234341   2.388   3.633   8.156  1.3565  0.9018  2.0711
43604SOL     OW34342   5.354   6.827  10.441  0.0098 -0.1660  0.0973
43604SOL    HW134343   5.301   6.869  10.373  1.3267  2.7271  0.7311
43604SOL    HW234344   5.299   6.833  10.520  0.3036  0.7193  0.2493
43605SOL     OW34345   7.872  10.270   0.742  0.1264  0.8949  0.4839
43605SOL    HW134346   7.782  10.274   0.772 -0.4864  2.7843 -1.3711
43605SOL    HW234347   7.865  10.261   0.647  1.9223 -0.1364  0.3960
43606SOL     OW34348   4.012   4.069   4.118  0.1757  0.3026  0.0888
43606SOL    HW134349   4.099   4.030   4.107 -0.3041 -0.1902 -2.5955
43606SOL    HW234350   4.025   4.142   4.178  2.3664  0.0100  0.0277
43607SOL     OW34351   3.807   4.465   3.945 -0.3755 -0.0028 -0.4066
43607SOL    HW134352   3.822   4.419   4.027  0.7446 -0.3642 -0.7950
43607SOL    HW234353   3.747   4.409   3.896 -0.6561 -0.0274 -0.0343
43608SOL     OW34354   4.660   1.947   9.774 -0.1108 -0.3777  0.0659
43608SOL    HW134355   4.664   1.994   9.690 -2.6775  0.6301  0.4195
43608SOL    HW234356   4.737   1.977   9.821 -0.4672  1.8266 -0.6100
43609SOL     OW34357   9.094   3.538   3.762  0.0712 -0.2040 -0.2545
43609SOL    HW134358   9.113   3.450   3.731 -0.6238 -0.5967  0.4120
43609SOL    HW234359   9.007   3.532   3.802 -0.3411  0.9693 -0.9260
43610SOL     OW34360   8.084   0.052   0.038  0.0371  0.1386 -0.1780
43610SOL    HW134361   8.177   0.030   0.030  0.2026  1.0529 -0.9562
43610SOL    HW234362   8.062   0.033   0.129  0.5982 -1.5068 -0.3476
43611SOL     OW34363   7.527   4.321   4.019  0.1321  0.4925  0.3606
43611SOL    HW134364   7.575   4.297   3.940  0.7456  1.6754  0.3567
43611SOL    HW234365   7.594   4.354   4.079 -0.5857  1.5404  0.6028
43612SOL     OW34366   6.247   6.626   0.275 -0.4425 -0.3200  0.3275
43612SOL    HW134367   6.247   6.684   0.199 -0.0179 -0.6712  0.0509
43612SOL    HW234368   6.336   6.632   0.310 -1.0161  0.9468  1.6807
43613SOL     OW34369  10.816   7.197   3.703  0.4679  0.1987  0.6970
43613SOL    HW134370  10.757   7.155   3.641 -0.2518  1.0481  0.7832
43613SOL    HW234371  10.766   7.203   3.784  0.6767  0.9144  0.7808
43614SOL     OW34372   0.064   0.847   3.331  0.5000  0.0266 -0.0392
43614SOL    HW134373   0.093   0.792   3.404  1.1231 -0.8796 -0.9367
43614SOL    HW234374   0.140   0.902   3.312  0.0037  0.9862  0.6111
43615SOL     OW34375   1.028   0.808   0.995 -0.1974  0.5902 -0.0570
43615SOL    HW134376   0.994   0.803   1.085  2.2356  1.6358  1.0300
43615SOL    HW234377   0.975   0.876   0.953 -2.9688 -1.5643 -0.2813
43616SOL     OW34378   2.173   3.181   1.255 -0.0042 -0.4470 -0.4515
43616SOL    HW134379   2.249   3.189   1.197  1.1178 -0.2613  0.9794
43616SOL    HW234380   2.098   3.187   1.197  1.0619  0.0774 -1.8399
43617SOL     OW34381   8.323   8.722   0.420 -0.2572  0.3013 -0.1106
43617SOL    HW134382   8.335   8.629   0.399  0.0907 -0.1575  1.8965
43617SOL    HW234383   8.237   8.727   0.460 -0.6441  1.0194 -1.0039
43618SOL     OW34384   8.733   4.313   7.470  0.2953 -0.1268  0.1088
43618SOL    HW134385   8.658   4.323   7.528  0.4600 -0.1353  0.3270
43618SOL    HW234386   8.786   4.245   7.511 -0.2320 -1.0703 -0.7520
43619SOL     OW34387   1.186   6.578   4.588  0.6086 -0.1913  0.0789
43619SOL    HW134388   1.236   6.588   4.669 -0.3734 -0.5493  0.7438
43619SOL    HW234389   1.230   6.637   4.525  1.7987 -0.4270  0.6533
43620SOL     OW34390   3.822   9.675   3.674  0.2675 -0.1328  0.2272
43620SOL    HW134391   3.797   9.651   3.585 -1.8948  2.3206  0.0519
43620SOL    HW234392   3.917   9.676   3.673  0.3018 -1.0313 -1.7861
43621SOL     OW34393   8.674  10.580  10.228  0.0614  0.4262  0.0721
43621SOL    HW134394   8.755  10.566  10.180 -1.1227 -0.6690 -1.7627
43621SOL    HW234395   8.691  10.548  10.316  1.4227 -0.3812 -0.4671
43622SOL     OW34396   1.522   7.699   2.278  0.3578 -0.0219  0.4846
43622SOL    HW134397   1.611   7.665   2.291  1.0171  1.9334  1.6503
43622SOL    HW234398   1.470   7.656   2.345  0.3982 -1.1532 -0.1788
43623SOL     OW34399   9.191  10.421   3.584 -0.3822 -0.0691  0.2870
43623SOL    HW134400   9.122  10.361   3.613  1.3972 -2.2576  0.2589
43623SOL    HW234401   9.244  10.437   3.662  1.5362 -1.9699 -0.5208
43624SOL     OW34402   8.210   5.394   9.069  0.6453  0.0741  0.5739
43624SOL    HW134403   8.184   5.316   9.118  1.4203 -0.3149  0.3685
43624SOL    HW234404   8.148   5.398   8.996  2.1185 -1.7927 -0.8674
43625SOL     OW34405   3.895   0.040   9.313 -0.0095 -0.1225  0.1659
43625SOL    HW134406   3.989   0.043   9.329  0.4315 -0.7767 -2.0280
43625SOL    HW234407   3.885   0.064   9.221 -2.1304  1.2114  0.6609
43626SOL     OW34408   9.594   9.669   9.595 -0.1166 -0.2184  0.7161
43626SOL    HW134409   9.561   9.692   9.508  0.8337  0.5923  0.5424
43626SOL    HW234410   9.543   9.724   9.654 -1.4662 -1.4943  0.7928
43627SOL     OW34411   0.796   8.564  10.118 -0.2498  0.6760  0.2367
43627SOL    HW134412   0.781   8.561  10.024  1.0318  1.3809 -0.0033
43627SOL    HW234413   0.797   8.472  10.145  1.5931  0.3322 -0.8257
43628SOL     OW34414   8.223  10.623  10.673 -0.1047  0.1221  0.0773
43628SOL    HW134415   8.158  10.602  10.605  0.6073 -0.1229 -0.5383
43628SOL    HW234416   8.207  10.558  10.741 -0.9978  0.5278  0.2762
43629SOL     OW34417  10.926  10.425   5.958 -0.3335 -0.1813 -0.0102
43629SOL    HW134418  10.914  10.334   5.929 -0.6333  0.0710 -0.6951
43629SOL    HW234419  10.869  10.476   5.901 -2.2741  0.1734  2.0731
43630SOL     OW34420   4.808   4.155   9.294  0.1130 -0.6934 -0.3829
43630SOL    HW134421   4.845   4.071   9.268  2.0503  0.1403 -0.5426
43630SOL    HW234422   4.850   4.218   9.235 -1.7848  0.3380 -0.7085
43631SOL     OW34423   7.577   5.566   4.448  0.7064 -0.4419  0.0257
43631SOL    HW134424   7.582   5.503   4.520  0.5879  2.4699  2.8031
43631SOL    HW234425   7.656   5.620   4.458  0.1036  0.7529 -1.3203
43632SOL     OW34426   6.968   5.060   2.368  0.0632  0.0940  0.1570
43632SOL    HW134427   6.977   5.024   2.456  0.1257 -0.0472  0.0925
43632SOL    HW234428   6.909   5.000   2.323 -1.5199  1.1937  0.6750
43633SOL     OW34429   0.823   2.210   8.678  0.1328  0.3652 -0.3167
43633SOL    HW134430   0.813   2.120   8.709 -0.4692  0.1321 -1.1595
43633SOL    HW234431   0.757   2.220   8.610 -0.6998  1.8568  0.6318
43634SOL     OW34432   0.978   9.424   1.576  0.2610 -0.3406 -0.3150
43634SOL    HW134433   1.058   9.472   1.595 -0.1176 -0.7332  2.9089
43634SOL    HW234434   0.918   9.489   1.539  0.3262  1.3798  2.3493
43635SOL     OW34435   7.297   9.914   5.832  0.6225  0.0329 -0.3072
43635SOL    HW134436   7.350   9.966   5.771 -0.3886  0.5947 -0.7314
43635SOL    HW234437   7.311   9.824   5.803  1.2881  0.1761 -0.4573
43636SOL     OW34438   5.166   9.183   3.470 -0.2094 -0.5076  0.4998
43636SOL    HW134439   5.126   9.130   3.538  1.0370 -0.6580  1.1394
43636SOL    HW234440   5.214   9.121   3.415 -0.2215 -0.2504  0.1885
43637SOL     OW34441   6.089   4.990   0.458 -0.0103  0.2186  0.0872
43637SOL    HW134442   6.182   4.995   0.436  0.3437 -2.6038  0.4729
43637SOL    HW234443   6.088   4.989   0.554 -0.4165  0.1069  0.0812
43638SOL     OW34444   1.334  10.477   7.504  0.2035  0.0242 -0.2475
43638SOL    HW134445   1.314  10.566   7.535 -0.6983  0.2471 -1.4050
43638SOL    HW234446   1.409  10.488   7.445 -0.6316  0.2174 -1.3089
43639SOL     OW34447   1.164   1.629   1.450  0.6554 -0.7058  0.4319
43639SOL    HW134448   1.208   1.577   1.517 -0.0852  0.4643  1.8702
43639SOL    HW234449   1.079   1.588   1.439 -0.2154  0.5455  2.0956
43640SOL     OW34450   4.655   3.298   0.080 -0.2966  0.9391  0.1212
43640SOL    HW134451   4.670   3.350   0.159  0.7499  2.1450 -0.8310
43640SOL    HW234452   4.712   3.222   0.091 -1.7749 -0.0500  1.4837
43641SOL     OW34453   0.290   0.966   5.271 -0.3878  0.4453  0.8129
43641SOL    HW134454   0.212   0.978   5.324 -0.1725 -0.5445  1.3816
43641SOL    HW234455   0.267   0.896   5.210  0.3784 -0.6163  1.6978
43642SOL     OW34456   7.411   8.065   1.477 -0.4842 -0.2362  0.4267
43642SOL    HW134457   7.331   8.102   1.514  0.2985  0.6734  1.2732
43642SOL    HW234458   7.444   8.134   1.419 -0.5578 -0.7880 -0.2737
43643SOL     OW34459   3.115   6.592   7.954  0.6092  0.5369  0.2948
43643SOL    HW134460   3.063   6.608   7.876 -0.8250  2.2029  1.5243
43643SOL    HW234461   3.167   6.514   7.933 -0.9915 -0.0646 -1.6735
43644SOL     OW34462   1.671   7.897   8.572 -0.0725 -0.0118  0.7647
43644SOL    HW134463   1.663   7.844   8.493  0.5044 -0.8201  1.2374
43644SOL    HW234464   1.611   7.857   8.634  1.9317 -1.5308  1.8542
43645SOL     OW34465   1.954   2.610   0.901 -1.0521 -0.3556 -0.5253
43645SOL    HW134466   2.015   2.553   0.853 -1.9002  0.1487 -2.2873
43645SOL    HW234467   1.919   2.555   0.971  0.6747 -0.9391 -0.0739
43646SOL     OW34468   6.849   5.902   5.413  0.2175  0.5314 -0.8135
43646SOL    HW134469   6.783   5.845   5.453  0.9613  0.0746 -0.2052
43646SOL    HW234470   6.911   5.841   5.373  0.9015  0.9044 -0.3457
43647SOL     OW34471   1.212   5.079   0.839 -0.0870 -0.3597  0.0858
43647SOL    HW134472   1.123   5.111   0.834  0.6423  1.6778 -1.2950
43647SOL    HW234473   1.244   5.084   0.748  0.6718 -3.4335  0.0766
43648SOL     OW34474   9.447   4.304   1.050  0.4342  0.4158 -0.2395
43648SOL    HW134475   9.359   4.286   1.018 -0.6936  1.1379  2.2639
43648SOL    HW234476   9.455   4.400   1.045  0.7328  0.4256  0.3922
43649SOL     OW34477   5.824   0.415  10.626  0.4214  0.1881  0.4251
43649SOL    HW134478   5.777   0.418  10.543  1.3239  0.6664 -0.0847
43649SOL    HW234479   5.916   0.427  10.602  0.8627 -1.0977  1.3573
43650SOL     OW34480   7.406   9.747   3.485  0.6239  0.2863  0.4695
43650SOL    HW134481   7.453   9.791   3.556  1.0868 -0.1726  0.4554
43650SOL    HW234482   7.356   9.678   3.530 -0.2127  0.9086  0.5104
43651SOL     OW34483   1.925   7.679   0.070 -0.0048  0.3174  0.0508
43651SOL    HW134484   2.004   7.722   0.102  0.7299 -1.0152  0.0551
43651SOL    HW234485   1.908   7.721  -0.015 -0.7844  2.3901  1.1483
43652SOL     OW34486   4.431   6.824   1.237 -0.4781 -0.1939  0.2433
43652SOL    HW134487   4.443   6.794   1.327 -1.0985 -0.9705  0.0691
43652SOL    HW234488   4.389   6.751   1.192  1.0462 -0.3424 -1.0246
43653SOL     OW34489   4.099   9.500   1.159 -0.2139  0.2438 -0.4787
43653SOL    HW134490   4.077   9.412   1.191 -0.6385  0.0320 -1.3281
43653SOL    HW234491   4.153   9.484   1.081 -0.0907  0.7416 -0.4962
43654SOL     OW34492   2.273  10.115   5.720  0.2107 -0.1634  0.1120
43654SOL    HW134493   2.291  10.058   5.794  1.3242 -0.4454 -0.3432
43654SOL    HW234494   2.208  10.178   5.752 -0.7000 -1.3999  0.7466
43655SOL     OW34495   9.587   8.879   1.737  0.0658  0.3552  0.6018
43655SOL    HW134496   9.581   8.970   1.766  0.3517  0.9041 -0.9700
43655SOL    HW234497   9.556   8.881   1.647 -0.1743 -1.1645  0.6295
43656SOL     OW34498   7.581   8.389   7.690  0.2338 -0.3701  0.0037
43656SOL    HW134499   7.578   8.348   7.604 -0.8423 -2.7663  1.0798
43656SOL    HW234500   7.664   8.360   7.728 -1.4244 -3.5597  1.5633
43657SOL     OW34501   2.157   3.744   1.919 -0.6107  0.2565 -0.2156
43657SOL    HW134502   2.208   3.694   1.981  1.0592  0.6635 -1.1854
43657SOL    HW234503   2.209   3.823   1.903 -2.7357  1.9262  0.6195
43658SOL     OW34504   3.566   0.782   2.331  0.0394  0.0410 -0.0409
43658SOL    HW134505   3.518   0.862   2.309 -0.2920 -0.1420  0.0160
43658SOL    HW234506   3.499   0.715   2.337  0.4678 -0.5650 -1.6015
43659SOL     OW34507   4.544   8.313   6.084  0.1662 -0.1345 -0.7568
43659SOL    HW134508   4.571   8.362   6.161 -0.5637  1.4103 -1.4307
43659SOL    HW234509   4.449   8.329   6.078 -0.0505 -1.4414 -1.1535
43660SOL     OW34510   2.616   1.726   6.306 -0.0906  0.7781 -0.4451
43660SOL    HW134511   2.528   1.699   6.281 -0.2796  0.1976  0.7745
43660SOL    HW234512   2.602   1.794   6.372  0.3497  0.3578  0.0952
43661SOL     OW34513   2.097   6.010   5.324  0.1623  0.2677  0.8784
43661SOL    HW134514   2.116   6.102   5.308 -1.1072  0.3810 -0.0608
43661SOL    HW234515   2.013   6.010   5.370  1.0421 -0.3487  2.5687
43662SOL     OW34516   0.535   6.510   7.401 -0.1496  0.0246  0.2792
43662SOL    HW134517   0.559   6.582   7.343 -0.6233 -0.5097 -0.6001
43662SOL    HW234518   0.499   6.553   7.479  1.0122  0.7582  0.4279
43663SOL     OW34519   5.093  10.872   8.703 -0.3710  0.1558 -0.0231
43663SOL    HW134520   5.043  10.833   8.775 -1.8394  0.9901 -0.5530
43663SOL    HW234521   5.049  10.842   8.624  0.1827  0.6476 -0.5224
43664SOL     OW34522   8.680   5.075   3.161  0.2093 -0.6859 -0.7223
43664SOL    HW134523   8.750   5.014   3.135  0.7763 -0.4836  0.2827
43664SOL    HW234524   8.722   5.136   3.221 -0.3369  0.7732 -1.7705
43665SOL     OW34525   3.213   5.055   5.638  0.1812 -0.1650 -0.1146
43665SOL    HW134526   3.269   5.018   5.706 -1.5295 -2.6996  0.0521
43665SOL    HW234527   3.171   4.979   5.597 -1.1953  1.4630 -1.9294
43666SOL     OW34528   1.763   8.670   6.396 -0.0811  0.2355 -0.3831
43666SOL    HW134529   1.794   8.617   6.322  0.5572  0.6239 -0.4057
43666SOL    HW234530   1.691   8.722   6.360 -1.1037 -1.0109 -0.2157
43667SOL     OW34531   4.622   7.592   9.982 -1.1436 -0.0774  0.2000
43667SOL    HW134532   4.554   7.559   9.923  0.3806  0.3449 -1.9051
43667SOL    HW234533   4.597   7.682  10.000 -0.2533  0.6959 -2.1100
43668SOL     OW34534   9.848   1.674   9.827  0.7721 -0.7652 -1.2665
43668SOL    HW134535   9.885   1.614   9.762  0.7812 -1.3523 -0.7320
43668SOL    HW234536   9.800   1.617   9.888  1.4778 -0.3294 -0.2695
43669SOL     OW34537   0.378   6.748   4.506  0.0527  0.6704  0.2932
43669SOL    HW134538   0.450   6.771   4.565  0.2607 -0.8416  0.6620
43669SOL    HW234539   0.420   6.703   4.433 -0.3952  0.9666 -0.1556
43670SOL     OW34540   6.270   3.838   6.028 -1.0344  0.4660 -0.3217
43670SOL    HW134541   6.248   3.930   6.044  0.4272  1.2369 -2.3429
43670SOL    HW234542   6.365   3.834   6.039 -1.2491 -1.2145  1.3719
43671SOL     OW34543   6.349   4.274   2.895 -0.8082  0.0493 -0.2477
43671SOL    HW134544   6.376   4.200   2.840 -0.2741  1.4252 -1.9373
43671SOL    HW234545   6.269   4.307   2.854 -0.3906  1.1269 -0.2382
43672SOL     OW34546   7.600   4.921   6.696  0.7648 -0.4177  0.5915
43672SOL    HW134547   7.615   4.941   6.603  0.8570 -1.0658  0.4601
43672SOL    HW234548   7.666   4.855   6.716  1.1530  0.1701  1.2914
43673SOL     OW34549   1.582   4.644   5.614 -0.1665  0.3899  0.1011
43673SOL    HW134550   1.613   4.647   5.705 -1.5356  2.1678  0.5673
43673SOL    HW234551   1.615   4.560   5.580  3.9858  1.4773  0.8713
43674SOL     OW34552   1.945   2.039   3.431  0.2601 -0.4360 -0.4672
43674SOL    HW134553   1.949   1.987   3.351 -0.2831 -3.0413  1.0661
43674SOL    HW234554   2.013   2.002   3.487 -0.4472  0.2225  0.8679
43675SOL     OW34555   0.175   9.485   2.804  0.1770 -0.2151 -0.0016
43675SOL    HW134556   0.098   9.475   2.747  1.6293  0.8149 -2.2699
43675SOL    HW234557   0.236   9.537   2.753  3.6108 -3.3623  0.4732
43676SOL     OW34558   3.636   8.876   0.114 -0.3609 -0.0532 -0.4260
43676SOL    HW134559   3.669   8.954   0.068  1.4059 -0.1665  0.5649
43676SOL    HW234560   3.624   8.905   0.204 -1.8935 -0.3642 -0.5015
43677SOL     OW34561  10.115  10.585   4.670  0.3001  0.6718 -0.0847
43677SOL    HW134562  10.114  10.522   4.742  0.6423  0.3054 -0.3904
43677SOL    HW234563  10.114  10.671   4.712 -1.0030  0.4738  0.3295
43678SOL     OW34564   3.247  10.604   9.148 -0.0995 -0.3856  0.6469
43678SOL    HW134565   3.330  10.558   9.133  0.6662  0.5971  1.6970
43678SOL    HW234566   3.209  10.614   9.061  0.2280 -2.0151  0.2785
43679SOL     OW34567   1.413   4.968   9.545 -0.0968 -0.5198 -0.0233
43679SOL    HW134568   1.365   5.050   9.532 -0.8957 -1.2185 -1.7691
43679SOL    HW234569   1.347   4.900   9.538  0.5717 -1.3475  1.3653
43680SOL     OW34570  10.971   4.576   0.062  0.3767 -0.0572 -0.1822
43680SOL    HW134571  10.942   4.593   0.152  0.0136 -1.3349 -0.0413
43680SOL    HW234572  10.924   4.497   0.037  0.6837  0.1386 -1.4107
43681SOL     OW34573   3.855   7.237  10.548 -0.2249 -0.3319 -0.1389
43681SOL    HW134574   3.934   7.242  10.494  0.3354 -1.3782  0.5489
43681SOL    HW234575   3.807   7.317  10.527  1.4130  0.7442  0.0266
43682SOL     OW34576   1.919   6.740   5.610  0.3409  0.5347  0.1630
43682SOL    HW134577   1.841   6.686   5.599  0.0936  0.7991  0.5929
43682SOL    HW234578   1.975   6.717   5.536  0.9926 -1.5835  1.1986
43683SOL     OW34579   8.425   3.401   7.519 -0.4011 -0.1576  0.4437
43683SOL    HW134580   8.381   3.397   7.433  2.0310  0.3994 -0.9145
43683SOL    HW234581   8.440   3.310   7.543  0.0584 -0.3095 -0.3803
43684SOL     OW34582   8.770   8.301   0.041  0.1077  0.5413  0.4722
43684SOL    HW134583   8.815   8.382   0.065  2.2493 -0.1872 -0.8769
43684SOL    HW234584   8.744   8.313  -0.050 -0.7412  0.1763  0.6459
43685SOL     OW34585   5.398   3.505   6.323  0.0933  0.9796  0.2808
43685SOL    HW134586   5.432   3.420   6.293 -1.3491  0.2813  0.5658
43685SOL    HW234587   5.468   3.567   6.302 -0.0884  0.2776 -2.8968
43686SOL     OW34588  10.669   9.291   9.437  0.2663 -0.0529  0.0811
43686SOL    HW134589  10.642   9.248   9.518 -2.3105  0.2650 -0.5190
43686SOL    HW234590  10.590   9.292   9.383  1.9304 -0.4070 -2.5378
43687SOL     OW34591   8.849   1.478   7.157 -0.5268  0.1982  0.0153
43687SOL    HW134592   8.783   1.481   7.226  1.0406 -0.3524  1.6071
43687SOL    HW234593   8.897   1.560   7.167  0.8866 -0.6966  0.8306
43688SOL     OW34594   5.772   6.496   6.040  0.2909  0.3013  0.0779
43688SOL    HW134595   5.728   6.509   6.124  1.3188 -2.4164  1.1389
43688SOL    HW234596   5.810   6.582   6.020 -0.2182  1.1005  2.2361
43689SOL     OW34597   9.758   6.388   6.518  0.4667 -0.4008 -0.1808
43689SOL    HW134598   9.817   6.350   6.583  0.7543 -0.0243 -0.2180
43689SOL    HW234599   9.689   6.430   6.569  1.1819  0.6966 -0.0736
43690SOL     OW34600   5.834   6.657   3.792 -0.4618  0.6682  0.5839
43690SOL    HW134601   5.860   6.592   3.727  0.9923  1.0927  0.7043
43690SOL    HW234602   5.753   6.694   3.759 -1.4170 -1.3043  0.5870
43691SOL     OW34603   4.260   8.568   6.436 -0.2504 -0.3512 -0.0154
43691SOL    HW134604   4.330   8.628   6.409  0.4369 -0.3859  1.6099
43691SOL    HW234605   4.179   8.616   6.417  0.2499  0.3377 -0.4476
43692SOL     OW34606   1.736   3.684  10.066 -0.4566 -0.1307 -0.8473
43692SOL    HW134607   1.758   3.613  10.125 -1.0386  0.2431 -0.1656
43692SOL    HW234608   1.813   3.693  10.009  0.4663  0.0568  0.3916
43693SOL     OW34609   8.261   5.248   5.413 -0.2275 -0.0905 -0.4785
43693SOL    HW134610   8.233   5.158   5.395 -2.1332  0.0628  1.4035
43693SOL    HW234611   8.318   5.240   5.490 -0.0146  0.2880 -0.5914
43694SOL     OW34612   1.397   8.606  10.903 -0.6893 -0.9627  0.3416
43694SOL    HW134613   1.460   8.667  10.864 -2.0188  1.6709  1.9692
43694SOL    HW234614   1.325   8.601  10.840 -0.4493 -1.0746  0.0752
43695SOL     OW34615   0.920   7.034  10.693 -0.1800 -0.5895  0.1580
43695SOL    HW134616   0.966   7.071  10.617 -1.4838 -0.6025 -0.6784
43695SOL    HW234617   0.900   7.110  10.748 -2.1136 -0.0661 -1.1481
43696SOL     OW34618   0.601   4.332   2.681  0.0317  0.2186  0.3971
43696SOL    HW134619   0.667   4.401   2.672  0.0291  0.1585 -0.0908
43696SOL    HW234620   0.558   4.350   2.765  0.4247  0.4676  0.5472
43697SOL     OW34621  10.467   7.036   6.381  0.3565  0.0447  0.1565
43697SOL    HW134622  10.551   7.038   6.426  1.4592  1.6604 -1.8269
43697SOL    HW234623  10.402   7.027   6.451  2.1697 -2.5384  1.6628
43698SOL     OW34624   0.865   2.775   0.720  0.0410  0.0661  0.3721
43698SOL    HW134625   0.812   2.841   0.764  0.1749 -0.5830  1.5532
43698SOL    HW234626   0.862   2.699   0.778  1.8570 -0.1494  0.2382
43699SOL     OW34627   5.752   6.515   5.363 -0.3292 -0.4110 -0.4344
43699SOL    HW134628   5.777   6.473   5.280  1.3987  0.0811 -0.2011
43699SOL    HW234629   5.760   6.609   5.346  0.2776 -0.3134  0.3473
43700SOL     OW34630   8.728   8.979   9.182  0.0982 -1.3212 -0.2736
43700SOL    HW134631   8.814   8.942   9.199 -0.1968 -1.2948  1.4484
43700SOL    HW234632   8.745   9.054   9.125  1.2377 -1.1526  0.2608
43701SOL     OW34633   9.040   2.165   5.230  0.4644 -0.4259 -0.4867
43701SOL    HW134634   9.126   2.160   5.271  0.1930  1.4861  0.4374
43701SOL    HW234635   9.051   2.228   5.158  0.0925 -1.0480 -1.1034
43702SOL     OW34636   6.314  10.297   5.524 -0.6248  0.1030 -0.0237
43702SOL    HW134637   6.407  10.273   5.519 -0.5935 -0.0643  1.0795
43702SOL    HW234638   6.303  10.330   5.613 -1.6197  0.1747 -0.1682
43703SOL     OW34639  10.288   6.240   3.303 -0.0760 -0.2441 -0.0631
43703SOL    HW134640  10.372   6.284   3.314 -0.1192 -0.1674 -0.0389
43703SOL    HW234641  10.270   6.200   3.388 -0.0667 -0.2569 -0.0671
43704SOL     OW34642   0.865   7.740   9.003  0.4426  0.3482  0.9351
43704SOL    HW134643   0.873   7.655   8.958 -0.1546  1.1193 -0.7133
43704SOL    HW234644   0.770   7.752   9.012  0.5438  0.5581  1.7424
43705SOL     OW34645   1.973   2.886   7.853  0.4083  0.0668 -0.2663
43705SOL    HW134646   1.976   2.976   7.886  1.3726 -0.2125  0.4756
43705SOL    HW234647   2.064   2.865   7.833  0.5029 -1.3408  1.3444
43706SOL     OW34648  10.749   9.943   4.170  0.4096 -0.6613 -0.0404
43706SOL    HW134649  10.726   9.861   4.214  0.6275  0.4883  2.3717
43706SOL    HW234650  10.695   9.943   4.091 -1.4482 -2.0139  1.1321
43707SOL     OW34651   6.633   4.289   5.956  0.1195  0.1301 -0.5648
43707SOL    HW134652   6.673   4.348   6.020 -0.7972  0.4892 -0.3099
43707SOL    HW234653   6.544   4.276   5.988 -0.9338  1.6745 -2.6462
43708SOL     OW34654  10.632   4.239   3.638  0.1176 -0.3378  0.5930
43708SOL    HW134655  10.659   4.184   3.564 -0.2284 -0.2896  0.4326
43708SOL    HW234656  10.552   4.281   3.609  1.2096  1.5214  0.0853
43709SOL     OW34657   2.958   3.165   8.374  0.3921 -0.2796  0.2233
43709SOL    HW134658   3.032   3.105   8.369  1.7045  1.3635 -1.3390
43709SOL    HW234659   2.896   3.132   8.308  1.1244  0.0815 -0.6591
43710SOL     OW34660   4.320   9.269   2.208 -0.0004  0.1671 -0.1817
43710SOL    HW134661   4.245   9.216   2.180  1.6582 -3.1416  1.0605
43710SOL    HW234662   4.378   9.271   2.131 -0.2917  0.6209 -0.3899
43711SOL     OW34663   6.732   1.728   2.510  0.0200  0.1439  0.0131
43711SOL    HW134664   6.734   1.765   2.422 -0.0176  0.8304  0.2936
43711SOL    HW234665   6.652   1.676   2.512 -0.3743  0.7249 -0.1283
43712SOL     OW34666   2.401   4.090  11.071 -0.0437  0.2507  0.1232
43712SOL    HW134667   2.458   4.146  11.123  0.2020 -0.1683  0.3087
43712SOL    HW234668   2.406   4.127  10.983 -0.6265  1.0887  0.4312
43713SOL     OW34669   1.037   3.031   8.645 -0.2974  0.8797  0.2938
43713SOL    HW134670   0.995   2.973   8.581  0.0894  2.0432 -1.0610
43713SOL    HW234671   1.084   3.095   8.592 -0.5916  2.3466  1.7439
43714SOL     OW34672   8.714   0.477   2.089  0.3308  0.0804 -0.2299
43714SOL    HW134673   8.624   0.505   2.104 -0.3635 -1.1677 -1.8129
43714SOL    HW234674   8.724   0.477   1.994  1.7182 -0.6749 -0.1117
43715SOL     OW34675   7.962   7.221   0.481  0.3774  0.0439 -0.2489
43715SOL    HW134676   7.903   7.189   0.413  0.8411  1.2008 -1.2232
43715SOL    HW234677   7.907   7.230   0.558 -0.2283 -0.9568 -0.5402
43716SOL     OW34678   9.883   2.916   8.183  0.2024  0.2297 -0.0761
43716SOL    HW134679   9.816   2.939   8.248 -1.1181  1.9248 -1.9094
43716SOL    HW234680   9.840   2.850   8.128  0.5118  0.3708 -0.4902
43717SOL     OW34681   5.638  10.649   8.067 -0.4184  0.2951 -0.4764
43717SOL    HW134682   5.676  10.629   7.982 -0.3509 -2.5186  0.1211
43717SOL    HW234683   5.698  10.608   8.130 -3.0438 -2.2243  0.6237
43718SOL     OW34684   6.198   1.106   8.691  0.0406  0.1850  0.4568
43718SOL    HW134685   6.293   1.098   8.702 -0.0349 -1.6647  0.0991
43718SOL    HW234686   6.186   1.193   8.653  1.6821  0.1171 -0.3275
43719SOL     OW34687   9.334   4.639   0.627 -0.4412 -0.3268 -0.3682
43719SOL    HW134688   9.304   4.574   0.691 -1.4674  1.5448  1.1279
43719SOL    HW234689   9.265   4.704   0.623  1.3406  1.6915 -0.3630
43720SOL     OW34690   5.297   8.749   4.380  0.3174 -0.2473 -0.3106
43720SOL    HW134691   5.279   8.829   4.430  0.8686 -0.4608  0.2389
43720SOL    HW234692   5.347   8.694   4.440  1.6527 -0.1991 -1.3487
43721SOL     OW34693   5.125   6.173   2.823 -0.0673  0.1853  0.3544
43721SOL    HW134694   5.206   6.174   2.772 -2.0671 -0.3140 -3.1537
43721SOL    HW234695   5.067   6.114   2.774 -2.3990  0.0776  3.0118
43722SOL     OW34696   8.652  10.281   6.032  0.1497 -0.0436  0.4212
43722SOL    HW134697   8.636  10.285   5.938  1.1876  1.1386  0.2754
43722SOL    HW234698   8.564  10.277   6.071 -0.2720 -1.1402 -0.5984
43723SOL     OW34699   1.952   8.502   0.627  0.0952  0.2553 -0.3384
43723SOL    HW134700   1.874   8.515   0.682 -1.6316 -1.3790 -2.2277
43723SOL    HW234701   1.970   8.588   0.590 -0.8970  0.6637  0.0769
43724SOL     OW34702   7.325  11.087   7.349  0.5287  0.2583 -0.3669
43724SOL    HW134703   7.288  11.033   7.279 -0.3060  0.8157 -0.3691
43724SOL    HW234704   7.263  11.160   7.358  0.8229  0.3883  0.6992
43725SOL     OW34705   2.553   3.575   8.640  0.1980 -0.7858 -0.2715
43725SOL    HW134706   2.581   3.641   8.704  0.7068 -0.6231 -0.6534
43725SOL    HW234707   2.517   3.626   8.567  0.8636 -0.9042 -0.6987
43726SOL     OW34708   2.877   5.023  10.600 -0.3282 -0.2736  0.1435
43726SOL    HW134709   2.904   5.039  10.691 -1.3200  0.4858  0.3255
43726SOL    HW234710   2.828   4.941  10.604  0.4744 -0.7570  0.1161
43727SOL     OW34711   5.274   7.794   7.868 -0.2449 -0.6604 -0.1867
43727SOL    HW134712   5.266   7.851   7.945 -1.0183 -0.0470 -0.6948
43727SOL    HW234713   5.222   7.838   7.800  1.4661 -0.5128 -1.4654
43728SOL     OW34714   0.314  10.174  10.983 -0.0408  0.2443 -0.0380
43728SOL    HW134715   0.283  10.248  11.035 -1.0419 -0.3965  0.3059
43728SOL    HW234716   0.236  10.143  10.937  0.5800  0.0242 -0.9600
43729SOL     OW34717   2.392   6.097   6.883 -0.0634 -0.4502  0.1593
43729SOL    HW134718   2.409   6.188   6.908 -1.9911 -0.0251  0.0248
43729SOL    HW234719   2.451   6.082   6.809 -1.4653  1.5264 -1.4755
43730SOL     OW34720   3.865   0.199   5.017  0.4705  0.1883 -0.5664
43730SOL    HW134721   3.878   0.170   5.107 -1.0037  1.2374  0.0207
43730SOL    HW234722   3.876   0.294   5.021 -1.7564  0.5233 -1.0225
43731SOL     OW34723   4.826   8.348   6.013  0.1713 -0.2872 -0.4213
43731SOL    HW134724   4.889   8.278   5.993  1.6626  0.7874  0.4060
43731SOL    HW234725   4.741   8.304   6.010  1.1441 -2.5021  1.5242
43732SOL     OW34726   0.000   3.753   5.010 -0.0492  0.6045 -0.0935
43732SOL    HW134727  -0.006   3.783   4.919 -1.3770  0.2233 -0.1509
43732SOL    HW234728   0.073   3.803   5.047  0.8008  0.4532 -1.4817
43733SOL     OW34729   9.286   2.430   5.807  0.2530 -0.4509 -0.1620
43733SOL    HW134730   9.194   2.455   5.819  0.5203  0.8385 -0.6739
43733SOL    HW234731   9.331   2.512   5.786  1.4558 -1.1307 -0.3342
43734SOL     OW34732   8.338   8.120  11.032 -0.0601 -0.0513 -0.0605
43734SOL    HW134733   8.315   8.064  10.958 -0.1960 -0.3268  0.1874
43734SOL    HW234734   8.388   8.064  11.091  0.1287  0.1924  0.0124
43735SOL     OW34735   9.452   6.605   7.034  0.2685 -0.2209 -0.1115
43735SOL    HW134736   9.424   6.694   7.011  0.1228 -0.0874  0.5774
43735SOL    HW234737   9.495   6.614   7.119  1.9475 -0.5055 -0.8705
43736SOL     OW34738   5.402  10.547   1.914  0.4575 -0.1723 -0.1685
43736SOL    HW134739   5.343  10.572   1.986 -1.8413  1.7243 -2.4681
43736SOL    HW234740   5.386  10.454   1.901 -2.5967  0.3532 -1.0070
43737SOL     OW34741   1.591   3.722  10.477 -0.3574 -0.2595  0.8821
43737SOL    HW134742   1.553   3.744  10.392  1.3145 -0.4712  0.0408
43737SOL    HW234743   1.570   3.629  10.489 -0.1206 -0.3744  0.4320
43738SOL     OW34744   5.438   5.098   1.336  0.0381 -0.2316 -0.4843
43738SOL    HW134745   5.431   5.102   1.240  0.7191  0.5009 -0.5158
43738SOL    HW234746   5.430   5.005   1.357 -0.0248 -0.4084 -1.2592
43739SOL     OW34747   3.929   5.064   6.293  0.0160 -0.0707  0.6559
43739SOL    HW134748   3.872   5.039   6.220  0.2063  1.0315  0.0960
43739SOL    HW234749   3.888   5.142   6.330  0.5110  0.0262  1.0112
43740SOL     OW34750   3.463   7.009   8.648 -0.1492  0.2205  0.5188
43740SOL    HW134751   3.516   7.020   8.568 -1.6631 -2.4092 -0.9732
43740SOL    HW234752   3.398   7.079   8.643  0.3486  0.6590 -0.0531
43741SOL     OW34753   6.931   7.042   5.744 -0.0586 -0.1063  0.3323
43741SOL    HW134754   6.855   7.038   5.686 -0.4022 -1.4822  0.8345
43741SOL    HW234755   6.993   6.979   5.708 -0.7824 -1.9473  2.0565
43742SOL     OW34756   5.137   0.225   1.476  0.0994  0.0553  0.2359
43742SOL    HW134757   5.153   0.291   1.544 -0.4362 -0.5681  0.9764
43742SOL    HW234758   5.096   0.152   1.522  0.1185 -0.5535 -0.6863
43743SOL     OW34759   3.066   5.873   9.910  0.4235  0.2578  0.3252
43743SOL    HW134760   3.150   5.917   9.906 -0.2959  1.7244  0.6873
43743SOL    HW234761   3.085   5.786   9.946  1.6452  0.9133  1.2992
43744SOL     OW34762   5.424   0.767   8.012  0.5103  0.0415 -0.4274
43744SOL    HW134763   5.413   0.691   7.955 -0.0414 -0.2628  0.0703
43744SOL    HW234764   5.362   0.753   8.083  1.7700  0.0083  0.7014
43745SOL     OW34765   0.736   0.483   8.137  0.6289  0.3115  0.0811
43745SOL    HW134766   0.658   0.476   8.081  0.4474 -0.5743  0.4294
43745SOL    HW234767   0.766   0.572   8.124  0.3234  0.2632 -1.0950
43746SOL     OW34768   4.040   2.920   0.019 -0.7187 -0.0632 -0.3877
43746SOL    HW134769   3.968   2.907   0.080 -1.0318 -1.5845 -1.0454
43746SOL    HW234770   4.007   2.984  -0.044 -1.5271 -0.7789 -0.7067
43747SOL     OW34771   0.493   1.823   2.756  0.5567 -0.1572 -0.4111
43747SOL    HW134772   0.505   1.729   2.770  1.8379  0.4287  3.5169
43747SOL    HW234773   0.575   1.853   2.718  1.9479 -0.0856  2.4141
43748SOL     OW34774   7.737   4.877  10.013  0.4941 -0.5210 -0.0251
43748SOL    HW134775   7.802   4.868   9.944  1.4270  1.1142  0.5757
43748SOL    HW234776   7.735   4.791  10.055  0.4685 -1.3134 -1.5649
43749SOL     OW34777   0.895   4.311   8.411  0.3833  0.1093  0.1014
43749SOL    HW134778   0.990   4.308   8.406  0.6304 -1.4348  3.2204
43749SOL    HW234779   0.876   4.366   8.486 -1.1215 -0.5982  0.2832
43750SOL     OW34780   4.996   8.773   9.664 -0.4001  0.2066  0.1693
43750SOL    HW134781   5.039   8.719   9.730 -1.2424 -0.3913  0.2520
43750SOL    HW234782   4.985   8.858   9.705  0.0412  0.1519  0.4050
43751SOL     OW34783  10.924  10.460   0.568 -0.6515 -0.1528 -0.4815
43751SOL    HW134784  10.845  10.494   0.527  0.2756  0.6540 -1.6952
43751SOL    HW234785  10.981  10.536   0.577 -0.7612 -0.3035  2.3299
43752SOL     OW34786   6.786   5.982  10.715 -0.5969  0.3184  0.1700
43752SOL    HW134787   6.807   6.066  10.755  1.9248  0.8662 -1.9483
43752SOL    HW234788   6.869   5.935  10.715 -1.0021 -0.5306 -2.2055
43753SOL     OW34789   8.924   6.211   7.835  0.1116 -0.3338 -0.0511
43753SOL    HW134790   8.978   6.226   7.757  1.3307 -0.0758  0.8181
43753SOL    HW234791   8.931   6.117   7.851 -1.1193 -0.5986 -0.9232
43754SOL     OW34792   8.658   2.602   8.385 -0.0139 -0.3514 -0.6008
43754SOL    HW134793   8.610   2.519   8.381 -0.8380 -0.0476  1.8221
43754SOL    HW234794   8.591   2.669   8.373  0.2311  0.0230  0.1143
43755SOL     OW34795   1.725  10.078   4.765  0.1431  0.2129 -0.1560
43755SOL    HW134796   1.754  10.166   4.791 -0.7316  0.4172  0.1680
43755SOL    HW234797   1.641  10.093   4.722  1.1739 -0.2013 -2.4515
43756SOL     OW34798   0.588   7.618   6.833  0.2698 -0.4840 -0.2002
43756SOL    HW134799   0.566   7.689   6.773 -0.5974  1.8107  2.6053
43756SOL    HW234800   0.517   7.554   6.822 -1.7351  1.4671  0.6211
43757SOL     OW34801   5.849   7.993   6.998 -0.7285  0.3518 -0.1137
43757SOL    HW134802   5.885   8.080   7.016  1.6661 -0.8430  1.3276
43757SOL    HW234803   5.801   8.004   6.916  0.7613  2.7068 -0.7821
43758SOL     OW34804   3.186   0.046   5.380 -0.0624 -0.0473 -0.1586
43758SOL    HW134805   3.222   0.060   5.467 -0.9054  0.1735  0.1635
43758SOL    HW234806   3.194   0.131   5.336 -0.8447  0.2147  0.1732
43759SOL     OW34807   2.660   2.462   1.482 -0.5413  0.1873  0.0275
43759SOL    HW134808   2.707   2.404   1.422 -0.6910  0.3026 -0.2046
43759SOL    HW234809   2.569   2.458   1.451 -0.3454  1.5489 -0.8098
43760SOL     OW34810   1.602  10.245   0.570  0.0022  0.6512  0.5210
43760SOL    HW134811   1.690  10.211   0.586 -0.1040  0.0536 -0.0884
43760SOL    HW234812   1.573  10.279   0.654  0.6342  0.4258  0.8360
43761SOL     OW34813   3.127   5.484   4.473  0.2663  0.5559 -0.3448
43761SOL    HW134814   3.039   5.446   4.470  0.8862 -0.8379 -1.2787
43761SOL    HW234815   3.124   5.541   4.551 -1.4806  0.6341 -0.4106
43762SOL     OW34816   3.347   0.469   3.309  0.0470  0.1036 -0.3524
43762SOL    HW134817   3.319   0.517   3.387  0.4701 -0.4297  0.1321
43762SOL    HW234818   3.355   0.378   3.338  0.1302 -0.1164 -1.0410
43763SOL     OW34819   6.965   4.044   1.160 -0.2168  0.7719 -0.5649
43763SOL    HW134820   6.887   3.988   1.162 -0.8130  1.5444 -1.2973
43763SOL    HW234821   6.933   4.130   1.185  0.4552  1.0418 -0.6154
43764SOL     OW34822   5.255   1.716   8.878  0.7510 -0.2797 -0.2608
43764SOL    HW134823   5.291   1.631   8.850  0.1834 -0.3054 -0.9350
43764SOL    HW234824   5.172   1.694   8.920  0.8532 -0.1005  0.0374
43765SOL     OW34825   3.237   6.670   0.855  0.2836  0.0520 -0.2003
43765SOL    HW134826   3.313   6.618   0.880 -0.1109 -0.3227  0.2410
43765SOL    HW234827   3.232   6.739   0.921 -0.0317 -0.1991  0.0386
43766SOL     OW34828   0.619   1.883   5.421 -0.5598 -0.3916 -0.1982
43766SOL    HW134829   0.691   1.884   5.358 -0.5907 -0.8865 -0.2400
43766SOL    HW234830   0.659   1.853   5.503 -0.8798 -1.4316 -0.4187
43767SOL     OW34831   2.021   2.030   2.239  0.1386  0.0645  0.2395
43767SOL    HW134832   1.948   2.004   2.296 -1.0089  1.8552 -0.3378
43767SOL    HW234833   2.099   2.018   2.293 -0.9077  1.7418  2.2648
43768SOL     OW34834   9.566   3.171   2.144  0.1560 -0.0961 -0.2116
43768SOL    HW134835   9.583   3.228   2.069  1.3756  0.1643  0.2400
43768SOL    HW234836   9.497   3.215   2.193  2.1152  1.8810  0.9672
43769SOL     OW34837   2.628   5.397   5.013 -0.0393  0.2642 -0.1197
43769SOL    HW134838   2.562   5.444   4.962 -0.3851  0.2184  0.2766
43769SOL    HW234839   2.578   5.336   5.066  0.4476 -0.9783 -1.0498
43770SOL     OW34840   4.252   0.904   9.328 -0.2633  0.2077  0.5717
43770SOL    HW134841   4.205   0.932   9.250  0.2254  0.3126  0.3105
43770SOL    HW234842   4.344   0.914   9.306 -0.1198  0.3566  1.2111
43771SOL     OW34843   7.399   5.079  10.649 -0.1297 -0.1364 -0.5520
43771SOL    HW134844   7.353   5.041  10.725  1.2013 -0.4002  0.1544
43771SOL    HW234845   7.351   5.159  10.630 -0.9080 -0.4228  0.1235
43772SOL     OW34846   8.562   4.272   6.156 -0.3374 -0.1207  0.2232
43772SOL    HW134847   8.560   4.367   6.144  0.2901 -0.2860 -1.4260
43772SOL    HW234848   8.632   4.242   6.099 -1.7186 -1.7724 -0.6896
43773SOL     OW34849   8.046   7.826   5.307  0.0710 -0.3385  0.1476
43773SOL    HW134850   8.109   7.763   5.341  1.0716 -0.0916 -1.1406
43773SOL    HW234851   8.048   7.813   5.212  1.1871  2.3651 -0.2814
43774SOL     OW34852   9.853   6.027   6.235  0.3293 -0.2318 -0.0472
43774SOL    HW134853   9.793   5.959   6.265  0.2638 -0.0977  0.1281
43774SOL    HW234854   9.807   6.109   6.253 -0.1214 -0.1619 -1.3508
43775SOL     OW34855   1.830   7.056   9.832 -0.1222 -0.1147 -0.0579
43775SOL    HW134856   1.806   7.044   9.740 -0.2588 -0.9929  0.0841
43775SOL    HW234857   1.864   6.971   9.859  1.2615  0.5415  0.3197
43776SOL     OW34858  11.025   1.254   6.014  0.1122  0.0052  0.5110
43776SOL    HW134859  10.963   1.213   6.075 -0.6196  0.5560  0.1579
43776SOL    HW234860  11.030   1.345   6.043 -1.6477  0.7532 -1.2756
43777SOL     OW34861   9.630   0.360   0.648 -0.3224  0.5190 -0.1319
43777SOL    HW134862   9.556   0.395   0.598 -0.5916 -0.2401 -0.2808
43777SOL    HW234863   9.700   0.424   0.635 -0.7128  0.8594 -0.6147
43778SOL     OW34864   1.672   2.224   8.584  0.4152  0.7795 -0.5218
43778SOL    HW134865   1.587   2.212   8.626  1.1825 -0.8012  0.7257
43778SOL    HW234866   1.667   2.310   8.542 -2.1615  0.2782 -1.4440
43779SOL     OW34867   2.668   5.887   8.769 -0.0065 -0.5020  0.2394
43779SOL    HW134868   2.733   5.934   8.821  2.0966 -1.3984 -1.4575
43779SOL    HW234869   2.681   5.918   8.679 -0.0327 -2.6879 -0.5775
43780SOL     OW34870  10.196   9.443   0.025 -0.1682 -0.1061  0.0375
43780SOL    HW134871  10.289   9.428   0.043 -0.6166  0.5100  3.3740
43780SOL    HW234872  10.158   9.355   0.020  0.2364 -0.3486  1.0080
43781SOL     OW34873   2.331   3.518   8.874  0.1251 -0.2673 -0.2034
43781SOL    HW134874   2.306   3.516   8.782  2.2490 -0.1113 -0.8230
43781SOL    HW234875   2.332   3.611   8.897 -0.5489 -0.3136  0.0370
43782SOL     OW34876   7.109  11.112   4.253  0.5954  0.0187 -0.1993
43782SOL    HW134877   7.060  11.073   4.325  0.5076  3.0264  1.5614
43782SOL    HW234878   7.165  11.042   4.220 -0.3231 -1.8255  1.9184
43783SOL     OW34879   1.390  10.571   8.833  0.7162 -0.1174 -0.1403
43783SOL    HW134880   1.333  10.498   8.854  0.5604 -0.1159 -0.5429
43783SOL    HW234881   1.465  10.561   8.892  0.0022  0.2538  0.8342
43784SOL     OW34882   0.975   7.661   2.822  0.2901  0.3885  0.2866
43784SOL    HW134883   1.060   7.704   2.834  0.1883  0.8632 -0.6200
43784SOL    HW234884   0.980   7.622   2.735 -0.6149  0.9047 -0.0106
43785SOL     OW34885   9.622   4.801   7.149 -0.2263 -0.6539  0.2408
43785SOL    HW134886   9.643   4.788   7.241 -3.2044  0.0502  1.1174
43785SOL    HW234887   9.613   4.895   7.139  1.2380 -0.6223 -1.1079
43786SOL     OW34888   9.589   0.697   7.025  0.0360  0.0260 -0.0195
43786SOL    HW134889   9.639   0.731   7.099 -1.3925  1.2921  0.4060
43786SOL    HW234890   9.605   0.603   7.027  0.6582  0.1329  1.4092
43787SOL     OW34891   5.279   4.595   3.470  0.0220  0.2156  0.3703
43787SOL    HW134892   5.258   4.586   3.377  1.5929 -0.9866  0.0955
43787SOL    HW234893   5.225   4.528   3.513 -1.0291  1.0576  0.4108
43788SOL     OW34894   4.846   7.429   7.403  0.5651 -0.3317  0.3925
43788SOL    HW134895   4.887   7.374   7.336 -0.2402 -1.3964  0.7422
43788SOL    HW234896   4.821   7.509   7.358  1.4473 -0.3874 -0.2161
43789SOL     OW34897   6.973   5.019   5.058 -0.2790  0.1402 -0.0553
43789SOL    HW134898   6.925   4.942   5.028 -1.4583  0.8628 -0.1173
43789SOL    HW234899   7.029   4.988   5.129  0.0593 -0.9598 -0.7890
43790SOL     OW34900   3.844   9.140   2.692 -0.0569 -0.1639  0.2334
43790SOL    HW134901   3.808   9.096   2.769 -2.6213  0.5955 -0.4088
43790SOL    HW234902   3.899   9.210   2.728 -1.1142  0.1057  1.4105
43791SOL     OW34903   0.226  11.024   8.183  0.1333  0.4926  0.1067
43791SOL    HW134904   0.214  11.115   8.212 -2.2165  0.9856 -2.0136
43791SOL    HW234905   0.197  10.971   8.257 -1.9255  1.5901  0.1628
43792SOL     OW34906   0.807   0.250  10.021  0.2292 -0.4693  0.6165
43792SOL    HW134907   0.797   0.304   9.942  0.0334  0.4132  1.2198
43792SOL    HW234908   0.757   0.298  10.088 -0.1311 -1.5272  1.1229
43793SOL     OW34909   0.236   2.879   3.546  0.0702 -0.2113 -0.2224
43793SOL    HW134910   0.168   2.937   3.580 -0.0401  0.0169 -0.8288
43793SOL    HW234911   0.308   2.937   3.522  1.0975 -0.5609  1.7958
43794SOL     OW34912   1.263   0.493   1.478  0.0550 -0.0017 -0.0835
43794SOL    HW134913   1.277   0.585   1.457 -0.1821 -0.5279 -2.8509
43794SOL    HW234914   1.192   0.494   1.542 -0.4382  1.7069 -0.6137
43795SOL     OW34915   8.548   5.443   5.095  0.3985  0.5166  0.4256
43795SOL    HW134916   8.484   5.514   5.104 -0.6902 -0.4303  0.4412
43795SOL    HW234917   8.622   5.470   5.149  0.7853  2.4612 -0.9650
43796SOL     OW34918   5.544   9.672   0.081  0.0471  0.2971 -0.2047
43796SOL    HW134919   5.461   9.707   0.113  0.7371 -0.1007  2.2377
43796SOL    HW234920   5.531   9.578   0.079  0.2656  0.2699 -0.4073
43797SOL     OW34921   7.120  10.845  10.918  0.0168 -0.5952 -0.5979
43797SOL    HW134922   7.060  10.919  10.907 -0.0892 -0.8063 -1.5188
43797SOL    HW234923   7.207  10.885  10.923 -0.0263 -0.4191 -1.2653
43798SOL     OW34924   2.226   3.746   5.095 -0.4834 -0.3189 -0.3778
43798SOL    HW134925   2.207   3.701   5.012 -2.0938  0.9384 -0.7475
43798SOL    HW234926   2.236   3.838   5.071  0.7092 -0.1710  0.6272
43799SOL     OW34927   5.807   6.298   0.532  0.0891 -0.3096  0.3837
43799SOL    HW134928   5.833   6.280   0.622 -0.5167 -1.2420  0.3865
43799SOL    HW234929   5.889   6.312   0.485  0.4033  0.3467  1.1069
43800SOL     OW34930   6.717   2.674   0.860 -0.0267 -0.1209  0.1576
43800SOL    HW134931   6.665   2.717   0.792  0.3434 -0.0148 -0.0639
43800SOL    HW234932   6.767   2.607   0.813 -0.6785 -0.8719  0.5159
43801SOL     OW34933   4.067   2.519   4.079  0.1131  0.2282 -0.3410
43801SOL    HW134934   4.037   2.488   3.993 -0.3348 -0.0060 -0.1014
43801SOL    HW234935   4.003   2.585   4.104  0.2605  0.3170 -0.2015
43802SOL     OW34936   3.912   2.719   7.573  0.2041 -0.7567  0.0846
43802SOL    HW134937   3.905   2.815   7.568  1.6153 -0.6702 -0.7158
43802SOL    HW234938   3.834   2.692   7.622  0.3942  0.8934  1.3738
43803SOL     OW34939   4.967   3.999   1.587  0.0793  0.9339 -0.1101
43803SOL    HW134940   4.903   3.928   1.591  1.7709 -0.6605 -0.4714
43803SOL    HW234941   4.972   4.031   1.678  2.2149 -2.1663  1.0260
43804SOL     OW34942   8.417  10.755   8.958 -0.5560 -0.5443 -0.0081
43804SOL    HW134943   8.424  10.718   8.870 -1.3040 -1.0071  0.1213
43804SOL    HW234944   8.481  10.826   8.959  1.9860 -2.6686  0.1932
43805SOL     OW34945   8.865   2.762   9.235  0.1273  0.0598 -0.0338
43805SOL    HW134946   8.922   2.821   9.283  1.4628 -1.3980  0.2450
43805SOL    HW234947   8.840   2.811   9.156  1.2558  0.9546  0.1468
43806SOL     OW34948   6.124   5.385  10.826  0.1681  0.0420 -0.2511
43806SOL    HW134949   6.082   5.319  10.772  0.2217 -0.4639  0.3098
43806SOL    HW234950   6.190   5.337  10.876  0.3182  0.5444  0.0399
43807SOL     OW34951   6.478   7.981   5.561 -0.2553 -0.0614 -0.0355
43807SOL    HW134952   6.492   8.019   5.648 -0.4316 -0.7417  0.2976
43807SOL    HW234953   6.527   8.038   5.502  0.5483 -0.0690  0.6079
43808SOL     OW34954   6.979   2.745   3.077 -0.2847  0.3040  0.5663
43808SOL    HW134955   6.962   2.656   3.108  0.0164 -1.0118 -2.6857
43808SOL    HW234956   7.027   2.786   3.149 -1.2680 -1.8032  2.5588
43809SOL     OW34957   0.434   7.406  10.591  0.3496  0.0446  0.3263
43809SOL    HW134958   0.519   7.367  10.575  0.2679 -0.4476  1.0165
43809SOL    HW234959   0.407   7.371  10.676 -0.8048 -0.2912 -0.1497
43810SOL     OW34960  10.988   8.509   8.254  0.2623 -0.3635 -0.5406
43810SOL    HW134961  10.935   8.460   8.317  0.4795 -2.0147 -1.5733
43810SOL    HW234962  11.009   8.445   8.187  3.5344  0.2333 -0.2183
43811SOL     OW34963  10.261   8.040  10.449  0.2925 -0.1103 -0.1787
43811SOL    HW134964  10.192   7.978  10.425  0.6396 -0.2932 -0.7189
43811SOL    HW234965  10.217   8.102  10.507  0.2485 -1.6122  1.4829
43812SOL     OW34966   6.585   5.336   2.041  0.5991  0.1475 -0.6320
43812SOL    HW134967   6.526   5.262   2.028 -0.2588  0.5396  0.8372
43812SOL    HW234968   6.537   5.411   2.005  0.2282  0.4407  0.4305
43813SOL     OW34969   2.848   5.622   5.344 -0.0851  0.5612 -0.2638
43813SOL    HW134970   2.890   5.696   5.388  1.0374 -0.5829  0.6834
43813SOL    HW234971   2.865   5.637   5.251  0.1298  1.4888 -0.0867
43814SOL     OW34972   4.749   8.299   9.730 -0.0596  0.2690 -0.2065
43814SOL    HW134973   4.746   8.219   9.782 -1.4841  0.4694  0.0457
43814SOL    HW234974   4.658   8.320   9.713  0.3256  1.3880 -0.9829
43815SOL     OW34975   0.851   3.504   2.921 -0.3269  0.1701 -0.7447
43815SOL    HW134976   0.757   3.521   2.919 -0.5013 -0.7535 -0.8156
43815SOL    HW234977   0.887   3.560   2.852 -0.8137  0.5672 -0.6834
43816SOL     OW34978  10.913   7.955   0.748  0.1044 -0.6221  0.2434
43816SOL    HW134979  10.841   7.991   0.696  0.5173 -0.8038 -0.4704
43816SOL    HW234980  10.968   8.031   0.767 -0.8997 -0.2404  1.8870
43817SOL     OW34981   7.026   8.811   5.535 -0.5732  0.3155 -0.7466
43817SOL    HW134982   6.962   8.873   5.569 -1.1306  0.3997 -1.9116
43817SOL    HW234983   6.984   8.772   5.458 -0.5965 -2.1563  0.4171
43818SOL     OW34984   7.183   4.867   9.284  0.3417 -0.2062  0.5243
43818SOL    HW134985   7.179   4.881   9.190  1.1498  0.2032  0.5452
43818SOL    HW234986   7.095   4.889   9.315  0.4171  0.8686  0.0195
43819SOL     OW34987  10.339   8.590   7.273  0.0304  0.2300  0.2022
43819SOL    HW134988  10.361   8.531   7.346  0.6057  0.9587  0.6430
43819SOL    HW234989  10.266   8.548   7.229  1.0556 -1.3319 -0.1102
43820SOL     OW34990  10.216   0.684   9.169 -0.0378  0.4664 -0.7635
43820SOL    HW134991  10.244   0.667   9.079 -0.5990 -0.8470 -0.7192
43820SOL    HW234992  10.254   0.612   9.219  0.2694  1.1893  0.0680
43821SOL     OW34993   3.648   0.632   4.316 -0.1582  0.2572  0.0713
43821SOL    HW134994   3.737   0.665   4.325  0.4096 -1.4705  1.0915
43821SOL    HW234995   3.656   0.537   4.323 -2.1475  0.1038  0.9289
43822SOL     OW34996   7.191   8.317   8.931 -0.2933  1.5672 -0.6771
43822SOL    HW134997   7.207   8.366   8.851 -0.6413  1.6996 -0.6701
43822SOL    HW234998   7.151   8.381   8.991 -0.9397  1.2315 -0.7400
43823SOL     OW34999   9.000   9.646   8.470 -0.4308  0.3067  0.7921
43823SOL    HW135000   9.080   9.665   8.422 -0.3073  1.1320  1.3138
43823SOL    HW235001   9.009   9.694   8.552 -0.8612 -0.6762  1.4283
43824SOL     OW35002   9.599   1.078   2.173 -0.3858 -0.3989  0.1098
43824SOL    HW135003   9.564   1.159   2.136  2.3545  0.9574  0.3010
43824SOL    HW235004   9.580   1.084   2.266  0.7518  0.5877  0.2986
43825SOL     OW35005   8.941   9.565   6.889 -0.1455 -0.0375  0.2207
43825SOL    HW135006   8.995   9.505   6.837  2.4141  1.9943  0.2970
43825SOL    HW235007   8.965   9.652   6.858 -1.1675  1.1170  2.3987
43826SOL     OW35008   0.431   5.962   8.622  0.2180 -0.6745 -0.0567
43826SOL    HW135009   0.507   5.938   8.569  0.5861 -0.8549  0.5426
43826SOL    HW235010   0.445   6.054   8.643  0.4974 -0.8079  0.3923
43827SOL     OW35011   9.627   5.154  10.775 -0.4206  0.5478 -0.4825
43827SOL    HW135012   9.553   5.101  10.806  0.0789  0.2820  0.2734
43827SOL    HW235013   9.586   5.235  10.744 -1.0479  0.3608 -0.1779
43828SOL     OW35014   1.563   1.779   8.912  0.3675 -0.3073  0.2563
43828SOL    HW135015   1.474   1.744   8.911  0.7417 -1.3276  0.5825
43828SOL    HW235016   1.572   1.824   8.828 -1.0268  1.3904  0.9483
43829SOL     OW35017   4.620   1.470   6.159  0.5643  0.5688 -0.4992
43829SOL    HW135018   4.687   1.404   6.139 -0.9474 -1.1187 -0.1885
43829SOL    HW235019   4.543   1.419   6.185  0.2627  2.4679  2.9318
43830SOL     OW35020   0.233   4.544   0.865 -0.0227  0.7537  0.0322
43830SOL    HW135021   0.163   4.604   0.891 -0.6561  0.1661 -0.3092
43830SOL    HW235022   0.276   4.521   0.948 -0.7185  0.5194  0.3370
43831SOL     OW35023   8.165  10.118   4.092  0.1833  0.5181  0.2112
43831SOL    HW135024   8.203  10.032   4.113  1.4963  1.3252  1.3146
43831SOL    HW235025   8.174  10.168   4.173 -4.3570  0.4730  0.9711
43832SOL     OW35026   5.321  10.118   4.626  0.6329  0.0085  0.2562
43832SOL    HW135027   5.239  10.126   4.576  0.4235 -0.5880  0.4950
43832SOL    HW235028   5.301  10.157   4.711  0.5557 -0.2370  0.3535
43833SOL     OW35029   7.857   4.890   8.841  0.6075  0.1435  0.3038
43833SOL    HW135030   7.822   4.979   8.839 -1.1315 -0.4457  2.1721
43833SOL    HW235031   7.866   4.867   8.748  1.5118  2.3643 -0.2435
43834SOL     OW35032   9.950   1.100   5.610  0.0013 -0.5385 -0.2899
43834SOL    HW135033   9.948   1.196   5.608  1.8612 -0.4440  0.4654
43834SOL    HW235034   9.870   1.076   5.657 -0.4782  0.6491 -0.4601
43835SOL     OW35035   1.885   2.095   7.255 -0.3307 -1.2516  0.3247
43835SOL    HW135036   1.846   2.150   7.187 -0.4326 -1.0698  0.5302
43835SOL    HW235037   1.971   2.070   7.219 -0.3012 -0.9945  0.2139
43836SOL     OW35038   2.020   9.318   3.067 -0.2091 -0.4808  0.2627
43836SOL    HW135039   1.992   9.231   3.094  4.1130 -1.6327  1.9167
43836SOL    HW235040   2.100   9.303   3.017  0.3557  2.5430  0.0718
43837SOL     OW35041   8.004   8.225   6.969  0.1958  0.1338  0.8250
43837SOL    HW135042   7.915   8.193   6.982 -0.2005  0.9121  0.1331
43837SOL    HW235043   7.996   8.292   6.901  1.3311  0.1212  0.6526
43838SOL     OW35044   2.272   2.676  10.556  0.8908 -0.0574  0.3477
43838SOL    HW135045   2.253   2.614  10.486  0.7189  1.2144 -0.7580
43838SOL    HW235046   2.367   2.689  10.552  0.9535 -0.3635  0.7029
43839SOL     OW35047   8.429   6.016   8.726  0.5138  0.0007 -0.3042
43839SOL    HW135048   8.348   5.999   8.773  0.8336 -1.0014 -0.0714
43839SOL    HW235049   8.402   6.058   8.645 -0.4435 -1.9944 -1.1011
43840SOL     OW35050   7.672   5.687   8.292  0.2733  0.9018 -0.5798
43840SOL    HW135051   7.611   5.717   8.225  0.4615  2.5941 -0.0465
43840SOL    HW235052   7.755   5.730   8.269  0.8107  0.0555 -0.2751
43841SOL     OW35053   2.702   0.965   9.389  0.2573 -0.2252  0.3153
43841SOL    HW135054   2.726   1.057   9.387 -0.5371  0.0121  1.0477
43841SOL    HW235055   2.740   0.932   9.470  0.9917 -0.6763 -0.2067
43842SOL     OW35056  10.218   4.087   9.767  0.0400  0.6330 -0.1340
43842SOL    HW135057  10.241   4.005   9.724  0.9532  0.3452  0.8569
43842SOL    HW235058  10.135   4.069   9.811 -0.2618  0.5503 -0.7278
43843SOL     OW35059   6.553   5.539   0.651 -0.2032  0.4314 -0.0146
43843SOL    HW135060   6.628   5.491   0.617 -0.0048  0.1107  0.8323
43843SOL    HW235061   6.580   5.631   0.646 -1.1798  0.6420 -3.0683
43844SOL     OW35062   5.583   0.615   1.352  0.4597 -0.1681  0.2848
43844SOL    HW135063   5.524   0.626   1.277  1.6577  0.1662 -0.6502
43844SOL    HW235064   5.585   0.701   1.393  1.8834  0.4239 -0.9360
43845SOL     OW35065   4.231   3.398  10.418  0.2218  0.5007  0.2696
43845SOL    HW135066   4.299   3.384  10.352  1.0553  3.4870  0.3557
43845SOL    HW235067   4.278   3.414  10.499 -0.7421 -0.7260  1.1176
43846SOL     OW35068   3.697   3.841   1.605  0.3422  0.0586  0.0892
43846SOL    HW135069   3.682   3.935   1.603 -0.2663  0.0342  1.9378
43846SOL    HW235070   3.792   3.831   1.596  0.3638  0.7975 -0.6071
43847SOL     OW35071   1.246   5.177   9.582 -0.4454 -0.7787 -0.9409
43847SOL    HW135072   1.171   5.233   9.598  0.5592  0.4727 -0.4338
43847SOL    HW235073   1.299   5.225   9.518  1.5532 -0.0020  1.1571
43848SOL     OW35074   1.204   8.711   4.411 -0.4044  0.4558  0.3337
43848SOL    HW135075   1.137   8.769   4.448 -0.1123 -0.0818  1.8084
43848SOL    HW235076   1.273   8.770   4.380 -1.2556  0.9859 -0.5957
43849SOL     OW35077   8.749  10.063   7.002  0.1404  0.2870  0.0246
43849SOL    HW135078   8.700  10.083   7.082  0.8445  1.2682  0.2285
43849SOL    HW235079   8.763  10.148   6.960 -0.1565 -0.2098 -1.1124
43850SOL     OW35080   2.401   8.860   8.741  0.0548  0.3806 -0.0377
43850SOL    HW135081   2.386   8.793   8.807 -1.8673  0.2564 -0.5328
43850SOL    HW235082   2.400   8.942   8.789 -1.0324  0.2687  0.1623
43851SOL     OW35083  10.656   0.001   9.241  0.6133 -0.2402  0.0534
43851SOL    HW135084  10.689  -0.073   9.291 -0.3108 -1.2086 -0.7469
43851SOL    HW235085  10.682  -0.016   9.151  0.0904  0.2300 -0.1945
43852SOL     OW35086   6.338   0.030   6.230 -0.2728 -0.4804  0.0078
43852SOL    HW135087   6.295   0.014   6.146 -0.9064  1.0684  0.0109
43852SOL    HW235088   6.420   0.073   6.207  0.9359 -2.5940  0.0607
43853SOL     OW35089   6.393   3.471   4.806 -0.1368  0.0566 -0.6807
43853SOL    HW135090   6.393   3.565   4.789 -1.2223  0.4202  1.0768
43853SOL    HW235091   6.341   3.434   4.735 -2.3247  1.1805  0.2567
43854SOL     OW35092   0.429   3.364   7.925 -0.4046  0.1434 -0.2325
43854SOL    HW135093   0.433   3.289   7.866 -0.8776  0.6368 -0.9071
43854SOL    HW235094   0.469   3.436   7.875 -1.5555  0.7694 -0.2983
43855SOL     OW35095   7.449   3.551   5.240  0.0951 -0.7286  0.2274
43855SOL    HW135096   7.364   3.511   5.222  0.1073 -1.0085  0.7951
43855SOL    HW235097   7.428   3.644   5.253 -0.0611 -0.7177 -0.0747
43856SOL     OW35098   2.296   1.203   5.171 -0.3512 -0.6571  0.2599
43856SOL    HW135099   2.265   1.188   5.260  1.5148 -2.5580  0.6632
43856SOL    HW235100   2.336   1.120   5.145  2.1035  0.8344 -1.0977
43857SOL     OW35101   0.193   4.720   7.471  0.4773 -0.0522  0.3599
43857SOL    HW135102   0.166   4.799   7.424 -2.5637 -1.5893 -0.8145
43857SOL    HW235103   0.142   4.721   7.552 -0.1008 -1.0524  0.0355
43858SOL     OW35104   6.668   7.299   6.870  0.3154  0.6034 -0.0896
43858SOL    HW135105   6.613   7.282   6.793 -0.4123  0.5165  0.4321
43858SOL    HW235106   6.754   7.321   6.834  0.0677  0.2734 -0.9184
43859SOL     OW35107   4.348   3.262   5.312 -0.2035 -0.0807 -0.2715
43859SOL    HW135108   4.349   3.310   5.229  0.5830  1.9384  0.8364
43859SOL    HW235109   4.437   3.227   5.320 -0.1733  0.0405 -0.0919
43860SOL     OW35110   1.552   2.981  10.500 -0.0586  0.1363  0.3187
43860SOL    HW135111   1.585   3.002  10.413  1.1466 -0.0159  0.7146
43860SOL    HW235112   1.540   2.886  10.499  3.5274 -0.4874  1.3941
43861SOL     OW35113   7.756   2.893   1.166 -0.4062  0.2908  0.3099
43861SOL    HW135114   7.763   2.800   1.142 -3.1298 -0.2762  1.3428
43861SOL    HW235115   7.752   2.892   1.262 -0.4298  1.4988  0.3292
43862SOL     OW35116   8.960  10.020   3.857 -0.2675  0.0667  0.6740
43862SOL    HW135117   8.868  10.027   3.830 -0.2183  0.3757  0.5820
43862SOL    HW235118   8.971   9.928   3.881 -0.3646 -0.1748 -0.1769
43863SOL     OW35119   4.030   6.869   8.419  0.4680 -0.2468 -0.2833
43863SOL    HW135120   4.049   6.898   8.329  1.2878 -1.7652 -0.6322
43863SOL    HW235121   4.115   6.843   8.454  0.6999  2.9785  2.0073
43864SOL     OW35122  10.833   8.159  10.588 -0.2144 -0.1762  0.3184
43864SOL    HW135123  10.813   8.128  10.676 -0.0477 -0.3982  0.2781
43864SOL    HW235124  10.915   8.115  10.565 -0.4059 -0.3378 -0.0579
43865SOL     OW35125   1.058   5.089   3.515 -0.1289  0.6722  0.2397
43865SOL    HW135126   1.132   5.125   3.466  0.2317 -1.1110 -0.6054
43865SOL    HW235127   1.055   4.997   3.490 -0.7413 -0.0239  2.6205
43866SOL     OW35128   6.911   5.507   9.828  0.2769 -0.7858  0.5252
43866SOL    HW135129   6.880   5.461   9.750  0.0916 -0.9202  0.6763
43866SOL    HW235130   7.006   5.496   9.826  0.2415 -1.1013  0.5140
43867SOL     OW35131   1.928   3.774   2.380 -0.1415 -0.2447 -0.8501
43867SOL    HW135132   1.919   3.764   2.285 -1.8694  0.2036 -0.7718
43867SOL    HW235133   1.858   3.835   2.405 -0.0151 -0.7027  0.7631
43868SOL     OW35134   1.341  10.814   5.034 -0.0338  0.4304  0.1156
43868SOL    HW135135   1.418  10.859   5.069  0.6753  1.2492 -2.2539
43868SOL    HW235136   1.267  10.854   5.080  0.8494  0.8829  1.1821
43869SOL     OW35137   0.465   2.546   1.021  0.3787 -0.7785  0.3202
43869SOL    HW135138   0.377   2.542   0.984  0.4413  1.8039 -0.2902
43869SOL    HW235139   0.462   2.621   1.080  1.6911 -1.8014  1.7549
43870SOL     OW35140   1.288   9.589   0.146 -0.1064  0.2064 -0.3273
43870SOL    HW135141   1.199   9.578   0.114 -0.1084  0.2898 -0.3506
43870SOL    HW235142   1.311   9.503   0.182 -0.2641  0.2365 -0.1503
43871SOL     OW35143  10.227  10.219   8.025  0.0567 -0.4389  0.0978
43871SOL    HW135144  10.135  10.246   8.024 -0.0483 -0.7849  0.4012
43871SOL    HW235145  10.224  10.124   8.013  0.2578 -0.7545  2.2123
43872SOL     OW35146   0.917   7.929   4.268 -0.0473  0.2956 -0.0269
43872SOL    HW135147   0.932   7.849   4.218 -0.5927  0.1889 -0.0192
43872SOL    HW235148   0.894   7.898   4.356 -2.0671  0.3948 -0.4749
43873SOL     OW35149   1.788   9.918   9.041 -0.4753  0.1255  0.1308
43873SOL    HW135150   1.716   9.858   9.021 -0.5972 -0.1687  1.3797
43873SOL    HW235151   1.834   9.877   9.115  0.1045  1.0194  0.2803
43874SOL     OW35152  10.163   7.309   4.429  0.4486 -0.0553  0.2066
43874SOL    HW135153  10.217   7.232   4.412  1.2740  0.3417  0.9463
43874SOL    HW235154  10.090   7.276   4.482  1.4850 -0.1433  1.6555
43875SOL     OW35155   7.516   3.490  10.744  0.6710 -0.3330 -0.2443
43875SOL    HW135156   7.437   3.452  10.706  0.6972 -0.3142 -0.3160
43875SOL    HW235157   7.553   3.419  10.797 -0.9527  0.5076  2.1725
43876SOL     OW35158   4.990   9.744   1.575 -0.9758 -0.4837 -0.1670
43876SOL    HW135159   5.070   9.792   1.596 -1.3312 -0.3226  0.9026
43876SOL    HW235160   4.939   9.804   1.521 -0.1149 -0.8309 -1.4025
43877SOL     OW35161   6.485   8.124  10.366 -0.4492 -0.3195  0.1556
43877SOL    HW135162   6.462   8.196  10.425 -0.3232  0.1860 -0.4051
43877SOL    HW235163   6.406   8.071  10.361 -0.5260 -0.2510  0.6136
43878SOL     OW35164   9.869   3.467   4.969  0.2321 -0.1035 -0.0022
43878SOL    HW135165   9.856   3.560   4.948 -1.3886  0.0301  1.3947
43878SOL    HW235166   9.846   3.422   4.888 -0.0719  0.6568 -0.3560
43879SOL     OW35167  10.528   9.751  10.496 -0.0973  0.0499 -0.3113
43879SOL    HW135168  10.465   9.743  10.567 -0.0055 -1.9985 -0.4126
43879SOL    HW235169  10.474   9.760  10.417 -0.2209  0.6228 -0.1645
43880SOL     OW35170   8.163   3.342   6.588 -0.6522  0.1708 -0.0413
43880SOL    HW135171   8.083   3.289   6.584  1.6860 -3.8215  0.3408
43880SOL    HW235172   8.173   3.361   6.681 -1.9229  2.1653 -0.2654
43881SOL     OW35173   2.086   1.627   3.237 -0.2905 -0.4313 -0.1076
43881SOL    HW135174   2.075   1.633   3.332  1.3499  1.6330  0.0030
43881SOL    HW235175   2.149   1.556   3.225 -0.4927 -0.6903  0.3114
43882SOL     OW35176   9.301   8.320   1.481  0.4351 -0.7871  0.2271
43882SOL    HW135177   9.268   8.332   1.392  1.6423 -0.6776 -0.2276
43882SOL    HW235178   9.336   8.406   1.505  0.2312 -0.8492  0.7585
43883SOL     OW35179   7.492   5.393   1.382  0.4312  0.2446 -0.2212
43883SOL    HW135180   7.449   5.372   1.465  0.2254  0.7485 -0.1944
43883SOL    HW235181   7.537   5.312   1.357 -1.0286 -0.5109 -0.5558
43884SOL     OW35182   3.890   0.234   1.185  0.3182 -0.7251  0.0619
43884SOL    HW135183   3.982   0.227   1.210  0.1420  0.6801  1.1881
43884SOL    HW235184   3.866   0.325   1.202 -0.6406 -0.3760 -2.5803
43885SOL     OW35185   5.253   4.168   8.369 -0.3492 -0.0913  0.1339
43885SOL    HW135186   5.219   4.257   8.354  0.9219  0.3967  0.0740
43885SOL    HW235187   5.228   4.119   8.291  1.1831  0.9105 -1.0458
43886SOL     OW35188   9.823   2.032  10.858  0.0386  0.8061 -0.0481
43886SOL    HW135189   9.816   2.127  10.866 -0.8456  0.6278  1.9199
43886SOL    HW235190   9.732   2.002  10.850  0.3805  0.1959 -2.4843
43887SOL     OW35191   1.274   0.904   7.521  0.2880  0.3767  0.7879
43887SOL    HW135192   1.307   0.898   7.610  0.4808 -0.0184  0.6915
43887SOL    HW235193   1.183   0.873   7.526  0.6989 -0.8952  0.6238
43888SOL     OW35194  11.018  10.168   8.336  0.4361  0.1871 -0.0704
43888SOL    HW135195  11.111  10.156   8.351  0.4289 -2.3708 -1.5570
43888SOL    HW235196  10.976  10.094   8.379 -0.7968  0.6149 -0.4717
43889SOL     OW35197   5.521   5.719   1.154 -0.5253  0.4368  0.0367
43889SOL    HW135198   5.435   5.709   1.195 -1.3806  3.2214 -0.8320
43889SOL    HW235199   5.556   5.799   1.193  0.0356  1.3722 -2.2541
43890SOL     OW35200   2.230   9.762   3.524  0.1038  0.3353  0.0834
43890SOL    HW135201   2.176   9.699   3.571  1.3509  0.1069  1.2873
43890SOL    HW235202   2.227   9.841   3.577  0.7901  0.3711  0.0876
43891SOL     OW35203   4.128   0.873  10.865  0.2838 -0.0741 -0.0714
43891SOL    HW135204   4.165   0.948  10.819  1.3749 -1.3362 -1.3104
43891SOL    HW235205   4.122   0.902  10.956 -0.5462  1.9596 -0.7191
43892SOL     OW35206   8.325   9.162  10.381  0.0269  0.3170 -0.9018
43892SOL    HW135207   8.337   9.067  10.383 -1.0320  0.0672  2.8712
43892SOL    HW235208   8.401   9.197  10.428 -0.2707  1.2202 -1.0646
43893SOL     OW35209   9.084  10.751   3.225  0.7918  0.5403  0.7024
43893SOL    HW135210   9.082  10.656   3.235 -0.6927  0.7106  2.2858
43893SOL    HW235211   9.169  10.768   3.184  0.3349 -1.5849 -1.3283
43894SOL     OW35212   2.612   5.243   9.678  0.1211  0.6985  0.6702
43894SOL    HW135213   2.573   5.192   9.608  0.5167 -0.4110  1.2355
43894SOL    HW235214   2.565   5.216   9.757 -0.1725  1.7669  0.8842
43895SOL     OW35215  10.804   4.718   8.783 -0.3473 -0.1275  0.1038
43895SOL    HW135216  10.821   4.633   8.824  0.1627  0.2034  0.5986
43895SOL    HW235217  10.824   4.782   8.852 -0.5181  0.3970 -0.3315
43896SOL     OW35218   0.877   6.537   3.883 -0.3185 -0.3545  0.6106
43896SOL    HW135219   0.894   6.624   3.847 -3.0348  0.0270  0.0517
43896SOL    HW235220   0.890   6.477   3.809 -3.1558  0.1515 -0.4349
43897SOL     OW35221   2.949   4.901   7.740 -0.6251 -0.0401 -0.2027
43897SOL    HW135222   2.983   4.842   7.807 -3.0696  1.2562  2.3837
43897SOL    HW235223   2.948   4.849   7.659  0.1989 -2.4729  1.2689
43898SOL     OW35224   5.146   5.232  10.455  0.3083 -0.1408  1.0345
43898SOL    HW135225   5.203   5.303  10.485 -0.7169  1.3102 -0.2763
43898SOL    HW235226   5.192   5.194  10.379 -0.0037  0.3799  0.5800
43899SOL     OW35227   6.790   3.483   5.608 -0.0772  0.5960 -0.0904
43899SOL    HW135228   6.730   3.532   5.552  0.6167 -0.9395 -2.3235
43899SOL    HW235229   6.734   3.421   5.654 -0.4019  0.1120 -1.1030
43900SOL     OW35230   8.589   3.682   8.647 -0.1542  0.6215 -0.3525
43900SOL    HW135231   8.597   3.613   8.581  0.3310  0.5647 -0.2367
43900SOL    HW235232   8.512   3.657   8.699 -1.5041  1.4685 -1.8362
43901SOL     OW35233   2.381   4.567   5.270 -0.3375 -0.0247 -0.6324
43901SOL    HW135234   2.346   4.496   5.216  0.6000 -1.1899  0.2380
43901SOL    HW235235   2.349   4.548   5.358 -0.4733  0.9151 -0.4726
43902SOL     OW35236   4.920   4.629   5.748 -0.3082 -0.6139 -0.4441
43902SOL    HW135237   5.014   4.646   5.762 -0.6587  0.4118  0.9111
43902SOL    HW235238   4.918   4.546   5.700  1.3135 -0.2033 -1.3043
43903SOL     OW35239   0.419   8.473   0.479  0.1479  0.1357 -0.0800
43903SOL    HW135240   0.372   8.408   0.531  0.6028  0.7922  1.1991
43903SOL    HW235241   0.498   8.427   0.450  1.8216  0.7621  3.0306
43904SOL     OW35242   7.014   7.989   1.541  0.1013 -0.1212 -0.3180
43904SOL    HW135243   6.970   8.054   1.596  0.7597 -0.4350  0.6136
43904SOL    HW235244   6.943   7.942   1.498 -0.4910 -0.6194  1.1383
43905SOL     OW35245   2.601   4.731  10.279 -0.2485  0.0419  0.6542
43905SOL    HW135246   2.633   4.814  10.316 -0.3002 -0.1441  1.1292
43905SOL    HW235247   2.604   4.670  10.353 -0.5719 -0.2818  0.4010
43906SOL     OW35248   8.480  10.422   8.883  0.6914  0.2487 -0.1149
43906SOL    HW135249   8.499  10.328   8.880 -0.2681  0.0332 -0.0385
43906SOL    HW235250   8.477  10.449   8.791 -1.5473 -0.3804 -0.2983
43907SOL     OW35251   0.831   1.348   0.460 -0.2001 -0.4714 -0.7835
43907SOL    HW135252   0.761   1.358   0.396 -1.0495 -0.7452  0.0741
43907SOL    HW235253   0.792   1.376   0.543  0.8707 -0.1147 -0.3686
43908SOL     OW35254   7.306   9.522   0.813 -0.3731 -0.5120  0.1454
43908SOL    HW135255   7.384   9.578   0.812 -0.0734 -0.9266 -0.5784
43908SOL    HW235256   7.327   9.452   0.874 -1.0620  0.5636  1.6900
43909SOL     OW35257  10.066   2.293   5.442  1.2534 -0.4011 -0.2364
43909SOL    HW135258  10.015   2.259   5.369  0.4729 -0.7026  0.4376
43909SOL    HW235259  10.110   2.371   5.407 -1.6002  1.3504 -0.1768
43910SOL     OW35260  10.155   9.650   9.434  0.5268  0.1152 -0.3454
43910SOL    HW135261  10.126   9.646   9.343  1.3049  0.3351 -0.6055
43910SOL    HW235262  10.186   9.561   9.453  0.7752  0.1824 -0.4338
43911SOL     OW35263   9.429   9.589  10.976 -0.1509 -0.0699 -0.0654
43911SOL    HW135264   9.475   9.506  10.984 -1.4152 -0.8254 -0.3138
43911SOL    HW235265   9.451   9.637  11.055  0.9068 -0.4763 -0.1002
43912SOL     OW35266   1.969   0.969   8.229 -0.2104  0.6205  0.2146
43912SOL    HW135267   1.970   1.025   8.151  0.3620  0.9214  0.4347
43912SOL    HW235268   1.876   0.959   8.250 -0.3042  2.2067  0.6834
43913SOL     OW35269   5.276   3.451   9.622  0.2513 -0.3419 -0.3331
43913SOL    HW135270   5.357   3.426   9.579  1.0805 -0.4153  1.2008
43913SOL    HW235271   5.248   3.531   9.578 -0.1368 -1.5767 -2.4409
43914SOL     OW35272  10.039   7.462   7.238 -0.7951 -0.1128 -0.1730
43914SOL    HW135273   9.988   7.538   7.209  1.0436  1.5451  0.6556
43914SOL    HW235274   9.993   7.430   7.315 -1.9658 -0.3078 -0.9240
43915SOL     OW35275  10.068   9.883   8.742 -0.0092 -0.4119  0.6619
43915SOL    HW135276  10.119   9.808   8.775  0.3567 -0.7903 -0.7021
43915SOL    HW235277  10.092   9.955   8.800  0.0704 -1.2093  1.6525
43916SOL     OW35278   6.777   1.000   6.463  0.1772  0.2114 -0.2655
43916SOL    HW135279   6.856   1.002   6.410  0.5231  0.0755  0.2338
43916SOL    HW235280   6.786   1.074   6.523 -0.8594  1.2035 -1.2897
43917SOL     OW35281   6.952   0.211   3.765 -0.3832 -0.1878 -0.3387
43917SOL    HW135282   6.879   0.190   3.823 -1.7454  0.3376 -1.7839
43917SOL    HW235283   6.941   0.154   3.690  0.9481 -0.3756 -0.4149
43918SOL     OW35284   5.342   2.116   4.031 -0.0368  0.3869 -0.4310
43918SOL    HW135285   5.319   2.038   3.981  1.0726 -0.6133  0.5297
43918SOL    HW235286   5.297   2.104   4.115 -1.8514  2.0205 -1.0889
43919SOL     OW35287   2.175   3.809   6.954 -0.2835  0.2617 -0.3835
43919SOL    HW135288   2.130   3.729   6.929  0.7547 -0.9931  1.5113
43919SOL    HW235289   2.125   3.879   6.913 -0.7730 -1.3696 -2.7691
43920SOL     OW35290   5.935   2.800   9.827  0.1582  0.0085  0.1493
43920SOL    HW135291   6.001   2.859   9.863 -1.6789  0.2539  3.4586
43920SOL    HW235292   5.948   2.718   9.875 -0.4381 -0.7488 -0.9277
43921SOL     OW35293   8.609   3.545   2.969 -0.3078 -0.0537  0.3911
43921SOL    HW135294   8.552   3.523   2.895 -2.2809  2.5140  0.9925
43921SOL    HW235295   8.603   3.469   3.027 -0.8929 -0.9724 -0.8256
43922SOL     OW35296   9.451   3.782   5.349  0.2005  0.2870  0.2180
43922SOL    HW135297   9.421   3.774   5.440 -2.0590  0.9337 -0.3834
43922SOL    HW235298   9.426   3.699   5.308 -0.1930  0.5836 -0.1532
43923SOL     OW35299   9.185   7.620   0.439 -0.6346  0.3890  0.0742
43923SOL    HW135300   9.249   7.610   0.510 -0.9676  2.2591  0.6872
43923SOL    HW235301   9.107   7.656   0.481 -0.7860  1.6905 -1.2278
43924SOL     OW35302   3.712   0.431   7.963 -0.3579  0.5916  0.1120
43924SOL    HW135303   3.778   0.366   7.940 -1.9383 -0.7341 -0.9382
43924SOL    HW235304   3.755   0.486   8.029  0.8327 -1.9745  1.6853
43925SOL     OW35305   5.392   4.953   8.525  0.7406  0.0414  0.3604
43925SOL    HW135306   5.366   4.994   8.608  2.4139  0.3169  0.7823
43925SOL    HW235307   5.373   5.020   8.459 -0.8957 -0.2923  0.4315
43926SOL     OW35308   8.338   8.058   3.061 -0.2127  0.0212  0.2638
43926SOL    HW135309   8.284   8.098   3.129 -1.9448 -0.5004 -0.7691
43926SOL    HW235310   8.403   8.007   3.110 -1.3883 -0.3018  1.5628
43927SOL     OW35311   0.592   9.373   9.062 -0.4911 -0.1045 -0.8956
43927SOL    HW135312   0.537   9.328   8.998  1.2994 -1.9039 -1.2682
43927SOL    HW235313   0.677   9.328   9.057  0.5373  1.4986  0.7943
43928SOL     OW35314   4.909   6.252   2.277 -0.0861 -0.0945 -0.3760
43928SOL    HW135315   4.998   6.265   2.246 -0.6361  1.5599 -1.3696
43928SOL    HW235316   4.879   6.339   2.301 -1.7731 -0.4704 -0.9963
43929SOL     OW35317   4.295   9.834   7.787  0.2966  0.1373  0.0983
43929SOL    HW135318   4.295   9.894   7.862 -0.5662  1.6363 -1.0477
43929SOL    HW235319   4.211   9.849   7.744  1.0488 -0.1683 -1.5629
43930SOL     OW35320   9.074   6.322   5.550  0.1786  0.3232 -0.0045
43930SOL    HW135321   9.095   6.283   5.465 -1.6085 -1.2720  0.2015
43930SOL    HW235322   9.043   6.410   5.530 -1.0810 -0.3420 -1.1396
43931SOL     OW35323   8.299   2.442   7.978  0.5926 -0.0591  0.3665
43931SOL    HW135324   8.255   2.526   7.980 -0.5206 -0.6191  2.1963
43931SOL    HW235325   8.377   2.454   8.032 -1.4690 -1.0534  3.8771
43932SOL     OW35326   7.891  11.118   1.643  0.4359 -0.0981 -0.2993
43932SOL    HW135327   7.867  11.103   1.735  0.2578 -1.7747 -0.5783
43932SOL    HW235328   7.931  11.205   1.642  1.9351 -0.6858  1.6725
43933SOL     OW35329   1.877   5.391   5.877  0.3693  0.0164  0.1490
43933SOL    HW135330   1.861   5.380   5.971  2.9419 -0.4934  0.5944
43933SOL    HW235331   1.964   5.430   5.872  0.5197 -0.4860 -2.0519
43934SOL     OW35332   5.286   2.175   1.473  0.0090  0.1172  0.2015
43934SOL    HW135333   5.317   2.195   1.561  0.4591 -0.6990  0.2390
43934SOL    HW235334   5.350   2.216   1.415  0.3681 -0.3414  0.2687
43935SOL     OW35335   0.047   8.464   3.509  0.0629 -0.3417  0.0183
43935SOL    HW135336   0.030   8.375   3.479  0.4263 -0.5494  0.4401
43935SOL    HW235337   0.132   8.460   3.552  0.4193  0.3575 -0.6002
43936SOL     OW35338   8.827   1.957   7.162 -0.0809 -0.1907 -0.6754
43936SOL    HW135339   8.858   2.032   7.212 -0.9783  1.0057 -1.8340
43936SOL    HW235340   8.732   1.967   7.160 -0.1626 -0.9708 -1.4361
43937SOL     OW35341   0.681   6.297   0.547 -0.2722  0.0076 -0.0495
43937SOL    HW135342   0.623   6.227   0.574  0.2888 -0.2203  0.5990
43937SOL    HW235343   0.656   6.316   0.457 -0.9097 -0.5245  0.0118
43938SOL     OW35344   2.545   6.776   4.630 -0.3873 -0.2823  0.3098
43938SOL    HW135345   2.563   6.852   4.685 -1.1835  0.9265 -1.0399
43938SOL    HW235346   2.561   6.701   4.687  1.9464  0.8178  1.2468
43939SOL     OW35347  10.924   7.261   6.524 -0.0991 -0.6442  0.2564
43939SOL    HW135348  10.996   7.199   6.529  1.5832  1.2051  0.4760
43939SOL    HW235349  10.913   7.279   6.431 -1.3704 -2.0674  0.0983
43940SOL     OW35350   2.060   6.989  10.294  0.1578 -0.1259  0.8799
43940SOL    HW135351   2.127   6.988  10.362 -0.4586  0.7437  1.5253
43940SOL    HW235352   2.054   7.080  10.267  0.6059 -0.4980 -0.5904
43941SOL     OW35353   7.211   0.439   4.509 -0.2208 -0.1903 -0.2648
43941SOL    HW135354   7.184   0.500   4.440 -0.2828 -0.0871 -0.1500
43941SOL    HW235355   7.172   0.355   4.483 -1.0555  0.0609  0.1427
43942SOL     OW35356   5.253   5.435  10.864 -0.2252 -0.1587 -0.2556
43942SOL    HW135357   5.344   5.463  10.849 -0.6775  0.8091 -1.3240
43942SOL    HW235358   5.261   5.349  10.904  1.2495  1.5021  3.4112
43943SOL     OW35359   2.710   6.762   0.322  0.1922  0.0523  0.2502
43943SOL    HW135360   2.647   6.827   0.352 -0.6666 -0.3270 -0.7024
43943SOL    HW235361   2.668   6.718   0.248  1.2012 -0.8351  0.1663
43944SOL     OW35362   8.819  10.595   8.190  0.2211 -0.0524 -0.3768
43944SOL    HW135363   8.755  10.541   8.237  0.8900 -1.4537 -1.0144
43944SOL    HW235364   8.903  10.573   8.229  0.4323  1.1800 -0.0910
43945SOL     OW35365   9.196   9.964   4.330  0.7989  0.3452 -0.1271
43945SOL    HW135366   9.182   9.869   4.324  0.9347  0.3231 -0.1138
43945SOL    HW235367   9.139   9.993   4.401  1.3504  0.1465  0.4037
43946SOL     OW35368   5.732   6.228   4.457  0.3811 -0.0689 -0.2241
43946SOL    HW135369   5.789   6.226   4.533 -0.5773  1.0553  0.5676
43946SOL    HW235370   5.649   6.263   4.490 -0.2600 -0.1537 -1.6554
43947SOL     OW35371  10.411   7.310   6.987 -0.4094 -0.0946  0.5033
43947SOL    HW135372  10.434   7.218   6.981  0.2049  0.1364 -1.2795
43947SOL    HW235373  10.494   7.357   6.979 -0.7548  0.6218  1.0028
43948SOL     OW35374   8.742   4.763   7.742 -0.2159 -0.3638 -0.2281
43948SOL    HW135375   8.808   4.736   7.806  0.3477  0.8593 -0.2636
43948SOL    HW235376   8.666   4.789   7.794 -0.0266 -0.0921 -0.0828
43949SOL     OW35377   2.183   9.771   9.549 -0.2707 -0.1708 -0.3512
43949SOL    HW135378   2.219   9.850   9.591  0.2092  0.2412 -1.5114
43949SOL    HW235379   2.254   9.737   9.496 -1.0277 -0.3794 -1.2583
43950SOL     OW35380   8.675  10.946   0.600 -0.2002  0.1071 -0.4841
43950SOL    HW135381   8.633  10.931   0.685 -0.7818  1.1189 -0.5724
43950SOL    HW235382   8.740  11.014   0.616  0.9057 -0.9225 -0.5095
43951SOL     OW35383   6.130   0.715   4.379 -0.3185 -0.0107 -0.1702
43951SOL    HW135384   6.073   0.745   4.308  0.0128 -2.7053 -1.7147
43951SOL    HW235385   6.218   0.721   4.342  0.0607  0.3798  0.7645
43952SOL     OW35386   5.193   0.802   7.661 -0.6024 -0.1995 -0.1959
43952SOL    HW135387   5.136   0.836   7.730 -0.0897 -1.7801  1.0624
43952SOL    HW235388   5.135   0.793   7.585 -1.6757 -0.3608  0.6142
43953SOL     OW35389   2.732   5.474   9.514  0.4207  0.2708  0.5866
43953SOL    HW135390   2.675   5.427   9.575 -0.1989  1.1974  0.7443
43953SOL    HW235391   2.753   5.556   9.559  0.5366  0.6540 -0.1499
43954SOL     OW35392   2.517   8.430   1.766  0.2422  0.3573  0.2628
43954SOL    HW135393   2.434   8.451   1.808 -1.0874  0.3479 -2.1707
43954SOL    HW235394   2.545   8.512   1.725  1.0204  0.1628  0.3877
43955SOL     OW35395  10.031   5.239   8.796 -0.8042 -0.4069 -0.4682
43955SOL    HW135396  10.125   5.237   8.817 -0.4819  0.3294 -1.7306
43955SOL    HW235397   9.995   5.162   8.839  0.6599 -1.5727 -1.2451
43956SOL     OW35398   2.363   6.533   0.904  0.2073 -0.0064  0.0524
43956SOL    HW135399   2.366   6.486   0.821  2.3431 -0.5569  0.3868
43956SOL    HW235400   2.419   6.610   0.891 -0.8806  0.8824  0.4446
43957SOL     OW35401   2.519  10.334   1.000  0.5984  0.0259 -0.3770
43957SOL    HW135402   2.433  10.293   1.010  0.2194  0.6717 -0.9540
43957SOL    HW235403   2.506  10.425   1.026  0.8415  0.3981 -1.4856
43958SOL     OW35404   7.238   8.467   3.652  0.5301  0.5175 -0.1193
43958SOL    HW135405   7.208   8.383   3.619  1.5217 -0.1333  0.5810
43958SOL    HW235406   7.334   8.463   3.645  0.6227  1.3364  0.5112
43959SOL     OW35407   1.433   9.941   7.967  0.2294  0.2745  0.8362
43959SOL    HW135408   1.357   9.892   7.937 -0.3068  1.2353  0.5780
43959SOL    HW235409   1.445   9.914   8.058 -1.8340  1.7561  1.6304
43960SOL     OW35410   8.088   9.150   1.207 -0.1884 -0.5069 -0.3225
43960SOL    HW135411   8.023   9.213   1.239 -0.4025 -0.6967 -0.3896
43960SOL    HW235412   8.122   9.108   1.286  0.8920  0.6035 -0.1571
43961SOL     OW35413   6.884   5.685   8.437 -0.4349  0.2138  0.2564
43961SOL    HW135414   6.827   5.613   8.410  0.2240 -0.2083 -0.0372
43961SOL    HW235415   6.872   5.691   8.532 -1.5053  0.6068  0.1104
43962SOL     OW35416   7.198   5.337   3.602  0.0864  0.0622 -0.2608
43962SOL    HW135417   7.197   5.251   3.645  0.2331  0.3008  0.2353
43962SOL    HW235418   7.134   5.389   3.652  0.5301  0.4546 -0.0952
43963SOL     OW35419   5.130   2.345   8.919  0.6898  0.7114 -0.3864
43963SOL    HW135420   5.112   2.309   9.005  0.5521  1.2413 -0.1869
43963SOL    HW235421   5.167   2.432   8.936  2.2047  0.1688 -0.8365
43964SOL     OW35422   8.963   9.498   8.761  0.4863 -0.3508  0.6925
43964SOL    HW135423   9.053   9.490   8.731  0.4285  0.9454  0.1315
43964SOL    HW235424   8.965   9.568   8.826 -0.2257  0.1628  0.1764
43965SOL     OW35425   5.362   6.273  10.610  0.5472 -0.0814 -0.1293
43965SOL    HW135426   5.382   6.267  10.516  0.4621 -0.1323 -0.1441
43965SOL    HW235427   5.439   6.316  10.648 -0.4429  2.2783 -0.5970
43966SOL     OW35428   0.401   6.882   0.444 -0.0311 -0.0174 -0.4186
43966SOL    HW135429   0.445   6.821   0.502 -0.9645  0.5540  0.9485
43966SOL    HW235430   0.372   6.829   0.370 -0.9986 -1.3029  0.8264
43967SOL     OW35431   6.279   1.325   6.162 -0.1916 -0.1364  0.3473
43967SOL    HW135432   6.352   1.281   6.120 -0.0457 -2.1017  2.4492
43967SOL    HW235433   6.303   1.328   6.255 -1.3214  2.2376  0.6502
43968SOL     OW35434   9.923   4.388   7.484  0.0525  0.0526 -0.1442
43968SOL    HW135435   9.837   4.356   7.513 -0.3526  0.1548 -1.1818
43968SOL    HW235436   9.964   4.423   7.563 -0.9331  0.1530  0.3370
43969SOL     OW35437   9.610   1.048   8.359  0.3985  0.2389 -0.2552
43969SOL    HW135438   9.697   1.038   8.396  0.3487  0.1322 -0.1687
43969SOL    HW235439   9.554   0.995   8.415  0.2050  0.6517 -0.0470
43970SOL     OW35440   0.517   8.542   0.758  0.0094 -0.8228 -0.0466
43970SOL    HW135441   0.506   8.502   0.672  0.9829  0.6961 -0.9189
43970SOL    HW235442   0.600   8.590   0.752 -0.2923 -0.0432  1.4896
43971SOL     OW35443   7.026   5.340   1.242 -0.1214  0.2684 -0.3458
43971SOL    HW135444   6.940   5.299   1.248  0.2161 -0.6012 -1.1183
43971SOL    HW235445   7.010   5.433   1.254 -1.0351  0.0132  0.5569
43972SOL     OW35446   5.351   0.525   7.915  0.1978 -0.2685 -0.3372
43972SOL    HW135447   5.329   0.486   7.831 -0.8985  2.2910 -1.3242
43972SOL    HW235448   5.315   0.464   7.980  1.2600 -2.3921 -1.6441
43973SOL     OW35449   7.230   5.192   7.805  0.4232 -0.5898 -0.0814
43973SOL    HW135450   7.289   5.238   7.745  0.8904 -1.8187 -0.5899
43973SOL    HW235451   7.142   5.212   7.773  0.4273  2.2560  1.3978
43974SOL     OW35452   8.645   3.060   2.342  0.6463  0.2347 -0.2225
43974SOL    HW135453   8.657   3.153   2.327  1.6129  0.1140 -0.2580
43974SOL    HW235454   8.550   3.048   2.346  0.5293  1.3821  0.8302
43975SOL     OW35455   1.242   7.877   3.958  0.6165 -0.4119  0.7234
43975SOL    HW135456   1.269   7.947   3.900 -0.4820  0.9588  1.7940
43975SOL    HW235457   1.212   7.807   3.899  0.4466  0.5466 -0.3618
43976SOL     OW35458   1.875   2.709   0.641  0.5919 -1.0305 -0.4308
43976SOL    HW135459   1.801   2.768   0.631  0.6956 -0.8928 -0.4047
43976SOL    HW235460   1.891   2.707   0.736  0.6385 -1.0353 -0.4385
43977SOL     OW35461   9.066   1.098   1.328 -0.3012 -0.4118 -0.0487
43977SOL    HW135462   9.094   1.103   1.419  1.0872  1.3769 -0.5156
43977SOL    HW235463   9.145   1.073   1.280 -0.5331  0.5091 -0.9541
43978SOL     OW35464   7.300  10.472   9.752  0.0937 -0.0672 -0.2244
43978SOL    HW135465   7.306  10.425   9.835 -0.8305  0.7315  0.3013
43978SOL    HW235466   7.238  10.543   9.768  0.6132  0.6645 -1.3279
43979SOL     OW35467   9.480   8.652   7.067  0.5325  0.7438 -0.0850
43979SOL    HW135468   9.403   8.692   7.025 -0.2870  0.0430  0.7008
43979SOL    HW235469   9.512   8.720   7.126  0.4019  0.9815 -0.2855
43980SOL     OW35470   6.159   1.785  10.379  0.0730 -0.6183  0.3201
43980SOL    HW135471   6.181   1.701  10.340  1.4244 -0.8624  1.5050
43980SOL    HW235472   6.243   1.830  10.387 -0.6559  0.9660 -0.5236
43981SOL     OW35473   7.873   3.580   9.817 -0.5645  0.0765 -0.0924
43981SOL    HW135474   7.920   3.497   9.809 -1.2968 -0.3870  0.3203
43981SOL    HW235475   7.861   3.593   9.911  2.0377  2.1077  0.1013
43982SOL     OW35476   4.729   1.504   0.404 -0.7478  0.0363  0.2189
43982SOL    HW135477   4.736   1.449   0.483  0.5636 -0.4841 -0.2291
43982SOL    HW235478   4.646   1.477   0.364  0.2688 -2.3822 -0.4857
43983SOL     OW35479   6.794   4.965   8.324 -0.1603  0.3506  0.0040
43983SOL    HW135480   6.711   5.006   8.302 -1.2726 -1.3715  0.7959
43983SOL    HW235481   6.830   5.020   8.394 -0.8989  0.8117  0.0301
43984SOL     OW35482   5.007   3.891   9.186  0.3077 -0.2034  0.1511
43984SOL    HW135483   5.012   3.796   9.177  0.5960 -0.1198 -0.6729
43984SOL    HW235484   5.029   3.925   9.099  0.6784  0.6313  0.5557
43985SOL     OW35485   3.032   6.276  10.316 -0.1458  0.7967 -0.5888
43985SOL    HW135486   2.947   6.279  10.361  0.1807 -1.8236  0.3775
43985SOL    HW235487   3.012   6.245  10.228 -0.1785 -0.5779 -0.1272
43986SOL     OW35488   0.976   9.928   9.963  0.6720  0.5956 -0.0841
43986SOL    HW135489   0.881   9.919   9.969  0.8117 -0.0061  2.2038
43986SOL    HW235490   0.993   9.941   9.869 -1.4849 -1.1869 -0.8230
43987SOL     OW35491   8.387  10.612   7.813  0.8250  0.4548 -0.0166
43987SOL    HW135492   8.420  10.611   7.723 -0.8068 -2.0492 -0.6868
43987SOL    HW235493   8.303  10.658   7.807  1.3110  1.4533  0.5281
43988SOL     OW35494   6.706   3.656   9.341  0.2262 -0.0910 -0.1299
43988SOL    HW135495   6.796   3.686   9.351 -0.2094  0.9204  1.0581
43988SOL    HW235496   6.657   3.707   9.405 -1.1416 -0.8648 -0.5253
43989SOL     OW35497   5.906   7.387   9.607 -0.2607 -0.0652 -0.0476
43989SOL    HW135498   5.862   7.380   9.692  1.0643 -1.2118  0.5901
43989SOL    HW235499   5.879   7.309   9.559  0.2017 -0.2297 -0.0537
43990SOL     OW35500   4.045   8.785   6.649  0.4816 -0.4065 -0.0741
43990SOL    HW135501   3.958   8.747   6.650  0.5412 -0.5490  0.7662
43990SOL    HW235502   4.065   8.798   6.556 -0.7162  0.3020 -0.2431
43991SOL     OW35503   9.016   7.925   4.486  0.9058  0.0519 -0.1960
43991SOL    HW135504   8.928   7.897   4.512 -0.2443  3.6561  0.3820
43991SOL    HW235505   9.016   7.918   4.390  1.2232 -2.9379 -0.0542
43992SOL     OW35506   2.719   2.518   3.551 -0.0571 -1.1157 -0.0182
43992SOL    HW135507   2.705   2.571   3.630 -0.1870 -2.7408  1.0838
43992SOL    HW235508   2.693   2.576   3.479  1.7215  1.0568  0.9359
43993SOL     OW35509   8.270   2.289  10.083 -0.0719  0.3374  0.3103
43993SOL    HW135510   8.250   2.368  10.133  0.0687  1.4148 -1.2602
43993SOL    HW235511   8.192   2.274  10.030  0.0185 -0.4198  0.3830
43994SOL     OW35512  10.909   5.180   8.486  0.2497 -0.4774 -0.5705
43994SOL    HW135513  10.867   5.112   8.434  0.5768  0.5026 -2.1835
43994SOL    HW235514  10.996   5.190   8.447  0.2987  0.6726 -0.2049
43995SOL     OW35515  10.211   9.359   6.220 -0.1283 -0.3494  0.0046
43995SOL    HW135516  10.252   9.303   6.154 -1.3892 -0.2275 -0.9415
43995SOL    HW235517  10.206   9.445   6.179 -1.6123 -0.4445 -0.0687
43996SOL     OW35518   8.655   2.717   1.709 -0.6583  0.4722  0.0015
43996SOL    HW135519   8.746   2.748   1.706 -0.7511  0.7083 -0.3785
43996SOL    HW235520   8.663   2.622   1.703 -0.3879  0.4182  0.9226
43997SOL     OW35521   3.854   9.277  10.262 -0.3186  0.0288 -0.2869
43997SOL    HW135522   3.819   9.333  10.332 -0.1972 -1.2953  0.8773
43997SOL    HW235523   3.776   9.247  10.215 -0.7214 -1.4550  1.1822
43998SOL     OW35524  10.838   1.416   5.621  0.0355  0.0411  0.0026
43998SOL    HW135525  10.872   1.330   5.647  2.1595  0.9098  0.2922
43998SOL    HW235526  10.871   1.476   5.687 -0.4591  1.2570 -0.8158
43999SOL     OW35527   1.492   6.518   7.284 -0.1656 -0.4107  0.0052
43999SOL    HW135528   1.458   6.596   7.329  0.3888  0.5329 -1.1523
43999SOL    HW235529   1.530   6.465   7.353 -0.0721  0.6139  0.7608
44000SOL     OW35530   9.509   6.765   6.271  0.0896  0.1703 -0.1242
44000SOL    HW135531   9.465   6.795   6.192 -0.1456 -1.1557 -0.5244
44000SOL    HW235532   9.596   6.738   6.242 -0.0269 -0.4033  0.0352
44001SOL     OW35533   7.119   5.764   5.551 -0.2760  0.2110  0.6210
44001SOL    HW135534   7.132   5.777   5.645  0.0767  0.7574  0.4970
44001SOL    HW235535   7.082   5.676   5.544  2.7289 -1.2043  1.0242
44002SOL     OW35536   2.957   8.999   2.300  0.0671 -0.8074 -0.4126
44002SOL    HW135537   2.920   8.987   2.213 -1.8128  0.1845  0.1884
44002SOL    HW235538   3.018   8.926   2.311  0.2647 -1.0142 -2.4899
44003SOL     OW35539   2.476   2.396   1.717 -0.3711  0.1501 -0.0734
44003SOL    HW135540   2.406   2.442   1.670  1.9112  2.5271 -1.4191
44003SOL    HW235541   2.475   2.307   1.680 -1.7997  0.5222 -1.0268
44004SOL     OW35542   4.106   1.427   8.028 -0.0419  0.2151  0.4088
44004SOL    HW135543   4.057   1.388   7.955  0.4451  2.2328 -1.0811
44004SOL    HW235544   4.046   1.421   8.103 -1.2300 -0.3823 -0.5436
44005SOL     OW35545   6.367   4.050   7.539  0.0820  0.1136 -0.5649
44005SOL    HW135546   6.400   4.140   7.547 -1.3599  0.5862  0.7317
44005SOL    HW235547   6.355   4.021   7.629 -0.9654 -0.7835 -0.9639
44006SOL     OW35548   4.658   0.222   1.675 -0.2999  0.0734  0.0049
44006SOL    HW135549   4.625   0.242   1.762  1.6623 -0.7795  1.0173
44006SOL    HW235550   4.692   0.305   1.642  0.0675  0.1622  0.5890
44007SOL     OW35551   3.371   7.778   5.996  0.2202 -0.0914  0.7177
44007SOL    HW135552   3.294   7.722   6.009 -1.0459  1.3211 -0.3451
44007SOL    HW235553   3.335   7.865   5.977  2.1169  1.1853  2.5296
44008SOL     OW35554   8.308   4.538   2.831 -0.3367  0.1377  0.0280
44008SOL    HW135555   8.276   4.540   2.741  0.0918  0.3600 -0.1216
44008SOL    HW235556   8.233   4.509   2.883 -0.7727  0.6346 -0.3172
44009SOL     OW35557   6.160   5.308   1.004 -0.1267  0.8335 -0.2533
44009SOL    HW135558   6.092   5.360   1.047 -0.2481  0.3293  0.1735
44009SOL    HW235559   6.241   5.330   1.051  0.4373  3.0027 -2.0525
44010SOL     OW35560   5.222   5.212   3.768 -0.1537 -0.5752 -0.0441
44010SOL    HW135561   5.293   5.208   3.704 -0.3826 -1.1846 -0.2707
44010SOL    HW235562   5.143   5.225   3.714  0.0147  3.0467  0.3348
44011SOL     OW35563   5.050   8.877   8.390 -0.2181  0.2022 -0.4074
44011SOL    HW135564   5.099   8.804   8.351 -0.3429 -1.0926  1.7025
44011SOL    HW235565   4.961   8.867   8.354 -0.1618 -0.5233 -0.3730
44012SOL     OW35566   2.814  11.053   7.024 -0.1306 -0.0075  0.0467
44012SOL    HW135567   2.750  11.096   7.081  0.5451  0.1815  0.6853
44012SOL    HW235568   2.776  11.058   6.936 -0.6252  0.8077  0.2960
44013SOL     OW35569   4.299   9.081   0.499  0.1371 -0.0817 -0.0928
44013SOL    HW135570   4.376   9.105   0.448  0.5358 -0.5549  0.2717
44013SOL    HW235571   4.333   9.023   0.568 -0.5857 -0.5510 -0.1179
44014SOL     OW35572   1.611   5.689   7.836 -0.4374 -0.3817  0.3614
44014SOL    HW135573   1.591   5.635   7.760 -0.9062 -0.8491  0.8145
44014SOL    HW235574   1.692   5.734   7.812 -1.4499  0.7719 -1.1023
44015SOL     OW35575   2.611   4.389   1.585  0.0418  0.4635  0.1783
44015SOL    HW135576   2.581   4.316   1.639 -0.9453 -0.8176 -1.9533
44015SOL    HW235577   2.706   4.393   1.600  0.0192 -0.8431  0.8203
44016SOL     OW35578   3.305   8.868   1.142  0.1182  0.0891  0.0939
44016SOL    HW135579   3.226   8.815   1.152  1.2483 -1.3915  2.0135
44016SOL    HW235580   3.342   8.840   1.058 -2.0467  1.8845 -1.5983
44017SOL     OW35581   7.558   6.352  11.105 -0.5296  0.3940 -0.4218
44017SOL    HW135582   7.496   6.422  11.084  0.5353  0.9220 -1.9424
44017SOL    HW235583   7.549   6.289  11.034  1.3335  0.9673 -1.2290
44018SOL     OW35584   6.806   4.707   0.847  0.4496 -0.4309 -0.0505
44018SOL    HW135585   6.757   4.719   0.928 -1.3200 -1.3468 -0.9041
44018SOL    HW235586   6.837   4.617   0.851  1.4586 -0.0820  0.1554
44019SOL     OW35587   3.395   0.192   3.405  0.3632  0.4394  0.4778
44019SOL    HW135588   3.490   0.203   3.409  0.2961  0.7875  1.6542
44019SOL    HW235589   3.381   0.097   3.413  0.5993  0.4573  1.2384
44020SOL     OW35590   3.923  10.512   3.597  0.0188 -0.1504  0.1497
44020SOL    HW135591   3.956  10.594   3.634  0.0691  0.3497 -0.9493
44020SOL    HW235592   3.944  10.446   3.662  0.2013  0.6753  0.9488
44021SOL     OW35593   0.711   4.953   3.921  0.1468 -0.1473  0.1873
44021SOL    HW135594   0.769   4.949   3.997  1.1268 -2.2273 -0.5942
44021SOL    HW235595   0.692   5.047   3.910  1.1788  0.3304  2.0714
44022SOL     OW35596   4.176  10.749   7.626  0.2779 -0.2909  0.4182
44022SOL    HW135597   4.191  10.722   7.717 -0.2640  0.4888  0.7458
44022SOL    HW235598   4.225  10.685   7.575  0.7532 -0.6300  1.2636
44023SOL     OW35599   4.583   2.045  10.834  0.3081 -0.4071 -0.6043
44023SOL    HW135600   4.546   2.005  10.755 -0.3988 -0.6164 -0.1778
44023SOL    HW235601   4.635   2.118  10.802  2.1545 -2.0115 -1.4613
44024SOL     OW35602   6.453   4.666   2.390  0.4526 -0.1062  0.4545
44024SOL    HW135603   6.468   4.674   2.484 -1.7683 -0.8932  0.9568
44024SOL    HW235604   6.376   4.721   2.374  1.9588  1.6033 -1.3210
44025SOL     OW35605   2.437   3.715   2.209  0.2250  0.1632  0.5041
44025SOL    HW135606   2.400   3.690   2.124 -0.6214  0.1284  0.8754
44025SOL    HW235607   2.379   3.783   2.242  1.1942  0.9982  0.5577
44026SOL     OW35608   6.006   6.959   0.824 -0.2198 -0.2458 -0.0740
44026SOL    HW135609   6.082   7.010   0.798  0.2108  0.0489  1.6491
44026SOL    HW235610   5.931   7.008   0.787  0.3832 -0.8233 -2.2228
44027SOL     OW35611   6.306   9.556   4.716  0.0421 -0.0164 -0.4788
44027SOL    HW135612   6.321   9.467   4.748 -0.7157 -0.5859 -1.6508
44027SOL    HW235613   6.393   9.597   4.719  0.2049 -0.3693  1.2162
44028SOL     OW35614   6.352   2.626   3.524  0.1125  0.4568 -0.1192
44028SOL    HW135615   6.324   2.648   3.434 -0.7738 -1.1741 -0.2767
44028SOL    HW235616   6.340   2.531   3.530 -0.1647  0.5836  1.8383
44029SOL     OW35617   0.330   2.578   9.997 -0.3979 -0.1918  0.2229
44029SOL    HW135618   0.299   2.502   9.948 -1.2095  0.5560 -0.4724
44029SOL    HW235619   0.298   2.564  10.086  0.2733 -1.1066  0.3302
44030SOL     OW35620   0.838   2.506   7.500 -0.2403  0.4744  0.0971
44030SOL    HW135621   0.886   2.562   7.439 -1.4413  2.0964  0.5565
44030SOL    HW235622   0.808   2.432   7.448 -0.5868  1.4408 -1.1059
44031SOL     OW35623  10.930   6.039   6.465 -0.1304 -0.0255 -0.0323
44031SOL    HW135624  10.921   5.951   6.502  2.5568  0.6771  2.7708
44031SOL    HW235625  11.004   6.032   6.404 -1.1104 -0.0340 -1.2645
44032SOL     OW35626   3.274   7.469   0.416 -1.0669  0.3594  0.4777
44032SOL    HW135627   3.205   7.528   0.446 -0.4355  0.4977  1.6908
44032SOL    HW235628   3.292   7.498   0.326 -0.1111  2.6832  1.3449
44033SOL     OW35629   9.606   0.043  10.722  0.0920  0.3294  0.2891
44033SOL    HW135630   9.677  -0.022  10.726  0.3823  0.6506  0.4330
44033SOL    HW235631   9.643   0.121  10.763 -0.5333  0.3342  0.8672
44034SOL     OW35632   8.949  10.947   5.968  0.2046  0.4492  0.4428
44034SOL    HW135633   8.926  11.010   6.036  0.9487  0.3867  0.7605
44034SOL    HW235634   8.970  10.867   6.016  0.0345  0.1925  0.0933
44035SOL     OW35635  10.689  10.511   3.177  0.2825  0.3265  0.1433
44035SOL    HW135636  10.769  10.467   3.148  1.0733  0.8899  1.4065
44035SOL    HW235637  10.716  10.601   3.193 -0.3973  0.3187  1.4250
44036SOL     OW35638   2.483   0.235   4.691 -0.2897  0.5765 -0.0993
44036SOL    HW135639   2.522   0.252   4.777  2.4159  0.5001 -1.2181
44036SOL    HW235640   2.411   0.174   4.709  0.5444  0.1454  2.0557
44037SOL     OW35641   7.773   9.904   2.568  0.2259 -0.1529  0.1001
44037SOL    HW135642   7.866   9.914   2.546  0.2960  0.9268  0.8114
44037SOL    HW235643   7.742   9.993   2.582 -1.4587 -0.3056 -2.1010
44038SOL     OW35644   8.593  10.653   2.805  0.1269 -0.5229 -0.2123
44038SOL    HW135645   8.651  10.680   2.734  0.9601 -0.6754  0.3919
44038SOL    HW235646   8.566  10.735   2.846  0.9857 -0.4840  0.3176
44039SOL     OW35647   6.348   4.788   7.509 -0.8014 -0.1269 -0.2023
44039SOL    HW135648   6.282   4.764   7.443 -2.1547 -0.4887  1.2245
44039SOL    HW235649   6.299   4.792   7.591  0.5558  1.7518  0.5735
44040SOL     OW35650   6.315   9.058   6.681  0.2169  0.1603 -0.2732
44040SOL    HW135651   6.310   8.973   6.637 -1.1847 -0.6314  1.3485
44040SOL    HW235652   6.386   9.048   6.744  1.1402  0.7705 -1.1763
44041SOL     OW35653   9.846  10.510   3.637  0.5330  0.4219 -0.1296
44041SOL    HW135654   9.815  10.521   3.726  0.5899 -0.1824 -0.0360
44041SOL    HW235655   9.920  10.571   3.630  0.2026  0.8483  0.0706
44042SOL     OW35656   1.518   3.232   1.296 -0.3002 -0.0159 -0.1628
44042SOL    HW135657   1.482   3.179   1.224  1.0393  0.2983 -1.1221
44042SOL    HW235658   1.446   3.289   1.322 -0.5739  0.5402 -1.9435
44043SOL     OW35659   7.346   2.992   9.902  0.7175  0.3008 -0.5004
44043SOL    HW135660   7.369   2.901   9.882  0.4377  0.1168 -0.0118
44043SOL    HW235661   7.271   2.985   9.961  1.9404  0.7865  1.2042
44044SOL     OW35662   3.139  10.900   0.371  0.0825 -0.0351  0.3447
44044SOL    HW135663   3.216  10.885   0.426  0.9809  4.1718  0.5731
44044SOL    HW235664   3.066  10.862   0.421  1.4410 -0.3097  2.2172
44045SOL     OW35665   9.129   8.293   5.430 -0.5896  0.5071 -0.2885
44045SOL    HW135666   9.135   8.388   5.446  1.5663  0.4962 -0.8095
44045SOL    HW235667   9.201   8.274   5.371  1.7964 -2.1647  3.1035
44046SOL     OW35668  10.945   3.323  11.085  0.4776 -0.0551 -0.2728
44046SOL    HW135669  10.961   3.368  11.001 -1.0730 -0.9697 -1.0970
44046SOL    HW235670  10.858   3.352  11.111  1.1208  0.5837  1.3097
44047SOL     OW35671  10.965  10.330   5.417  0.7557 -0.4754  0.9051
44047SOL    HW135672  10.882  10.316   5.462 -0.4704 -0.4394 -1.2322
44047SOL    HW235673  11.020  10.257   5.446 -0.9987 -2.1633  0.1972
44048SOL     OW35674   7.243   6.610   2.265 -0.0714  0.7700 -0.1974
44048SOL    HW135675   7.250   6.561   2.183  2.6116  2.7995 -1.3548
44048SOL    HW235676   7.323   6.587   2.313  0.0024  2.0704  0.3397
44049SOL     OW35677   4.229   5.499   5.351 -0.3021 -0.0315 -0.5737
44049SOL    HW135678   4.198   5.484   5.441 -1.9165  0.6969 -0.9684
44049SOL    HW235679   4.153   5.535   5.305  0.1473 -1.4229 -2.5450
44050SOL     OW35680   4.560   1.715   6.061  0.0064  0.6583 -0.0727
44050SOL    HW135681   4.602   1.632   6.083 -0.4095  0.9450  2.0025
44050SOL    HW235682   4.469   1.693   6.041  0.4590  0.3572 -2.0166
44051SOL     OW35683   2.412   8.592   9.417 -0.0122 -0.1382  0.6443
44051SOL    HW135684   2.409   8.508   9.372 -3.2710 -0.2052  0.7434
44051SOL    HW235685   2.504   8.603   9.441  0.5516 -3.6419  0.6191
44052SOL     OW35686   6.366   3.926   5.193  0.4264  0.1018 -0.1401
44052SOL    HW135687   6.386   3.865   5.123 -1.3933  1.5648 -2.0553
44052SOL    HW235688   6.378   4.013   5.154 -1.2618  0.9681  1.1258
44053SOL     OW35689   0.157   9.170   9.963 -0.5536 -0.1493  0.4065
44053SOL    HW135690   0.145   9.257  10.001  2.0519 -0.0681  1.2355
44053SOL    HW235691   0.070   9.129   9.969 -1.5164  1.8876  1.2554
44054SOL     OW35692   4.353   6.623   7.763  0.5622 -0.4964  0.1046
44054SOL    HW135693   4.406   6.636   7.841  0.3220 -1.0378  0.3631
44054SOL    HW235694   4.271   6.586   7.795  1.0318 -2.1755 -0.5445
44055SOL     OW35695   9.169  10.057   6.226  0.0649 -0.9420 -0.0911
44055SOL    HW135696   9.153  10.119   6.298  2.3438 -0.9883  0.5313
44055SOL    HW235697   9.141  10.104   6.148  0.5226  0.4054  0.5179
44056SOL     OW35698   5.900   4.597   2.731 -0.3450  0.1447  0.5024
44056SOL    HW135699   5.873   4.673   2.783  0.6738  0.7792  0.1393
44056SOL    HW235700   5.847   4.525   2.764 -1.3895  1.0190  0.8191
44057SOL     OW35701   4.615   9.054   8.458 -0.4386 -0.6547  0.9339
44057SOL    HW135702   4.705   9.029   8.478 -1.0319 -2.1357  1.9051
44057SOL    HW235703   4.594   9.122   8.523  0.7603  1.6027 -0.9119
44058SOL     OW35704   1.642   9.025   5.303  0.0954  0.2403  0.0161
44058SOL    HW135705   1.732   9.049   5.282  0.2722 -0.7318 -0.4123
44058SOL    HW235706   1.630   9.053   5.393  0.6711  0.8087 -0.0775
44059SOL     OW35707   7.218   8.044   4.546  0.3673  0.6222 -0.1812
44059SOL    HW135708   7.177   8.048   4.460  0.5457  2.5540 -0.2029
44059SOL    HW235709   7.304   8.004   4.529 -0.4386 -1.0672 -0.5130
44060SOL     OW35710   5.490   3.127   3.434  0.1215  0.5027  0.4618
44060SOL    HW135711   5.573   3.099   3.472  0.5476  0.7460 -0.2696
44060SOL    HW235712   5.482   3.076   3.353 -0.8854 -0.1794  0.9646
44061SOL     OW35713   7.639  10.603   5.577  0.5762 -0.2614  0.2346
44061SOL    HW135714   7.726  10.563   5.583  1.5943  1.4828 -1.7724
44061SOL    HW235715   7.588  10.540   5.527  1.6065  0.0525 -1.2581
44062SOL     OW35716   6.314  10.057   3.694  0.0923  0.2808 -0.0809
44062SOL    HW135717   6.348  10.047   3.784  1.8761  3.2864 -0.2738
44062SOL    HW235718   6.391  10.044   3.638 -1.3363 -3.4623 -1.4863
44063SOL     OW35719   5.939   0.336   7.048 -0.0487 -0.2353  0.5053
44063SOL    HW135720   5.934   0.411   7.108 -0.7620  0.3796 -0.2951
44063SOL    HW235721   5.849   0.306   7.040 -0.0107 -0.0861 -0.5265
44064SOL     OW35722   9.597   9.608  10.043  0.1690 -0.0794 -0.0828
44064SOL    HW135723   9.650   9.535  10.073 -0.1866 -0.8170 -1.1839
44064SOL    HW235724   9.515   9.568  10.013  0.0387  0.7374 -0.8829
44065SOL     OW35725   3.924   0.201   6.057 -0.1537  0.1642  0.0983
44065SOL    HW135726   3.941   0.290   6.024 -0.5433  0.6443  1.1462
44065SOL    HW235727   4.011   0.163   6.069  0.0253  0.5050 -0.0902
44066SOL     OW35728   7.101   1.604   9.449 -0.0072 -0.7105 -0.2784
44066SOL    HW135729   7.010   1.631   9.464  0.3764  0.5637 -0.1200
44066SOL    HW235730   7.104   1.579   9.357 -0.6423 -1.2928 -0.1467
44067SOL     OW35731   2.958   7.178   3.329  1.2046  0.3198  0.2224
44067SOL    HW135732   2.961   7.251   3.392  2.6686  1.5856 -1.1995
44067SOL    HW235733   3.048   7.173   3.295  1.0407 -1.9404  0.0006
44068SOL     OW35734   3.889   5.793   8.703 -0.2619  0.1077  0.6385
44068SOL    HW135735   3.867   5.793   8.796  0.2746 -0.3559  0.7693
44068SOL    HW235736   3.931   5.878   8.689 -0.8470  0.4124  0.6892
44069SOL     OW35737   1.145   7.385   0.772  0.6492 -0.4928  0.0292
44069SOL    HW135738   1.055   7.375   0.741  1.1767 -1.8943 -1.1544
44069SOL    HW235739   1.198   7.380   0.693  1.7167  1.6052  0.5699
44070SOL     OW35740   5.139   0.842   8.879 -0.0994 -0.0488 -0.4658
44070SOL    HW135741   5.138   0.829   8.784 -0.9551  1.4879 -0.6994
44070SOL    HW235742   5.197   0.917   8.893 -1.6773  1.1474 -0.0234
44071SOL     OW35743   4.576   6.431   4.103 -0.5196 -0.9199  0.2318
44071SOL    HW135744   4.502   6.371   4.110 -0.9421 -0.7082 -1.8004
44071SOL    HW235745   4.578   6.476   4.188 -3.0783 -0.5514  0.1790
44072SOL     OW35746  10.306   4.535   4.842  0.1077  0.2227 -0.3118
44072SOL    HW135747  10.312   4.575   4.929 -0.6187  0.5808 -0.4139
44072SOL    HW235748  10.224   4.484   4.846 -1.1125  1.9770 -1.4608
44073SOL     OW35749   4.804  10.692   5.126  0.2827 -0.2257 -0.1676
44073SOL    HW135750   4.804  10.788   5.120 -0.4054 -0.2461 -0.6579
44073SOL    HW235751   4.734  10.665   5.067  1.1227 -1.0780 -0.8087
44074SOL     OW35752   5.343   2.052   4.758  0.1902  0.7573 -0.1370
44074SOL    HW135753   5.271   2.110   4.785 -1.8766 -1.9519  0.6594
44074SOL    HW235754   5.299   1.970   4.735  3.0204 -0.8036 -0.3335
44075SOL     OW35755  10.468   0.907   4.255 -0.1976 -0.0459  0.2646
44075SOL    HW135756  10.404   0.973   4.229  0.9916  1.2366  0.4963
44075SOL    HW235757  10.446   0.831   4.201 -1.4207  0.6095 -0.2171
44076SOL     OW35758  11.117   0.203   1.856  0.0967 -0.0831 -0.1788
44076SOL    HW135759  11.061   0.126   1.849 -1.6215  1.0988 -0.0370
44076SOL    HW235760  11.157   0.196   1.943 -1.0029 -0.2166  0.3353
44077SOL     OW35761   7.380   8.497   7.459 -0.1754 -0.0936  0.2670
44077SOL    HW135762   7.300   8.445   7.452 -0.7222  0.6965  0.5576
44077SOL    HW235763   7.450   8.434   7.444 -0.7752 -1.1445  1.6029
44078SOL     OW35764   3.616   9.545   4.133 -0.1147 -0.2469 -0.2733
44078SOL    HW135765   3.655   9.587   4.056 -1.5742  0.6320 -0.5734
44078SOL    HW235766   3.633   9.606   4.205  0.0172 -0.3901 -0.1831
44079SOL     OW35767   4.275   2.502   5.133 -0.5142  0.2460 -0.4598
44079SOL    HW135768   4.224   2.559   5.190 -0.4709 -1.0522  0.9393
44079SOL    HW235769   4.360   2.545   5.126 -0.5356  0.4534  0.4313
44080SOL     OW35770   3.825   2.558   9.455 -0.0663 -0.3390 -0.0753
44080SOL    HW135771   3.914   2.555   9.491 -0.2690 -2.2640  0.4230
44080SOL    HW235772   3.788   2.472   9.478 -1.6040 -0.0795 -1.4165
44081SOL     OW35773   1.781   3.416   8.998  0.1778 -0.0672  0.5382
44081SOL    HW135774   1.686   3.420   8.989  0.2622  0.8042 -0.0301
44081SOL    HW235775   1.814   3.483   8.939  1.2109 -1.2103 -0.2465
44082SOL     OW35776   0.040   5.315  10.508  0.9537 -0.7229  0.0999
44082SOL    HW135777   0.130   5.286  10.520  2.0871  2.3362 -0.1632
44082SOL    HW235778   0.047   5.406  10.482 -2.2806  0.2647  2.0168
44083SOL     OW35779   0.796   5.633   6.614  0.1845 -0.1130 -0.3641
44083SOL    HW135780   0.726   5.663   6.672 -0.2308 -0.3407 -0.7425
44083SOL    HW235781   0.788   5.688   6.536 -1.3775 -1.9347 -1.6013
44084SOL     OW35782   2.346  10.097   3.748  0.1672 -0.2217  0.1786
44084SOL    HW135783   2.354  10.116   3.654 -1.2053 -0.7259 -0.0714
44084SOL    HW235784   2.395  10.166   3.791 -2.4896  2.4600 -0.7585
44085SOL     OW35785   5.430   3.710   9.368 -0.0740  0.1168 -0.9940
44085SOL    HW135786   5.467   3.656   9.298 -0.8739 -2.5941  0.5116
44085SOL    HW235787   5.504   3.729   9.426 -0.4222 -4.0862  1.2625
44086SOL     OW35788   0.856   2.091   2.603  0.4929 -0.0451  0.3616
44086SOL    HW135789   0.949   2.078   2.619  0.5672  2.4909  2.8632
44086SOL    HW235790   0.851   2.125   2.514  1.7651 -1.5380 -0.3204
44087SOL     OW35791   2.517   0.876   6.926  1.1081  0.1607 -0.9783
44087SOL    HW135792   2.556   0.945   6.872 -0.4912  1.3889 -0.6402
44087SOL    HW235793   2.574   0.870   7.003  0.6358  1.9954 -0.4355
44088SOL     OW35794  10.686   5.469   9.826 -0.2988  0.5148  0.2418
44088SOL    HW135795  10.688   5.555   9.868 -2.9411  0.1557  1.3206
44088SOL    HW235796  10.621   5.419   9.876 -2.4032 -0.5383 -3.1824
44089SOL     OW35797   2.365  10.208   5.284 -0.1075  0.3028 -0.4593
44089SOL    HW135798   2.451  10.166   5.274 -0.0889  0.4149 -0.7611
44089SOL    HW235799   2.381  10.282   5.342 -0.0511  0.1659 -0.3005
44090SOL     OW35800   7.668   7.011   7.680 -0.3771  0.3193  1.0156
44090SOL    HW135801   7.609   6.939   7.658  0.0556  0.1915  0.2242
44090SOL    HW235802   7.633   7.048   7.761 -0.7310 -0.6456  1.3168
44091SOL     OW35803   8.773   0.493   8.697  0.7566  0.3366  0.0263
44091SOL    HW135804   8.748   0.405   8.667 -0.0433  0.1655  1.1607
44091SOL    HW235805   8.864   0.503   8.668  1.9217 -2.0678  2.3980
44092SOL     OW35806   0.286   9.157   6.677 -0.4453 -0.0743 -0.1334
44092SOL    HW135807   0.307   9.064   6.680 -0.9911 -0.1856  0.3508
44092SOL    HW235808   0.310   9.184   6.588 -0.4774 -0.7175 -0.3435
44093SOL     OW35809   8.002   1.325  10.769 -0.1518  0.2575  0.1207
44093SOL    HW135810   8.033   1.301  10.682 -0.3143  2.2341 -0.5469
44093SOL    HW235811   8.070   1.294  10.828  1.0751  0.8566 -0.9333
44094SOL     OW35812   0.390  10.247   0.804  0.1483  0.1532  0.1629
44094SOL    HW135813   0.395  10.198   0.722  0.5222 -0.4271  0.5326
44094SOL    HW235814   0.357  10.333   0.777  0.4448  0.0364 -0.6269
44095SOL     OW35815  10.541   7.849   7.058  0.2309  0.4159 -0.6428
44095SOL    HW135816  10.600   7.779   7.030 -0.2474 -0.0454 -0.5235
44095SOL    HW235817  10.510   7.820   7.144 -1.0786  0.0568 -1.2041
44096SOL     OW35818   9.428   9.270   3.132 -0.0028 -0.6088 -0.1551
44096SOL    HW135819   9.466   9.269   3.044 -0.9834 -1.9725 -0.6002
44096SOL    HW235820   9.346   9.221   3.124 -0.0053 -0.9739  1.5626
44097SOL     OW35821   2.537   7.025   0.538  0.2302  0.1573  0.0535
44097SOL    HW135822   2.533   7.092   0.471  0.1456  1.2487  1.1077
44097SOL    HW235823   2.483   7.059   0.610 -0.8883 -1.6152  0.1338
44098SOL     OW35824  10.451   4.118   7.519 -0.0197 -0.0669 -0.0636
44098SOL    HW135825  10.494   4.187   7.569 -0.1363 -1.0264  1.4238
44098SOL    HW235826  10.375   4.161   7.479  0.6627  0.9597 -0.2909
44099SOL     OW35827   0.421   4.029   1.098  0.3883 -0.0601 -0.2302
44099SOL    HW135828   0.337   4.054   1.060 -0.2151 -0.2104  0.9438
44099SOL    HW235829   0.486   4.060   1.036 -0.5662 -1.0031 -1.7707
44100SOL     OW35830   5.487   6.530  10.852 -0.1769  0.0094 -0.0242
44100SOL    HW135831   5.397   6.509  10.826  0.1241 -1.6916  0.1938
44100SOL    HW235832   5.542   6.487  10.786  0.4943  0.0864  0.4735
44101SOL     OW35833   7.850   7.890   9.134 -0.2787 -0.3019 -0.2489
44101SOL    HW135834   7.853   7.855   9.223  1.5822 -0.2336 -0.2533
44101SOL    HW235835   7.900   7.972   9.139  0.3842 -0.6060 -1.4704
44102SOL     OW35836   9.494   5.238   1.596 -0.0425  0.0023 -0.2320
44102SOL    HW135837   9.519   5.183   1.670  0.4828 -0.7448 -0.9490
44102SOL    HW235838   9.576   5.275   1.565  0.2848 -2.3963 -2.5476
44103SOL     OW35839   0.305   1.670   2.518 -0.2183  0.1218  0.0574
44103SOL    HW135840   0.294   1.579   2.545 -0.1765  0.2751  0.5858
44103SOL    HW235841   0.341   1.715   2.594 -0.0382  0.5397 -0.2673
44104SOL     OW35842   0.458   5.021   7.647 -0.1411 -0.2442 -0.1498
44104SOL    HW135843   0.367   4.997   7.631  0.5225 -2.3840 -1.1282
44104SOL    HW235844   0.500   5.014   7.562  1.0727  0.0742  0.4064
44105SOL     OW35845   1.776   0.464   3.373 -0.1775  0.0275 -0.2044
44105SOL    HW135846   1.717   0.433   3.303 -0.9972  3.9813 -1.4879
44105SOL    HW235847   1.733   0.542   3.407  2.0987  0.3532  2.1830
44106SOL     OW35848   9.330   6.818   5.476  0.6471 -0.3957  0.4031
44106SOL    HW135849   9.327   6.824   5.381 -0.0798 -0.0001  0.4397
44106SOL    HW235850   9.239   6.830   5.504  0.9720  0.3807  1.1852
44107SOL     OW35851   7.379   7.124   8.272 -0.3978  0.5980 -0.0291
44107SOL    HW135852   7.307   7.088   8.220 -0.1369 -0.7036  0.4776
44107SOL    HW235853   7.390   7.062   8.344  1.8953  0.2021 -0.6368
44108SOL     OW35854   2.937  10.953   8.419  0.1499 -0.3451 -0.4044
44108SOL    HW135855   2.859  10.942   8.365  1.1804  1.5429 -2.4347
44108SOL    HW235856   2.911  11.015   8.487 -0.1503  0.2907 -1.0832
44109SOL     OW35857   8.046   8.479  10.275 -0.2530 -0.6461 -0.2887
44109SOL    HW135858   8.012   8.402  10.228  0.4288 -1.2250  0.1358
44109SOL    HW235859   8.045   8.453  10.367 -1.0689  0.2847 -0.0139
44110SOL     OW35860   7.339   6.456  10.138  0.3580 -0.2287 -0.0311
44110SOL    HW135861   7.286   6.376  10.134  1.4499 -0.9646 -0.2369
44110SOL    HW235862   7.377   6.464  10.051  3.1283 -1.5390  0.9369
44111SOL     OW35863   5.183   8.615   9.017 -0.1765 -0.0381  0.5859
44111SOL    HW135864   5.136   8.697   9.003  0.3627  0.1917  0.0457
44111SOL    HW235865   5.150   8.582   9.100  1.2533  1.9022  2.0278
44112SOL     OW35866   3.878   1.429   6.316  0.0133 -0.0701  0.1315
44112SOL    HW135867   3.911   1.377   6.242 -0.3931  1.3925 -1.1228
44112SOL    HW235868   3.819   1.369   6.362 -0.6286 -0.6858 -1.4027
44113SOL     OW35869   3.465   4.704  10.231 -0.3624  0.7651  0.5560
44113SOL    HW135870   3.486   4.797  10.241 -0.1389  0.8115 -0.2346
44113SOL    HW235871   3.449   4.673  10.320 -0.6207  1.6048  0.8096
44114SOL     OW35872   2.511   0.582   5.749  0.0888  0.3457 -0.3014
44114SOL    HW135873   2.467   0.498   5.743 -1.4474  1.1641 -1.2724
44114SOL    HW235874   2.591   0.572   5.696 -0.7901 -0.0971 -1.5748
44115SOL     OW35875   4.393   9.076   7.853 -0.2461  0.6852  0.6554
44115SOL    HW135876   4.400   9.021   7.775  0.1075  0.5676  0.7634
44115SOL    HW235877   4.343   9.023   7.915 -0.4959  0.7638  0.5224
44116SOL     OW35878   0.987   2.218   6.171  0.0991 -0.4524  0.8168
44116SOL    HW135879   1.079   2.228   6.150 -0.0694  0.8654  0.6247
44116SOL    HW235880   0.950   2.171   6.096  0.6363 -1.1647  0.9882
44117SOL     OW35881   2.370   9.545   9.836 -0.4542  0.2539  0.3622
44117SOL    HW135882   2.357   9.490   9.759 -0.1486 -0.8519  1.0832
44117SOL    HW235883   2.419   9.490   9.897 -2.6654  0.2565  2.2709
44118SOL     OW35884   7.638   1.029   2.516  0.0506 -0.2314 -0.1525
44118SOL    HW135885   7.723   0.988   2.502  0.3264 -0.0801  0.9728
44118SOL    HW235886   7.584   0.959   2.553  0.3377  0.2214  1.1753
44119SOL     OW35887   2.323  10.885   9.144 -0.5615  0.2827 -0.5012
44119SOL    HW135888   2.251  10.927   9.098  1.5655  1.7824 -2.7177
44119SOL    HW235889   2.329  10.932   9.227 -1.2239  1.1118 -0.9036
44120SOL     OW35890   4.793   1.383   4.678 -0.9950 -0.6628 -0.2136
44120SOL    HW135891   4.811   1.314   4.742 -0.4993 -0.1571  0.1928
44120SOL    HW235892   4.790   1.337   4.594 -0.3923 -1.1363  0.0198
44121SOL     OW35893   7.647   6.037   0.456  0.0262  0.0831  0.2772
44121SOL    HW135894   7.672   6.011   0.367 -0.7733 -1.3902  0.4456
44121SOL    HW235895   7.729   6.058   0.500  0.6093 -1.0068 -0.2685
44122SOL     OW35896   6.326   1.763   4.603  0.4133 -0.0280 -0.2914
44122SOL    HW135897   6.360   1.681   4.639  1.2872  0.0962 -0.7874
44122SOL    HW235898   6.243   1.739   4.562 -0.0102 -0.3918  0.7480
44123SOL     OW35899   7.068   3.058   5.854 -1.0442 -0.3862  0.1781
44123SOL    HW135900   7.041   3.121   5.787 -1.3173  0.8749  1.4425
44123SOL    HW235901   7.162   3.072   5.864 -0.9780 -0.6694 -0.0253
44124SOL     OW35902   2.549   8.500   8.199  0.0691  0.1210 -0.5985
44124SOL    HW135903   2.578   8.519   8.110 -0.0707  0.6755 -0.5323
44124SOL    HW235904   2.630   8.477   8.246  0.2468  0.5286 -0.6978
44125SOL     OW35905   3.471   2.104   7.071  0.2302 -0.1668  0.0178
44125SOL    HW135906   3.541   2.167   7.088  0.5443  0.0048 -1.7241
44125SOL    HW235907   3.518   2.023   7.051 -0.1369 -0.5534  0.7011
44126SOL     OW35908  10.983  10.391   7.331  0.2926 -0.0657  0.1236
44126SOL    HW135909  10.970  10.302   7.366  0.3877  0.2662  1.0336
44126SOL    HW235910  10.908  10.441   7.363  2.3677  1.2738  3.4532
44127SOL     OW35911   5.099   3.191   0.143 -0.0072 -0.0541  0.3587
44127SOL    HW135912   5.122   3.252   0.073 -0.3881 -0.1733  0.1240
44127SOL    HW235913   5.017   3.225   0.178 -0.9613 -1.1857 -0.6944
44128SOL     OW35914   0.136   7.472  11.007  0.1837  0.0855  0.2484
44128SOL    HW135915   0.085   7.547  11.038  0.7449  0.2819  0.7310
44128SOL    HW235916   0.073   7.401  10.997 -0.4474  0.7642 -0.7247
44129SOL     OW35917   0.437   5.144   6.331 -0.2458  0.1041 -0.0926
44129SOL    HW135918   0.342   5.147   6.321 -0.4710 -0.8960  1.3227
44129SOL    HW235919   0.458   5.050   6.331  0.4969  0.2384  1.2992
44130SOL     OW35920   3.819   6.489  10.835 -0.4624 -0.7693  0.0976
44130SOL    HW135921   3.735   6.445  10.821 -0.5070 -0.3757 -1.0161
44130SOL    HW235922   3.858   6.492  10.748  1.3648 -2.2059  0.7914
44131SOL     OW35923   3.064   0.280   1.309 -0.1105 -0.1128 -0.6454
44131SOL    HW135924   3.139   0.307   1.258  0.1697 -0.5473 -0.4699
44131SOL    HW235925   2.993   0.337   1.280 -0.1046 -0.7393 -1.9374
44132SOL     OW35926  10.998   4.575   3.945 -0.6859  0.6035  0.2104
44132SOL    HW135927  11.044   4.601   4.025  0.7079 -0.3151 -0.2655
44132SOL    HW235928  10.929   4.515   3.974 -0.9004  1.1368  0.8169
44133SOL     OW35929   2.855   4.741   5.741  0.0317  0.4601  0.4584
44133SOL    HW135930   2.767   4.759   5.707 -0.4862 -0.9570  0.9952
44133SOL    HW235931   2.902   4.703   5.666 -0.4115 -0.5406  0.6694
44134SOL     OW35932   5.617   9.206  10.175  0.4452 -0.3416 -0.2479
44134SOL    HW135933   5.591   9.185  10.085  2.4371 -0.3379 -0.8539
44134SOL    HW235934   5.681   9.139  10.198  2.8554  1.8274 -0.2444
44135SOL     OW35935   9.444   1.776   5.417 -0.0088  0.3667  0.8772
44135SOL    HW135936   9.484   1.724   5.486 -1.7584  0.7408  2.2687
44135SOL    HW235937   9.499   1.762   5.341  0.2225 -2.6554  1.4607
44136SOL     OW35938  10.289   3.023   9.421  0.4249 -0.2009 -0.4280
44136SOL    HW135939  10.265   2.974   9.342  0.2823  0.2774 -0.6901
44136SOL    HW235940  10.294   2.958   9.490 -1.3407 -0.3865 -0.4218
44137SOL     OW35941  10.968  11.056   3.399  0.0413  0.3407  0.2776
44137SOL    HW135942  10.919  11.094   3.327  1.4562  3.3794  0.7340
44137SOL    HW235943  10.906  11.051   3.472 -0.6958 -0.1781 -0.3805
44138SOL     OW35944   8.557   9.398   6.774  0.1512 -0.1795 -0.3599
44138SOL    HW135945   8.583   9.441   6.855  1.6992 -1.4657 -0.1434
44138SOL    HW235946   8.544   9.306   6.798 -4.0179  0.1578 -0.6084
44139SOL     OW35947   5.059   3.278   3.299 -0.6007 -0.3348  0.1394
44139SOL    HW135948   5.067   3.183   3.293 -1.0258 -0.3380 -0.4889
44139SOL    HW235949   5.147   3.308   3.322 -0.5260 -0.8953  0.6157
44140SOL     OW35950   5.769   1.409   0.548  0.2578  0.5723  0.1737
44140SOL    HW135951   5.769   1.385   0.455  1.2182 -0.6022  0.4623
44140SOL    HW235952   5.771   1.326   0.594  1.8274  1.1589  1.2286
44141SOL     OW35953   0.118   0.227   0.490  0.2387  0.3453 -0.1722
44141SOL    HW135954   0.039   0.217   0.436  0.1674  0.1875 -0.0381
44141SOL    HW235955   0.175   0.156   0.461  0.9287  1.3252 -1.3030
44142SOL     OW35956   3.284   9.791   1.368 -0.2798  0.2751 -0.6005
44142SOL    HW135957   3.351   9.725   1.386 -0.8182 -0.0949  0.1240
44142SOL    HW235958   3.302   9.860   1.432  1.6577  1.9236 -2.7803
44143SOL     OW35959   9.341  10.329  10.772 -0.0952 -0.4053 -0.3306
44143SOL    HW135960   9.367  10.420  10.759 -1.2555  0.1447  0.9695
44143SOL    HW235961   9.287  10.330  10.851 -0.3865 -2.1792 -0.4602
44144SOL     OW35962   0.086   5.504   1.472  0.8971  0.3318  0.4999
44144SOL    HW135963   0.032   5.533   1.398  0.2932  1.0746  1.2142
44144SOL    HW235964   0.089   5.409   1.463  0.4452  0.3723 -0.2156
44145SOL     OW35965  10.537  10.615   5.063  0.0701  0.2940  0.2456
44145SOL    HW135966  10.461  10.580   5.110 -0.9240  1.9494 -0.0248
44145SOL    HW235967  10.499  10.661   4.988  1.2608  1.9886  0.6289
44146SOL     OW35968   3.154  10.696  10.741  0.2574  0.0831 -0.0014
44146SOL    HW135969   3.203  10.627  10.695 -0.3198  0.0971 -0.6505
44146SOL    HW235970   3.098  10.649  10.803  1.6043  0.0996  1.2873
44147SOL     OW35971   5.610   8.436   4.764  0.4791  0.2320 -0.1787
44147SOL    HW135972   5.554   8.394   4.829 -2.8877  0.5882 -2.5467
44147SOL    HW235973   5.658   8.503   4.812 -2.2233  0.8403  1.8762
44148SOL     OW35974  10.303   6.469   1.262  0.2326  0.2683 -0.0517
44148SOL    HW135975  10.262   6.408   1.325 -0.5165  0.4947 -0.3118
44148SOL    HW235976  10.256   6.551   1.275 -1.2625 -0.1510 -2.1918
44149SOL     OW35977   8.987   4.438   9.726 -0.5618  0.4101  0.7683
44149SOL    HW135978   9.075   4.475   9.728  1.2646 -2.8815 -3.2994
44149SOL    HW235979   8.936   4.500   9.674  0.8510  0.0694 -1.1341
44150SOL     OW35980   4.139  10.983  10.556  0.4968  0.2267 -0.0977
44150SOL    HW135981   4.176  11.071  10.568  0.3180  0.2444  0.3306
44150SOL    HW235982   4.152  10.965  10.463  0.3212  0.8067 -0.2423
44151SOL     OW35983   3.727   1.480   7.696  0.2878 -0.4998  0.4179
44151SOL    HW135984   3.731   1.476   7.792  0.5267  2.6232  0.6489
44151SOL    HW235985   3.635   1.464   7.675 -0.1171  0.4425  1.3614
44152SOL     OW35986   1.325  11.000  10.074 -0.2035 -0.2295 -0.0620
44152SOL    HW135987   1.370  10.925  10.112  2.4392  1.9492  1.5054
44152SOL    HW235988   1.266  11.030  10.143 -0.0691  0.0396 -0.0612
44153SOL     OW35989   4.220   8.470   9.033  0.0063 -0.2245 -0.0227
44153SOL    HW135990   4.288   8.538   9.034 -0.2817  0.0647  0.8640
44153SOL    HW235991   4.142   8.514   9.067 -0.5775 -0.6079 -0.8514
44154SOL     OW35992   7.062   6.873   3.299  0.8134 -0.0677 -0.2834
44154SOL    HW135993   7.034   6.937   3.364 -1.1913 -1.5613  0.4205
44154SOL    HW235994   7.155   6.891   3.287  0.4854  2.4693  0.4123
44155SOL     OW35995  10.803   1.135   8.085 -0.5188 -0.0305  0.0637
44155SOL    HW135996  10.792   1.064   8.021  0.0958 -1.1273  1.1246
44155SOL    HW235997  10.733   1.197   8.063 -0.1577 -0.2099 -1.8399
44156SOL     OW35998   2.106   0.138   5.438  0.0156 -0.0424  0.0009
44156SOL    HW135999   2.026   0.091   5.415  1.8689 -2.6333 -1.7046
44156SOL    HW236000   2.121   0.197   5.364  0.5502 -0.8231 -0.5269
44157SOL     OW36001  11.017   0.436   2.568 -0.2294 -0.8527  0.4348
44157SOL    HW136002  11.098   0.483   2.551 -0.2871 -0.9144 -0.0272
44157SOL    HW236003  11.044   0.347   2.590 -0.2415 -1.5170 -1.9663
44158SOL     OW36004   0.368   0.949   2.622  0.5268  0.3318 -0.1452
44158SOL    HW136005   0.304   0.904   2.567 -1.1677  0.4645  1.5985
44158SOL    HW236006   0.448   0.951   2.570  0.6496 -4.3358 -0.5173
44159SOL     OW36007   1.608  10.464   2.607  0.0178 -0.4653  0.1516
44159SOL    HW136008   1.604  10.379   2.650  1.8188 -0.4238  0.5049
44159SOL    HW236009   1.560  10.523   2.665 -0.0210 -0.9712  0.6373
44160SOL     OW36010   6.223   0.923   6.128  0.3171 -0.2538  0.3091
44160SOL    HW136011   6.301   0.977   6.114  0.6580 -0.4640  1.2958
44160SOL    HW236012   6.242   0.874   6.208 -1.5607  1.0296  1.6144
44161SOL     OW36013   6.499   0.166   0.983  0.5894  0.2613  0.3004
44161SOL    HW136014   6.537   0.215   1.056 -0.8658 -0.5361  1.6237
44161SOL    HW236015   6.415   0.135   1.015 -0.0954 -0.1230 -1.7267
44162SOL     OW36016   1.834   2.259   2.589 -0.1869 -0.3397 -0.0793
44162SOL    HW136017   1.921   2.221   2.584  0.7781  1.6171  0.8729
44162SOL    HW236018   1.830   2.322   2.518 -0.2668  0.6175  0.7529
44163SOL     OW36019   1.927  10.200  10.356  0.2368 -0.3690 -0.3629
44163SOL    HW136020   1.987  10.147  10.303  0.8797  0.4943 -0.5234
44163SOL    HW236021   1.891  10.138  10.419  0.5043 -1.1259 -0.9255
44164SOL     OW36022   8.373   3.104   1.270  0.3308  0.9997  0.3497
44164SOL    HW136023   8.432   3.029   1.278  0.8081  1.4706  1.4828
44164SOL    HW236024   8.286   3.068   1.287  0.5971  0.7590  1.2445
44165SOL     OW36025   9.183   3.839   5.699 -0.2082  0.4668  0.1342
44165SOL    HW136026   9.148   3.926   5.682 -0.9759  0.7881  2.9228
44165SOL    HW236027   9.122   3.801   5.762  1.3530 -1.2304  0.6918
44166SOL     OW36028   9.425  11.096   7.100  0.0345  0.2137 -0.4483
44166SOL    HW136029   9.519  11.083   7.111  0.0500  0.8850  0.3834
44166SOL    HW236030   9.385  11.024   7.150  0.1100  0.3436 -0.1990
44167SOL     OW36031   9.977   5.079   6.566 -0.1853 -0.3893 -0.2508
44167SOL    HW136032   9.896   5.096   6.517  0.1569  0.7537 -0.4358
44167SOL    HW236033  10.002   5.164   6.602 -1.1054 -1.3519  3.0123
44168SOL     OW36034  11.071   5.376   8.827  0.5432 -0.0065  0.0213
44168SOL    HW136035  10.993   5.344   8.872  0.6647 -0.9668 -0.4263
44168SOL    HW236036  11.039   5.402   8.740  0.7320 -0.5537 -0.2207
44169SOL     OW36037  10.779   2.563   8.886 -0.8335 -0.3122 -0.2565
44169SOL    HW136038  10.756   2.655   8.904  2.3912  0.3272  1.2800
44169SOL    HW236039  10.755   2.517   8.967  3.3514  0.5142  1.7280
44170SOL     OW36040   7.915  10.550  10.869  0.1549 -0.4989  0.1374
44170SOL    HW136041   7.994  10.573  10.918 -0.1976 -2.2615  1.6485
44170SOL    HW236042   7.938  10.468  10.824 -0.6658 -0.8282  0.3029
44171SOL     OW36043   3.872   7.124   1.753  0.0081  0.6445  0.3379
44171SOL    HW136044   3.948   7.151   1.803 -0.7327  1.1893  1.2133
44171SOL    HW236045   3.897   7.136   1.661  1.1940  0.1608  0.5881
44172SOL     OW36046   8.324   9.478  10.670  0.1315  0.1948  0.5673
44172SOL    HW136047   8.329   9.383  10.676 -0.0768  0.0097 -1.4676
44172SOL    HW236048   8.232   9.496  10.647  0.2965  0.8433  0.3940
44173SOL     OW36049  10.180   9.920   7.566 -0.3129  0.4706  0.6142
44173SOL    HW136050  10.195   9.984   7.496 -0.3510 -0.1480  0.0246
44173SOL    HW236051  10.243   9.943   7.634 -0.1192  0.9450  0.2791
44174SOL     OW36052   1.643   6.100   3.306  0.3468  0.1681 -0.4006
44174SOL    HW136053   1.670   6.185   3.342 -2.4911  0.2890  1.8074
44174SOL    HW236054   1.583   6.122   3.235  1.9866 -0.0897 -1.9431
44175SOL     OW36055   4.869   8.780   4.174  0.3964 -0.6872  0.1434
44175SOL    HW136056   4.964   8.784   4.185  0.6990  0.3773 -2.1271
44175SOL    HW236057   4.834   8.794   4.261  2.3254  0.2779  0.8280
44176SOL     OW36058   0.292   2.858   2.108 -0.4697 -0.1265 -0.1142
44176SOL    HW136059   0.328   2.944   2.085 -0.0928 -0.5093 -1.0029
44176SOL    HW236060   0.289   2.858   2.204 -0.7545  0.9856 -0.1085
44177SOL     OW36061   9.071   7.203   9.012  0.1093  0.5183  0.3679
44177SOL    HW136062   9.116   7.209   8.927 -0.0443 -0.3315  0.2196
44177SOL    HW236063   9.075   7.292   9.047  0.6302  0.7697 -0.2979
44178SOL     OW36064   7.652   5.967   1.556 -0.2431 -0.2051 -0.4420
44178SOL    HW136065   7.708   5.985   1.631  0.5660 -2.3687 -0.4674
44178SOL    HW236066   7.664   6.042   1.498 -0.5710  1.3143  1.3704
44179SOL     OW36067   2.852   7.336  10.020  0.5614  0.1757  0.0596
44179SOL    HW136068   2.854   7.432  10.019  1.1840  0.1632 -0.8076
44179SOL    HW236069   2.937   7.310   9.986  0.2735 -0.6882 -0.0183
44180SOL     OW36070   9.560   5.905   3.985 -0.1571 -0.1244 -0.4963
44180SOL    HW136071   9.574   5.935   3.895 -0.2756 -0.8818 -0.7706
44180SOL    HW236072   9.649   5.897   4.022  0.0050 -1.5997 -1.1433
44181SOL     OW36073   0.549   2.437   1.331  0.5467  0.1277 -0.7025
44181SOL    HW136074   0.614   2.447   1.401 -2.0218 -0.8959  2.0494
44181SOL    HW236075   0.578   2.360   1.283  1.4116 -0.2670  0.4004
44182SOL     OW36076   7.042   9.141   6.363 -0.3291  0.3506  0.1901
44182SOL    HW136077   7.000   9.059   6.390  1.3626 -0.3598  0.7950
44182SOL    HW236078   6.970   9.196   6.332 -1.4337 -1.5972 -0.8533
44183SOL     OW36079   9.631  10.437   3.004  0.4784 -0.2453 -0.1392
44183SOL    HW136080   9.599  10.348   3.020 -0.3305 -0.0745 -0.8029
44183SOL    HW236081   9.727  10.428   3.005  0.4059 -1.0235  0.3224
44184SOL     OW36082   0.617   4.151   5.310  0.1609  0.0940 -0.5099
44184SOL    HW136083   0.661   4.111   5.235  0.7438  0.4449 -0.3605
44184SOL    HW236084   0.685   4.201   5.355  0.0359 -0.8390  0.7729
44185SOL     OW36085   9.185   8.528   8.114  0.5199 -0.4515  0.0574
44185SOL    HW136086   9.145   8.554   8.197 -0.6321  1.2501 -0.9915
44185SOL    HW236087   9.278   8.519   8.135  0.1498 -0.8689  1.7052
44186SOL     OW36088   5.199  10.296   3.251 -0.0223  0.0899 -0.3446
44186SOL    HW136089   5.207  10.262   3.340 -2.2310 -1.8105 -0.7937
44186SOL    HW236090   5.225  10.388   3.258  0.1575 -0.0901  2.1739
44187SOL     OW36091   6.964   1.706   8.729 -0.1970  0.8079 -0.4659
44187SOL    HW136092   6.929   1.696   8.640 -0.6998  0.7908 -0.2672
44187SOL    HW236093   6.887   1.723   8.784 -0.0132 -0.1715  0.1211
44188SOL     OW36094   9.500   6.159   8.695  0.2934  0.0105 -0.6634
44188SOL    HW136095   9.505   6.227   8.762  2.2359 -2.1510  1.5809
44188SOL    HW236096   9.580   6.171   8.643 -0.4851  0.7721 -1.7321
44189SOL     OW36097   8.612   8.355   5.852 -0.0157  0.1575 -0.0999
44189SOL    HW136098   8.561   8.284   5.813  0.5353 -0.2478 -0.1078
44189SOL    HW236099   8.668   8.386   5.781 -0.3321  0.6801 -0.1259
44190SOL     OW36100   9.365   9.953   5.938  0.3647  0.5856 -0.1496
44190SOL    HW136101   9.451   9.993   5.927  0.5658  0.5226  1.0644
44190SOL    HW236102   9.304  10.023   5.915  0.7260  0.6136 -1.0746
44191SOL     OW36103   7.480   2.368   8.666  0.3678 -0.0212  0.2205
44191SOL    HW136104   7.549   2.307   8.694 -1.1672 -1.2654  1.4546
44191SOL    HW236105   7.488   2.370   8.571  2.5992  0.5028  0.3519
44192SOL     OW36106   7.250   6.770   5.338  0.1146  0.0219 -0.1612
44192SOL    HW136107   7.165   6.737   5.367 -0.6295 -0.3797 -2.5727
44192SOL    HW236108   7.230   6.853   5.295  1.0226  0.1971 -0.2618
44193SOL     OW36109   1.075   6.622   3.289  0.1164 -0.5510  0.1185
44193SOL    HW136110   1.128   6.573   3.226 -0.5970 -0.1074 -0.8478
44193SOL    HW236111   1.137   6.681   3.331  0.7002 -1.2116  0.2079
44194SOL     OW36112   8.950   4.634   8.636  0.2007 -0.2594  0.1730
44194SOL    HW136113   8.987   4.668   8.555 -0.8825 -2.8753 -1.5678
44194SOL    HW236114   9.026   4.601   8.685  0.7543  0.1897 -0.3693
44195SOL     OW36115   6.349  10.871   8.021  0.2505 -0.4038  0.1560
44195SOL    HW136116   6.297  10.943   8.056  0.6938 -1.1445  2.5433
44195SOL    HW236117   6.436  10.883   8.060  0.5419 -1.7737 -0.0241
44196SOL     OW36118   7.807   9.934   8.517 -0.0278 -0.0376 -0.0967
44196SOL    HW136119   7.810   9.914   8.423  3.7808  0.2845 -0.2063
44196SOL    HW236120   7.855  10.016   8.525 -1.3564  0.5943  2.0612
44197SOL     OW36121  10.538   9.402   8.909 -0.5565 -0.4863 -0.1681
44197SOL    HW136122  10.506   9.492   8.899 -0.2450 -0.1922  1.2353
44197SOL    HW236123  10.600   9.391   8.837 -0.2208  0.5953 -0.0660
44198SOL     OW36124  10.528   2.915   5.443  0.1728 -0.0823 -0.1028
44198SOL    HW136125  10.487   2.901   5.529  1.3795 -0.9876  0.3622
44198SOL    HW236126  10.468   2.974   5.397 -2.5685 -2.6099 -0.1025
44199SOL     OW36127   5.167   0.256   4.705  0.5008  0.1961  0.2666
44199SOL    HW136128   5.174   0.305   4.787 -0.0875  0.5386  0.1158
44199SOL    HW236129   5.105   0.306   4.653 -0.3001 -0.8420  0.2004
44200SOL     OW36130   6.415   9.929   6.710 -0.0241  0.1864  0.0328
44200SOL    HW136131   6.365  10.010   6.706  0.2440  0.4615  1.7897
44200SOL    HW236132   6.504   9.957   6.731  0.2838 -0.5109 -0.3043
44201SOL     OW36133   5.764  10.158   5.752 -0.3280 -0.3460  0.2259
44201SOL    HW136134   5.840  10.100   5.749 -1.1158 -1.6652  2.4215
44201SOL    HW236135   5.795  10.236   5.797 -0.1649 -0.7453  0.8249
44202SOL     OW36136   0.496   7.863   9.623 -0.5660 -0.2653  0.5282
44202SOL    HW136137   0.505   7.769   9.637  0.8443 -0.4431 -1.1556
44202SOL    HW236138   0.408   7.873   9.585  0.0064 -1.2021 -1.1413
44203SOL     OW36139   0.924   5.269   3.198  0.3561 -0.3748  0.4502
44203SOL    HW136140   0.838   5.252   3.161  0.4475 -2.8761  1.1774
44203SOL    HW236141   0.910   5.274   3.292  1.1355 -2.2516  0.7034
44204SOL     OW36142   3.232   3.428   0.963 -0.3140  0.4585  0.0683
44204SOL    HW136143   3.267   3.483   1.033  0.1040  0.0756  0.1656
44204SOL    HW236144   3.262   3.468   0.882 -2.4276  2.0452 -0.0068
44205SOL     OW36145   7.824  10.938   0.147  0.2138 -0.4050  0.5414
44205SOL    HW136146   7.870  10.941   0.063  0.7667 -1.3186  0.8007
44205SOL    HW236147   7.789  11.027   0.158  0.3425 -0.2049 -0.5326
44206SOL     OW36148   8.054   9.370   5.732 -0.5645 -0.4315 -0.0777
44206SOL    HW136149   8.126   9.333   5.783  1.8073  0.6781 -2.4118
44206SOL    HW236150   7.985   9.304   5.736  0.9190 -1.9859  1.4337
44207SOL     OW36151   4.125   2.448   2.679  0.6010 -0.0330 -0.5062
44207SOL    HW136152   4.130   2.481   2.589  0.1868 -0.7136 -0.7863
44207SOL    HW236153   4.103   2.526   2.731 -0.4785  0.1396 -1.1691
44208SOL     OW36154   5.844   8.739   3.514 -0.0683 -0.1016 -0.4431
44208SOL    HW136155   5.925   8.695   3.488  0.4773  1.3144 -1.2579
44208SOL    HW236156   5.779   8.669   3.519  1.2817 -1.3345  0.6542
44209SOL     OW36157  10.552   3.325   4.224  0.2141 -0.2544  0.3073
44209SOL    HW136158  10.566   3.239   4.264  0.2262  0.1291  1.1355
44209SOL    HW236159  10.640   3.360   4.213  0.1375  0.2744  1.3507
44210SOL     OW36160   6.691   6.635   0.142  0.6158 -0.3829 -0.2947
44210SOL    HW136161   6.699   6.580   0.065  2.7197  1.4191 -1.5057
44210SOL    HW236162   6.782   6.659   0.164 -0.0703  0.8580  1.4453
44211SOL     OW36163   7.117   9.176   7.907  0.5053 -0.5710  0.3498
44211SOL    HW136164   7.111   9.185   8.002 -0.0190 -1.7566  0.4505
44211SOL    HW236165   7.100   9.083   7.891  0.3361 -0.3360 -0.9244
44212SOL     OW36166   5.851   9.354   0.311 -0.0672  0.3737 -0.3431
44212SOL    HW136167   5.905   9.298   0.255  0.6339 -2.2237  2.6409
44212SOL    HW236168   5.908   9.426   0.335  1.0968 -0.7346  0.3415
44213SOL     OW36169   0.259   0.564   8.515 -0.1358 -0.0882 -0.8792
44213SOL    HW136170   0.190   0.592   8.575  1.6507 -0.1943  1.3575
44213SOL    HW236171   0.261   0.468   8.524  0.5659 -0.0537 -0.5822
44214SOL     OW36172   1.961   2.563  10.094 -0.3124  0.3499  0.2609
44214SOL    HW136173   2.040   2.509  10.091  1.3619  2.6778  0.0002
44214SOL    HW236174   1.889   2.500  10.086  1.5165 -1.7622 -0.6397
44215SOL     OW36175   6.276   2.894   8.614 -0.1553  0.1851 -0.0292
44215SOL    HW136176   6.290   2.819   8.672 -1.9727 -0.5810 -0.5049
44215SOL    HW236177   6.284   2.971   8.670  1.3883 -0.3628  0.5406
44216SOL     OW36178   3.214   9.777   0.644 -0.0791 -0.1266  0.2441
44216SOL    HW136179   3.137   9.722   0.661  0.3102 -0.6987  0.1527
44216SOL    HW236180   3.212   9.842   0.715 -1.0602  0.3226 -0.1767
44217SOL     OW36181   0.202   0.102   9.949  0.0007 -0.6363  0.1652
44217SOL    HW136182   0.163   0.015   9.946 -0.9583 -0.2013 -1.6091
44217SOL    HW236183   0.264   0.102   9.876  0.2294  0.0648  0.3566
44218SOL     OW36184   5.045   5.851   6.397 -0.1253 -0.1734 -0.1856
44218SOL    HW136185   5.085   5.906   6.330 -0.2838  1.8062  1.2505
44218SOL    HW236186   5.107   5.855   6.471 -0.8508 -0.7050  0.4605
44219SOL     OW36187   3.327   8.938   3.718  0.1711  0.2873  0.2097
44219SOL    HW136188   3.369   8.952   3.802 -0.8216 -1.8343  1.1421
44219SOL    HW236189   3.323   8.842   3.709 -1.9709  0.4325 -1.0783
44220SOL     OW36190  10.112   3.167   1.935  0.4121  0.0020 -0.1776
44220SOL    HW136191  10.157   3.233   1.987 -0.9736 -0.0708  1.1973
44220SOL    HW236192  10.134   3.187   1.844  0.9820  1.6017  0.2972
44221SOL     OW36193   7.761   5.404   3.662  0.4528 -0.5214 -0.6813
44221SOL    HW136194   7.735   5.468   3.729 -1.4924 -0.6918 -1.2071
44221SOL    HW236195   7.817   5.452   3.602  0.2691  0.2775 -0.2183
44222SOL     OW36196   2.915   9.103   7.707 -0.0920 -0.4089  0.3998
44222SOL    HW136197   2.966   9.165   7.653  0.2051 -1.7827 -0.9812
44222SOL    HW236198   2.902   9.148   7.790  1.1766  1.0116 -0.1280
44223SOL     OW36199   0.785   6.523   4.870 -0.6763  0.0741 -0.6497
44223SOL    HW136200   0.845   6.577   4.920 -0.2680 -0.4351 -0.5842
44223SOL    HW236201   0.812   6.535   4.779 -0.0392 -0.6798 -0.5656
44224SOL     OW36202   3.275   0.682   0.483 -0.1411  0.3662 -0.2349
44224SOL    HW136203   3.326   0.606   0.511  0.4947  1.3882  1.5791
44224SOL    HW236204   3.299   0.695   0.391  0.4559 -1.0447 -0.2987
44225SOL     OW36205   8.119   1.723   5.467  0.3668  0.2208 -0.6016
44225SOL    HW136206   8.165   1.659   5.520 -0.6291 -1.6980 -1.9312
44225SOL    HW236207   8.187   1.763   5.412  1.1330  1.0240  0.8784
44226SOL     OW36208   6.430  10.183   5.090  0.1596  0.3716 -0.0147
44226SOL    HW136209   6.391  10.102   5.057  1.8846  0.3519 -2.1671
44226SOL    HW236210   6.431  10.242   5.015  0.7680  1.7080  1.0021
44227NA      NA36211   1.337   2.527   1.916  0.2485 -0.0681 -0.2654
44228NA      NA36212   6.649   5.099  11.114  0.4180 -0.0335 -0.9579
44229NA      NA36213   7.416   4.380   3.041 -0.2080  0.4012  0.0430
44230NA      NA36214   0.741   1.259   8.526 -0.3849 -0.1175 -0.0189
44231NA      NA36215   4.995   1.752  10.698  0.2741  0.0481 -0.4579
44232NA      NA36216  10.863   7.374   6.700  0.3332 -0.3381  0.4854
44233NA      NA36217   8.767   7.036   2.543 -0.1191 -0.5100  0.3371
44234NA      NA36218   8.460   4.494   4.554  0.2379  0.0085  0.0693
44235NA      NA36219   9.168   9.991   7.301  0.6041  0.1923  0.0762
44236NA      NA36220   0.268   2.987   9.139  0.3745 -0.7907  0.3624
44237NA      NA36221   4.082  10.505   0.375  0.3439 -0.1786  0.2279
44238NA      NA36222   4.502   2.053  10.388 -0.1308  0.0237  0.4333
44239NA      NA36223   1.647   0.567  10.111 -0.2284 -0.3116  0.4729
44240NA      NA36224   2.679   4.979   6.264  0.0210 -0.1677 -0.2013
44241NA      NA36225   7.828   9.673   4.009  0.1468  0.1788 -0.1381
44242NA      NA36226   7.517   6.150   6.673  0.5380 -0.3115  0.0030
44243NA      NA36227   1.335   9.689   1.211  0.2425  0.0164  0.2832
44244NA      NA36228   9.052  10.006   2.544  0.5001 -0.4528 -0.3519
44245NA      NA36229  10.840   6.744  10.474 -0.3647  0.3274 -0.5233
44246NA      NA36230   8.277   7.838   6.070  0.0731 -0.1598  0.0530
44247NA      NA36231  10.887   5.142   2.356 -0.4755 -0.2078  0.0330
44248NA      NA36232   7.645  10.234   3.343  0.2141  0.3387 -0.2752
44249NA      NA36233   9.237   6.787   8.019  0.2185  0.0918 -0.0430
44250NA      NA36234   5.763   1.133   1.271 -0.0309  0.1166 -0.0866
44251NA      NA36235   9.642   8.394   8.168 -0.3512 -0.1258  0.1975
44252NA      NA36236   4.648   6.631   6.780 -0.1396 -0.3579  0.0802
44253NA      NA36237   7.107  10.626  10.977  0.1847 -0.6561  0.1332
44254NA      NA36238   6.796   2.599   6.966  0.1459  0.1158  0.7192
44255NA      NA36239   4.837   0.451   9.391 -0.3250 -0.2165 -0.6743
44256NA      NA36240  10.438   0.180   3.058 -0.0431 -0.4730  0.0076
44257NA      NA36241   2.136  10.995   1.825  0.0603  0.1784 -0.4988
44258NA      NA36242   0.147   4.470   6.067  0.1339  1.0199 -0.0885
44259NA      NA36243   8.374   4.880   5.810 -0.0688 -0.5484 -0.3029
44260NA      NA36244   3.523   5.362   8.029 -0.4209 -0.2995 -0.1171
44261NA      NA36245   5.903   2.719   4.759  0.2086 -0.4428  1.0209
44262NA      NA36246   7.181   9.715   2.849 -0.1894  0.3757  0.1315
44263NA      NA36247   8.537   5.614   8.737 -0.1324  0.4210  0.2039
44264NA      NA36248  10.391  10.341   3.255  0.1294 -0.2712 -0.4232
44265NA      NA36249   4.785   2.609   7.117 -0.4400 -0.2806 -0.1137
44266NA      NA36250   2.583   7.457   8.705 -0.1701 -0.6800 -0.1431
44267NA      NA36251   0.412   4.608   4.794  0.2694  0.3757 -0.2542
44268NA      NA36252   8.872   0.294   2.824 -0.0003 -0.2412  0.6420
44269NA      NA36253   5.016   4.917   6.477 -0.2510 -0.3811  0.1964
44270NA      NA36254   9.067   1.256   4.464  0.0244 -0.1558  0.2739
44271NA      NA36255   3.510  10.870   9.842  0.2028  0.2980  0.0653
44272NA      NA36256   7.860   3.186  10.510  0.1413  0.1413 -0.4184
44273NA      NA36257   6.465   7.764   7.685  0.2475 -0.1978 -0.1806
44274NA      NA36258   4.249   5.013   6.788  0.2660 -0.1183  0.2850
44275NA      NA36259   5.164   8.878   7.371  0.5467  0.2644 -0.1696
44276NA      NA36260   2.650  10.806  10.911 -0.0807  0.0408 -0.1779
44277NA      NA36261   8.004  10.894   8.180 -0.1654  0.0917  0.5667
44278NA      NA36262   9.562   6.939   2.257  0.6540  0.0029 -0.3741
44279NA      NA36263   4.770   5.775   5.548  0.0739 -0.4168 -0.2394
44280NA      NA36264   7.705   2.533   5.255 -0.2193  0.1715 -0.0671
44281NA      NA36265   0.016   5.894   6.893  0.0226  0.2536  0.1599
44282NA      NA36266   5.034   8.860   2.598 -0.1438 -0.3547  0.4521
44283NA      NA36267   6.696   2.491   6.103  0.3826  0.0759  0.3939
44284NA      NA36268   9.513   5.512   7.879  0.2891  0.0359  0.0494
44285NA      NA36269  11.080   0.519  10.038  0.1321  0.0459 -0.4311
44286NA      NA36270   6.318   0.199   9.905  0.1216  0.2217  0.0432
44287NA      NA36271   5.639   5.889   5.257 -0.3694 -0.4278 -0.0076
44288NA      NA36272   8.607  10.773   0.519  0.1448  0.2776  0.2875
44289NA      NA36273   2.895   9.976  10.840 -0.0403  0.1437  0.2462
44290NA      NA36274   6.690   6.669   5.799 -0.0462  0.0642 -0.0182
44291NA      NA36275   0.582   5.245   6.222  0.2760  0.2423  0.1289
44292NA      NA36276   8.513   5.150   2.712  0.0782 -0.4651 -0.0808
44293NA      NA36277   6.111   6.101   5.717  0.6415  0.3417 -0.5107
44294NA      NA36278   5.212   7.153   5.317 -0.4142 -0.2289 -0.3719
44295NA      NA36279   2.516   3.922   0.010  0.2013 -0.0776  0.2300
44296NA      NA36280   7.548   1.844   9.462  0.2198 -0.6964 -0.3074
44297NA      NA36281   9.749   4.775  10.382  0.2025 -0.6453  0.1629
44298NA      NA36282   5.342  10.694   6.115  0.4010  0.1895  0.1818
44299NA      NA36283   1.966  10.746   8.501  0.3422 -0.1523  0.3414
44300NA      NA36284   5.807   8.338   9.930 -0.0926 -0.2915 -0.1832
44301NA      NA36285  10.449   8.167  10.370 -0.1620 -0.1818 -0.1203
44302NA      NA36286   2.741   0.461   6.922  0.5349  0.3560 -0.1210
44303NA      NA36287   9.668   8.229   0.230  0.0049 -0.2385 -0.3172
44304NA      NA36288  10.779   3.547  10.462  0.0155  0.6630 -0.1460
44305NA      NA36289   2.675   1.197   7.543 -0.0392 -0.1066  0.2090
44306NA      NA36290   6.464   9.065   4.429  0.2146 -0.3548 -0.2219
44307NA      NA36291   8.278   8.332  11.055  0.1836 -0.4091  0.2355
44308NA      NA36292   4.551   0.091   6.290  0.3174  0.1023  0.5760
44309NA      NA36293   0.416   0.157   3.440 -0.2867  0.1842 -0.3738
44310NA      NA36294   1.245   8.411   5.733  0.4068 -0.0844  0.4113
44311NA      NA36295  10.497  10.835   6.255  0.1498  0.5047  0.0312
44312NA      NA36296   1.326   8.142   0.236 -0.6163  0.1081  0.0740
44313NA      NA36297  11.035   9.326   3.052 -0.6083  0.2720  0.4080
44314NA      NA36298   1.420   2.349   7.192  0.6392  0.3479  0.4780
44315NA      NA36299   5.529   0.866  10.358  0.0227  0.3092 -0.3054
44316NA      NA36300   2.680   1.924   5.928 -0.6499 -0.2870  0.3844
44317NA      NA36301   5.930  10.704   0.894 -0.1115  0.3652 -0.6795
44318NA      NA36302   3.403   8.225  11.108  0.3145 -0.3107  0.4782
44319NA      NA36303   0.979   1.660   4.115  0.1369 -0.2330 -0.0928
44320NA      NA36304   1.328   0.303   1.388  0.6929  0.1875  0.0345
44321NA      NA36305   4.237   7.870   2.742 -0.5591 -0.2193 -0.3828
44322NA      NA36306   0.845   6.772   8.312 -0.2996  0.1109  0.0486
44323NA      NA36307  10.071   3.506   7.591 -0.0199  0.2564 -0.4528
44324NA      NA36308  10.237   7.068  10.917 -0.2459 -0.1521  0.0696
44325NA      NA36309   7.842   2.618   4.573 -0.4216  0.0130  0.2161
44326NA      NA36310   3.236   0.266   6.125  0.2837  0.3372 -0.0389
44327NA      NA36311   2.065   1.656   4.449  0.0923  0.1045 -0.3229
44328NA      NA36312   6.329   8.730   8.339  0.2255 -0.1055  0.3626
44329NA      NA36313   4.242   9.303  10.160 -0.6374 -0.2867  0.0514
44330NA      NA36314   7.511  10.464   6.234 -0.3234  0.4947 -0.0509
44331NA      NA36315  10.611   3.285   0.767  0.0247  0.3321 -0.0745
44332NA      NA36316   1.757  10.017  10.601  0.6365 -0.5315 -0.1572
44333NA      NA36317   9.130  10.899   1.803 -0.0553  0.0839 -0.1915
44334NA      NA36318   1.647   3.007   6.858 -0.1479 -0.1997 -0.0397
44335NA      NA36319   2.166  10.111   5.301 -0.4971  0.1418 -0.1891
44336NA      NA36320   9.193   6.402   5.128  0.2685 -0.0284  0.1218
44337NA      NA36321   2.742   0.969   1.017 -0.4475  0.7696  0.1335
44338NA      NA36322   6.764   9.056   8.288 -0.0554 -0.0192  0.5387
44339NA      NA36323   6.653   6.575   9.152  0.0742  0.7421 -0.1984
44340NA      NA36324   6.882   8.033   9.853  0.0760 -0.2567 -0.0496
44341NA      NA36325   9.755   1.924   4.129  0.1789  0.3349  0.3818
44342NA      NA36326   9.631  10.747   0.638  0.2209 -0.5087  0.6345
44343NA      NA36327   4.989   8.401   4.285  0.3006  0.7421  0.4456
44344NA      NA36328   9.903  10.956   7.710 -0.0046  0.1956 -0.0225
44345NA      NA36329  10.229   1.139   9.635 -0.1040  0.4142  0.0373
44346NA      NA36330   0.706   7.591   2.810  0.0529  0.4579  0.1676
44347NA      NA36331   5.463   8.881   9.433 -0.3016  0.2217 -0.4695
44348NA      NA36332  10.740   6.817   8.008  0.0802  0.0556 -0.5407
44349NA      NA36333   1.162   3.869   8.667 -0.1490  0.3320 -0.5275
44350NA      NA36334   2.506   1.509   7.991 -0.3427 -0.0910 -0.2331
44351NA      NA36335   6.929   3.392   6.640 -0.4124 -0.0067  0.3801
44352NA      NA36336   7.331   1.283   2.440  0.1997 -0.2644 -0.2436
44353CL      CL36337   9.027   6.761   4.493 -0.0216 -0.0342  0.4203
44354CL      CL36338   9.722   1.184  10.686 -0.2178  0.0702  0.1008
44355CL      CL36339   3.164   4.513   8.012 -0.0414 -0.1705 -0.1511
44356CL      CL36340   7.742   2.734  10.423 -0.1550 -0.1698 -0.0684
44357CL      CL36341   2.271   4.874   9.520 -0.1670  0.2767 -0.2379
44358CL      CL36342   6.730   6.267  10.857 -0.1692  0.0249  0.2923
44359CL      CL36343   3.920   6.693   8.950 -0.3347  0.3396  0.0113
44360CL      CL36344   5.489   7.592  10.930  0.3724  0.2434 -0.4131
44361CL      CL36345   8.323   4.645   0.630  0.0581 -0.4459  0.0516
44362CL      CL36346   4.221  10.210   3.728 -0.0971  0.2596 -0.0650
44363CL      CL36347  10.418   0.269   9.512 -0.5087  0.1556  0.3711
44364CL      CL36348   6.531   6.821   1.585  0.2963 -0.0443 -0.1889
44365CL      CL36349   4.900   1.396   6.025  0.0685  0.1027  0.1947
44366CL      CL36350  10.321   3.099   0.400  0.2835  0.4857 -0.3090
44367CL      CL36351   3.257   4.298   0.635  0.1057  0.3169  0.0394
44368CL      CL36352   3.961   6.342   4.578 -0.0338 -0.2817  0.0239
44369CL      CL36353   6.574   8.115   1.596 -0.0949  0.3462 -0.2851
44370CL      CL36354   9.511   4.475   8.296 -0.3200  0.3648 -0.0820
44371CL      CL36355   4.315   5.376   3.308  0.1411  0.3146  0.2172
44372CL      CL36356   4.568  10.561   9.618 -0.2311 -0.1869  0.0329
44373CL      CL36357   1.634  11.107   8.389  0.1190  0.1399 -0.4438
44374CL      CL36358   2.638   3.949   2.608  0.1704 -0.1139  0.0988
44375CL      CL36359   5.967   5.802   9.366  0.3360 -0.0085  0.1218
44376CL      CL36360  10.286   5.048  10.167  0.4490  0.2833  0.1737
44377CL      CL36361   8.845   9.907   7.733  0.2900 -0.3566 -0.3178
44378CL      CL36362   7.464   6.846   8.441  0.2419 -0.4967  0.1346
44379CL      CL36363   7.975   5.134   6.008  0.3078  0.4003 -0.2426
44380CL      CL36364   1.888   7.777  10.221  0.6189 -0.2228 -0.6494
44381CL      CL36365  10.895   3.966   9.090  0.2964  0.4949 -0.1146
44382CL      CL36366   5.206   6.873  10.702 -0.1088 -0.0194  0.2251
44383CL      CL36367   1.134   5.673   5.256 -0.0729  0.3418  0.2539
44384CL      CL36368   3.522   3.686   0.345  0.3631  0.0378  0.4382
44385CL      CL36369   9.090   1.091   1.630  0.1752 -0.1183  0.0951
44386CL      CL36370  10.048   0.115   1.425  0.0057 -0.0218  0.4848
44387CL      CL36371   4.237   4.396   2.667 -0.1486 -0.0905 -0.0994
44388CL      CL36372   7.065   7.795   6.487  0.1770 -0.0007 -0.4606
44389CL      CL36373   1.204   7.780   9.411  0.3829 -0.1082  0.1201
44390CL      CL36374   2.662   0.177   7.183  0.1866  0.1257  0.2949
44391CL      CL36375   4.341   3.043   3.709 -0.0690  0.1420  0.2890
44392CL      CL36376   2.584   4.938   7.154 -0.5542  0.0409 -0.0002
44393CL      CL36377   6.850   5.916   1.916 -0.1295  0.0222 -0.3770
44394CL      CL36378  10.758   5.279   1.186 -0.0076 -0.4138  0.0965
44395CL      CL36379   3.676   6.209   6.650 -0.3834 -0.0656 -0.1315
44396CL      CL36380   0.712   9.486   5.795  0.0045 -0.1914  0.3000
44397CL      CL36381   3.869   5.521  10.646 -0.2611 -0.1982  0.4051
44398CL      CL36382   6.977   6.560   1.007 -0.0869 -0.0396 -0.5338
44399CL      CL36383  10.653   0.396   7.848 -0.6814  0.1659  0.0856
44400CL      CL36384   3.041   1.494   6.619  0.0180 -0.0046  0.0480
44401CL      CL36385   7.679   3.089   4.281 -0.3874 -0.2013 -0.1073
44402CL      CL36386   5.614   5.661  10.239 -0.2823 -0.2831 -0.2999
44403CL      CL36387   3.425   6.290   1.853 -0.2826  0.1998 -0.1085
44404CL      CL36388   0.702  10.026   2.557 -0.2324 -0.1782  0.0104
44405CL      CL36389   0.757   0.192   4.720  0.0455  0.0763 -0.5383
44406CL      CL36390   3.876   8.734   8.141 -0.2662  0.0563 -0.0775
44407CL      CL36391   6.627   3.431  10.617  0.0003  0.2579  0.2684
44408CL      CL36392   1.825   3.422  10.261  0.0594  0.3382  0.0006
44409CL      CL36393   4.993   1.206   1.369 -0.1415 -0.2530  0.0178
44410CL      CL36394   2.094   9.769  10.685 -0.3003  0.1008 -0.2344
44411CL      CL36395   3.575  10.416  11.091  0.2759 -0.1147 -0.0500
44412CL      CL36396   2.698   1.575   7.868  0.3359  0.1763  0.0607
44413CL      CL36397   3.010   1.521   1.341  0.5000  0.1064 -0.2290
44414CL      CL36398   4.446   3.363   1.599  0.0924 -0.0210 -0.5548
44415CL      CL36399   4.039   1.765   1.529 -0.0996 -0.2934  0.1128
44416CL      CL36400   9.112   1.896   4.078  0.1550 -0.1781  0.3065
44417CL      CL36401   5.428   2.484   4.773  0.2709 -0.2922 -0.4131
44418CL      CL36402   0.976   8.166   8.163 -0.2076  0.4436 -0.4039
44419CL      CL36403   4.148   5.006   8.474 -0.2841 -0.0013  0.1020
44420CL      CL36404   1.980   7.702   5.581  0.5068  0.0999  0.0022
44421CL      CL36405   3.944   2.186   9.651  0.2468 -0.0168  0.3505
44422CL      CL36406   5.434   6.369   4.481  0.0216 -0.5108  0.0251
44423CL      CL36407   7.119   4.100   2.546  0.0044 -0.5190 -0.1263
44424CL      CL36408   2.863   6.336   0.156  0.0450 -0.4701 -0.0310
44425CL      CL36409   8.075   9.640   4.964 -0.3348 -0.3394 -0.1556
44426CL      CL36410   5.823   8.844  10.584  0.1599 -0.0821 -0.0783
44427CL      CL36411   5.471   3.704   4.916  0.2712  0.3183 -0.5054
44428CL      CL36412   2.707   5.561   0.180  0.1421  0.0885  0.2081
44429CL      CL36413   7.423   3.426   5.731 -0.3344 -0.1587 -0.0126
44430CL      CL36414   1.018  10.061   9.642 -0.3528  0.2956 -0.0407
44431CL      CL36415   2.393   0.568   0.495  0.1326 -0.3351  0.0382
44432CL      CL36416   9.187   6.902   2.570  0.5330  0.1693  0.1302
44433CL      CL36417   2.335   4.164   4.506  0.3279 -0.0055 -0.4445
44434CL      CL36418   5.519   2.931   3.194 -0.3247 -0.2786 -0.3544
44435CL      CL36419  11.062   7.440   6.828  0.1460 -0.3028  0.1228
44436CL      CL36420  10.789   4.477   4.387  0.2503 -0.0359  0.1244
44437CL      CL36421   3.736   5.499   3.666  0.1812 -0.0449  0.3214
44438CL      CL36422   7.867   0.079  10.711 -0.0728 -0.2845 -0.2299
44439CL      CL36423   8.254  10.973   5.397 -0.0432 -0.2696 -0.0861
44440CL      CL36424   4.487   0.949   1.087 -0.1191  0.1072  0.1147
44441CL      CL36425   6.554   9.159   8.377  0.3544  0.1934 -0.2232
44442CL      CL36426   6.519   7.549   0.482  0.7267  0.3572 -0.1164
44443CL      CL36427   0.562  10.809  11.025 -0.1217  0.3132  0.2074
44444CL      CL36428   2.119   5.206   2.087 -0.5256 -0.3346  0.1483
44445CL      CL36429   7.790   2.903   1.490  0.3931 -0.4342 -0.1971
44446CL      CL36430   4.849   6.306   0.823  0.0827  0.3364 -0.4410
44447CL      CL36431   3.990   2.509   0.245  0.0927 -0.0442  0.2263
44448CL      CL36432   2.263   5.767   2.468 -0.1526  0.1232  0.5976
44449CL      CL36433   1.203   2.431   7.151 -0.5343  0.2179 -0.2100
44450CL      CL36434   8.879   7.993   3.758  0.1524  0.0996  0.2901
44451CL      CL36435   6.314   8.723   6.663  0.2034 -0.1197  0.0253
44452CL      CL36436   8.389   7.665  10.959  0.4083  0.3153  0.4135
44453CL      CL36437   2.175   0.321   1.178  0.3738 -0.4877 -0.5410
44454CL      CL36438   4.553   1.909  10.561  0.3354 -0.0935  0.0383
44455CL      CL36439   2.907   5.618   4.094 -0.0776 -0.0838 -0.0976
44456CL      CL36440   3.897   7.014   2.978  0.1872 -0.0923  0.1219
44457CL      CL36441   6.959   9.064   8.432  0.0517  0.1710  0.0289
44458CL      CL36442   7.519   8.951   3.497  0.0225 -0.4480 -0.1198
44459CL      CL36443   6.816   3.650   2.830  0.1080  0.1966  0.2937
44460CL      CL36444   3.173   4.471   1.763  0.4825  0.5534  0.2666
44461CL      CL36445   6.452   5.100   0.112  0.0748 -0.7906 -0.1007
44462CL      CL36446   4.569   5.456  11.026  0.1879  0.1631 -0.0177
44463CL      CL36447   2.096   4.794   3.395  0.0626 -0.2102  0.1927
44464CL      CL36448   3.800   3.476   9.544  0.3241  0.0061 -0.1023
44465CL      CL36449   3.013   8.781   1.833  0.0684  0.4059 -0.1322
44466CL      CL36450   5.543   1.972   2.581  0.3237  0.2672 -0.0611
44467CL      CL36451   8.809  10.304   6.826 -0.3376  0.2387  0.1259
44468CL      CL36452   5.337   5.835   6.603  0.2646  0.1293  0.0503
44469CL      CL36453   4.719   3.985   4.289 -0.0524  0.2707 -0.2308
44470CL      CL36454   2.945   4.217   2.839  0.1885  0.2482 -0.0306
44471CL      CL36455   4.618   2.625   1.294 -0.1159 -0.1896 -0.0321
44472CL      CL36456  10.787   3.643   3.415 -0.0306  0.1593 -0.1480
44473CL      CL36457   1.361   3.058  11.001 -0.1527  0.0072 -0.0948
44474CL      CL36458   0.367   6.740   0.935  0.1358 -0.1590  0.4247
44475CL      CL36459   2.851   4.333  10.214  0.2848 -0.1009 -0.3938
44476CL      CL36460   5.857   1.890   4.348 -0.3138  0.0766 -0.2874
44477CL      CL36461   6.650   0.794  10.455 -0.4163  0.1619 -0.3776
44478CL      CL36462   2.454   1.684   4.119  0.1144 -0.5059  0.4483
44479CL      CL36463   6.252   3.462   0.329 -0.1237 -0.0948 -0.0647
44480CL      CL36464   4.469   7.287   4.104 -0.3131  0.3445  0.0904
44481CL      CL36465   4.375   3.620  11.009  0.1705  0.2377 -0.1107
44482CL      CL36466   5.364   5.226   2.528 -0.0074 -0.1013  0.1897
44483CL      CL36467   0.338   6.930   1.683 -0.1830  0.1397 -0.0560
44484CL      CL36468   6.061   2.489   8.553  0.0171 -0.2506  0.2041
44485CL      CL36469   3.783   5.955   1.406 -0.1887  0.0381 -0.0600
44486CL      CL36470   8.914   4.055   0.646  0.0742  0.0026 -0.2905
44487CL      CL36471   5.270  10.647  10.478  0.1638  0.6164 -0.0830
44488CL      CL36472   2.916   8.441   0.257  0.4660  0.2121  0.6356
44489CL      CL36473   0.702   4.186   0.909  0.3145  0.0088  0.1252
44490CL      CL36474   3.639   6.073   8.273 -0.1590 -0.3163 -0.1473
44491CL      CL36475   4.411   7.028   2.972 -0.4232  0.2878  0.0639
44492CL      CL36476   4.833   4.635   6.872 -0.2407  0.2448 -0.0872
44493CL      CL36477   5.322   4.067  10.538  0.4996 -0.3661  0.0201
44494CL      CL36478   3.338   2.371   3.074  0.1052  1.0265  0.3930
44495CL      CL36479   2.337   2.475   4.533 -0.3394 -0.1724 -0.3922
44496CL      CL36480   7.115   2.173   3.287 -0.3136 -0.3601  0.3338
44497CL      CL36481   6.140   5.106   3.799  0.1262 -0.0640  0.4721
44498CL      CL36482   8.659   7.003   9.088  0.4531 -0.2392  0.1630
44499CL      CL36483   2.375   3.663   0.733 -0.1589  0.4429  0.2876
44500CL      CL36484   4.957   7.906  10.157 -0.1452  0.0127  0.2013
44501CL      CL36485   4.026   5.046   2.112 -0.1707 -0.2982  0.6113
44502CL      CL36486   3.265   0.390   1.062 -0.0347  0.0391 -0.3398
44503CL      CL36487   6.027   3.921   7.942 -0.1147  0.5093 -0.0033
44504CL      CL36488   4.958   2.727  10.572  0.3021 -0.0323 -0.2982
44505CL      CL36489  10.980   7.162  10.251 -0.2386 -0.5880 -0.2855
44506CL      CL36490   4.924   2.689   2.732  0.0633 -0.0009 -0.0935
44507CL      CL36491   6.910   3.232   0.613 -0.1015 -0.1012 -0.2453
44508CL      CL36492   3.565   6.428  10.675  0.0609 -0.3373  0.4029
44509CL      CL36493   6.292   1.286   1.181  0.1824  0.0121 -0.4149
44510CL      CL36494   1.008   4.052   7.836 -0.5484  0.1509  0.2384
44511CL      CL36495   8.307   6.319   3.731 -0.6052  0.3383  0.0579
44512CL      CL36496   6.220   6.704   2.838 -0.3429  0.0227  0.2063
44513CL      CL36497   9.347   8.960   7.864 -0.0855 -0.5150 -0.1933
44514CL      CL36498  10.582   6.544  10.824 -0.0161 -0.1349  0.0326
44515CL      CL36499   8.732  10.491   5.001 -0.0281 -0.1925 -0.0150
44516CL      CL36500   6.434   9.321   4.852  0.0888 -0.4975 -0.3918
44517CL      CL36501   5.007   3.103  10.846  0.4362 -0.1185 -0.2060
44518CL      CL36502   7.729   4.880   2.509 -0.2059  0.5799 -0.0932
44519CL      CL36503   5.195   0.298   2.476  0.2800 -0.0746  0.2612
44520CL      CL36504   5.392   6.282   1.540  0.2234 -0.0093  0.1007
44521CL      CL36505   4.280   4.941  10.641  0.4740 -0.1072  0.8408
44522CL      CL36506   5.307   1.095  10.776 -0.0203 -0.3537 -0.3811
44523CL      CL36507   6.520   4.976   4.439  0.1995 -0.0971 -0.2429
44524CL      CL36508   1.949   5.451   3.348  0.1075 -0.0670 -0.3537
44525CL      CL36509   8.174   2.238   4.600  0.1951  0.0456 -0.3385
44526CL      CL36510   1.059   9.175   3.495  0.5960  0.2091  0.4380
44527CL      CL36511   5.862   4.445   9.936  0.4920  0.0970  0.0783
44528CL      CL36512  10.774   5.226   4.752 -0.3655 -0.0195 -0.2042
44529CL      CL36513   6.357   2.267   3.274 -0.2913 -0.0162  0.1282
44530CL      CL36514   5.741   5.486   3.754  0.0602  0.3987 -0.1222
44531CL      CL36515   3.561   4.388  10.816  0.1683  0.1900  0.6622
44532CL      CL36516   7.354   5.219   0.924 -0.3496  0.1253  0.5827
44533CL      CL36517   6.852   4.965   0.030 -0.0943 -0.3310 -0.0515
44534CL      CL36518   5.274   4.339   3.221  0.2646 -0.0193  0.0584
44535CL      CL36519   2.094   5.491   6.054  0.2817  0.2078  0.0010
44536CL      CL36520   8.592   2.742   6.453 -0.1942 -0.2433  0.2463
44537CL      CL36521   6.071   4.165   5.553  0.1054 -0.0658 -0.2381
44538CL      CL36522   6.924   4.058   8.433  0.1053  0.0603  0.0281
44539CL      CL36523   9.053   6.490   2.048 -0.0262 -0.1446  0.0059
44540CL      CL36524   5.923   4.145   3.744  0.6356 -0.0079 -0.7204
44541CL      CL36525   5.011   4.037   1.916  0.0756  0.3737 -0.2583
44542CL      CL36526   9.126   7.860   7.932  0.4845 -0.0300 -0.1157
44543CL      CL36527  10.677   7.316   6.840 -0.0234 -0.2334  0.5255
44544CL      CL36528   2.916   4.718  10.776  0.1669 -0.4129 -0.0245
44545CL      CL36529   9.905   9.160   9.367 -0.5649 -0.0074  0.0284
44546CL      CL36530   7.232   3.841   1.797 -0.0192  0.2955  0.1544
44547CL      CL36531   6.053   3.345   1.556 -0.2484  0.0391 -0.0465
44548CL      CL36532   4.904   8.830   2.000  0.0136 -0.1904  0.0091
44549CL      CL36533   8.781   5.797   5.368 -0.1992  0.1643 -0.2922
44550CL      CL36534   2.441   5.312   0.769 -0.1638 -0.0473  0.8412
44551CL      CL36535   3.083  10.698   5.446  0.0313 -0.0720 -0.0187
44552CL      CL36536   4.459   5.059   8.816 -0.2854  0.0066  0.2565
44553CL      CL36537   5.699   8.964   2.155  0.0541 -0.5361  0.1091
44554CL      CL36538   4.919   3.765   7.992 -0.0879 -0.4683 -0.3924
44555CL      CL36539   2.616  10.673   3.317  0.2505 -0.2101 -0.3177
44556CL      CL36540   2.539   9.021   2.616  0.0891  0.4889  0.0665
44557CL      CL36541   1.145   0.021   1.671 -0.5953  0.0836  0.2872
44558CL      CL36542   6.341  10.844   0.059 -0.1001 -0.1474 -0.6503
44559CL      CL36543   7.271   7.198   9.380  0.2529  0.4710  0.0239
44560CL      CL36544   7.303   5.649   7.464  0.3911  0.1947 -0.2768
44561CL      CL36545   4.869   6.820   4.932 -0.5555  0.2165  0.2437
44562CL      CL36546   2.789   7.854   9.555 -0.0888  0.1174  0.0796
44563CL      CL36547   6.130   5.831   7.042 -0.1279  0.0385 -0.0968
44564CL      CL36548   7.002   8.505   7.242  0.2118 -0.0371  0.3144
44565CL      CL36549   2.408   3.454   3.401  0.1808 -0.6580 -0.0209
44566CL      CL36550   9.996   7.475  10.777  0.0879  0.4999  0.0380
44567CL      CL36551   6.692   9.846   2.769  0.4822  0.1053 -0.1875
44568CL      CL36552   9.300   0.404   5.610  0.1690  0.1524  0.3437
44569CL      CL36553   3.084   2.294   0.502 -0.1236 -0.4413 -0.1512
44570CL      CL36554   9.327   3.088   8.942  0.1808  0.1377  0.0305
44571CL      CL36555  11.116   5.627   1.169 -0.3536  0.1111 -0.4188
44572CL      CL36556   9.999   4.380   6.309 -0.3007 -0.0300 -0.3032
44573CL      CL36557   7.796   4.318  10.932  0.1846 -0.3557 -0.3604
44574CL      CL36558   9.178  11.125   2.573  0.2207 -0.3406  0.2765
44575CL      CL36559  10.594   0.959   9.818 -0.0044  0.4619  0.0771
44576CL      CL36560   9.498   8.209   9.426 -0.1501  0.2773  0.1888
44577CL      CL36561   3.391   3.383   2.182  0.2552 -0.2963  0.1153
44578CL      CL36562   3.818   4.137   2.564  0.2253 -0.0364  0.1293
44579CL      CL36563   2.294   2.430   0.498 -0.4361 -0.4327 -0.2967
44580CL      CL36564   6.455   9.882   5.872  0.1820 -0.0011 -0.2265
44581CL      CL36565   2.418  10.010   7.204  0.0385 -0.2521  0.1669
44582CL      CL36566   7.808   9.874  10.020 -0.1949 -0.4064 -0.0671
44583CL      CL36567   2.807   5.688   2.856  0.1946 -0.4006  0.4662
44584CL      CL36568   5.258   0.372   5.000  0.3785 -0.2802 -0.0477
44585CL      CL36569   8.720   7.105   5.351 -0.0059 -0.2028 -0.2948
44586CL      CL36570   8.161  10.385   3.153  0.0743 -0.0596 -0.2870
44587CL      CL36571   8.507   2.318   8.341 -0.4632  0.2648  0.3615
44588CL      CL36572   5.987   0.208   9.096  0.1131 -0.0853 -0.0577
44589CL      CL36573   2.809   3.083   0.795  0.0525 -0.3204  0.4385
44590CL      CL36574   1.792   2.519   6.886  0.2227  0.2001  0.3642
44591CL      CL36575   1.514   6.134   2.331 -0.2143 -0.3569  0.0953
44592CL      CL36576   3.435   1.314   2.407  0.0529  0.0194 -0.3665
44593CL      CL36577   4.645   8.673   6.562 -0.1654  0.2308 -0.1381
44594CL      CL36578   3.621   2.404   4.845 -0.2127  0.1426 -0.1674
44595CL      CL36579   7.069   9.483  10.968 -0.1533 -0.0518  0.0305
44596CL      CL36580   2.963   3.371   7.672  0.1313  0.0540  0.0427
44597CL      CL36581   3.641   0.728  10.411  0.0753 -0.3567  0.3599
44598CL      CL36582   2.237   2.385  10.053 -0.0014  0.0221 -0.1661
44599CL      CL36583   4.716   4.476   2.487 -0.1473  0.2558 -0.6607
44600CL      CL36584  10.403   7.537   6.402 -0.3719  0.0862  0.0272
44601CL      CL36585   9.065   2.586   0.204  0.2851 -0.4478 -0.0811
44602CL      CL36586  10.468   0.234   3.576  0.5632 -0.1386  0.2590
44603CL      CL36587   3.852   5.155   0.136 -0.0100  0.1423 -0.1305
44604CL      CL36588   5.923   7.050   8.358  0.3623 -0.0865  0.4450
  11.12856  11.12856  11.12856
